<event>
 4    1  0.2731969E-009  0.8230249E+03  0.7818608E-02  0.9527275E-01
         -1   -1    0    0    0  501 -0.00000000000E+00  0.00000000000E+00  0.84645713354E+03  0.84645713355E+03  0.50400000000E-02 0.  1.
          1   -1    0    0  501    0  0.00000000000E+00 -0.00000000000E+00 -0.11651285846E+04  0.11651285846E+04  0.50400000000E-02 0. -1.
    8880022    1    1    2    0    0 -0.34791384743E+03  0.73002344648E+03 -0.72219652424E+03  0.10949601592E+04  0.15294330000E+03 0.  0.
    8880022    1    1    2    0    0  0.34791384743E+03 -0.73002344648E+03  0.40352507316E+03  0.91662555896E+03  0.15294330000E+03 0.  0.
<mgrwt>
<rscale>  0 0.82302487E+03</rscale>
<asrwt>0</asrwt>
<pdfrwt beam="1">  1        1 0.17925055E+00 0.82302487E+03</pdfrwt>
<pdfrwt beam="2">  1       -1 0.13022417E+00 0.82302487E+03</pdfrwt>
<totfact> 0.58718948E+00</totfact>
</mgrwt>
</event>
<event>
 4    1  0.2731969E-009  0.8761917E+03  0.7818608E-02  0.9455842E-01
         -1   -1    0    0    0  501 -0.00000000000E+00  0.00000000000E+00  0.50450141207E+03  0.50450141210E+03  0.50400000000E-02 0.  1.
          1   -1    0    0  501    0  0.00000000000E+00 -0.00000000000E+00 -0.29193164684E+04  0.29193164684E+04  0.50400000000E-02 0. -1.
    8880022    1    1    2    0    0 -0.11242447180E+03  0.85538357365E+03 -0.23918946051E+04  0.25473263973E+04  0.15294330000E+03 0. -1.
    8880022    1    1    2    0    0  0.11242447180E+03 -0.85538357365E+03 -0.22920451273E+02  0.87649148315E+03  0.15294330000E+03 0.  0.
<mgrwt>
<rscale>  0 0.87619174E+03</rscale>
<asrwt>0</asrwt>
<pdfrwt beam="1">  1        1 0.44912560E+00 0.87619174E+03</pdfrwt>
<pdfrwt beam="2">  1       -1 0.77615604E-01 0.87619174E+03</pdfrwt>
<totfact> 0.11934334E+00</totfact>
</mgrwt>
</event>
<event>
 4    1  0.2731969E-009  0.9598231E+03  0.7818608E-02  0.9353742E-01
          1   -1    0    0  501    0  0.00000000000E+00  0.00000000000E+00  0.91724882427E+03  0.91724882428E+03  0.50400000000E-02 0. -1.
         -1   -1    0    0    0  501 -0.00000000000E+00 -0.00000000000E+00 -0.10957198509E+04  0.10957198509E+04  0.50400000000E-02 0.  1.
    8880022    1    1    2    0    0  0.19937491141E+03  0.92634681971E+03 -0.37984031674E+03  0.10322495362E+04  0.15294330000E+03 0.  0.
    8880022    1    1    2    0    0 -0.19937491141E+03 -0.92634681971E+03  0.20136929007E+03  0.98071913905E+03  0.15294330000E+03 0.  1.
<mgrwt>
<rscale>  0 0.95982313E+03</rscale>
<asrwt>0</asrwt>
<pdfrwt beam="1">  1        1 0.14111520E+00 0.95982313E+03</pdfrwt>
<pdfrwt beam="2">  1       -1 0.16857229E+00 0.95982313E+03</pdfrwt>
<totfact> 0.44743961E+00</totfact>
</mgrwt>
</event>
<event>
 4    1  0.2731969E-009  0.6357963E+03  0.7818608E-02  0.9833803E-01
         -1   -1    0    0    0  501 -0.00000000000E+00  0.00000000000E+00  0.70964528329E+03  0.70964528330E+03  0.50400000000E-02 0.  1.
          1   -1    0    0  501    0  0.00000000000E+00 -0.00000000000E+00 -0.92493350375E+03  0.92493350376E+03  0.50400000000E-02 0. -1.
    8880022    1    1    2    0    0 -0.61393798018E+03 -0.62653173768E+02  0.39890191367E+03  0.75057288349E+03  0.15294330000E+03 0.  0.
    8880022    1    1    2    0    0  0.61393798018E+03  0.62653173768E+02 -0.61419013412E+03  0.88400590358E+03  0.15294330000E+03 0. -1.
<mgrwt>
<rscale>  0 0.63579629E+03</rscale>
<asrwt>0</asrwt>
<pdfrwt beam="1">  1        1 0.14229746E+00 0.63579629E+03</pdfrwt>
<pdfrwt beam="2">  1       -1 0.10917620E+00 0.63579629E+03</pdfrwt>
<totfact> 0.14121075E+01</totfact>
</mgrwt>
</event>
<event>
 4    1  0.2731969E-009  0.9971064E+03  0.7818608E-02  0.9311724E-01
         -1   -1    0    0    0  501 -0.00000000000E+00  0.00000000000E+00  0.12489841318E+04  0.12489841319E+04  0.50400000000E-02 0.  1.
          1   -1    0    0  501    0  0.00000000000E+00 -0.00000000000E+00 -0.11841973392E+04  0.11841973392E+04  0.50400000000E-02 0. -1.
    8880022    1    1    2    0    0 -0.82891768709E+03  0.53265835861E+03  0.72893236804E+03  0.12351370406E+04  0.15294330000E+03 0.  0.
    8880022    1    1    2    0    0  0.82891768709E+03 -0.53265835861E+03 -0.66414557542E+03  0.11980444304E+04  0.15294330000E+03 0.  0.
<mgrwt>
<rscale>  0 0.99710637E+03</rscale>
<asrwt>0</asrwt>
<pdfrwt beam="1">  1        1 0.18218421E+00 0.99710637E+03</pdfrwt>
<pdfrwt beam="2">  1       -1 0.19215140E+00 0.99710637E+03</pdfrwt>
<totfact> 0.18824000E+00</totfact>
</mgrwt>
</event>
<event>
 4    1  0.2731969E-009  0.6320034E+03  0.7818608E-02  0.9841147E-01
         -1   -1    0    0    0  501 -0.00000000000E+00  0.00000000000E+00  0.13311824338E+04  0.13311824338E+04  0.50400000000E-02 0.  1.
          1   -1    0    0  501    0  0.00000000000E+00 -0.00000000000E+00 -0.91413824973E+03  0.91413824974E+03  0.50400000000E-02 0. -1.
    8880022    1    1    2    0    0 -0.57467954357E+03  0.21396263381E+03  0.11286664939E+04  0.12935672746E+04  0.15294330000E+03 0.  0.
    8880022    1    1    2    0    0  0.57467954357E+03 -0.21396263381E+03 -0.71162230987E+03  0.95175340891E+03  0.15294330000E+03 0.  0.
<mgrwt>
<rscale>  0 0.63200335E+03</rscale>
<asrwt>0</asrwt>
<pdfrwt beam="1">  1        1 0.14063665E+00 0.63200335E+03</pdfrwt>
<pdfrwt beam="2">  1       -1 0.20479730E+00 0.63200335E+03</pdfrwt>
<totfact> 0.26324510E+00</totfact>
</mgrwt>
</event>
<event>
 4    1  0.2731969E-009  0.5034998E+03  0.7818608E-02  0.1012869E+00
         -1   -1    0    0    0  501 -0.00000000000E+00  0.00000000000E+00  0.57254486098E+03  0.57254486101E+03  0.50400000000E-02 0.  1.
          1   -1    0    0  501    0  0.00000000000E+00 -0.00000000000E+00 -0.17162046745E+04  0.17162046745E+04  0.50400000000E-02 0. -1.
    8880022    1    1    2    0    0  0.46474173677E+03  0.11889277368E+03 -0.15575876133E+04  0.16369456924E+04  0.15294330000E+03 0.  0.
    8880022    1    1    2    0    0 -0.46474173677E+03 -0.11889277368E+03  0.41392779979E+03  0.65180384318E+03  0.15294330000E+03 0.  0.
<mgrwt>
<rscale>  0 0.50349978E+03</rscale>
<asrwt>0</asrwt>
<pdfrwt beam="1">  1        1 0.26403149E+00 0.50349978E+03</pdfrwt>
<pdfrwt beam="2">  1       -1 0.88083826E-01 0.50349978E+03</pdfrwt>
<totfact> 0.64594112E+00</totfact>
</mgrwt>
</event>
<event>
 4    1  0.2731969E-009  0.1648917E+03  0.7818608E-02  0.1183282E+00
         -1   -1    0    0    0  501 -0.00000000000E+00  0.00000000000E+00  0.19755515466E+04  0.19755515466E+04  0.50400000000E-02 0.  1.
          1   -1    0    0  501    0  0.00000000000E+00 -0.00000000000E+00 -0.11874593006E+03  0.11874593017E+03  0.50400000000E-02 0. -1.
    8880022    1    1    2    0    0 -0.34334017998E+02  0.51174095174E+02 -0.56194431340E+02  0.17420413295E+03  0.15294330000E+03 0.  0.
    8880022    1    1    2    0    0  0.34334017998E+02 -0.51174095174E+02  0.19130000478E+04  0.19200933438E+04  0.15294330000E+03 0.  1.
<mgrwt>
<rscale>  0 0.16489168E+03</rscale>
<asrwt>0</asrwt>
<pdfrwt beam="1">  1        1 0.18268606E-01 0.16489168E+03</pdfrwt>
<pdfrwt beam="2">  1       -1 0.30393099E+00 0.16489168E+03</pdfrwt>
<totfact> 0.11025907E+01</totfact>
</mgrwt>
</event>
<event>
 4    1  0.2731969E-009  0.7915514E+03  0.7818608E-02  0.9572327E-01
         -1   -1    0    0    0  501 -0.00000000000E+00  0.00000000000E+00  0.92757435735E+03  0.92757435736E+03  0.50400000000E-02 0.  1.
          1   -1    0    0  501    0  0.00000000000E+00 -0.00000000000E+00 -0.14523844935E+04  0.14523844935E+04  0.50400000000E-02 0. -1.
    8880022    1    1    2    0    0  0.16575149685E+03 -0.75874131063E+03 -0.11327347096E+04  0.13818977931E+04  0.15294330000E+03 0.  0.
    8880022    1    1    2    0    0 -0.16575149685E+03  0.75874131063E+03  0.60792457342E+03  0.99806105782E+03  0.15294330000E+03 0.  0.
<mgrwt>
<rscale>  0 0.79155138E+03</rscale>
<asrwt>0</asrwt>
<pdfrwt beam="1">  1        1 0.22344377E+00 0.79155138E+03</pdfrwt>
<pdfrwt beam="2">  1       -1 0.14270375E+00 0.79155138E+03</pdfrwt>
<totfact> 0.29175757E+00</totfact>
</mgrwt>
</event>
<event>
 4    1  0.2731969E-009  0.4249665E+03  0.7818608E-02  0.1035462E+00
          1   -1    0    0  501    0  0.00000000000E+00  0.00000000000E+00  0.11935129288E+04  0.11935129288E+04  0.50400000000E-02 0. -1.
         -1   -1    0    0    0  501 -0.00000000000E+00 -0.00000000000E+00 -0.21544759776E+03  0.21544759782E+03  0.50400000000E-02 0.  1.
    8880022    1    1    2    0    0  0.28943744034E+03  0.27098118783E+03  0.10467354512E+03  0.43766772795E+03  0.15294330000E+03 0.  0.
    8880022    1    1    2    0    0 -0.28943744034E+03 -0.27098118783E+03  0.87339178589E+03  0.97129279865E+03  0.15294330000E+03 0.  0.
<mgrwt>
<rscale>  0 0.42496646E+03</rscale>
<asrwt>0</asrwt>
<pdfrwt beam="1">  1        1 0.18361737E+00 0.42496646E+03</pdfrwt>
<pdfrwt beam="2">  1       -1 0.33145785E-01 0.42496646E+03</pdfrwt>
<totfact> 0.97844908E+01</totfact>
</mgrwt>
</event>
<event>
 4    1  0.2731969E-009  0.9447668E+03  0.7818608E-02  0.9371288E-01
         -1   -1    0    0    0  501 -0.00000000000E+00  0.00000000000E+00  0.61608585570E+03  0.61608585573E+03  0.50400000000E-02 0.  1.
          1   -1    0    0  501    0  0.00000000000E+00 -0.00000000000E+00 -0.27369012914E+04  0.27369012914E+04  0.50400000000E-02 0. -1.
    8880022    1    1    2    0    0 -0.60862002948E+02  0.93031628119E+03 -0.22105394837E+04  0.24039694317E+04  0.15294330000E+03 0.  0.
    8880022    1    1    2    0    0  0.60862002948E+02 -0.93031628119E+03  0.89724047999E+02  0.94901771545E+03  0.15294330000E+03 0.  0.
<mgrwt>
<rscale>  0 0.94476675E+03</rscale>
<asrwt>0</asrwt>
<pdfrwt beam="1">  1        1 0.42106173E+00 0.94476675E+03</pdfrwt>
<pdfrwt beam="2">  1       -1 0.94782441E-01 0.94476675E+03</pdfrwt>
<totfact> 0.10268459E+00</totfact>
</mgrwt>
</event>
<event>
 4    1  0.2731969E-009  0.6390418E+03  0.7818608E-02  0.9827561E-01
          1   -1    0    0  501    0  0.00000000000E+00  0.00000000000E+00  0.19304124797E+04  0.19304124797E+04  0.50400000000E-02 0. -1.
         -1   -1    0    0    0  501 -0.00000000000E+00 -0.00000000000E+00 -0.80324787010E+03  0.80324787012E+03  0.50400000000E-02 0.  1.
    8880022    1    1    2    0    0  0.26167438819E+03 -0.56259163001E+03 -0.60953268244E+03  0.88312205927E+03  0.15294330000E+03 0.  0.
    8880022    1    1    2    0    0 -0.26167438819E+03  0.56259163001E+03  0.17366972920E+04  0.18505382905E+04  0.15294330000E+03 0.  0.
<mgrwt>
<rscale>  0 0.63904185E+03</rscale>
<asrwt>0</asrwt>
<pdfrwt beam="1">  1        1 0.29698653E+00 0.63904185E+03</pdfrwt>
<pdfrwt beam="2">  1       -1 0.12357660E+00 0.63904185E+03</pdfrwt>
<totfact> 0.20634702E+00</totfact>
</mgrwt>
</event>
<event>
 4    1  0.2731969E-009  0.4344198E+03  0.7818608E-02  0.1032473E+00
         -1   -1    0    0    0  501 -0.00000000000E+00  0.00000000000E+00  0.49680517120E+03  0.49680517122E+03  0.50400000000E-02 0.  1.
          1   -1    0    0  501    0  0.00000000000E+00 -0.00000000000E+00 -0.19534014530E+04  0.19534014530E+04  0.50400000000E-02 0. -1.
    8880022    1    1    2    0    0 -0.22703459414E+03 -0.33731908255E+03 -0.18278479640E+04  0.18787625456E+04  0.15294330000E+03 0.  0.
    8880022    1    1    2    0    0  0.22703459414E+03  0.33731908255E+03  0.37125168220E+03  0.57144407858E+03  0.15294330000E+03 0.  0.
<mgrwt>
<rscale>  0 0.43441975E+03</rscale>
<asrwt>0</asrwt>
<pdfrwt beam="1">  1        1 0.30052330E+00 0.43441975E+03</pdfrwt>
<pdfrwt beam="2">  1       -1 0.76431566E-01 0.43441975E+03</pdfrwt>
<totfact> 0.61990348E+00</totfact>
</mgrwt>
</event>
<event>
 4    1  0.2731969E-009  0.7937864E+03  0.7818608E-02  0.9569055E-01
         -1   -1    0    0    0  501 -0.00000000000E+00  0.00000000000E+00  0.24483140811E+04  0.24483140811E+04  0.50400000000E-02 0.  1.
          1   -1    0    0  501    0  0.00000000000E+00 -0.00000000000E+00 -0.10133900709E+04  0.10133900709E+04  0.50400000000E-02 0. -1.
    8880022    1    1    2    0    0 -0.77061718012E+03 -0.11337688030E+03  0.22124624391E+04  0.23505503298E+04  0.15294330000E+03 0.  0.
    8880022    1    1    2    0    0  0.77061718012E+03  0.11337688030E+03 -0.77753842891E+03  0.11111538223E+04  0.15294330000E+03 0.  0.
<mgrwt>
<rscale>  0 0.79378637E+03</rscale>
<asrwt>0</asrwt>
<pdfrwt beam="1">  1        1 0.15590617E+00 0.79378637E+03</pdfrwt>
<pdfrwt beam="2">  1       -1 0.37666370E+00 0.79378637E+03</pdfrwt>
<totfact> 0.16253419E-01</totfact>
</mgrwt>
</event>
<event>
 4    1  0.2731969E-009  0.4122078E+03  0.7818608E-02  0.1039633E+00
         -1   -1    0    0    0  501 -0.00000000000E+00  0.00000000000E+00  0.26596164394E+03  0.26596164398E+03  0.50400000000E-02 0.  1.
          1   -1    0    0  501    0  0.00000000000E+00 -0.00000000000E+00 -0.74820328938E+03  0.74820328939E+03  0.50400000000E-02 0. -1.
    8880022    1    1    2    0    0  0.21396944203E+03  0.31739679278E+03 -0.47281390335E+02  0.41491062782E+03  0.15294330000E+03 0.  0.
    8880022    1    1    2    0    0 -0.21396944203E+03 -0.31739679278E+03 -0.43496025511E+03  0.59925430556E+03  0.15294330000E+03 0.  0.
<mgrwt>
<rscale>  0 0.41220783E+03</rscale>
<asrwt>0</asrwt>
<pdfrwt beam="1">  1        1 0.11510820E+00 0.41220783E+03</pdfrwt>
<pdfrwt beam="2">  1       -1 0.40917176E-01 0.41220783E+03</pdfrwt>
<totfact> 0.15011347E+02</totfact>
</mgrwt>
</event>
<event>
 4    1  0.2731969E-009  0.7434031E+03  0.7818608E-02  0.9645757E-01
         -1   -1    0    0    0  501 -0.00000000000E+00  0.00000000000E+00  0.17327797528E+04  0.17327797528E+04  0.50400000000E-02 0.  1.
          1   -1    0    0  501    0  0.00000000000E+00 -0.00000000000E+00 -0.62998347740E+03  0.62998347742E+03  0.50400000000E-02 0. -1.
    8880022    1    1    2    0    0 -0.22846835500E+03 -0.69069433356E+03  0.13815127506E+04  0.15688293676E+04  0.15294330000E+03 0.  0.
    8880022    1    1    2    0    0  0.22846835500E+03  0.69069433356E+03 -0.27871647519E+03  0.79393386262E+03  0.15294330000E+03 0.  0.
<mgrwt>
<rscale>  0 0.74340306E+03</rscale>
<asrwt>0</asrwt>
<pdfrwt beam="1">  1        1 0.96920534E-01 0.74340306E+03</pdfrwt>
<pdfrwt beam="2">  1       -1 0.26658150E+00 0.74340306E+03</pdfrwt>
<totfact> 0.18203960E+00</totfact>
</mgrwt>
</event>
<event>
 4    1  0.2731969E-009  0.8885676E+03  0.7818608E-02  0.9439986E-01
         -1   -1    0    0    0  501 -0.00000000000E+00  0.00000000000E+00  0.13406552597E+04  0.13406552598E+04  0.50400000000E-02 0.  1.
          1   -1    0    0  501    0  0.00000000000E+00 -0.00000000000E+00 -0.89262190545E+03  0.89262190546E+03  0.50400000000E-02 0. -1.
    8880022    1    1    2    0    0  0.64329299281E+03  0.59357807316E+03  0.87533797363E+03  0.12473047040E+04  0.15294330000E+03 0.  0.
    8880022    1    1    2    0    0 -0.64329299281E+03 -0.59357807316E+03 -0.42730461934E+03  0.98597246121E+03  0.15294330000E+03 0.  0.
<mgrwt>
<rscale>  0 0.88856764E+03</rscale>
<asrwt>0</asrwt>
<pdfrwt beam="1">  1        1 0.13732645E+00 0.88856764E+03</pdfrwt>
<pdfrwt beam="2">  1       -1 0.20625466E+00 0.88856764E+03</pdfrwt>
<totfact> 0.25647055E+00</totfact>
</mgrwt>
</event>
<event>
 4    1  0.2731969E-009  0.6592855E+03  0.7818608E-02  0.9789510E-01
          1   -1    0    0  501    0  0.00000000000E+00  0.00000000000E+00  0.14372654123E+04  0.14372654123E+04  0.50400000000E-02 0. -1.
         -1   -1    0    0    0  501 -0.00000000000E+00 -0.00000000000E+00 -0.48355488514E+03  0.48355488517E+03  0.50400000000E-02 0.  1.
    8880022    1    1    2    0    0 -0.50565067508E+03 -0.39444020472E+03 -0.11095247234E+03  0.66855649308E+03  0.15294330000E+03 0.  1.
    8880022    1    1    2    0    0  0.50565067508E+03  0.39444020472E+03  0.10646629995E+04  0.12522638044E+04  0.15294330000E+03 0.  0.
<mgrwt>
<rscale>  0 0.65928547E+03</rscale>
<asrwt>0</asrwt>
<pdfrwt beam="1">  1        1 0.22111775E+00 0.65928547E+03</pdfrwt>
<pdfrwt beam="2">  1       -1 0.74393061E-01 0.65928547E+03</pdfrwt>
<totfact> 0.13816218E+01</totfact>
</mgrwt>
</event>
<event>
 4    1  0.2731969E-009  0.3785874E+03  0.7818608E-02  0.1051457E+00
         -1   -1    0    0    0  501 -0.00000000000E+00  0.00000000000E+00  0.32005922205E+03  0.32005922209E+03  0.50400000000E-02 0.  1.
          1   -1    0    0  501    0  0.00000000000E+00 -0.00000000000E+00 -0.85612415640E+03  0.85612415641E+03  0.50400000000E-02 0. -1.
    8880022    1    1    2    0    0 -0.33390472370E+03  0.91893414228E+02  0.13810158469E+03  0.40298941028E+03  0.15294330000E+03 0.  0.
    8880022    1    1    2    0    0  0.33390472370E+03 -0.91893414228E+02 -0.67416651903E+03  0.77319396822E+03  0.15294330000E+03 0.  0.
<mgrwt>
<rscale>  0 0.37858740E+03</rscale>
<asrwt>0</asrwt>
<pdfrwt beam="1">  1        1 0.13171141E+00 0.37858740E+03</pdfrwt>
<pdfrwt beam="2">  1       -1 0.49239881E-01 0.37858740E+03</pdfrwt>
<totfact> 0.86971564E+01</totfact>
</mgrwt>
</event>
<event>
 4    1  0.2731969E-009  0.6899390E+03  0.7818608E-02  0.9734594E-01
         -1   -1    0    0    0  501 -0.00000000000E+00  0.00000000000E+00  0.96929330471E+03  0.96929330472E+03  0.50400000000E-02 0.  1.
          1   -1    0    0  501    0  0.00000000000E+00 -0.00000000000E+00 -0.14271320569E+04  0.14271320569E+04  0.50400000000E-02 0. -1.
    8880022    1    1    2    0    0  0.62863165341E+03  0.23967984405E+03  0.74147478474E+03  0.10128181933E+04  0.15294330000E+03 0.  0.
    8880022    1    1    2    0    0 -0.62863165341E+03 -0.23967984405E+03 -0.11993135369E+04  0.13836071683E+04  0.15294330000E+03 0.  0.
<mgrwt>
<rscale>  0 0.68993901E+03</rscale>
<asrwt>0</asrwt>
<pdfrwt beam="1">  1        1 0.21955878E+00 0.68993901E+03</pdfrwt>
<pdfrwt beam="2">  1       -1 0.14912205E+00 0.68993901E+03</pdfrwt>
<totfact> 0.27532307E+00</totfact>
</mgrwt>
</event>
<event>
 4    1  0.2731969E-009  0.4794868E+03  0.7818608E-02  0.1019276E+00
          1   -1    0    0  501    0  0.00000000000E+00  0.00000000000E+00  0.18679614670E+03  0.18679614677E+03  0.50400000000E-02 0. -1.
         -1   -1    0    0    0  501 -0.00000000000E+00 -0.00000000000E+00 -0.28108841519E+04  0.28108841519E+04  0.50400000000E-02 0.  1.
    8880022    1    1    2    0    0  0.36867640113E+02  0.45294228917E+03 -0.24358070975E+04  0.24825518745E+04  0.15294330000E+03 0.  0.
    8880022    1    1    2    0    0 -0.36867640113E+02 -0.45294228917E+03 -0.18828090770E+03  0.51512842421E+03  0.15294330000E+03 0.  0.
<mgrwt>
<rscale>  0 0.47948680E+03</rscale>
<asrwt>0</asrwt>
<pdfrwt beam="1">  1        1 0.28737871E-01 0.47948680E+03</pdfrwt>
<pdfrwt beam="2">  1       -1 0.43244368E+00 0.47948680E+03</pdfrwt>
<totfact> 0.78924761E-01</totfact>
</mgrwt>
</event>
<event>
 4    1  0.2731969E-009  0.1867012E+04  0.7818608E-02  0.8671453E-01
         -1   -1    0    0    0  501 -0.00000000000E+00  0.00000000000E+00  0.20646410830E+04  0.20646410830E+04  0.50400000000E-02 0.  1.
          1   -1    0    0  501    0  0.00000000000E+00 -0.00000000000E+00 -0.18364395705E+04  0.18364395705E+04  0.50400000000E-02 0. -1.
    8880022    1    1    2    0    0  0.11465085394E+03  0.18572018571E+04 -0.43988802293E+03  0.19181336455E+04  0.15294330000E+03 0.  0.
    8880022    1    1    2    0    0 -0.11465085394E+03 -0.18572018571E+04  0.66808953544E+03  0.19829470081E+04  0.15294330000E+03 0.  0.
<mgrwt>
<rscale>  0 0.18670124E+04</rscale>
<asrwt>0</asrwt>
<pdfrwt beam="1">  1        1 0.28252916E+00 0.18670124E+04</pdfrwt>
<pdfrwt beam="2">  1       -1 0.31763709E+00 0.18670124E+04</pdfrwt>
<totfact> 0.88316234E-02</totfact>
</mgrwt>
</event>
<event>
 4    1  0.2731969E-009  0.1389233E+04  0.7818608E-02  0.8961649E-01
         -1   -1    0    0    0  501 -0.00000000000E+00  0.00000000000E+00  0.10048460921E+04  0.10048460921E+04  0.50400000000E-02 0.  1.
          1   -1    0    0  501    0  0.00000000000E+00 -0.00000000000E+00 -0.24528407879E+04  0.24528407879E+04  0.50400000000E-02 0. -1.
    8880022    1    1    2    0    0 -0.10883075258E+04 -0.84980262663E+03  0.81288151944E+02  0.13916095687E+04  0.15294330000E+03 0.  0.
    8880022    1    1    2    0    0  0.10883075258E+04  0.84980262663E+03 -0.15292828478E+04  0.20660773113E+04  0.15294330000E+03 0.  0.
<mgrwt>
<rscale>  0 0.13892334E+04</rscale>
<asrwt>0</asrwt>
<pdfrwt beam="1">  1        1 0.37736012E+00 0.13892334E+04</pdfrwt>
<pdfrwt beam="2">  1       -1 0.15459171E+00 0.13892334E+04</pdfrwt>
<totfact> 0.45158893E-01</totfact>
</mgrwt>
</event>
<event>
 4    1  0.2731969E-009  0.7381298E+03  0.7818608E-02  0.9654159E-01
         -1   -1    0    0    0  501 -0.00000000000E+00  0.00000000000E+00  0.13721167673E+04  0.13721167673E+04  0.50400000000E-02 0.  1.
          1   -1    0    0  501    0  0.00000000000E+00 -0.00000000000E+00 -0.59930918845E+03  0.59930918847E+03  0.50400000000E-02 0. -1.
    8880022    1    1    2    0    0  0.98375091955E+02  0.71537845158E+03  0.95900259251E+03  0.12101742078E+04  0.15294330000E+03 0.  0.
    8880022    1    1    2    0    0 -0.98375091955E+02 -0.71537845158E+03 -0.18619501367E+03  0.76125174800E+03  0.15294330000E+03 0.  0.
<mgrwt>
<rscale>  0 0.73812983E+03</rscale>
<asrwt>0</asrwt>
<pdfrwt beam="1">  1        1 0.92201413E-01 0.73812983E+03</pdfrwt>
<pdfrwt beam="2">  1       -1 0.21109489E+00 0.73812983E+03</pdfrwt>
<totfact> 0.45057412E+00</totfact>
</mgrwt>
</event>
<event>
 4    1  0.2731969E-009  0.5834529E+03  0.7818608E-02  0.9940343E-01
          1   -1    0    0  501    0  0.00000000000E+00  0.00000000000E+00  0.13640073238E+04  0.13640073238E+04  0.50400000000E-02 0. -1.
         -1   -1    0    0    0  501 -0.00000000000E+00 -0.00000000000E+00 -0.40838147554E+03  0.40838147557E+03  0.50400000000E-02 0.  1.
    8880022    1    1    2    0    0 -0.24702060702E+03 -0.50597078179E+03 -0.74817718554E+02  0.58823035992E+03  0.15294330000E+03 0.  0.
    8880022    1    1    2    0    0  0.24702060702E+03  0.50597078179E+03  0.10304435668E+04  0.11841584394E+04  0.15294330000E+03 0.  0.
<mgrwt>
<rscale>  0 0.58345288E+03</rscale>
<asrwt>0</asrwt>
<pdfrwt beam="1">  1        1 0.20984728E+00 0.58345288E+03</pdfrwt>
<pdfrwt beam="2">  1       -1 0.62827919E-01 0.58345288E+03</pdfrwt>
<totfact> 0.22136572E+01</totfact>
</mgrwt>
</event>
<event>
 4    1  0.2731969E-009  0.2146329E+03  0.7818608E-02  0.1137949E+00
         -1   -1    0    0    0  501 -0.00000000000E+00  0.00000000000E+00  0.31271719562E+03  0.31271719566E+03  0.50400000000E-02 0.  1.
          1   -1    0    0  501    0  0.00000000000E+00 -0.00000000000E+00 -0.15930412716E+03  0.15930412724E+03  0.50400000000E-02 0. -1.
    8880022    1    1    2    0    0 -0.10886095781E+03  0.10404287672E+03  0.11955058397E+02  0.21496558973E+03  0.15294330000E+03 0. -1.
    8880022    1    1    2    0    0  0.10886095781E+03 -0.10404287672E+03  0.14145801006E+03  0.25705573317E+03  0.15294330000E+03 0.  1.
<mgrwt>
<rscale>  0 0.21463290E+03</rscale>
<asrwt>0</asrwt>
<pdfrwt beam="1">  1        1 0.24508327E-01 0.21463290E+03</pdfrwt>
<pdfrwt beam="2">  1       -1 0.48110338E-01 0.21463290E+03</pdfrwt>
<totfact> 0.86525885E+02</totfact>
</mgrwt>
</event>
<event>
 4    1  0.2731969E-009  0.2331459E+03  0.7818608E-02  0.1124445E+00
         -1   -1    0    0    0  501 -0.00000000000E+00  0.00000000000E+00  0.88345370659E+03  0.88345370661E+03  0.50400000000E-02 0.  1.
          1   -1    0    0  501    0  0.00000000000E+00 -0.00000000000E+00 -0.14188812191E+04  0.14188812191E+04  0.50400000000E-02 0. -1.
    8880022    1    1    2    0    0  0.13082019738E+03  0.11769218044E+03  0.85821768028E+03  0.88932255855E+03  0.15294330000E+03 0.  0.
    8880022    1    1    2    0    0 -0.13082019738E+03 -0.11769218044E+03 -0.13936451928E+04  0.14130123672E+04  0.15294330000E+03 0. -1.
<mgrwt>
<rscale>  0 0.23314593E+03</rscale>
<asrwt>0</asrwt>
<pdfrwt beam="1">  1        1 0.21828942E+00 0.23314593E+03</pdfrwt>
<pdfrwt beam="2">  1       -1 0.13591595E+00 0.23314593E+03</pdfrwt>
<totfact> 0.41199601E+00</totfact>
</mgrwt>
</event>
<event>
 4    1  0.2731969E-009  0.1277093E+04  0.7818608E-02  0.9047931E-01
         -1   -1    0    0    0  501 -0.00000000000E+00  0.00000000000E+00  0.16642831936E+04  0.16642831936E+04  0.50400000000E-02 0.  1.
          1   -1    0    0  501    0  0.00000000000E+00 -0.00000000000E+00 -0.13664267742E+04  0.13664267742E+04  0.50400000000E-02 0. -1.
    8880022    1    1    2    0    0  0.75629298321E+03 -0.10176419933E+04  0.95479909424E+03  0.15945555074E+04  0.15294330000E+03 0.  0.
    8880022    1    1    2    0    0 -0.75629298321E+03  0.10176419933E+04 -0.65694267481E+03  0.14361544603E+04  0.15294330000E+03 0.  0.
<mgrwt>
<rscale>  0 0.12770928E+04</rscale>
<asrwt>0</asrwt>
<pdfrwt beam="1">  1        1 0.21021950E+00 0.12770928E+04</pdfrwt>
<pdfrwt beam="2">  1       -1 0.25604357E+00 0.12770928E+04</pdfrwt>
<totfact> 0.50179745E-01</totfact>
</mgrwt>
</event>
<event>
 4    1  0.2731969E-009  0.5973292E+03  0.7818608E-02  0.9910963E-01
         -1   -1    0    0    0  501 -0.00000000000E+00  0.00000000000E+00  0.13851421900E+04  0.13851421900E+04  0.50400000000E-02 0.  1.
          1   -1    0    0  501    0  0.00000000000E+00 -0.00000000000E+00 -0.26724592004E+03  0.26724592009E+03  0.50400000000E-02 0. -1.
    8880022    1    1    2    0    0  0.56225104792E+03  0.13146960796E+03  0.71597304506E+03  0.93242670112E+03  0.15294330000E+03 0. -1.
    8880022    1    1    2    0    0 -0.56225104792E+03 -0.13146960796E+03  0.40192322493E+03  0.71996140900E+03  0.15294330000E+03 0.  0.
<mgrwt>
<rscale>  0 0.59732918E+03</rscale>
<asrwt>0</asrwt>
<pdfrwt beam="1">  1        1 0.41114758E-01 0.59732918E+03</pdfrwt>
<pdfrwt beam="2">  1       -1 0.21309879E+00 0.59732918E+03</pdfrwt>
<totfact> 0.13113761E+01</totfact>
</mgrwt>
</event>
<event>
 4    1  0.2731969E-009  0.5335122E+03  0.7818608E-02  0.1005384E+00
         -1   -1    0    0    0  501 -0.00000000000E+00  0.00000000000E+00  0.61826658535E+03  0.61826658537E+03  0.50400000000E-02 0.  1.
          1   -1    0    0  501    0  0.00000000000E+00 -0.00000000000E+00 -0.67782074193E+03  0.67782074195E+03  0.50400000000E-02 0. -1.
    8880022    1    1    2    0    0 -0.28460125277E+03 -0.42455352006E+03 -0.39682359144E+03  0.66490915185E+03  0.15294330000E+03 0.  0.
    8880022    1    1    2    0    0  0.28460125277E+03  0.42455352006E+03  0.33726943487E+03  0.63117817547E+03  0.15294330000E+03 0.  0.
<mgrwt>
<rscale>  0 0.53351215E+03</rscale>
<asrwt>0</asrwt>
<pdfrwt beam="1">  1        1 0.10428011E+00 0.53351215E+03</pdfrwt>
<pdfrwt beam="2">  1       -1 0.95117936E-01 0.53351215E+03</pdfrwt>
<totfact> 0.32115345E+01</totfact>
</mgrwt>
</event>
<event>
 4    1  0.2731969E-009  0.9568027E+03  0.7818608E-02  0.9357234E-01
         -1   -1    0    0    0  501 -0.00000000000E+00  0.00000000000E+00  0.72015439754E+03  0.72015439756E+03  0.50400000000E-02 0.  1.
          1   -1    0    0  501    0  0.00000000000E+00 -0.00000000000E+00 -0.18592045606E+04  0.18592045606E+04  0.50400000000E-02 0. -1.
    8880022    1    1    2    0    0 -0.93519782574E+03  0.13222972150E+03 -0.12948003685E+04  0.16099625212E+04  0.15294330000E+03 0.  0.
    8880022    1    1    2    0    0  0.93519782574E+03 -0.13222972150E+03  0.15575020540E+03  0.96939643697E+03  0.15294330000E+03 0.  0.
<mgrwt>
<rscale>  0 0.95680266E+03</rscale>
<asrwt>0</asrwt>
<pdfrwt beam="1">  1        1 0.28603147E+00 0.95680266E+03</pdfrwt>
<pdfrwt beam="2">  1       -1 0.11079299E+00 0.95680266E+03</pdfrwt>
<totfact> 0.28292428E+00</totfact>
</mgrwt>
</event>
<event>
 4    1  0.2731969E-009  0.5159166E+03  0.7818608E-02  0.1009706E+00
          1   -1    0    0  501    0  0.00000000000E+00  0.00000000000E+00  0.87782504447E+03  0.87782504449E+03  0.50400000000E-02 0. -1.
         -1   -1    0    0    0  501 -0.00000000000E+00 -0.00000000000E+00 -0.32295424461E+03  0.32295424465E+03  0.50400000000E-02 0.  1.
    8880022    1    1    2    0    0  0.38564871433E+03  0.30668125179E+03  0.42586645894E+03  0.66897848615E+03  0.15294330000E+03 0. -1.
    8880022    1    1    2    0    0 -0.38564871433E+03 -0.30668125179E+03  0.12900434093E+03  0.53180080299E+03  0.15294330000E+03 0.  1.
<mgrwt>
<rscale>  0 0.51591663E+03</rscale>
<asrwt>0</asrwt>
<pdfrwt beam="1">  1        1 0.13505001E+00 0.51591663E+03</pdfrwt>
<pdfrwt beam="2">  1       -1 0.49685269E-01 0.51591663E+03</pdfrwt>
<totfact> 0.80548803E+01</totfact>
</mgrwt>
</event>
<event>
 4    1  0.2731969E-009  0.3423881E+03  0.7818608E-02  0.1065783E+00
          1   -1    0    0  501    0  0.00000000000E+00  0.00000000000E+00  0.14281118187E+04  0.14281118188E+04  0.50400000000E-02 0. -1.
         -1   -1    0    0    0  501 -0.00000000000E+00 -0.00000000000E+00 -0.50461357586E+03  0.50461357588E+03  0.50400000000E-02 0.  1.
    8880022    1    1    2    0    0 -0.12674571448E+02 -0.30606754822E+03  0.13460246888E+04  0.13888888021E+04  0.15294330000E+03 0.  0.
    8880022    1    1    2    0    0  0.12674571448E+02  0.30606754822E+03 -0.42252644591E+03  0.54383659250E+03  0.15294330000E+03 0.  1.
<mgrwt>
<rscale>  0 0.34238815E+03</rscale>
<asrwt>0</asrwt>
<pdfrwt beam="1">  1        1 0.21970951E+00 0.34238815E+03</pdfrwt>
<pdfrwt beam="2">  1       -1 0.77632859E-01 0.34238815E+03</pdfrwt>
<totfact> 0.13774132E+01</totfact>
</mgrwt>
</event>
<event>
 4    1  0.2731969E-009  0.7185346E+03  0.7818608E-02  0.9686050E-01
          1   -1    0    0  501    0  0.00000000000E+00  0.00000000000E+00  0.14390439440E+04  0.14390439440E+04  0.50400000000E-02 0. -1.
         -1   -1    0    0    0  501 -0.00000000000E+00 -0.00000000000E+00 -0.44197912880E+03  0.44197912883E+03  0.50400000000E-02 0.  1.
    8880022    1    1    2    0    0  0.22393774360E+03  0.66539628856E+03  0.90459740740E+02  0.72420642882E+03  0.15294330000E+03 0.  0.
    8880022    1    1    2    0    0 -0.22393774360E+03 -0.66539628856E+03  0.90660507447E+03  0.11568166440E+04  0.15294330000E+03 0.  0.
<mgrwt>
<rscale>  0 0.71853461E+03</rscale>
<asrwt>0</asrwt>
<pdfrwt beam="1">  1        1 0.22139138E+00 0.71853461E+03</pdfrwt>
<pdfrwt beam="2">  1       -1 0.67996789E-01 0.71853461E+03</pdfrwt>
<totfact> 0.16419909E+01</totfact>
</mgrwt>
</event>
<event>
 4    1  0.2731969E-009  0.2977688E+03  0.7818608E-02  0.1086361E+00
          1   -1    0    0  501    0  0.00000000000E+00  0.00000000000E+00  0.51345226315E+03  0.51345226318E+03  0.50400000000E-02 0. -1.
         -1   -1    0    0    0  501 -0.00000000000E+00 -0.00000000000E+00 -0.81631807506E+03  0.81631807507E+03  0.50400000000E-02 0.  1.
    8880022    1    1    2    0    0  0.95905932319E+02  0.23680510876E+03  0.43895250778E+03  0.53042017730E+03  0.15294330000E+03 0. -1.
    8880022    1    1    2    0    0 -0.95905932319E+02 -0.23680510876E+03 -0.74181831968E+03  0.79935016095E+03  0.15294330000E+03 0.  0.
<mgrwt>
<rscale>  0 0.29776880E+03</rscale>
<asrwt>0</asrwt>
<pdfrwt beam="1">  1        1 0.78992656E-01 0.29776880E+03</pdfrwt>
<pdfrwt beam="2">  1       -1 0.12558740E+00 0.29776880E+03</pdfrwt>
<totfact> 0.26020266E+01</totfact>
</mgrwt>
</event>
<event>
 4    1  0.2731969E-009  0.5490042E+03  0.7818608E-02  0.1001725E+00
          1   -1    0    0  501    0  0.00000000000E+00  0.00000000000E+00  0.48589918975E+03  0.48589918977E+03  0.50400000000E-02 0. -1.
         -1   -1    0    0    0  501 -0.00000000000E+00 -0.00000000000E+00 -0.86334154686E+03  0.86334154688E+03  0.50400000000E-02 0.  1.
    8880022    1    1    2    0    0 -0.12004641336E+03  0.51342269807E+03 -0.54665603040E+03  0.77475059009E+03  0.15294330000E+03 0.  0.
    8880022    1    1    2    0    0  0.12004641336E+03 -0.51342269807E+03  0.16921367329E+03  0.57449014656E+03  0.15294330000E+03 0.  0.
<mgrwt>
<rscale>  0 0.54900425E+03</rscale>
<asrwt>0</asrwt>
<pdfrwt beam="1">  1        1 0.74753722E-01 0.54900425E+03</pdfrwt>
<pdfrwt beam="2">  1       -1 0.13282178E+00 0.54900425E+03</pdfrwt>
<totfact> 0.23258625E+01</totfact>
</mgrwt>
</event>
<event>
 4    1  0.2731969E-009  0.5514584E+03  0.7818608E-02  0.1001157E+00
         -1   -1    0    0    0  501 -0.00000000000E+00  0.00000000000E+00  0.45747069113E+03  0.45747069116E+03  0.50400000000E-02 0.  1.
          1   -1    0    0  501    0  0.00000000000E+00 -0.00000000000E+00 -0.16424038066E+04  0.16424038066E+04  0.50400000000E-02 0. -1.
    8880022    1    1    2    0    0  0.25063864323E+03  0.46679226615E+03  0.21758857789E+03  0.59283319024E+03  0.15294330000E+03 0.  0.
    8880022    1    1    2    0    0 -0.25063864323E+03 -0.46679226615E+03 -0.14025216934E+04  0.15070413075E+04  0.15294330000E+03 0.  0.
<mgrwt>
<rscale>  0 0.55145843E+03</rscale>
<asrwt>0</asrwt>
<pdfrwt beam="1">  1        1 0.25267751E+00 0.55145843E+03</pdfrwt>
<pdfrwt beam="2">  1       -1 0.70380107E-01 0.55145843E+03</pdfrwt>
<totfact> 0.11464241E+01</totfact>
</mgrwt>
</event>
<event>
 4    1  0.2731969E-009  0.3041474E+03  0.7818608E-02  0.1083186E+00
         -1   -1    0    0    0  501 -0.00000000000E+00  0.00000000000E+00  0.15045773110E+03  0.15045773118E+03  0.50400000000E-02 0.  1.
          1   -1    0    0  501    0  0.00000000000E+00 -0.00000000000E+00 -0.17356280383E+04  0.17356280383E+04  0.50400000000E-02 0. -1.
    8880022    1    1    2    0    0  0.92735691439E+01  0.26273173682E+03 -0.34763180998E+02  0.30612758187E+03  0.15294330000E+03 0.  1.
    8880022    1    1    2    0    0 -0.92735691439E+01 -0.26273173682E+03 -0.15504071262E+04  0.15799581877E+04  0.15294330000E+03 0.  0.
<mgrwt>
<rscale>  0 0.30414736E+03</rscale>
<asrwt>0</asrwt>
<pdfrwt beam="1">  1        1 0.26701968E+00 0.30414736E+03</pdfrwt>
<pdfrwt beam="2">  1       -1 0.23147344E-01 0.30414736E+03</pdfrwt>
<totfact> 0.79364327E+01</totfact>
</mgrwt>
</event>
<event>
 4    1  0.2731969E-009  0.4826264E+03  0.7818608E-02  0.1018416E+00
         -1   -1    0    0    0  501 -0.00000000000E+00  0.00000000000E+00  0.20008816190E+03  0.20008816196E+03  0.50400000000E-02 0.  1.
          1   -1    0    0  501    0  0.00000000000E+00 -0.00000000000E+00 -0.18561519834E+04  0.18561519834E+04  0.50400000000E-02 0. -1.
    8880022    1    1    2    0    0  0.10680254305E+03 -0.44511770885E+03 -0.20026607471E+03  0.52252723530E+03  0.15294330000E+03 0.  0.
    8880022    1    1    2    0    0 -0.10680254305E+03  0.44511770885E+03 -0.14557977468E+04  0.15337129100E+04  0.15294330000E+03 0.  0.
<mgrwt>
<rscale>  0 0.48262637E+03</rscale>
<asrwt>0</asrwt>
<pdfrwt beam="1">  1        1 0.28556183E+00 0.48262637E+03</pdfrwt>
<pdfrwt beam="2">  1       -1 0.30782796E-01 0.48262637E+03</pdfrwt>
<totfact> 0.39182471E+01</totfact>
</mgrwt>
</event>
<event>
 4    1  0.2731969E-009  0.5188718E+03  0.7818608E-02  0.1008967E+00
         -1   -1    0    0    0  501 -0.00000000000E+00  0.00000000000E+00  0.27820532331E+03  0.27820532336E+03  0.50400000000E-02 0.  1.
          1   -1    0    0  501    0  0.00000000000E+00 -0.00000000000E+00 -0.19911908938E+04  0.19911908939E+04  0.50400000000E-02 0. -1.
    8880022    1    1    2    0    0 -0.48364905126E+03  0.10917802150E+03 -0.42989502179E+02  0.52064958991E+03  0.15294330000E+03 0.  0.
    8880022    1    1    2    0    0  0.48364905126E+03 -0.10917802150E+03 -0.16699960684E+04  0.17487466273E+04  0.15294330000E+03 0.  0.
<mgrwt>
<rscale>  0 0.51887176E+03</rscale>
<asrwt>0</asrwt>
<pdfrwt beam="1">  1        1 0.30633705E+00 0.51887176E+03</pdfrwt>
<pdfrwt beam="2">  1       -1 0.42800820E-01 0.51887176E+03</pdfrwt>
<totfact> 0.17621541E+01</totfact>
</mgrwt>
</event>
<event>
 4    1  0.2731969E-009  0.4107677E+03  0.7818608E-02  0.1040114E+00
         -1   -1    0    0    0  501 -0.00000000000E+00  0.00000000000E+00  0.12813403853E+03  0.12813403863E+03  0.50400000000E-02 0.  1.
          1   -1    0    0  501    0  0.00000000000E+00 -0.00000000000E+00 -0.16114488483E+04  0.16114488483E+04  0.50400000000E-02 0. -1.
    8880022    1    1    2    0    0  0.34515100581E+03  0.16189268499E+03 -0.36974489767E+03  0.55266753174E+03  0.15294330000E+03 0.  0.
    8880022    1    1    2    0    0 -0.34515100581E+03 -0.16189268499E+03 -0.11135699121E+04  0.11869153552E+04  0.15294330000E+03 0.  0.
<mgrwt>
<rscale>  0 0.41076771E+03</rscale>
<asrwt>0</asrwt>
<pdfrwt beam="1">  1        1 0.24791519E+00 0.41076771E+03</pdfrwt>
<pdfrwt beam="2">  1       -1 0.19712930E-01 0.41076771E+03</pdfrwt>
<totfact> 0.12226690E+02</totfact>
</mgrwt>
</event>
<event>
 4    1  0.2731969E-009  0.9785445E+03  0.7818608E-02  0.9332395E-01
          1   -1    0    0  501    0  0.00000000000E+00  0.00000000000E+00  0.57628318541E+03  0.57628318543E+03  0.50400000000E-02 0. -1.
         -1   -1    0    0    0  501 -0.00000000000E+00 -0.00000000000E+00 -0.21604847624E+04  0.21604847624E+04  0.50400000000E-02 0.  1.
    8880022    1    1    2    0    0  0.17741720573E+03 -0.95009514158E+03 -0.14496596636E+04  0.17490175632E+04  0.15294330000E+03 0.  0.
    8880022    1    1    2    0    0 -0.17741720573E+03  0.95009514158E+03 -0.13454191338E+03  0.98775038467E+03  0.15294330000E+03 0.  0.
<mgrwt>
<rscale>  0 0.97854448E+03</rscale>
<asrwt>0</asrwt>
<pdfrwt beam="1">  1        1 0.88658952E-01 0.97854448E+03</pdfrwt>
<pdfrwt beam="2">  1       -1 0.33238227E+00 0.97854448E+03</pdfrwt>
<totfact> 0.75303830E-01</totfact>
</mgrwt>
</event>
<event>
 4    1  0.2731969E-009  0.3223479E+03  0.7818608E-02  0.1074574E+00
         -1   -1    0    0    0  501 -0.00000000000E+00  0.00000000000E+00  0.23852246147E+03  0.23852246153E+03  0.50400000000E-02 0.  1.
          1   -1    0    0  501    0  0.00000000000E+00 -0.00000000000E+00 -0.69947012911E+03  0.69947012913E+03  0.50400000000E-02 0. -1.
    8880022    1    1    2    0    0 -0.90390287532E+01 -0.28361030204E+03 -0.51851403791E+03  0.61054481243E+03  0.15294330000E+03 0.  0.
    8880022    1    1    2    0    0  0.90390287532E+01  0.28361030204E+03  0.57566370267E+02  0.32744777823E+03  0.15294330000E+03 0.  1.
<mgrwt>
<rscale>  0 0.32234789E+03</rscale>
<asrwt>0</asrwt>
<pdfrwt beam="1">  1        1 0.10761079E+00 0.32234789E+03</pdfrwt>
<pdfrwt beam="2">  1       -1 0.36695764E-01 0.32234789E+03</pdfrwt>
<totfact> 0.20378317E+02</totfact>
</mgrwt>
</event>
<event>
 4    1  0.2731969E-009  0.1396177E+04  0.7818608E-02  0.8956591E-01
         -1   -1    0    0    0  501 -0.00000000000E+00  0.00000000000E+00  0.15444748397E+04  0.15444748397E+04  0.50400000000E-02 0.  1.
          1   -1    0    0  501    0  0.00000000000E+00 -0.00000000000E+00 -0.16268020148E+04  0.16268020149E+04  0.50400000000E-02 0. -1.
    8880022    1    1    2    0    0 -0.13383962900E+04  0.36689685380E+03  0.70958606742E+03  0.15661487702E+04  0.15294330000E+03 0.  0.
    8880022    1    1    2    0    0  0.13383962900E+04 -0.36689685380E+03 -0.79191324257E+03  0.16051280843E+04  0.15294330000E+03 0.  0.
<mgrwt>
<rscale>  0 0.13961768E+04</rscale>
<asrwt>0</asrwt>
<pdfrwt beam="1">  1        1 0.25027723E+00 0.13961768E+04</pdfrwt>
<pdfrwt beam="2">  1       -1 0.23761151E+00 0.13961768E+04</pdfrwt>
<totfact> 0.43005176E-01</totfact>
</mgrwt>
</event>
<event>
 4    1  0.2731969E-009  0.9726029E+03  0.7818608E-02  0.9339115E-01
          1   -1    0    0  501    0  0.00000000000E+00  0.00000000000E+00  0.20736511188E+04  0.20736511188E+04  0.50400000000E-02 0. -1.
         -1   -1    0    0    0  501 -0.00000000000E+00 -0.00000000000E+00 -0.58802747886E+03  0.58802747889E+03  0.50400000000E-02 0.  1.
    8880022    1    1    2    0    0 -0.93748280646E+03  0.20902337568E+03  0.13729910647E+04  0.16825756746E+04  0.15294330000E+03 0.  0.
    8880022    1    1    2    0    0  0.93748280646E+03 -0.20902337568E+03  0.11263257523E+03  0.97910292309E+03  0.15294330000E+03 0.  0.
<mgrwt>
<rscale>  0 0.97260292E+03</rscale>
<asrwt>0</asrwt>
<pdfrwt beam="1">  1        1 0.31902325E+00 0.97260292E+03</pdfrwt>
<pdfrwt beam="2">  1       -1 0.90465767E-01 0.97260292E+03</pdfrwt>
<totfact> 0.32227277E+00</totfact>
</mgrwt>
</event>
<event>
 4    1  0.2731969E-009  0.1127199E+04  0.7818608E-02  0.9179080E-01
          1   -1    0    0  501    0  0.00000000000E+00  0.00000000000E+00  0.27710654904E+04  0.27710654905E+04  0.50400000000E-02 0. -1.
         -1   -1    0    0    0  501 -0.00000000000E+00 -0.00000000000E+00 -0.63361618032E+03  0.63361618034E+03  0.50400000000E-02 0.  1.
    8880022    1    1    2    0    0  0.30866589238E+03 -0.10732709698E+04  0.17381924545E+03  0.11405218064E+04  0.15294330000E+03 0.  0.
    8880022    1    1    2    0    0 -0.30866589238E+03  0.10732709698E+04  0.19636300647E+04  0.22641598644E+04  0.15294330000E+03 0.  0.
<mgrwt>
<rscale>  0 0.11271987E+04</rscale>
<asrwt>0</asrwt>
<pdfrwt beam="1">  1        1 0.42631776E+00 0.11271987E+04</pdfrwt>
<pdfrwt beam="2">  1       -1 0.97479413E-01 0.11271987E+04</pdfrwt>
<totfact> 0.88600584E-01</totfact>
</mgrwt>
</event>
<event>
 4    1  0.2731969E-009  0.5765392E+03  0.7818608E-02  0.9955312E-01
         -1   -1    0    0    0  501 -0.00000000000E+00  0.00000000000E+00  0.65808228845E+03  0.65808228847E+03  0.50400000000E-02 0.  1.
          1   -1    0    0  501    0  0.00000000000E+00 -0.00000000000E+00 -0.92085479437E+03  0.92085479438E+03  0.50400000000E-02 0. -1.
    8880022    1    1    2    0    0  0.54232211688E+03  0.12203473501E+03 -0.66185261580E+03  0.87775070098E+03  0.15294330000E+03 0. -1.
    8880022    1    1    2    0    0 -0.54232211688E+03 -0.12203473501E+03  0.39908010989E+03  0.70118638187E+03  0.15294330000E+03 0.  0.
<mgrwt>
<rscale>  0 0.57653916E+03</rscale>
<asrwt>0</asrwt>
<pdfrwt beam="1">  1        1 0.14166997E+00 0.57653916E+03</pdfrwt>
<pdfrwt beam="2">  1       -1 0.10124343E+00 0.57653916E+03</pdfrwt>
<totfact> 0.17097583E+01</totfact>
</mgrwt>
</event>
<event>
 4    1  0.2731969E-009  0.1277300E+04  0.7818608E-02  0.9047762E-01
         -1   -1    0    0    0  501 -0.00000000000E+00  0.00000000000E+00  0.21105235137E+04  0.21105235137E+04  0.50400000000E-02 0.  1.
          1   -1    0    0  501    0  0.00000000000E+00 -0.00000000000E+00 -0.85821867948E+03  0.85821867950E+03  0.50400000000E-02 0. -1.
    8880022    1    1    2    0    0  0.96647303844E+03  0.82099615617E+03  0.15848589472E+03  0.12870952779E+04  0.15294330000E+03 0.  0.
    8880022    1    1    2    0    0 -0.96647303844E+03 -0.82099615617E+03  0.10938189395E+04  0.16816469154E+04  0.15294330000E+03 0.  0.
<mgrwt>
<rscale>  0 0.12773005E+04</rscale>
<asrwt>0</asrwt>
<pdfrwt beam="1">  1        1 0.13203365E+00 0.12773005E+04</pdfrwt>
<pdfrwt beam="2">  1       -1 0.32469592E+00 0.12773005E+04</pdfrwt>
<totfact> 0.43988997E-01</totfact>
</mgrwt>
</event>
<event>
 4    1  0.2731969E-009  0.7928856E+03  0.7818608E-02  0.9570372E-01
          1   -1    0    0  501    0  0.00000000000E+00  0.00000000000E+00  0.77614221583E+03  0.77614221585E+03  0.50400000000E-02 0. -1.
         -1   -1    0    0    0  501 -0.00000000000E+00 -0.00000000000E+00 -0.81780565190E+03  0.81780565192E+03  0.50400000000E-02 0.  1.
    8880022    1    1    2    0    0  0.70140230976E+03  0.33661651318E+03 -0.98742615495E+02  0.79901040933E+03  0.15294330000E+03 0.  0.
    8880022    1    1    2    0    0 -0.70140230976E+03 -0.33661651318E+03  0.57079179428E+02  0.79493745844E+03  0.15294330000E+03 0.  0.
<mgrwt>
<rscale>  0 0.79288557E+03</rscale>
<asrwt>0</asrwt>
<pdfrwt beam="1">  1        1 0.11940650E+00 0.79288557E+03</pdfrwt>
<pdfrwt beam="2">  1       -1 0.12581625E+00 0.79288557E+03</pdfrwt>
<totfact> 0.13086128E+01</totfact>
</mgrwt>
</event>
<event>
 4    1  0.2731969E-009  0.4821891E+03  0.7818608E-02  0.1018535E+00
          1   -1    0    0  501    0  0.00000000000E+00  0.00000000000E+00  0.18489439278E+04  0.18489439278E+04  0.50400000000E-02 0. -1.
         -1   -1    0    0    0  501 -0.00000000000E+00 -0.00000000000E+00 -0.22651328329E+03  0.22651328335E+03  0.50400000000E-02 0.  1.
    8880022    1    1    2    0    0  0.45693051006E+03  0.18144132255E+02  0.15033429374E+04  0.15787800166E+04  0.15294330000E+03 0.  0.
    8880022    1    1    2    0    0 -0.45693051006E+03 -0.18144132255E+02  0.11908770714E+03  0.49667719453E+03  0.15294330000E+03 0.  0.
<mgrwt>
<rscale>  0 0.48218913E+03</rscale>
<asrwt>0</asrwt>
<pdfrwt beam="1">  1        1 0.28445290E+00 0.48218913E+03</pdfrwt>
<pdfrwt beam="2">  1       -1 0.34848198E-01 0.48218913E+03</pdfrwt>
<totfact> 0.31889733E+01</totfact>
</mgrwt>
</event>
<event>
 4    1  0.2731969E-009  0.1939258E+03  0.7818608E-02  0.1154967E+00
          1   -1    0    0  501    0  0.00000000000E+00  0.00000000000E+00  0.29467097688E+03  0.29467097692E+03  0.50400000000E-02 0. -1.
         -1   -1    0    0    0  501 -0.00000000000E+00 -0.00000000000E+00 -0.17049250283E+04  0.17049250283E+04  0.50400000000E-02 0.  1.
    8880022    1    1    2    0    0  0.25679248037E+02 -0.11643087029E+03 -0.16667766174E+04  0.16780201181E+04  0.15294330000E+03 0.  1.
    8880022    1    1    2    0    0 -0.25679248037E+02  0.11643087029E+03  0.25652256598E+03  0.32157588716E+03  0.15294330000E+03 0.  0.
<mgrwt>
<rscale>  0 0.19392582E+03</rscale>
<asrwt>0</asrwt>
<pdfrwt beam="1">  1        1 0.45333997E-01 0.19392582E+03</pdfrwt>
<pdfrwt beam="2">  1       -1 0.26229615E+00 0.19392582E+03</pdfrwt>
<totfact> 0.62429850E+00</totfact>
</mgrwt>
</event>
<event>
 4    1  0.2731969E-009  0.5419231E+03  0.7818608E-02  0.1003381E+00
          1   -1    0    0  501    0  0.00000000000E+00  0.00000000000E+00  0.22764248885E+04  0.22764248885E+04  0.50400000000E-02 0. -1.
         -1   -1    0    0    0  501 -0.00000000000E+00 -0.00000000000E+00 -0.39665370844E+03  0.39665370847E+03  0.50400000000E-02 0.  1.
    8880022    1    1    2    0    0 -0.36899851305E+03 -0.36623632460E+03  0.20377655047E+04  0.21085940465E+04  0.15294330000E+03 0.  0.
    8880022    1    1    2    0    0  0.36899851305E+03  0.36623632460E+03 -0.15799432458E+03  0.56448455046E+03  0.15294330000E+03 0.  1.
<mgrwt>
<rscale>  0 0.54192306E+03</rscale>
<asrwt>0</asrwt>
<pdfrwt beam="1">  1        1 0.35021922E+00 0.54192306E+03</pdfrwt>
<pdfrwt beam="2">  1       -1 0.61023647E-01 0.54192306E+03</pdfrwt>
<totfact> 0.57910405E+00</totfact>
</mgrwt>
</event>
<event>
 4    1  0.2731969E-009  0.4553568E+03  0.7818608E-02  0.1026137E+00
          1   -1    0    0  501    0  0.00000000000E+00  0.00000000000E+00  0.85337413297E+03  0.85337413299E+03  0.50400000000E-02 0. -1.
         -1   -1    0    0    0  501 -0.00000000000E+00 -0.00000000000E+00 -0.57660564272E+03  0.57660564275E+03  0.50400000000E-02 0.  1.
    8880022    1    1    2    0    0 -0.72687389130E+02  0.42269934705E+03 -0.40548243769E+03  0.60972604900E+03  0.15294330000E+03 0.  1.
    8880022    1    1    2    0    0  0.72687389130E+02 -0.42269934705E+03  0.68225092794E+03  0.82025372674E+03  0.15294330000E+03 0.  0.
<mgrwt>
<rscale>  0 0.45535684E+03</rscale>
<asrwt>0</asrwt>
<pdfrwt beam="1">  1        1 0.13128833E+00 0.45535684E+03</pdfrwt>
<pdfrwt beam="2">  1       -1 0.88708561E-01 0.45535684E+03</pdfrwt>
<totfact> 0.26564630E+01</totfact>
</mgrwt>
</event>
<event>
 4    1  0.2731969E-009  0.2335071E+03  0.7818608E-02  0.1124195E+00
          1   -1    0    0  501    0  0.00000000000E+00  0.00000000000E+00  0.10356907501E+04  0.10356907502E+04  0.50400000000E-02 0. -1.
         -1   -1    0    0    0  501 -0.00000000000E+00 -0.00000000000E+00 -0.69770474263E+02  0.69770474445E+02  0.50400000000E-02 0.  1.
    8880022    1    1    2    0    0 -0.17523089157E+03 -0.20688809056E+02  0.75678906620E+03  0.79199446710E+03  0.15294330000E+03 0.  0.
    8880022    1    1    2    0    0  0.17523089157E+03  0.20688809056E+02  0.20913120968E+03  0.31346675750E+03  0.15294330000E+03 0.  1.
<mgrwt>
<rscale>  0 0.23350706E+03</rscale>
<asrwt>0</asrwt>
<pdfrwt beam="1">  1        1 0.15933702E+00 0.23350706E+03</pdfrwt>
<pdfrwt beam="2">  1       -1 0.10733920E-01 0.23350706E+03</pdfrwt>
<totfact> 0.82423824E+02</totfact>
</mgrwt>
</event>
<event>
 4    1  0.2731969E-009  0.9403851E+03  0.7818608E-02  0.9376460E-01
         -1   -1    0    0    0  501 -0.00000000000E+00  0.00000000000E+00  0.46997350736E+03  0.46997350739E+03  0.50400000000E-02 0.  1.
          1   -1    0    0  501    0  0.00000000000E+00 -0.00000000000E+00 -0.20359040200E+04  0.20359040200E+04  0.50400000000E-02 0. -1.
    8880022    1    1    2    0    0  0.53377266386E+03 -0.75895931473E+03 -0.43808055393E+03  0.10374192609E+04  0.15294330000E+03 0.  0.
    8880022    1    1    2    0    0 -0.53377266386E+03  0.75895931473E+03 -0.11278499587E+04  0.14684582665E+04  0.15294330000E+03 0.  0.
<mgrwt>
<rscale>  0 0.94038511E+03</rscale>
<asrwt>0</asrwt>
<pdfrwt beam="1">  1        1 0.31321600E+00 0.94038511E+03</pdfrwt>
<pdfrwt beam="2">  1       -1 0.72303618E-01 0.94038511E+03</pdfrwt>
<totfact> 0.55444342E+00</totfact>
</mgrwt>
</event>
<event>
 4    1  0.2731969E-009  0.4804744E+03  0.7818608E-02  0.1019005E+00
         -1   -1    0    0    0  501 -0.00000000000E+00  0.00000000000E+00  0.62261688034E+03  0.62261688036E+03  0.50400000000E-02 0.  1.
          1   -1    0    0  501    0  0.00000000000E+00 -0.00000000000E+00 -0.95754923586E+03  0.95754923587E+03  0.50400000000E-02 0. -1.
    8880022    1    1    2    0    0  0.36934640865E+03 -0.26654693802E+03 -0.78594493382E+03  0.92117595049E+03  0.15294330000E+03 0.  0.
    8880022    1    1    2    0    0 -0.36934640865E+03  0.26654693802E+03  0.45101257829E+03  0.65899016574E+03  0.15294330000E+03 0.  1.
<mgrwt>
<rscale>  0 0.48047445E+03</rscale>
<asrwt>0</asrwt>
<pdfrwt beam="1">  1        1 0.14731527E+00 0.48047445E+03</pdfrwt>
<pdfrwt beam="2">  1       -1 0.95787213E-01 0.48047445E+03</pdfrwt>
<totfact> 0.18431805E+01</totfact>
</mgrwt>
</event>
<event>
 4    1  0.2731969E-009  0.1173310E+04  0.7818608E-02  0.9136544E-01
          1   -1    0    0  501    0  0.00000000000E+00  0.00000000000E+00  0.21885586406E+04  0.21885586406E+04  0.50400000000E-02 0. -1.
         -1   -1    0    0    0  501 -0.00000000000E+00 -0.00000000000E+00 -0.12756426313E+04  0.12756426314E+04  0.50400000000E-02 0.  1.
    8880022    1    1    2    0    0  0.89205410058E+03  0.74666271886E+03  0.16896550888E+04  0.20570833008E+04  0.15294330000E+03 0.  0.
    8880022    1    1    2    0    0 -0.89205410058E+03 -0.74666271886E+03 -0.77673907957E+03  0.14071179712E+04  0.15294330000E+03 0.  0.
<mgrwt>
<rscale>  0 0.11733104E+04</rscale>
<asrwt>0</asrwt>
<pdfrwt beam="1">  1        1 0.33670132E+00 0.11733104E+04</pdfrwt>
<pdfrwt beam="2">  1       -1 0.19625272E+00 0.11733104E+04</pdfrwt>
<totfact> 0.34974432E-01</totfact>
</mgrwt>
</event>
<event>
 4    1  0.2731969E-009  0.7999082E+03  0.7818608E-02  0.9560150E-01
          1   -1    0    0  501    0  0.00000000000E+00  0.00000000000E+00  0.77955217090E+03  0.77955217092E+03  0.50400000000E-02 0. -1.
         -1   -1    0    0    0  501 -0.00000000000E+00 -0.00000000000E+00 -0.10645811524E+04  0.10645811524E+04  0.50400000000E-02 0.  1.
    8880022    1    1    2    0    0  0.72741966770E+03  0.29550304752E+03 -0.58375646400E+03  0.99026495764E+03  0.15294330000E+03 0.  0.
    8880022    1    1    2    0    0 -0.72741966770E+03 -0.29550304752E+03  0.29872748252E+03  0.85386836566E+03  0.15294330000E+03 0.  0.
<mgrwt>
<rscale>  0 0.79990817E+03</rscale>
<asrwt>0</asrwt>
<pdfrwt beam="1">  1        1 0.11993110E+00 0.79990817E+03</pdfrwt>
<pdfrwt beam="2">  1       -1 0.16378172E+00 0.79990817E+03</pdfrwt>
<totfact> 0.64751397E+00</totfact>
</mgrwt>
</event>
<event>
 4    1  0.2731969E-009  0.4081880E+03  0.7818608E-02  0.1040981E+00
         -1   -1    0    0    0  501 -0.00000000000E+00  0.00000000000E+00  0.44295100999E+03  0.44295101002E+03  0.50400000000E-02 0.  1.
          1   -1    0    0  501    0  0.00000000000E+00 -0.00000000000E+00 -0.52991174843E+03  0.52991174845E+03  0.50400000000E-02 0. -1.
    8880022    1    1    2    0    0  0.30180084154E+03  0.22834625255E+03  0.21854270213E+03  0.46301006973E+03  0.15294330000E+03 0.  0.
    8880022    1    1    2    0    0 -0.30180084154E+03 -0.22834625255E+03 -0.30550344056E+03  0.50985268874E+03  0.15294330000E+03 0.  0.
<mgrwt>
<rscale>  0 0.40818796E+03</rscale>
<asrwt>0</asrwt>
<pdfrwt beam="1">  1        1 0.81524884E-01 0.40818796E+03</pdfrwt>
<pdfrwt beam="2">  1       -1 0.68146309E-01 0.40818796E+03</pdfrwt>
<totfact> 0.93675270E+01</totfact>
</mgrwt>
</event>
<event>
 4    1  0.2731969E-009  0.9979744E+03  0.7818608E-02  0.9310769E-01
          1   -1    0    0  501    0  0.00000000000E+00  0.00000000000E+00  0.22812859473E+04  0.22812859473E+04  0.50400000000E-02 0. -1.
         -1   -1    0    0    0  501 -0.00000000000E+00 -0.00000000000E+00 -0.56360953676E+03  0.56360953678E+03  0.50400000000E-02 0.  1.
    8880022    1    1    2    0    0  0.98160124252E+03  0.94975242063E+02  0.18352124679E+03  0.10147083310E+04  0.15294330000E+03 0.  0.
    8880022    1    1    2    0    0 -0.98160124252E+03 -0.94975242063E+02  0.15341551638E+04  0.18301871531E+04  0.15294330000E+03 0.  0.
<mgrwt>
<rscale>  0 0.99797442E+03</rscale>
<asrwt>0</asrwt>
<pdfrwt beam="1">  1        1 0.35096707E+00 0.99797442E+03</pdfrwt>
<pdfrwt beam="2">  1       -1 0.86709159E-01 0.99797442E+03</pdfrwt>
<totfact> 0.25522160E+00</totfact>
</mgrwt>
</event>
<event>
 4    1  0.2731969E-009  0.7977377E+03  0.7818608E-02  0.9563298E-01
         -1   -1    0    0    0  501 -0.00000000000E+00  0.00000000000E+00  0.62547942389E+03  0.62547942391E+03  0.50400000000E-02 0.  1.
          1   -1    0    0  501    0  0.00000000000E+00 -0.00000000000E+00 -0.14798078969E+04  0.14798078969E+04  0.50400000000E-02 0. -1.
    8880022    1    1    2    0    0 -0.24610039144E+03 -0.74325522893E+03 -0.10155665110E+04  0.12914181078E+04  0.15294330000E+03 0.  0.
    8880022    1    1    2    0    0  0.24610039144E+03  0.74325522893E+03  0.16123803794E+03  0.81386921302E+03  0.15294330000E+03 0.  0.
<mgrwt>
<rscale>  0 0.79773767E+03</rscale>
<asrwt>0</asrwt>
<pdfrwt beam="1">  1        1 0.22766275E+00 0.79773767E+03</pdfrwt>
<pdfrwt beam="2">  1       -1 0.96227604E-01 0.79773767E+03</pdfrwt>
<totfact> 0.72549317E+00</totfact>
</mgrwt>
</event>
<event>
 4    1  0.2731969E-009  0.4035767E+03  0.7818608E-02  0.1042548E+00
          1   -1    0    0  501    0  0.00000000000E+00  0.00000000000E+00  0.10368355112E+04  0.10368355112E+04  0.50400000000E-02 0. -1.
         -1   -1    0    0    0  501 -0.00000000000E+00 -0.00000000000E+00 -0.26945885716E+03  0.26945885721E+03  0.50400000000E-02 0.  1.
    8880022    1    1    2    0    0  0.33382642345E+03 -0.16745874994E+03  0.80547430685E+03  0.90092342956E+03  0.15294330000E+03 0. -1.
    8880022    1    1    2    0    0 -0.33382642345E+03  0.16745874994E+03 -0.38097652790E+02  0.40537093888E+03  0.15294330000E+03 0.  0.
<mgrwt>
<rscale>  0 0.40357672E+03</rscale>
<asrwt>0</asrwt>
<pdfrwt beam="1">  1        1 0.15951315E+00 0.40357672E+03</pdfrwt>
<pdfrwt beam="2">  1       -1 0.41455210E-01 0.40357672E+03</pdfrwt>
<totfact> 0.85852326E+01</totfact>
</mgrwt>
</event>
<event>
 4    1  0.2731969E-009  0.6539876E+03  0.7818608E-02  0.9799325E-01
          1   -1    0    0  501    0  0.00000000000E+00  0.00000000000E+00  0.13608558475E+04  0.13608558475E+04  0.50400000000E-02 0. -1.
         -1   -1    0    0    0  501 -0.00000000000E+00 -0.00000000000E+00 -0.52561056729E+03  0.52561056732E+03  0.50400000000E-02 0.  1.
    8880022    1    1    2    0    0  0.14155754010E+02  0.63569465709E+03  0.10157045647E+04  0.12080378712E+04  0.15294330000E+03 0.  0.
    8880022    1    1    2    0    0 -0.14155754010E+02 -0.63569465709E+03 -0.18045928452E+03  0.67842854363E+03  0.15294330000E+03 0.  0.
<mgrwt>
<rscale>  0 0.65398757E+03</rscale>
<asrwt>0</asrwt>
<pdfrwt beam="1">  1        1 0.20936244E+00 0.65398757E+03</pdfrwt>
<pdfrwt beam="2">  1       -1 0.80863163E-01 0.65398757E+03</pdfrwt>
<totfact> 0.13110286E+01</totfact>
</mgrwt>
</event>
<event>
 4    1  0.2731969E-009  0.1632301E+03  0.7818608E-02  0.1185098E+00
         -1   -1    0    0    0  501 -0.00000000000E+00  0.00000000000E+00  0.70449266980E+02  0.70449267160E+02  0.50400000000E-02 0.  1.
          1   -1    0    0  501    0  0.00000000000E+00 -0.00000000000E+00 -0.12392569783E+04  0.12392569784E+04  0.50400000000E-02 0. -1.
    8880022    1    1    2    0    0 -0.52967638120E+02 -0.21138388937E+02 -0.38547147298E+02  0.16771981921E+03  0.15294330000E+03 0.  1.
    8880022    1    1    2    0    0  0.52967638120E+02  0.21138388937E+02 -0.11302605641E+04  0.11419864263E+04  0.15294330000E+03 0.  0.
<mgrwt>
<rscale>  0 0.16323007E+03</rscale>
<asrwt>0</asrwt>
<pdfrwt beam="1">  1        1 0.19065490E+00 0.16323007E+03</pdfrwt>
<pdfrwt beam="2">  1       -1 0.10838350E-01 0.16323007E+03</pdfrwt>
<totfact> 0.58669432E+02</totfact>
</mgrwt>
</event>
<event>
 4    1  0.2731969E-009  0.1763183E+04  0.7818608E-02  0.8726127E-01
          1   -1    0    0  501    0  0.00000000000E+00  0.00000000000E+00  0.16922391851E+04  0.16922391851E+04  0.50400000000E-02 0. -1.
         -1   -1    0    0    0  501 -0.00000000000E+00 -0.00000000000E+00 -0.32119550172E+04  0.32119550172E+04  0.50400000000E-02 0.  1.
    8880022    1    1    2    0    0 -0.10159229015E+04  0.14329417987E+04 -0.23641422161E+04  0.29492340719E+04  0.15294330000E+03 0.  0.
    8880022    1    1    2    0    0  0.10159229015E+04 -0.14329417987E+04  0.84442638397E+03  0.19549601303E+04  0.15294330000E+03 0.  0.
<mgrwt>
<rscale>  0 0.17631827E+04</rscale>
<asrwt>0</asrwt>
<pdfrwt beam="1">  1        1 0.26034449E+00 0.17631827E+04</pdfrwt>
<pdfrwt beam="2">  1       -1 0.49414692E+00 0.17631827E+04</pdfrwt>
<totfact> 0.71148068E-03</totfact>
</mgrwt>
</event>
<event>
 4    1  0.2731969E-009  0.8619259E+03  0.7818608E-02  0.9474469E-01
         -1   -1    0    0    0  501 -0.00000000000E+00  0.00000000000E+00  0.30308097608E+03  0.30308097612E+03  0.50400000000E-02 0.  1.
          1   -1    0    0  501    0  0.00000000000E+00 -0.00000000000E+00 -0.29805816637E+04  0.29805816637E+04  0.50400000000E-02 0. -1.
    8880022    1    1    2    0    0  0.46104145675E+03 -0.71201501297E+03 -0.20306718503E+04  0.22060245738E+04  0.15294330000E+03 0.  0.
    8880022    1    1    2    0    0 -0.46104145675E+03  0.71201501297E+03 -0.64682883730E+03  0.10776380660E+04  0.15294330000E+03 0.  1.
<mgrwt>
<rscale>  0 0.86192590E+03</rscale>
<asrwt>0</asrwt>
<pdfrwt beam="1">  1        1 0.45855101E+00 0.86192590E+03</pdfrwt>
<pdfrwt beam="2">  1       -1 0.46627845E-01 0.86192590E+03</pdfrwt>
<totfact> 0.29697057E+00</totfact>
</mgrwt>
</event>
<event>
 4    1  0.2731969E-009  0.4908875E+03  0.7818608E-02  0.1016185E+00
         -1   -1    0    0    0  501 -0.00000000000E+00  0.00000000000E+00  0.49187679960E+03  0.49187679962E+03  0.50400000000E-02 0.  1.
          1   -1    0    0  501    0  0.00000000000E+00 -0.00000000000E+00 -0.16175423366E+04  0.16175423366E+04  0.50400000000E-02 0. -1.
    8880022    1    1    2    0    0  0.73025695607E+02 -0.46070182096E+03  0.31779158893E+03  0.58477522781E+03  0.15294330000E+03 0.  0.
    8880022    1    1    2    0    0 -0.73025695607E+02  0.46070182096E+03 -0.14434571260E+04  0.15246439085E+04  0.15294330000E+03 0.  0.
<mgrwt>
<rscale>  0 0.49088754E+03</rscale>
<asrwt>0</asrwt>
<pdfrwt beam="1">  1        1 0.24885266E+00 0.49088754E+03</pdfrwt>
<pdfrwt beam="2">  1       -1 0.75673355E-01 0.49088754E+03</pdfrwt>
<totfact> 0.10401000E+01</totfact>
</mgrwt>
</event>
<event>
 4    1  0.2731969E-009  0.5440221E+03  0.7818608E-02  0.1002887E+00
         -1   -1    0    0    0  501 -0.00000000000E+00  0.00000000000E+00  0.40300598635E+03  0.40300598639E+03  0.50400000000E-02 0.  1.
          1   -1    0    0  501    0  0.00000000000E+00 -0.00000000000E+00 -0.15945708708E+04  0.15945708708E+04  0.50400000000E-02 0. -1.
    8880022    1    1    2    0    0  0.51837311870E+03  0.62110527184E+02 -0.13293644568E+04  0.14363738788E+04  0.15294330000E+03 0.  0.
    8880022    1    1    2    0    0 -0.51837311870E+03 -0.62110527184E+02  0.13779957234E+03  0.56120297837E+03  0.15294330000E+03 0.  1.
<mgrwt>
<rscale>  0 0.54402211E+03</rscale>
<asrwt>0</asrwt>
<pdfrwt beam="1">  1        1 0.24531859E+00 0.54402211E+03</pdfrwt>
<pdfrwt beam="2">  1       -1 0.62000922E-01 0.54402211E+03</pdfrwt>
<totfact> 0.15939070E+01</totfact>
</mgrwt>
</event>
<event>
 4    1  0.2731969E-009  0.4942221E+03  0.7818608E-02  0.1015298E+00
         -1   -1    0    0    0  501 -0.00000000000E+00  0.00000000000E+00  0.19695354223E+03  0.19695354230E+03  0.50400000000E-02 0.  1.
          1   -1    0    0  501    0  0.00000000000E+00 -0.00000000000E+00 -0.16139117372E+04  0.16139117372E+04  0.50400000000E-02 0. -1.
    8880022    1    1    2    0    0 -0.39515151211E+03 -0.25439947258E+03 -0.11441948613E+04  0.12463696654E+04  0.15294330000E+03 0.  0.
    8880022    1    1    2    0    0  0.39515151211E+03  0.25439947258E+03 -0.27276333374E+03  0.56449561418E+03  0.15294330000E+03 0.  0.
<mgrwt>
<rscale>  0 0.49422208E+03</rscale>
<asrwt>0</asrwt>
<pdfrwt beam="1">  1        1 0.24829410E+00 0.49422208E+03</pdfrwt>
<pdfrwt beam="2">  1       -1 0.30300546E-01 0.49422208E+03</pdfrwt>
<totfact> 0.58208402E+01</totfact>
</mgrwt>
</event>
<event>
 4    1  0.2731969E-009  0.8745546E+03  0.7818608E-02  0.9457961E-01
          1   -1    0    0  501    0  0.00000000000E+00  0.00000000000E+00  0.96616635140E+03  0.96616635141E+03  0.50400000000E-02 0. -1.
         -1   -1    0    0    0  501 -0.00000000000E+00 -0.00000000000E+00 -0.11214438724E+04  0.11214438724E+04  0.50400000000E-02 0.  1.
    8880022    1    1    2    0    0  0.34898637258E+02 -0.86036975329E+03  0.48842520397E+03  0.10017009834E+04  0.15294330000E+03 0.  0.
    8880022    1    1    2    0    0 -0.34898637258E+02  0.86036975329E+03 -0.64370272493E+03  0.10859092404E+04  0.15294330000E+03 0.  0.
<mgrwt>
<rscale>  0 0.87455456E+03</rscale>
<asrwt>0</asrwt>
<pdfrwt beam="1">  1        1 0.14864098E+00 0.87455456E+03</pdfrwt>
<pdfrwt beam="2">  1       -1 0.17252983E+00 0.87455456E+03</pdfrwt>
<totfact> 0.38660666E+00</totfact>
</mgrwt>
</event>
<event>
 4    1  0.2731969E-009  0.7801433E+03  0.7818608E-02  0.9589212E-01
         -1   -1    0    0    0  501 -0.00000000000E+00  0.00000000000E+00  0.92783092432E+03  0.92783092434E+03  0.50400000000E-02 0.  1.
          1   -1    0    0  501    0  0.00000000000E+00 -0.00000000000E+00 -0.97945702850E+03  0.97945702851E+03  0.50400000000E-02 0. -1.
    8880022    1    1    2    0    0  0.12570011209E+03 -0.75460678096E+03  0.52224444839E+03  0.93880926121E+03  0.15294330000E+03 0.  0.
    8880022    1    1    2    0    0 -0.12570011209E+03  0.75460678096E+03 -0.57387055256E+03  0.96847869164E+03  0.15294330000E+03 0.  0.
<mgrwt>
<rscale>  0 0.78014330E+03</rscale>
<asrwt>0</asrwt>
<pdfrwt beam="1">  1        1 0.15068570E+00 0.78014330E+03</pdfrwt>
<pdfrwt beam="2">  1       -1 0.14274322E+00 0.78014330E+03</pdfrwt>
<totfact> 0.64448140E+00</totfact>
</mgrwt>
</event>
<event>
 4    1  0.2731969E-009  0.8419533E+03  0.7818608E-02  0.9501201E-01
          1   -1    0    0  501    0  0.00000000000E+00  0.00000000000E+00  0.24351779469E+04  0.24351779469E+04  0.50400000000E-02 0. -1.
         -1   -1    0    0    0  501 -0.00000000000E+00 -0.00000000000E+00 -0.34148467642E+03  0.34148467646E+03  0.50400000000E-02 0.  1.
    8880022    1    1    2    0    0 -0.77891817651E+03  0.28067806410E+03  0.15801174313E+04  0.17904347100E+04  0.15294330000E+03 0.  0.
    8880022    1    1    2    0    0  0.77891817651E+03 -0.28067806410E+03  0.51357583922E+03  0.98622791331E+03  0.15294330000E+03 0.  0.
<mgrwt>
<rscale>  0 0.84195330E+03</rscale>
<asrwt>0</asrwt>
<pdfrwt beam="1">  1        1 0.37464276E+00 0.84195330E+03</pdfrwt>
<pdfrwt beam="2">  1       -1 0.52536104E-01 0.84195330E+03</pdfrwt>
<totfact> 0.57072570E+00</totfact>
</mgrwt>
</event>
<event>
 4    1  0.2731969E-009  0.9643364E+03  0.7818608E-02  0.9348549E-01
          1   -1    0    0  501    0  0.00000000000E+00  0.00000000000E+00  0.16176900860E+04  0.16176900860E+04  0.50400000000E-02 0. -1.
         -1   -1    0    0    0  501 -0.00000000000E+00 -0.00000000000E+00 -0.89869355068E+03  0.89869355069E+03  0.50400000000E-02 0.  1.
    8880022    1    1    2    0    0 -0.67083453082E+03 -0.67567301102E+03  0.11147682924E+04  0.14739921928E+04  0.15294330000E+03 0.  0.
    8880022    1    1    2    0    0  0.67083453082E+03  0.67567301102E+03 -0.39577175712E+03  0.10423914439E+04  0.15294330000E+03 0.  0.
<mgrwt>
<rscale>  0 0.96433637E+03</rscale>
<asrwt>0</asrwt>
<pdfrwt beam="1">  1        1 0.24887540E+00 0.96433637E+03</pdfrwt>
<pdfrwt beam="2">  1       -1 0.13826055E+00 0.96433637E+03</pdfrwt>
<totfact> 0.23771428E+00</totfact>
</mgrwt>
</event>
<event>
 4    1  0.2731969E-009  0.4972937E+03  0.7818608E-02  0.1014488E+00
          1   -1    0    0  501    0  0.00000000000E+00  0.00000000000E+00  0.24473447436E+04  0.24473447436E+04  0.50400000000E-02 0. -1.
         -1   -1    0    0    0  501 -0.00000000000E+00 -0.00000000000E+00 -0.12046544654E+04  0.12046544654E+04  0.50400000000E-02 0.  1.
    8880022    1    1    2    0    0 -0.38225650007E+03  0.27890734015E+03  0.23690834785E+04  0.24207142577E+04  0.15294330000E+03 0.  0.
    8880022    1    1    2    0    0  0.38225650007E+03 -0.27890734015E+03 -0.11263932004E+04  0.12312849512E+04  0.15294330000E+03 0.  0.
<mgrwt>
<rscale>  0 0.49729366E+03</rscale>
<asrwt>0</asrwt>
<pdfrwt beam="1">  1        1 0.37651457E+00 0.49729366E+03</pdfrwt>
<pdfrwt beam="2">  1       -1 0.18533146E+00 0.49729366E+03</pdfrwt>
<totfact> 0.32654402E-01</totfact>
</mgrwt>
</event>
<event>
 4    1  0.2731969E-009  0.9844151E+03  0.7818608E-02  0.9325805E-01
         -1   -1    0    0    0  501 -0.00000000000E+00  0.00000000000E+00  0.67950259471E+03  0.67950259473E+03  0.50400000000E-02 0.  1.
          1   -1    0    0  501    0  0.00000000000E+00 -0.00000000000E+00 -0.21299753784E+04  0.21299753784E+04  0.50400000000E-02 0. -1.
    8880022    1    1    2    0    0 -0.88081011515E+03  0.41213476707E+03 -0.15327327169E+04  0.18216318947E+04  0.15294330000E+03 0.  0.
    8880022    1    1    2    0    0  0.88081011515E+03 -0.41213476707E+03  0.82259933195E+02  0.98784607850E+03  0.15294330000E+03 0.  0.
<mgrwt>
<rscale>  0 0.98441515E+03</rscale>
<asrwt>0</asrwt>
<pdfrwt beam="1">  1        1 0.32768852E+00 0.98441515E+03</pdfrwt>
<pdfrwt beam="2">  1       -1 0.10453886E+00 0.98441515E+03</pdfrwt>
<totfact> 0.21232618E+00</totfact>
</mgrwt>
</event>
<event>
 4    1  0.2731969E-009  0.1000616E+04  0.7818608E-02  0.9307869E-01
          1   -1    0    0  501    0  0.00000000000E+00  0.00000000000E+00  0.14044892555E+04  0.14044892555E+04  0.50400000000E-02 0. -1.
         -1   -1    0    0    0  501 -0.00000000000E+00 -0.00000000000E+00 -0.14168125839E+04  0.14168125839E+04  0.50400000000E-02 0.  1.
    8880022    1    1    2    0    0 -0.98083378080E+03  0.12572329725E+03 -0.10004875707E+04  0.14149940937E+04  0.15294330000E+03 0.  0.
    8880022    1    1    2    0    0  0.98083378080E+03 -0.12572329725E+03  0.98816424222E+03  0.14063077457E+04  0.15294330000E+03 0.  0.
<mgrwt>
<rscale>  0 0.10006163E+04</rscale>
<asrwt>0</asrwt>
<pdfrwt beam="1">  1        1 0.21607527E+00 0.10006163E+04</pdfrwt>
<pdfrwt beam="2">  1       -1 0.21797117E+00 0.10006163E+04</pdfrwt>
<totfact> 0.87263207E-01</totfact>
</mgrwt>
</event>
<event>
 4    1  0.2731969E-009  0.3976292E+03  0.7818608E-02  0.1044604E+00
         -1   -1    0    0    0  501 -0.00000000000E+00  0.00000000000E+00  0.11357759584E+04  0.11357759584E+04  0.50400000000E-02 0.  1.
          1   -1    0    0  501    0  0.00000000000E+00 -0.00000000000E+00 -0.36263723288E+03  0.36263723292E+03  0.50400000000E-02 0. -1.
    8880022    1    1    2    0    0 -0.32601396776E+03 -0.16861845353E+03 -0.20150944213E+03  0.44577460485E+03  0.15294330000E+03 0.  0.
    8880022    1    1    2    0    0  0.32601396776E+03  0.16861845353E+03  0.97464816764E+03  0.10526385865E+04  0.15294330000E+03 0. -1.
<mgrwt>
<rscale>  0 0.39762915E+03</rscale>
<asrwt>0</asrwt>
<pdfrwt beam="1">  1        1 0.55790345E-01 0.39762915E+03</pdfrwt>
<pdfrwt beam="2">  1       -1 0.17473476E+00 0.39762915E+03</pdfrwt>
<totfact> 0.16808811E+01</totfact>
</mgrwt>
</event>
<event>
 4    1  0.2731969E-009  0.7901088E+03  0.7818608E-02  0.9574446E-01
         -1   -1    0    0    0  501 -0.00000000000E+00  0.00000000000E+00  0.83044394621E+03  0.83044394623E+03  0.50400000000E-02 0.  1.
          1   -1    0    0  501    0  0.00000000000E+00 -0.00000000000E+00 -0.14126565731E+04  0.14126565731E+04  0.50400000000E-02 0. -1.
    8880022    1    1    2    0    0  0.65968538451E+03 -0.40705697318E+03  0.47603641849E+03  0.92243293019E+03  0.15294330000E+03 0.  0.
    8880022    1    1    2    0    0 -0.65968538451E+03  0.40705697318E+03 -0.10582490453E+04  0.13206675891E+04  0.15294330000E+03 0.  0.
<mgrwt>
<rscale>  0 0.79010875E+03</rscale>
<asrwt>0</asrwt>
<pdfrwt beam="1">  1        1 0.21733178E+00 0.79010875E+03</pdfrwt>
<pdfrwt beam="2">  1       -1 0.12776061E+00 0.79010875E+03</pdfrwt>
<totfact> 0.41275207E+00</totfact>
</mgrwt>
</event>
<event>
 4    1  0.2731969E-009  0.8606573E+03  0.7818608E-02  0.9476144E-01
          1   -1    0    0  501    0  0.00000000000E+00  0.00000000000E+00  0.34226140775E+04  0.34226140775E+04  0.50400000000E-02 0. -1.
         -1   -1    0    0    0  501 -0.00000000000E+00 -0.00000000000E+00 -0.91788502319E+03  0.91788502320E+03  0.50400000000E-02 0.  1.
    8880022    1    1    2    0    0 -0.71559321173E+03  0.45306248390E+03 -0.64485571650E+03  0.10754393554E+04  0.15294330000E+03 0.  0.
    8880022    1    1    2    0    0  0.71559321173E+03 -0.45306248390E+03  0.31495847708E+04  0.32650597453E+04  0.15294330000E+03 0.  0.
<mgrwt>
<rscale>  0 0.86065726E+03</rscale>
<asrwt>0</asrwt>
<pdfrwt beam="1">  1        1 0.52655602E+00 0.86065726E+03</pdfrwt>
<pdfrwt beam="2">  1       -1 0.14121308E+00 0.86065726E+03</pdfrwt>
<totfact> 0.12596716E-01</totfact>
</mgrwt>
</event>
<event>
 4    1  0.2731969E-009  0.9432505E+03  0.7818608E-02  0.9373075E-01
          1   -1    0    0  501    0  0.00000000000E+00  0.00000000000E+00  0.11866990010E+04  0.11866990010E+04  0.50400000000E-02 0. -1.
         -1   -1    0    0    0  501 -0.00000000000E+00 -0.00000000000E+00 -0.19214261929E+04  0.19214261929E+04  0.50400000000E-02 0.  1.
    8880022    1    1    2    0    0 -0.87862955326E+03  0.30714804608E+03  0.84619684624E+03  0.12671900290E+04  0.15294330000E+03 0.  0.
    8880022    1    1    2    0    0  0.87862955326E+03 -0.30714804608E+03 -0.15809240381E+04  0.18409351649E+04  0.15294330000E+03 0.  0.
<mgrwt>
<rscale>  0 0.94325048E+03</rscale>
<asrwt>0</asrwt>
<pdfrwt beam="1">  1        1 0.18256908E+00 0.94325048E+03</pdfrwt>
<pdfrwt beam="2">  1       -1 0.29560403E+00 0.94325048E+03</pdfrwt>
<totfact> 0.39475084E-01</totfact>
</mgrwt>
</event>
<event>
 4    1  0.2731969E-009  0.4357625E+03  0.7818608E-02  0.1032055E+00
          1   -1    0    0  501    0  0.00000000000E+00  0.00000000000E+00  0.83314097326E+03  0.83314097327E+03  0.50400000000E-02 0. -1.
         -1   -1    0    0    0  501 -0.00000000000E+00 -0.00000000000E+00 -0.42243545531E+03  0.42243545534E+03  0.50400000000E-02 0.  1.
    8880022    1    1    2    0    0 -0.24841530828E+03 -0.32370837713E+03 -0.22064840256E+03  0.48844103981E+03  0.15294330000E+03 0.  0.
    8880022    1    1    2    0    0  0.24841530828E+03  0.32370837713E+03  0.63135392050E+03  0.76713538880E+03  0.15294330000E+03 0.  0.
<mgrwt>
<rscale>  0 0.43576247E+03</rscale>
<asrwt>0</asrwt>
<pdfrwt beam="1">  1        1 0.12817553E+00 0.43576247E+03</pdfrwt>
<pdfrwt beam="2">  1       -1 0.64990071E-01 0.43576247E+03</pdfrwt>
<totfact> 0.52800811E+01</totfact>
</mgrwt>
</event>
<event>
 4    1  0.2731969E-009  0.4618656E+03  0.7818608E-02  0.1024242E+00
          1   -1    0    0  501    0  0.00000000000E+00  0.00000000000E+00  0.16459108453E+04  0.16459108453E+04  0.50400000000E-02 0. -1.
         -1   -1    0    0    0  501 -0.00000000000E+00 -0.00000000000E+00 -0.65245247203E+03  0.65245247205E+03  0.50400000000E-02 0.  1.
    8880022    1    1    2    0    0 -0.42027208821E+03  0.11532352669E+03 -0.53200072500E+03  0.70451725909E+03  0.15294330000E+03 0.  0.
    8880022    1    1    2    0    0  0.42027208821E+03 -0.11532352669E+03  0.15254590983E+04  0.15938460583E+04  0.15294330000E+03 0.  0.
<mgrwt>
<rscale>  0 0.46186556E+03</rscale>
<asrwt>0</asrwt>
<pdfrwt beam="1">  1        1 0.25321705E+00 0.46186556E+03</pdfrwt>
<pdfrwt beam="2">  1       -1 0.10037730E+00 0.46186556E+03</pdfrwt>
<totfact> 0.54483273E+00</totfact>
</mgrwt>
</event>
<event>
 4    1  0.2731969E-009  0.3191165E+03  0.7818608E-02  0.1076057E+00
          1   -1    0    0  501    0  0.00000000000E+00  0.00000000000E+00  0.10552474613E+04  0.10552474614E+04  0.50400000000E-02 0. -1.
         -1   -1    0    0    0  501 -0.00000000000E+00 -0.00000000000E+00 -0.94507847583E+03  0.94507847584E+03  0.50400000000E-02 0.  1.
    8880022    1    1    2    0    0 -0.27440309232E+03 -0.56094995611E+02 -0.89263950019E+03  0.94796657954E+03  0.15294330000E+03 0.  1.
    8880022    1    1    2    0    0  0.27440309232E+03  0.56094995611E+02  0.10028084857E+04  0.10523593577E+04  0.15294330000E+03 0.  0.
<mgrwt>
<rscale>  0 0.31911653E+03</rscale>
<asrwt>0</asrwt>
<pdfrwt beam="1">  1        1 0.16234576E+00 0.31911653E+03</pdfrwt>
<pdfrwt beam="2">  1       -1 0.14539669E+00 0.31911653E+03</pdfrwt>
<totfact> 0.59684702E+00</totfact>
</mgrwt>
</event>
<event>
 4    1  0.2731969E-009  0.1650182E+04  0.7818608E-02  0.8790299E-01
          1   -1    0    0  501    0  0.00000000000E+00  0.00000000000E+00  0.25318299075E+04  0.25318299075E+04  0.50400000000E-02 0. -1.
         -1   -1    0    0    0  501 -0.00000000000E+00 -0.00000000000E+00 -0.18215954009E+04  0.18215954009E+04  0.50400000000E-02 0.  1.
    8880022    1    1    2    0    0  0.15128258699E+04  0.64114567731E+03  0.17481415867E+04  0.24039759883E+04  0.15294330000E+03 0.  0.
    8880022    1    1    2    0    0 -0.15128258699E+04 -0.64114567731E+03 -0.10379070801E+04  0.19494493202E+04  0.15294330000E+03 0.  0.
<mgrwt>
<rscale>  0 0.16501823E+04</rscale>
<asrwt>0</asrwt>
<pdfrwt beam="1">  1        1 0.38951229E+00 0.16501823E+04</pdfrwt>
<pdfrwt beam="2">  1       -1 0.28024545E+00 0.16501823E+04</pdfrwt>
<totfact> 0.52803371E-02</totfact>
</mgrwt>
</event>
<event>
 4    1  0.2731969E-009  0.1464635E+04  0.7818608E-02  0.8908317E-01
         -1   -1    0    0    0  501 -0.00000000000E+00  0.00000000000E+00  0.12974392678E+04  0.12974392678E+04  0.50400000000E-02 0.  1.
          1   -1    0    0  501    0  0.00000000000E+00 -0.00000000000E+00 -0.28929999944E+04  0.28929999944E+04  0.50400000000E-02 0. -1.
    8880022    1    1    2    0    0  0.25449719953E+03 -0.14342231525E+04  0.57373321489E+03  0.15729991515E+04  0.15294330000E+03 0.  0.
    8880022    1    1    2    0    0 -0.25449719953E+03  0.14342231525E+04 -0.21692939414E+04  0.26174401107E+04  0.15294330000E+03 0.  0.
<mgrwt>
<rscale>  0 0.14646353E+04</rscale>
<asrwt>0</asrwt>
<pdfrwt beam="1">  1        1 0.44507692E+00 0.14646353E+04</pdfrwt>
<pdfrwt beam="2">  1       -1 0.19960604E+00 0.14646353E+04</pdfrwt>
<totfact> 0.10300354E-01</totfact>
</mgrwt>
</event>
<event>
 4    1  0.2731969E-009  0.8960018E+03  0.7818608E-02  0.9430593E-01
          1   -1    0    0  501    0  0.00000000000E+00  0.00000000000E+00  0.20575217222E+04  0.20575217222E+04  0.50400000000E-02 0. -1.
         -1   -1    0    0    0  501 -0.00000000000E+00 -0.00000000000E+00 -0.13786095778E+04  0.13786095778E+04  0.50400000000E-02 0.  1.
    8880022    1    1    2    0    0  0.44796762963E+03  0.76075786065E+03  0.17942126746E+04  0.20054970193E+04  0.15294330000E+03 0.  0.
    8880022    1    1    2    0    0 -0.44796762963E+03 -0.76075786065E+03 -0.11153005301E+04  0.14306342808E+04  0.15294330000E+03 0.  0.
<mgrwt>
<rscale>  0 0.89600177E+03</rscale>
<asrwt>0</asrwt>
<pdfrwt beam="1">  1        1 0.31654180E+00 0.89600177E+03</pdfrwt>
<pdfrwt beam="2">  1       -1 0.21209378E+00 0.89600177E+03</pdfrwt>
<totfact> 0.35052168E-01</totfact>
</mgrwt>
</event>
<event>
 4    1  0.2731969E-009  0.1064163E+04  0.7818608E-02  0.9240843E-01
          1   -1    0    0  501    0  0.00000000000E+00  0.00000000000E+00  0.33127312627E+04  0.33127312627E+04  0.50400000000E-02 0. -1.
         -1   -1    0    0    0  501 -0.00000000000E+00 -0.00000000000E+00 -0.82780246986E+03  0.82780246988E+03  0.50400000000E-02 0.  1.
    8880022    1    1    2    0    0  0.28968381406E+03 -0.10124889410E+04 -0.34375000136E+03  0.11183050944E+04  0.15294330000E+03 0.  0.
    8880022    1    1    2    0    0 -0.28968381406E+03  0.10124889410E+04  0.28286787942E+04  0.30222286382E+04  0.15294330000E+03 0.  0.
<mgrwt>
<rscale>  0 0.10641627E+04</rscale>
<asrwt>0</asrwt>
<pdfrwt beam="1">  1        1 0.50965096E+00 0.10641627E+04</pdfrwt>
<pdfrwt beam="2">  1       -1 0.12735423E+00 0.10641627E+04</pdfrwt>
<totfact> 0.19067236E-01</totfact>
</mgrwt>
</event>
<event>
 4    1  0.2731969E-009  0.1512947E+04  0.7818608E-02  0.8875888E-01
         -1   -1    0    0    0  501 -0.00000000000E+00  0.00000000000E+00  0.18760792151E+04  0.18760792151E+04  0.50400000000E-02 0.  1.
          1   -1    0    0  501    0  0.00000000000E+00 -0.00000000000E+00 -0.15761195630E+04  0.15761195631E+04  0.50400000000E-02 0. -1.
    8880022    1    1    2    0    0  0.49543474541E+03 -0.14213241836E+04  0.97034343480E+03  0.17973803316E+04  0.15294330000E+03 0.  0.
    8880022    1    1    2    0    0 -0.49543474541E+03  0.14213241836E+04 -0.67038378274E+03  0.16548184466E+04  0.15294330000E+03 0.  0.
<mgrwt>
<rscale>  0 0.15129473E+04</rscale>
<asrwt>0</asrwt>
<pdfrwt beam="1">  1        1 0.24247993E+00 0.15129473E+04</pdfrwt>
<pdfrwt beam="2">  1       -1 0.28862757E+00 0.15129473E+04</pdfrwt>
<totfact> 0.21399201E-01</totfact>
</mgrwt>
</event>
<event>
 4    1  0.2731969E-009  0.7311930E+03  0.7818608E-02  0.9665326E-01
         -1   -1    0    0    0  501 -0.00000000000E+00  0.00000000000E+00  0.84914607729E+03  0.84914607730E+03  0.50400000000E-02 0.  1.
          1   -1    0    0  501    0  0.00000000000E+00 -0.00000000000E+00 -0.18776043214E+04  0.18776043214E+04  0.50400000000E-02 0. -1.
    8880022    1    1    2    0    0  0.62651597059E+03  0.34457126405E+03 -0.16257486920E+04  0.17826110288E+04  0.15294330000E+03 0.  0.
    8880022    1    1    2    0    0 -0.62651597059E+03 -0.34457126405E+03  0.59729044797E+03  0.94413936984E+03  0.15294330000E+03 0.  0.
<mgrwt>
<rscale>  0 0.73119305E+03</rscale>
<asrwt>0</asrwt>
<pdfrwt beam="1">  1        1 0.28886220E+00 0.73119305E+03</pdfrwt>
<pdfrwt beam="2">  1       -1 0.13063786E+00 0.73119305E+03</pdfrwt>
<totfact> 0.19098557E+00</totfact>
</mgrwt>
</event>
<event>
 4    1  0.2731969E-009  0.3143256E+03  0.7818608E-02  0.1078291E+00
         -1   -1    0    0    0  501 -0.00000000000E+00  0.00000000000E+00  0.79439312774E+03  0.79439312775E+03  0.50400000000E-02 0.  1.
          1   -1    0    0  501    0  0.00000000000E+00 -0.00000000000E+00 -0.68414217730E+03  0.68414217731E+03  0.50400000000E-02 0. -1.
    8880022    1    1    2    0    0 -0.15979296598E+03 -0.22332737971E+03  0.72382844529E+03  0.78913128295E+03  0.15294330000E+03 0.  0.
    8880022    1    1    2    0    0  0.15979296598E+03  0.22332737971E+03 -0.61357749485E+03  0.68940402211E+03  0.15294330000E+03 0. -1.
<mgrwt>
<rscale>  0 0.31432557E+03</rscale>
<asrwt>0</asrwt>
<pdfrwt beam="1">  1        1 0.10525264E+00 0.31432557E+03</pdfrwt>
<pdfrwt beam="2">  1       -1 0.12221433E+00 0.31432557E+03</pdfrwt>
<totfact> 0.18525418E+01</totfact>
</mgrwt>
</event>
<event>
 4    1  0.2731969E-009  0.1015600E+04  0.7818608E-02  0.9291599E-01
         -1   -1    0    0    0  501 -0.00000000000E+00  0.00000000000E+00  0.12648417317E+04  0.12648417317E+04  0.50400000000E-02 0.  1.
          1   -1    0    0  501    0  0.00000000000E+00 -0.00000000000E+00 -0.23332299024E+04  0.23332299024E+04  0.50400000000E-02 0. -1.
    8880022    1    1    2    0    0 -0.99248617208E+03  0.15173078355E+03  0.91678894012E+03  0.13681902814E+04  0.15294330000E+03 0.  0.
    8880022    1    1    2    0    0  0.99248617208E+03 -0.15173078355E+03 -0.19851771109E+04  0.22298813527E+04  0.15294330000E+03 0.  0.
<mgrwt>
<rscale>  0 0.10155997E+04</rscale>
<asrwt>0</asrwt>
<pdfrwt beam="1">  1        1 0.35895845E+00 0.10155997E+04</pdfrwt>
<pdfrwt beam="2">  1       -1 0.19459104E+00 0.10155997E+04</pdfrwt>
<totfact> 0.29394066E-01</totfact>
</mgrwt>
</event>
<event>
 4    1  0.2731969E-009  0.2164878E+04  0.7818608E-02  0.8533190E-01
          1   -1    0    0  501    0  0.00000000000E+00  0.00000000000E+00  0.23270783510E+04  0.23270783510E+04  0.50400000000E-02 0. -1.
         -1   -1    0    0    0  501 -0.00000000000E+00 -0.00000000000E+00 -0.22655931617E+04  0.22655931617E+04  0.50400000000E-02 0.  1.
    8880022    1    1    2    0    0  0.20092195030E+04 -0.79141890286E+03  0.79600020807E+03  0.23065807758E+04  0.15294330000E+03 0.  0.
    8880022    1    1    2    0    0 -0.20092195030E+04  0.79141890286E+03 -0.73451501883E+03  0.22860907368E+04  0.15294330000E+03 0.  0.
<mgrwt>
<rscale>  0 0.21648784E+04</rscale>
<asrwt>0</asrwt>
<pdfrwt beam="1">  1        1 0.35801205E+00 0.21648784E+04</pdfrwt>
<pdfrwt beam="2">  1       -1 0.34855280E+00 0.21648784E+04</pdfrwt>
<totfact> 0.24692833E-02</totfact>
</mgrwt>
</event>
<event>
 4    1  0.2731969E-009  0.1992875E+03  0.7818608E-02  0.1150342E+00
          1   -1    0    0  501    0  0.00000000000E+00  0.00000000000E+00  0.66399837726E+03  0.66399837728E+03  0.50400000000E-02 0. -1.
         -1   -1    0    0    0  501 -0.00000000000E+00 -0.00000000000E+00 -0.12266180911E+03  0.12266180922E+03  0.50400000000E-02 0.  1.
    8880022    1    1    2    0    0  0.10824435357E+03 -0.67875091586E+02  0.55221607958E+03  0.58707590625E+03  0.15294330000E+03 0.  0.
    8880022    1    1    2    0    0 -0.10824435357E+03  0.67875091586E+02 -0.10879511434E+02  0.19958428025E+03  0.15294330000E+03 0.  1.
<mgrwt>
<rscale>  0 0.19928753E+03</rscale>
<asrwt>0</asrwt>
<pdfrwt beam="1">  1        1 0.10215360E+00 0.19928753E+03</pdfrwt>
<pdfrwt beam="2">  1       -1 0.18871048E-01 0.19928753E+03</pdfrwt>
<totfact> 0.67970679E+02</totfact>
</mgrwt>
</event>
<event>
 4    1  0.4356608E-009  0.1196574E+04  0.7818608E-02  0.9115860E-01
         -1   -1    0    0    0  501 -0.00000000000E+00  0.00000000000E+00  0.25025051380E+04  0.25025051380E+04  0.50400000000E-02 0.  1.
          1   -1    0    0  501    0  0.00000000000E+00 -0.00000000000E+00 -0.40716283963E+04  0.40716283963E+04  0.50400000000E-02 0. -1.
    8880022    1    1    2    0    0  0.64206107771E+03 -0.99807600211E+03 -0.38319413708E+04  0.40144195665E+04  0.15294330000E+03 0.  0.
    8880022    1    1    2    0    0 -0.64206107771E+03  0.99807600211E+03  0.22628181125E+04  0.25597139678E+04  0.15294330000E+03 0.  0.
<mgrwt>
<rscale>  0 0.11965742E+04</rscale>
<asrwt>0</asrwt>
<pdfrwt beam="1">  1        1 0.62640437E+00 0.11965742E+04</pdfrwt>
<pdfrwt beam="2">  1       -1 0.38500079E+00 0.11965742E+04</pdfrwt>
<totfact> 0.76768396E-04</totfact>
</mgrwt>
</event>
<event>
 4    1  0.2731969E-009  0.2222339E+04  0.7818608E-02  0.8509187E-01
         -1   -1    0    0    0  501 -0.00000000000E+00  0.00000000000E+00  0.24855720759E+04  0.24855720759E+04  0.50400000000E-02 0.  1.
          1   -1    0    0  501    0  0.00000000000E+00 -0.00000000000E+00 -0.26915038725E+04  0.26915038725E+04  0.50400000000E-02 0. -1.
    8880022    1    1    2    0    0 -0.12204274719E+04 -0.18509335467E+04  0.12213875856E+04  0.25358583351E+04  0.15294330000E+03 0.  0.
    8880022    1    1    2    0    0  0.12204274719E+04  0.18509335467E+04 -0.14273193823E+04  0.26412176133E+04  0.15294330000E+03 0.  0.
<mgrwt>
<rscale>  0 0.22223388E+04</rscale>
<asrwt>0</asrwt>
<pdfrwt beam="1">  1        1 0.41407752E+00 0.22223388E+04</pdfrwt>
<pdfrwt beam="2">  1       -1 0.38239570E+00 0.22223388E+04</pdfrwt>
<totfact> 0.80769104E-03</totfact>
</mgrwt>
</event>
<event>
 4    1  0.2731969E-009  0.1223322E+04  0.7818608E-02  0.9092685E-01
         -1   -1    0    0    0  501 -0.00000000000E+00  0.00000000000E+00  0.14522900035E+04  0.14522900035E+04  0.50400000000E-02 0.  1.
          1   -1    0    0  501    0  0.00000000000E+00 -0.00000000000E+00 -0.23638267336E+04  0.23638267336E+04  0.50400000000E-02 0. -1.
    8880022    1    1    2    0    0  0.10538251444E+04 -0.60214348955E+03  0.97727675494E+03  0.15657540438E+04  0.15294330000E+03 0.  0.
    8880022    1    1    2    0    0 -0.10538251444E+04  0.60214348955E+03 -0.18888134850E+04  0.22503626932E+04  0.15294330000E+03 0.  0.
<mgrwt>
<rscale>  0 0.12233217E+04</rscale>
<asrwt>0</asrwt>
<pdfrwt beam="1">  1        1 0.36366565E+00 0.12233217E+04</pdfrwt>
<pdfrwt beam="2">  1       -1 0.22342923E+00 0.12233217E+04</pdfrwt>
<totfact> 0.17230301E-01</totfact>
</mgrwt>
</event>
<event>
 4    1  0.2731969E-009  0.8838121E+03  0.7818608E-02  0.9446046E-01
          1   -1    0    0  501    0  0.00000000000E+00  0.00000000000E+00  0.20872710863E+04  0.20872710864E+04  0.50400000000E-02 0. -1.
         -1   -1    0    0    0  501 -0.00000000000E+00 -0.00000000000E+00 -0.92950914764E+03  0.92950914766E+03  0.50400000000E-02 0.  1.
    8880022    1    1    2    0    0 -0.76919223174E+03 -0.40752357250E+03  0.17447283795E+04  0.19558120878E+04  0.15294330000E+03 0.  0.
    8880022    1    1    2    0    0  0.76919223174E+03  0.40752357250E+03 -0.58696644084E+03  0.10609681462E+04  0.15294330000E+03 0.  0.
<mgrwt>
<rscale>  0 0.88381209E+03</rscale>
<asrwt>0</asrwt>
<pdfrwt beam="1">  1        1 0.32111863E+00 0.88381209E+03</pdfrwt>
<pdfrwt beam="2">  1       -1 0.14300141E+00 0.88381209E+03</pdfrwt>
<totfact> 0.10635743E+00</totfact>
</mgrwt>
</event>
<event>
 4    1  0.2731969E-009  0.1068026E+04  0.7818608E-02  0.9236929E-01
         -1   -1    0    0    0  501 -0.00000000000E+00  0.00000000000E+00  0.92813947972E+03  0.92813947974E+03  0.50400000000E-02 0.  1.
          1   -1    0    0  501    0  0.00000000000E+00 -0.00000000000E+00 -0.20015725436E+04  0.20015725436E+04  0.50400000000E-02 0. -1.
    8880022    1    1    2    0    0  0.41374738874E+03  0.97267677418E+03  0.37336509387E+03  0.11314062732E+04  0.15294330000E+03 0.  0.
    8880022    1    1    2    0    0 -0.41374738874E+03 -0.97267677418E+03 -0.14467981578E+04  0.17983057502E+04  0.15294330000E+03 0.  0.
<mgrwt>
<rscale>  0 0.10680256E+04</rscale>
<asrwt>0</asrwt>
<pdfrwt beam="1">  1        1 0.30793424E+00 0.10680256E+04</pdfrwt>
<pdfrwt beam="2">  1       -1 0.14279069E+00 0.10680256E+04</pdfrwt>
<totfact> 0.11839404E+00</totfact>
</mgrwt>
</event>
<event>
 4    1  0.2731969E-009  0.6755637E+03  0.7818608E-02  0.9759959E-01
         -1   -1    0    0    0  501 -0.00000000000E+00  0.00000000000E+00  0.14312494840E+04  0.14312494840E+04  0.50400000000E-02 0.  1.
          1   -1    0    0  501    0  0.00000000000E+00 -0.00000000000E+00 -0.92104483435E+03  0.92104483436E+03  0.50400000000E-02 0. -1.
    8880022    1    1    2    0    0 -0.39532076159E+03 -0.52603819956E+03  0.12061047322E+04  0.13824163519E+04  0.15294330000E+03 0.  0.
    8880022    1    1    2    0    0  0.39532076159E+03  0.52603819956E+03 -0.69590008255E+03  0.96987796647E+03  0.15294330000E+03 0. -1.
<mgrwt>
<rscale>  0 0.67556372E+03</rscale>
<asrwt>0</asrwt>
<pdfrwt beam="1">  1        1 0.14169921E+00 0.67556372E+03</pdfrwt>
<pdfrwt beam="2">  1       -1 0.22019223E+00 0.67556372E+03</pdfrwt>
<totfact> 0.20327130E+00</totfact>
</mgrwt>
</event>
<event>
 4    1  0.2731969E-009  0.5482898E+03  0.7818608E-02  0.1001891E+00
          1   -1    0    0  501    0  0.00000000000E+00  0.00000000000E+00  0.18536375948E+04  0.18536375948E+04  0.50400000000E-02 0. -1.
         -1   -1    0    0    0  501 -0.00000000000E+00 -0.00000000000E+00 -0.31949253931E+03  0.31949253935E+03  0.50400000000E-02 0.  1.
    8880022    1    1    2    0    0  0.52443172112E+03 -0.46919300036E+02  0.46284894420E+01  0.54830933492E+03  0.15294330000E+03 0.  0.
    8880022    1    1    2    0    0 -0.52443172112E+03  0.46919300036E+02  0.15295165660E+04  0.16248207992E+04  0.15294330000E+03 0.  0.
<mgrwt>
<rscale>  0 0.54828980E+03</rscale>
<asrwt>0</asrwt>
<pdfrwt beam="1">  1        1 0.28517502E+00 0.54828980E+03</pdfrwt>
<pdfrwt beam="2">  1       -1 0.49152698E-01 0.54828980E+03</pdfrwt>
<totfact> 0.16721666E+01</totfact>
</mgrwt>
</event>
<event>
 4    1  0.2731969E-009  0.9327482E+03  0.7818608E-02  0.9385546E-01
         -1   -1    0    0    0  501 -0.00000000000E+00  0.00000000000E+00  0.14321364532E+04  0.14321364532E+04  0.50400000000E-02 0.  1.
          1   -1    0    0  501    0  0.00000000000E+00 -0.00000000000E+00 -0.12221071149E+04  0.12221071150E+04  0.50400000000E-02 0. -1.
    8880022    1    1    2    0    0  0.40883324091E+03 -0.82430749767E+03 -0.83612886789E+03  0.12526494347E+04  0.15294330000E+03 0.  0.
    8880022    1    1    2    0    0 -0.40883324091E+03  0.82430749767E+03  0.10461582062E+04  0.14015941335E+04  0.15294330000E+03 0.  0.
<mgrwt>
<rscale>  0 0.93274816E+03</rscale>
<asrwt>0</asrwt>
<pdfrwt beam="1">  1        1 0.18801648E+00 0.93274816E+03</pdfrwt>
<pdfrwt beam="2">  1       -1 0.22032868E+00 0.93274816E+03</pdfrwt>
<totfact> 0.11463531E+00</totfact>
</mgrwt>
</event>
<event>
 4    1  0.2731969E-009  0.4355925E+03  0.7818608E-02  0.1032108E+00
         -1   -1    0    0    0  501 -0.00000000000E+00  0.00000000000E+00  0.67566859406E+03  0.67566859408E+03  0.50400000000E-02 0.  1.
          1   -1    0    0  501    0  0.00000000000E+00 -0.00000000000E+00 -0.47200065802E+03  0.47200065804E+03  0.50400000000E-02 0. -1.
    8880022    1    1    2    0    0  0.15808104388E+02  0.40755278884E+03 -0.26337223639E+03  0.50902432140E+03  0.15294330000E+03 0.  0.
    8880022    1    1    2    0    0 -0.15808104388E+02 -0.40755278884E+03  0.46704017244E+03  0.63864493073E+03  0.15294330000E+03 0.  0.
<mgrwt>
<rscale>  0 0.43559250E+03</rscale>
<asrwt>0</asrwt>
<pdfrwt beam="1">  1        1 0.72615486E-01 0.43559250E+03</pdfrwt>
<pdfrwt beam="2">  1       -1 0.10394901E+00 0.43559250E+03</pdfrwt>
<totfact> 0.44281174E+01</totfact>
</mgrwt>
</event>
<event>
 4    1  0.2731969E-009  0.5837261E+03  0.7818608E-02  0.9939756E-01
         -1   -1    0    0    0  501 -0.00000000000E+00  0.00000000000E+00  0.12764055429E+04  0.12764055429E+04  0.50400000000E-02 0.  1.
          1   -1    0    0  501    0  0.00000000000E+00 -0.00000000000E+00 -0.59983385074E+03  0.59983385076E+03  0.50400000000E-02 0. -1.
    8880022    1    1    2    0    0  0.24473008402E+02 -0.56280157809E+03  0.10371443697E+04  0.11901279936E+04  0.15294330000E+03 0.  0.
    8880022    1    1    2    0    0 -0.24473008402E+02  0.56280157809E+03 -0.36057267759E+03  0.68611140005E+03  0.15294330000E+03 0.  0.
<mgrwt>
<rscale>  0 0.58372613E+03</rscale>
<asrwt>0</asrwt>
<pdfrwt beam="1">  1        1 0.92282131E-01 0.58372613E+03</pdfrwt>
<pdfrwt beam="2">  1       -1 0.19637008E+00 0.58372613E+03</pdfrwt>
<totfact> 0.58104838E+00</totfact>
</mgrwt>
</event>
<event>
 4    1  0.2731969E-009  0.7386073E+03  0.7818608E-02  0.9653395E-01
          1   -1    0    0  501    0  0.00000000000E+00  0.00000000000E+00  0.21366768364E+04  0.21366768364E+04  0.50400000000E-02 0. -1.
         -1   -1    0    0    0  501 -0.00000000000E+00 -0.00000000000E+00 -0.44500011323E+03  0.44500011326E+03  0.50400000000E-02 0.  1.
    8880022    1    1    2    0    0  0.18167312536E+03 -0.69938830645E+03  0.30852664531E+01  0.73861376887E+03  0.15294330000E+03 0.  0.
    8880022    1    1    2    0    0 -0.18167312536E+03  0.69938830645E+03  0.16885914567E+04  0.18430631808E+04  0.15294330000E+03 0.  0.
<mgrwt>
<rscale>  0 0.73860733E+03</rscale>
<asrwt>0</asrwt>
<pdfrwt beam="1">  1        1 0.32871951E+00 0.73860733E+03</pdfrwt>
<pdfrwt beam="2">  1       -1 0.68461556E-01 0.73860733E+03</pdfrwt>
<totfact> 0.54757800E+00</totfact>
</mgrwt>
</event>
<event>
 4    1  0.2731969E-009  0.7418306E+03  0.7818608E-02  0.9648255E-01
          1   -1    0    0  501    0  0.00000000000E+00  0.00000000000E+00  0.14822432216E+04  0.14822432216E+04  0.50400000000E-02 0. -1.
         -1   -1    0    0    0  501 -0.00000000000E+00 -0.00000000000E+00 -0.13986905194E+04  0.13986905194E+04  0.50400000000E-02 0.  1.
    8880022    1    1    2    0    0  0.54105950546E+03  0.48391694352E+03  0.12763487024E+04  0.14762718786E+04  0.15294330000E+03 0.  0.
    8880022    1    1    2    0    0 -0.54105950546E+03 -0.48391694352E+03 -0.11927960001E+04  0.14046618623E+04  0.15294330000E+03 0.  0.
<mgrwt>
<rscale>  0 0.74183061E+03</rscale>
<asrwt>0</asrwt>
<pdfrwt beam="1">  1        1 0.22803742E+00 0.74183061E+03</pdfrwt>
<pdfrwt beam="2">  1       -1 0.21518316E+00 0.74183061E+03</pdfrwt>
<totfact> 0.84319624E-01</totfact>
</mgrwt>
</event>
<event>
 4    1  0.2731969E-009  0.6540149E+03  0.7818608E-02  0.9799275E-01
         -1   -1    0    0    0  501 -0.00000000000E+00  0.00000000000E+00  0.53488439300E+03  0.53488439303E+03  0.50400000000E-02 0.  1.
          1   -1    0    0  501    0  0.00000000000E+00 -0.00000000000E+00 -0.16367830324E+04  0.16367830324E+04  0.50400000000E-02 0. -1.
    8880022    1    1    2    0    0  0.31063611963E+03  0.55484143982E+03 -0.13274782614E+04  0.14798425625E+04  0.15294330000E+03 0.  0.
    8880022    1    1    2    0    0 -0.31063611963E+03 -0.55484143982E+03  0.22557962200E+03  0.69182486298E+03  0.15294330000E+03 0.  0.
<mgrwt>
<rscale>  0 0.65401489E+03</rscale>
<asrwt>0</asrwt>
<pdfrwt beam="1">  1        1 0.25181277E+00 0.65401489E+03</pdfrwt>
<pdfrwt beam="2">  1       -1 0.82289907E-01 0.65401489E+03</pdfrwt>
<totfact> 0.81839687E+00</totfact>
</mgrwt>
</event>
<event>
 4    1  0.2731969E-009  0.1207246E+04  0.7818608E-02  0.9106538E-01
          1   -1    0    0  501    0  0.00000000000E+00  0.00000000000E+00  0.16338302489E+04  0.16338302489E+04  0.50400000000E-02 0. -1.
         -1   -1    0    0    0  501 -0.00000000000E+00 -0.00000000000E+00 -0.10452877440E+04  0.10452877440E+04  0.50400000000E-02 0.  1.
    8880022    1    1    2    0    0  0.63623699258E+03  0.10145210811E+04 -0.21863824661E+03  0.12268842124E+04  0.15294330000E+03 0.  0.
    8880022    1    1    2    0    0 -0.63623699258E+03 -0.10145210811E+04  0.80718075157E+03  0.14522337806E+04  0.15294330000E+03 0.  0.
<mgrwt>
<rscale>  0 0.12072457E+04</rscale>
<asrwt>0</asrwt>
<pdfrwt beam="1">  1        1 0.25135850E+00 0.12072457E+04</pdfrwt>
<pdfrwt beam="2">  1       -1 0.16081350E+00 0.12072457E+04</pdfrwt>
<totfact> 0.14935447E+00</totfact>
</mgrwt>
</event>
<event>
 4    1  0.2731969E-009  0.9075942E+03  0.7818608E-02  0.9416138E-01
          1   -1    0    0  501    0  0.00000000000E+00  0.00000000000E+00  0.95251078703E+03  0.95251078704E+03  0.50400000000E-02 0. -1.
         -1   -1    0    0    0  501 -0.00000000000E+00 -0.00000000000E+00 -0.10831258148E+04  0.10831258148E+04  0.50400000000E-02 0.  1.
    8880022    1    1    2    0    0  0.61784418012E+03  0.64699619457E+03 -0.52227752481E+03  0.10471394237E+04  0.15294330000E+03 0.  0.
    8880022    1    1    2    0    0 -0.61784418012E+03 -0.64699619457E+03  0.39166249702E+03  0.98849717819E+03  0.15294330000E+03 0.  0.
<mgrwt>
<rscale>  0 0.90759416E+03</rscale>
<asrwt>0</asrwt>
<pdfrwt beam="1">  1        1 0.14654012E+00 0.90759416E+03</pdfrwt>
<pdfrwt beam="2">  1       -1 0.16663474E+00 0.90759416E+03</pdfrwt>
<totfact> 0.43600967E+00</totfact>
</mgrwt>
</event>
<event>
 4    1  0.2731969E-009  0.8778111E+03  0.7818608E-02  0.9453752E-01
         -1   -1    0    0    0  501 -0.00000000000E+00  0.00000000000E+00  0.51543434234E+03  0.51543434236E+03  0.50400000000E-02 0.  1.
          1   -1    0    0  501    0  0.00000000000E+00 -0.00000000000E+00 -0.17166383870E+04  0.17166383870E+04  0.50400000000E-02 0. -1.
    8880022    1    1    2    0    0  0.73901252145E+03  0.44835374982E+03 -0.10016565504E+04  0.13318663934E+04  0.15294330000E+03 0.  0.
    8880022    1    1    2    0    0 -0.73901252145E+03 -0.44835374982E+03 -0.19954749422E+03  0.90020633596E+03  0.15294330000E+03 0.  0.
<mgrwt>
<rscale>  0 0.87781105E+03</rscale>
<asrwt>0</asrwt>
<pdfrwt beam="1">  1        1 0.26409821E+00 0.87781105E+03</pdfrwt>
<pdfrwt beam="2">  1       -1 0.79297592E-01 0.87781105E+03</pdfrwt>
<totfact> 0.75538906E+00</totfact>
</mgrwt>
</event>
<event>
 4    1  0.2731969E-009  0.1352535E+04  0.7818608E-02  0.8988911E-01
          1   -1    0    0  501    0  0.00000000000E+00  0.00000000000E+00  0.28934676840E+04  0.28934676840E+04  0.50400000000E-02 0. -1.
         -1   -1    0    0    0  501 -0.00000000000E+00 -0.00000000000E+00 -0.13212322990E+04  0.13212322990E+04  0.50400000000E-02 0.  1.
    8880022    1    1    2    0    0  0.13312293441E+04 -0.18381537773E+03 -0.73567629328E+03  0.15396658473E+04  0.15294330000E+03 0.  0.
    8880022    1    1    2    0    0 -0.13312293441E+04  0.18381537773E+03  0.23079116783E+04  0.26750341358E+04  0.15294330000E+03 0.  0.
<mgrwt>
<rscale>  0 0.13525351E+04</rscale>
<asrwt>0</asrwt>
<pdfrwt beam="1">  1        1 0.44514886E+00 0.13525351E+04</pdfrwt>
<pdfrwt beam="2">  1       -1 0.20326651E+00 0.13525351E+04</pdfrwt>
<totfact> 0.98658787E-02</totfact>
</mgrwt>
</event>
<event>
 4    1  0.2731969E-009  0.8675841E+03  0.7818608E-02  0.9467035E-01
          1   -1    0    0  501    0  0.00000000000E+00  0.00000000000E+00  0.22817802591E+04  0.22817802591E+04  0.50400000000E-02 0. -1.
         -1   -1    0    0    0  501 -0.00000000000E+00 -0.00000000000E+00 -0.60407511711E+03  0.60407511713E+03  0.50400000000E-02 0.  1.
    8880022    1    1    2    0    0  0.14731187787E+03  0.84119546690E+03 -0.13329660893E+03  0.87776434302E+03  0.15294330000E+03 0.  0.
    8880022    1    1    2    0    0 -0.14731187787E+03 -0.84119546690E+03  0.18110017509E+04  0.20080910332E+04  0.15294330000E+03 0.  0.
<mgrwt>
<rscale>  0 0.86758415E+03</rscale>
<asrwt>0</asrwt>
<pdfrwt beam="1">  1        1 0.35104312E+00 0.86758415E+03</pdfrwt>
<pdfrwt beam="2">  1       -1 0.92934633E-01 0.86758415E+03</pdfrwt>
<totfact> 0.22330521E+00</totfact>
</mgrwt>
</event>
<event>
 4    1  0.2731969E-009  0.7338120E+03  0.7818608E-02  0.9661095E-01
         -1   -1    0    0    0  501 -0.00000000000E+00  0.00000000000E+00  0.41642090124E+03  0.41642090127E+03  0.50400000000E-02 0.  1.
          1   -1    0    0  501    0  0.00000000000E+00 -0.00000000000E+00 -0.15124965746E+04  0.15124965746E+04  0.50400000000E-02 0. -1.
    8880022    1    1    2    0    0 -0.53259197780E+03  0.48107605011E+03 -0.91535118982E+03  0.11731785178E+04  0.15294330000E+03 0.  0.
    8880022    1    1    2    0    0  0.53259197780E+03 -0.48107605011E+03 -0.18072448350E+03  0.75573895808E+03  0.15294330000E+03 0.  0.
<mgrwt>
<rscale>  0 0.73381199E+03</rscale>
<asrwt>0</asrwt>
<pdfrwt beam="1">  1        1 0.23269178E+00 0.73381199E+03</pdfrwt>
<pdfrwt beam="2">  1       -1 0.64064755E-01 0.73381199E+03</pdfrwt>
<totfact> 0.16449920E+01</totfact>
</mgrwt>
</event>
<event>
 4    1  0.2731969E-009  0.6764363E+03  0.7818608E-02  0.9758400E-01
          1   -1    0    0  501    0  0.00000000000E+00  0.00000000000E+00  0.13091110822E+04  0.13091110823E+04  0.50400000000E-02 0. -1.
         -1   -1    0    0    0  501 -0.00000000000E+00 -0.00000000000E+00 -0.67945620626E+03  0.67945620628E+03  0.50400000000E-02 0.  1.
    8880022    1    1    2    0    0  0.63344297288E+03  0.18145098681E+03 -0.37802656305E+03  0.77490011995E+03  0.15294330000E+03 0.  0.
    8880022    1    1    2    0    0 -0.63344297288E+03 -0.18145098681E+03  0.10076814390E+04  0.12136671686E+04  0.15294330000E+03 0.  0.
<mgrwt>
<rscale>  0 0.67643633E+03</rscale>
<asrwt>0</asrwt>
<pdfrwt beam="1">  1        1 0.20140170E+00 0.67643633E+03</pdfrwt>
<pdfrwt beam="2">  1       -1 0.10453173E+00 0.67643633E+03</pdfrwt>
<totfact> 0.80440291E+00</totfact>
</mgrwt>
</event>
<event>
 4    1  0.2731969E-009  0.3223686E+03  0.7818608E-02  0.1074564E+00
         -1   -1    0    0    0  501 -0.00000000000E+00  0.00000000000E+00  0.13947789106E+03  0.13947789116E+03  0.50400000000E-02 0.  1.
          1   -1    0    0  501    0  0.00000000000E+00 -0.00000000000E+00 -0.38775499685E+04  0.38775499685E+04  0.50400000000E-02 0. -1.
    8880022    1    1    2    0    0  0.24694574936E+03 -0.13981285299E+03 -0.36742968353E+04  0.36884114092E+04  0.15294330000E+03 0.  0.
    8880022    1    1    2    0    0 -0.24694574936E+03  0.13981285299E+03 -0.63775242200E+02  0.32861645047E+03  0.15294330000E+03 0.  0.
<mgrwt>
<rscale>  0 0.32236856E+03</rscale>
<asrwt>0</asrwt>
<pdfrwt beam="1">  1        1 0.59654607E+00 0.32236856E+03</pdfrwt>
<pdfrwt beam="2">  1       -1 0.21458140E-01 0.32236856E+03</pdfrwt>
<totfact> 0.27889262E+00</totfact>
</mgrwt>
</event>
<event>
 4    1  0.2731969E-009  0.5050397E+03  0.7818608E-02  0.1012472E+00
          1   -1    0    0  501    0  0.00000000000E+00  0.00000000000E+00  0.14847316311E+04  0.14847316311E+04  0.50400000000E-02 0. -1.
         -1   -1    0    0    0  501 -0.00000000000E+00 -0.00000000000E+00 -0.20843582079E+03  0.20843582086E+03  0.50400000000E-02 0.  1.
    8880022    1    1    2    0    0  0.51977914640E+02  0.47850989837E+03  0.99311153834E+03  0.11141524164E+04  0.15294330000E+03 0.  0.
    8880022    1    1    2    0    0 -0.51977914640E+02 -0.47850989837E+03  0.28318427194E+03  0.57901503550E+03  0.15294330000E+03 0.  0.
<mgrwt>
<rscale>  0 0.50503968E+03</rscale>
<asrwt>0</asrwt>
<pdfrwt beam="1">  1        1 0.22842024E+00 0.50503968E+03</pdfrwt>
<pdfrwt beam="2">  1       -1 0.32067051E-01 0.50503968E+03</pdfrwt>
<totfact> 0.64333785E+01</totfact>
</mgrwt>
</event>
<event>
 4    1  0.2731969E-009  0.1046639E+04  0.7818608E-02  0.9258821E-01
          1   -1    0    0  501    0  0.00000000000E+00  0.00000000000E+00  0.17647068705E+04  0.17647068705E+04  0.50400000000E-02 0. -1.
         -1   -1    0    0    0  501 -0.00000000000E+00 -0.00000000000E+00 -0.15636498847E+04  0.15636498847E+04  0.50400000000E-02 0.  1.
    8880022    1    1    2    0    0  0.27260955852E+03  0.99887246842E+03  0.13928225173E+04  0.17422423474E+04  0.15294330000E+03 0.  0.
    8880022    1    1    2    0    0 -0.27260955852E+03 -0.99887246842E+03 -0.11917655314E+04  0.15861144078E+04  0.15294330000E+03 0.  0.
<mgrwt>
<rscale>  0 0.10466393E+04</rscale>
<asrwt>0</asrwt>
<pdfrwt beam="1">  1        1 0.27149336E+00 0.10466393E+04</pdfrwt>
<pdfrwt beam="2">  1       -1 0.24056152E+00 0.10466393E+04</pdfrwt>
<totfact> 0.34778615E-01</totfact>
</mgrwt>
</event>
<event>
 4    1  0.2731969E-009  0.5909603E+03  0.7818608E-02  0.9924340E-01
         -1   -1    0    0    0  501 -0.00000000000E+00  0.00000000000E+00  0.18452492761E+03  0.18452492768E+03  0.50400000000E-02 0.  1.
          1   -1    0    0  501    0  0.00000000000E+00 -0.00000000000E+00 -0.20239798518E+04  0.20239798518E+04  0.50400000000E-02 0. -1.
    8880022    1    1    2    0    0 -0.56335933009E+03 -0.92025756950E+02 -0.63840171071E+03  0.86993728049E+03  0.15294330000E+03 0.  0.
    8880022    1    1    2    0    0  0.56335933009E+03  0.92025756950E+02 -0.12010532134E+04  0.13385674990E+04  0.15294330000E+03 0.  0.
<mgrwt>
<rscale>  0 0.59096034E+03</rscale>
<asrwt>0</asrwt>
<pdfrwt beam="1">  1        1 0.31138150E+00 0.59096034E+03</pdfrwt>
<pdfrwt beam="2">  1       -1 0.28388452E-01 0.59096034E+03</pdfrwt>
<totfact> 0.34226307E+01</totfact>
</mgrwt>
</event>
<event>
 4    1  0.2731969E-009  0.1418815E+04  0.7818608E-02  0.8940311E-01
          1   -1    0    0  501    0  0.00000000000E+00  0.00000000000E+00  0.20733389368E+04  0.20733389368E+04  0.50400000000E-02 0. -1.
         -1   -1    0    0    0  501 -0.00000000000E+00 -0.00000000000E+00 -0.14943620449E+04  0.14943620449E+04  0.50400000000E-02 0.  1.
    8880022    1    1    2    0    0 -0.10895498433E+04 -0.89583824864E+03 -0.76627531915E+03  0.16125180764E+04  0.15294330000E+03 0.  0.
    8880022    1    1    2    0    0  0.10895498433E+04  0.89583824864E+03  0.13452522111E+04  0.19551829053E+04  0.15294330000E+03 0.  0.
<mgrwt>
<rscale>  0 0.14188152E+04</rscale>
<asrwt>0</asrwt>
<pdfrwt beam="1">  1        1 0.31897522E+00 0.14188152E+04</pdfrwt>
<pdfrwt beam="2">  1       -1 0.22990185E+00 0.14188152E+04</pdfrwt>
<totfact> 0.23946998E-01</totfact>
</mgrwt>
</event>
<event>
 4    1  0.2731969E-009  0.8395328E+03  0.7818608E-02  0.9504494E-01
          1   -1    0    0  501    0  0.00000000000E+00  0.00000000000E+00  0.64474086572E+03  0.64474086574E+03  0.50400000000E-02 0. -1.
         -1   -1    0    0    0  501 -0.00000000000E+00 -0.00000000000E+00 -0.11432943999E+04  0.11432944000E+04  0.50400000000E-02 0.  1.
    8880022    1    1    2    0    0 -0.62760941260E+03  0.53621830134E+03 -0.43645928433E+03  0.94620927990E+03  0.15294330000E+03 0.  0.
    8880022    1    1    2    0    0  0.62760941260E+03 -0.53621830134E+03 -0.62094249899E+02  0.84182598579E+03  0.15294330000E+03 0.  0.
<mgrwt>
<rscale>  0 0.83953278E+03</rscale>
<asrwt>0</asrwt>
<pdfrwt beam="1">  1        1 0.99190903E-01 0.83953278E+03</pdfrwt>
<pdfrwt beam="2">  1       -1 0.17589145E+00 0.83953278E+03</pdfrwt>
<totfact> 0.70145866E+00</totfact>
</mgrwt>
</event>
<event>
 4    1  0.2731969E-009  0.8658941E+03  0.7818608E-02  0.9469249E-01
          1   -1    0    0  501    0  0.00000000000E+00  0.00000000000E+00  0.13792849626E+04  0.13792849626E+04  0.50400000000E-02 0. -1.
         -1   -1    0    0    0  501 -0.00000000000E+00 -0.00000000000E+00 -0.62378367276E+03  0.62378367278E+03  0.50400000000E-02 0.  1.
    8880022    1    1    2    0    0  0.70272083836E+03  0.48224925456E+03  0.18659228325E+02  0.86609511026E+03  0.15294330000E+03 0.  0.
    8880022    1    1    2    0    0 -0.70272083836E+03 -0.48224925456E+03  0.73684206147E+03  0.11369735251E+04  0.15294330000E+03 0.  0.
<mgrwt>
<rscale>  0 0.86589409E+03</rscale>
<asrwt>0</asrwt>
<pdfrwt beam="1">  1        1 0.21219769E+00 0.86589409E+03</pdfrwt>
<pdfrwt beam="2">  1       -1 0.95966719E-01 0.86589409E+03</pdfrwt>
<totfact> 0.84895371E+00</totfact>
</mgrwt>
</event>
<event>
 4    1  0.2731969E-009  0.6789144E+03  0.7818608E-02  0.9753987E-01
          1   -1    0    0  501    0  0.00000000000E+00  0.00000000000E+00  0.94303016211E+03  0.94303016213E+03  0.50400000000E-02 0. -1.
         -1   -1    0    0    0  501 -0.00000000000E+00 -0.00000000000E+00 -0.85956982196E+03  0.85956982197E+03  0.50400000000E-02 0.  1.
    8880022    1    1    2    0    0 -0.59171617345E+03  0.29564352923E+03 -0.55023832128E+03  0.87389186374E+03  0.15294330000E+03 0.  0.
    8880022    1    1    2    0    0  0.59171617345E+03 -0.29564352923E+03  0.63369866143E+03  0.92870812036E+03  0.15294330000E+03 0.  0.
<mgrwt>
<rscale>  0 0.67891441E+03</rscale>
<asrwt>0</asrwt>
<pdfrwt beam="1">  1        1 0.14508156E+00 0.67891441E+03</pdfrwt>
<pdfrwt beam="2">  1       -1 0.13224151E+00 0.67891441E+03</pdfrwt>
<totfact> 0.85119867E+00</totfact>
</mgrwt>
</event>
<event>
 4    1  0.2731969E-009  0.7569158E+03  0.7818608E-02  0.9624563E-01
         -1   -1    0    0    0  501 -0.00000000000E+00  0.00000000000E+00  0.13499989919E+04  0.13499989919E+04  0.50400000000E-02 0.  1.
          1   -1    0    0  501    0  0.00000000000E+00 -0.00000000000E+00 -0.30286446190E+04  0.30286446190E+04  0.50400000000E-02 0. -1.
    8880022    1    1    2    0    0  0.21945636709E+03 -0.70807396430E+03 -0.28694696427E+04  0.29676215256E+04  0.15294330000E+03 0.  0.
    8880022    1    1    2    0    0 -0.21945636709E+03  0.70807396430E+03  0.11908240156E+04  0.14110220853E+04  0.15294330000E+03 0.  0.
<mgrwt>
<rscale>  0 0.75691577E+03</rscale>
<asrwt>0</asrwt>
<pdfrwt beam="1">  1        1 0.46594532E+00 0.75691577E+03</pdfrwt>
<pdfrwt beam="2">  1       -1 0.20769215E+00 0.75691577E+03</pdfrwt>
<totfact> 0.83051216E-02</totfact>
</mgrwt>
</event>
<event>
 4    1  0.2731969E-009  0.1294265E+04  0.7818608E-02  0.9034125E-01
          1   -1    0    0  501    0  0.00000000000E+00  0.00000000000E+00  0.24659352044E+04  0.24659352044E+04  0.50400000000E-02 0. -1.
         -1   -1    0    0    0  501 -0.00000000000E+00 -0.00000000000E+00 -0.11541714151E+04  0.11541714151E+04  0.50400000000E-02 0.  1.
    8880022    1    1    2    0    0  0.64627259654E+03  0.11108834781E+04 -0.50514412596E+03  0.13893497083E+04  0.15294330000E+03 0.  0.
    8880022    1    1    2    0    0 -0.64627259654E+03 -0.11108834781E+04  0.18169079153E+04  0.22307569111E+04  0.15294330000E+03 0.  0.
<mgrwt>
<rscale>  0 0.12942651E+04</rscale>
<asrwt>0</asrwt>
<pdfrwt beam="1">  1        1 0.37937464E+00 0.12942651E+04</pdfrwt>
<pdfrwt beam="2">  1       -1 0.17756484E+00 0.12942651E+04</pdfrwt>
<totfact> 0.30138709E-01</totfact>
</mgrwt>
</event>
<event>
 4    1  0.2731969E-009  0.1055565E+04  0.7818608E-02  0.9249618E-01
         -1   -1    0    0    0  501 -0.00000000000E+00  0.00000000000E+00  0.12898627930E+04  0.12898627930E+04  0.50400000000E-02 0.  1.
          1   -1    0    0  501    0  0.00000000000E+00 -0.00000000000E+00 -0.94388165514E+03  0.94388165515E+03  0.50400000000E-02 0. -1.
    8880022    1    1    2    0    0 -0.73541455957E+03 -0.74161365122E+03  0.49825808092E+03  0.11672523936E+04  0.15294330000E+03 0.  0.
    8880022    1    1    2    0    0  0.73541455957E+03  0.74161365122E+03 -0.15227694305E+03  0.10664920546E+04  0.15294330000E+03 0.  0.
<mgrwt>
<rscale>  0 0.10555648E+04</rscale>
<asrwt>0</asrwt>
<pdfrwt beam="1">  1        1 0.14521256E+00 0.10555648E+04</pdfrwt>
<pdfrwt beam="2">  1       -1 0.19844043E+00 0.10555648E+04</pdfrwt>
<totfact> 0.25792197E+00</totfact>
</mgrwt>
</event>
<event>
 4    1  0.2731969E-009  0.3766785E+03  0.7818608E-02  0.1052168E+00
          1   -1    0    0  501    0  0.00000000000E+00  0.00000000000E+00  0.81332122987E+03  0.81332122989E+03  0.50400000000E-02 0. -1.
         -1   -1    0    0    0  501 -0.00000000000E+00 -0.00000000000E+00 -0.23265331017E+03  0.23265331023E+03  0.50400000000E-02 0.  1.
    8880022    1    1    2    0    0 -0.82612902233E+02 -0.33417081334E+03  0.28758166960E+02  0.37777468058E+03  0.15294330000E+03 0.  0.
    8880022    1    1    2    0    0  0.82612902233E+02  0.33417081334E+03  0.55190975274E+03  0.66819985954E+03  0.15294330000E+03 0.  0.
<mgrwt>
<rscale>  0 0.37667848E+03</rscale>
<asrwt>0</asrwt>
<pdfrwt beam="1">  1        1 0.12512634E+00 0.37667848E+03</pdfrwt>
<pdfrwt beam="2">  1       -1 0.35792817E-01 0.37667848E+03</pdfrwt>
<totfact> 0.16817520E+02</totfact>
</mgrwt>
</event>
<event>
 4    1  0.2731969E-009  0.7782708E+03  0.7818608E-02  0.9592013E-01
         -1   -1    0    0    0  501 -0.00000000000E+00  0.00000000000E+00  0.59925878570E+03  0.59925878572E+03  0.50400000000E-02 0.  1.
          1   -1    0    0  501    0  0.00000000000E+00 -0.00000000000E+00 -0.22728784208E+04  0.22728784208E+04  0.50400000000E-02 0. -1.
    8880022    1    1    2    0    0  0.48624298823E+03  0.58811696222E+03 -0.19069422481E+04  0.20596441914E+04  0.15294330000E+03 0.  0.
    8880022    1    1    2    0    0 -0.48624298823E+03 -0.58811696222E+03  0.23332261295E+03  0.81249301510E+03  0.15294330000E+03 0.  0.
<mgrwt>
<rscale>  0 0.77827081E+03</rscale>
<asrwt>0</asrwt>
<pdfrwt beam="1">  1        1 0.34967360E+00 0.77827081E+03</pdfrwt>
<pdfrwt beam="2">  1       -1 0.92193661E-01 0.77827081E+03</pdfrwt>
<totfact> 0.23422091E+00</totfact>
</mgrwt>
</event>
<event>
 4    1  0.2731969E-009  0.4275913E+03  0.7818608E-02  0.1034624E+00
          1   -1    0    0  501    0  0.00000000000E+00  0.00000000000E+00  0.14417510916E+04  0.14417510916E+04  0.50400000000E-02 0. -1.
         -1   -1    0    0    0  501 -0.00000000000E+00 -0.00000000000E+00 -0.20934178086E+03  0.20934178092E+03  0.50400000000E-02 0.  1.
    8880022    1    1    2    0    0  0.39777636650E+03 -0.34880152601E+02  0.11345431510E+04  0.12124448348E+04  0.15294330000E+03 0. -1.
    8880022    1    1    2    0    0 -0.39777636650E+03  0.34880152601E+02  0.97866159700E+02  0.43864803775E+03  0.15294330000E+03 0.  0.
<mgrwt>
<rscale>  0 0.42759130E+03</rscale>
<asrwt>0</asrwt>
<pdfrwt beam="1">  1        1 0.22180786E+00 0.42759130E+03</pdfrwt>
<pdfrwt beam="2">  1       -1 0.32206429E-01 0.42759130E+03</pdfrwt>
<totfact> 0.69166658E+01</totfact>
</mgrwt>
</event>
<event>
 4    1  0.2731969E-009  0.7264009E+03  0.7818608E-02  0.9673119E-01
          1   -1    0    0  501    0  0.00000000000E+00  0.00000000000E+00  0.71631845069E+03  0.71631845071E+03  0.50400000000E-02 0. -1.
         -1   -1    0    0    0  501 -0.00000000000E+00 -0.00000000000E+00 -0.15756762166E+04  0.15756762166E+04  0.50400000000E-02 0.  1.
    8880022    1    1    2    0    0 -0.24169250973E+03 -0.66772096480E+03 -0.12659446246E+04  0.14595458203E+04  0.15294330000E+03 0.  0.
    8880022    1    1    2    0    0  0.24169250973E+03  0.66772096480E+03  0.40658685872E+03  0.83244884695E+03  0.15294330000E+03 0.  0.
<mgrwt>
<rscale>  0 0.72640086E+03</rscale>
<asrwt>0</asrwt>
<pdfrwt beam="1">  1        1 0.11020284E+00 0.72640086E+03</pdfrwt>
<pdfrwt beam="2">  1       -1 0.24241172E+00 0.72640086E+03</pdfrwt>
<totfact> 0.21571415E+00</totfact>
</mgrwt>
</event>
<event>
 4    1  0.2731969E-009  0.5095020E+03  0.7818608E-02  0.1011328E+00
         -1   -1    0    0    0  501 -0.00000000000E+00  0.00000000000E+00  0.11002685225E+04  0.11002685225E+04  0.50400000000E-02 0.  1.
          1   -1    0    0  501    0  0.00000000000E+00 -0.00000000000E+00 -0.48549312982E+03  0.48549312985E+03  0.50400000000E-02 0. -1.
    8880022    1    1    2    0    0 -0.32091526059E+03 -0.36498500535E+03 -0.26107486892E+03  0.57249663651E+03  0.15294330000E+03 0.  0.
    8880022    1    1    2    0    0  0.32091526059E+03  0.36498500535E+03  0.87585026162E+03  0.10132650159E+04  0.15294330000E+03 0.  0.
<mgrwt>
<rscale>  0 0.50950202E+03</rscale>
<asrwt>0</asrwt>
<pdfrwt beam="1">  1        1 0.74691251E-01 0.50950202E+03</pdfrwt>
<pdfrwt beam="2">  1       -1 0.16927208E+00 0.50950202E+03</pdfrwt>
<totfact> 0.12259669E+01</totfact>
</mgrwt>
</event>
<event>
 4    1  0.2731969E-009  0.7925208E+03  0.7818608E-02  0.9570906E-01
          1   -1    0    0  501    0  0.00000000000E+00  0.00000000000E+00  0.41461328676E+03  0.41461328679E+03  0.50400000000E-02 0. -1.
         -1   -1    0    0    0  501 -0.00000000000E+00 -0.00000000000E+00 -0.23169312958E+04  0.23169312958E+04  0.50400000000E-02 0.  1.
    8880022    1    1    2    0    0 -0.11333032326E+03 -0.76932034660E+03 -0.17547274967E+04  0.19253980883E+04  0.15294330000E+03 0.  0.
    8880022    1    1    2    0    0  0.11333032326E+03  0.76932034660E+03 -0.14759051233E+03  0.80614649426E+03  0.15294330000E+03 0.  0.
<mgrwt>
<rscale>  0 0.79252080E+03</rscale>
<asrwt>0</asrwt>
<pdfrwt beam="1">  1        1 0.63786661E-01 0.79252080E+03</pdfrwt>
<pdfrwt beam="2">  1       -1 0.35645096E+00 0.79252080E+03</pdfrwt>
<totfact> 0.84992648E-01</totfact>
</mgrwt>
</event>
<event>
 4    1  0.2731969E-009  0.7123172E+03  0.7818608E-02  0.9696397E-01
         -1   -1    0    0    0  501 -0.00000000000E+00  0.00000000000E+00  0.97072599679E+03  0.97072599680E+03  0.50400000000E-02 0.  1.
          1   -1    0    0  501    0  0.00000000000E+00 -0.00000000000E+00 -0.66423707621E+03  0.66423707623E+03  0.50400000000E-02 0. -1.
    8880022    1    1    2    0    0 -0.64161188937E+03  0.26895794910E+03 -0.22411536605E+03  0.74674195361E+03  0.15294330000E+03 0.  0.
    8880022    1    1    2    0    0  0.64161188937E+03 -0.26895794910E+03  0.53060428663E+03  0.88822111942E+03  0.15294330000E+03 0.  0.
<mgrwt>
<rscale>  0 0.71231724E+03</rscale>
<asrwt>0</asrwt>
<pdfrwt beam="1">  1        1 0.10219032E+00 0.71231724E+03</pdfrwt>
<pdfrwt beam="2">  1       -1 0.14934246E+00 0.71231724E+03</pdfrwt>
<totfact> 0.10778545E+01</totfact>
</mgrwt>
</event>
<event>
 4    1  0.2731969E-009  0.1620870E+03  0.7818608E-02  0.1186360E+00
          1   -1    0    0  501    0  0.00000000000E+00  0.00000000000E+00  0.10541339259E+04  0.10541339259E+04  0.50400000000E-02 0. -1.
         -1   -1    0    0    0  501 -0.00000000000E+00 -0.00000000000E+00 -0.11150769437E+03  0.11150769448E+03  0.50400000000E-02 0.  1.
    8880022    1    1    2    0    0  0.34796426206E+02  0.40862744012E+02 -0.42261002395E+02  0.16750582218E+03  0.15294330000E+03 0.  1.
    8880022    1    1    2    0    0 -0.34796426206E+02 -0.40862744012E+02  0.98488723389E+03  0.99813579819E+03  0.15294330000E+03 0.  0.
<mgrwt>
<rscale>  0 0.16208704E+03</rscale>
<asrwt>0</asrwt>
<pdfrwt beam="1">  1        1 0.16217445E+00 0.16208704E+03</pdfrwt>
<pdfrwt beam="2">  1       -1 0.17155030E-01 0.16208704E+03</pdfrwt>
<totfact> 0.38559737E+02</totfact>
</mgrwt>
</event>
<event>
 4    1  0.2731969E-009  0.5165310E+03  0.7818608E-02  0.1009552E+00
          1   -1    0    0  501    0  0.00000000000E+00  0.00000000000E+00  0.95455329046E+03  0.95455329047E+03  0.50400000000E-02 0. -1.
         -1   -1    0    0    0  501 -0.00000000000E+00 -0.00000000000E+00 -0.85490057346E+03  0.85490057348E+03  0.50400000000E-02 0.  1.
    8880022    1    1    2    0    0 -0.19607901079E+02 -0.49297884516E+03  0.79206274764E+03  0.94560438915E+03  0.15294330000E+03 0.  0.
    8880022    1    1    2    0    0  0.19607901079E+02  0.49297884516E+03 -0.69241003065E+03  0.86384947480E+03  0.15294330000E+03 0.  1.
<mgrwt>
<rscale>  0 0.51653099E+03</rscale>
<asrwt>0</asrwt>
<pdfrwt beam="1">  1        1 0.14685435E+00 0.51653099E+03</pdfrwt>
<pdfrwt beam="2">  1       -1 0.13152316E+00 0.51653099E+03</pdfrwt>
<totfact> 0.87020689E+00</totfact>
</mgrwt>
</event>
<event>
 4    1  0.2731969E-009  0.9655954E+03  0.7818608E-02  0.9347105E-01
         -1   -1    0    0    0  501 -0.00000000000E+00  0.00000000000E+00  0.49146965796E+03  0.49146965799E+03  0.50400000000E-02 0.  1.
          1   -1    0    0  501    0  0.00000000000E+00 -0.00000000000E+00 -0.36784305123E+04  0.36784305123E+04  0.50400000000E-02 0. -1.
    8880022    1    1    2    0    0 -0.89975534050E+03  0.31531432241E+03 -0.30443715117E+04  0.31938334880E+04  0.15294330000E+03 0.  0.
    8880022    1    1    2    0    0  0.89975534050E+03 -0.31531432241E+03 -0.14258934264E+03  0.97606668231E+03  0.15294330000E+03 0.  0.
<mgrwt>
<rscale>  0 0.96559539E+03</rscale>
<asrwt>0</asrwt>
<pdfrwt beam="1">  1        1 0.56591237E+00 0.96559539E+03</pdfrwt>
<pdfrwt beam="2">  1       -1 0.75610719E-01 0.96559539E+03</pdfrwt>
<totfact> 0.33218077E-01</totfact>
</mgrwt>
</event>
<event>
 4    1  0.2731969E-009  0.9335528E+03  0.7818608E-02  0.9384584E-01
          1   -1    0    0  501    0  0.00000000000E+00  0.00000000000E+00  0.21400401240E+04  0.21400401240E+04  0.50400000000E-02 0. -1.
         -1   -1    0    0    0  501 -0.00000000000E+00 -0.00000000000E+00 -0.10401746731E+04  0.10401746732E+04  0.50400000000E-02 0.  1.
    8880022    1    1    2    0    0 -0.48800976334E+03  0.78100937160E+03 -0.69043660789E+03  0.11611302813E+04  0.15294330000E+03 0.  0.
    8880022    1    1    2    0    0  0.48800976334E+03 -0.78100937160E+03  0.17903020587E+04  0.20190845158E+04  0.15294330000E+03 0.  0.
<mgrwt>
<rscale>  0 0.93355279E+03</rscale>
<asrwt>0</asrwt>
<pdfrwt beam="1">  1        1 0.32923694E+00 0.93355279E+03</pdfrwt>
<pdfrwt beam="2">  1       -1 0.16002687E+00 0.93355279E+03</pdfrwt>
<totfact> 0.71644389E-01</totfact>
</mgrwt>
</event>
<event>
 4    1  0.2731969E-009  0.5076322E+03  0.7818608E-02  0.1011806E+00
          1   -1    0    0  501    0  0.00000000000E+00  0.00000000000E+00  0.13051810844E+04  0.13051810845E+04  0.50400000000E-02 0. -1.
         -1   -1    0    0    0  501 -0.00000000000E+00 -0.00000000000E+00 -0.54705666221E+03  0.54705666223E+03  0.50400000000E-02 0.  1.
    8880022    1    1    2    0    0 -0.47728885505E+03 -0.80586260196E+02 -0.36130773903E+03  0.62308404874E+03  0.15294330000E+03 0.  0.
    8880022    1    1    2    0    0  0.47728885505E+03  0.80586260196E+02  0.11194321613E+04  0.12291536979E+04  0.15294330000E+03 0.  0.
<mgrwt>
<rscale>  0 0.50763220E+03</rscale>
<asrwt>0</asrwt>
<pdfrwt beam="1">  1        1 0.20079709E+00 0.50763220E+03</pdfrwt>
<pdfrwt beam="2">  1       -1 0.84162565E-01 0.50763220E+03</pdfrwt>
<totfact> 0.13522554E+01</totfact>
</mgrwt>
</event>
<event>
 4    1  0.2731969E-009  0.9147104E+03  0.7818608E-02  0.9407377E-01
          1   -1    0    0  501    0  0.00000000000E+00  0.00000000000E+00  0.12487831459E+04  0.12487831460E+04  0.50400000000E-02 0. -1.
         -1   -1    0    0    0  501 -0.00000000000E+00 -0.00000000000E+00 -0.90992481167E+03  0.90992481168E+03  0.50400000000E-02 0.  1.
    8880022    1    1    2    0    0  0.89741290103E+03 -0.89182435447E+02 -0.38480233957E+03  0.99235473258E+03  0.15294330000E+03 0.  1.
    8880022    1    1    2    0    0 -0.89741290103E+03  0.89182435447E+02  0.72366067385E+03  0.11663532251E+04  0.15294330000E+03 0.  0.
<mgrwt>
<rscale>  0 0.91471038E+03</rscale>
<asrwt>0</asrwt>
<pdfrwt beam="1">  1        1 0.19212048E+00 0.91471038E+03</pdfrwt>
<pdfrwt beam="2">  1       -1 0.13998843E+00 0.91471038E+03</pdfrwt>
<totfact> 0.41884074E+00</totfact>
</mgrwt>
</event>
<event>
 4    1  0.2731969E-009  0.1243825E+04  0.7818608E-02  0.9075339E-01
          1   -1    0    0  501    0  0.00000000000E+00  0.00000000000E+00  0.13137188430E+04  0.13137188431E+04  0.50400000000E-02 0. -1.
         -1   -1    0    0    0  501 -0.00000000000E+00 -0.00000000000E+00 -0.27637079938E+04  0.27637079938E+04  0.50400000000E-02 0.  1.
    8880022    1    1    2    0    0 -0.12288555173E+03  0.12282536570E+04  0.81944095942E+03  0.14894908673E+04  0.15294330000E+03 0.  0.
    8880022    1    1    2    0    0  0.12288555173E+03 -0.12282536570E+04 -0.22694301102E+04  0.25879359696E+04  0.15294330000E+03 0.  0.
<mgrwt>
<rscale>  0 0.12438246E+04</rscale>
<asrwt>0</asrwt>
<pdfrwt beam="1">  1        1 0.20211059E+00 0.12438246E+04</pdfrwt>
<pdfrwt beam="2">  1       -1 0.42518584E+00 0.12438246E+04</pdfrwt>
<totfact> 0.41785304E-02</totfact>
</mgrwt>
</event>
<event>
 4    1  0.2731969E-009  0.5900438E+03  0.7818608E-02  0.9926280E-01
         -1   -1    0    0    0  501 -0.00000000000E+00  0.00000000000E+00  0.57472300634E+03  0.57472300636E+03  0.50400000000E-02 0.  1.
          1   -1    0    0  501    0  0.00000000000E+00 -0.00000000000E+00 -0.13383693964E+04  0.13383693965E+04  0.50400000000E-02 0. -1.
    8880022    1    1    2    0    0  0.38668262638E+03 -0.41861273492E+03  0.32587863176E+03  0.67405386360E+03  0.15294330000E+03 0.  0.
    8880022    1    1    2    0    0 -0.38668262638E+03  0.41861273492E+03 -0.10895250219E+04  0.12390385392E+04  0.15294330000E+03 0. -1.
<mgrwt>
<rscale>  0 0.59004384E+03</rscale>
<asrwt>0</asrwt>
<pdfrwt beam="1">  1        1 0.20590298E+00 0.59004384E+03</pdfrwt>
<pdfrwt beam="2">  1       -1 0.88418924E-01 0.59004384E+03</pdfrwt>
<totfact> 0.11340554E+01</totfact>
</mgrwt>
</event>
<event>
 4    1  0.2731969E-009  0.5231564E+03  0.7818608E-02  0.1007905E+00
          1   -1    0    0  501    0  0.00000000000E+00  0.00000000000E+00  0.27339108540E+04  0.27339108540E+04  0.50400000000E-02 0. -1.
         -1   -1    0    0    0  501 -0.00000000000E+00 -0.00000000000E+00 -0.12928485123E+04  0.12928485123E+04  0.50400000000E-02 0.  1.
    8880022    1    1    2    0    0  0.48194101733E+03 -0.13428997374E+03  0.26543885021E+04  0.27054520721E+04  0.15294330000E+03 0. -1.
    8880022    1    1    2    0    0 -0.48194101733E+03  0.13428997374E+03 -0.12133261604E+04  0.13213072942E+04  0.15294330000E+03 0.  0.
<mgrwt>
<rscale>  0 0.52315638E+03</rscale>
<asrwt>0</asrwt>
<pdfrwt beam="1">  1        1 0.42060167E+00 0.52315638E+03</pdfrwt>
<pdfrwt beam="2">  1       -1 0.19889977E+00 0.52315638E+03</pdfrwt>
<totfact> 0.16624996E-01</totfact>
</mgrwt>
</event>
<event>
 4    1  0.2731969E-009  0.2931427E+03  0.7818608E-02  0.1088720E+00
          1   -1    0    0  501    0  0.00000000000E+00  0.00000000000E+00  0.13942611607E+04  0.13942611608E+04  0.50400000000E-02 0. -1.
         -1   -1    0    0    0  501 -0.00000000000E+00 -0.00000000000E+00 -0.89240498322E+03  0.89240498324E+03  0.50400000000E-02 0.  1.
    8880022    1    1    2    0    0 -0.24205857799E+03  0.62838345703E+02  0.13540732447E+04  0.13854410914E+04  0.15294330000E+03 0.  0.
    8880022    1    1    2    0    0  0.24205857799E+03 -0.62838345703E+02 -0.85221706713E+03  0.90122505258E+03  0.15294330000E+03 0.  1.
<mgrwt>
<rscale>  0 0.29314274E+03</rscale>
<asrwt>0</asrwt>
<pdfrwt beam="1">  1        1 0.21450172E+00 0.29314274E+03</pdfrwt>
<pdfrwt beam="2">  1       -1 0.13729307E+00 0.29314274E+03</pdfrwt>
<totfact> 0.40419573E+00</totfact>
</mgrwt>
</event>
<event>
 4    1  0.2731969E-009  0.5143468E+03  0.7818608E-02  0.1010101E+00
         -1   -1    0    0    0  501 -0.00000000000E+00  0.00000000000E+00  0.14161830342E+04  0.14161830342E+04  0.50400000000E-02 0.  1.
          1   -1    0    0  501    0  0.00000000000E+00 -0.00000000000E+00 -0.22461800450E+03  0.22461800456E+03  0.50400000000E-02 0. -1.
    8880022    1    1    2    0    0 -0.23943357244E+03  0.42875703283E+03  0.93238215965E+03  0.10648423233E+04  0.15294330000E+03 0.  0.
    8880022    1    1    2    0    0  0.23943357244E+03 -0.42875703283E+03  0.25918287008E+03  0.57595871551E+03  0.15294330000E+03 0.  0.
<mgrwt>
<rscale>  0 0.51434685E+03</rscale>
<asrwt>0</asrwt>
<pdfrwt beam="1">  1        1 0.34556616E-01 0.51434685E+03</pdfrwt>
<pdfrwt beam="2">  1       -1 0.21787432E+00 0.51434685E+03</pdfrwt>
<totfact> 0.15433200E+01</totfact>
</mgrwt>
</event>
<event>
 4    1  0.2731969E-009  0.2147795E+03  0.7818608E-02  0.1137836E+00
          1   -1    0    0  501    0  0.00000000000E+00  0.00000000000E+00  0.53847006096E+02  0.53847006332E+02  0.50400000000E-02 0. -1.
         -1   -1    0    0    0  501 -0.00000000000E+00 -0.00000000000E+00 -0.13574103321E+04  0.13574103321E+04  0.50400000000E-02 0.  1.
    8880022    1    1    2    0    0  0.33907077308E+02 -0.14693155331E+03 -0.10803479395E+04  0.11014907602E+04  0.15294330000E+03 0.  1.
    8880022    1    1    2    0    0 -0.33907077308E+02  0.14693155331E+03 -0.22321538648E+03  0.30976657829E+03  0.15294330000E+03 0.  0.
<mgrwt>
<rscale>  0 0.21477948E+03</rscale>
<asrwt>0</asrwt>
<pdfrwt beam="1">  1        1 0.82841558E-02 0.21477948E+03</pdfrwt>
<pdfrwt beam="2">  1       -1 0.20883233E+00 0.21477948E+03</pdfrwt>
<totfact> 0.12191929E+02</totfact>
</mgrwt>
</event>
<event>
 4    1  0.2731969E-009  0.1328177E+04  0.7818608E-02  0.9007514E-01
          1   -1    0    0  501    0  0.00000000000E+00  0.00000000000E+00  0.12235425860E+04  0.12235425860E+04  0.50400000000E-02 0. -1.
         -1   -1    0    0    0  501 -0.00000000000E+00 -0.00000000000E+00 -0.18022133304E+04  0.18022133304E+04  0.50400000000E-02 0.  1.
    8880022    1    1    2    0    0 -0.13171958329E+04  0.75216784042E+02 -0.96592549319E+03  0.16422746841E+04  0.15294330000E+03 0.  0.
    8880022    1    1    2    0    0  0.13171958329E+04 -0.75216784042E+02  0.38725474881E+03  0.13834812323E+04  0.15294330000E+03 0.  0.
<mgrwt>
<rscale>  0 0.13281770E+04</rscale>
<asrwt>0</asrwt>
<pdfrwt beam="1">  1        1 0.18823732E+00 0.13281770E+04</pdfrwt>
<pdfrwt beam="2">  1       -1 0.27726359E+00 0.13281770E+04</pdfrwt>
<totfact> 0.46038504E-01</totfact>
</mgrwt>
</event>
<event>
 4    1  0.2731969E-009  0.1290281E+04  0.7818608E-02  0.9037308E-01
          1   -1    0    0  501    0  0.00000000000E+00  0.00000000000E+00  0.18686063622E+04  0.18686063622E+04  0.50400000000E-02 0. -1.
         -1   -1    0    0    0  501 -0.00000000000E+00 -0.00000000000E+00 -0.13461442687E+04  0.13461442687E+04  0.50400000000E-02 0.  1.
    8880022    1    1    2    0    0 -0.35570097711E+03  0.12308166998E+04  0.11959316030E+04  0.17592830886E+04  0.15294330000E+03 0.  0.
    8880022    1    1    2    0    0  0.35570097711E+03 -0.12308166998E+04 -0.67346950949E+03  0.14554675424E+04  0.15294330000E+03 0.  0.
<mgrwt>
<rscale>  0 0.12902808E+04</rscale>
<asrwt>0</asrwt>
<pdfrwt beam="1">  1        1 0.28747790E+00 0.12902808E+04</pdfrwt>
<pdfrwt beam="2">  1       -1 0.20709912E+00 0.12902808E+04</pdfrwt>
<totfact> 0.47714431E-01</totfact>
</mgrwt>
</event>
<event>
 4    1  0.2731969E-009  0.4942491E+03  0.7818608E-02  0.1015291E+00
          1   -1    0    0  501    0  0.00000000000E+00  0.00000000000E+00  0.60927071660E+03  0.60927071662E+03  0.50400000000E-02 0. -1.
         -1   -1    0    0    0  501 -0.00000000000E+00 -0.00000000000E+00 -0.65995404830E+03  0.65995404832E+03  0.50400000000E-02 0.  1.
    8880022    1    1    2    0    0  0.20343991433E+03  0.42367756709E+03 -0.42291000917E+03  0.65048828466E+03  0.15294330000E+03 0.  0.
    8880022    1    1    2    0    0 -0.20343991433E+03 -0.42367756709E+03  0.37222667747E+03  0.61873648029E+03  0.15294330000E+03 0.  0.
<mgrwt>
<rscale>  0 0.49424906E+03</rscale>
<asrwt>0</asrwt>
<pdfrwt beam="1">  1        1 0.93733956E-01 0.49424906E+03</pdfrwt>
<pdfrwt beam="2">  1       -1 0.10153139E+00 0.49424906E+03</pdfrwt>
<totfact> 0.32565104E+01</totfact>
</mgrwt>
</event>
<event>
 4    1  0.2731969E-009  0.4460812E+03  0.7818608E-02  0.1028897E+00
         -1   -1    0    0    0  501 -0.00000000000E+00  0.00000000000E+00  0.74534879793E+03  0.74534879795E+03  0.50400000000E-02 0.  1.
          1   -1    0    0  501    0  0.00000000000E+00 -0.00000000000E+00 -0.16293680225E+04  0.16293680225E+04  0.50400000000E-02 0. -1.
    8880022    1    1    2    0    0  0.38502813316E+03 -0.16537861877E+03 -0.15277442100E+04  0.15915372365E+04  0.15294330000E+03 0.  0.
    8880022    1    1    2    0    0 -0.38502813316E+03  0.16537861877E+03  0.64372498544E+03  0.78317958398E+03  0.15294330000E+03 0.  0.
<mgrwt>
<rscale>  0 0.44608116E+03</rscale>
<asrwt>0</asrwt>
<pdfrwt beam="1">  1        1 0.25067200E+00 0.44608116E+03</pdfrwt>
<pdfrwt beam="2">  1       -1 0.11466905E+00 0.44608116E+03</pdfrwt>
<totfact> 0.41252999E+00</totfact>
</mgrwt>
</event>
<event>
 4    1  0.2731969E-009  0.8041127E+03  0.7818608E-02  0.9554083E-01
          1   -1    0    0  501    0  0.00000000000E+00  0.00000000000E+00  0.12022851210E+04  0.12022851210E+04  0.50400000000E-02 0. -1.
         -1   -1    0    0    0  501 -0.00000000000E+00 -0.00000000000E+00 -0.76073822361E+03  0.76073822363E+03  0.50400000000E-02 0.  1.
    8880022    1    1    2    0    0 -0.75553684090E+03  0.22884404070E+03 -0.31055546756E+03  0.86199876123E+03  0.15294330000E+03 0.  0.
    8880022    1    1    2    0    0  0.75553684090E+03 -0.22884404070E+03  0.75210236498E+03  0.11010245834E+04  0.15294330000E+03 0.  0.
<mgrwt>
<rscale>  0 0.80411266E+03</rscale>
<asrwt>0</asrwt>
<pdfrwt beam="1">  1        1 0.18496694E+00 0.80411266E+03</pdfrwt>
<pdfrwt beam="2">  1       -1 0.11703665E+00 0.80411266E+03</pdfrwt>
<totfact> 0.72010446E+00</totfact>
</mgrwt>
</event>
<event>
 4    1  0.2731969E-009  0.9748124E+03  0.7818608E-02  0.9336610E-01
         -1   -1    0    0    0  501 -0.00000000000E+00  0.00000000000E+00  0.12384188583E+04  0.12384188583E+04  0.50400000000E-02 0.  1.
          1   -1    0    0  501    0  0.00000000000E+00 -0.00000000000E+00 -0.10522514349E+04  0.10522514349E+04  0.50400000000E-02 0. -1.
    8880022    1    1    2    0    0 -0.57300938932E+03  0.77364578359E+03  0.68908291898E+03  0.11937732117E+04  0.15294330000E+03 0.  0.
    8880022    1    1    2    0    0  0.57300938932E+03 -0.77364578359E+03 -0.50291549558E+03  0.10968970815E+04  0.15294330000E+03 0.  0.
<mgrwt>
<rscale>  0 0.97481240E+03</rscale>
<asrwt>0</asrwt>
<pdfrwt beam="1">  1        1 0.16188484E+00 0.97481240E+03</pdfrwt>
<pdfrwt beam="2">  1       -1 0.19052598E+00 0.97481240E+03</pdfrwt>
<totfact> 0.24326167E+00</totfact>
</mgrwt>
</event>
<event>
 4    1  0.2731969E-009  0.8908597E+03  0.7818608E-02  0.9437080E-01
         -1   -1    0    0    0  501 -0.00000000000E+00  0.00000000000E+00  0.13445338163E+04  0.13445338163E+04  0.50400000000E-02 0.  1.
          1   -1    0    0  501    0  0.00000000000E+00 -0.00000000000E+00 -0.11906072283E+04  0.11906072283E+04  0.50400000000E-02 0. -1.
    8880022    1    1    2    0    0 -0.28743837803E+03 -0.82922770513E+03 -0.82312967988E+03  0.12129194248E+04  0.15294330000E+03 0.  0.
    8880022    1    1    2    0    0  0.28743837803E+03  0.82922770513E+03  0.97705626787E+03  0.13222216197E+04  0.15294330000E+03 0.  0.
<mgrwt>
<rscale>  0 0.89085973E+03</rscale>
<asrwt>0</asrwt>
<pdfrwt beam="1">  1        1 0.18317034E+00 0.89085973E+03</pdfrwt>
<pdfrwt beam="2">  1       -1 0.20685136E+00 0.89085973E+03</pdfrwt>
<totfact> 0.14984562E+00</totfact>
</mgrwt>
</event>
<event>
 4    1  0.2731969E-009  0.5304322E+03  0.7818608E-02  0.1006127E+00
         -1   -1    0    0    0  501 -0.00000000000E+00  0.00000000000E+00  0.51746895233E+03  0.51746895236E+03  0.50400000000E-02 0.  1.
          1   -1    0    0  501    0  0.00000000000E+00 -0.00000000000E+00 -0.10300005669E+04  0.10300005669E+04  0.50400000000E-02 0. -1.
    8880022    1    1    2    0    0 -0.50498629343E+03 -0.54364304961E+02 -0.78790473568E+03  0.94981690853E+03  0.15294330000E+03 0.  0.
    8880022    1    1    2    0    0  0.50498629343E+03  0.54364304961E+02  0.27537312116E+03  0.59765261070E+03  0.15294330000E+03 0.  0.
<mgrwt>
<rscale>  0 0.53043217E+03</rscale>
<asrwt>0</asrwt>
<pdfrwt beam="1">  1        1 0.15846163E+00 0.53043217E+03</pdfrwt>
<pdfrwt beam="2">  1       -1 0.79610608E-01 0.53043217E+03</pdfrwt>
<totfact> 0.23976361E+01</totfact>
</mgrwt>
</event>
<event>
 4    1  0.2731969E-009  0.1312184E+04  0.7818608E-02  0.9019959E-01
         -1   -1    0    0    0  501 -0.00000000000E+00  0.00000000000E+00  0.16981825180E+04  0.16981825180E+04  0.50400000000E-02 0.  1.
          1   -1    0    0  501    0  0.00000000000E+00 -0.00000000000E+00 -0.22109239654E+04  0.22109239654E+04  0.50400000000E-02 0. -1.
    8880022    1    1    2    0    0  0.27496679688E+03 -0.12739026214E+04  0.11817914279E+04  0.17659154171E+04  0.15294330000E+03 0.  0.
    8880022    1    1    2    0    0 -0.27496679688E+03  0.12739026214E+04 -0.16945328753E+04  0.21431910663E+04  0.15294330000E+03 0.  0.
<mgrwt>
<rscale>  0 0.13121838E+04</rscale>
<asrwt>0</asrwt>
<pdfrwt beam="1">  1        1 0.34014215E+00 0.13121838E+04</pdfrwt>
<pdfrwt beam="2">  1       -1 0.26125885E+00 0.13121838E+04</pdfrwt>
<totfact> 0.12203296E-01</totfact>
</mgrwt>
</event>
<event>
 4    1  0.2731969E-009  0.8060770E+03  0.7818608E-02  0.9551262E-01
          1   -1    0    0  501    0  0.00000000000E+00  0.00000000000E+00  0.13350741030E+04  0.13350741030E+04  0.50400000000E-02 0. -1.
         -1   -1    0    0    0  501 -0.00000000000E+00 -0.00000000000E+00 -0.17223976592E+04  0.17223976592E+04  0.50400000000E-02 0.  1.
    8880022    1    1    2    0    0  0.53183744686E+03 -0.58610354016E+03  0.11012034059E+04  0.13647010749E+04  0.15294330000E+03 0.  0.
    8880022    1    1    2    0    0 -0.53183744686E+03  0.58610354016E+03 -0.14885269621E+04  0.16927706872E+04  0.15294330000E+03 0.  0.
<mgrwt>
<rscale>  0 0.80607697E+03</rscale>
<asrwt>0</asrwt>
<pdfrwt beam="1">  1        1 0.20539602E+00 0.80607697E+03</pdfrwt>
<pdfrwt beam="2">  1       -1 0.26498426E+00 0.80607697E+03</pdfrwt>
<totfact> 0.49856667E-01</totfact>
</mgrwt>
</event>
<event>
 4    1  0.2731969E-009  0.9928066E+03  0.7818608E-02  0.9316470E-01
         -1   -1    0    0    0  501 -0.00000000000E+00  0.00000000000E+00  0.93257610014E+03  0.93257610015E+03  0.50400000000E-02 0.  1.
          1   -1    0    0  501    0  0.00000000000E+00 -0.00000000000E+00 -0.32755095153E+04  0.32755095153E+04  0.50400000000E-02 0. -1.
    8880022    1    1    2    0    0  0.55129056201E+03 -0.81138894133E+03  0.56015460426E+03  0.11399290029E+04  0.15294330000E+03 0.  0.
    8880022    1    1    2    0    0 -0.55129056201E+03  0.81138894133E+03 -0.29030880194E+04  0.30681566126E+04  0.15294330000E+03 0.  0.
<mgrwt>
<rscale>  0 0.99280660E+03</rscale>
<asrwt>0</asrwt>
<pdfrwt beam="1">  1        1 0.50392453E+00 0.99280660E+03</pdfrwt>
<pdfrwt beam="2">  1       -1 0.14347325E+00 0.99280660E+03</pdfrwt>
<totfact> 0.15168246E-01</totfact>
</mgrwt>
</event>
<event>
 4    1  0.2731969E-009  0.5331236E+03  0.7818608E-02  0.1005477E+00
          1   -1    0    0  501    0  0.00000000000E+00  0.00000000000E+00  0.10203506203E+04  0.10203506203E+04  0.50400000000E-02 0. -1.
         -1   -1    0    0    0  501 -0.00000000000E+00 -0.00000000000E+00 -0.73789364655E+03  0.73789364657E+03  0.50400000000E-02 0.  1.
    8880022    1    1    2    0    0  0.23219404468E+03  0.45487915316E+03  0.83484625533E+03  0.99054986821E+03  0.15294330000E+03 0.  0.
    8880022    1    1    2    0    0 -0.23219404468E+03 -0.45487915316E+03 -0.55238928157E+03  0.76769439868E+03  0.15294330000E+03 0.  1.
<mgrwt>
<rscale>  0 0.53312360E+03</rscale>
<asrwt>0</asrwt>
<pdfrwt beam="1">  1        1 0.15697702E+00 0.53312360E+03</pdfrwt>
<pdfrwt beam="2">  1       -1 0.11352210E+00 0.53312360E+03</pdfrwt>
<totfact> 0.11047969E+01</totfact>
</mgrwt>
</event>
<event>
 4    1  0.2731969E-009  0.7083685E+03  0.7818608E-02  0.9703027E-01
          1   -1    0    0  501    0  0.00000000000E+00  0.00000000000E+00  0.21170693240E+04  0.21170693240E+04  0.50400000000E-02 0. -1.
         -1   -1    0    0    0  501 -0.00000000000E+00 -0.00000000000E+00 -0.42996959127E+03  0.42996959130E+03  0.50400000000E-02 0.  1.
    8880022    1    1    2    0    0  0.68642498779E+03  0.84940999065E+02  0.16966689268E+04  0.18386058135E+04  0.15294330000E+03 0.  0.
    8880022    1    1    2    0    0 -0.68642498779E+03 -0.84940999065E+02 -0.95691941328E+01  0.70843310177E+03  0.15294330000E+03 0.  0.
<mgrwt>
<rscale>  0 0.70836847E+03</rscale>
<asrwt>0</asrwt>
<pdfrwt beam="1">  1        1 0.32570298E+00 0.70836847E+03</pdfrwt>
<pdfrwt beam="2">  1       -1 0.66149167E-01 0.70836847E+03</pdfrwt>
<totfact> 0.60832746E+00</totfact>
</mgrwt>
</event>
<event>
 4    1  0.2731969E-009  0.6168157E+03  0.7818608E-02  0.9871120E-01
         -1   -1    0    0    0  501 -0.00000000000E+00  0.00000000000E+00  0.62787494087E+03  0.62787494089E+03  0.50400000000E-02 0.  1.
          1   -1    0    0  501    0  0.00000000000E+00 -0.00000000000E+00 -0.24535601008E+04  0.24535601008E+04  0.50400000000E-02 0. -1.
    8880022    1    1    2    0    0 -0.59753023082E+03 -0.52498592568E+01 -0.22498372956E+04  0.23328586428E+04  0.15294330000E+03 0.  0.
    8880022    1    1    2    0    0  0.59753023082E+03  0.52498592568E+01  0.42415213564E+03  0.74857639888E+03  0.15294330000E+03 0.  0.
<mgrwt>
<rscale>  0 0.61681569E+03</rscale>
<asrwt>0</asrwt>
<pdfrwt beam="1">  1        1 0.37747078E+00 0.61681569E+03</pdfrwt>
<pdfrwt beam="2">  1       -1 0.96596146E-01 0.61681569E+03</pdfrwt>
<totfact> 0.16513549E+00</totfact>
</mgrwt>
</event>
<event>
 4    1  0.2731969E-009  0.7257679E+03  0.7818608E-02  0.9674153E-01
         -1   -1    0    0    0  501 -0.00000000000E+00  0.00000000000E+00  0.80113941451E+03  0.80113941453E+03  0.50400000000E-02 0.  1.
          1   -1    0    0  501    0  0.00000000000E+00 -0.00000000000E+00 -0.71479977797E+03  0.71479977799E+03  0.50400000000E-02 0. -1.
    8880022    1    1    2    0    0 -0.70946846308E+03 -0.13893958224E+01  0.25779651156E+03  0.77019356328E+03  0.15294330000E+03 0.  0.
    8880022    1    1    2    0    0  0.70946846308E+03  0.13893958224E+01 -0.17145687503E+03  0.74574562924E+03  0.15294330000E+03 0. -1.
<mgrwt>
<rscale>  0 0.72576793E+03</rscale>
<asrwt>0</asrwt>
<pdfrwt beam="1">  1        1 0.10996920E+00 0.72576793E+03</pdfrwt>
<pdfrwt beam="2">  1       -1 0.12325222E+00 0.72576793E+03</pdfrwt>
<totfact> 0.15770066E+01</totfact>
</mgrwt>
</event>
<event>
 4    1  0.2731969E-009  0.9798819E+03  0.7818608E-02  0.9330889E-01
         -1   -1    0    0    0  501 -0.00000000000E+00  0.00000000000E+00  0.69102569909E+03  0.69102569911E+03  0.50400000000E-02 0.  1.
          1   -1    0    0  501    0  0.00000000000E+00 -0.00000000000E+00 -0.29513125632E+04  0.29513125632E+04  0.50400000000E-02 0. -1.
    8880022    1    1    2    0    0 -0.98066769971E+02  0.96289132738E+03  0.19468456851E+03  0.99903480117E+03  0.15294330000E+03 0.  0.
    8880022    1    1    2    0    0  0.98066769971E+02 -0.96289132738E+03 -0.24549714326E+04  0.26433034612E+04  0.15294330000E+03 0.  0.
<mgrwt>
<rscale>  0 0.97988186E+03</rscale>
<asrwt>0</asrwt>
<pdfrwt beam="1">  1        1 0.45404808E+00 0.97988186E+03</pdfrwt>
<pdfrwt beam="2">  1       -1 0.10631165E+00 0.97988186E+03</pdfrwt>
<totfact> 0.55279992E-01</totfact>
</mgrwt>
</event>
<event>
 4    1  0.5365626E-009  0.2071097E+04  0.7818608E-02  0.8574083E-01
         -1   -1    0    0    0  501 -0.00000000000E+00  0.00000000000E+00  0.25983869513E+04  0.25983869513E+04  0.50400000000E-02 0.  1.
          1   -1    0    0  501    0  0.00000000000E+00 -0.00000000000E+00 -0.30919607076E+04  0.30919607076E+04  0.50400000000E-02 0. -1.
    8880022    1    1    2    0    0 -0.60132446343E+02  0.20645669277E+04 -0.21892217395E+04  0.30136582400E+04  0.15294330000E+03 0.  0.
    8880022    1    1    2    0    0  0.60132446343E+02 -0.20645669277E+04  0.16956479831E+04  0.26766894190E+04  0.15294330000E+03 0.  0.
<mgrwt>
<rscale>  0 0.20710973E+04</rscale>
<asrwt>0</asrwt>
<pdfrwt beam="1">  1        1 0.47568626E+00 0.20710973E+04</pdfrwt>
<pdfrwt beam="2">  1       -1 0.39975184E+00 0.20710973E+04</pdfrwt>
<totfact> 0.32072949E-03</totfact>
</mgrwt>
</event>
<event>
 4    1  0.2731969E-009  0.3742847E+03  0.7818608E-02  0.1053067E+00
          1   -1    0    0  501    0  0.00000000000E+00  0.00000000000E+00  0.44067129615E+03  0.44067129618E+03  0.50400000000E-02 0. -1.
         -1   -1    0    0    0  501 -0.00000000000E+00 -0.00000000000E+00 -0.92160977000E+03  0.92160977001E+03  0.50400000000E-02 0.  1.
    8880022    1    1    2    0    0 -0.33581187552E+03 -0.62671936029E+02 -0.79175603163E+03  0.87576632382E+03  0.15294330000E+03 0.  1.
    8880022    1    1    2    0    0  0.33581187552E+03  0.62671936029E+02  0.31081755778E+03  0.48651474237E+03  0.15294330000E+03 0.  0.
<mgrwt>
<rscale>  0 0.37428470E+03</rscale>
<asrwt>0</asrwt>
<pdfrwt beam="1">  1        1 0.67795584E-01 0.37428470E+03</pdfrwt>
<pdfrwt beam="2">  1       -1 0.14178612E+00 0.37428470E+03</pdfrwt>
<totfact> 0.23114834E+01</totfact>
</mgrwt>
</event>
<event>
 4    1  0.2731969E-009  0.1237948E+04  0.7818608E-02  0.9080274E-01
         -1   -1    0    0    0  501 -0.00000000000E+00  0.00000000000E+00  0.71245083045E+03  0.71245083047E+03  0.50400000000E-02 0.  1.
          1   -1    0    0  501    0  0.00000000000E+00 -0.00000000000E+00 -0.24871803955E+04  0.24871803955E+04  0.50400000000E-02 0. -1.
    8880022    1    1    2    0    0  0.87622773248E+03 -0.86101608486E+03 -0.29923663375E+03  0.12736003901E+04  0.15294330000E+03 0.  0.
    8880022    1    1    2    0    0 -0.87622773248E+03  0.86101608486E+03 -0.14754929313E+04  0.19260308359E+04  0.15294330000E+03 0.  0.
<mgrwt>
<rscale>  0 0.12379481E+04</rscale>
<asrwt>0</asrwt>
<pdfrwt beam="1">  1        1 0.38264313E+00 0.12379481E+04</pdfrwt>
<pdfrwt beam="2">  1       -1 0.10960782E+00 0.12379481E+04</pdfrwt>
<totfact> 0.10476818E+00</totfact>
</mgrwt>
</event>
<event>
 4    1  0.2731969E-009  0.1097817E+04  0.7818608E-02  0.9207323E-01
          1   -1    0    0  501    0  0.00000000000E+00  0.00000000000E+00  0.14522389440E+04  0.14522389440E+04  0.50400000000E-02 0. -1.
         -1   -1    0    0    0  501 -0.00000000000E+00 -0.00000000000E+00 -0.11369621268E+04  0.11369621268E+04  0.50400000000E-02 0.  1.
    8880022    1    1    2    0    0 -0.10349734749E+04  0.33262531478E+03  0.83043167000E+03  0.13765239211E+04  0.15294330000E+03 0.  0.
    8880022    1    1    2    0    0  0.10349734749E+04 -0.33262531478E+03 -0.51515485285E+03  0.12126771497E+04  0.15294330000E+03 0.  0.
<mgrwt>
<rscale>  0 0.10978166E+04</rscale>
<asrwt>0</asrwt>
<pdfrwt beam="1">  1        1 0.22342137E+00 0.10978166E+04</pdfrwt>
<pdfrwt beam="2">  1       -1 0.17491725E+00 0.10978166E+04</pdfrwt>
<totfact> 0.15875465E+00</totfact>
</mgrwt>
</event>
<event>
 4    1  0.2731969E-009  0.1053026E+04  0.7818608E-02  0.9252225E-01
          1   -1    0    0  501    0  0.00000000000E+00  0.00000000000E+00  0.27753465742E+04  0.27753465742E+04  0.50400000000E-02 0. -1.
         -1   -1    0    0    0  501 -0.00000000000E+00 -0.00000000000E+00 -0.45926204557E+03  0.45926204560E+03  0.50400000000E-02 0.  1.
    8880022    1    1    2    0    0 -0.10151746222E+04  0.23429373990E+03  0.17412525797E+04  0.20349017837E+04  0.15294330000E+03 0. -1.
    8880022    1    1    2    0    0  0.10151746222E+04 -0.23429373990E+03  0.57483194894E+03  0.11997068361E+04  0.15294330000E+03 0.  0.
<mgrwt>
<rscale>  0 0.10530265E+04</rscale>
<asrwt>0</asrwt>
<pdfrwt beam="1">  1        1 0.42697640E+00 0.10530265E+04</pdfrwt>
<pdfrwt beam="2">  1       -1 0.70655699E-01 0.10530265E+04</pdfrwt>
<totfact> 0.17839591E+00</totfact>
</mgrwt>
</event>
<event>
 4    1  0.2731969E-009  0.4218985E+03  0.7818608E-02  0.1036450E+00
          1   -1    0    0  501    0  0.00000000000E+00  0.00000000000E+00  0.29372446818E+03  0.29372446822E+03  0.50400000000E-02 0. -1.
         -1   -1    0    0    0  501 -0.00000000000E+00 -0.00000000000E+00 -0.17364638971E+04  0.17364638971E+04  0.50400000000E-02 0.  1.
    8880022    1    1    2    0    0 -0.11721135546E+03  0.37532408297E+03  0.97662458345E+02  0.43305458997E+03  0.15294330000E+03 0.  0.
    8880022    1    1    2    0    0  0.11721135546E+03 -0.37532408297E+03 -0.15404018873E+04  0.15971337754E+04  0.15294330000E+03 0.  0.
<mgrwt>
<rscale>  0 0.42189847E+03</rscale>
<asrwt>0</asrwt>
<pdfrwt beam="1">  1        1 0.45188381E-01 0.42189847E+03</pdfrwt>
<pdfrwt beam="2">  1       -1 0.26714829E+00 0.42189847E+03</pdfrwt>
<totfact> 0.53762763E+00</totfact>
</mgrwt>
</event>
<event>
 4    1  0.2731969E-009  0.1307128E+04  0.7818608E-02  0.9023932E-01
         -1   -1    0    0    0  501 -0.00000000000E+00  0.00000000000E+00  0.10412656466E+04  0.10412656466E+04  0.50400000000E-02 0.  1.
          1   -1    0    0  501    0  0.00000000000E+00 -0.00000000000E+00 -0.19472539162E+04  0.19472539162E+04  0.50400000000E-02 0. -1.
    8880022    1    1    2    0    0 -0.36799343373E+03 -0.12448988538E+04  0.13972118467E+03  0.13145744505E+04  0.15294330000E+03 0.  0.
    8880022    1    1    2    0    0  0.36799343373E+03  0.12448988538E+04 -0.10457094542E+04  0.16739451123E+04  0.15294330000E+03 0.  0.
<mgrwt>
<rscale>  0 0.13071281E+04</rscale>
<asrwt>0</asrwt>
<pdfrwt beam="1">  1        1 0.29957753E+00 0.13071281E+04</pdfrwt>
<pdfrwt beam="2">  1       -1 0.16019472E+00 0.13071281E+04</pdfrwt>
<totfact> 0.91345800E-01</totfact>
</mgrwt>
</event>
<event>
 4    1  0.2731969E-009  0.4981261E+03  0.7818608E-02  0.1014269E+00
          1   -1    0    0  501    0  0.00000000000E+00  0.00000000000E+00  0.32932019331E+03  0.32932019335E+03  0.50400000000E-02 0. -1.
         -1   -1    0    0    0  501 -0.00000000000E+00 -0.00000000000E+00 -0.10545691597E+04  0.10545691597E+04  0.50400000000E-02 0.  1.
    8880022    1    1    2    0    0  0.46740695104E+03  0.79174837864E+02 -0.73236401059E+03  0.88571248713E+03  0.15294330000E+03 0.  0.
    8880022    1    1    2    0    0 -0.46740695104E+03 -0.79174837864E+02  0.71150442461E+01  0.49817686588E+03  0.15294330000E+03 0.  0.
<mgrwt>
<rscale>  0 0.49812605E+03</rscale>
<asrwt>0</asrwt>
<pdfrwt beam="1">  1        1 0.50664646E-01 0.49812605E+03</pdfrwt>
<pdfrwt beam="2">  1       -1 0.16224141E+00 0.49812605E+03</pdfrwt>
<totfact> 0.23048238E+01</totfact>
</mgrwt>
</event>
<event>
 4    1  0.2731969E-009  0.6035719E+03  0.7818608E-02  0.9898023E-01
         -1   -1    0    0    0  501 -0.00000000000E+00  0.00000000000E+00  0.97875588137E+03  0.97875588139E+03  0.50400000000E-02 0.  1.
          1   -1    0    0  501    0  0.00000000000E+00 -0.00000000000E+00 -0.53250976481E+03  0.53250976483E+03  0.50400000000E-02 0. -1.
    8880022    1    1    2    0    0  0.32594333964E+03  0.48442580651E+03 -0.19146665481E+03  0.63321288331E+03  0.15294330000E+03 0. -1.
    8880022    1    1    2    0    0 -0.32594333964E+03 -0.48442580651E+03  0.63771277138E+03  0.87805276291E+03  0.15294330000E+03 0.  0.
<mgrwt>
<rscale>  0 0.60357193E+03</rscale>
<asrwt>0</asrwt>
<pdfrwt beam="1">  1        1 0.81924580E-01 0.60357193E+03</pdfrwt>
<pdfrwt beam="2">  1       -1 0.15057783E+00 0.60357193E+03</pdfrwt>
<totfact> 0.14688006E+01</totfact>
</mgrwt>
</event>
<event>
 4    1  0.2731969E-009  0.1041992E+04  0.7818608E-02  0.9263651E-01
          1   -1    0    0  501    0  0.00000000000E+00  0.00000000000E+00  0.17305769054E+04  0.17305769054E+04  0.50400000000E-02 0. -1.
         -1   -1    0    0    0  501 -0.00000000000E+00 -0.00000000000E+00 -0.87197752355E+03  0.87197752357E+03  0.50400000000E-02 0.  1.
    8880022    1    1    2    0    0 -0.23409698148E+02  0.10304405392E+04 -0.25988235811E+03  0.10739116406E+04  0.15294330000E+03 0.  0.
    8880022    1    1    2    0    0  0.23409698148E+02 -0.10304405392E+04  0.11184817399E+04  0.15286427883E+04  0.15294330000E+03 0.  0.
<mgrwt>
<rscale>  0 0.10419920E+04</rscale>
<asrwt>0</asrwt>
<pdfrwt beam="1">  1        1 0.26624260E+00 0.10419920E+04</pdfrwt>
<pdfrwt beam="2">  1       -1 0.13415039E+00 0.10419920E+04</pdfrwt>
<totfact> 0.21305235E+00</totfact>
</mgrwt>
</event>
<event>
 4    1  0.2731969E-009  0.4534205E+03  0.7818608E-02  0.1026707E+00
         -1   -1    0    0    0  501 -0.00000000000E+00  0.00000000000E+00  0.45145766100E+03  0.45145766103E+03  0.50400000000E-02 0.  1.
          1   -1    0    0  501    0  0.00000000000E+00 -0.00000000000E+00 -0.65034094438E+03  0.65034094439E+03  0.50400000000E-02 0. -1.
    8880022    1    1    2    0    0 -0.61586603916E+02  0.42238090732E+03 -0.40106304160E+03  0.60534432929E+03  0.15294330000E+03 0.  0.
    8880022    1    1    2    0    0  0.61586603916E+02 -0.42238090732E+03  0.20217975823E+03  0.49645427614E+03  0.15294330000E+03 0.  0.
<mgrwt>
<rscale>  0 0.45342055E+03</rscale>
<asrwt>0</asrwt>
<pdfrwt beam="1">  1        1 0.10005245E+00 0.45342055E+03</pdfrwt>
<pdfrwt beam="2">  1       -1 0.69455025E-01 0.45342055E+03</pdfrwt>
<totfact> 0.67169029E+01</totfact>
</mgrwt>
</event>
<event>
 4    1  0.2731969E-009  0.8541959E+03  0.7818608E-02  0.9484723E-01
         -1   -1    0    0    0  501 -0.00000000000E+00  0.00000000000E+00  0.72581124635E+03  0.72581124637E+03  0.50400000000E-02 0.  1.
          1   -1    0    0  501    0  0.00000000000E+00 -0.00000000000E+00 -0.27828990174E+04  0.27828990174E+04  0.50400000000E-02 0. -1.
    8880022    1    1    2    0    0 -0.75518455138E+03  0.36872105397E+03 -0.24306695736E+04  0.25763938269E+04  0.15294330000E+03 0.  0.
    8880022    1    1    2    0    0  0.75518455138E+03 -0.36872105397E+03  0.37358180253E+03  0.93231643688E+03  0.15294330000E+03 0.  0.
<mgrwt>
<rscale>  0 0.85419586E+03</rscale>
<asrwt>0</asrwt>
<pdfrwt beam="1">  1        1 0.42813831E+00 0.85419586E+03</pdfrwt>
<pdfrwt beam="2">  1       -1 0.11166327E+00 0.85419586E+03</pdfrwt>
<totfact> 0.66382292E-01</totfact>
</mgrwt>
</event>
<event>
 4    1  0.2731969E-009  0.5488846E+03  0.7818608E-02  0.1001752E+00
         -1   -1    0    0    0  501 -0.00000000000E+00  0.00000000000E+00  0.10428630452E+04  0.10428630452E+04  0.50400000000E-02 0.  1.
          1   -1    0    0  501    0  0.00000000000E+00 -0.00000000000E+00 -0.10866216545E+04  0.10866216545E+04  0.50400000000E-02 0. -1.
    8880022    1    1    2    0    0  0.23986836114E+03 -0.46941003465E+03  0.89041162372E+03  0.10459957572E+04  0.15294330000E+03 0.  0.
    8880022    1    1    2    0    0 -0.23986836114E+03  0.46941003465E+03 -0.93417023307E+03  0.10834889426E+04  0.15294330000E+03 0.  0.
<mgrwt>
<rscale>  0 0.54888456E+03</rscale>
<asrwt>0</asrwt>
<pdfrwt beam="1">  1        1 0.16717256E+00 0.54888456E+03</pdfrwt>
<pdfrwt beam="2">  1       -1 0.16044047E+00 0.54888456E+03</pdfrwt>
<totfact> 0.40641845E+00</totfact>
</mgrwt>
</event>
<event>
 4    1  0.2731969E-009  0.8053133E+03  0.7818608E-02  0.9552358E-01
         -1   -1    0    0    0  501 -0.00000000000E+00  0.00000000000E+00  0.26452664183E+04  0.26452664183E+04  0.50400000000E-02 0.  1.
          1   -1    0    0  501    0  0.00000000000E+00 -0.00000000000E+00 -0.73422179908E+03  0.73422179909E+03  0.50400000000E-02 0. -1.
    8880022    1    1    2    0    0  0.51920318210E+03 -0.59629344903E+03  0.23345928951E+04  0.24695856860E+04  0.15294330000E+03 0.  0.
    8880022    1    1    2    0    0 -0.51920318210E+03  0.59629344903E+03 -0.42354827586E+03  0.90990253141E+03  0.15294330000E+03 0.  0.
<mgrwt>
<rscale>  0 0.80531328E+03</rscale>
<asrwt>0</asrwt>
<pdfrwt beam="1">  1        1 0.11295720E+00 0.80531328E+03</pdfrwt>
<pdfrwt beam="2">  1       -1 0.40696406E+00 0.80531328E+03</pdfrwt>
<totfact> 0.17286321E-01</totfact>
</mgrwt>
</event>
<event>
 4    1  0.2731969E-009  0.1403850E+04  0.7818608E-02  0.8951037E-01
          1   -1    0    0  501    0  0.00000000000E+00  0.00000000000E+00  0.26993369073E+04  0.26993369073E+04  0.50400000000E-02 0. -1.
         -1   -1    0    0    0  501 -0.00000000000E+00 -0.00000000000E+00 -0.79941717665E+03  0.79941717667E+03  0.50400000000E-02 0.  1.
    8880022    1    1    2    0    0  0.83530563144E+02 -0.13929911888E+04  0.14650797512E+04  0.20291013128E+04  0.15294330000E+03 0.  0.
    8880022    1    1    2    0    0 -0.83530563144E+02  0.13929911888E+04  0.43483997949E+03  0.14696527712E+04  0.15294330000E+03 0.  0.
<mgrwt>
<rscale>  0 0.14038495E+04</rscale>
<asrwt>0</asrwt>
<pdfrwt beam="1">  1        1 0.41528260E+00 0.14038495E+04</pdfrwt>
<pdfrwt beam="2">  1       -1 0.12298726E+00 0.14038495E+04</pdfrwt>
<totfact> 0.55221918E-01</totfact>
</mgrwt>
</event>
<event>
 4    1  0.2731969E-009  0.5683496E+03  0.7818608E-02  0.9973337E-01
         -1   -1    0    0    0  501 -0.00000000000E+00  0.00000000000E+00  0.13663840470E+04  0.13663840470E+04  0.50400000000E-02 0.  1.
          1   -1    0    0  501    0  0.00000000000E+00 -0.00000000000E+00 -0.61658683551E+03  0.61658683553E+03  0.50400000000E-02 0. -1.
    8880022    1    1    2    0    0  0.54734504214E+03 -0.65622666265E+01 -0.40364754073E+03  0.69710304020E+03  0.15294330000E+03 0. -1.
    8880022    1    1    2    0    0 -0.54734504214E+03  0.65622666265E+01  0.11534447522E+04  0.12858678423E+04  0.15294330000E+03 0.  0.
<mgrwt>
<rscale>  0 0.56834964E+03</rscale>
<asrwt>0</asrwt>
<pdfrwt beam="1">  1        1 0.94859514E-01 0.56834964E+03</pdfrwt>
<pdfrwt beam="2">  1       -1 0.21021293E+00 0.56834964E+03</pdfrwt>
<totfact> 0.45157411E+00</totfact>
</mgrwt>
</event>
<event>
 4    1  0.2731969E-009  0.8423596E+03  0.7818608E-02  0.9500649E-01
         -1   -1    0    0    0  501 -0.00000000000E+00  0.00000000000E+00  0.70115142603E+03  0.70115142605E+03  0.50400000000E-02 0.  1.
          1   -1    0    0  501    0  0.00000000000E+00 -0.00000000000E+00 -0.16404734219E+04  0.16404734219E+04  0.50400000000E-02 0. -1.
    8880022    1    1    2    0    0 -0.53580952767E+03  0.63173266645E+03  0.25501520837E+03  0.88011500460E+03  0.15294330000E+03 0.  0.
    8880022    1    1    2    0    0  0.53580952767E+03 -0.63173266645E+03 -0.11943372042E+04  0.14615098434E+04  0.15294330000E+03 0.  0.
<mgrwt>
<rscale>  0 0.84235958E+03</rscale>
<asrwt>0</asrwt>
<pdfrwt beam="1">  1        1 0.25238053E+00 0.84235958E+03</pdfrwt>
<pdfrwt beam="2">  1       -1 0.10786945E+00 0.84235958E+03</pdfrwt>
<totfact> 0.43055528E+00</totfact>
</mgrwt>
</event>
<event>
 4    1  0.2731969E-009  0.7563056E+03  0.7818608E-02  0.9625509E-01
         -1   -1    0    0    0  501 -0.00000000000E+00  0.00000000000E+00  0.11322838358E+04  0.11322838359E+04  0.50400000000E-02 0.  1.
          1   -1    0    0  501    0  0.00000000000E+00 -0.00000000000E+00 -0.75110115741E+03  0.75110115743E+03  0.50400000000E-02 0. -1.
    8880022    1    1    2    0    0  0.21281818308E+03  0.70944694882E+03 -0.34825484946E+03  0.83263416061E+03  0.15294330000E+03 0.  0.
    8880022    1    1    2    0    0 -0.21281818308E+03 -0.70944694882E+03  0.72943752789E+03  0.10507508327E+04  0.15294330000E+03 0.  0.
<mgrwt>
<rscale>  0 0.75630563E+03</rscale>
<asrwt>0</asrwt>
<pdfrwt beam="1">  1        1 0.11555402E+00 0.75630563E+03</pdfrwt>
<pdfrwt beam="2">  1       -1 0.17419751E+00 0.75630563E+03</pdfrwt>
<totfact> 0.57910033E+00</totfact>
</mgrwt>
</event>
<event>
 4    1  0.2731969E-009  0.1877710E+03  0.7818608E-02  0.1160487E+00
          1   -1    0    0  501    0  0.00000000000E+00  0.00000000000E+00  0.11236859658E+04  0.11236859659E+04  0.50400000000E-02 0. -1.
         -1   -1    0    0    0  501 -0.00000000000E+00 -0.00000000000E+00 -0.16801990420E+04  0.16801990420E+04  0.50400000000E-02 0.  1.
    8880022    1    1    2    0    0 -0.97908810900E+02  0.47750889476E+02 -0.16670469961E+04  0.16775886334E+04  0.15294330000E+03 0.  1.
    8880022    1    1    2    0    0  0.97908810900E+02 -0.47750889476E+02  0.11105339200E+04  0.11262963744E+04  0.15294330000E+03 0.  0.
<mgrwt>
<rscale>  0 0.18777097E+03</rscale>
<asrwt>0</asrwt>
<pdfrwt beam="1">  1        1 0.17287476E+00 0.18777097E+03</pdfrwt>
<pdfrwt beam="2">  1       -1 0.25849216E+00 0.18777097E+03</pdfrwt>
<totfact> 0.98929649E-01</totfact>
</mgrwt>
</event>
<event>
 4    1  0.2731969E-009  0.5816860E+03  0.7818608E-02  0.9944147E-01
          1   -1    0    0  501    0  0.00000000000E+00  0.00000000000E+00  0.24679071091E+04  0.24679071091E+04  0.50400000000E-02 0. -1.
         -1   -1    0    0    0  501 -0.00000000000E+00 -0.00000000000E+00 -0.61543668253E+03  0.61543668256E+03  0.50400000000E-02 0.  1.
    8880022    1    1    2    0    0  0.38312156879E+03  0.41010342659E+03  0.22853794188E+04  0.23582446221E+04  0.15294330000E+03 0.  0.
    8880022    1    1    2    0    0 -0.38312156879E+03 -0.41010342659E+03 -0.43290899228E+03  0.72509916948E+03  0.15294330000E+03 0.  0.
<mgrwt>
<rscale>  0 0.58168601E+03</rscale>
<asrwt>0</asrwt>
<pdfrwt beam="1">  1        1 0.37967802E+00 0.58168601E+03</pdfrwt>
<pdfrwt beam="2">  1       -1 0.94682565E-01 0.58168601E+03</pdfrwt>
<totfact> 0.17044423E+00</totfact>
</mgrwt>
</event>
<event>
 4    1  0.2731969E-009  0.1303074E+04  0.7818608E-02  0.9027131E-01
         -1   -1    0    0    0  501 -0.00000000000E+00  0.00000000000E+00  0.84660878758E+03  0.84660878759E+03  0.50400000000E-02 0.  1.
          1   -1    0    0  501    0  0.00000000000E+00 -0.00000000000E+00 -0.23753017673E+04  0.23753017673E+04  0.50400000000E-02 0. -1.
    8880022    1    1    2    0    0 -0.47799065659E+03  0.12025533816E+04 -0.12883972923E+03  0.13094277499E+04  0.15294330000E+03 0.  0.
    8880022    1    1    2    0    0  0.47799065659E+03 -0.12025533816E+04 -0.13998532505E+04  0.19124828050E+04  0.15294330000E+03 0.  0.
<mgrwt>
<rscale>  0 0.13030738E+04</rscale>
<asrwt>0</asrwt>
<pdfrwt beam="1">  1        1 0.36543104E+00 0.13030738E+04</pdfrwt>
<pdfrwt beam="2">  1       -1 0.13024751E+00 0.13030738E+04</pdfrwt>
<totfact> 0.81199227E-01</totfact>
</mgrwt>
</event>
<event>
 4    1  0.2731969E-009  0.1907795E+03  0.7818608E-02  0.1157760E+00
          1   -1    0    0  501    0  0.00000000000E+00  0.00000000000E+00  0.83300380937E+03  0.83300380939E+03  0.50400000000E-02 0. -1.
         -1   -1    0    0    0  501 -0.00000000000E+00 -0.00000000000E+00 -0.13850359312E+03  0.13850359321E+03  0.50400000000E-02 0.  1.
    8880022    1    1    2    0    0  0.11277745267E+03 -0.16923827167E+02 -0.54645226925E+02  0.19845131291E+03  0.15294330000E+03 0.  1.
    8880022    1    1    2    0    0 -0.11277745267E+03  0.16923827167E+02  0.74914544318E+03  0.77305608969E+03  0.15294330000E+03 0.  0.
<mgrwt>
<rscale>  0 0.19077951E+03</rscale>
<asrwt>0</asrwt>
<pdfrwt beam="1">  1        1 0.12815443E+00 0.19077951E+03</pdfrwt>
<pdfrwt beam="2">  1       -1 0.21308245E-01 0.19077951E+03</pdfrwt>
<totfact> 0.39900870E+02</totfact>
</mgrwt>
</event>
<event>
 4    1  0.2731969E-009  0.1465740E+04  0.7818608E-02  0.8907560E-01
         -1   -1    0    0    0  501 -0.00000000000E+00  0.00000000000E+00  0.14372572608E+04  0.14372572608E+04  0.50400000000E-02 0.  1.
          1   -1    0    0  501    0  0.00000000000E+00 -0.00000000000E+00 -0.22311369891E+04  0.22311369891E+04  0.50400000000E-02 0. -1.
    8880022    1    1    2    0    0 -0.12592746589E+04  0.73432277845E+03  0.65677927844E+03  0.16061610390E+04  0.15294330000E+03 0.  0.
    8880022    1    1    2    0    0  0.12592746589E+04 -0.73432277845E+03 -0.14506590067E+04  0.20622332110E+04  0.15294330000E+03 0.  0.
<mgrwt>
<rscale>  0 0.14657402E+04</rscale>
<asrwt>0</asrwt>
<pdfrwt beam="1">  1        1 0.34325184E+00 0.14657402E+04</pdfrwt>
<pdfrwt beam="2">  1       -1 0.22111650E+00 0.14657402E+04</pdfrwt>
<totfact> 0.21275389E-01</totfact>
</mgrwt>
</event>
<event>
 4    1  0.2731969E-009  0.7266474E+03  0.7818608E-02  0.9672716E-01
          1   -1    0    0  501    0  0.00000000000E+00  0.00000000000E+00  0.11801711815E+04  0.11801711815E+04  0.50400000000E-02 0. -1.
         -1   -1    0    0    0  501 -0.00000000000E+00 -0.00000000000E+00 -0.53270268654E+03  0.53270268657E+03  0.50400000000E-02 0.  1.
    8880022    1    1    2    0    0  0.49802503701E+03  0.50655291799E+03  0.66643679991E+03  0.98597893360E+03  0.15294330000E+03 0.  0.
    8880022    1    1    2    0    0 -0.49802503701E+03 -0.50655291799E+03 -0.18968304915E+02  0.72689493451E+03  0.15294330000E+03 0.  0.
<mgrwt>
<rscale>  0 0.72664740E+03</rscale>
<asrwt>0</asrwt>
<pdfrwt beam="1">  1        1 0.18156480E+00 0.72664740E+03</pdfrwt>
<pdfrwt beam="2">  1       -1 0.81954260E-01 0.72664740E+03</pdfrwt>
<totfact> 0.16941037E+01</totfact>
</mgrwt>
</event>
<event>
 4    1  0.2731969E-009  0.1213975E+04  0.7818608E-02  0.9100711E-01
          1   -1    0    0  501    0  0.00000000000E+00  0.00000000000E+00  0.18239889770E+04  0.18239889770E+04  0.50400000000E-02 0. -1.
         -1   -1    0    0    0  501 -0.00000000000E+00 -0.00000000000E+00 -0.88765987151E+03  0.88765987153E+03  0.50400000000E-02 0.  1.
    8880022    1    1    2    0    0 -0.93551989762E+03  0.75838437035E+03  0.87439301789E+03  0.14960946276E+04  0.15294330000E+03 0.  0.
    8880022    1    1    2    0    0  0.93551989762E+03 -0.75838437035E+03  0.61936087600E+02  0.12155542209E+04  0.15294330000E+03 0.  0.
<mgrwt>
<rscale>  0 0.12139753E+04</rscale>
<asrwt>0</asrwt>
<pdfrwt beam="1">  1        1 0.28061368E+00 0.12139753E+04</pdfrwt>
<pdfrwt beam="2">  1       -1 0.13656306E+00 0.12139753E+04</pdfrwt>
<totfact> 0.17213965E+00</totfact>
</mgrwt>
</event>
<event>
 4    1  0.2731969E-009  0.1312462E+04  0.7818608E-02  0.9019740E-01
         -1   -1    0    0    0  501 -0.00000000000E+00  0.00000000000E+00  0.15168471183E+04  0.15168471183E+04  0.50400000000E-02 0.  1.
          1   -1    0    0  501    0  0.00000000000E+00 -0.00000000000E+00 -0.17191408183E+04  0.17191408184E+04  0.50400000000E-02 0. -1.
    8880022    1    1    2    0    0 -0.58640888081E+03  0.11641695463E+04 -0.10437966315E+04  0.16769225292E+04  0.15294330000E+03 0.  0.
    8880022    1    1    2    0    0  0.58640888081E+03 -0.11641695463E+04  0.84150293145E+03  0.15590654074E+04  0.15294330000E+03 0.  0.
<mgrwt>
<rscale>  0 0.13124625E+04</rscale>
<asrwt>0</asrwt>
<pdfrwt beam="1">  1        1 0.26448320E+00 0.13124625E+04</pdfrwt>
<pdfrwt beam="2">  1       -1 0.23336110E+00 0.13124625E+04</pdfrwt>
<totfact> 0.40069254E-01</totfact>
</mgrwt>
</event>
<event>
 4    1  0.2731969E-009  0.9265603E+03  0.7818608E-02  0.9392976E-01
          1   -1    0    0  501    0  0.00000000000E+00  0.00000000000E+00  0.12888740342E+04  0.12888740342E+04  0.50400000000E-02 0. -1.
         -1   -1    0    0    0  501 -0.00000000000E+00 -0.00000000000E+00 -0.70818831947E+03  0.70818831949E+03  0.50400000000E-02 0.  1.
    8880022    1    1    2    0    0 -0.77899664661E+02  0.91052396570E+03  0.46904829183E+02  0.92774671430E+03  0.15294330000E+03 0.  0.
    8880022    1    1    2    0    0  0.77899664661E+02 -0.91052396570E+03  0.53378088554E+03  0.10693156394E+04  0.15294330000E+03 0.  0.
<mgrwt>
<rscale>  0 0.92656025E+03</rscale>
<asrwt>0</asrwt>
<pdfrwt beam="1">  1        1 0.19828831E+00 0.92656025E+03</pdfrwt>
<pdfrwt beam="2">  1       -1 0.10895205E+00 0.92656025E+03</pdfrwt>
<totfact> 0.72829420E+00</totfact>
</mgrwt>
</event>
<event>
 4    1  0.2731969E-009  0.1056420E+04  0.7818608E-02  0.9248740E-01
          1   -1    0    0  501    0  0.00000000000E+00  0.00000000000E+00  0.31058658663E+04  0.31058658663E+04  0.50400000000E-02 0. -1.
         -1   -1    0    0    0  501 -0.00000000000E+00 -0.00000000000E+00 -0.51843797637E+03  0.51843797640E+03  0.50400000000E-02 0.  1.
    8880022    1    1    2    0    0  0.23190684811E+03  0.10192406077E+04  0.22976249615E+04  0.25288543492E+04  0.15294330000E+03 0.  0.
    8880022    1    1    2    0    0 -0.23190684811E+03 -0.10192406077E+04  0.28980292845E+03  0.10954494936E+04  0.15294330000E+03 0.  0.
<mgrwt>
<rscale>  0 0.10564203E+04</rscale>
<asrwt>0</asrwt>
<pdfrwt beam="1">  1        1 0.47782552E+00 0.10564203E+04</pdfrwt>
<pdfrwt beam="2">  1       -1 0.79759689E-01 0.10564203E+04</pdfrwt>
<totfact> 0.80080325E-01</totfact>
</mgrwt>
</event>
<event>
 4    1  0.2731969E-009  0.9079269E+03  0.7818608E-02  0.9415726E-01
          1   -1    0    0  501    0  0.00000000000E+00  0.00000000000E+00  0.12318173016E+04  0.12318173016E+04  0.50400000000E-02 0. -1.
         -1   -1    0    0    0  501 -0.00000000000E+00 -0.00000000000E+00 -0.88597273015E+03  0.88597273016E+03  0.50400000000E-02 0.  1.
    8880022    1    1    2    0    0  0.80970055792E+03 -0.38121471049E+03  0.69669844951E+03  0.11444300029E+04  0.15294330000E+03 0.  0.
    8880022    1    1    2    0    0 -0.80970055792E+03  0.38121471049E+03 -0.35085387807E+03  0.97336002885E+03  0.15294330000E+03 0.  0.
<mgrwt>
<rscale>  0 0.90792693E+03</rscale>
<asrwt>0</asrwt>
<pdfrwt beam="1">  1        1 0.18951035E+00 0.90792693E+03</pdfrwt>
<pdfrwt beam="2">  1       -1 0.13630350E+00 0.90792693E+03</pdfrwt>
<totfact> 0.46212260E+00</totfact>
</mgrwt>
</event>
<event>
 4    1  0.2731969E-009  0.5129752E+03  0.7818608E-02  0.1010447E+00
         -1   -1    0    0    0  501 -0.00000000000E+00  0.00000000000E+00  0.13359940236E+04  0.13359940236E+04  0.50400000000E-02 0.  1.
          1   -1    0    0  501    0  0.00000000000E+00 -0.00000000000E+00 -0.80512072171E+03  0.80512072173E+03  0.50400000000E-02 0. -1.
    8880022    1    1    2    0    0  0.15131656420E+03  0.46567711904E+03 -0.66500037441E+03  0.83986250826E+03  0.15294330000E+03 0. -1.
    8880022    1    1    2    0    0 -0.15131656420E+03 -0.46567711904E+03  0.11958736763E+04  0.13012522371E+04  0.15294330000E+03 0.  0.
<mgrwt>
<rscale>  0 0.51297518E+03</rscale>
<asrwt>0</asrwt>
<pdfrwt beam="1">  1        1 0.12386473E+00 0.51297518E+03</pdfrwt>
<pdfrwt beam="2">  1       -1 0.20553754E+00 0.51297518E+03</pdfrwt>
<totfact> 0.32890689E+00</totfact>
</mgrwt>
</event>
<event>
 4    1  0.2731969E-009  0.5082918E+03  0.7818608E-02  0.1011637E+00
         -1   -1    0    0    0  501 -0.00000000000E+00  0.00000000000E+00  0.99776199680E+03  0.99776199682E+03  0.50400000000E-02 0.  1.
          1   -1    0    0  501    0  0.00000000000E+00 -0.00000000000E+00 -0.68987378058E+03  0.68987378060E+03  0.50400000000E-02 0. -1.
    8880022    1    1    2    0    0 -0.20182838494E+03 -0.44072006224E+03 -0.51296885951E+03  0.72214788934E+03  0.15294330000E+03 0.  0.
    8880022    1    1    2    0    0  0.20182838494E+03  0.44072006224E+03  0.82085707574E+03  0.96548788808E+03  0.15294330000E+03 0.  0.
<mgrwt>
<rscale>  0 0.50829177E+03</rscale>
<asrwt>0</asrwt>
<pdfrwt beam="1">  1        1 0.10613443E+00 0.50829177E+03</pdfrwt>
<pdfrwt beam="2">  1       -1 0.15350185E+00 0.50829177E+03</pdfrwt>
<totfact> 0.97831711E+00</totfact>
</mgrwt>
</event>
<event>
 4    1  0.2731969E-009  0.1074242E+04  0.7818608E-02  0.9230667E-01
          1   -1    0    0  501    0  0.00000000000E+00  0.00000000000E+00  0.22800394052E+04  0.22800394052E+04  0.50400000000E-02 0. -1.
         -1   -1    0    0    0  501 -0.00000000000E+00 -0.00000000000E+00 -0.10765263687E+04  0.10765263687E+04  0.50400000000E-02 0.  1.
    8880022    1    1    2    0    0 -0.72866606771E+03 -0.77437074028E+03  0.18233909775E+04  0.21163058832E+04  0.15294330000E+03 0. -1.
    8880022    1    1    2    0    0  0.72866606771E+03  0.77437074028E+03 -0.61987794100E+03  0.12402598907E+04  0.15294330000E+03 0.  0.
<mgrwt>
<rscale>  0 0.10742420E+04</rscale>
<asrwt>0</asrwt>
<pdfrwt beam="1">  1        1 0.35077528E+00 0.10742420E+04</pdfrwt>
<pdfrwt beam="2">  1       -1 0.16561945E+00 0.10742420E+04</pdfrwt>
<totfact> 0.51075642E-01</totfact>
</mgrwt>
</event>
<event>
 4    1  0.2731969E-009  0.4866178E+03  0.7818608E-02  0.1017332E+00
          1   -1    0    0  501    0  0.00000000000E+00  0.00000000000E+00  0.14626519178E+04  0.14626519178E+04  0.50400000000E-02 0. -1.
         -1   -1    0    0    0  501 -0.00000000000E+00 -0.00000000000E+00 -0.76520721008E+03  0.76520721010E+03  0.50400000000E-02 0.  1.
    8880022    1    1    2    0    0 -0.44020233316E+03  0.14009703597E+03  0.13378197099E+04  0.14235724439E+04  0.15294330000E+03 0. -1.
    8880022    1    1    2    0    0  0.44020233316E+03 -0.14009703597E+03 -0.64037500223E+03  0.80428668403E+03  0.15294330000E+03 0.  0.
<mgrwt>
<rscale>  0 0.48661784E+03</rscale>
<asrwt>0</asrwt>
<pdfrwt beam="1">  1        1 0.22502337E+00 0.48661784E+03</pdfrwt>
<pdfrwt beam="2">  1       -1 0.11772419E+00 0.48661784E+03</pdfrwt>
<totfact> 0.49584928E+00</totfact>
</mgrwt>
</event>
<event>
 4    1  0.2731969E-009  0.1079359E+04  0.7818608E-02  0.9225547E-01
          1   -1    0    0  501    0  0.00000000000E+00  0.00000000000E+00  0.13842498445E+04  0.13842498445E+04  0.50400000000E-02 0. -1.
         -1   -1    0    0    0  501 -0.00000000000E+00 -0.00000000000E+00 -0.13327605648E+04  0.13327605648E+04  0.50400000000E-02 0.  1.
    8880022    1    1    2    0    0 -0.10390569458E+04 -0.24896688481E+03  0.85042782149E+03  0.13741335375E+04  0.15294330000E+03 0.  0.
    8880022    1    1    2    0    0  0.10390569458E+04  0.24896688481E+03 -0.79893854177E+03  0.13428768718E+04  0.15294330000E+03 0.  0.
<mgrwt>
<rscale>  0 0.10793588E+04</rscale>
<asrwt>0</asrwt>
<pdfrwt beam="1">  1        1 0.21296151E+00 0.10793588E+04</pdfrwt>
<pdfrwt beam="2">  1       -1 0.20504009E+00 0.10793588E+04</pdfrwt>
<totfact> 0.10900438E+00</totfact>
</mgrwt>
</event>
<event>
 4    1  0.2731969E-009  0.6590439E+03  0.7818608E-02  0.9789955E-01
         -1   -1    0    0    0  501 -0.00000000000E+00  0.00000000000E+00  0.31122784853E+03  0.31122784857E+03  0.50400000000E-02 0.  1.
          1   -1    0    0  501    0  0.00000000000E+00 -0.00000000000E+00 -0.22278872345E+04  0.22278872345E+04  0.50400000000E-02 0. -1.
    8880022    1    1    2    0    0  0.57430962859E+03  0.28480811651E+03 -0.17343112334E+04  0.18553097639E+04  0.15294330000E+03 0.  0.
    8880022    1    1    2    0    0 -0.57430962859E+03 -0.28480811651E+03 -0.18234815251E+03  0.68380531912E+03  0.15294330000E+03 0.  0.
<mgrwt>
<rscale>  0 0.65904390E+03</rscale>
<asrwt>0</asrwt>
<pdfrwt beam="1">  1        1 0.34275187E+00 0.65904390E+03</pdfrwt>
<pdfrwt beam="2">  1       -1 0.47881209E-01 0.65904390E+03</pdfrwt>
<totfact> 0.96897730E+00</totfact>
</mgrwt>
</event>
<event>
 4    1  0.2731969E-009  0.4290135E+03  0.7818608E-02  0.1034172E+00
         -1   -1    0    0    0  501 -0.00000000000E+00  0.00000000000E+00  0.27505889737E+03  0.27505889742E+03  0.50400000000E-02 0.  1.
          1   -1    0    0  501    0  0.00000000000E+00 -0.00000000000E+00 -0.20802232623E+04  0.20802232623E+04  0.50400000000E-02 0. -1.
    8880022    1    1    2    0    0  0.38813288120E+03 -0.10006911183E+03 -0.18724989312E+04  0.19210166217E+04  0.15294330000E+03 0.  0.
    8880022    1    1    2    0    0 -0.38813288120E+03  0.10006911183E+03  0.67334566322E+02  0.43426553794E+03  0.15294330000E+03 0.  0.
<mgrwt>
<rscale>  0 0.42901354E+03</rscale>
<asrwt>0</asrwt>
<pdfrwt beam="1">  1        1 0.32003434E+00 0.42901354E+03</pdfrwt>
<pdfrwt beam="2">  1       -1 0.42316755E-01 0.42901354E+03</pdfrwt>
<totfact> 0.16051684E+01</totfact>
</mgrwt>
</event>
<event>
 4    1  0.2731969E-009  0.9468956E+03  0.7818608E-02  0.9368786E-01
         -1   -1    0    0    0  501 -0.00000000000E+00  0.00000000000E+00  0.79658767207E+03  0.79658767209E+03  0.50400000000E-02 0.  1.
          1   -1    0    0  501    0  0.00000000000E+00 -0.00000000000E+00 -0.39286978106E+04  0.39286978106E+04  0.50400000000E-02 0. -1.
    8880022    1    1    2    0    0  0.68675696987E+03  0.63370695970E+03 -0.35617565150E+04  0.36854742940E+04  0.15294330000E+03 0. -1.
    8880022    1    1    2    0    0 -0.68675696987E+03 -0.63370695970E+03  0.42964637643E+03  0.10398111887E+04  0.15294330000E+03 0.  0.
<mgrwt>
<rscale>  0 0.94689561E+03</rscale>
<asrwt>0</asrwt>
<pdfrwt beam="1">  1        1 0.60441503E+00 0.94689561E+03</pdfrwt>
<pdfrwt beam="2">  1       -1 0.12255195E+00 0.94689561E+03</pdfrwt>
<totfact> 0.69282521E-02</totfact>
</mgrwt>
</event>
<event>
 4    1  0.2731969E-009  0.1984264E+04  0.7818608E-02  0.8614013E-01
         -1   -1    0    0    0  501 -0.00000000000E+00  0.00000000000E+00  0.16240949027E+04  0.16240949027E+04  0.50400000000E-02 0.  1.
          1   -1    0    0  501    0  0.00000000000E+00 -0.00000000000E+00 -0.30796944849E+04  0.30796944849E+04  0.50400000000E-02 0. -1.
    8880022    1    1    2    0    0 -0.16417061064E+04 -0.11039535999E+04 -0.18127585448E+04  0.26876379379E+04  0.15294330000E+03 0.  0.
    8880022    1    1    2    0    0  0.16417061064E+04  0.11039535999E+04  0.35715896264E+03  0.20161514497E+04  0.15294330000E+03 0.  0.
<mgrwt>
<rscale>  0 0.19842641E+04</rscale>
<asrwt>0</asrwt>
<pdfrwt beam="1">  1        1 0.47379915E+00 0.19842641E+04</pdfrwt>
<pdfrwt beam="2">  1       -1 0.24986075E+00 0.19842641E+04</pdfrwt>
<totfact> 0.32508847E-02</totfact>
</mgrwt>
</event>
<event>
 4    1  0.2731969E-009  0.5149753E+03  0.7818608E-02  0.1009942E+00
          1   -1    0    0  501    0  0.00000000000E+00  0.00000000000E+00  0.25374360563E+04  0.25374360563E+04  0.50400000000E-02 0. -1.
         -1   -1    0    0    0  501 -0.00000000000E+00 -0.00000000000E+00 -0.34990299036E+03  0.34990299040E+03  0.50400000000E-02 0.  1.
    8880022    1    1    2    0    0 -0.30091168685E+03  0.38892160779E+03  0.23027512981E+04  0.23596319743E+04  0.15294330000E+03 0.  0.
    8880022    1    1    2    0    0  0.30091168685E+03 -0.38892160779E+03 -0.11521823210E+03  0.52770707245E+03  0.15294330000E+03 0.  0.
<mgrwt>
<rscale>  0 0.51497526E+03</rscale>
<asrwt>0</asrwt>
<pdfrwt beam="1">  1        1 0.39037476E+00 0.51497526E+03</pdfrwt>
<pdfrwt beam="2">  1       -1 0.53831231E-01 0.51497526E+03</pdfrwt>
<totfact> 0.49621548E+00</totfact>
</mgrwt>
</event>
<event>
 4    1  0.2731969E-009  0.6767529E+03  0.7818608E-02  0.9757835E-01
         -1   -1    0    0    0  501 -0.00000000000E+00  0.00000000000E+00  0.27112687896E+03  0.27112687901E+03  0.50400000000E-02 0.  1.
          1   -1    0    0  501    0  0.00000000000E+00 -0.00000000000E+00 -0.29280946514E+04  0.29280946514E+04  0.50400000000E-02 0. -1.
    8880022    1    1    2    0    0  0.39595217375E+03  0.52709080356E+03 -0.23689655877E+04  0.24637354663E+04  0.15294330000E+03 0.  0.
    8880022    1    1    2    0    0 -0.39595217375E+03 -0.52709080356E+03 -0.28800218473E+03  0.73548606412E+03  0.15294330000E+03 0.  0.
<mgrwt>
<rscale>  0 0.67675290E+03</rscale>
<asrwt>0</asrwt>
<pdfrwt beam="1">  1        1 0.45047608E+00 0.67675290E+03</pdfrwt>
<pdfrwt beam="2">  1       -1 0.41711830E-01 0.67675290E+03</pdfrwt>
<totfact> 0.41207743E+00</totfact>
</mgrwt>
</event>
<event>
 4    1  0.2731969E-009  0.1111570E+04  0.7818608E-02  0.9193988E-01
          1   -1    0    0  501    0  0.00000000000E+00  0.00000000000E+00  0.14188084905E+04  0.14188084905E+04  0.50400000000E-02 0. -1.
         -1   -1    0    0    0  501 -0.00000000000E+00 -0.00000000000E+00 -0.11354885088E+04  0.11354885088E+04  0.50400000000E-02 0.  1.
    8880022    1    1    2    0    0  0.87537193894E+03  0.66777182092E+03 -0.47488733186E+03  0.12087617082E+04  0.15294330000E+03 0.  0.
    8880022    1    1    2    0    0 -0.87537193894E+03 -0.66777182092E+03  0.75820731349E+03  0.13455352911E+04  0.15294330000E+03 0.  0.
<mgrwt>
<rscale>  0 0.11115696E+04</rscale>
<asrwt>0</asrwt>
<pdfrwt beam="1">  1        1 0.21827823E+00 0.11115696E+04</pdfrwt>
<pdfrwt beam="2">  1       -1 0.17469054E+00 0.11115696E+04</pdfrwt>
<totfact> 0.16786370E+00</totfact>
</mgrwt>
</event>
<event>
 4    1  0.2731969E-009  0.3823720E+03  0.7818608E-02  0.1050061E+00
         -1   -1    0    0    0  501 -0.00000000000E+00  0.00000000000E+00  0.81733047349E+03  0.81733047351E+03  0.50400000000E-02 0.  1.
          1   -1    0    0  501    0  0.00000000000E+00 -0.00000000000E+00 -0.50756247321E+03  0.50756247324E+03  0.50400000000E-02 0. -1.
    8880022    1    1    2    0    0 -0.32033221822E+03 -0.14214052465E+03 -0.37819415795E+03  0.53780956937E+03  0.15294330000E+03 0. -1.
    8880022    1    1    2    0    0  0.32033221822E+03  0.14214052465E+03  0.68796215822E+03  0.78708337738E+03  0.15294330000E+03 0.  0.
<mgrwt>
<rscale>  0 0.38237195E+03</rscale>
<asrwt>0</asrwt>
<pdfrwt beam="1">  1        1 0.78086535E-01 0.38237195E+03</pdfrwt>
<pdfrwt beam="2">  1       -1 0.12574315E+00 0.38237195E+03</pdfrwt>
<totfact> 0.25840412E+01</totfact>
</mgrwt>
</event>
<event>
 4    1  0.2731969E-009  0.5225010E+03  0.7818608E-02  0.1008067E+00
         -1   -1    0    0    0  501 -0.00000000000E+00  0.00000000000E+00  0.17519364849E+04  0.17519364849E+04  0.50400000000E-02 0.  1.
          1   -1    0    0  501    0  0.00000000000E+00 -0.00000000000E+00 -0.71611118474E+03  0.71611118475E+03  0.50400000000E-02 0. -1.
    8880022    1    1    2    0    0 -0.15932926065E+03 -0.47352916513E+03 -0.57361730515E+03  0.77591504001E+03  0.15294330000E+03 0. -1.
    8880022    1    1    2    0    0  0.15932926065E+03  0.47352916513E+03  0.16094426053E+04  0.16921326297E+04  0.15294330000E+03 0.  0.
<mgrwt>
<rscale>  0 0.52250104E+03</rscale>
<asrwt>0</asrwt>
<pdfrwt beam="1">  1        1 0.11017095E+00 0.52250104E+03</pdfrwt>
<pdfrwt beam="2">  1       -1 0.26952869E+00 0.52250104E+03</pdfrwt>
<totfact> 0.15121640E+00</totfact>
</mgrwt>
</event>
<event>
 4    1  0.2731969E-009  0.1167751E+04  0.7818608E-02  0.9141562E-01
         -1   -1    0    0    0  501 -0.00000000000E+00  0.00000000000E+00  0.20911424526E+04  0.20911424526E+04  0.50400000000E-02 0.  1.
          1   -1    0    0  501    0  0.00000000000E+00 -0.00000000000E+00 -0.18713562128E+04  0.18713562129E+04  0.50400000000E-02 0. -1.
    8880022    1    1    2    0    0  0.22584319205E+03 -0.11354492679E+04  0.17091113135E+04  0.20699524927E+04  0.15294330000E+03 0.  1.
    8880022    1    1    2    0    0 -0.22584319205E+03  0.11354492679E+04 -0.14893250738E+04  0.18925461727E+04  0.15294330000E+03 0.  0.
<mgrwt>
<rscale>  0 0.11677508E+04</rscale>
<asrwt>0</asrwt>
<pdfrwt beam="1">  1        1 0.28790096E+00 0.11677508E+04</pdfrwt>
<pdfrwt beam="2">  1       -1 0.32171422E+00 0.11677508E+04</pdfrwt>
<totfact> 0.86241468E-02</totfact>
</mgrwt>
</event>
<event>
 4    1  0.2731969E-009  0.4597460E+03  0.7818608E-02  0.1024855E+00
          1   -1    0    0  501    0  0.00000000000E+00  0.00000000000E+00  0.11583124285E+04  0.11583124285E+04  0.50400000000E-02 0. -1.
         -1   -1    0    0    0  501 -0.00000000000E+00 -0.00000000000E+00 -0.19864286963E+03  0.19864286970E+03  0.50400000000E-02 0.  1.
    8880022    1    1    2    0    0  0.40947199452E+03 -0.14250421468E+03  0.28628774842E+03  0.54159679966E+03  0.15294330000E+03 0.  0.
    8880022    1    1    2    0    0 -0.40947199452E+03  0.14250421468E+03  0.67338181046E+03  0.81535849855E+03  0.15294330000E+03 0.  0.
<mgrwt>
<rscale>  0 0.45974604E+03</rscale>
<asrwt>0</asrwt>
<pdfrwt beam="1">  1        1 0.17820191E+00 0.45974604E+03</pdfrwt>
<pdfrwt beam="2">  1       -1 0.30560441E-01 0.45974604E+03</pdfrwt>
<totfact> 0.11884949E+02</totfact>
</mgrwt>
</event>
<event>
 4    1  0.2731969E-009  0.6942830E+03  0.7818608E-02  0.9727059E-01
         -1   -1    0    0    0  501 -0.00000000000E+00  0.00000000000E+00  0.48762609088E+03  0.48762609091E+03  0.50400000000E-02 0.  1.
          1   -1    0    0  501    0  0.00000000000E+00 -0.00000000000E+00 -0.13214374904E+04  0.13214374904E+04  0.50400000000E-02 0. -1.
    8880022    1    1    2    0    0  0.67483130397E+03  0.56920962542E+02  0.37106754755E+02  0.69527393814E+03  0.15294330000E+03 0.  0.
    8880022    1    1    2    0    0 -0.67483130397E+03 -0.56920962542E+02 -0.87091815427E+03  0.11137896432E+04  0.15294330000E+03 0.  0.
<mgrwt>
<rscale>  0 0.69428304E+03</rscale>
<asrwt>0</asrwt>
<pdfrwt beam="1">  1        1 0.20329807E+00 0.69428304E+03</pdfrwt>
<pdfrwt beam="2">  1       -1 0.75019399E-01 0.69428304E+03</pdfrwt>
<totfact> 0.16254562E+01</totfact>
</mgrwt>
</event>
<event>
 4    1  0.2731969E-009  0.6137539E+03  0.7818608E-02  0.9877275E-01
         -1   -1    0    0    0  501 -0.00000000000E+00  0.00000000000E+00  0.64996754722E+03  0.64996754724E+03  0.50400000000E-02 0.  1.
          1   -1    0    0  501    0  0.00000000000E+00 -0.00000000000E+00 -0.14284420036E+04  0.14284420036E+04  0.50400000000E-02 0. -1.
    8880022    1    1    2    0    0  0.42889185099E+03  0.41152644816E+03  0.41187618466E+03  0.73914537264E+03  0.15294330000E+03 0.  0.
    8880022    1    1    2    0    0 -0.42889185099E+03 -0.41152644816E+03 -0.11903506410E+04  0.13392641782E+04  0.15294330000E+03 0. -1.
<mgrwt>
<rscale>  0 0.61375393E+03</rscale>
<asrwt>0</asrwt>
<pdfrwt beam="1">  1        1 0.21976031E+00 0.61375393E+03</pdfrwt>
<pdfrwt beam="2">  1       -1 0.99995007E-01 0.61375393E+03</pdfrwt>
<totfact> 0.74409887E+00</totfact>
</mgrwt>
</event>
<event>
 4    1  0.2731969E-009  0.4978736E+03  0.7818608E-02  0.1014335E+00
          1   -1    0    0  501    0  0.00000000000E+00  0.00000000000E+00  0.23394778318E+04  0.23394778318E+04  0.50400000000E-02 0. -1.
         -1   -1    0    0    0  501 -0.00000000000E+00 -0.00000000000E+00 -0.27152510103E+03  0.27152510107E+03  0.50400000000E-02 0.  1.
    8880022    1    1    2    0    0  0.18083496362E+03  0.43793284407E+03  0.14530812592E+02  0.49808559255E+03  0.15294330000E+03 0.  0.
    8880022    1    1    2    0    0 -0.18083496362E+03 -0.43793284407E+03  0.20534219182E+04  0.21129173404E+04  0.15294330000E+03 0.  0.
<mgrwt>
<rscale>  0 0.49787359E+03</rscale>
<asrwt>0</asrwt>
<pdfrwt beam="1">  1        1 0.35991968E+00 0.49787359E+03</pdfrwt>
<pdfrwt beam="2">  1       -1 0.41773091E-01 0.49787359E+03</pdfrwt>
<totfact> 0.10862957E+01</totfact>
</mgrwt>
</event>
<event>
 4    1  0.2731969E-009  0.9518658E+03  0.7818608E-02  0.9362972E-01
         -1   -1    0    0    0  501 -0.00000000000E+00  0.00000000000E+00  0.57664841153E+03  0.57664841155E+03  0.50400000000E-02 0.  1.
          1   -1    0    0  501    0  0.00000000000E+00 -0.00000000000E+00 -0.47315426000E+04  0.47315426000E+04  0.50400000000E-02 0. -1.
    8880022    1    1    2    0    0 -0.82148727787E+03  0.45586795635E+03 -0.42465493923E+04  0.43519226022E+04  0.15294330000E+03 0.  0.
    8880022    1    1    2    0    0  0.82148727787E+03 -0.45586795635E+03  0.91655203822E+02  0.95626840936E+03  0.15294330000E+03 0.  0.
<mgrwt>
<rscale>  0 0.95186585E+03</rscale>
<asrwt>0</asrwt>
<pdfrwt beam="1">  1        1 0.72792960E+00 0.95186585E+03</pdfrwt>
<pdfrwt beam="2">  1       -1 0.88715143E-01 0.95186585E+03</pdfrwt>
<totfact> 0.24838230E-02</totfact>
</mgrwt>
</event>
<event>
 4    1  0.2731969E-009  0.4177979E+03  0.7818608E-02  0.1037785E+00
         -1   -1    0    0    0  501 -0.00000000000E+00  0.00000000000E+00  0.84692599453E+03  0.84692599454E+03  0.50400000000E-02 0.  1.
          1   -1    0    0  501    0  0.00000000000E+00 -0.00000000000E+00 -0.57402715180E+03  0.57402715182E+03  0.50400000000E-02 0. -1.
    8880022    1    1    2    0    0 -0.27896975769E+03 -0.27081227242E+03  0.70525250560E+03  0.81971712332E+03  0.15294330000E+03 0.  1.
    8880022    1    1    2    0    0  0.27896975769E+03  0.27081227242E+03 -0.43235366287E+03  0.60123602305E+03  0.15294330000E+03 0.  0.
<mgrwt>
<rscale>  0 0.41779788E+03</rscale>
<asrwt>0</asrwt>
<pdfrwt beam="1">  1        1 0.88311870E-01 0.41779788E+03</pdfrwt>
<pdfrwt beam="2">  1       -1 0.13029631E+00 0.41779788E+03</pdfrwt>
<totfact> 0.19841141E+01</totfact>
</mgrwt>
</event>
<event>
 4    1  0.2731969E-009  0.6757180E+03  0.7818608E-02  0.9759683E-01
          1   -1    0    0  501    0  0.00000000000E+00  0.00000000000E+00  0.19032345886E+04  0.19032345886E+04  0.50400000000E-02 0. -1.
         -1   -1    0    0    0  501 -0.00000000000E+00 -0.00000000000E+00 -0.77595684457E+03  0.77595684458E+03  0.50400000000E-02 0.  1.
    8880022    1    1    2    0    0 -0.62772629183E+03  0.19789617881E+03 -0.54977980195E+03  0.87112150627E+03  0.15294330000E+03 0.  0.
    8880022    1    1    2    0    0  0.62772629183E+03 -0.19789617881E+03  0.16770575460E+04  0.18080699269E+04  0.15294330000E+03 0. -1.
<mgrwt>
<rscale>  0 0.67571802E+03</rscale>
<asrwt>0</asrwt>
<pdfrwt beam="1">  1        1 0.29280532E+00 0.67571802E+03</pdfrwt>
<pdfrwt beam="2">  1       -1 0.11937798E+00 0.67571802E+03</pdfrwt>
<totfact> 0.23219726E+00</totfact>
</mgrwt>
</event>
<event>
 4    1  0.2731969E-009  0.2956809E+03  0.7818608E-02  0.1087420E+00
          1   -1    0    0  501    0  0.00000000000E+00  0.00000000000E+00  0.13438470595E+04  0.13438470596E+04  0.50400000000E-02 0. -1.
         -1   -1    0    0    0  501 -0.00000000000E+00 -0.00000000000E+00 -0.19574497144E+03  0.19574497150E+03  0.50400000000E-02 0.  1.
    8880022    1    1    2    0    0 -0.11887243465E+03 -0.22339403040E+03  0.12030464716E+04  0.12388494720E+04  0.15294330000E+03 0.  0.
    8880022    1    1    2    0    0  0.11887243465E+03  0.22339403040E+03 -0.54944383445E+02  0.30074255906E+03  0.15294330000E+03 0.  1.
<mgrwt>
<rscale>  0 0.29568091E+03</rscale>
<asrwt>0</asrwt>
<pdfrwt beam="1">  1        1 0.20674570E+00 0.29568091E+03</pdfrwt>
<pdfrwt beam="2">  1       -1 0.30114612E-01 0.29568091E+03</pdfrwt>
<totfact> 0.92995729E+01</totfact>
</mgrwt>
</event>
<event>
 4    1  0.2731969E-009  0.4812791E+03  0.7818608E-02  0.1018784E+00
         -1   -1    0    0    0  501 -0.00000000000E+00  0.00000000000E+00  0.27952231031E+04  0.27952231031E+04  0.50400000000E-02 0.  1.
          1   -1    0    0  501    0  0.00000000000E+00 -0.00000000000E+00 -0.41907015657E+03  0.41907015661E+03  0.50400000000E-02 0. -1.
    8880022    1    1    2    0    0  0.43852312993E+03  0.12623537967E+03  0.26275826572E+04  0.26712955995E+04  0.15294330000E+03 0.  0.
    8880022    1    1    2    0    0 -0.43852312993E+03 -0.12623537967E+03 -0.25142971066E+03  0.54299766020E+03  0.15294330000E+03 0. -1.
<mgrwt>
<rscale>  0 0.48127909E+03</rscale>
<asrwt>0</asrwt>
<pdfrwt beam="1">  1        1 0.64472331E-01 0.48127909E+03</pdfrwt>
<pdfrwt beam="2">  1       -1 0.43003433E+00 0.48127909E+03</pdfrwt>
<totfact> 0.28923453E-01</totfact>
</mgrwt>
</event>
<event>
 4    1  0.2731969E-009  0.2016089E+03  0.7818608E-02  0.1148389E+00
         -1   -1    0    0    0  501 -0.00000000000E+00  0.00000000000E+00  0.61277770623E+03  0.61277770625E+03  0.50400000000E-02 0.  1.
          1   -1    0    0  501    0  0.00000000000E+00 -0.00000000000E+00 -0.13804485581E+03  0.13804485590E+03  0.50400000000E-02 0. -1.
    8880022    1    1    2    0    0  0.12496806899E+03  0.40465837924E+02 -0.33215483235E+02  0.20432675705E+03  0.15294330000E+03 0.  0.
    8880022    1    1    2    0    0 -0.12496806899E+03 -0.40465837924E+02  0.50794833365E+03  0.54649580509E+03  0.15294330000E+03 0.  1.
<mgrwt>
<rscale>  0 0.20160892E+03</rscale>
<asrwt>0</asrwt>
<pdfrwt beam="1">  1        1 0.21237670E-01 0.20160892E+03</pdfrwt>
<pdfrwt beam="2">  1       -1 0.94273495E-01 0.20160892E+03</pdfrwt>
<totfact> 0.27372493E+02</totfact>
</mgrwt>
</event>
<event>
 4    1  0.2731969E-009  0.4636440E+03  0.7818608E-02  0.1023730E+00
          1   -1    0    0  501    0  0.00000000000E+00  0.00000000000E+00  0.57129479203E+03  0.57129479205E+03  0.50400000000E-02 0. -1.
         -1   -1    0    0    0  501 -0.00000000000E+00 -0.00000000000E+00 -0.92059172802E+03  0.92059172804E+03  0.50400000000E-02 0.  1.
    8880022    1    1    2    0    0 -0.21441029334E+03  0.38157870831E+03  0.39893529797E+03  0.61164949890E+03  0.15294330000E+03 0.  0.
    8880022    1    1    2    0    0  0.21441029334E+03 -0.38157870831E+03 -0.74823223396E+03  0.88023702119E+03  0.15294330000E+03 0.  0.
<mgrwt>
<rscale>  0 0.46364398E+03</rscale>
<asrwt>0</asrwt>
<pdfrwt beam="1">  1        1 0.87891506E-01 0.46364398E+03</pdfrwt>
<pdfrwt beam="2">  1       -1 0.14162950E+00 0.46364398E+03</pdfrwt>
<totfact> 0.16017852E+01</totfact>
</mgrwt>
</event>
<event>
 4    1  0.2731969E-009  0.6237424E+03  0.7818608E-02  0.9857337E-01
         -1   -1    0    0    0  501 -0.00000000000E+00  0.00000000000E+00  0.58058411999E+03  0.58058412001E+03  0.50400000000E-02 0.  1.
          1   -1    0    0  501    0  0.00000000000E+00 -0.00000000000E+00 -0.22721907695E+04  0.22721907695E+04  0.50400000000E-02 0. -1.
    8880022    1    1    2    0    0  0.44335338967E+03 -0.41121858883E+03  0.35192262578E+03  0.71617326359E+03  0.15294330000E+03 0.  0.
    8880022    1    1    2    0    0 -0.44335338967E+03  0.41121858883E+03 -0.20435292753E+04  0.21366016259E+04  0.15294330000E+03 0.  0.
<mgrwt>
<rscale>  0 0.62374242E+03</rscale>
<asrwt>0</asrwt>
<pdfrwt beam="1">  1        1 0.34956781E+00 0.62374242E+03</pdfrwt>
<pdfrwt beam="2">  1       -1 0.89320635E-01 0.62374242E+03</pdfrwt>
<totfact> 0.25976500E+00</totfact>
</mgrwt>
</event>
<event>
 4    1  0.2731969E-009  0.5946318E+03  0.7818608E-02  0.9916606E-01
          1   -1    0    0  501    0  0.00000000000E+00  0.00000000000E+00  0.92059154808E+03  0.92059154809E+03  0.50400000000E-02 0. -1.
         -1   -1    0    0    0  501 -0.00000000000E+00 -0.00000000000E+00 -0.41101801398E+03  0.41101801401E+03  0.50400000000E-02 0.  1.
    8880022    1    1    2    0    0  0.12568049091E+02  0.57448875714E+03  0.42521655565E+03  0.73102398056E+03  0.15294330000E+03 0.  0.
    8880022    1    1    2    0    0 -0.12568049091E+02 -0.57448875714E+03  0.84356978449E+02  0.60058558155E+03  0.15294330000E+03 0.  0.
<mgrwt>
<rscale>  0 0.59463177E+03</rscale>
<asrwt>0</asrwt>
<pdfrwt beam="1">  1        1 0.14162947E+00 0.59463177E+03</pdfrwt>
<pdfrwt beam="2">  1       -1 0.63233542E-01 0.59463177E+03</pdfrwt>
<totfact> 0.46260268E+01</totfact>
</mgrwt>
</event>
<event>
 4    1  0.2731969E-009  0.1296914E+04  0.7818608E-02  0.9032016E-01
          1   -1    0    0  501    0  0.00000000000E+00  0.00000000000E+00  0.26218573441E+04  0.26218573441E+04  0.50400000000E-02 0. -1.
         -1   -1    0    0    0  501 -0.00000000000E+00 -0.00000000000E+00 -0.73072990721E+03  0.73072990722E+03  0.50400000000E-02 0.  1.
    8880022    1    1    2    0    0 -0.12151000345E+04 -0.42676321873E+03  0.15312518648E+04  0.20066685988E+04  0.15294330000E+03 0.  0.
    8880022    1    1    2    0    0  0.12151000345E+04  0.42676321873E+03  0.35987557204E+03  0.13459186525E+04  0.15294330000E+03 0.  0.
<mgrwt>
<rscale>  0 0.12969143E+04</rscale>
<asrwt>0</asrwt>
<pdfrwt beam="1">  1        1 0.40336266E+00 0.12969143E+04</pdfrwt>
<pdfrwt beam="2">  1       -1 0.11241999E+00 0.12969143E+04</pdfrwt>
<totfact> 0.78946489E-01</totfact>
</mgrwt>
</event>
<event>
 4    1  0.2731969E-009  0.4553556E+03  0.7818608E-02  0.1026137E+00
          1   -1    0    0  501    0  0.00000000000E+00  0.00000000000E+00  0.27618708103E+03  0.27618708108E+03  0.50400000000E-02 0. -1.
         -1   -1    0    0    0  501 -0.00000000000E+00 -0.00000000000E+00 -0.18863038332E+04  0.18863038332E+04  0.50400000000E-02 0.  1.
    8880022    1    1    2    0    0 -0.40635788514E+03  0.13722368084E+03 -0.16439801292E+04  0.17058778935E+04  0.15294330000E+03 0.  0.
    8880022    1    1    2    0    0  0.40635788514E+03 -0.13722368084E+03  0.33863377037E+02  0.45661302075E+03  0.15294330000E+03 0.  0.
<mgrwt>
<rscale>  0 0.45535560E+03</rscale>
<asrwt>0</asrwt>
<pdfrwt beam="1">  1        1 0.42490321E-01 0.45535560E+03</pdfrwt>
<pdfrwt beam="2">  1       -1 0.29020058E+00 0.45535560E+03</pdfrwt>
<totfact> 0.41252491E+00</totfact>
</mgrwt>
</event>
<event>
 4    1  0.2731969E-009  0.1131952E+04  0.7818608E-02  0.9174597E-01
          1   -1    0    0  501    0  0.00000000000E+00  0.00000000000E+00  0.23177907968E+04  0.23177907968E+04  0.50400000000E-02 0. -1.
         -1   -1    0    0    0  501 -0.00000000000E+00 -0.00000000000E+00 -0.96244393458E+03  0.96244393460E+03  0.50400000000E-02 0.  1.
    8880022    1    1    2    0    0  0.34384139539E+01 -0.11215662048E+04 -0.39232081721E+03  0.11980107893E+04  0.15294330000E+03 0.  0.
    8880022    1    1    2    0    0 -0.34384139539E+01  0.11215662048E+04  0.17476676795E+04  0.20822239422E+04  0.15294330000E+03 0.  0.
<mgrwt>
<rscale>  0 0.11319515E+04</rscale>
<asrwt>0</asrwt>
<pdfrwt beam="1">  1        1 0.35658319E+00 0.11319515E+04</pdfrwt>
<pdfrwt beam="2">  1       -1 0.14806830E+00 0.11319515E+04</pdfrwt>
<totfact> 0.65042579E-01</totfact>
</mgrwt>
</event>
<event>
 4    1  0.2731969E-009  0.1114399E+04  0.7818608E-02  0.9191270E-01
         -1   -1    0    0    0  501 -0.00000000000E+00  0.00000000000E+00  0.18782462587E+04  0.18782462587E+04  0.50400000000E-02 0.  1.
          1   -1    0    0  501    0  0.00000000000E+00 -0.00000000000E+00 -0.82973054934E+03  0.82973054936E+03  0.50400000000E-02 0. -1.
    8880022    1    1    2    0    0  0.27954646189E+03 -0.10678708009E+04 -0.85971263374E+02  0.11177105989E+04  0.15294330000E+03 0.  0.
    8880022    1    1    2    0    0 -0.27954646189E+03  0.10678708009E+04  0.11344869727E+04  0.15902662091E+04  0.15294330000E+03 0.  0.
<mgrwt>
<rscale>  0 0.11143994E+04</rscale>
<asrwt>0</asrwt>
<pdfrwt beam="1">  1        1 0.12765085E+00 0.11143994E+04</pdfrwt>
<pdfrwt beam="2">  1       -1 0.28896096E+00 0.11143994E+04</pdfrwt>
<totfact> 0.80863609E-01</totfact>
</mgrwt>
</event>
<event>
 4    1  0.2731969E-009  0.1312848E+04  0.7818608E-02  0.9019438E-01
         -1   -1    0    0    0  501 -0.00000000000E+00  0.00000000000E+00  0.98077537158E+03  0.98077537160E+03  0.50400000000E-02 0.  1.
          1   -1    0    0  501    0  0.00000000000E+00 -0.00000000000E+00 -0.21424441374E+04  0.21424441374E+04  0.50400000000E-02 0. -1.
    8880022    1    1    2    0    0 -0.12563426903E+04 -0.34897358655E+03 -0.12428953879E+04  0.18078606467E+04  0.15294330000E+03 0.  0.
    8880022    1    1    2    0    0  0.12563426903E+04  0.34897358655E+03  0.81226622129E+02  0.13153588623E+04  0.15294330000E+03 0.  0.
<mgrwt>
<rscale>  0 0.13128485E+04</rscale>
<asrwt>0</asrwt>
<pdfrwt beam="1">  1        1 0.32960679E+00 0.13128485E+04</pdfrwt>
<pdfrwt beam="2">  1       -1 0.15088852E+00 0.13128485E+04</pdfrwt>
<totfact> 0.79402344E-01</totfact>
</mgrwt>
</event>
<event>
 4    1  0.2731969E-009  0.1582453E+04  0.7818608E-02  0.8831401E-01
         -1   -1    0    0    0  501 -0.00000000000E+00  0.00000000000E+00  0.20384117248E+04  0.20384117248E+04  0.50400000000E-02 0.  1.
          1   -1    0    0  501    0  0.00000000000E+00 -0.00000000000E+00 -0.13342799294E+04  0.13342799294E+04  0.50400000000E-02 0. -1.
    8880022    1    1    2    0    0  0.14796822739E+04  0.53972834368E+03 -0.12278345687E+03  0.15872094213E+04  0.15294330000E+03 0.  0.
    8880022    1    1    2    0    0 -0.14796822739E+04 -0.53972834368E+03  0.82691525233E+03  0.17854822330E+04  0.15294330000E+03 0.  0.
<mgrwt>
<rscale>  0 0.15824531E+04</rscale>
<asrwt>0</asrwt>
<pdfrwt beam="1">  1        1 0.20527384E+00 0.15824531E+04</pdfrwt>
<pdfrwt beam="2">  1       -1 0.31360180E+00 0.15824531E+04</pdfrwt>
<totfact> 0.21623307E-01</totfact>
</mgrwt>
</event>
<event>
 4    1  0.2731969E-009  0.6500140E+03  0.7818608E-02  0.9806753E-01
         -1   -1    0    0    0  501 -0.00000000000E+00  0.00000000000E+00  0.37309465313E+03  0.37309465317E+03  0.50400000000E-02 0.  1.
          1   -1    0    0  501    0  0.00000000000E+00 -0.00000000000E+00 -0.22318324532E+04  0.22318324532E+04  0.50400000000E-02 0. -1.
    8880022    1    1    2    0    0  0.25243477686E+03  0.57914004752E+03 -0.15244262984E+02  0.65019270357E+03  0.15294330000E+03 0.  0.
    8880022    1    1    2    0    0 -0.25243477686E+03 -0.57914004752E+03 -0.18434935371E+04  0.19547344028E+04  0.15294330000E+03 0. -1.
<mgrwt>
<rscale>  0 0.65001397E+03</rscale>
<asrwt>0</asrwt>
<pdfrwt beam="1">  1        1 0.34335883E+00 0.65001397E+03</pdfrwt>
<pdfrwt beam="2">  1       -1 0.57399179E-01 0.65001397E+03</pdfrwt>
<totfact> 0.68263591E+00</totfact>
</mgrwt>
</event>
<event>
 4    1  0.2731969E-009  0.9924011E+03  0.7818608E-02  0.9316919E-01
         -1   -1    0    0    0  501 -0.00000000000E+00  0.00000000000E+00  0.58486713228E+03  0.58486713230E+03  0.50400000000E-02 0.  1.
          1   -1    0    0  501    0  0.00000000000E+00 -0.00000000000E+00 -0.18994598131E+04  0.18994598131E+04  0.50400000000E-02 0. -1.
    8880022    1    1    2    0    0 -0.39119776761E+03 -0.89912875375E+03 -0.23884594298E+03  0.10207385790E+04  0.15294330000E+03 0.  0.
    8880022    1    1    2    0    0  0.39119776761E+03  0.89912875375E+03 -0.10757467378E+04  0.14635883664E+04  0.15294330000E+03 0.  0.
<mgrwt>
<rscale>  0 0.99240106E+03</rscale>
<asrwt>0</asrwt>
<pdfrwt beam="1">  1        1 0.29222458E+00 0.99240106E+03</pdfrwt>
<pdfrwt beam="2">  1       -1 0.89979560E-01 0.99240106E+03</pdfrwt>
<totfact> 0.42605987E+00</totfact>
</mgrwt>
</event>
<event>
 4    1  0.2731969E-009  0.6879786E+03  0.7818608E-02  0.9738014E-01
         -1   -1    0    0    0  501 -0.00000000000E+00  0.00000000000E+00  0.10308978376E+04  0.10308978376E+04  0.50400000000E-02 0.  1.
          1   -1    0    0  501    0  0.00000000000E+00 -0.00000000000E+00 -0.48873730979E+03  0.48873730981E+03  0.50400000000E-02 0. -1.
    8880022    1    1    2    0    0 -0.67074000259E+03  0.55424486951E+01  0.84062675035E+02  0.69309527207E+03  0.15294330000E+03 0.  0.
    8880022    1    1    2    0    0  0.67074000259E+03 -0.55424486951E+01  0.45809785275E+03  0.82653987534E+03  0.15294330000E+03 0.  0.
<mgrwt>
<rscale>  0 0.68797858E+03</rscale>
<asrwt>0</asrwt>
<pdfrwt beam="1">  1        1 0.75190356E-01 0.68797858E+03</pdfrwt>
<pdfrwt beam="2">  1       -1 0.15859967E+00 0.68797858E+03</pdfrwt>
<totfact> 0.14190593E+01</totfact>
</mgrwt>
</event>
<event>
 4    1  0.2731969E-009  0.9125584E+03  0.7818608E-02  0.9410018E-01
          1   -1    0    0  501    0  0.00000000000E+00  0.00000000000E+00  0.12846819821E+04  0.12846819821E+04  0.50400000000E-02 0. -1.
         -1   -1    0    0    0  501 -0.00000000000E+00 -0.00000000000E+00 -0.88987451329E+03  0.88987451330E+03  0.50400000000E-02 0.  1.
    8880022    1    1    2    0    0 -0.87056876191E+03 -0.22689464779E+03  0.76399437961E+03  0.11901471403E+04  0.15294330000E+03 0.  0.
    8880022    1    1    2    0    0  0.87056876191E+03  0.22689464779E+03 -0.36918691078E+03  0.98440935515E+03  0.15294330000E+03 0.  0.
<mgrwt>
<rscale>  0 0.91255838E+03</rscale>
<asrwt>0</asrwt>
<pdfrwt beam="1">  1        1 0.19764338E+00 0.91255838E+03</pdfrwt>
<pdfrwt beam="2">  1       -1 0.13690377E+00 0.91255838E+03</pdfrwt>
<totfact> 0.41843787E+00</totfact>
</mgrwt>
</event>
<event>
 4    1  0.2731969E-009  0.1210222E+04  0.7818608E-02  0.9103956E-01
         -1   -1    0    0    0  501 -0.00000000000E+00  0.00000000000E+00  0.84744086430E+03  0.84744086431E+03  0.50400000000E-02 0.  1.
          1   -1    0    0  501    0  0.00000000000E+00 -0.00000000000E+00 -0.30749972463E+04  0.30749972463E+04  0.50400000000E-02 0. -1.
    8880022    1    1    2    0    0  0.12392633651E+03 -0.11941059129E+04  0.18411074618E+03  0.12241466775E+04  0.15294330000E+03 0.  0.
    8880022    1    1    2    0    0 -0.12392633651E+03  0.11941059129E+04 -0.24116671282E+04  0.26982914331E+04  0.15294330000E+03 0.  0.
<mgrwt>
<rscale>  0 0.12102224E+04</rscale>
<asrwt>0</asrwt>
<pdfrwt beam="1">  1        1 0.47307650E+00 0.12102224E+04</pdfrwt>
<pdfrwt beam="2">  1       -1 0.13037552E+00 0.12102224E+04</pdfrwt>
<totfact> 0.26335475E-01</totfact>
</mgrwt>
</event>
<event>
 4    1  0.2731969E-009  0.4149631E+03  0.7818608E-02  0.1038718E+00
          1   -1    0    0  501    0  0.00000000000E+00  0.00000000000E+00  0.29237818832E+03  0.29237818836E+03  0.50400000000E-02 0. -1.
         -1   -1    0    0    0  501 -0.00000000000E+00 -0.00000000000E+00 -0.85110632918E+03  0.85110632919E+03  0.50400000000E-02 0.  1.
    8880022    1    1    2    0    0 -0.38500849902E+03  0.23899766219E+02  0.37953032103E+02  0.41669512693E+03  0.15294330000E+03 0.  0.
    8880022    1    1    2    0    0  0.38500849902E+03 -0.23899766219E+02 -0.59668117296E+03  0.72678939062E+03  0.15294330000E+03 0.  0.
<mgrwt>
<rscale>  0 0.41496313E+03</rscale>
<asrwt>0</asrwt>
<pdfrwt beam="1">  1        1 0.44981260E-01 0.41496313E+03</pdfrwt>
<pdfrwt beam="2">  1       -1 0.13093943E+00 0.41496313E+03</pdfrwt>
<totfact> 0.47732513E+01</totfact>
</mgrwt>
</event>
<event>
 4    1  0.2731969E-009  0.4674009E+03  0.7818608E-02  0.1022656E+00
          1   -1    0    0  501    0  0.00000000000E+00  0.00000000000E+00  0.16705480423E+04  0.16705480423E+04  0.50400000000E-02 0. -1.
         -1   -1    0    0    0  501 -0.00000000000E+00 -0.00000000000E+00 -0.13469309450E+03  0.13469309459E+03  0.50400000000E-02 0.  1.
    8880022    1    1    2    0    0  0.41272101153E+03  0.15726836298E+03  0.92190104072E+03  0.10336175082E+04  0.15294330000E+03 0.  0.
    8880022    1    1    2    0    0 -0.41272101153E+03 -0.15726836298E+03  0.61395390712E+03  0.77162362874E+03  0.15294330000E+03 0.  0.
<mgrwt>
<rscale>  0 0.46740092E+03</rscale>
<asrwt>0</asrwt>
<pdfrwt beam="1">  1        1 0.25700738E+00 0.46740092E+03</pdfrwt>
<pdfrwt beam="2">  1       -1 0.20722015E-01 0.46740092E+03</pdfrwt>
<totfact> 0.10193226E+02</totfact>
</mgrwt>
</event>
<event>
 4    1  0.2731969E-009  0.2176198E+03  0.7818608E-02  0.1135670E+00
         -1   -1    0    0    0  501 -0.00000000000E+00  0.00000000000E+00  0.40862937555E+02  0.40862937866E+02  0.50400000000E-02 0.  1.
          1   -1    0    0  501    0  0.00000000000E+00 -0.00000000000E+00 -0.16516876086E+04  0.16516876087E+04  0.50400000000E-02 0. -1.
    8880022    1    1    2    0    0  0.15449250853E+03 -0.99396412122E+01 -0.12676363445E+04  0.12861805031E+04  0.15294330000E+03 0.  1.
    8880022    1    1    2    0    0 -0.15449250853E+03  0.99396412122E+01 -0.34318832659E+03  0.40637004341E+03  0.15294330000E+03 0.  1.
<mgrwt>
<rscale>  0 0.21761982E+03</rscale>
<asrwt>0</asrwt>
<pdfrwt beam="1">  1        1 0.25410573E+00 0.21761982E+03</pdfrwt>
<pdfrwt beam="2">  1       -1 0.62866071E-02 0.21761982E+03</pdfrwt>
<totfact> 0.71230739E+02</totfact>
</mgrwt>
</event>
<event>
 4    1  0.2731969E-009  0.6374977E+03  0.7818608E-02  0.9830526E-01
          1   -1    0    0  501    0  0.00000000000E+00  0.00000000000E+00  0.22247534545E+04  0.22247534545E+04  0.50400000000E-02 0. -1.
         -1   -1    0    0    0  501 -0.00000000000E+00 -0.00000000000E+00 -0.10941928940E+04  0.10941928940E+04  0.50400000000E-02 0.  1.
    8880022    1    1    2    0    0  0.50568838302E+03  0.35677853548E+03 -0.94934871902E+03  0.11435323814E+04  0.15294330000E+03 0.  0.
    8880022    1    1    2    0    0 -0.50568838302E+03 -0.35677853548E+03  0.20799092795E+04  0.21754139670E+04  0.15294330000E+03 0.  0.
<mgrwt>
<rscale>  0 0.63749770E+03</rscale>
<asrwt>0</asrwt>
<pdfrwt beam="1">  1        1 0.34226976E+00 0.63749770E+03</pdfrwt>
<pdfrwt beam="2">  1       -1 0.16833737E+00 0.63749770E+03</pdfrwt>
<totfact> 0.58184667E-01</totfact>
</mgrwt>
</event>
<event>
 4    1  0.2731969E-009  0.4673175E+03  0.7818608E-02  0.1022680E+00
          1   -1    0    0  501    0  0.00000000000E+00  0.00000000000E+00  0.82814554412E+03  0.82814554414E+03  0.50400000000E-02 0. -1.
         -1   -1    0    0    0  501 -0.00000000000E+00 -0.00000000000E+00 -0.83858692404E+03  0.83858692406E+03  0.50400000000E-02 0.  1.
    8880022    1    1    2    0    0 -0.14794622864E+03  0.41606000973E+03  0.68478296074E+03  0.82904365060E+03  0.15294330000E+03 0.  0.
    8880022    1    1    2    0    0  0.14794622864E+03 -0.41606000973E+03 -0.69522434066E+03  0.83768881759E+03  0.15294330000E+03 0.  0.
<mgrwt>
<rscale>  0 0.46731753E+03</rscale>
<asrwt>0</asrwt>
<pdfrwt beam="1">  1        1 0.12740701E+00 0.46731753E+03</pdfrwt>
<pdfrwt beam="2">  1       -1 0.12901337E+00 0.46731753E+03</pdfrwt>
<totfact> 0.11674709E+01</totfact>
</mgrwt>
</event>
<event>
 4    1  0.2731969E-009  0.6258546E+03  0.7818608E-02  0.9853172E-01
          1   -1    0    0  501    0  0.00000000000E+00  0.00000000000E+00  0.14420232998E+04  0.14420232998E+04  0.50400000000E-02 0. -1.
         -1   -1    0    0    0  501 -0.00000000000E+00 -0.00000000000E+00 -0.10397884330E+04  0.10397884330E+04  0.50400000000E-02 0.  1.
    8880022    1    1    2    0    0 -0.40703385795E+03 -0.45013965028E+03  0.12676946703E+04  0.14137693222E+04  0.15294330000E+03 0.  0.
    8880022    1    1    2    0    0  0.40703385795E+03  0.45013965028E+03 -0.86545980349E+03  0.10680424106E+04  0.15294330000E+03 0.  0.
<mgrwt>
<rscale>  0 0.62585455E+03</rscale>
<asrwt>0</asrwt>
<pdfrwt beam="1">  1        1 0.22184974E+00 0.62585455E+03</pdfrwt>
<pdfrwt beam="2">  1       -1 0.15996745E+00 0.62585455E+03</pdfrwt>
<totfact> 0.22522705E+00</totfact>
</mgrwt>
</event>
<event>
 4    1  0.2731969E-009  0.3987660E+03  0.7818608E-02  0.1044208E+00
          1   -1    0    0  501    0  0.00000000000E+00  0.00000000000E+00  0.20585104398E+04  0.20585104398E+04  0.50400000000E-02 0. -1.
         -1   -1    0    0    0  501 -0.00000000000E+00 -0.00000000000E+00 -0.59999568582E+03  0.59999568584E+03  0.50400000000E-02 0.  1.
    8880022    1    1    2    0    0 -0.13899311114E+03 -0.34103310244E+03  0.19699950465E+04  0.20099489541E+04  0.15294330000E+03 0.  0.
    8880022    1    1    2    0    0  0.13899311114E+03  0.34103310244E+03 -0.51148029260E+03  0.64855717145E+03  0.15294330000E+03 0.  1.
<mgrwt>
<rscale>  0 0.39876599E+03</rscale>
<asrwt>0</asrwt>
<pdfrwt beam="1">  1        1 0.31669392E+00 0.39876599E+03</pdfrwt>
<pdfrwt beam="2">  1       -1 0.92307028E-01 0.39876599E+03</pdfrwt>
<totfact> 0.35789672E+00</totfact>
</mgrwt>
</event>
<event>
 4    1  0.2731969E-009  0.5330546E+03  0.7818608E-02  0.1005494E+00
         -1   -1    0    0    0  501 -0.00000000000E+00  0.00000000000E+00  0.86551311333E+03  0.86551311335E+03  0.50400000000E-02 0.  1.
          1   -1    0    0  501    0  0.00000000000E+00 -0.00000000000E+00 -0.10104611441E+04  0.10104611441E+04  0.50400000000E-02 0. -1.
    8880022    1    1    2    0    0  0.23257429259E+03 -0.45460395307E+03  0.69821795396E+03  0.87843925229E+03  0.15294330000E+03 0.  0.
    8880022    1    1    2    0    0 -0.23257429259E+03  0.45460395307E+03 -0.84316598472E+03  0.99753500516E+03  0.15294330000E+03 0.  0.
<mgrwt>
<rscale>  0 0.53305460E+03</rscale>
<asrwt>0</asrwt>
<pdfrwt beam="1">  1        1 0.15545556E+00 0.53305460E+03</pdfrwt>
<pdfrwt beam="2">  1       -1 0.13315586E+00 0.53305460E+03</pdfrwt>
<totfact> 0.76106653E+00</totfact>
</mgrwt>
</event>
<event>
 4    1  0.2731969E-009  0.8458763E+03  0.7818608E-02  0.9495888E-01
         -1   -1    0    0    0  501 -0.00000000000E+00  0.00000000000E+00  0.32701597722E+03  0.32701597726E+03  0.50400000000E-02 0.  1.
          1   -1    0    0  501    0  0.00000000000E+00 -0.00000000000E+00 -0.40911660301E+04  0.40911660301E+04  0.50400000000E-02 0. -1.
    8880022    1    1    2    0    0  0.78272815886E+03  0.28187164554E+03 -0.37536424080E+03  0.92542150478E+03  0.15294330000E+03 0.  0.
    8880022    1    1    2    0    0 -0.78272815886E+03 -0.28187164554E+03 -0.33887858121E+04  0.34927605026E+04  0.15294330000E+03 0.  0.
<mgrwt>
<rscale>  0 0.84587626E+03</rscale>
<asrwt>0</asrwt>
<pdfrwt beam="1">  1        1 0.62941013E+00 0.84587626E+03</pdfrwt>
<pdfrwt beam="2">  1       -1 0.50310153E-01 0.84587626E+03</pdfrwt>
<totfact> 0.34449739E-01</totfact>
</mgrwt>
</event>
<event>
 4    1  0.2731969E-009  0.1084580E+04  0.7818608E-02  0.9220353E-01
          1   -1    0    0  501    0  0.00000000000E+00  0.00000000000E+00  0.14494719991E+04  0.14494719991E+04  0.50400000000E-02 0. -1.
         -1   -1    0    0    0  501 -0.00000000000E+00 -0.00000000000E+00 -0.11670629934E+04  0.11670629934E+04  0.50400000000E-02 0.  1.
    8880022    1    1    2    0    0  0.79247252793E+03 -0.72450654989E+03 -0.58086533828E+03  0.12303327365E+04  0.15294330000E+03 0.  0.
    8880022    1    1    2    0    0 -0.79247252793E+03  0.72450654989E+03  0.86327434406E+03  0.13862022560E+04  0.15294330000E+03 0.  0.
<mgrwt>
<rscale>  0 0.10845801E+04</rscale>
<asrwt>0</asrwt>
<pdfrwt beam="1">  1        1 0.22299569E+00 0.10845801E+04</pdfrwt>
<pdfrwt beam="2">  1       -1 0.17954815E+00 0.10845801E+04</pdfrwt>
<totfact> 0.14787151E+00</totfact>
</mgrwt>
</event>
<event>
 4    1  0.2731969E-009  0.8909831E+03  0.7818608E-02  0.9436924E-01
          1   -1    0    0  501    0  0.00000000000E+00  0.00000000000E+00  0.91621589272E+03  0.91621589274E+03  0.50400000000E-02 0. -1.
         -1   -1    0    0    0  501 -0.00000000000E+00 -0.00000000000E+00 -0.20549974096E+04  0.20549974096E+04  0.50400000000E-02 0.  1.
    8880022    1    1    2    0    0 -0.87746559577E+03 -0.22659389201E+02 -0.16992056785E+04  0.19186325626E+04  0.15294330000E+03 0.  0.
    8880022    1    1    2    0    0  0.87746559577E+03  0.22659389201E+02  0.56042416159E+03  0.10525807397E+04  0.15294330000E+03 0.  0.
<mgrwt>
<rscale>  0 0.89098315E+03</rscale>
<asrwt>0</asrwt>
<pdfrwt beam="1">  1        1 0.14095629E+00 0.89098315E+03</pdfrwt>
<pdfrwt beam="2">  1       -1 0.31615345E+00 0.89098315E+03</pdfrwt>
<totfact> 0.47366347E-01</totfact>
</mgrwt>
</event>
<event>
 4    1  0.2731969E-009  0.1243762E+04  0.7818608E-02  0.9075391E-01
          1   -1    0    0  501    0  0.00000000000E+00  0.00000000000E+00  0.24504897941E+04  0.24504897941E+04  0.50400000000E-02 0. -1.
         -1   -1    0    0    0  501 -0.00000000000E+00 -0.00000000000E+00 -0.10771118298E+04  0.10771118298E+04  0.50400000000E-02 0.  1.
    8880022    1    1    2    0    0 -0.99395227749E+03  0.73185515252E+03 -0.44807296926E+03  0.13220113967E+04  0.15294330000E+03 0.  0.
    8880022    1    1    2    0    0  0.99395227749E+03 -0.73185515252E+03  0.18214509335E+04  0.22055902272E+04  0.15294330000E+03 0.  0.
<mgrwt>
<rscale>  0 0.12437623E+04</rscale>
<asrwt>0</asrwt>
<pdfrwt beam="1">  1        1 0.37699843E+00 0.12437623E+04</pdfrwt>
<pdfrwt beam="2">  1       -1 0.16570951E+00 0.12437623E+04</pdfrwt>
<totfact> 0.38019763E-01</totfact>
</mgrwt>
</event>
<event>
 4    1  0.2731969E-009  0.7246360E+03  0.7818608E-02  0.9676005E-01
          1   -1    0    0  501    0  0.00000000000E+00  0.00000000000E+00  0.14934016514E+04  0.14934016515E+04  0.50400000000E-02 0. -1.
         -1   -1    0    0    0  501 -0.00000000000E+00 -0.00000000000E+00 -0.99853069675E+03  0.99853069676E+03  0.50400000000E-02 0.  1.
    8880022    1    1    2    0    0 -0.55309700849E+02 -0.70614907906E+03 -0.75544812178E+03  0.10468042809E+04  0.15294330000E+03 0.  0.
    8880022    1    1    2    0    0  0.55309700849E+02  0.70614907906E+03  0.12503190765E+04  0.14451280673E+04  0.15294330000E+03 0.  0.
<mgrwt>
<rscale>  0 0.72463600E+03</rscale>
<asrwt>0</asrwt>
<pdfrwt beam="1">  1        1 0.22975410E+00 0.72463600E+03</pdfrwt>
<pdfrwt beam="2">  1       -1 0.15362011E+00 0.72463600E+03</pdfrwt>
<totfact> 0.22730383E+00</totfact>
</mgrwt>
</event>
<event>
 4    1  0.2731969E-009  0.1026132E+04  0.7818608E-02  0.9280340E-01
          1   -1    0    0  501    0  0.00000000000E+00  0.00000000000E+00  0.18556737141E+04  0.18556737141E+04  0.50400000000E-02 0. -1.
         -1   -1    0    0    0  501 -0.00000000000E+00 -0.00000000000E+00 -0.84423675021E+03  0.84423675023E+03  0.50400000000E-02 0.  1.
    8880022    1    1    2    0    0  0.25769744192E+03  0.98140025667E+03 -0.26728872942E+03  0.10603722711E+04  0.15294330000E+03 0.  0.
    8880022    1    1    2    0    0 -0.25769744192E+03 -0.98140025667E+03  0.12787256933E+04  0.16395381932E+04  0.15294330000E+03 0.  0.
<mgrwt>
<rscale>  0 0.10261316E+04</rscale>
<asrwt>0</asrwt>
<pdfrwt beam="1">  1        1 0.28548826E+00 0.10261316E+04</pdfrwt>
<pdfrwt beam="2">  1       -1 0.12988258E+00 0.10261316E+04</pdfrwt>
<totfact> 0.19082521E+00</totfact>
</mgrwt>
</event>
<event>
 4    1  0.2731969E-009  0.1794454E+04  0.7818608E-02  0.8709254E-01
         -1   -1    0    0    0  501 -0.00000000000E+00  0.00000000000E+00  0.16162562285E+04  0.16162562285E+04  0.50400000000E-02 0.  1.
          1   -1    0    0  501    0  0.00000000000E+00 -0.00000000000E+00 -0.30910324177E+04  0.30910324177E+04  0.50400000000E-02 0. -1.
    8880022    1    1    2    0    0  0.16781206150E+04 -0.61691575856E+03 -0.21406387083E+04  0.27932775702E+04  0.15294330000E+03 0.  0.
    8880022    1    1    2    0    0 -0.16781206150E+04  0.61691575856E+03  0.66586251916E+03  0.19140110760E+04  0.15294330000E+03 0.  0.
<mgrwt>
<rscale>  0 0.17944541E+04</rscale>
<asrwt>0</asrwt>
<pdfrwt beam="1">  1        1 0.47554345E+00 0.17944541E+04</pdfrwt>
<pdfrwt beam="2">  1       -1 0.24865481E+00 0.17944541E+04</pdfrwt>
<totfact> 0.33180778E-02</totfact>
</mgrwt>
</event>
<event>
 4    1  0.2731969E-009  0.1212565E+04  0.7818608E-02  0.9101929E-01
          1   -1    0    0  501    0  0.00000000000E+00  0.00000000000E+00  0.17234849398E+04  0.17234849398E+04  0.50400000000E-02 0. -1.
         -1   -1    0    0    0  501 -0.00000000000E+00 -0.00000000000E+00 -0.11111077655E+04  0.11111077655E+04  0.50400000000E-02 0.  1.
    8880022    1    1    2    0    0 -0.10223968851E+04 -0.63374085634E+03 -0.37676992223E+03  0.12697519801E+04  0.15294330000E+03 0.  0.
    8880022    1    1    2    0    0  0.10223968851E+04  0.63374085634E+03  0.98914709651E+03  0.15648407252E+04  0.15294330000E+03 0.  0.
<mgrwt>
<rscale>  0 0.12125653E+04</rscale>
<asrwt>0</asrwt>
<pdfrwt beam="1">  1        1 0.26515153E+00 0.12125653E+04</pdfrwt>
<pdfrwt beam="2">  1       -1 0.17093966E+00 0.12125653E+04</pdfrwt>
<totfact> 0.10893158E+00</totfact>
</mgrwt>
</event>
<event>
 4    1  0.2731969E-009  0.2616538E+03  0.7818608E-02  0.1106154E+00
         -1   -1    0    0    0  501 -0.00000000000E+00  0.00000000000E+00  0.53573236971E+03  0.53573236974E+03  0.50400000000E-02 0.  1.
          1   -1    0    0  501    0  0.00000000000E+00 -0.00000000000E+00 -0.10500784929E+04  0.10500784929E+04  0.50400000000E-02 0. -1.
    8880022    1    1    2    0    0  0.14975175520E+03 -0.15048418084E+03  0.48592007662E+03  0.55188862168E+03  0.15294330000E+03 0.  1.
    8880022    1    1    2    0    0 -0.14975175520E+03  0.15048418084E+03 -0.10002661998E+04  0.10339222410E+04  0.15294330000E+03 0.  0.
<mgrwt>
<rscale>  0 0.26165384E+03</rscale>
<asrwt>0</asrwt>
<pdfrwt beam="1">  1        1 0.16155054E+00 0.26165384E+03</pdfrwt>
<pdfrwt beam="2">  1       -1 0.82420365E-01 0.26165384E+03</pdfrwt>
<totfact> 0.22982056E+01</totfact>
</mgrwt>
</event>
<event>
 4    1  0.2731969E-009  0.3931317E+03  0.7818608E-02  0.1046184E+00
         -1   -1    0    0    0  501 -0.00000000000E+00  0.00000000000E+00  0.11052563385E+04  0.11052563385E+04  0.50400000000E-02 0.  1.
          1   -1    0    0  501    0  0.00000000000E+00 -0.00000000000E+00 -0.17141258134E+03  0.17141258142E+03  0.50400000000E-02 0. -1.
    8880022    1    1    2    0    0  0.34671814670E+03 -0.10462988769E+03  0.74090415764E+03  0.83874400772E+03  0.15294330000E+03 0.  0.
    8880022    1    1    2    0    0 -0.34671814670E+03  0.10462988769E+03  0.19293959949E+03  0.43792491219E+03  0.15294330000E+03 0.  0.
<mgrwt>
<rscale>  0 0.39313171E+03</rscale>
<asrwt>0</asrwt>
<pdfrwt beam="1">  1        1 0.26371166E-01 0.39313171E+03</pdfrwt>
<pdfrwt beam="2">  1       -1 0.17003944E+00 0.39313171E+03</pdfrwt>
<totfact> 0.47406030E+01</totfact>
</mgrwt>
</event>
<event>
 4    1  0.2731969E-009  0.9849385E+03  0.7818608E-02  0.9325220E-01
          1   -1    0    0  501    0  0.00000000000E+00  0.00000000000E+00  0.68756727487E+03  0.68756727488E+03  0.50400000000E-02 0. -1.
         -1   -1    0    0    0  501 -0.00000000000E+00 -0.00000000000E+00 -0.17905854059E+04  0.17905854059E+04  0.50400000000E-02 0.  1.
    8880022    1    1    2    0    0 -0.95757964416E+03 -0.17249201897E+03 -0.11220670743E+04  0.14930299540E+04  0.15294330000E+03 0.  0.
    8880022    1    1    2    0    0  0.95757964416E+03  0.17249201897E+03  0.19048943224E+02  0.98512272675E+03  0.15294330000E+03 0.  0.
<mgrwt>
<rscale>  0 0.98493854E+03</rscale>
<asrwt>0</asrwt>
<pdfrwt beam="1">  1        1 0.10577958E+00 0.98493854E+03</pdfrwt>
<pdfrwt beam="2">  1       -1 0.27547468E+00 0.98493854E+03</pdfrwt>
<totfact> 0.13502917E+00</totfact>
</mgrwt>
</event>
<event>
 4    1  0.2731969E-009  0.5539052E+03  0.7818608E-02  0.1000594E+00
         -1   -1    0    0    0  501 -0.00000000000E+00  0.00000000000E+00  0.12905156360E+04  0.12905156360E+04  0.50400000000E-02 0.  1.
          1   -1    0    0  501    0  0.00000000000E+00 -0.00000000000E+00 -0.21888591075E+04  0.21888591075E+04  0.50400000000E-02 0. -1.
    8880022    1    1    2    0    0 -0.47451523181E+03  0.24135990110E+03 -0.20916660420E+04  0.21637647264E+04  0.15294330000E+03 0.  0.
    8880022    1    1    2    0    0  0.47451523181E+03 -0.24135990110E+03  0.11933225704E+04  0.13156100171E+04  0.15294330000E+03 0.  0.
<mgrwt>
<rscale>  0 0.55390519E+03</rscale>
<asrwt>0</asrwt>
<pdfrwt beam="1">  1        1 0.33674756E+00 0.55390519E+03</pdfrwt>
<pdfrwt beam="2">  1       -1 0.19854087E+00 0.55390519E+03</pdfrwt>
<totfact> 0.38631355E-01</totfact>
</mgrwt>
</event>
<event>
 4    1  0.2731969E-009  0.1373244E+04  0.7818608E-02  0.8973417E-01
         -1   -1    0    0    0  501 -0.00000000000E+00  0.00000000000E+00  0.16811213268E+04  0.16811213268E+04  0.50400000000E-02 0.  1.
          1   -1    0    0  501    0  0.00000000000E+00 -0.00000000000E+00 -0.12588572075E+04  0.12588572075E+04  0.50400000000E-02 0. -1.
    8880022    1    1    2    0    0 -0.13400224366E+04  0.25835612933E+03 -0.27399371826E+03  0.14003114763E+04  0.15294330000E+03 0.  0.
    8880022    1    1    2    0    0  0.13400224366E+04 -0.25835612933E+03  0.69625783759E+03  0.15396670580E+04  0.15294330000E+03 0.  0.
<mgrwt>
<rscale>  0 0.13732442E+04</rscale>
<asrwt>0</asrwt>
<pdfrwt beam="1">  1        1 0.19367034E+00 0.13732442E+04</pdfrwt>
<pdfrwt beam="2">  1       -1 0.25863405E+00 0.13732442E+04</pdfrwt>
<totfact> 0.56993984E-01</totfact>
</mgrwt>
</event>
<event>
 4    1  0.2731969E-009  0.6723031E+03  0.7818608E-02  0.9765806E-01
          1   -1    0    0  501    0  0.00000000000E+00  0.00000000000E+00  0.26149119530E+04  0.26149119530E+04  0.50400000000E-02 0. -1.
         -1   -1    0    0    0  501 -0.00000000000E+00 -0.00000000000E+00 -0.71166945459E+03  0.71166945461E+03  0.50400000000E-02 0.  1.
    8880022    1    1    2    0    0  0.61222009093E+03 -0.23191885347E+03 -0.49565030977E+03  0.83526084364E+03  0.15294330000E+03 0.  0.
    8880022    1    1    2    0    0 -0.61222009093E+03  0.23191885347E+03  0.23988928082E+04  0.24913205640E+04  0.15294330000E+03 0.  0.
<mgrwt>
<rscale>  0 0.67230309E+03</rscale>
<asrwt>0</asrwt>
<pdfrwt beam="1">  1        1 0.40229415E+00 0.67230309E+03</pdfrwt>
<pdfrwt beam="2">  1       -1 0.10948761E+00 0.67230309E+03</pdfrwt>
<totfact> 0.94776275E-01</totfact>
</mgrwt>
</event>
<event>
 4    1  0.2731969E-009  0.2203739E+03  0.7818608E-02  0.1133605E+00
         -1   -1    0    0    0  501 -0.00000000000E+00  0.00000000000E+00  0.12510522616E+04  0.12510522616E+04  0.50400000000E-02 0.  1.
          1   -1    0    0  501    0  0.00000000000E+00 -0.00000000000E+00 -0.81786968133E+03  0.81786968134E+03  0.50400000000E-02 0. -1.
    8880022    1    1    2    0    0 -0.13135763575E+03  0.88984207034E+02 -0.79302161962E+03  0.82307226886E+03  0.15294330000E+03 0.  0.
    8880022    1    1    2    0    0  0.13135763575E+03 -0.88984207034E+02  0.12262041999E+04  0.12458496741E+04  0.15294330000E+03 0.  1.
<mgrwt>
<rscale>  0 0.22037393E+03</rscale>
<asrwt>0</asrwt>
<pdfrwt beam="1">  1        1 0.12582611E+00 0.22037393E+03</pdfrwt>
<pdfrwt beam="2">  1       -1 0.19246958E+00 0.22037393E+03</pdfrwt>
<totfact> 0.43731469E+00</totfact>
</mgrwt>
</event>
<event>
 4    1  0.2731969E-009  0.1549409E+04  0.7818608E-02  0.8852245E-01
         -1   -1    0    0    0  501 -0.00000000000E+00  0.00000000000E+00  0.13568373766E+04  0.13568373766E+04  0.50400000000E-02 0.  1.
          1   -1    0    0  501    0  0.00000000000E+00 -0.00000000000E+00 -0.27535631827E+04  0.27535631827E+04  0.50400000000E-02 0. -1.
    8880022    1    1    2    0    0 -0.19176020869E+02  0.15417228003E+04  0.53037601519E+03  0.16376712989E+04  0.15294330000E+03 0.  0.
    8880022    1    1    2    0    0  0.19176020869E+02 -0.15417228003E+04 -0.19271018213E+04  0.24727292605E+04  0.15294330000E+03 0.  0.
<mgrwt>
<rscale>  0 0.15494091E+04</rscale>
<asrwt>0</asrwt>
<pdfrwt beam="1">  1        1 0.42362511E+00 0.15494091E+04</pdfrwt>
<pdfrwt beam="2">  1       -1 0.20874421E+00 0.15494091E+04</pdfrwt>
<totfact> 0.11081428E-01</totfact>
</mgrwt>
</event>
<event>
 4    1  0.2731969E-009  0.2130942E+03  0.7818608E-02  0.1139139E+00
         -1   -1    0    0    0  501 -0.00000000000E+00  0.00000000000E+00  0.28075287842E+03  0.28075287846E+03  0.50400000000E-02 0.  1.
          1   -1    0    0  501    0  0.00000000000E+00 -0.00000000000E+00 -0.26230725498E+04  0.26230725498E+04  0.50400000000E-02 0. -1.
    8880022    1    1    2    0    0 -0.13481450860E+03 -0.61988273568E+02 -0.25775973692E+04  0.25863907958E+04  0.15294330000E+03 0. -1.
    8880022    1    1    2    0    0  0.13481450860E+03  0.61988273568E+02  0.23527769783E+03  0.31743463248E+03  0.15294330000E+03 0.  0.
<mgrwt>
<rscale>  0 0.21309423E+03</rscale>
<asrwt>0</asrwt>
<pdfrwt beam="1">  1        1 0.40354961E+00 0.21309423E+03</pdfrwt>
<pdfrwt beam="2">  1       -1 0.43192752E-01 0.21309423E+03</pdfrwt>
<totfact> 0.74048718E+00</totfact>
</mgrwt>
</event>
<event>
 4    1  0.2731969E-009  0.1006028E+04  0.7818608E-02  0.9301958E-01
         -1   -1    0    0    0  501 -0.00000000000E+00  0.00000000000E+00  0.12629317948E+04  0.12629317948E+04  0.50400000000E-02 0.  1.
          1   -1    0    0  501    0  0.00000000000E+00 -0.00000000000E+00 -0.97030379221E+03  0.97030379222E+03  0.50400000000E-02 0. -1.
    8880022    1    1    2    0    0 -0.97932172441E+03  0.17213257256E+03  0.61221322331E+03  0.11776660589E+04  0.15294330000E+03 0.  0.
    8880022    1    1    2    0    0  0.97932172441E+03 -0.17213257256E+03 -0.31958522071E+03  0.10555695281E+04  0.15294330000E+03 0.  0.
<mgrwt>
<rscale>  0 0.10060280E+04</rscale>
<asrwt>0</asrwt>
<pdfrwt beam="1">  1        1 0.14927751E+00 0.10060280E+04</pdfrwt>
<pdfrwt beam="2">  1       -1 0.19429720E+00 0.10060280E+04</pdfrwt>
<totfact> 0.26410006E+00</totfact>
</mgrwt>
</event>
<event>
 4    1  0.2731969E-009  0.4721331E+03  0.7818608E-02  0.1021320E+00
         -1   -1    0    0    0  501 -0.00000000000E+00  0.00000000000E+00  0.47653536072E+03  0.47653536074E+03  0.50400000000E-02 0.  1.
          1   -1    0    0  501    0  0.00000000000E+00 -0.00000000000E+00 -0.14137225166E+04  0.14137225166E+04  0.50400000000E-02 0. -1.
    8880022    1    1    2    0    0 -0.42069546030E+03  0.15011120328E+03  0.30451996324E+03  0.56182034913E+03  0.15294330000E+03 0.  0.
    8880022    1    1    2    0    0  0.42069546030E+03 -0.15011120328E+03 -0.12417071191E+04  0.13284375282E+04  0.15294330000E+03 0.  0.
<mgrwt>
<rscale>  0 0.47213313E+03</rscale>
<asrwt>0</asrwt>
<pdfrwt beam="1">  1        1 0.21749577E+00 0.47213313E+03</pdfrwt>
<pdfrwt beam="2">  1       -1 0.73313133E-01 0.47213313E+03</pdfrwt>
<totfact> 0.15310870E+01</totfact>
</mgrwt>
</event>
<event>
 4    1  0.2731969E-009  0.1932140E+04  0.7818608E-02  0.8639022E-01
         -1   -1    0    0    0  501 -0.00000000000E+00  0.00000000000E+00  0.14997320307E+04  0.14997320307E+04  0.50400000000E-02 0.  1.
          1   -1    0    0  501    0  0.00000000000E+00 -0.00000000000E+00 -0.27690770048E+04  0.27690770048E+04  0.50400000000E-02 0. -1.
    8880022    1    1    2    0    0 -0.18659778138E+04 -0.47738927487E+03 -0.13132134322E+04  0.23361709897E+04  0.15294330000E+03 0.  0.
    8880022    1    1    2    0    0  0.18659778138E+04  0.47738927487E+03  0.43868458178E+02  0.19326380458E+04  0.15294330000E+03 0.  0.
<mgrwt>
<rscale>  0 0.19321401E+04</rscale>
<asrwt>0</asrwt>
<pdfrwt beam="1">  1        1 0.42601185E+00 0.19321401E+04</pdfrwt>
<pdfrwt beam="2">  1       -1 0.23072801E+00 0.19321401E+04</pdfrwt>
<totfact> 0.73510721E-02</totfact>
</mgrwt>
</event>
<event>
 4    1  0.2731969E-009  0.1145899E+04  0.7818608E-02  0.9161576E-01
         -1   -1    0    0    0  501 -0.00000000000E+00  0.00000000000E+00  0.13818047967E+04  0.13818047968E+04  0.50400000000E-02 0.  1.
          1   -1    0    0  501    0  0.00000000000E+00 -0.00000000000E+00 -0.10690563455E+04  0.10690563455E+04  0.50400000000E-02 0. -1.
    8880022    1    1    2    0    0  0.11064442708E+04  0.25587666888E+03 -0.25211182077E+03  0.11733046567E+04  0.15294330000E+03 0.  0.
    8880022    1    1    2    0    0 -0.11064442708E+04 -0.25587666888E+03  0.56486027198E+03  0.12775564856E+04  0.15294330000E+03 0.  0.
<mgrwt>
<rscale>  0 0.11458985E+04</rscale>
<asrwt>0</asrwt>
<pdfrwt beam="1">  1        1 0.16447021E+00 0.11458985E+04</pdfrwt>
<pdfrwt beam="2">  1       -1 0.21258535E+00 0.11458985E+04</pdfrwt>
<totfact> 0.16306881E+00</totfact>
</mgrwt>
</event>
<event>
 4    1  0.2731969E-009  0.8285916E+03  0.7818608E-02  0.9519530E-01
         -1   -1    0    0    0  501 -0.00000000000E+00  0.00000000000E+00  0.15082632225E+04  0.15082632225E+04  0.50400000000E-02 0.  1.
          1   -1    0    0  501    0  0.00000000000E+00 -0.00000000000E+00 -0.71488686303E+03  0.71488686304E+03  0.50400000000E-02 0. -1.
    8880022    1    1    2    0    0  0.45371701383E+03 -0.67624945227E+03 -0.27326373240E+03  0.87248906629E+03  0.15294330000E+03 0.  0.
    8880022    1    1    2    0    0 -0.45371701383E+03  0.67624945227E+03  0.10666400918E+04  0.13506610192E+04  0.15294330000E+03 0.  0.
<mgrwt>
<rscale>  0 0.82859164E+03</rscale>
<asrwt>0</asrwt>
<pdfrwt beam="1">  1        1 0.10998259E+00 0.82859164E+03</pdfrwt>
<pdfrwt beam="2">  1       -1 0.23204049E+00 0.82859164E+03</pdfrwt>
<totfact> 0.24864719E+00</totfact>
</mgrwt>
</event>
<event>
 4    1  0.2731969E-009  0.1620846E+04  0.7818608E-02  0.8807843E-01
          1   -1    0    0  501    0  0.00000000000E+00  0.00000000000E+00  0.31345880112E+04  0.31345880112E+04  0.50400000000E-02 0. -1.
         -1   -1    0    0    0  501 -0.00000000000E+00 -0.00000000000E+00 -0.11735171084E+04  0.11735171084E+04  0.50400000000E-02 0.  1.
    8880022    1    1    2    0    0  0.14125864905E+04  0.77996805657E+03  0.21321179582E+04  0.26782586512E+04  0.15294330000E+03 0.  0.
    8880022    1    1    2    0    0 -0.14125864905E+04 -0.77996805657E+03 -0.17104705539E+03  0.16298464684E+04  0.15294330000E+03 0.  0.
<mgrwt>
<rscale>  0 0.16208462E+04</rscale>
<asrwt>0</asrwt>
<pdfrwt beam="1">  1        1 0.48224430E+00 0.16208462E+04</pdfrwt>
<pdfrwt beam="2">  1       -1 0.18054110E+00 0.16208462E+04</pdfrwt>
<totfact> 0.91782987E-02</totfact>
</mgrwt>
</event>
<event>
 4    1  0.2731969E-009  0.6361042E+03  0.7818608E-02  0.9833209E-01
          1   -1    0    0  501    0  0.00000000000E+00  0.00000000000E+00  0.25378960489E+04  0.25378960489E+04  0.50400000000E-02 0. -1.
         -1   -1    0    0    0  501 -0.00000000000E+00 -0.00000000000E+00 -0.62611206024E+03  0.62611206026E+03  0.50400000000E-02 0.  1.
    8880022    1    1    2    0    0 -0.59851284947E+03  0.15172100161E+03  0.23217009346E+04  0.24072647914E+04  0.15294330000E+03 0.  0.
    8880022    1    1    2    0    0  0.59851284947E+03 -0.15172100161E+03 -0.40991694596E+03  0.75674331771E+03  0.15294330000E+03 0.  0.
<mgrwt>
<rscale>  0 0.63610419E+03</rscale>
<asrwt>0</asrwt>
<pdfrwt beam="1">  1        1 0.39044555E+00 0.63610419E+03</pdfrwt>
<pdfrwt beam="2">  1       -1 0.96324931E-01 0.63610419E+03</pdfrwt>
<totfact> 0.14492428E+00</totfact>
</mgrwt>
</event>
<event>
 4    1  0.2731969E-009  0.4663997E+03  0.7818608E-02  0.1022941E+00
          1   -1    0    0  501    0  0.00000000000E+00  0.00000000000E+00  0.16828255765E+04  0.16828255765E+04  0.50400000000E-02 0. -1.
         -1   -1    0    0    0  501 -0.00000000000E+00 -0.00000000000E+00 -0.14230727530E+04  0.14230727530E+04  0.50400000000E-02 0.  1.
    8880022    1    1    2    0    0 -0.37739637912E+03  0.22739610326E+03 -0.13508633550E+04  0.14291117772E+04  0.15294330000E+03 0.  0.
    8880022    1    1    2    0    0  0.37739637912E+03 -0.22739610326E+03  0.16106161785E+04  0.16767865524E+04  0.15294330000E+03 0.  0.
<mgrwt>
<rscale>  0 0.46639969E+03</rscale>
<asrwt>0</asrwt>
<pdfrwt beam="1">  1        1 0.25889624E+00 0.46639969E+03</pdfrwt>
<pdfrwt beam="2">  1       -1 0.21893427E+00 0.46639969E+03</pdfrwt>
<totfact> 0.63017004E-01</totfact>
</mgrwt>
</event>
<event>
 4    1  0.2731969E-009  0.4261180E+03  0.7818608E-02  0.1035093E+00
          1   -1    0    0  501    0  0.00000000000E+00  0.00000000000E+00  0.15380000006E+04  0.15380000006E+04  0.50400000000E-02 0. -1.
         -1   -1    0    0    0  501 -0.00000000000E+00 -0.00000000000E+00 -0.19504297278E+03  0.19504297284E+03  0.50400000000E-02 0.  1.
    8880022    1    1    2    0    0  0.38391711717E+03 -0.10388708492E+03  0.12158696668E+04  0.12883771106E+04  0.15294330000E+03 0.  0.
    8880022    1    1    2    0    0 -0.38391711717E+03  0.10388708492E+03  0.12708736097E+03  0.44466586287E+03  0.15294330000E+03 0.  0.
<mgrwt>
<rscale>  0 0.42611798E+03</rscale>
<asrwt>0</asrwt>
<pdfrwt beam="1">  1        1 0.23661539E+00 0.42611798E+03</pdfrwt>
<pdfrwt beam="2">  1       -1 0.30006610E-01 0.42611798E+03</pdfrwt>
<totfact> 0.67348064E+01</totfact>
</mgrwt>
</event>
<event>
 4    1  0.2731969E-009  0.7026471E+03  0.7818608E-02  0.9712716E-01
         -1   -1    0    0    0  501 -0.00000000000E+00  0.00000000000E+00  0.10439038348E+04  0.10439038348E+04  0.50400000000E-02 0.  1.
          1   -1    0    0  501    0  0.00000000000E+00 -0.00000000000E+00 -0.14747176894E+04  0.14747176894E+04  0.50400000000E-02 0. -1.
    8880022    1    1    2    0    0  0.11574293586E+03 -0.67596220911E+03 -0.12533230454E+04  0.14368478153E+04  0.15294330000E+03 0.  0.
    8880022    1    1    2    0    0 -0.11574293586E+03  0.67596220911E+03  0.82250919072E+03  0.10817737089E+04  0.15294330000E+03 0.  0.
<mgrwt>
<rscale>  0 0.70264713E+03</rscale>
<asrwt>0</asrwt>
<pdfrwt beam="1">  1        1 0.22687965E+00 0.70264713E+03</pdfrwt>
<pdfrwt beam="2">  1       -1 0.16060059E+00 0.70264713E+03</pdfrwt>
<totfact> 0.20811750E+00</totfact>
</mgrwt>
</event>
<event>
 4    1  0.2731969E-009  0.9847287E+03  0.7818608E-02  0.9325454E-01
         -1   -1    0    0    0  501 -0.00000000000E+00  0.00000000000E+00  0.10130634761E+04  0.10130634762E+04  0.50400000000E-02 0.  1.
          1   -1    0    0  501    0  0.00000000000E+00 -0.00000000000E+00 -0.18643732573E+04  0.18643732573E+04  0.50400000000E-02 0. -1.
    8880022    1    1    2    0    0  0.76707541365E+03 -0.59824265000E+03 -0.14292481214E+04  0.17356384428E+04  0.15294330000E+03 0.  0.
    8880022    1    1    2    0    0 -0.76707541365E+03  0.59824265000E+03  0.57793834023E+03  0.11417982907E+04  0.15294330000E+03 0.  0.
<mgrwt>
<rscale>  0 0.98472870E+03</rscale>
<asrwt>0</asrwt>
<pdfrwt beam="1">  1        1 0.28682665E+00 0.98472870E+03</pdfrwt>
<pdfrwt beam="2">  1       -1 0.15585592E+00 0.98472870E+03</pdfrwt>
<totfact> 0.11715657E+00</totfact>
</mgrwt>
</event>
<event>
 4    1  0.2731969E-009  0.1123138E+04  0.7818608E-02  0.9182929E-01
          1   -1    0    0  501    0  0.00000000000E+00  0.00000000000E+00  0.27830896546E+04  0.27830896546E+04  0.50400000000E-02 0. -1.
         -1   -1    0    0    0  501 -0.00000000000E+00 -0.00000000000E+00 -0.57182829498E+03  0.57182829500E+03  0.50400000000E-02 0.  1.
    8880022    1    1    2    0    0 -0.58243511343E+03 -0.94805889086E+03  0.18695016123E+04  0.21809342616E+04  0.15294330000E+03 0.  0.
    8880022    1    1    2    0    0  0.58243511343E+03  0.94805889086E+03  0.34175974735E+03  0.11739836881E+04  0.15294330000E+03 0.  0.
<mgrwt>
<rscale>  0 0.11231376E+04</rscale>
<asrwt>0</asrwt>
<pdfrwt beam="1">  1        1 0.42816764E+00 0.11231376E+04</pdfrwt>
<pdfrwt beam="2">  1       -1 0.87973584E-01 0.11231376E+04</pdfrwt>
<totfact> 0.10936439E+00</totfact>
</mgrwt>
</event>
<event>
 4    1  0.2731969E-009  0.2723271E+03  0.7818608E-02  0.1099955E+00
          1   -1    0    0  501    0  0.00000000000E+00  0.00000000000E+00  0.26615991008E+04  0.26615991008E+04  0.50400000000E-02 0. -1.
         -1   -1    0    0    0  501 -0.00000000000E+00 -0.00000000000E+00 -0.28072300243E+02  0.28072300696E+02  0.50400000000E-02 0.  1.
    8880022    1    1    2    0    0 -0.19900444581E+03  0.10567706787E+03  0.12008424448E+04  0.12313344966E+04  0.15294330000E+03 0.  1.
    8880022    1    1    2    0    0  0.19900444581E+03 -0.10567706787E+03  0.14326843558E+04  0.14583369050E+04  0.15294330000E+03 0. -1.
<mgrwt>
<rscale>  0 0.27232713E+03</rscale>
<asrwt>0</asrwt>
<pdfrwt beam="1">  1        1 0.40947672E+00 0.27232713E+03</pdfrwt>
<pdfrwt beam="2">  1       -1 0.43188162E-02 0.27232713E+03</pdfrwt>
<totfact> 0.27080472E+02</totfact>
</mgrwt>
</event>
<event>
 4    1  0.2731969E-009  0.6957348E+03  0.7818608E-02  0.9724554E-01
          1   -1    0    0  501    0  0.00000000000E+00  0.00000000000E+00  0.17319764149E+04  0.17319764149E+04  0.50400000000E-02 0. -1.
         -1   -1    0    0    0  501 -0.00000000000E+00 -0.00000000000E+00 -0.80474854220E+03  0.80474854221E+03  0.50400000000E-02 0.  1.
    8880022    1    1    2    0    0  0.65516732468E+03  0.17723170921E+03 -0.56110643566E+03  0.89380500516E+03  0.15294330000E+03 0.  0.
    8880022    1    1    2    0    0 -0.65516732468E+03 -0.17723170921E+03  0.14883343083E+04  0.16429199519E+04  0.15294330000E+03 0.  0.
<mgrwt>
<rscale>  0 0.69573483E+03</rscale>
<asrwt>0</asrwt>
<pdfrwt beam="1">  1        1 0.26645791E+00 0.69573483E+03</pdfrwt>
<pdfrwt beam="2">  1       -1 0.12380747E+00 0.69573483E+03</pdfrwt>
<totfact> 0.27524845E+00</totfact>
</mgrwt>
</event>
<event>
 4    1  0.2731969E-009  0.3791782E+03  0.7818608E-02  0.1051238E+00
          1   -1    0    0  501    0  0.00000000000E+00  0.00000000000E+00  0.15929914423E+04  0.15929914423E+04  0.50400000000E-02 0. -1.
         -1   -1    0    0    0  501 -0.00000000000E+00 -0.00000000000E+00 -0.69787037079E+03  0.69787037081E+03  0.50400000000E-02 0.  1.
    8880022    1    1    2    0    0  0.34669887245E+03  0.13576624279E+02 -0.62123775047E+03  0.72781345722E+03  0.15294330000E+03 0.  0.
    8880022    1    1    2    0    0 -0.34669887245E+03 -0.13576624279E+02  0.15163588219E+04  0.15630483559E+04  0.15294330000E+03 0.  0.
<mgrwt>
<rscale>  0 0.37917817E+03</rscale>
<asrwt>0</asrwt>
<pdfrwt beam="1">  1        1 0.24507560E+00 0.37917817E+03</pdfrwt>
<pdfrwt beam="2">  1       -1 0.10736467E+00 0.37917817E+03</pdfrwt>
<totfact> 0.51992059E+00</totfact>
</mgrwt>
</event>
<event>
 4    1  0.2731969E-009  0.1533153E+04  0.7818608E-02  0.8862701E-01
          1   -1    0    0  501    0  0.00000000000E+00  0.00000000000E+00  0.25530683406E+04  0.25530683406E+04  0.50400000000E-02 0. -1.
         -1   -1    0    0    0  501 -0.00000000000E+00 -0.00000000000E+00 -0.13478307085E+04  0.13478307085E+04  0.50400000000E-02 0.  1.
    8880022    1    1    2    0    0  0.15157280536E+04 -0.17244058020E+03 -0.49539451240E+03  0.16112028619E+04  0.15294330000E+03 0.  0.
    8880022    1    1    2    0    0 -0.15157280536E+04  0.17244058020E+03  0.17006321444E+04  0.22896961873E+04  0.15294330000E+03 0.  0.
<mgrwt>
<rscale>  0 0.15331533E+04</rscale>
<asrwt>0</asrwt>
<pdfrwt beam="1">  1        1 0.39277974E+00 0.15331533E+04</pdfrwt>
<pdfrwt beam="2">  1       -1 0.20735857E+00 0.15331533E+04</pdfrwt>
<totfact> 0.15693918E-01</totfact>
</mgrwt>
</event>
<event>
 4    1  0.2731969E-009  0.8893286E+03  0.7818608E-02  0.9439020E-01
         -1   -1    0    0    0  501 -0.00000000000E+00  0.00000000000E+00  0.66504613946E+03  0.66504613948E+03  0.50400000000E-02 0.  1.
          1   -1    0    0  501    0  0.00000000000E+00 -0.00000000000E+00 -0.15115981782E+04  0.15115981782E+04  0.50400000000E-02 0. -1.
    8880022    1    1    2    0    0  0.37846407293E+03  0.79011301143E+03 -0.92585318849E+03  0.12837871338E+04  0.15294330000E+03 0. -1.
    8880022    1    1    2    0    0 -0.37846407293E+03 -0.79011301143E+03  0.79301149772E+02  0.89285718383E+03  0.15294330000E+03 0.  0.
<mgrwt>
<rscale>  0 0.88932855E+03</rscale>
<asrwt>0</asrwt>
<pdfrwt beam="1">  1        1 0.23255357E+00 0.88932855E+03</pdfrwt>
<pdfrwt beam="2">  1       -1 0.10231479E+00 0.88932855E+03</pdfrwt>
<totfact> 0.59218552E+00</totfact>
</mgrwt>
</event>
<event>
 4    1  0.2731969E-009  0.1204029E+04  0.7818608E-02  0.9109337E-01
         -1   -1    0    0    0  501 -0.00000000000E+00  0.00000000000E+00  0.63153278719E+03  0.63153278721E+03  0.50400000000E-02 0.  1.
          1   -1    0    0  501    0  0.00000000000E+00 -0.00000000000E+00 -0.26791013774E+04  0.26791013774E+04  0.50400000000E-02 0. -1.
    8880022    1    1    2    0    0 -0.58051370664E+02  0.11928638570E+04 -0.39742337175E+03  0.12679239458E+04  0.15294330000E+03 0.  0.
    8880022    1    1    2    0    0  0.58051370664E+02 -0.11928638570E+04 -0.16501452184E+04  0.20427102188E+04  0.15294330000E+03 0.  0.
<mgrwt>
<rscale>  0 0.12040290E+04</rscale>
<asrwt>0</asrwt>
<pdfrwt beam="1">  1        1 0.41216944E+00 0.12040290E+04</pdfrwt>
<pdfrwt beam="2">  1       -1 0.97158892E-01 0.12040290E+04</pdfrwt>
<totfact> 0.10248833E+00</totfact>
</mgrwt>
</event>
<event>
 4    1  0.2731969E-009  0.2990723E+03  0.7818608E-02  0.1085705E+00
         -1   -1    0    0    0  501 -0.00000000000E+00  0.00000000000E+00  0.15919642036E+03  0.15919642044E+03  0.50400000000E-02 0.  1.
          1   -1    0    0  501    0  0.00000000000E+00 -0.00000000000E+00 -0.15432550200E+04  0.15432550201E+04  0.50400000000E-02 0. -1.
    8880022    1    1    2    0    0 -0.16884981756E+03 -0.19375842383E+03 -0.13708426870E+04  0.14030872792E+04  0.15294330000E+03 0. -1.
    8880022    1    1    2    0    0  0.16884981756E+03  0.19375842383E+03 -0.13215912723E+02  0.29936416128E+03  0.15294330000E+03 0.  0.
<mgrwt>
<rscale>  0 0.29907230E+03</rscale>
<asrwt>0</asrwt>
<pdfrwt beam="1">  1        1 0.23742384E+00 0.29907230E+03</pdfrwt>
<pdfrwt beam="2">  1       -1 0.24491758E-01 0.29907230E+03</pdfrwt>
<totfact> 0.96821339E+01</totfact>
</mgrwt>
</event>
<event>
 4    1  0.2731969E-009  0.2511417E+03  0.7818608E-02  0.1112585E+00
          1   -1    0    0  501    0  0.00000000000E+00  0.00000000000E+00  0.63273274813E+02  0.63273275014E+02  0.50400000000E-02 0. -1.
         -1   -1    0    0    0  501 -0.00000000000E+00 -0.00000000000E+00 -0.10553411342E+04  0.10553411342E+04  0.50400000000E-02 0.  1.
    8880022    1    1    2    0    0 -0.46445969348E+02  0.19370922303E+03 -0.36432786953E+03  0.44250078044E+03  0.15294330000E+03 0.  1.
    8880022    1    1    2    0    0  0.46445969348E+02 -0.19370922303E+03 -0.62773998984E+03  0.67611362877E+03  0.15294330000E+03 0. -1.
<mgrwt>
<rscale>  0 0.25114168E+03</rscale>
<asrwt>0</asrwt>
<pdfrwt beam="1">  1        1 0.97343508E-02 0.25114168E+03</pdfrwt>
<pdfrwt beam="2">  1       -1 0.16236016E+00 0.25114168E+03</pdfrwt>
<totfact> 0.20402210E+02</totfact>
</mgrwt>
</event>
<event>
 4    1  0.2731969E-009  0.5264793E+03  0.7818608E-02  0.1007090E+00
         -1   -1    0    0    0  501 -0.00000000000E+00  0.00000000000E+00  0.11176154624E+04  0.11176154624E+04  0.50400000000E-02 0.  1.
          1   -1    0    0  501    0  0.00000000000E+00 -0.00000000000E+00 -0.13063962916E+04  0.13063962916E+04  0.50400000000E-02 0. -1.
    8880022    1    1    2    0    0  0.37133242747E+03 -0.34044244840E+03  0.99652037092E+03  0.11270462879E+04  0.15294330000E+03 0.  0.
    8880022    1    1    2    0    0 -0.37133242747E+03  0.34044244840E+03 -0.11853012001E+04  0.12969654661E+04  0.15294330000E+03 0.  0.
<mgrwt>
<rscale>  0 0.52647933E+03</rscale>
<asrwt>0</asrwt>
<pdfrwt beam="1">  1        1 0.20098405E+00 0.52647933E+03</pdfrwt>
<pdfrwt beam="2">  1       -1 0.17194084E+00 0.52647933E+03</pdfrwt>
<totfact> 0.23387805E+00</totfact>
</mgrwt>
</event>
<event>
 4    1  0.2731969E-009  0.1256746E+04  0.7818608E-02  0.9064587E-01
         -1   -1    0    0    0  501 -0.00000000000E+00  0.00000000000E+00  0.90602943576E+03  0.90602943577E+03  0.50400000000E-02 0.  1.
          1   -1    0    0  501    0  0.00000000000E+00 -0.00000000000E+00 -0.27960562758E+04  0.27960562758E+04  0.50400000000E-02 0. -1.
    8880022    1    1    2    0    0  0.10488582400E+04 -0.67521583248E+03  0.19084250024E+03  0.12711540193E+04  0.15294330000E+03 0.  0.
    8880022    1    1    2    0    0 -0.10488582400E+04  0.67521583248E+03 -0.20808693403E+04  0.24309316922E+04  0.15294330000E+03 0.  0.
<mgrwt>
<rscale>  0 0.12567465E+04</rscale>
<asrwt>0</asrwt>
<pdfrwt beam="1">  1        1 0.43016250E+00 0.12567465E+04</pdfrwt>
<pdfrwt beam="2">  1       -1 0.13938914E+00 0.12567465E+04</pdfrwt>
<totfact> 0.34939709E-01</totfact>
</mgrwt>
</event>
<event>
 4    1  0.2731969E-009  0.1927645E+04  0.7818608E-02  0.8641217E-01
         -1   -1    0    0    0  501 -0.00000000000E+00  0.00000000000E+00  0.12387317411E+04  0.12387317411E+04  0.50400000000E-02 0.  1.
          1   -1    0    0  501    0  0.00000000000E+00 -0.00000000000E+00 -0.33782080601E+04  0.33782080601E+04  0.50400000000E-02 0. -1.
    8880022    1    1    2    0    0  0.82728266964E+03  0.17343663023E+04 -0.29701720265E+03  0.19503932828E+04  0.15294330000E+03 0.  0.
    8880022    1    1    2    0    0 -0.82728266964E+03 -0.17343663023E+04 -0.18424591164E+04  0.26665465184E+04  0.15294330000E+03 0.  0.
<mgrwt>
<rscale>  0 0.19276449E+04</rscale>
<asrwt>0</asrwt>
<pdfrwt beam="1">  1        1 0.51972431E+00 0.19276449E+04</pdfrwt>
<pdfrwt beam="2">  1       -1 0.19057412E+00 0.19276449E+04</pdfrwt>
<totfact> 0.49148969E-02</totfact>
</mgrwt>
</event>
<event>
 4    1  0.2731969E-009  0.6227485E+03  0.7818608E-02  0.9859303E-01
          1   -1    0    0  501    0  0.00000000000E+00  0.00000000000E+00  0.17746264735E+04  0.17746264735E+04  0.50400000000E-02 0. -1.
         -1   -1    0    0    0  501 -0.00000000000E+00 -0.00000000000E+00 -0.98035302631E+03  0.98035302632E+03  0.50400000000E-02 0.  1.
    8880022    1    1    2    0    0  0.86163891741E+02  0.59749462970E+03 -0.81715523765E+03  0.10274037104E+04  0.15294330000E+03 0.  0.
    8880022    1    1    2    0    0 -0.86163891741E+02 -0.59749462970E+03  0.16114286848E+04  0.17275757894E+04  0.15294330000E+03 0.  0.
<mgrwt>
<rscale>  0 0.62274851E+03</rscale>
<asrwt>0</asrwt>
<pdfrwt beam="1">  1        1 0.27301945E+00 0.62274851E+03</pdfrwt>
<pdfrwt beam="2">  1       -1 0.15082354E+00 0.62274851E+03</pdfrwt>
<totfact> 0.15777991E+00</totfact>
</mgrwt>
</event>
<event>
 4    1  0.2731969E-009  0.9797564E+03  0.7818608E-02  0.9331031E-01
         -1   -1    0    0    0  501 -0.00000000000E+00  0.00000000000E+00  0.50442673540E+03  0.50442673543E+03  0.50400000000E-02 0.  1.
          1   -1    0    0  501    0  0.00000000000E+00 -0.00000000000E+00 -0.24893822490E+04  0.24893822490E+04  0.50400000000E-02 0. -1.
    8880022    1    1    2    0    0  0.83628402074E+03  0.48699080942E+03 -0.26597085903E+03  0.10152158207E+04  0.15294330000E+03 0.  0.
    8880022    1    1    2    0    0 -0.83628402074E+03 -0.48699080942E+03 -0.17189846546E+04  0.19785931637E+04  0.15294330000E+03 0.  0.
<mgrwt>
<rscale>  0 0.97975643E+03</rscale>
<asrwt>0</asrwt>
<pdfrwt beam="1">  1        1 0.38298187E+00 0.97975643E+03</pdfrwt>
<pdfrwt beam="2">  1       -1 0.77604115E-01 0.97975643E+03</pdfrwt>
<totfact> 0.23426634E+00</totfact>
</mgrwt>
</event>
<event>
 4    1  0.2731969E-009  0.6071575E+03  0.7818608E-02  0.9890667E-01
          1   -1    0    0  501    0  0.00000000000E+00  0.00000000000E+00  0.15707134033E+04  0.15707134033E+04  0.50400000000E-02 0. -1.
         -1   -1    0    0    0  501 -0.00000000000E+00 -0.00000000000E+00 -0.72455403782E+03  0.72455403784E+03  0.50400000000E-02 0.  1.
    8880022    1    1    2    0    0  0.58112876577E+03  0.86821234431E+02 -0.52055307699E+03  0.79975979402E+03  0.15294330000E+03 0.  0.
    8880022    1    1    2    0    0 -0.58112876577E+03 -0.86821234431E+02  0.13667124424E+04  0.14955076471E+04  0.15294330000E+03 0.  0.
<mgrwt>
<rscale>  0 0.60715749E+03</rscale>
<asrwt>0</asrwt>
<pdfrwt beam="1">  1        1 0.24164821E+00 0.60715749E+03</pdfrwt>
<pdfrwt beam="2">  1       -1 0.11146985E+00 0.60715749E+03</pdfrwt>
<totfact> 0.46347113E+00</totfact>
</mgrwt>
</event>
<event>
 4    1  0.2731969E-009  0.3213083E+03  0.7818608E-02  0.1075049E+00
         -1   -1    0    0    0  501 -0.00000000000E+00  0.00000000000E+00  0.20924895421E+03  0.20924895427E+03  0.50400000000E-02 0.  1.
          1   -1    0    0  501    0  0.00000000000E+00 -0.00000000000E+00 -0.98398048826E+03  0.98398048827E+03  0.50400000000E-02 0. -1.
    8880022    1    1    2    0    0  0.31244808835E+01 -0.28255551346E+03  0.33908727027E+02  0.32309261110E+03  0.15294330000E+03 0.  0.
    8880022    1    1    2    0    0 -0.31244808835E+01  0.28255551346E+03 -0.80864026108E+03  0.87013683143E+03  0.15294330000E+03 0.  0.
<mgrwt>
<rscale>  0 0.32130832E+03</rscale>
<asrwt>0</asrwt>
<pdfrwt beam="1">  1        1 0.15138161E+00 0.32130832E+03</pdfrwt>
<pdfrwt beam="2">  1       -1 0.32192148E-01 0.32130832E+03</pdfrwt>
<totfact> 0.14912078E+02</totfact>
</mgrwt>
</event>
<event>
 4    1  0.2731969E-009  0.1143539E+04  0.7818608E-02  0.9163765E-01
          1   -1    0    0  501    0  0.00000000000E+00  0.00000000000E+00  0.25952058802E+04  0.25952058802E+04  0.50400000000E-02 0. -1.
         -1   -1    0    0    0  501 -0.00000000000E+00 -0.00000000000E+00 -0.96906172945E+03  0.96906172946E+03  0.50400000000E-02 0.  1.
    8880022    1    1    2    0    0 -0.11328644068E+04 -0.30128384041E+02  0.20478086963E+04  0.23454640465E+04  0.15294330000E+03 0.  0.
    8880022    1    1    2    0    0  0.11328644068E+04  0.30128384041E+02 -0.42166454555E+03  0.12188035632E+04  0.15294330000E+03 0.  0.
<mgrwt>
<rscale>  0 0.11435389E+04</rscale>
<asrwt>0</asrwt>
<pdfrwt beam="1">  1        1 0.39926244E+00 0.11435389E+04</pdfrwt>
<pdfrwt beam="2">  1       -1 0.14908642E+00 0.11435389E+04</pdfrwt>
<totfact> 0.41090930E-01</totfact>
</mgrwt>
</event>
<event>
 4    1  0.2731969E-009  0.6855740E+03  0.7818608E-02  0.9742226E-01
         -1   -1    0    0    0  501 -0.00000000000E+00  0.00000000000E+00  0.51964702804E+03  0.51964702806E+03  0.50400000000E-02 0.  1.
          1   -1    0    0  501    0  0.00000000000E+00 -0.00000000000E+00 -0.14506746052E+04  0.14506746052E+04  0.50400000000E-02 0. -1.
    8880022    1    1    2    0    0 -0.64693053710E+03  0.16763345019E+03 -0.10700116321E+04  0.12708015736E+04  0.15294330000E+03 0.  0.
    8880022    1    1    2    0    0  0.64693053710E+03 -0.16763345019E+03  0.13898405493E+03  0.69952005975E+03  0.15294330000E+03 0.  0.
<mgrwt>
<rscale>  0 0.68557403E+03</rscale>
<asrwt>0</asrwt>
<pdfrwt beam="1">  1        1 0.22318071E+00 0.68557403E+03</pdfrwt>
<pdfrwt beam="2">  1       -1 0.79945697E-01 0.68557403E+03</pdfrwt>
<totfact> 0.11582489E+01</totfact>
</mgrwt>
</event>
<event>
 4    1  0.2731969E-009  0.7115439E+03  0.7818608E-02  0.9697692E-01
         -1   -1    0    0    0  501 -0.00000000000E+00  0.00000000000E+00  0.16298511632E+04  0.16298511632E+04  0.50400000000E-02 0.  1.
          1   -1    0    0  501    0  0.00000000000E+00 -0.00000000000E+00 -0.39418864141E+03  0.39418864145E+03  0.50400000000E-02 0. -1.
    8880022    1    1    2    0    0 -0.52800331877E+03 -0.45179144763E+03  0.15191232956E+03  0.72757956656E+03  0.15294330000E+03 0.  0.
    8880022    1    1    2    0    0  0.52800331877E+03  0.45179144763E+03  0.10837501922E+04  0.12964602381E+04  0.15294330000E+03 0.  0.
<mgrwt>
<rscale>  0 0.71154386E+03</rscale>
<asrwt>0</asrwt>
<pdfrwt beam="1">  1        1 0.60644406E-01 0.71154386E+03</pdfrwt>
<pdfrwt beam="2">  1       -1 0.25074633E+00 0.71154386E+03</pdfrwt>
<totfact> 0.44140602E+00</totfact>
</mgrwt>
</event>
<event>
 4    1  0.2731969E-009  0.3693098E+03  0.7818608E-02  0.1054957E+00
         -1   -1    0    0    0  501 -0.00000000000E+00  0.00000000000E+00  0.77485166645E+03  0.77485166647E+03  0.50400000000E-02 0.  1.
          1   -1    0    0  501    0  0.00000000000E+00 -0.00000000000E+00 -0.54995149398E+03  0.54995149400E+03  0.50400000000E-02 0. -1.
    8880022    1    1    2    0    0  0.26303028979E+03 -0.20931590171E+03  0.65865415661E+03  0.75512583792E+03  0.15294330000E+03 0.  0.
    8880022    1    1    2    0    0 -0.26303028979E+03  0.20931590171E+03 -0.43375398413E+03  0.56967732255E+03  0.15294330000E+03 0.  0.
<mgrwt>
<rscale>  0 0.36930981E+03</rscale>
<asrwt>0</asrwt>
<pdfrwt beam="1">  1        1 0.84607922E-01 0.36930981E+03</pdfrwt>
<pdfrwt beam="2">  1       -1 0.11920795E+00 0.36930981E+03</pdfrwt>
<totfact> 0.26435772E+01</totfact>
</mgrwt>
</event>
<event>
 4    1  0.2731969E-009  0.2327581E+04  0.7818608E-02  0.8467125E-01
          1   -1    0    0  501    0  0.00000000000E+00  0.00000000000E+00  0.25364719023E+04  0.25364719023E+04  0.50400000000E-02 0. -1.
         -1   -1    0    0    0  501 -0.00000000000E+00 -0.00000000000E+00 -0.23368766777E+04  0.23368766777E+04  0.50400000000E-02 0.  1.
    8880022    1    1    2    0    0 -0.43821942075E+03 -0.22808345151E+04 -0.61479640201E+03  0.24074070315E+04  0.15294330000E+03 0.  0.
    8880022    1    1    2    0    0  0.43821942075E+03  0.22808345151E+04  0.81439162667E+03  0.24659415485E+04  0.15294330000E+03 0.  0.
<mgrwt>
<rscale>  0 0.23275811E+04</rscale>
<asrwt>0</asrwt>
<pdfrwt beam="1">  1        1 0.39022645E+00 0.23275811E+04</pdfrwt>
<pdfrwt beam="2">  1       -1 0.35951949E+00 0.23275811E+04</pdfrwt>
<totfact> 0.14677976E-02</totfact>
</mgrwt>
</event>
<event>
 4    1  0.2731969E-009  0.4229153E+03  0.7818608E-02  0.1036122E+00
          1   -1    0    0  501    0  0.00000000000E+00  0.00000000000E+00  0.65055301513E+03  0.65055301515E+03  0.50400000000E-02 0. -1.
         -1   -1    0    0    0  501 -0.00000000000E+00 -0.00000000000E+00 -0.17330601898E+04  0.17330601898E+04  0.50400000000E-02 0.  1.
    8880022    1    1    2    0    0 -0.28545565370E+03 -0.27199411500E+03 -0.16344467891E+04  0.16882753592E+04  0.15294330000E+03 0.  0.
    8880022    1    1    2    0    0  0.28545565370E+03  0.27199411500E+03  0.55193961444E+03  0.69533784582E+03  0.15294330000E+03 0.  0.
<mgrwt>
<rscale>  0 0.42291534E+03</rscale>
<asrwt>0</asrwt>
<pdfrwt beam="1">  1        1 0.10008508E+00 0.42291534E+03</pdfrwt>
<pdfrwt beam="2">  1       -1 0.26662464E+00 0.42291534E+03</pdfrwt>
<totfact> 0.18723490E+00</totfact>
</mgrwt>
</event>
<event>
 4    1  0.2731969E-009  0.8813929E+03  0.7818608E-02  0.9449145E-01
          1   -1    0    0  501    0  0.00000000000E+00  0.00000000000E+00  0.15284487329E+04  0.15284487329E+04  0.50400000000E-02 0. -1.
         -1   -1    0    0    0  501 -0.00000000000E+00 -0.00000000000E+00 -0.12623947264E+04  0.12623947264E+04  0.50400000000E-02 0.  1.
    8880022    1    1    2    0    0 -0.54978866440E+03  0.67170998408E+03 -0.94550137918E+03  0.12926044984E+04  0.15294330000E+03 0.  0.
    8880022    1    1    2    0    0  0.54978866440E+03 -0.67170998408E+03  0.12115553857E+04  0.14982389608E+04  0.15294330000E+03 0.  0.
<mgrwt>
<rscale>  0 0.88139295E+03</rscale>
<asrwt>0</asrwt>
<pdfrwt beam="1">  1        1 0.23514596E+00 0.88139295E+03</pdfrwt>
<pdfrwt beam="2">  1       -1 0.19421457E+00 0.88139295E+03</pdfrwt>
<totfact> 0.10595342E+00</totfact>
</mgrwt>
</event>
<event>
 4    1  0.2731969E-009  0.9842453E+03  0.7818608E-02  0.9325995E-01
          1   -1    0    0  501    0  0.00000000000E+00  0.00000000000E+00  0.21351319981E+04  0.21351319981E+04  0.50400000000E-02 0. -1.
         -1   -1    0    0    0  501 -0.00000000000E+00 -0.00000000000E+00 -0.78907058506E+03  0.78907058508E+03  0.50400000000E-02 0.  1.
    8880022    1    1    2    0    0  0.36912967328E+03 -0.89949450093E+03 -0.28014534207E+03  0.10233377441E+04  0.15294330000E+03 0.  0.
    8880022    1    1    2    0    0 -0.36912967328E+03  0.89949450093E+03  0.16262067551E+04  0.19008648390E+04  0.15294330000E+03 0.  0.
<mgrwt>
<rscale>  0 0.98424526E+03</rscale>
<asrwt>0</asrwt>
<pdfrwt beam="1">  1        1 0.32848184E+00 0.98424526E+03</pdfrwt>
<pdfrwt beam="2">  1       -1 0.12139548E+00 0.98424526E+03</pdfrwt>
<totfact> 0.14734830E+00</totfact>
</mgrwt>
</event>
<event>
 4    1  0.2731969E-009  0.1223913E+04  0.7818608E-02  0.9092179E-01
          1   -1    0    0  501    0  0.00000000000E+00  0.00000000000E+00  0.39630967674E+04  0.39630967674E+04  0.50400000000E-02 0. -1.
         -1   -1    0    0    0  501 -0.00000000000E+00 -0.00000000000E+00 -0.57888658204E+03  0.57888658206E+03  0.50400000000E-02 0.  1.
    8880022    1    1    2    0    0 -0.11846785744E+04  0.26666039009E+03  0.35422182662E+03  0.12741412181E+04  0.15294330000E+03 0.  0.
    8880022    1    1    2    0    0  0.11846785744E+04 -0.26666039009E+03  0.30299883587E+04  0.32678421313E+04  0.15294330000E+03 0.  0.
<mgrwt>
<rscale>  0 0.12239129E+04</rscale>
<asrwt>0</asrwt>
<pdfrwt beam="1">  1        1 0.60970720E+00 0.12239129E+04</pdfrwt>
<pdfrwt beam="2">  1       -1 0.89059473E-01 0.12239129E+04</pdfrwt>
<totfact> 0.12920520E-01</totfact>
</mgrwt>
</event>
<event>
 4    1  0.2731969E-009  0.1438456E+04  0.7818608E-02  0.8926443E-01
          1   -1    0    0  501    0  0.00000000000E+00  0.00000000000E+00  0.19540271666E+04  0.19540271666E+04  0.50400000000E-02 0. -1.
         -1   -1    0    0    0  501 -0.00000000000E+00 -0.00000000000E+00 -0.12327332821E+04  0.12327332821E+04  0.50400000000E-02 0.  1.
    8880022    1    1    2    0    0  0.69322016575E+03  0.12510829648E+04  0.95896058652E+03  0.17288030086E+04  0.15294330000E+03 0.  0.
    8880022    1    1    2    0    0 -0.69322016575E+03 -0.12510829648E+04 -0.23766670207E+03  0.14579574401E+04  0.15294330000E+03 0.  0.
<mgrwt>
<rscale>  0 0.14384556E+04</rscale>
<asrwt>0</asrwt>
<pdfrwt beam="1">  1        1 0.30061956E+00 0.14384556E+04</pdfrwt>
<pdfrwt beam="2">  1       -1 0.18965127E+00 0.14384556E+04</pdfrwt>
<totfact> 0.54212151E-01</totfact>
</mgrwt>
</event>
<event>
 4    1  0.2731969E-009  0.5602629E+03  0.7818608E-02  0.9991460E-01
         -1   -1    0    0    0  501 -0.00000000000E+00  0.00000000000E+00  0.42374685391E+03  0.42374685394E+03  0.50400000000E-02 0.  1.
          1   -1    0    0  501    0  0.00000000000E+00 -0.00000000000E+00 -0.32966857853E+04  0.32966857853E+04  0.50400000000E-02 0. -1.
    8880022    1    1    2    0    0  0.36375162182E+03  0.39772803815E+03  0.20147373853E+03  0.59538739913E+03  0.15294330000E+03 0.  0.
    8880022    1    1    2    0    0 -0.36375162182E+03 -0.39772803815E+03 -0.30744126699E+04  0.31250452401E+04  0.15294330000E+03 0.  0.
<mgrwt>
<rscale>  0 0.56026287E+03</rscale>
<asrwt>0</asrwt>
<pdfrwt beam="1">  1        1 0.50718241E+00 0.56026287E+03</pdfrwt>
<pdfrwt beam="2">  1       -1 0.65191826E-01 0.56026287E+03</pdfrwt>
<totfact> 0.97939243E-01</totfact>
</mgrwt>
</event>
<event>
 4    1  0.2731969E-009  0.8784707E+03  0.7818608E-02  0.9452902E-01
          1   -1    0    0  501    0  0.00000000000E+00  0.00000000000E+00  0.34395389634E+04  0.34395389634E+04  0.50400000000E-02 0. -1.
         -1   -1    0    0    0  501 -0.00000000000E+00 -0.00000000000E+00 -0.66613580577E+03  0.66613580579E+03  0.50400000000E-02 0.  1.
    8880022    1    1    2    0    0  0.70001692656E+03 -0.50822765001E+03  0.30584536676E+04  0.31821140035E+04  0.15294330000E+03 0.  0.
    8880022    1    1    2    0    0 -0.70001692656E+03  0.50822765001E+03 -0.28505050992E+03  0.92356076569E+03  0.15294330000E+03 0.  0.
<mgrwt>
<rscale>  0 0.87847066E+03</rscale>
<asrwt>0</asrwt>
<pdfrwt beam="1">  1        1 0.52915984E+00 0.87847066E+03</pdfrwt>
<pdfrwt beam="2">  1       -1 0.10248243E+00 0.87847066E+03</pdfrwt>
<totfact> 0.26715674E-01</totfact>
</mgrwt>
</event>
<event>
 4    1  0.2731969E-009  0.5078104E+03  0.7818608E-02  0.1011760E+00
          1   -1    0    0  501    0  0.00000000000E+00  0.00000000000E+00  0.63286495408E+03  0.63286495410E+03  0.50400000000E-02 0. -1.
         -1   -1    0    0    0  501 -0.00000000000E+00 -0.00000000000E+00 -0.75493576164E+03  0.75493576166E+03  0.50400000000E-02 0.  1.
    8880022    1    1    2    0    0  0.45132982515E+03  0.17544557278E+03 -0.53179606528E+03  0.73530841702E+03  0.15294330000E+03 0.  0.
    8880022    1    1    2    0    0 -0.45132982515E+03 -0.17544557278E+03  0.40972525772E+03  0.65249229874E+03  0.15294330000E+03 0.  0.
<mgrwt>
<rscale>  0 0.50781041E+03</rscale>
<asrwt>0</asrwt>
<pdfrwt beam="1">  1        1 0.97363840E-01 0.50781041E+03</pdfrwt>
<pdfrwt beam="2">  1       -1 0.11614396E+00 0.50781041E+03</pdfrwt>
<totfact> 0.22497134E+01</totfact>
</mgrwt>
</event>
<event>
 4    1  0.2731969E-009  0.5906269E+03  0.7818608E-02  0.9925045E-01
          1   -1    0    0  501    0  0.00000000000E+00  0.00000000000E+00  0.86367436104E+03  0.86367436105E+03  0.50400000000E-02 0. -1.
         -1   -1    0    0    0  501 -0.00000000000E+00 -0.00000000000E+00 -0.67628489846E+03  0.67628489848E+03  0.50400000000E-02 0.  1.
    8880022    1    1    2    0    0  0.57042697282E+03 -0.78453013311E+01  0.58235159542E+03  0.82944168799E+03  0.15294330000E+03 0. -1.
    8880022    1    1    2    0    0 -0.57042697282E+03  0.78453013311E+01 -0.39496213284E+03  0.71051757154E+03  0.15294330000E+03 0.  0.
<mgrwt>
<rscale>  0 0.59062690E+03</rscale>
<asrwt>0</asrwt>
<pdfrwt beam="1">  1        1 0.13287298E+00 0.59062690E+03</pdfrwt>
<pdfrwt beam="2">  1       -1 0.10404383E+00 0.59062690E+03</pdfrwt>
<totfact> 0.17831751E+01</totfact>
</mgrwt>
</event>
<event>
 4    1  0.2731969E-009  0.4524056E+03  0.7818608E-02  0.1027007E+00
          1   -1    0    0  501    0  0.00000000000E+00  0.00000000000E+00  0.24703037139E+04  0.24703037139E+04  0.50400000000E-02 0. -1.
         -1   -1    0    0    0  501 -0.00000000000E+00 -0.00000000000E+00 -0.25205892831E+03  0.25205892836E+03  0.50400000000E-02 0.  1.
    8880022    1    1    2    0    0  0.33859045053E+03  0.25813882070E+03  0.22243753637E+04  0.22699155393E+04  0.15294330000E+03 0.  0.
    8880022    1    1    2    0    0 -0.33859045053E+03 -0.25813882070E+03 -0.61305781419E+01  0.45244710292E+03  0.15294330000E+03 0.  0.
<mgrwt>
<rscale>  0 0.45240557E+03</rscale>
<asrwt>0</asrwt>
<pdfrwt beam="1">  1        1 0.38004671E+00 0.45240557E+03</pdfrwt>
<pdfrwt beam="2">  1       -1 0.38778298E-01 0.45240557E+03</pdfrwt>
<totfact> 0.10274418E+01</totfact>
</mgrwt>
</event>
<event>
 4    1  0.2731969E-009  0.7550504E+03  0.7818608E-02  0.9627460E-01
          1   -1    0    0  501    0  0.00000000000E+00  0.00000000000E+00  0.13691682459E+04  0.13691682459E+04  0.50400000000E-02 0. -1.
         -1   -1    0    0    0  501 -0.00000000000E+00 -0.00000000000E+00 -0.12651790811E+04  0.12651790811E+04  0.50400000000E-02 0.  1.
    8880022    1    1    2    0    0 -0.70852512703E+03  0.21142756545E+03 -0.10268731591E+04  0.12745860539E+04  0.15294330000E+03 0.  0.
    8880022    1    1    2    0    0  0.70852512703E+03 -0.21142756545E+03  0.11308623239E+04  0.13597612730E+04  0.15294330000E+03 0.  0.
<mgrwt>
<rscale>  0 0.75505041E+03</rscale>
<asrwt>0</asrwt>
<pdfrwt beam="1">  1        1 0.21064127E+00 0.75505041E+03</pdfrwt>
<pdfrwt beam="2">  1       -1 0.19464294E+00 0.75505041E+03</pdfrwt>
<totfact> 0.13879014E+00</totfact>
</mgrwt>
</event>
<event>
 4    1  0.2731969E-009  0.1223911E+04  0.7818608E-02  0.9092181E-01
          1   -1    0    0  501    0  0.00000000000E+00  0.00000000000E+00  0.17953088323E+04  0.17953088323E+04  0.50400000000E-02 0. -1.
         -1   -1    0    0    0  501 -0.00000000000E+00 -0.00000000000E+00 -0.13689024633E+04  0.13689024633E+04  0.50400000000E-02 0.  1.
    8880022    1    1    2    0    0 -0.12090520700E+04 -0.11296261109E+03 -0.77542872449E+03  0.14488784695E+04  0.15294330000E+03 0.  0.
    8880022    1    1    2    0    0  0.12090520700E+04  0.11296261109E+03  0.12018350934E+04  0.17153328261E+04  0.15294330000E+03 0.  0.
<mgrwt>
<rscale>  0 0.12239114E+04</rscale>
<asrwt>0</asrwt>
<pdfrwt beam="1">  1        1 0.27620136E+00 0.12239114E+04</pdfrwt>
<pdfrwt beam="2">  1       -1 0.21060038E+00 0.12239114E+04</pdfrwt>
<totfact> 0.51091944E-01</totfact>
</mgrwt>
</event>
<event>
 4    1  0.2731969E-009  0.1336537E+04  0.7818608E-02  0.9001082E-01
         -1   -1    0    0    0  501 -0.00000000000E+00  0.00000000000E+00  0.17184304877E+04  0.17184304877E+04  0.50400000000E-02 0.  1.
          1   -1    0    0  501    0  0.00000000000E+00 -0.00000000000E+00 -0.25848686022E+04  0.25848686022E+04  0.50400000000E-02 0. -1.
    8880022    1    1    2    0    0 -0.74483845833E+03  0.10991616530E+04  0.12304479114E+04  0.18166822463E+04  0.15294330000E+03 0.  0.
    8880022    1    1    2    0    0  0.74483845833E+03 -0.10991616530E+04 -0.20968860259E+04  0.24866168436E+04  0.15294330000E+03 0.  0.
<mgrwt>
<rscale>  0 0.13365374E+04</rscale>
<asrwt>0</asrwt>
<pdfrwt beam="1">  1        1 0.39767209E+00 0.13365374E+04</pdfrwt>
<pdfrwt beam="2">  1       -1 0.26437392E+00 0.13365374E+04</pdfrwt>
<totfact> 0.64217350E-02</totfact>
</mgrwt>
</event>
<event>
 4    1  0.2731969E-009  0.1019657E+04  0.7818608E-02  0.9287244E-01
          1   -1    0    0  501    0  0.00000000000E+00  0.00000000000E+00  0.24373217127E+04  0.24373217127E+04  0.50400000000E-02 0. -1.
         -1   -1    0    0    0  501 -0.00000000000E+00 -0.00000000000E+00 -0.45594560422E+03  0.45594560425E+03  0.50400000000E-02 0.  1.
    8880022    1    1    2    0    0  0.99151735210E+03  0.18221509855E+03  0.13578503270E+04  0.16980748409E+04  0.15294330000E+03 0.  0.
    8880022    1    1    2    0    0 -0.99151735210E+03 -0.18221509855E+03  0.62352578142E+03  0.11951924760E+04  0.15294330000E+03 0.  0.
<mgrwt>
<rscale>  0 0.10196571E+04</rscale>
<asrwt>0</asrwt>
<pdfrwt beam="1">  1        1 0.37497257E+00 0.10196571E+04</pdfrwt>
<pdfrwt beam="2">  1       -1 0.70145477E-01 0.10196571E+04</pdfrwt>
<totfact> 0.31221437E+00</totfact>
</mgrwt>
</event>
<event>
 4    1  0.2731969E-009  0.9405694E+03  0.7818608E-02  0.9376242E-01
         -1   -1    0    0    0  501 -0.00000000000E+00  0.00000000000E+00  0.69187638908E+03  0.69187638910E+03  0.50400000000E-02 0.  1.
          1   -1    0    0  501    0  0.00000000000E+00 -0.00000000000E+00 -0.21907836452E+04  0.21907836452E+04  0.50400000000E-02 0. -1.
    8880022    1    1    2    0    0 -0.78762568648E+03  0.49084100702E+03 -0.16794727614E+04  0.19249154593E+04  0.15294330000E+03 0.  0.
    8880022    1    1    2    0    0  0.78762568648E+03 -0.49084100702E+03  0.18056550530E+03  0.95774457497E+03  0.15294330000E+03 0.  0.
<mgrwt>
<rscale>  0 0.94056939E+03</rscale>
<asrwt>0</asrwt>
<pdfrwt beam="1">  1        1 0.33704363E+00 0.94056939E+03</pdfrwt>
<pdfrwt beam="2">  1       -1 0.10644252E+00 0.94056939E+03</pdfrwt>
<totfact> 0.18645888E+00</totfact>
</mgrwt>
</event>
<event>
 4    1  0.2731969E-009  0.1197593E+04  0.7818608E-02  0.9114966E-01
          1   -1    0    0  501    0  0.00000000000E+00  0.00000000000E+00  0.28339101422E+04  0.28339101422E+04  0.50400000000E-02 0. -1.
         -1   -1    0    0    0  501 -0.00000000000E+00 -0.00000000000E+00 -0.76266079840E+03  0.76266079841E+03  0.50400000000E-02 0.  1.
    8880022    1    1    2    0    0  0.11302439261E+04 -0.36521900914E+03  0.20786437630E+04  0.23989555651E+04  0.15294330000E+03 0.  0.
    8880022    1    1    2    0    0 -0.11302439261E+04  0.36521900914E+03 -0.73944191267E+01  0.11976153755E+04  0.15294330000E+03 0.  0.
<mgrwt>
<rscale>  0 0.11975925E+04</rscale>
<asrwt>0</asrwt>
<pdfrwt beam="1">  1        1 0.43598618E+00 0.11975925E+04</pdfrwt>
<pdfrwt beam="2">  1       -1 0.11733243E+00 0.11975925E+04</pdfrwt>
<totfact> 0.51176967E-01</totfact>
</mgrwt>
</event>
<event>
 4    1  0.2731969E-009  0.2037385E+03  0.7818608E-02  0.1146623E+00
          1   -1    0    0  501    0  0.00000000000E+00  0.00000000000E+00  0.14821052057E+03  0.14821052065E+03  0.50400000000E-02 0. -1.
         -1   -1    0    0    0  501 -0.00000000000E+00 -0.00000000000E+00 -0.28859598935E+03  0.28859598939E+03  0.50400000000E-02 0.  1.
    8880022    1    1    2    0    0 -0.29782254490E+02  0.13126597545E+03 -0.32654480322E+02  0.20633881625E+03  0.15294330000E+03 0.  0.
    8880022    1    1    2    0    0  0.29782254490E+02 -0.13126597545E+03 -0.10773098846E+03  0.23046769379E+03  0.15294330000E+03 0. -1.
<mgrwt>
<rscale>  0 0.20373854E+03</rscale>
<asrwt>0</asrwt>
<pdfrwt beam="1">  1        1 0.22801619E-01 0.20373854E+03</pdfrwt>
<pdfrwt beam="2">  1       -1 0.44399383E-01 0.20373854E+03</pdfrwt>
<totfact> 0.10968151E+03</totfact>
</mgrwt>
</event>
<event>
 4    1  0.2731969E-009  0.6799474E+03  0.7818608E-02  0.9752153E-01
         -1   -1    0    0    0  501 -0.00000000000E+00  0.00000000000E+00  0.13019128093E+04  0.13019128093E+04  0.50400000000E-02 0.  1.
          1   -1    0    0  501    0  0.00000000000E+00 -0.00000000000E+00 -0.67495317917E+03  0.67495317919E+03  0.50400000000E-02 0. -1.
    8880022    1    1    2    0    0 -0.61230293980E+03  0.25302552659E+03 -0.36693807290E+03  0.77263963757E+03  0.15294330000E+03 0.  0.
    8880022    1    1    2    0    0  0.61230293980E+03 -0.25302552659E+03  0.99389770304E+03  0.12042263509E+04  0.15294330000E+03 0.  0.
<mgrwt>
<rscale>  0 0.67994740E+03</rscale>
<asrwt>0</asrwt>
<pdfrwt beam="1">  1        1 0.10383895E+00 0.67994740E+03</pdfrwt>
<pdfrwt beam="2">  1       -1 0.20029428E+00 0.67994740E+03</pdfrwt>
<totfact> 0.45223485E+00</totfact>
</mgrwt>
</event>
<event>
 4    1  0.2731969E-009  0.1281825E+04  0.7818608E-02  0.9044104E-01
         -1   -1    0    0    0  501 -0.00000000000E+00  0.00000000000E+00  0.17645901379E+04  0.17645901379E+04  0.50400000000E-02 0.  1.
          1   -1    0    0  501    0  0.00000000000E+00 -0.00000000000E+00 -0.20032312824E+04  0.20032312824E+04  0.50400000000E-02 0. -1.
    8880022    1    1    2    0    0  0.12199297756E+04 -0.36256646515E+03 -0.14975175905E+04  0.19712010770E+04  0.15294330000E+03 0.  0.
    8880022    1    1    2    0    0 -0.12199297756E+04  0.36256646515E+03  0.12588764460E+04  0.17966203434E+04  0.15294330000E+03 0.  0.
<mgrwt>
<rscale>  0 0.12818248E+04</rscale>
<asrwt>0</asrwt>
<pdfrwt beam="1">  1        1 0.30818943E+00 0.12818248E+04</pdfrwt>
<pdfrwt beam="2">  1       -1 0.27147541E+00 0.12818248E+04</pdfrwt>
<totfact> 0.14560661E-01</totfact>
</mgrwt>
</event>
<event>
 4    1  0.2731969E-009  0.5116587E+03  0.7818608E-02  0.1010780E+00
         -1   -1    0    0    0  501 -0.00000000000E+00  0.00000000000E+00  0.75504003461E+03  0.75504003463E+03  0.50400000000E-02 0.  1.
          1   -1    0    0  501    0  0.00000000000E+00 -0.00000000000E+00 -0.41370586212E+03  0.41370586215E+03  0.50400000000E-02 0. -1.
    8880022    1    1    2    0    0 -0.20174012139E+03 -0.44463911603E+03 -0.64461244253E+02  0.51570333052E+03  0.15294330000E+03 0.  0.
    8880022    1    1    2    0    0  0.20174012139E+03  0.44463911603E+03  0.40579541674E+03  0.65304256626E+03  0.15294330000E+03 0.  0.
<mgrwt>
<rscale>  0 0.51165875E+03</rscale>
<asrwt>0</asrwt>
<pdfrwt beam="1">  1        1 0.63647056E-01 0.51165875E+03</pdfrwt>
<pdfrwt beam="2">  1       -1 0.11616000E+00 0.51165875E+03</pdfrwt>
<totfact> 0.40273702E+01</totfact>
</mgrwt>
</event>
<event>
 4    1  0.2731969E-009  0.3027266E+03  0.7818608E-02  0.1083885E+00
         -1   -1    0    0    0  501 -0.00000000000E+00  0.00000000000E+00  0.57035559155E+03  0.57035559157E+03  0.50400000000E-02 0.  1.
          1   -1    0    0  501    0  0.00000000000E+00 -0.00000000000E+00 -0.96009297085E+03  0.96009297086E+03  0.50400000000E-02 0. -1.
    8880022    1    1    2    0    0  0.23945211067E+03  0.10447220647E+03  0.50339317676E+03  0.58740794909E+03  0.15294330000E+03 0.  0.
    8880022    1    1    2    0    0 -0.23945211067E+03 -0.10447220647E+03 -0.89313055606E+03  0.94304061334E+03  0.15294330000E+03 0.  0.
<mgrwt>
<rscale>  0 0.30272662E+03</rscale>
<asrwt>0</asrwt>
<pdfrwt beam="1">  1        1 0.14770661E+00 0.30272662E+03</pdfrwt>
<pdfrwt beam="2">  1       -1 0.87747014E-01 0.30272662E+03</pdfrwt>
<totfact> 0.23193451E+01</totfact>
</mgrwt>
</event>
<event>
 4    1  0.2731969E-009  0.1784481E+04  0.7818608E-02  0.8714596E-01
         -1   -1    0    0    0  501 -0.00000000000E+00  0.00000000000E+00  0.19388692581E+04  0.19388692581E+04  0.50400000000E-02 0.  1.
          1   -1    0    0  501    0  0.00000000000E+00 -0.00000000000E+00 -0.27951796294E+04  0.27951796294E+04  0.50400000000E-02 0. -1.
    8880022    1    1    2    0    0  0.14114653296E+04  0.10810852466E+04 -0.19482605894E+04  0.26419861211E+04  0.15294330000E+03 0.  0.
    8880022    1    1    2    0    0 -0.14114653296E+04 -0.10810852466E+04  0.10919502181E+04  0.20920627664E+04  0.15294330000E+03 0.  0.
<mgrwt>
<rscale>  0 0.17844807E+04</rscale>
<asrwt>0</asrwt>
<pdfrwt beam="1">  1        1 0.43002763E+00 0.17844807E+04</pdfrwt>
<pdfrwt beam="2">  1       -1 0.29828758E+00 0.17844807E+04</pdfrwt>
<totfact> 0.25865194E-02</totfact>
</mgrwt>
</event>
<event>
 4    1  0.2731969E-009  0.3973824E+03  0.7818608E-02  0.1044690E+00
          1   -1    0    0  501    0  0.00000000000E+00  0.00000000000E+00  0.67599941847E+03  0.67599941849E+03  0.50400000000E-02 0. -1.
         -1   -1    0    0    0  501 -0.00000000000E+00 -0.00000000000E+00 -0.74205700879E+03  0.74205700880E+03  0.50400000000E-02 0.  1.
    8880022    1    1    2    0    0  0.26698189822E+03 -0.25147920000E+03  0.55388245692E+03  0.68168801596E+03  0.15294330000E+03 0.  0.
    8880022    1    1    2    0    0 -0.26698189822E+03  0.25147920000E+03 -0.61994004724E+03  0.73636841133E+03  0.15294330000E+03 0.  1.
<mgrwt>
<rscale>  0 0.39738240E+03</rscale>
<asrwt>0</asrwt>
<pdfrwt beam="1">  1        1 0.10399991E+00 0.39738240E+03</pdfrwt>
<pdfrwt beam="2">  1       -1 0.11416262E+00 0.39738240E+03</pdfrwt>
<totfact> 0.21730813E+01</totfact>
</mgrwt>
</event>
<event>
 4    1  0.2731969E-009  0.2085964E+03  0.7818608E-02  0.1142682E+00
          1   -1    0    0  501    0  0.00000000000E+00  0.00000000000E+00  0.11019306402E+04  0.11019306402E+04  0.50400000000E-02 0. -1.
         -1   -1    0    0    0  501 -0.00000000000E+00 -0.00000000000E+00 -0.75214080633E+03  0.75214080634E+03  0.50400000000E-02 0.  1.
    8880022    1    1    2    0    0  0.10198196017E+03 -0.98592587614E+02 -0.72747799637E+03  0.75679370158E+03  0.15294330000E+03 0.  1.
    8880022    1    1    2    0    0 -0.10198196017E+03  0.98592587614E+02  0.10772678303E+04  0.10972777450E+04  0.15294330000E+03 0.  0.
<mgrwt>
<rscale>  0 0.20859643E+03</rscale>
<asrwt>0</asrwt>
<pdfrwt beam="1">  1        1 0.16952779E+00 0.20859643E+03</pdfrwt>
<pdfrwt beam="2">  1       -1 0.11571397E+00 0.20859643E+03</pdfrwt>
<totfact> 0.10192498E+01</totfact>
</mgrwt>
</event>
<event>
 4    1  0.2731969E-009  0.1025045E+04  0.7818608E-02  0.9281494E-01
         -1   -1    0    0    0  501 -0.00000000000E+00  0.00000000000E+00  0.11149502999E+04  0.11149502999E+04  0.50400000000E-02 0.  1.
          1   -1    0    0  501    0  0.00000000000E+00 -0.00000000000E+00 -0.12862803223E+04  0.12862803223E+04  0.50400000000E-02 0. -1.
    8880022    1    1    2    0    0  0.95730315377E+03  0.33301146945E+03 -0.70645722946E+03  0.12449094092E+04  0.15294330000E+03 0.  0.
    8880022    1    1    2    0    0 -0.95730315377E+03 -0.33301146945E+03  0.53512720708E+03  0.11563212131E+04  0.15294330000E+03 0.  0.
<mgrwt>
<rscale>  0 0.10250452E+04</rscale>
<asrwt>0</asrwt>
<pdfrwt beam="1">  1        1 0.19788928E+00 0.10250452E+04</pdfrwt>
<pdfrwt beam="2">  1       -1 0.17153082E+00 0.10250452E+04</pdfrwt>
<totfact> 0.22209066E+00</totfact>
</mgrwt>
</event>
<event>
 4    1  0.2731969E-009  0.5875533E+03  0.7818608E-02  0.9931571E-01
         -1   -1    0    0    0  501 -0.00000000000E+00  0.00000000000E+00  0.33096221587E+03  0.33096221591E+03  0.50400000000E-02 0.  1.
          1   -1    0    0  501    0  0.00000000000E+00 -0.00000000000E+00 -0.12188483243E+04  0.12188483243E+04  0.50400000000E-02 0. -1.
    8880022    1    1    2    0    0 -0.26941438322E+03  0.49924249356E+03 -0.73821489713E+03  0.94349354244E+03  0.15294330000E+03 0.  0.
    8880022    1    1    2    0    0  0.26941438322E+03 -0.49924249356E+03 -0.14967121126E+03  0.60631699775E+03  0.15294330000E+03 0.  0.
<mgrwt>
<rscale>  0 0.58755326E+03</rscale>
<asrwt>0</asrwt>
<pdfrwt beam="1">  1        1 0.18751512E+00 0.58755326E+03</pdfrwt>
<pdfrwt beam="2">  1       -1 0.50917265E-01 0.58755326E+03</pdfrwt>
<totfact> 0.42042994E+01</totfact>
</mgrwt>
</event>
<event>
 4    1  0.2731969E-009  0.3055995E+03  0.7818608E-02  0.1082475E+00
         -1   -1    0    0    0  501 -0.00000000000E+00  0.00000000000E+00  0.45178785598E+03  0.45178785601E+03  0.50400000000E-02 0.  1.
          1   -1    0    0  501    0  0.00000000000E+00 -0.00000000000E+00 -0.18238114527E+04  0.18238114527E+04  0.50400000000E-02 0. -1.
    8880022    1    1    2    0    0  0.16327070506E+03  0.20818760915E+03  0.38536902992E+03  0.49183365681E+03  0.15294330000E+03 0.  0.
    8880022    1    1    2    0    0 -0.16327070506E+03 -0.20818760915E+03 -0.17573926266E+04  0.17837656519E+04  0.15294330000E+03 0.  0.
<mgrwt>
<rscale>  0 0.30559950E+03</rscale>
<asrwt>0</asrwt>
<pdfrwt beam="1">  1        1 0.28058637E+00 0.30559950E+03</pdfrwt>
<pdfrwt beam="2">  1       -1 0.69505825E-01 0.30559950E+03</pdfrwt>
<totfact> 0.95751068E+00</totfact>
</mgrwt>
</event>
<event>
 4    1  0.2731969E-009  0.6134581E+03  0.7818608E-02  0.9877872E-01
         -1   -1    0    0    0  501 -0.00000000000E+00  0.00000000000E+00  0.58598788468E+03  0.58598788470E+03  0.50400000000E-02 0.  1.
          1   -1    0    0  501    0  0.00000000000E+00 -0.00000000000E+00 -0.92809984337E+03  0.92809984338E+03  0.50400000000E-02 0. -1.
    8880022    1    1    2    0    0 -0.82261432715E+02  0.58836405520E+03  0.24910761457E+03  0.66210683535E+03  0.15294330000E+03 0.  0.
    8880022    1    1    2    0    0  0.82261432715E+02 -0.58836405520E+03 -0.59121957326E+03  0.85198089273E+03  0.15294330000E+03 0.  0.
<mgrwt>
<rscale>  0 0.61345811E+03</rscale>
<asrwt>0</asrwt>
<pdfrwt beam="1">  1        1 0.14278459E+00 0.61345811E+03</pdfrwt>
<pdfrwt beam="2">  1       -1 0.90151983E-01 0.61345811E+03</pdfrwt>
<totfact> 0.21740941E+01</totfact>
</mgrwt>
</event>
<event>
 4    1  0.2731969E-009  0.1327708E+04  0.7818608E-02  0.9007876E-01
         -1   -1    0    0    0  501 -0.00000000000E+00  0.00000000000E+00  0.19215809507E+04  0.19215809507E+04  0.50400000000E-02 0.  1.
          1   -1    0    0  501    0  0.00000000000E+00 -0.00000000000E+00 -0.18079523827E+04  0.18079523827E+04  0.50400000000E-02 0. -1.
    8880022    1    1    2    0    0  0.68966568817E+03  0.11241791591E+04  0.13655952713E+04  0.19046416044E+04  0.15294330000E+03 0.  0.
    8880022    1    1    2    0    0 -0.68966568817E+03 -0.11241791591E+04 -0.12519667034E+04  0.18248917290E+04  0.15294330000E+03 0.  0.
<mgrwt>
<rscale>  0 0.13277082E+04</rscale>
<asrwt>0</asrwt>
<pdfrwt beam="1">  1        1 0.27814652E+00 0.13277082E+04</pdfrwt>
<pdfrwt beam="2">  1       -1 0.29562784E+00 0.13277082E+04</pdfrwt>
<totfact> 0.13699783E-01</totfact>
</mgrwt>
</event>
<event>
 4    1  0.2731969E-009  0.1342028E+04  0.7818608E-02  0.8996885E-01
          1   -1    0    0  501    0  0.00000000000E+00  0.00000000000E+00  0.34746626888E+04  0.34746626888E+04  0.50400000000E-02 0. -1.
         -1   -1    0    0    0  501 -0.00000000000E+00 -0.00000000000E+00 -0.65837486093E+03  0.65837486095E+03  0.50400000000E-02 0.  1.
    8880022    1    1    2    0    0 -0.68918118490E+03  0.11413486992E+04  0.45506556570E+03  0.14170828772E+04  0.15294330000E+03 0.  0.
    8880022    1    1    2    0    0  0.68918118490E+03 -0.11413486992E+04  0.23612222621E+04  0.27159546725E+04  0.15294330000E+03 0.  0.
<mgrwt>
<rscale>  0 0.13420280E+04</rscale>
<asrwt>0</asrwt>
<pdfrwt beam="1">  1        1 0.53456348E+00 0.13420280E+04</pdfrwt>
<pdfrwt beam="2">  1       -1 0.10128844E+00 0.13420280E+04</pdfrwt>
<totfact> 0.23798852E-01</totfact>
</mgrwt>
</event>
<event>
 4    1  0.2731969E-009  0.9545326E+03  0.7818608E-02  0.9359868E-01
         -1   -1    0    0    0  501 -0.00000000000E+00  0.00000000000E+00  0.10447678708E+04  0.10447678708E+04  0.50400000000E-02 0.  1.
          1   -1    0    0  501    0  0.00000000000E+00 -0.00000000000E+00 -0.10794553809E+04  0.10794553809E+04  0.50400000000E-02 0. -1.
    8880022    1    1    2    0    0 -0.78089970187E+03 -0.52719673975E+03  0.44817282391E+03  0.10545099714E+04  0.15294330000E+03 0.  0.
    8880022    1    1    2    0    0  0.78089970187E+03  0.52719673975E+03 -0.48286033400E+03  0.10697132803E+04  0.15294330000E+03 0.  0.
<mgrwt>
<rscale>  0 0.95453256E+03</rscale>
<asrwt>0</asrwt>
<pdfrwt beam="1">  1        1 0.16607006E+00 0.95453256E+03</pdfrwt>
<pdfrwt beam="2">  1       -1 0.16073352E+00 0.95453256E+03</pdfrwt>
<totfact> 0.38245176E+00</totfact>
</mgrwt>
</event>
<event>
 4    1  0.2731969E-009  0.1042635E+04  0.7818608E-02  0.9262981E-01
          1   -1    0    0  501    0  0.00000000000E+00  0.00000000000E+00  0.32977860932E+04  0.32977860932E+04  0.50400000000E-02 0. -1.
         -1   -1    0    0    0  501 -0.00000000000E+00 -0.00000000000E+00 -0.54294534615E+03  0.54294534617E+03  0.50400000000E-02 0.  1.
    8880022    1    1    2    0    0 -0.90975988415E+03 -0.48583267382E+03  0.25810834623E+04  0.27837169263E+04  0.15294330000E+03 0.  0.
    8880022    1    1    2    0    0  0.90975988415E+03  0.48583267382E+03  0.17375728478E+03  0.10570145130E+04  0.15294330000E+03 0.  0.
<mgrwt>
<rscale>  0 0.10426352E+04</rscale>
<asrwt>0</asrwt>
<pdfrwt beam="1">  1        1 0.50735170E+00 0.10426352E+04</pdfrwt>
<pdfrwt beam="2">  1       -1 0.83530055E-01 0.10426352E+04</pdfrwt>
<totfact> 0.52355844E-01</totfact>
</mgrwt>
</event>
<event>
 4    1  0.2731969E-009  0.9814581E+03  0.7818608E-02  0.9329118E-01
          1   -1    0    0  501    0  0.00000000000E+00  0.00000000000E+00  0.18022080583E+04  0.18022080583E+04  0.50400000000E-02 0. -1.
         -1   -1    0    0    0  501 -0.00000000000E+00 -0.00000000000E+00 -0.64321329166E+03  0.64321329168E+03  0.50400000000E-02 0.  1.
    8880022    1    1    2    0    0  0.75545995920E+03  0.60757594581E+03  0.76796103521E+02  0.98445801048E+03  0.15294330000E+03 0.  0.
    8880022    1    1    2    0    0 -0.75545995920E+03 -0.60757594581E+03  0.10821986631E+04  0.14609633395E+04  0.15294330000E+03 0.  0.
<mgrwt>
<rscale>  0 0.98145806E+03</rscale>
<asrwt>0</asrwt>
<pdfrwt beam="1">  1        1 0.27726277E+00 0.98145806E+03</pdfrwt>
<pdfrwt beam="2">  1       -1 0.98955892E-01 0.98145806E+03</pdfrwt>
<totfact> 0.40079184E+00</totfact>
</mgrwt>
</event>
<event>
 4    1  0.2731969E-009  0.8893401E+03  0.7818608E-02  0.9439006E-01
          1   -1    0    0  501    0  0.00000000000E+00  0.00000000000E+00  0.33145882274E+04  0.33145882274E+04  0.50400000000E-02 0. -1.
         -1   -1    0    0    0  501 -0.00000000000E+00 -0.00000000000E+00 -0.67048145600E+03  0.67048145602E+03  0.50400000000E-02 0.  1.
    8880022    1    1    2    0    0 -0.82621220840E+03 -0.29138895156E+03 -0.27708096231E+03  0.93150397052E+03  0.15294330000E+03 0.  0.
    8880022    1    1    2    0    0  0.82621220840E+03  0.29138895156E+03  0.29211877337E+04  0.30535657129E+04  0.15294330000E+03 0.  0.
<mgrwt>
<rscale>  0 0.88934009E+03</rscale>
<asrwt>0</asrwt>
<pdfrwt beam="1">  1        1 0.50993665E+00 0.88934009E+03</pdfrwt>
<pdfrwt beam="2">  1       -1 0.10315099E+00 0.88934009E+03</pdfrwt>
<totfact> 0.32672940E-01</totfact>
</mgrwt>
</event>
<event>
 4    1  0.2731969E-009  0.1821478E+04  0.7818608E-02  0.8694960E-01
          1   -1    0    0  501    0  0.00000000000E+00  0.00000000000E+00  0.17952900649E+04  0.17952900650E+04  0.50400000000E-02 0. -1.
         -1   -1    0    0    0  501 -0.00000000000E+00 -0.00000000000E+00 -0.27633809566E+04  0.27633809566E+04  0.50400000000E-02 0.  1.
    8880022    1    1    2    0    0 -0.13729406768E+04 -0.11871919232E+04  0.82778407322E+03  0.20007520809E+04  0.15294330000E+03 0.  0.
    8880022    1    1    2    0    0  0.13729406768E+04  0.11871919232E+04 -0.17958749649E+04  0.25579189406E+04  0.15294330000E+03 0.  0.
<mgrwt>
<rscale>  0 0.18214781E+04</rscale>
<asrwt>0</asrwt>
<pdfrwt beam="1">  1        1 0.27619847E+00 0.18214781E+04</pdfrwt>
<pdfrwt beam="2">  1       -1 0.42513553E+00 0.18214781E+04</pdfrwt>
<totfact> 0.17869285E-02</totfact>
</mgrwt>
</event>
<event>
 4    1  0.2731969E-009  0.7548940E+03  0.7818608E-02  0.9627704E-01
          1   -1    0    0  501    0  0.00000000000E+00  0.00000000000E+00  0.21316414124E+04  0.21316414124E+04  0.50400000000E-02 0. -1.
         -1   -1    0    0    0  501 -0.00000000000E+00 -0.00000000000E+00 -0.41268197674E+03  0.41268197677E+03  0.50400000000E-02 0.  1.
    8880022    1    1    2    0    0  0.56506677214E+03  0.47662655580E+03  0.16144601994E+04  0.17822308265E+04  0.15294330000E+03 0.  0.
    8880022    1    1    2    0    0 -0.56506677214E+03 -0.47662655580E+03  0.10449923632E+03  0.76209256267E+03  0.15294330000E+03 0.  0.
<mgrwt>
<rscale>  0 0.75489402E+03</rscale>
<asrwt>0</asrwt>
<pdfrwt beam="1">  1        1 0.32794483E+00 0.75489402E+03</pdfrwt>
<pdfrwt beam="2">  1       -1 0.63489535E-01 0.75489402E+03</pdfrwt>
<totfact> 0.64063168E+00</totfact>
</mgrwt>
</event>
<event>
 4    1  0.2731969E-009  0.3922173E+03  0.7818608E-02  0.1046508E+00
          1   -1    0    0  501    0  0.00000000000E+00  0.00000000000E+00  0.10389432177E+04  0.10389432177E+04  0.50400000000E-02 0. -1.
         -1   -1    0    0    0  501 -0.00000000000E+00 -0.00000000000E+00 -0.94541950835E+03  0.94541950836E+03  0.50400000000E-02 0.  1.
    8880022    1    1    2    0    0  0.14342328393E+03 -0.33147024994E+03 -0.86441703593E+03  0.94923718322E+03  0.15294330000E+03 0.  0.
    8880022    1    1    2    0    0 -0.14342328393E+03  0.33147024994E+03  0.95794074526E+03  0.10351255428E+04  0.15294330000E+03 0.  0.
<mgrwt>
<rscale>  0 0.39221731E+03</rscale>
<asrwt>0</asrwt>
<pdfrwt beam="1">  1        1 0.15983742E+00 0.39221731E+03</pdfrwt>
<pdfrwt beam="2">  1       -1 0.14544916E+00 0.39221731E+03</pdfrwt>
<totfact> 0.59805319E+00</totfact>
</mgrwt>
</event>
<event>
 4    1  0.2731969E-009  0.1663141E+03  0.7818608E-02  0.1181747E+00
          1   -1    0    0  501    0  0.00000000000E+00  0.00000000000E+00  0.86908673496E+03  0.86908673498E+03  0.50400000000E-02 0. -1.
         -1   -1    0    0    0  501 -0.00000000000E+00 -0.00000000000E+00 -0.13665155757E+03  0.13665155766E+03  0.50400000000E-02 0.  1.
    8880022    1    1    2    0    0 -0.64600064297E+02 -0.97745867711E+01 -0.74214911062E+02  0.18212143447E+03  0.15294330000E+03 0.  1.
    8880022    1    1    2    0    0  0.64600064297E+02  0.97745867711E+01  0.80665008845E+03  0.82361685817E+03  0.15294330000E+03 0.  0.
<mgrwt>
<rscale>  0 0.16631405E+03</rscale>
<asrwt>0</asrwt>
<pdfrwt beam="1">  1        1 0.13370565E+00 0.16631405E+03</pdfrwt>
<pdfrwt beam="2">  1       -1 0.21023317E-01 0.16631405E+03</pdfrwt>
<totfact> 0.38292361E+02</totfact>
</mgrwt>
</event>
<event>
 4    1  0.2731969E-009  0.7226232E+03  0.7818608E-02  0.9679307E-01
         -1   -1    0    0    0  501 -0.00000000000E+00  0.00000000000E+00  0.61310717749E+03  0.61310717751E+03  0.50400000000E-02 0.  1.
          1   -1    0    0  501    0  0.00000000000E+00 -0.00000000000E+00 -0.28100784353E+04  0.28100784353E+04  0.50400000000E-02 0. -1.
    8880022    1    1    2    0    0 -0.20413819134E+03  0.67610670160E+03 -0.25273446136E+04  0.26286222859E+04  0.15294330000E+03 0.  0.
    8880022    1    1    2    0    0  0.20413819134E+03 -0.67610670160E+03  0.33037335583E+03  0.79456332685E+03  0.15294330000E+03 0.  0.
<mgrwt>
<rscale>  0 0.72262323E+03</rscale>
<asrwt>0</asrwt>
<pdfrwt beam="1">  1        1 0.43231975E+00 0.72262323E+03</pdfrwt>
<pdfrwt beam="2">  1       -1 0.94324182E-01 0.72262323E+03</pdfrwt>
<totfact> 0.96432637E-01</totfact>
</mgrwt>
</event>
<event>
 4    1  0.2731969E-009  0.5473202E+03  0.7818608E-02  0.1002116E+00
          1   -1    0    0  501    0  0.00000000000E+00  0.00000000000E+00  0.37014814930E+04  0.37014814930E+04  0.50400000000E-02 0. -1.
         -1   -1    0    0    0  501 -0.00000000000E+00 -0.00000000000E+00 -0.96843257820E+02  0.96843257951E+02  0.50400000000E-02 0.  1.
    8880022    1    1    2    0    0 -0.18296959540E+03 -0.49263566577E+03  0.25721802249E+04  0.26297662509E+04  0.15294330000E+03 0.  0.
    8880022    1    1    2    0    0  0.18296959540E+03  0.49263566577E+03  0.10324580103E+04  0.11685585001E+04  0.15294330000E+03 0.  0.
<mgrwt>
<rscale>  0 0.54732022E+03</rscale>
<asrwt>0</asrwt>
<pdfrwt beam="1">  1        1 0.56945869E+00 0.54732022E+03</pdfrwt>
<pdfrwt beam="2">  1       -1 0.14898963E-01 0.54732022E+03</pdfrwt>
<totfact> 0.64798409E+00</totfact>
</mgrwt>
</event>
<event>
 4    1  0.2731969E-009  0.8345304E+03  0.7818608E-02  0.9511338E-01
         -1   -1    0    0    0  501 -0.00000000000E+00  0.00000000000E+00  0.75140243169E+03  0.75140243171E+03  0.50400000000E-02 0.  1.
          1   -1    0    0  501    0  0.00000000000E+00 -0.00000000000E+00 -0.12612727324E+04  0.12612727324E+04  0.50400000000E-02 0. -1.
    8880022    1    1    2    0    0 -0.81864652293E+03  0.53546745152E+02 -0.77311902378E+03  0.11376089229E+04  0.15294330000E+03 0.  0.
    8880022    1    1    2    0    0  0.81864652293E+03 -0.53546745152E+02  0.26324872304E+03  0.87506624128E+03  0.15294330000E+03 0.  0.
<mgrwt>
<rscale>  0 0.83453043E+03</rscale>
<asrwt>0</asrwt>
<pdfrwt beam="1">  1        1 0.19404196E+00 0.83453043E+03</pdfrwt>
<pdfrwt beam="2">  1       -1 0.11560037E+00 0.83453043E+03</pdfrwt>
<totfact> 0.66984701E+00</totfact>
</mgrwt>
</event>
<event>
 4    1  0.2731969E-009  0.8860021E+03  0.7818608E-02  0.9443251E-01
         -1   -1    0    0    0  501 -0.00000000000E+00  0.00000000000E+00  0.10412053389E+04  0.10412053389E+04  0.50400000000E-02 0.  1.
          1   -1    0    0  501    0  0.00000000000E+00 -0.00000000000E+00 -0.24361395093E+04  0.24361395093E+04  0.50400000000E-02 0. -1.
    8880022    1    1    2    0    0  0.69394804279E+03 -0.52919197289E+03  0.74732803585E+03  0.11590939895E+04  0.15294330000E+03 0.  0.
    8880022    1    1    2    0    0 -0.69394804279E+03  0.52919197289E+03 -0.21422622063E+04  0.23182508587E+04  0.15294330000E+03 0.  0.
<mgrwt>
<rscale>  0 0.88600208E+03</rscale>
<asrwt>0</asrwt>
<pdfrwt beam="1">  1        1 0.37479069E+00 0.88600208E+03</pdfrwt>
<pdfrwt beam="2">  1       -1 0.16018544E+00 0.88600208E+03</pdfrwt>
<totfact> 0.45423370E-01</totfact>
</mgrwt>
</event>
<event>
 4    1  0.2731969E-009  0.5124004E+03  0.7818608E-02  0.1010592E+00
         -1   -1    0    0    0  501 -0.00000000000E+00  0.00000000000E+00  0.63266798515E+03  0.63266798517E+03  0.50400000000E-02 0.  1.
          1   -1    0    0  501    0  0.00000000000E+00 -0.00000000000E+00 -0.17415913534E+04  0.17415913534E+04  0.50400000000E-02 0. -1.
    8880022    1    1    2    0    0  0.46936211143E+03 -0.13733784333E+03  0.48162098416E+03  0.70321611206E+03  0.15294330000E+03 0.  0.
    8880022    1    1    2    0    0 -0.46936211143E+03  0.13733784333E+03 -0.15905443524E+04  0.16710432265E+04  0.15294330000E+03 0.  0.
<mgrwt>
<rscale>  0 0.51240036E+03</rscale>
<asrwt>0</asrwt>
<pdfrwt beam="1">  1        1 0.26793713E+00 0.51240036E+03</pdfrwt>
<pdfrwt beam="2">  1       -1 0.97333536E-01 0.51240036E+03</pdfrwt>
<totfact> 0.49747336E+00</totfact>
</mgrwt>
</event>
<event>
 4    1  0.2731969E-009  0.2898650E+03  0.7818608E-02  0.1090420E+00
         -1   -1    0    0    0  501 -0.00000000000E+00  0.00000000000E+00  0.22310208348E+03  0.22310208354E+03  0.50400000000E-02 0.  1.
          1   -1    0    0  501    0  0.00000000000E+00 -0.00000000000E+00 -0.72106231912E+03  0.72106231914E+03  0.50400000000E-02 0. -1.
    8880022    1    1    2    0    0  0.74801165615E+01  0.24611812818E+03 -0.57526568724E+03  0.64416795099E+03  0.15294330000E+03 0. -1.
    8880022    1    1    2    0    0 -0.74801165615E+01 -0.24611812818E+03  0.77305451600E+02  0.29999645168E+03  0.15294330000E+03 0.  0.
<mgrwt>
<rscale>  0 0.28986503E+03</rscale>
<asrwt>0</asrwt>
<pdfrwt beam="1">  1        1 0.11093266E+00 0.28986503E+03</pdfrwt>
<pdfrwt beam="2">  1       -1 0.34323398E-01 0.28986503E+03</pdfrwt>
<totfact> 0.21992572E+02</totfact>
</mgrwt>
</event>
<event>
 4    1  0.2731969E-009  0.1207580E+04  0.7818608E-02  0.9106247E-01
          1   -1    0    0  501    0  0.00000000000E+00  0.00000000000E+00  0.23023230326E+04  0.23023230326E+04  0.50400000000E-02 0. -1.
         -1   -1    0    0    0  501 -0.00000000000E+00 -0.00000000000E+00 -0.80882953456E+03  0.80882953458E+03  0.50400000000E-02 0.  1.
    8880022    1    1    2    0    0  0.89100601776E+03  0.80060386329E+03  0.22249949330E+02  0.12077851559E+04  0.15294330000E+03 0.  0.
    8880022    1    1    2    0    0 -0.89100601776E+03 -0.80060386329E+03  0.14712435487E+04  0.19033674113E+04  0.15294330000E+03 0. -1.
<mgrwt>
<rscale>  0 0.12075802E+04</rscale>
<asrwt>0</asrwt>
<pdfrwt beam="1">  1        1 0.35420354E+00 0.12075802E+04</pdfrwt>
<pdfrwt beam="2">  1       -1 0.12443531E+00 0.12075802E+04</pdfrwt>
<totfact> 0.10343328E+00</totfact>
</mgrwt>
</event>
<event>
 4    1  0.2731969E-009  0.7041195E+03  0.7818608E-02  0.9710213E-01
          1   -1    0    0  501    0  0.00000000000E+00  0.00000000000E+00  0.12752044911E+04  0.12752044911E+04  0.50400000000E-02 0. -1.
         -1   -1    0    0    0  501 -0.00000000000E+00 -0.00000000000E+00 -0.68993314255E+03  0.68993314257E+03  0.50400000000E-02 0.  1.
    8880022    1    1    2    0    0  0.64968418027E+03 -0.22428337826E+03  0.94178916187E+03  0.11759043525E+04  0.15294330000E+03 0.  0.
    8880022    1    1    2    0    0 -0.64968418027E+03  0.22428337826E+03 -0.35651781331E+03  0.78923328116E+03  0.15294330000E+03 0.  0.
<mgrwt>
<rscale>  0 0.70411946E+03</rscale>
<asrwt>0</asrwt>
<pdfrwt beam="1">  1        1 0.19618531E+00 0.70411946E+03</pdfrwt>
<pdfrwt beam="2">  1       -1 0.10614356E+00 0.70411946E+03</pdfrwt>
<totfact> 0.81663620E+00</totfact>
</mgrwt>
</event>
<event>
 4    1  0.2731969E-009  0.4155310E+03  0.7818608E-02  0.1038531E+00
         -1   -1    0    0    0  501 -0.00000000000E+00  0.00000000000E+00  0.55918094494E+03  0.55918094496E+03  0.50400000000E-02 0.  1.
          1   -1    0    0  501    0  0.00000000000E+00 -0.00000000000E+00 -0.19166416196E+04  0.19166416196E+04  0.50400000000E-02 0. -1.
    8880022    1    1    2    0    0 -0.13932917475E+03 -0.36036334960E+03 -0.18125471307E+04  0.18595679920E+04  0.15294330000E+03 0.  0.
    8880022    1    1    2    0    0  0.13932917475E+03  0.36036334960E+03  0.45508645610E+03  0.61625457257E+03  0.15294330000E+03 0.  0.
<mgrwt>
<rscale>  0 0.41553100E+03</rscale>
<asrwt>0</asrwt>
<pdfrwt beam="1">  1        1 0.29486794E+00 0.41553100E+03</pdfrwt>
<pdfrwt beam="2">  1       -1 0.86027839E-01 0.41553100E+03</pdfrwt>
<totfact> 0.51383056E+00</totfact>
</mgrwt>
</event>
<event>
 4    1  0.2731969E-009  0.6265086E+03  0.7818608E-02  0.9851886E-01
          1   -1    0    0  501    0  0.00000000000E+00  0.00000000000E+00  0.16981284975E+04  0.16981284975E+04  0.50400000000E-02 0. -1.
         -1   -1    0    0    0  501 -0.00000000000E+00 -0.00000000000E+00 -0.11953563839E+04  0.11953563839E+04  0.50400000000E-02 0.  1.
    8880022    1    1    2    0    0 -0.35938399028E+03 -0.48986177797E+03 -0.10479717453E+04  0.12209659479E+04  0.15294330000E+03 0.  0.
    8880022    1    1    2    0    0  0.35938399028E+03  0.48986177797E+03  0.15507438589E+04  0.16725189335E+04  0.15294330000E+03 0.  0.
<mgrwt>
<rscale>  0 0.62650863E+03</rscale>
<asrwt>0</asrwt>
<pdfrwt beam="1">  1        1 0.26125054E+00 0.62650863E+03</pdfrwt>
<pdfrwt beam="2">  1       -1 0.18390098E+00 0.62650863E+03</pdfrwt>
<totfact> 0.10127428E+00</totfact>
</mgrwt>
</event>
<event>
 4    1  0.2731969E-009  0.8509763E+03  0.7818608E-02  0.9489028E-01
         -1   -1    0    0    0  501 -0.00000000000E+00  0.00000000000E+00  0.56720005440E+03  0.56720005442E+03  0.50400000000E-02 0.  1.
          1   -1    0    0  501    0  0.00000000000E+00 -0.00000000000E+00 -0.19732662208E+04  0.19732662208E+04  0.50400000000E-02 0. -1.
    8880022    1    1    2    0    0  0.34911190871E+03  0.76084813797E+03 -0.14577130335E+04  0.16879241556E+04  0.15294330000E+03 0.  0.
    8880022    1    1    2    0    0 -0.34911190871E+03 -0.76084813797E+03  0.51646867145E+02  0.85254211963E+03  0.15294330000E+03 0.  0.
<mgrwt>
<rscale>  0 0.85097630E+03</rscale>
<asrwt>0</asrwt>
<pdfrwt beam="1">  1        1 0.30357941E+00 0.85097630E+03</pdfrwt>
<pdfrwt beam="2">  1       -1 0.87261548E-01 0.85097630E+03</pdfrwt>
<totfact> 0.41486483E+00</totfact>
</mgrwt>
</event>
<event>
 4    1  0.2731969E-009  0.2418244E+03  0.7818608E-02  0.1118583E+00
         -1   -1    0    0    0  501 -0.00000000000E+00  0.00000000000E+00  0.12670478212E+03  0.12670478222E+03  0.50400000000E-02 0.  1.
          1   -1    0    0  501    0  0.00000000000E+00 -0.00000000000E+00 -0.18611592076E+04  0.18611592076E+04  0.50400000000E-02 0. -1.
    8880022    1    1    2    0    0 -0.18583928133E+03  0.23476300618E+02 -0.17291536839E+04  0.17459815265E+04  0.15294330000E+03 0. -1.
    8880022    1    1    2    0    0  0.18583928133E+03 -0.23476300618E+02 -0.53007415024E+01  0.24188246330E+03  0.15294330000E+03 0.  0.
<mgrwt>
<rscale>  0 0.24182437E+03</rscale>
<asrwt>0</asrwt>
<pdfrwt beam="1">  1        1 0.28633217E+00 0.24182437E+03</pdfrwt>
<pdfrwt beam="2">  1       -1 0.19493045E-01 0.24182437E+03</pdfrwt>
<totfact> 0.88766506E+01</totfact>
</mgrwt>
</event>
<event>
 4    1  0.2731969E-009  0.1392843E+04  0.7818608E-02  0.8959016E-01
         -1   -1    0    0    0  501 -0.00000000000E+00  0.00000000000E+00  0.12030850766E+04  0.12030850766E+04  0.50400000000E-02 0.  1.
          1   -1    0    0  501    0  0.00000000000E+00 -0.00000000000E+00 -0.21014693690E+04  0.21014693690E+04  0.50400000000E-02 0. -1.
    8880022    1    1    2    0    0 -0.13059688683E+04  0.45941711919E+03 -0.12461750721E+04  0.18689469596E+04  0.15294330000E+03 0.  0.
    8880022    1    1    2    0    0  0.13059688683E+04 -0.45941711919E+03  0.34779077969E+03  0.14356074860E+04  0.15294330000E+03 0.  0.
<mgrwt>
<rscale>  0 0.13928426E+04</rscale>
<asrwt>0</asrwt>
<pdfrwt beam="1">  1        1 0.32330298E+00 0.13928426E+04</pdfrwt>
<pdfrwt beam="2">  1       -1 0.18509001E+00 0.13928426E+04</pdfrwt>
<totfact> 0.46627643E-01</totfact>
</mgrwt>
</event>
<event>
 4    1  0.2731969E-009  0.8678536E+03  0.7818608E-02  0.9466683E-01
          1   -1    0    0  501    0  0.00000000000E+00  0.00000000000E+00  0.31081916581E+04  0.31081916581E+04  0.50400000000E-02 0. -1.
         -1   -1    0    0    0  501 -0.00000000000E+00 -0.00000000000E+00 -0.50718728153E+03  0.50718728156E+03  0.50400000000E-02 0.  1.
    8880022    1    1    2    0    0 -0.35950714553E+03  0.77494058550E+03  0.26068405119E+04  0.27475056700E+04  0.15294330000E+03 0. -1.
    8880022    1    1    2    0    0  0.35950714553E+03 -0.77494058550E+03 -0.58361353866E+01  0.86787326969E+03  0.15294330000E+03 0.  0.
<mgrwt>
<rscale>  0 0.86785365E+03</rscale>
<asrwt>0</asrwt>
<pdfrwt beam="1">  1        1 0.47818334E+00 0.86785365E+03</pdfrwt>
<pdfrwt beam="2">  1       -1 0.78028811E-01 0.86785365E+03</pdfrwt>
<totfact> 0.86388725E-01</totfact>
</mgrwt>
</event>
<event>
 4    1  0.2731969E-009  0.1874602E+03  0.7818608E-02  0.1160772E+00
         -1   -1    0    0    0  501 -0.00000000000E+00  0.00000000000E+00  0.49995417826E+03  0.49995417828E+03  0.50400000000E-02 0.  1.
          1   -1    0    0  501    0  0.00000000000E+00 -0.00000000000E+00 -0.14940227517E+03  0.14940227525E+03  0.50400000000E-02 0. -1.
    8880022    1    1    2    0    0  0.66738378726E+02 -0.85414552355E+02 -0.60988875808E+02  0.19713181614E+03  0.15294330000E+03 0.  1.
    8880022    1    1    2    0    0 -0.66738378726E+02  0.85414552355E+02  0.41154077890E+03  0.45222463739E+03  0.15294330000E+03 0.  1.
<mgrwt>
<rscale>  0 0.18746016E+03</rscale>
<asrwt>0</asrwt>
<pdfrwt beam="1">  1        1 0.22984966E-01 0.18746016E+03</pdfrwt>
<pdfrwt beam="2">  1       -1 0.76916027E-01 0.18746016E+03</pdfrwt>
<totfact> 0.37997552E+02</totfact>
</mgrwt>
</event>
<event>
 4    1  0.2731969E-009  0.8681628E+03  0.7818608E-02  0.9466278E-01
         -1   -1    0    0    0  501 -0.00000000000E+00  0.00000000000E+00  0.35191888011E+03  0.35191888015E+03  0.50400000000E-02 0.  1.
          1   -1    0    0  501    0  0.00000000000E+00 -0.00000000000E+00 -0.25590453580E+04  0.25590453580E+04  0.50400000000E-02 0. -1.
    8880022    1    1    2    0    0 -0.77087656673E+03  0.36886906494E+03 -0.51578617249E+03  0.10098228047E+04  0.15294330000E+03 0.  1.
    8880022    1    1    2    0    0  0.77087656673E+03 -0.36886906494E+03 -0.16913403054E+04  0.19011414334E+04  0.15294330000E+03 0.  0.
<mgrwt>
<rscale>  0 0.86816284E+03</rscale>
<asrwt>0</asrwt>
<pdfrwt beam="1">  1        1 0.39369927E+00 0.86816284E+03</pdfrwt>
<pdfrwt beam="2">  1       -1 0.54141368E-01 0.86816284E+03</pdfrwt>
<totfact> 0.44123080E+00</totfact>
</mgrwt>
</event>
<event>
 4    1  0.2731969E-009  0.8024033E+03  0.7818608E-02  0.9556545E-01
          1   -1    0    0  501    0  0.00000000000E+00  0.00000000000E+00  0.18337489793E+04  0.18337489793E+04  0.50400000000E-02 0. -1.
         -1   -1    0    0    0  501 -0.00000000000E+00 -0.00000000000E+00 -0.66589020201E+03  0.66589020202E+03  0.50400000000E-02 0.  1.
    8880022    1    1    2    0    0 -0.66752935942E+01  0.78766414265E+03  0.14432365627E+04  0.16512973052E+04  0.15294330000E+03 0.  0.
    8880022    1    1    2    0    0  0.66752935942E+01 -0.78766414265E+03 -0.27537778539E+03  0.84834187617E+03  0.15294330000E+03 0.  0.
<mgrwt>
<rscale>  0 0.80240327E+03</rscale>
<asrwt>0</asrwt>
<pdfrwt beam="1">  1        1 0.28211522E+00 0.80240327E+03</pdfrwt>
<pdfrwt beam="2">  1       -1 0.10244465E+00 0.80240327E+03</pdfrwt>
<totfact> 0.36202929E+00</totfact>
</mgrwt>
</event>
<event>
 4    1  0.2731969E-009  0.7882403E+03  0.7818608E-02  0.9577197E-01
         -1   -1    0    0    0  501 -0.00000000000E+00  0.00000000000E+00  0.10918367564E+04  0.10918367564E+04  0.50400000000E-02 0.  1.
          1   -1    0    0  501    0  0.00000000000E+00 -0.00000000000E+00 -0.31871012153E+04  0.31871012153E+04  0.50400000000E-02 0. -1.
    8880022    1    1    2    0    0 -0.72921293413E+03  0.25725389204E+03 -0.29867141076E+04  0.30889778053E+04  0.15294330000E+03 0.  0.
    8880022    1    1    2    0    0  0.72921293413E+03 -0.25725389204E+03  0.89144964867E+03  0.11899601663E+04  0.15294330000E+03 0.  0.
<mgrwt>
<rscale>  0 0.78824027E+03</rscale>
<asrwt>0</asrwt>
<pdfrwt beam="1">  1        1 0.49032326E+00 0.78824027E+03</pdfrwt>
<pdfrwt beam="2">  1       -1 0.16797489E+00 0.78824027E+03</pdfrwt>
<totfact> 0.12003719E-01</totfact>
</mgrwt>
</event>
<event>
 4    1  0.2731969E-009  0.9580947E+03  0.7818608E-02  0.9355739E-01
         -1   -1    0    0    0  501 -0.00000000000E+00  0.00000000000E+00  0.75466181039E+03  0.75466181041E+03  0.50400000000E-02 0.  1.
          1   -1    0    0  501    0  0.00000000000E+00 -0.00000000000E+00 -0.19411761274E+04  0.19411761274E+04  0.50400000000E-02 0. -1.
    8880022    1    1    2    0    0  0.72419328557E+03 -0.60835670487E+03 -0.14169081961E+04  0.17104310230E+04  0.15294330000E+03 0.  0.
    8880022    1    1    2    0    0 -0.72419328557E+03  0.60835670487E+03  0.23039387910E+03  0.98540691482E+03  0.15294330000E+03 0.  1.
<mgrwt>
<rscale>  0 0.95809470E+03</rscale>
<asrwt>0</asrwt>
<pdfrwt beam="1">  1        1 0.29864248E+00 0.95809470E+03</pdfrwt>
<pdfrwt beam="2">  1       -1 0.11610182E+00 0.95809470E+03</pdfrwt>
<totfact> 0.22275759E+00</totfact>
</mgrwt>
</event>
<event>
 4    1  0.2731969E-009  0.9185861E+03  0.7818608E-02  0.9402642E-01
         -1   -1    0    0    0  501 -0.00000000000E+00  0.00000000000E+00  0.42107438483E+03  0.42107438486E+03  0.50400000000E-02 0.  1.
          1   -1    0    0  501    0  0.00000000000E+00 -0.00000000000E+00 -0.39152323026E+04  0.39152323027E+04  0.50400000000E-02 0. -1.
    8880022    1    1    2    0    0  0.18048310552E+03  0.88760047041E+03 -0.23220402345E+03  0.94748039978E+03  0.15294330000E+03 0.  0.
    8880022    1    1    2    0    0 -0.18048310552E+03 -0.88760047041E+03 -0.32619538944E+04  0.33888262877E+04  0.15294330000E+03 0.  0.
<mgrwt>
<rscale>  0 0.91858609E+03</rscale>
<asrwt>0</asrwt>
<pdfrwt beam="1">  1        1 0.60234341E+00 0.91858609E+03</pdfrwt>
<pdfrwt beam="2">  1       -1 0.64780677E-01 0.91858609E+03</pdfrwt>
<totfact> 0.29378842E-01</totfact>
</mgrwt>
</event>
<event>
 4    1  0.2731969E-009  0.1220597E+04  0.7818608E-02  0.9095017E-01
         -1   -1    0    0    0  501 -0.00000000000E+00  0.00000000000E+00  0.11854724544E+04  0.11854724545E+04  0.50400000000E-02 0.  1.
          1   -1    0    0  501    0  0.00000000000E+00 -0.00000000000E+00 -0.22556092982E+04  0.22556092982E+04  0.50400000000E-02 0. -1.
    8880022    1    1    2    0    0 -0.23512219277E+03  0.11879318412E+04 -0.16800083788E+04  0.20766040332E+04  0.15294330000E+03 0.  0.
    8880022    1    1    2    0    0  0.23512219277E+03 -0.11879318412E+04  0.60987153501E+03  0.13644777195E+04  0.15294330000E+03 0.  0.
<mgrwt>
<rscale>  0 0.12205966E+04</rscale>
<asrwt>0</asrwt>
<pdfrwt beam="1">  1        1 0.34701681E+00 0.12205966E+04</pdfrwt>
<pdfrwt beam="2">  1       -1 0.18238038E+00 0.12205966E+04</pdfrwt>
<totfact> 0.39169552E-01</totfact>
</mgrwt>
</event>
<event>
 4    1  0.2731969E-009  0.1194436E+04  0.7818608E-02  0.9117740E-01
         -1   -1    0    0    0  501 -0.00000000000E+00  0.00000000000E+00  0.72820073774E+03  0.72820073775E+03  0.50400000000E-02 0.  1.
          1   -1    0    0  501    0  0.00000000000E+00 -0.00000000000E+00 -0.39076296685E+04  0.39076296685E+04  0.50400000000E-02 0. -1.
    8880022    1    1    2    0    0  0.11843768967E+04  0.23191811375E+02  0.47046131756E+02  0.11953624911E+04  0.15294330000E+03 0.  0.
    8880022    1    1    2    0    0 -0.11843768967E+04 -0.23191811375E+02 -0.32264750625E+04  0.34404679152E+04  0.15294330000E+03 0.  0.
<mgrwt>
<rscale>  0 0.11944363E+04</rscale>
<asrwt>0</asrwt>
<pdfrwt beam="1">  1        1 0.60117378E+00 0.11944363E+04</pdfrwt>
<pdfrwt beam="2">  1       -1 0.11203089E+00 0.11944363E+04</pdfrwt>
<totfact> 0.85454470E-02</totfact>
</mgrwt>
</event>
<event>
 4    1  0.2731969E-009  0.6363340E+03  0.7818608E-02  0.9832766E-01
          1   -1    0    0  501    0  0.00000000000E+00  0.00000000000E+00  0.26199672441E+04  0.26199672441E+04  0.50400000000E-02 0. -1.
         -1   -1    0    0    0  501 -0.00000000000E+00 -0.00000000000E+00 -0.32057077647E+03  0.32057077650E+03  0.50400000000E-02 0.  1.
    8880022    1    1    2    0    0 -0.60346674915E+03 -0.13174665690E+03  0.91630292117E+02  0.64289739647E+03  0.15294330000E+03 0.  0.
    8880022    1    1    2    0    0  0.60346674915E+03  0.13174665690E+03  0.22077661755E+04  0.22976406241E+04  0.15294330000E+03 0. -1.
<mgrwt>
<rscale>  0 0.63633399E+03</rscale>
<asrwt>0</asrwt>
<pdfrwt beam="1">  1        1 0.40307187E+00 0.63633399E+03</pdfrwt>
<pdfrwt beam="2">  1       -1 0.49318582E-01 0.63633399E+03</pdfrwt>
<totfact> 0.49961043E+00</totfact>
</mgrwt>
</event>
<event>
 4    1  0.2731969E-009  0.1059004E+04  0.7818608E-02  0.9246097E-01
         -1   -1    0    0    0  501 -0.00000000000E+00  0.00000000000E+00  0.11929749201E+04  0.11929749201E+04  0.50400000000E-02 0.  1.
          1   -1    0    0  501    0  0.00000000000E+00 -0.00000000000E+00 -0.12074753141E+04  0.12074753141E+04  0.50400000000E-02 0. -1.
    8880022    1    1    2    0    0  0.37897616791E+03  0.97697205246E+03  0.55755988338E+03  0.11968132702E+04  0.15294330000E+03 0.  0.
    8880022    1    1    2    0    0 -0.37897616791E+03 -0.97697205246E+03 -0.57206027743E+03  0.12036369640E+04  0.15294330000E+03 0.  0.
<mgrwt>
<rscale>  0 0.10590038E+04</rscale>
<asrwt>0</asrwt>
<pdfrwt beam="1">  1        1 0.18576543E+00 0.10590038E+04</pdfrwt>
<pdfrwt beam="2">  1       -1 0.18353460E+00 0.10590038E+04</pdfrwt>
<totfact> 0.20647091E+00</totfact>
</mgrwt>
</event>
<event>
 4    1  0.2731969E-009  0.1006337E+04  0.7818608E-02  0.9301622E-01
          1   -1    0    0  501    0  0.00000000000E+00  0.00000000000E+00  0.27321558391E+04  0.27321558392E+04  0.50400000000E-02 0. -1.
         -1   -1    0    0    0  501 -0.00000000000E+00 -0.00000000000E+00 -0.64408568770E+03  0.64408568772E+03  0.50400000000E-02 0.  1.
    8880022    1    1    2    0    0  0.95811808992E+02  0.99002114426E+03  0.21439211390E+04  0.23683562384E+04  0.15294330000E+03 0.  0.
    8880022    1    1    2    0    0 -0.95811808992E+02 -0.99002114426E+03 -0.55850987568E+02  0.10078852884E+04  0.15294330000E+03 0.  0.
<mgrwt>
<rscale>  0 0.10063366E+04</rscale>
<asrwt>0</asrwt>
<pdfrwt beam="1">  1        1 0.42033166E+00 0.10063366E+04</pdfrwt>
<pdfrwt beam="2">  1       -1 0.99090108E-01 0.10063366E+04</pdfrwt>
<totfact> 0.92601301E-01</totfact>
</mgrwt>
</event>
<event>
 4    1  0.2731969E-009  0.2322423E+03  0.7818608E-02  0.1125071E+00
         -1   -1    0    0    0  501 -0.00000000000E+00  0.00000000000E+00  0.63374167967E+03  0.63374167969E+03  0.50400000000E-02 0.  1.
          1   -1    0    0  501    0  0.00000000000E+00 -0.00000000000E+00 -0.45747019194E+03  0.45747019197E+03  0.50400000000E-02 0. -1.
    8880022    1    1    2    0    0  0.15731362168E+03 -0.76139682046E+02  0.58037980083E+03  0.62512174252E+03  0.15294330000E+03 0.  0.
    8880022    1    1    2    0    0 -0.15731362168E+03  0.76139682046E+02 -0.40410831310E+03  0.46609012914E+03  0.15294330000E+03 0. -1.
<mgrwt>
<rscale>  0 0.23224229E+03</rscale>
<asrwt>0</asrwt>
<pdfrwt beam="1">  1        1 0.70380030E-01 0.23224229E+03</pdfrwt>
<pdfrwt beam="2">  1       -1 0.97498720E-01 0.23224229E+03</pdfrwt>
<totfact> 0.55459894E+01</totfact>
</mgrwt>
</event>
<event>
 4    1  0.2731969E-009  0.9053000E+03  0.7818608E-02  0.9418980E-01
         -1   -1    0    0    0  501 -0.00000000000E+00  0.00000000000E+00  0.78849511340E+03  0.78849511341E+03  0.50400000000E-02 0.  1.
          1   -1    0    0  501    0  0.00000000000E+00 -0.00000000000E+00 -0.11095612453E+04  0.11095612453E+04  0.50400000000E-02 0. -1.
    8880022    1    1    2    0    0 -0.88579271787E+03 -0.10745992952E+03  0.78098419916E+02  0.90866241900E+03  0.15294330000E+03 0.  0.
    8880022    1    1    2    0    0  0.88579271787E+03  0.10745992952E+03 -0.39916455178E+03  0.98939393969E+03  0.15294330000E+03 0.  0.
<mgrwt>
<rscale>  0 0.90529997E+03</rscale>
<asrwt>0</asrwt>
<pdfrwt beam="1">  1        1 0.17070173E+00 0.90529997E+03</pdfrwt>
<pdfrwt beam="2">  1       -1 0.12130694E+00 0.90529997E+03</pdfrwt>
<totfact> 0.76208658E+00</totfact>
</mgrwt>
</event>
<event>
 4    1  0.2731969E-009  0.4681937E+03  0.7818608E-02  0.1022431E+00
          1   -1    0    0  501    0  0.00000000000E+00  0.00000000000E+00  0.30596414316E+04  0.30596414316E+04  0.50400000000E-02 0. -1.
         -1   -1    0    0    0  501 -0.00000000000E+00 -0.00000000000E+00 -0.16123888894E+03  0.16123888902E+03  0.50400000000E-02 0.  1.
    8880022    1    1    2    0    0 -0.19239036421E+03 -0.39849666358E+03  0.26496705155E+04  0.26907172160E+04  0.15294330000E+03 0.  0.
    8880022    1    1    2    0    0  0.19239036421E+03  0.39849666358E+03  0.24873202725E+03  0.53016310464E+03  0.15294330000E+03 0.  0.
<mgrwt>
<rscale>  0 0.46819365E+03</rscale>
<asrwt>0</asrwt>
<pdfrwt beam="1">  1        1 0.47071403E+00 0.46819365E+03</pdfrwt>
<pdfrwt beam="2">  1       -1 0.24805985E-01 0.46819365E+03</pdfrwt>
<totfact> 0.86907316E+00</totfact>
</mgrwt>
</event>
<event>
 4    1  0.2731969E-009  0.1014073E+04  0.7818608E-02  0.9293243E-01
          1   -1    0    0  501    0  0.00000000000E+00  0.00000000000E+00  0.88759638392E+03  0.88759638394E+03  0.50400000000E-02 0. -1.
         -1   -1    0    0    0  501 -0.00000000000E+00 -0.00000000000E+00 -0.13926517073E+04  0.13926517073E+04  0.50400000000E-02 0.  1.
    8880022    1    1    2    0    0 -0.74522513452E+03 -0.67051648647E+03 -0.71995329621E+03  0.12436548000E+04  0.15294330000E+03 0.  0.
    8880022    1    1    2    0    0  0.74522513452E+03  0.67051648647E+03  0.21489797285E+03  0.10365932913E+04  0.15294330000E+03 0.  0.
<mgrwt>
<rscale>  0 0.10140732E+04</rscale>
<asrwt>0</asrwt>
<pdfrwt beam="1">  1        1 0.13655329E+00 0.10140732E+04</pdfrwt>
<pdfrwt beam="2">  1       -1 0.21425411E+00 0.10140732E+04</pdfrwt>
<totfact> 0.22483093E+00</totfact>
</mgrwt>
</event>
<event>
 4    1  0.2731969E-009  0.6291399E+03  0.7818608E-02  0.9846729E-01
          1   -1    0    0  501    0  0.00000000000E+00  0.00000000000E+00  0.61560311453E+03  0.61560311455E+03  0.50400000000E-02 0. -1.
         -1   -1    0    0    0  501 -0.00000000000E+00 -0.00000000000E+00 -0.66652327544E+03  0.66652327546E+03  0.50400000000E-02 0.  1.
    8880022    1    1    2    0    0 -0.19250401174E+03  0.57910927209E+03 -0.14595783910E+03  0.64584881154E+03  0.15294330000E+03 0.  0.
    8880022    1    1    2    0    0  0.19250401174E+03 -0.57910927209E+03  0.95037678188E+02  0.63627757846E+03  0.15294330000E+03 0.  0.
<mgrwt>
<rscale>  0 0.62913989E+03</rscale>
<asrwt>0</asrwt>
<pdfrwt beam="1">  1        1 0.94708172E-01 0.62913989E+03</pdfrwt>
<pdfrwt beam="2">  1       -1 0.10254204E+00 0.62913989E+03</pdfrwt>
<totfact> 0.30805751E+01</totfact>
</mgrwt>
</event>
<event>
 4    1  0.2731969E-009  0.3132223E+03  0.7818608E-02  0.1078812E+00
          1   -1    0    0  501    0  0.00000000000E+00  0.00000000000E+00  0.98061944868E+03  0.98061944869E+03  0.50400000000E-02 0. -1.
         -1   -1    0    0    0  501 -0.00000000000E+00 -0.00000000000E+00 -0.48701625549E+03  0.48701625552E+03  0.50400000000E-02 0.  1.
    8880022    1    1    2    0    0  0.12150873446E+03 -0.24485132625E+03 -0.40731426692E+03  0.51382206022E+03  0.15294330000E+03 0.  0.
    8880022    1    1    2    0    0 -0.12150873446E+03  0.24485132625E+03  0.90091746011E+03  0.95381364399E+03  0.15294330000E+03 0. -1.
<mgrwt>
<rscale>  0 0.31322228E+03</rscale>
<asrwt>0</asrwt>
<pdfrwt beam="1">  1        1 0.15086453E+00 0.31322228E+03</pdfrwt>
<pdfrwt beam="2">  1       -1 0.74925578E-01 0.31322228E+03</pdfrwt>
<totfact> 0.31047921E+01</totfact>
</mgrwt>
</event>
<event>
 4    1  0.2731969E-009  0.9768115E+03  0.7818608E-02  0.9334350E-01
          1   -1    0    0  501    0  0.00000000000E+00  0.00000000000E+00  0.13321052542E+04  0.13321052542E+04  0.50400000000E-02 0. -1.
         -1   -1    0    0    0  501 -0.00000000000E+00 -0.00000000000E+00 -0.11791120215E+04  0.11791120215E+04  0.50400000000E-02 0.  1.
    8880022    1    1    2    0    0  0.83123714990E+03 -0.48970789142E+03 -0.71016570208E+03  0.12076820756E+04  0.15294330000E+03 0.  0.
    8880022    1    1    2    0    0 -0.83123714990E+03  0.48970789142E+03  0.86315893481E+03  0.13035352002E+04  0.15294330000E+03 0.  0.
<mgrwt>
<rscale>  0 0.97681148E+03</rscale>
<asrwt>0</asrwt>
<pdfrwt beam="1">  1        1 0.20493927E+00 0.97681148E+03</pdfrwt>
<pdfrwt beam="2">  1       -1 0.18140185E+00 0.97681148E+03</pdfrwt>
<totfact> 0.17594140E+00</totfact>
</mgrwt>
</event>
<event>
 4    1  0.2731969E-009  0.1041026E+04  0.7818608E-02  0.9264658E-01
          1   -1    0    0  501    0  0.00000000000E+00  0.00000000000E+00  0.14493371548E+04  0.14493371548E+04  0.50400000000E-02 0. -1.
         -1   -1    0    0    0  501 -0.00000000000E+00 -0.00000000000E+00 -0.89530724675E+03  0.89530724677E+03  0.50400000000E-02 0.  1.
    8880022    1    1    2    0    0  0.91091860985E+03  0.48017879804E+03  0.75294937251E+03  0.12847835625E+04  0.15294330000E+03 0.  0.
    8880022    1    1    2    0    0 -0.91091860985E+03 -0.48017879804E+03 -0.19891946448E+03  0.10598608391E+04  0.15294330000E+03 0.  0.
<mgrwt>
<rscale>  0 0.10410264E+04</rscale>
<asrwt>0</asrwt>
<pdfrwt beam="1">  1        1 0.22297494E+00 0.10410264E+04</pdfrwt>
<pdfrwt beam="2">  1       -1 0.13773958E+00 0.10410264E+04</pdfrwt>
<totfact> 0.31021729E+00</totfact>
</mgrwt>
</event>
<event>
 4    1  0.2731969E-009  0.3769798E+03  0.7818608E-02  0.1052056E+00
         -1   -1    0    0    0  501 -0.00000000000E+00  0.00000000000E+00  0.28044507335E+03  0.28044507339E+03  0.50400000000E-02 0.  1.
          1   -1    0    0  501    0  0.00000000000E+00 -0.00000000000E+00 -0.15925434393E+04  0.15925434393E+04  0.50400000000E-02 0. -1.
    8880022    1    1    2    0    0  0.30786835976E+03 -0.15472287403E+03  0.11722651180E+03  0.39478576820E+03  0.15294330000E+03 0.  0.
    8880022    1    1    2    0    0 -0.30786835976E+03  0.15472287403E+03 -0.14293248777E+04  0.14782027445E+04  0.15294330000E+03 0.  0.
<mgrwt>
<rscale>  0 0.37697977E+03</rscale>
<asrwt>0</asrwt>
<pdfrwt beam="1">  1        1 0.24500668E+00 0.37697977E+03</pdfrwt>
<pdfrwt beam="2">  1       -1 0.43145397E-01 0.37697977E+03</pdfrwt>
<totfact> 0.32933472E+01</totfact>
</mgrwt>
</event>
<event>
 4    1  0.2731969E-009  0.9099311E+03  0.7818608E-02  0.9413252E-01
         -1   -1    0    0    0  501 -0.00000000000E+00  0.00000000000E+00  0.61863922153E+03  0.61863922155E+03  0.50400000000E-02 0.  1.
          1   -1    0    0  501    0  0.00000000000E+00 -0.00000000000E+00 -0.15165389485E+04  0.15165389485E+04  0.50400000000E-02 0. -1.
    8880022    1    1    2    0    0 -0.88432288048E+03 -0.15018629278E+03 -0.83034348732E+02  0.91371179020E+03  0.15294330000E+03 0.  0.
    8880022    1    1    2    0    0  0.88432288048E+03  0.15018629278E+03 -0.81486537828E+03  0.12214663799E+04  0.15294330000E+03 0.  0.
<mgrwt>
<rscale>  0 0.90993106E+03</rscale>
<asrwt>0</asrwt>
<pdfrwt beam="1">  1        1 0.23331368E+00 0.90993106E+03</pdfrwt>
<pdfrwt beam="2">  1       -1 0.95175265E-01 0.90993106E+03</pdfrwt>
<totfact> 0.69092025E+00</totfact>
</mgrwt>
</event>
<event>
 4    1  0.2731969E-009  0.5582374E+03  0.7818608E-02  0.9996051E-01
          1   -1    0    0  501    0  0.00000000000E+00  0.00000000000E+00  0.11308828970E+04  0.11308828970E+04  0.50400000000E-02 0. -1.
         -1   -1    0    0    0  501 -0.00000000000E+00 -0.00000000000E+00 -0.98733517376E+03  0.98733517377E+03  0.50400000000E-02 0.  1.
    8880022    1    1    2    0    0 -0.35019311818E+03  0.40694235657E+03  0.97102089571E+03  0.11200493447E+04  0.15294330000E+03 0.  0.
    8880022    1    1    2    0    0  0.35019311818E+03 -0.40694235657E+03 -0.82747317247E+03  0.99816872610E+03  0.15294330000E+03 0.  0.
<mgrwt>
<rscale>  0 0.55823736E+03</rscale>
<asrwt>0</asrwt>
<pdfrwt beam="1">  1        1 0.17398198E+00 0.55823736E+03</pdfrwt>
<pdfrwt beam="2">  1       -1 0.15189772E+00 0.55823736E+03</pdfrwt>
<totfact> 0.43664153E+00</totfact>
</mgrwt>
</event>
<event>
 4    1  0.2731969E-009  0.1872528E+04  0.7818608E-02  0.8668653E-01
         -1   -1    0    0    0  501 -0.00000000000E+00  0.00000000000E+00  0.18883393197E+04  0.18883393198E+04  0.50400000000E-02 0.  1.
          1   -1    0    0  501    0  0.00000000000E+00 -0.00000000000E+00 -0.18975127754E+04  0.18975127754E+04  0.50400000000E-02 0. -1.
    8880022    1    1    2    0    0 -0.15624915231E+03 -0.18597193582E+04 -0.28169120709E+03  0.18935974963E+04  0.15294330000E+03 0.  0.
    8880022    1    1    2    0    0  0.15624915231E+03  0.18597193582E+04  0.27251775140E+03  0.18922545988E+04  0.15294330000E+03 0.  0.
<mgrwt>
<rscale>  0 0.18725281E+04</rscale>
<asrwt>0</asrwt>
<pdfrwt beam="1">  1        1 0.29192504E+00 0.18725281E+04</pdfrwt>
<pdfrwt beam="2">  1       -1 0.29051374E+00 0.18725281E+04</pdfrwt>
<totfact> 0.12043636E-01</totfact>
</mgrwt>
</event>
<event>
 4    1  0.2731969E-009  0.1463678E+04  0.7818608E-02  0.8908972E-01
         -1   -1    0    0    0  501 -0.00000000000E+00  0.00000000000E+00  0.22837232465E+04  0.22837232465E+04  0.50400000000E-02 0.  1.
          1   -1    0    0  501    0  0.00000000000E+00 -0.00000000000E+00 -0.17327287572E+04  0.17327287572E+04  0.50400000000E-02 0. -1.
    8880022    1    1    2    0    0  0.27900222978E+03 -0.14286775931E+04 -0.10844757877E+04  0.18216589407E+04  0.15294330000E+03 0.  0.
    8880022    1    1    2    0    0 -0.27900222978E+03  0.14286775931E+04  0.16354702770E+04  0.21947930629E+04  0.15294330000E+03 0.  0.
<mgrwt>
<rscale>  0 0.14636781E+04</rscale>
<asrwt>0</asrwt>
<pdfrwt beam="1">  1        1 0.26657365E+00 0.14636781E+04</pdfrwt>
<pdfrwt beam="2">  1       -1 0.35134204E+00 0.14636781E+04</pdfrwt>
<totfact> 0.65451898E-02</totfact>
</mgrwt>
</event>
<event>
 4    1  0.2731969E-009  0.7165505E+03  0.7818608E-02  0.9689340E-01
         -1   -1    0    0    0  501 -0.00000000000E+00  0.00000000000E+00  0.31525054276E+03  0.31525054280E+03  0.50400000000E-02 0.  1.
          1   -1    0    0  501    0  0.00000000000E+00 -0.00000000000E+00 -0.27785099079E+04  0.27785099079E+04  0.50400000000E-02 0. -1.
    8880022    1    1    2    0    0  0.66255282274E+03  0.22600146615E+03 -0.22267283223E+04  0.23391801085E+04  0.15294330000E+03 0.  0.
    8880022    1    1    2    0    0 -0.66255282274E+03 -0.22600146615E+03 -0.23653104286E+03  0.75458034223E+03  0.15294330000E+03 0.  0.
<mgrwt>
<rscale>  0 0.71655046E+03</rscale>
<asrwt>0</asrwt>
<pdfrwt beam="1">  1        1 0.42746305E+00 0.71655046E+03</pdfrwt>
<pdfrwt beam="2">  1       -1 0.48500085E-01 0.71655046E+03</pdfrwt>
<totfact> 0.39376974E+00</totfact>
</mgrwt>
</event>
<event>
 4    1  0.2731969E-009  0.1048844E+04  0.7818608E-02  0.9256539E-01
         -1   -1    0    0    0  501 -0.00000000000E+00  0.00000000000E+00  0.89669383286E+03  0.89669383287E+03  0.50400000000E-02 0.  1.
          1   -1    0    0  501    0  0.00000000000E+00 -0.00000000000E+00 -0.18320846136E+04  0.18320846136E+04  0.50400000000E-02 0. -1.
    8880022    1    1    2    0    0 -0.47422868192E+03  0.92292377612E+03 -0.12519224326E+04  0.16332123467E+04  0.15294330000E+03 0.  0.
    8880022    1    1    2    0    0  0.47422868192E+03 -0.92292377612E+03  0.31653165184E+03  0.10955660997E+04  0.15294330000E+03 0.  0.
<mgrwt>
<rscale>  0 0.10488435E+04</rscale>
<asrwt>0</asrwt>
<pdfrwt beam="1">  1        1 0.28185917E+00 0.10488435E+04</pdfrwt>
<pdfrwt beam="2">  1       -1 0.13795290E+00 0.10488435E+04</pdfrwt>
<totfact> 0.16907669E+00</totfact>
</mgrwt>
</event>
<event>
 4    1  0.2731969E-009  0.6348437E+03  0.7818608E-02  0.9835642E-01
          1   -1    0    0  501    0  0.00000000000E+00  0.00000000000E+00  0.70199062521E+03  0.70199062523E+03  0.50400000000E-02 0. -1.
         -1   -1    0    0    0  501 -0.00000000000E+00 -0.00000000000E+00 -0.10813859814E+04  0.10813859814E+04  0.50400000000E-02 0.  1.
    8880022    1    1    2    0    0 -0.45408172775E+03 -0.41646688966E+03 -0.80041574223E+03  0.10216124016E+04  0.15294330000E+03 0.  1.
    8880022    1    1    2    0    0  0.45408172775E+03  0.41646688966E+03  0.42102038603E+03  0.76176420507E+03  0.15294330000E+03 0.  0.
<mgrwt>
<rscale>  0 0.63484371E+03</rscale>
<asrwt>0</asrwt>
<pdfrwt beam="1">  1        1 0.10799856E+00 0.63484371E+03</pdfrwt>
<pdfrwt beam="2">  1       -1 0.16636707E+00 0.63484371E+03</pdfrwt>
<totfact> 0.74625978E+00</totfact>
</mgrwt>
</event>
<event>
 4    1  0.2731969E-009  0.9435272E+03  0.7818608E-02  0.9372748E-01
          1   -1    0    0  501    0  0.00000000000E+00  0.00000000000E+00  0.15573807759E+04  0.15573807759E+04  0.50400000000E-02 0. -1.
         -1   -1    0    0    0  501 -0.00000000000E+00 -0.00000000000E+00 -0.17091143116E+04  0.17091143116E+04  0.50400000000E-02 0.  1.
    8880022    1    1    2    0    0  0.91706967966E+03 -0.16073286149E+03 -0.14082814811E+04  0.16951401810E+04  0.15294330000E+03 0.  0.
    8880022    1    1    2    0    0 -0.91706967966E+03  0.16073286149E+03  0.12565479454E+04  0.15713549065E+04  0.15294330000E+03 0.  0.
<mgrwt>
<rscale>  0 0.94352716E+03</rscale>
<asrwt>0</asrwt>
<pdfrwt beam="1">  1        1 0.23959704E+00 0.94352716E+03</pdfrwt>
<pdfrwt beam="2">  1       -1 0.26294066E+00 0.94352716E+03</pdfrwt>
<totfact> 0.35083443E-01</totfact>
</mgrwt>
</event>
<event>
 4    1  0.2731969E-009  0.4521139E+03  0.7818608E-02  0.1027094E+00
          1   -1    0    0  501    0  0.00000000000E+00  0.00000000000E+00  0.13897886223E+04  0.13897886223E+04  0.50400000000E-02 0. -1.
         -1   -1    0    0    0  501 -0.00000000000E+00 -0.00000000000E+00 -0.41612232478E+03  0.41612232481E+03  0.50400000000E-02 0.  1.
    8880022    1    1    2    0    0  0.31182792071E+03 -0.28944543675E+03  0.12128855342E+04  0.12944104005E+04  0.15294330000E+03 0.  0.
    8880022    1    1    2    0    0 -0.31182792071E+03  0.28944543675E+03 -0.23921923663E+03  0.51150054661E+03  0.15294330000E+03 0.  1.
<mgrwt>
<rscale>  0 0.45211389E+03</rscale>
<asrwt>0</asrwt>
<pdfrwt beam="1">  1        1 0.21381364E+00 0.45211389E+03</pdfrwt>
<pdfrwt beam="2">  1       -1 0.64018819E-01 0.45211389E+03</pdfrwt>
<totfact> 0.20991495E+01</totfact>
</mgrwt>
</event>
<event>
 4    1  0.2731969E-009  0.2559533E+03  0.7818608E-02  0.1109599E+00
          1   -1    0    0  501    0  0.00000000000E+00  0.00000000000E+00  0.11455104592E+04  0.11455104592E+04  0.50400000000E-02 0. -1.
         -1   -1    0    0    0  501 -0.00000000000E+00 -0.00000000000E+00 -0.76765434365E+03  0.76765434367E+03  0.50400000000E-02 0.  1.
    8880022    1    1    2    0    0  0.13334881440E+03 -0.15600814918E+03  0.11091881280E+04  0.11383366836E+04  0.15294330000E+03 0.  0.
    8880022    1    1    2    0    0 -0.13334881440E+03  0.15600814918E+03 -0.73133201248E+03  0.77482811926E+03  0.15294330000E+03 0.  1.
<mgrwt>
<rscale>  0 0.25595332E+03</rscale>
<asrwt>0</asrwt>
<pdfrwt beam="1">  1        1 0.17623238E+00 0.25595332E+03</pdfrwt>
<pdfrwt beam="2">  1       -1 0.11810067E+00 0.25595332E+03</pdfrwt>
<totfact> 0.88315315E+00</totfact>
</mgrwt>
</event>
<event>
 4    1  0.2731969E-009  0.7188055E+03  0.7818608E-02  0.9685602E-01
         -1   -1    0    0    0  501 -0.00000000000E+00  0.00000000000E+00  0.55565403151E+03  0.55565403153E+03  0.50400000000E-02 0.  1.
          1   -1    0    0  501    0  0.00000000000E+00 -0.00000000000E+00 -0.19659492942E+04  0.19659492942E+04  0.50400000000E-02 0. -1.
    8880022    1    1    2    0    0 -0.47774080802E+03 -0.51483340425E+03  0.21014268374E+03  0.74889339317E+03  0.15294330000E+03 0.  0.
    8880022    1    1    2    0    0  0.47774080802E+03  0.51483340425E+03 -0.16204379465E+04  0.17727099326E+04  0.15294330000E+03 0.  0.
<mgrwt>
<rscale>  0 0.71880551E+03</rscale>
<asrwt>0</asrwt>
<pdfrwt beam="1">  1        1 0.30245373E+00 0.71880551E+03</pdfrwt>
<pdfrwt beam="2">  1       -1 0.85485237E-01 0.71880551E+03</pdfrwt>
<totfact> 0.44869912E+00</totfact>
</mgrwt>
</event>
<event>
 4    1  0.2731969E-009  0.8463476E+03  0.7818608E-02  0.9495252E-01
          1   -1    0    0  501    0  0.00000000000E+00  0.00000000000E+00  0.94894472901E+03  0.94894472902E+03  0.50400000000E-02 0. -1.
         -1   -1    0    0    0  501 -0.00000000000E+00 -0.00000000000E+00 -0.96385353883E+03  0.96385353885E+03  0.50400000000E-02 0.  1.
    8880022    1    1    2    0    0  0.68848997628E+03  0.46786123887E+03 -0.45282115922E+03  0.95987042955E+03  0.15294330000E+03 0.  0.
    8880022    1    1    2    0    0 -0.68848997628E+03 -0.46786123887E+03  0.43791234940E+03  0.95292783832E+03  0.15294330000E+03 0.  0.
<mgrwt>
<rscale>  0 0.84634759E+03</rscale>
<asrwt>0</asrwt>
<pdfrwt beam="1">  1        1 0.14599150E+00 0.84634759E+03</pdfrwt>
<pdfrwt beam="2">  1       -1 0.14828516E+00 0.84634759E+03</pdfrwt>
<totfact> 0.61024409E+00</totfact>
</mgrwt>
</event>
<event>
 4    1  0.2731969E-009  0.5870803E+03  0.7818608E-02  0.9932579E-01
         -1   -1    0    0    0  501 -0.00000000000E+00  0.00000000000E+00  0.54736312642E+03  0.54736312644E+03  0.50400000000E-02 0.  1.
          1   -1    0    0  501    0  0.00000000000E+00 -0.00000000000E+00 -0.87750410306E+03  0.87750410308E+03  0.50400000000E-02 0. -1.
    8880022    1    1    2    0    0  0.24400260517E+03  0.51159985508E+03  0.21353947656E+03  0.62470988796E+03  0.15294330000E+03 0.  0.
    8880022    1    1    2    0    0 -0.24400260517E+03 -0.51159985508E+03 -0.54368045320E+03  0.80015734156E+03  0.15294330000E+03 0.  0.
<mgrwt>
<rscale>  0 0.58708035E+03</rscale>
<asrwt>0</asrwt>
<pdfrwt beam="1">  1        1 0.13500063E+00 0.58708035E+03</pdfrwt>
<pdfrwt beam="2">  1       -1 0.84209712E-01 0.58708035E+03</pdfrwt>
<totfact> 0.27796742E+01</totfact>
</mgrwt>
</event>
<event>
 4    1  0.2731969E-009  0.2251425E+03  0.7818608E-02  0.1130106E+00
         -1   -1    0    0    0  501 -0.00000000000E+00  0.00000000000E+00  0.77068894256E+02  0.77068894421E+02  0.50400000000E-02 0.  1.
          1   -1    0    0  501    0  0.00000000000E+00 -0.00000000000E+00 -0.15039429733E+04  0.15039429733E+04  0.50400000000E-02 0. -1.
    8880022    1    1    2    0    0 -0.15919830919E+03  0.44197232300E+02 -0.12046548014E+03  0.25534502523E+03  0.15294330000E+03 0.  0.
    8880022    1    1    2    0    0  0.15919830919E+03 -0.44197232300E+02 -0.13064085989E+04  0.13256668425E+04  0.15294330000E+03 0.  0.
<mgrwt>
<rscale>  0 0.22514251E+03</rscale>
<asrwt>0</asrwt>
<pdfrwt beam="1">  1        1 0.23137582E+00 0.22514251E+03</pdfrwt>
<pdfrwt beam="2">  1       -1 0.11856754E-01 0.22514251E+03</pdfrwt>
<totfact> 0.33598916E+02</totfact>
</mgrwt>
</event>
<event>
 4    1  0.2731969E-009  0.2330294E+03  0.7818608E-02  0.1124526E+00
         -1   -1    0    0    0  501 -0.00000000000E+00  0.00000000000E+00  0.30271032170E+03  0.30271032174E+03  0.50400000000E-02 0.  1.
          1   -1    0    0  501    0  0.00000000000E+00 -0.00000000000E+00 -0.47868715844E+03  0.47868715846E+03  0.50400000000E-02 0. -1.
    8880022    1    1    2    0    0  0.10065962252E+03  0.14414811412E+03 -0.39692451078E+03  0.46027356940E+03  0.15294330000E+03 0. -1.
    8880022    1    1    2    0    0 -0.10065962252E+03 -0.14414811412E+03  0.22094767405E+03  0.32112391081E+03  0.15294330000E+03 0.  0.
<mgrwt>
<rscale>  0 0.23302938E+03</rscale>
<asrwt>0</asrwt>
<pdfrwt beam="1">  1        1 0.73644178E-01 0.23302938E+03</pdfrwt>
<pdfrwt beam="2">  1       -1 0.46570819E-01 0.23302938E+03</pdfrwt>
<totfact> 0.22737537E+02</totfact>
</mgrwt>
</event>
<event>
 4    1  0.9346349E-009  0.1129705E+04  0.7818608E-02  0.9176713E-01
          1   -1    0    0  501    0  0.00000000000E+00  0.00000000000E+00  0.30540229350E+04  0.30540229350E+04  0.50400000000E-02 0. -1.
         -1   -1    0    0    0  501 -0.00000000000E+00 -0.00000000000E+00 -0.24584606450E+04  0.24584606450E+04  0.50400000000E-02 0.  1.
    8880022    1    1    2    0    0  0.58047397910E+03  0.95702260874E+03  0.28088689978E+04  0.30275367899E+04  0.15294330000E+03 0.  0.
    8880022    1    1    2    0    0 -0.58047397910E+03 -0.95702260874E+03 -0.22133067078E+04  0.24849467902E+04  0.15294330000E+03 0.  0.
<mgrwt>
<rscale>  0 0.11297053E+04</rscale>
<asrwt>0</asrwt>
<pdfrwt beam="1">  1        1 0.46984968E+00 0.11297053E+04</pdfrwt>
<pdfrwt beam="2">  1       -1 0.37822471E+00 0.11297053E+04</pdfrwt>
<totfact> 0.55878510E-03</totfact>
</mgrwt>
</event>
<event>
 4    1  0.2731969E-009  0.1175741E+04  0.7818608E-02  0.9134359E-01
         -1   -1    0    0    0  501 -0.00000000000E+00  0.00000000000E+00  0.74295796059E+03  0.74295796061E+03  0.50400000000E-02 0.  1.
          1   -1    0    0  501    0  0.00000000000E+00 -0.00000000000E+00 -0.32402658902E+04  0.32402658902E+04  0.50400000000E-02 0. -1.
    8880022    1    1    2    0    0  0.11627777211E+04  0.83206962858E+02 -0.25482166310E+04  0.28063811357E+04  0.15294330000E+03 0.  0.
    8880022    1    1    2    0    0 -0.11627777211E+04 -0.83206962858E+02  0.50908701402E+02  0.11768427151E+04  0.15294330000E+03 0.  0.
<mgrwt>
<rscale>  0 0.11757411E+04</rscale>
<asrwt>0</asrwt>
<pdfrwt beam="1">  1        1 0.49850244E+00 0.11757411E+04</pdfrwt>
<pdfrwt beam="2">  1       -1 0.11430123E+00 0.11757411E+04</pdfrwt>
<totfact> 0.27677357E-01</totfact>
</mgrwt>
</event>
<event>
 4    1  0.2731969E-009  0.2069022E+03  0.7818608E-02  0.1144043E+00
         -1   -1    0    0    0  501 -0.00000000000E+00  0.00000000000E+00  0.10222240203E+03  0.10222240215E+03  0.50400000000E-02 0.  1.
          1   -1    0    0  501    0  0.00000000000E+00 -0.00000000000E+00 -0.23926073284E+04  0.23926073284E+04  0.50400000000E-02 0. -1.
    8880022    1    1    2    0    0 -0.34281693105E+02  0.13506166217E+03 -0.22781925657E+04  0.22875685578E+04  0.15294330000E+03 0. -1.
    8880022    1    1    2    0    0  0.34281693105E+02 -0.13506166217E+03 -0.12192360662E+02  0.20726117278E+03  0.15294330000E+03 0.  0.
<mgrwt>
<rscale>  0 0.20690225E+03</rscale>
<asrwt>0</asrwt>
<pdfrwt beam="1">  1        1 0.36809339E+00 0.20690225E+03</pdfrwt>
<pdfrwt beam="2">  1       -1 0.15726525E-01 0.20690225E+03</pdfrwt>
<totfact> 0.57399978E+01</totfact>
</mgrwt>
</event>
<event>
 4    1  0.2731969E-009  0.1558656E+04  0.7818608E-02  0.8846358E-01
         -1   -1    0    0    0  501 -0.00000000000E+00  0.00000000000E+00  0.13211916542E+04  0.13211916542E+04  0.50400000000E-02 0.  1.
          1   -1    0    0  501    0  0.00000000000E+00 -0.00000000000E+00 -0.28056284772E+04  0.28056284772E+04  0.50400000000E-02 0. -1.
    8880022    1    1    2    0    0 -0.14442527171E+04  0.56581876749E+03  0.46906277674E+03  0.16277064631E+04  0.15294330000E+03 0.  0.
    8880022    1    1    2    0    0  0.14442527171E+04 -0.56581876749E+03 -0.19534995997E+04  0.24991136684E+04  0.15294330000E+03 0.  0.
<mgrwt>
<rscale>  0 0.15586560E+04</rscale>
<asrwt>0</asrwt>
<pdfrwt beam="1">  1        1 0.43163515E+00 0.15586560E+04</pdfrwt>
<pdfrwt beam="2">  1       -1 0.20326025E+00 0.15586560E+04</pdfrwt>
<totfact> 0.11085152E-01</totfact>
</mgrwt>
</event>
<event>
 4    1  0.5847672E-009  0.1426874E+04  0.7818608E-02  0.8934592E-01
         -1   -1    0    0    0  501 -0.00000000000E+00  0.00000000000E+00  0.29955063468E+04  0.29955063468E+04  0.50400000000E-02 0.  1.
          1   -1    0    0  501    0  0.00000000000E+00 -0.00000000000E+00 -0.17852244579E+04  0.17852244579E+04  0.50400000000E-02 0. -1.
    8880022    1    1    2    0    0  0.38677594224E+01  0.14186480072E+04 -0.12759383327E+04  0.19141544895E+04  0.15294330000E+03 0.  0.
    8880022    1    1    2    0    0 -0.38677594224E+01 -0.14186480072E+04  0.24862202216E+04  0.28665763152E+04  0.15294330000E+03 0.  0.
<mgrwt>
<rscale>  0 0.14268738E+04</rscale>
<asrwt>0</asrwt>
<pdfrwt beam="1">  1        1 0.27464992E+00 0.14268738E+04</pdfrwt>
<pdfrwt beam="2">  1       -1 0.46084713E+00 0.14268738E+04</pdfrwt>
<totfact> 0.10828217E-02</totfact>
</mgrwt>
</event>
<event>
 4    1  0.2731969E-009  0.5900824E+03  0.7818608E-02  0.9926198E-01
         -1   -1    0    0    0  501 -0.00000000000E+00  0.00000000000E+00  0.14182124922E+04  0.14182124922E+04  0.50400000000E-02 0.  1.
          1   -1    0    0  501    0  0.00000000000E+00 -0.00000000000E+00 -0.80966610337E+03  0.80966610339E+03  0.50400000000E-02 0. -1.
    8880022    1    1    2    0    0 -0.56988870177E+03 -0.56978978615E+01  0.12341062075E+04  0.13679237489E+04  0.15294330000E+03 0.  0.
    8880022    1    1    2    0    0  0.56988870177E+03  0.56978978615E+01 -0.62555981872E+03  0.85995484663E+03  0.15294330000E+03 0. -1.
<mgrwt>
<rscale>  0 0.59008241E+03</rscale>
<asrwt>0</asrwt>
<pdfrwt beam="1">  1        1 0.12456402E+00 0.59008241E+03</pdfrwt>
<pdfrwt beam="2">  1       -1 0.21818654E+00 0.59008241E+03</pdfrwt>
<totfact> 0.26371776E+00</totfact>
</mgrwt>
</event>
<event>
 4    1  0.2731969E-009  0.7470194E+03  0.7818608E-02  0.9640038E-01
          1   -1    0    0  501    0  0.00000000000E+00  0.00000000000E+00  0.15193691424E+04  0.15193691424E+04  0.50400000000E-02 0. -1.
         -1   -1    0    0    0  501 -0.00000000000E+00 -0.00000000000E+00 -0.49070216320E+03  0.49070216323E+03  0.50400000000E-02 0.  1.
    8880022    1    1    2    0    0 -0.64064356518E+03  0.35245171107E+03  0.10294346879E+02  0.74709036457E+03  0.15294330000E+03 0.  0.
    8880022    1    1    2    0    0  0.64064356518E+03 -0.35245171107E+03  0.10183726323E+04  0.12629809411E+04  0.15294330000E+03 0.  0.
<mgrwt>
<rscale>  0 0.74701944E+03</rscale>
<asrwt>0</asrwt>
<pdfrwt beam="1">  1        1 0.23374910E+00 0.74701944E+03</pdfrwt>
<pdfrwt beam="2">  1       -1 0.75492640E-01 0.74701944E+03</pdfrwt>
<totfact> 0.11614564E+01</totfact>
</mgrwt>
</event>
<event>
 4    1  0.2731969E-009  0.6068210E+03  0.7818608E-02  0.9891355E-01
         -1   -1    0    0    0  501 -0.00000000000E+00  0.00000000000E+00  0.46408343844E+03  0.46408343847E+03  0.50400000000E-02 0.  1.
          1   -1    0    0  501    0  0.00000000000E+00 -0.00000000000E+00 -0.17652600575E+04  0.17652600575E+04  0.50400000000E-02 0. -1.
    8880022    1    1    2    0    0 -0.46256414696E+03  0.36176581831E+03  0.17646033853E+03  0.63195727817E+03  0.15294330000E+03 0.  0.
    8880022    1    1    2    0    0  0.46256414696E+03 -0.36176581831E+03 -0.14776369576E+04  0.15973862178E+04  0.15294330000E+03 0.  0.
<mgrwt>
<rscale>  0 0.60682102E+03</rscale>
<asrwt>0</asrwt>
<pdfrwt beam="1">  1        1 0.27157847E+00 0.60682102E+03</pdfrwt>
<pdfrwt beam="2">  1       -1 0.71397453E-01 0.60682102E+03</pdfrwt>
<totfact> 0.91128101E+00</totfact>
</mgrwt>
</event>
<event>
 4    1  0.2731969E-009  0.1110786E+04  0.7818608E-02  0.9194742E-01
         -1   -1    0    0    0  501 -0.00000000000E+00  0.00000000000E+00  0.79176095987E+03  0.79176095989E+03  0.50400000000E-02 0.  1.
          1   -1    0    0  501    0  0.00000000000E+00 -0.00000000000E+00 -0.21995305597E+04  0.21995305597E+04  0.50400000000E-02 0. -1.
    8880022    1    1    2    0    0  0.12969437059E+03 -0.10925356269E+04  0.10363184779E+03  0.11156101195E+04  0.15294330000E+03 0.  0.
    8880022    1    1    2    0    0 -0.12969437059E+03  0.10925356269E+04 -0.15114014476E+04  0.18756814001E+04  0.15294330000E+03 0.  0.
<mgrwt>
<rscale>  0 0.11107864E+04</rscale>
<asrwt>0</asrwt>
<pdfrwt beam="1">  1        1 0.33838931E+00 0.11107864E+04</pdfrwt>
<pdfrwt beam="2">  1       -1 0.12180938E+00 0.11107864E+04</pdfrwt>
<totfact> 0.12976768E+00</totfact>
</mgrwt>
</event>
<event>
 4    1  0.2731969E-009  0.8238480E+03  0.7818608E-02  0.9526125E-01
          1   -1    0    0  501    0  0.00000000000E+00  0.00000000000E+00  0.28181483031E+04  0.28181483031E+04  0.50400000000E-02 0. -1.
         -1   -1    0    0    0  501 -0.00000000000E+00 -0.00000000000E+00 -0.27782030210E+03  0.27782030215E+03  0.50400000000E-02 0.  1.
    8880022    1    1    2    0    0 -0.70378398153E+03 -0.40002742079E+03  0.18349244530E+04  0.20113858981E+04  0.15294330000E+03 0.  0.
    8880022    1    1    2    0    0  0.70378398153E+03  0.40002742079E+03  0.70540354805E+03  0.10845827072E+04  0.15294330000E+03 0.  0.
<mgrwt>
<rscale>  0 0.82384797E+03</rscale>
<asrwt>0</asrwt>
<pdfrwt beam="1">  1        1 0.43356129E+00 0.82384797E+03</pdfrwt>
<pdfrwt beam="2">  1       -1 0.42741583E-01 0.82384797E+03</pdfrwt>
<totfact> 0.45834849E+00</totfact>
</mgrwt>
</event>
<event>
 4    1  0.2731969E-009  0.1072411E+04  0.7818608E-02  0.9232507E-01
          1   -1    0    0  501    0  0.00000000000E+00  0.00000000000E+00  0.17413783019E+04  0.17413783019E+04  0.50400000000E-02 0. -1.
         -1   -1    0    0    0  501 -0.00000000000E+00 -0.00000000000E+00 -0.11400495620E+04  0.11400495620E+04  0.50400000000E-02 0.  1.
    8880022    1    1    2    0    0  0.55443481435E+03  0.90513858704E+03 -0.63379949539E+03  0.12456995137E+04  0.15294330000E+03 0.  0.
    8880022    1    1    2    0    0 -0.55443481435E+03 -0.90513858704E+03  0.12351282352E+04  0.16357283502E+04  0.15294330000E+03 0.  0.
<mgrwt>
<rscale>  0 0.10724111E+04</rscale>
<asrwt>0</asrwt>
<pdfrwt beam="1">  1        1 0.26790435E+00 0.10724111E+04</pdfrwt>
<pdfrwt beam="2">  1       -1 0.17539224E+00 0.10724111E+04</pdfrwt>
<totfact> 0.10012451E+00</totfact>
</mgrwt>
</event>
<event>
 4    1  0.2731969E-009  0.7653322E+03  0.7818608E-02  0.9611599E-01
          1   -1    0    0  501    0  0.00000000000E+00  0.00000000000E+00  0.21377995255E+04  0.21377995255E+04  0.50400000000E-02 0. -1.
         -1   -1    0    0    0  501 -0.00000000000E+00 -0.00000000000E+00 -0.10026803239E+04  0.10026803239E+04  0.50400000000E-02 0.  1.
    8880022    1    1    2    0    0  0.39128479167E+03  0.63971708391E+03 -0.77105818665E+03  0.10863996115E+04  0.15294330000E+03 0.  0.
    8880022    1    1    2    0    0 -0.39128479167E+03 -0.63971708391E+03  0.19061773882E+04  0.20540802380E+04  0.15294330000E+03 0.  0.
<mgrwt>
<rscale>  0 0.76533221E+03</rscale>
<asrwt>0</asrwt>
<pdfrwt beam="1">  1        1 0.32889223E+00 0.76533221E+03</pdfrwt>
<pdfrwt beam="2">  1       -1 0.15425851E+00 0.76533221E+03</pdfrwt>
<totfact> 0.82212282E-01</totfact>
</mgrwt>
</event>
<event>
 4    1  0.2731969E-009  0.1483928E+04  0.7818608E-02  0.8895212E-01
          1   -1    0    0  501    0  0.00000000000E+00  0.00000000000E+00  0.23777028025E+04  0.23777028025E+04  0.50400000000E-02 0. -1.
         -1   -1    0    0    0  501 -0.00000000000E+00 -0.00000000000E+00 -0.16590205540E+04  0.16590205540E+04  0.50400000000E-02 0.  1.
    8880022    1    1    2    0    0 -0.75701450011E+03 -0.12671141955E+04 -0.98217308084E+03  0.17795237991E+04  0.15294330000E+03 0.  0.
    8880022    1    1    2    0    0  0.75701450011E+03  0.12671141955E+04  0.17008553293E+04  0.22571995574E+04  0.15294330000E+03 0.  0.
<mgrwt>
<rscale>  0 0.14839276E+04</rscale>
<asrwt>0</asrwt>
<pdfrwt beam="1">  1        1 0.36580043E+00 0.14839276E+04</pdfrwt>
<pdfrwt beam="2">  1       -1 0.25523393E+00 0.14839276E+04</pdfrwt>
<totfact> 0.10026162E-01</totfact>
</mgrwt>
</event>
<event>
 4    1  0.2731969E-009  0.8577881E+03  0.7818608E-02  0.9479943E-01
         -1   -1    0    0    0  501 -0.00000000000E+00  0.00000000000E+00  0.87226590702E+03  0.87226590703E+03  0.50400000000E-02 0.  1.
          1   -1    0    0  501    0  0.00000000000E+00 -0.00000000000E+00 -0.11611589651E+04  0.11611589651E+04  0.50400000000E-02 0. -1.
    8880022    1    1    2    0    0  0.13764565803E+03  0.83274389591E+03  0.38729221261E+03  0.94116716598E+03  0.15294330000E+03 0.  0.
    8880022    1    1    2    0    0 -0.13764565803E+03 -0.83274389591E+03 -0.67618527069E+03  0.10922577062E+04  0.15294330000E+03 0.  0.
<mgrwt>
<rscale>  0 0.85778807E+03</rscale>
<asrwt>0</asrwt>
<pdfrwt beam="1">  1        1 0.17863984E+00 0.85778807E+03</pdfrwt>
<pdfrwt beam="2">  1       -1 0.13419475E+00 0.85778807E+03</pdfrwt>
<totfact> 0.54510872E+00</totfact>
</mgrwt>
</event>
<event>
 4    1  0.2731969E-009  0.4482024E+03  0.7818608E-02  0.1028259E+00
         -1   -1    0    0    0  501 -0.00000000000E+00  0.00000000000E+00  0.41784663900E+03  0.41784663903E+03  0.50400000000E-02 0.  1.
          1   -1    0    0  501    0  0.00000000000E+00 -0.00000000000E+00 -0.20564458277E+04  0.20564458277E+04  0.50400000000E-02 0. -1.
    8880022    1    1    2    0    0 -0.42087255549E+03  0.18974305392E+02  0.26362132070E+03  0.51998229390E+03  0.15294330000E+03 0.  0.
    8880022    1    1    2    0    0  0.42087255549E+03 -0.18974305392E+02 -0.19022205094E+04  0.19543101728E+04  0.15294330000E+03 0.  0.
<mgrwt>
<rscale>  0 0.44820239E+03</rscale>
<asrwt>0</asrwt>
<pdfrwt beam="1">  1        1 0.31637627E+00 0.44820239E+03</pdfrwt>
<pdfrwt beam="2">  1       -1 0.64284100E-01 0.44820239E+03</pdfrwt>
<totfact> 0.74988295E+00</totfact>
</mgrwt>
</event>
<event>
 4    1  0.2731969E-009  0.3883923E+03  0.7818608E-02  0.1047875E+00
          1   -1    0    0  501    0  0.00000000000E+00  0.00000000000E+00  0.69042671159E+03  0.69042671161E+03  0.50400000000E-02 0. -1.
         -1   -1    0    0    0  501 -0.00000000000E+00 -0.00000000000E+00 -0.35219590067E+03  0.35219590070E+03  0.50400000000E-02 0.  1.
    8880022    1    1    2    0    0  0.34275158979E+03 -0.99891243129E+02  0.49032372836E+03  0.62551252935E+03  0.15294330000E+03 0.  0.
    8880022    1    1    2    0    0 -0.34275158979E+03  0.99891243129E+02 -0.15209291744E+03  0.41711008296E+03  0.15294330000E+03 0.  0.
<mgrwt>
<rscale>  0 0.38839228E+03</rscale>
<asrwt>0</asrwt>
<pdfrwt beam="1">  1        1 0.10621949E+00 0.38839228E+03</pdfrwt>
<pdfrwt beam="2">  1       -1 0.54183986E-01 0.38839228E+03</pdfrwt>
<totfact> 0.10099805E+02</totfact>
</mgrwt>
</event>
<event>
 4    1  0.2731969E-009  0.6157798E+03  0.7818608E-02  0.9873198E-01
          1   -1    0    0  501    0  0.00000000000E+00  0.00000000000E+00  0.72888754093E+03  0.72888754095E+03  0.50400000000E-02 0. -1.
         -1   -1    0    0    0  501 -0.00000000000E+00 -0.00000000000E+00 -0.10884361362E+04  0.10884361362E+04  0.50400000000E-02 0.  1.
    8880022    1    1    2    0    0  0.52945202844E+03  0.27472463261E+03  0.47675800633E+03  0.77877013541E+03  0.15294330000E+03 0.  0.
    8880022    1    1    2    0    0 -0.52945202844E+03 -0.27472463261E+03 -0.83630660163E+03  0.10385535418E+04  0.15294330000E+03 0.  1.
<mgrwt>
<rscale>  0 0.61577977E+03</rscale>
<asrwt>0</asrwt>
<pdfrwt beam="1">  1        1 0.11213654E+00 0.61577977E+03</pdfrwt>
<pdfrwt beam="2">  1       -1 0.16745171E+00 0.61577977E+03</pdfrwt>
<totfact> 0.69431190E+00</totfact>
</mgrwt>
</event>
<event>
 4    1  0.2731969E-009  0.3811528E+03  0.7818608E-02  0.1050508E+00
         -1   -1    0    0    0  501 -0.00000000000E+00  0.00000000000E+00  0.17770861410E+03  0.17770861417E+03  0.50400000000E-02 0.  1.
          1   -1    0    0  501    0  0.00000000000E+00 -0.00000000000E+00 -0.16546037171E+04  0.16546037171E+04  0.50400000000E-02 0. -1.
    8880022    1    1    2    0    0 -0.10108239436E+03 -0.33416787657E+03 -0.13900926783E+04  0.14414004049E+04  0.15294330000E+03 0.  0.
    8880022    1    1    2    0    0  0.10108239436E+03  0.33416787657E+03 -0.86802424697E+02  0.39091192631E+03  0.15294330000E+03 0.  1.
<mgrwt>
<rscale>  0 0.38115282E+03</rscale>
<asrwt>0</asrwt>
<pdfrwt beam="1">  1        1 0.25455441E+00 0.38115282E+03</pdfrwt>
<pdfrwt beam="2">  1       -1 0.27339788E-01 0.38115282E+03</pdfrwt>
<totfact> 0.66637867E+01</totfact>
</mgrwt>
</event>
<event>
 4    1  0.2731969E-009  0.8244937E+03  0.7818608E-02  0.9525225E-01
         -1   -1    0    0    0  501 -0.00000000000E+00  0.00000000000E+00  0.55790520397E+03  0.55790520399E+03  0.50400000000E-02 0.  1.
          1   -1    0    0  501    0  0.00000000000E+00 -0.00000000000E+00 -0.12691334773E+04  0.12691334773E+04  0.50400000000E-02 0. -1.
    8880022    1    1    2    0    0  0.75884781015E+03  0.28381013245E+03 -0.17309072016E+03  0.84246675938E+03  0.15294330000E+03 0.  0.
    8880022    1    1    2    0    0 -0.75884781015E+03 -0.28381013245E+03 -0.53813755314E+03  0.98457192188E+03  0.15294330000E+03 0.  0.
<mgrwt>
<rscale>  0 0.82449369E+03</rscale>
<asrwt>0</asrwt>
<pdfrwt beam="1">  1        1 0.19525130E+00 0.82449369E+03</pdfrwt>
<pdfrwt beam="2">  1       -1 0.85831571E-01 0.82449369E+03</pdfrwt>
<totfact> 0.13066400E+01</totfact>
</mgrwt>
</event>
<event>
 4    1  0.2731969E-009  0.4405290E+03  0.7818608E-02  0.1030585E+00
          1   -1    0    0  501    0  0.00000000000E+00  0.00000000000E+00  0.90910181003E+03  0.90910181004E+03  0.50400000000E-02 0. -1.
         -1   -1    0    0    0  501 -0.00000000000E+00 -0.00000000000E+00 -0.54107864533E+04  0.54107864533E+04  0.50400000000E-02 0.  1.
    8880022    1    1    2    0    0 -0.65592236629E+02  0.40788699470E+03 -0.53478251363E+04  0.53659388260E+04  0.15294330000E+03 0.  0.
    8880022    1    1    2    0    0  0.65592236629E+02 -0.40788699470E+03  0.84614049311E+03  0.95394943736E+03  0.15294330000E+03 0.  0.
<mgrwt>
<rscale>  0 0.44052899E+03</rscale>
<asrwt>0</asrwt>
<pdfrwt beam="1">  1        1 0.13986182E+00 0.44052899E+03</pdfrwt>
<pdfrwt beam="2">  1       -1 0.83242866E+00 0.44052899E+03</pdfrwt>
<totfact> 0.10316238E-03</totfact>
</mgrwt>
</event>
<event>
 4    1  0.2731969E-009  0.6089094E+03  0.7818608E-02  0.9887092E-01
          1   -1    0    0  501    0  0.00000000000E+00  0.00000000000E+00  0.56564227657E+03  0.56564227659E+03  0.50400000000E-02 0. -1.
         -1   -1    0    0    0  501 -0.00000000000E+00 -0.00000000000E+00 -0.92088674004E+03  0.92088674005E+03  0.50400000000E-02 0.  1.
    8880022    1    1    2    0    0  0.17290421782E+03  0.56345646020E+03  0.22139457619E+03  0.64790914677E+03  0.15294330000E+03 0.  0.
    8880022    1    1    2    0    0 -0.17290421782E+03 -0.56345646020E+03 -0.57663903966E+03  0.83861986988E+03  0.15294330000E+03 0.  0.
<mgrwt>
<rscale>  0 0.60890944E+03</rscale>
<asrwt>0</asrwt>
<pdfrwt beam="1">  1        1 0.87021889E-01 0.60890944E+03</pdfrwt>
<pdfrwt beam="2">  1       -1 0.14167488E+00 0.60890944E+03</pdfrwt>
<totfact> 0.15846714E+01</totfact>
</mgrwt>
</event>
<event>
 4    1  0.2731969E-009  0.2816007E+03  0.7818608E-02  0.1094818E+00
         -1   -1    0    0    0  501 -0.00000000000E+00  0.00000000000E+00  0.28282971153E+03  0.28282971158E+03  0.50400000000E-02 0.  1.
          1   -1    0    0  501    0  0.00000000000E+00 -0.00000000000E+00 -0.76790127629E+03  0.76790127631E+03  0.50400000000E-02 0. -1.
    8880022    1    1    2    0    0  0.21891815797E+03 -0.89342794315E+02 -0.66114324906E+03  0.71861627004E+03  0.15294330000E+03 0. -1.
    8880022    1    1    2    0    0 -0.21891815797E+03  0.89342794315E+02  0.17607168430E+03  0.33211471785E+03  0.15294330000E+03 0.  0.
<mgrwt>
<rscale>  0 0.28160069E+03</rscale>
<asrwt>0</asrwt>
<pdfrwt beam="1">  1        1 0.11813866E+00 0.28160069E+03</pdfrwt>
<pdfrwt beam="2">  1       -1 0.43512263E-01 0.28160069E+03</pdfrwt>
<totfact> 0.13152022E+02</totfact>
</mgrwt>
</event>
<event>
 4    1  0.2731969E-009  0.1028081E+04  0.7818608E-02  0.9278271E-01
          1   -1    0    0  501    0  0.00000000000E+00  0.00000000000E+00  0.15525758646E+04  0.15525758646E+04  0.50400000000E-02 0. -1.
         -1   -1    0    0    0  501 -0.00000000000E+00 -0.00000000000E+00 -0.88981988832E+03  0.88981988833E+03  0.50400000000E-02 0.  1.
    8880022    1    1    2    0    0  0.81911907380E+03  0.60216499364E+03 -0.26053481797E+03  0.10605794553E+04  0.15294330000E+03 0.  0.
    8880022    1    1    2    0    0 -0.81911907380E+03 -0.60216499364E+03  0.92329079425E+03  0.13818162976E+04  0.15294330000E+03 0.  0.
<mgrwt>
<rscale>  0 0.10280809E+04</rscale>
<asrwt>0</asrwt>
<pdfrwt beam="1">  1        1 0.23885782E+00 0.10280809E+04</pdfrwt>
<pdfrwt beam="2">  1       -1 0.13689537E+00 0.10280809E+04</pdfrwt>
<totfact> 0.26791777E+00</totfact>
</mgrwt>
</event>
<event>
 4    1  0.2731969E-009  0.1827562E+04  0.7818608E-02  0.8691778E-01
          1   -1    0    0  501    0  0.00000000000E+00  0.00000000000E+00  0.24566459179E+04  0.24566459179E+04  0.50400000000E-02 0. -1.
         -1   -1    0    0    0  501 -0.00000000000E+00 -0.00000000000E+00 -0.18293334140E+04  0.18293334140E+04  0.50400000000E-02 0.  1.
    8880022    1    1    2    0    0 -0.69356282350E+02 -0.18198295123E+04  0.13996150997E+04  0.23019348010E+04  0.15294330000E+03 0.  0.
    8880022    1    1    2    0    0  0.69356282350E+02  0.18198295123E+04 -0.77230259581E+03  0.19840445308E+04  0.15294330000E+03 0.  0.
<mgrwt>
<rscale>  0 0.18275616E+04</rscale>
<asrwt>0</asrwt>
<pdfrwt beam="1">  1        1 0.37794553E+00 0.18275616E+04</pdfrwt>
<pdfrwt beam="2">  1       -1 0.28143591E+00 0.18275616E+04</pdfrwt>
<totfact> 0.57284994E-02</totfact>
</mgrwt>
</event>
<event>
 4    1  0.2731969E-009  0.1191423E+04  0.7818608E-02  0.9120397E-01
          1   -1    0    0  501    0  0.00000000000E+00  0.00000000000E+00  0.15299661656E+04  0.15299661656E+04  0.50400000000E-02 0. -1.
         -1   -1    0    0    0  501 -0.00000000000E+00 -0.00000000000E+00 -0.13900220732E+04  0.13900220732E+04  0.50400000000E-02 0.  1.
    8880022    1    1    2    0    0 -0.11815103075E+04  0.11415237122E+02  0.91189026997E+03  0.15003441045E+04  0.15294330000E+03 0.  0.
    8880022    1    1    2    0    0  0.11815103075E+04 -0.11415237122E+02 -0.77194617757E+03  0.14196441344E+04  0.15294330000E+03 0.  0.
<mgrwt>
<rscale>  0 0.11914229E+04</rscale>
<asrwt>0</asrwt>
<pdfrwt beam="1">  1        1 0.23537941E+00 0.11914229E+04</pdfrwt>
<pdfrwt beam="2">  1       -1 0.21384955E+00 0.11914229E+04</pdfrwt>
<totfact> 0.74070310E-01</totfact>
</mgrwt>
</event>
<event>
 4    1  0.2731969E-009  0.1068252E+04  0.7818608E-02  0.9236700E-01
          1   -1    0    0  501    0  0.00000000000E+00  0.00000000000E+00  0.22766255514E+04  0.22766255515E+04  0.50400000000E-02 0. -1.
         -1   -1    0    0    0  501 -0.00000000000E+00 -0.00000000000E+00 -0.10792348899E+04  0.10792348899E+04  0.50400000000E-02 0.  1.
    8880022    1    1    2    0    0  0.10572435275E+04  0.26669948431E+01  0.18266249522E+04  0.21160627019E+04  0.15294330000E+03 0.  0.
    8880022    1    1    2    0    0 -0.10572435275E+04 -0.26669948431E+01 -0.62923429063E+03  0.12397977394E+04  0.15294330000E+03 0.  0.
<mgrwt>
<rscale>  0 0.10682521E+04</rscale>
<asrwt>0</asrwt>
<pdfrwt beam="1">  1        1 0.35025008E+00 0.10682521E+04</pdfrwt>
<pdfrwt beam="2">  1       -1 0.16603614E+00 0.10682521E+04</pdfrwt>
<totfact> 0.51031609E-01</totfact>
</mgrwt>
</event>
<event>
 4    1  0.2731969E-009  0.5531301E+03  0.7818608E-02  0.1000772E+00
         -1   -1    0    0    0  501 -0.00000000000E+00  0.00000000000E+00  0.44063362180E+03  0.44063362183E+03  0.50400000000E-02 0.  1.
          1   -1    0    0  501    0  0.00000000000E+00 -0.00000000000E+00 -0.19587667645E+04  0.19587667645E+04  0.50400000000E-02 0. -1.
    8880022    1    1    2    0    0 -0.53022445570E+03  0.37726187923E+02 -0.17229553021E+04  0.18095656563E+04  0.15294330000E+03 0.  0.
    8880022    1    1    2    0    0  0.53022445570E+03 -0.37726187923E+02  0.20482215940E+03  0.58983472997E+03  0.15294330000E+03 0.  1.
<mgrwt>
<rscale>  0 0.55313009E+03</rscale>
<asrwt>0</asrwt>
<pdfrwt beam="1">  1        1 0.30134873E+00 0.55313009E+03</pdfrwt>
<pdfrwt beam="2">  1       -1 0.67789789E-01 0.55313009E+03</pdfrwt>
<totfact> 0.76170403E+00</totfact>
</mgrwt>
</event>
<event>
 4    1  0.2731969E-009  0.6855538E+03  0.7818608E-02  0.9742261E-01
          1   -1    0    0  501    0  0.00000000000E+00  0.00000000000E+00  0.26056603430E+04  0.26056603430E+04  0.50400000000E-02 0. -1.
         -1   -1    0    0    0  501 -0.00000000000E+00 -0.00000000000E+00 -0.61824935969E+03  0.61824935971E+03  0.50400000000E-02 0.  1.
    8880022    1    1    2    0    0  0.62530788944E+03 -0.23575927310E+03  0.23502937883E+04  0.24482371078E+04  0.15294330000E+03 0.  0.
    8880022    1    1    2    0    0 -0.62530788944E+03  0.23575927310E+03 -0.36288280498E+03  0.77567259498E+03  0.15294330000E+03 0.  0.
<mgrwt>
<rscale>  0 0.68555382E+03</rscale>
<asrwt>0</asrwt>
<pdfrwt beam="1">  1        1 0.40087082E+00 0.68555382E+03</pdfrwt>
<pdfrwt beam="2">  1       -1 0.95115287E-01 0.68555382E+03</pdfrwt>
<totfact> 0.13236560E+00</totfact>
</mgrwt>
</event>
<event>
 4    1  0.2731969E-009  0.7902721E+03  0.7818608E-02  0.9574205E-01
          1   -1    0    0  501    0  0.00000000000E+00  0.00000000000E+00  0.12037619464E+04  0.12037619464E+04  0.50400000000E-02 0. -1.
         -1   -1    0    0    0  501 -0.00000000000E+00 -0.00000000000E+00 -0.14305663828E+04  0.14305663828E+04  0.50400000000E-02 0.  1.
    8880022    1    1    2    0    0 -0.68182847959E+03  0.36911832770E+03 -0.11649379918E+04  0.14076969110E+04  0.15294330000E+03 0.  0.
    8880022    1    1    2    0    0  0.68182847959E+03 -0.36911832770E+03  0.93813355543E+03  0.12266314183E+04  0.15294330000E+03 0.  0.
<mgrwt>
<rscale>  0 0.79027215E+03</rscale>
<asrwt>0</asrwt>
<pdfrwt beam="1">  1        1 0.18519415E+00 0.79027215E+03</pdfrwt>
<pdfrwt beam="2">  1       -1 0.22008714E+00 0.79027215E+03</pdfrwt>
<totfact> 0.12156256E+00</totfact>
</mgrwt>
</event>
<event>
 4    1  0.2731969E-009  0.7579494E+03  0.7818608E-02  0.9622961E-01
         -1   -1    0    0    0  501 -0.00000000000E+00  0.00000000000E+00  0.59722323507E+03  0.59722323509E+03  0.50400000000E-02 0.  1.
          1   -1    0    0  501    0  0.00000000000E+00 -0.00000000000E+00 -0.12825633355E+04  0.12825633355E+04  0.50400000000E-02 0. -1.
    8880022    1    1    2    0    0 -0.51032691526E+03 -0.53913092015E+03 -0.81261068738E+03  0.11112261209E+04  0.15294330000E+03 0.  0.
    8880022    1    1    2    0    0  0.51032691526E+03  0.53913092015E+03  0.12727058696E+03  0.76856044969E+03  0.15294330000E+03 0.  0.
<mgrwt>
<rscale>  0 0.75794945E+03</rscale>
<asrwt>0</asrwt>
<pdfrwt beam="1">  1        1 0.19731744E+00 0.75794945E+03</pdfrwt>
<pdfrwt beam="2">  1       -1 0.91880498E-01 0.75794945E+03</pdfrwt>
<totfact> 0.11106030E+01</totfact>
</mgrwt>
</event>
<event>
 4    1  0.2731969E-009  0.1294693E+04  0.7818608E-02  0.9033785E-01
          1   -1    0    0  501    0  0.00000000000E+00  0.00000000000E+00  0.22965993754E+04  0.22965993754E+04  0.50400000000E-02 0. -1.
         -1   -1    0    0    0  501 -0.00000000000E+00 -0.00000000000E+00 -0.83554087736E+03  0.83554087738E+03  0.50400000000E-02 0.  1.
    8880022    1    1    2    0    0 -0.12140235798E+04  0.42306507027E+03  0.17360505201E+03  0.13062800898E+04  0.15294330000E+03 0.  0.
    8880022    1    1    2    0    0  0.12140235798E+04 -0.42306507027E+03  0.12874534460E+04  0.18258601630E+04  0.15294330000E+03 0.  0.
<mgrwt>
<rscale>  0 0.12946926E+04</rscale>
<asrwt>0</asrwt>
<pdfrwt beam="1">  1        1 0.35332298E+00 0.12946926E+04</pdfrwt>
<pdfrwt beam="2">  1       -1 0.12854475E+00 0.12946926E+04</pdfrwt>
<totfact> 0.95135686E-01</totfact>
</mgrwt>
</event>
<event>
 4    1  0.2731969E-009  0.1010596E+04  0.7818608E-02  0.9296999E-01
         -1   -1    0    0    0  501 -0.00000000000E+00  0.00000000000E+00  0.22561861264E+04  0.22561861264E+04  0.50400000000E-02 0.  1.
          1   -1    0    0  501    0  0.00000000000E+00 -0.00000000000E+00 -0.46860775637E+03  0.46860775640E+03  0.50400000000E-02 0. -1.
    8880022    1    1    2    0    0  0.99729457811E+03 -0.57585239671E+02  0.64252293010E+03  0.11975558042E+04  0.15294330000E+03 0.  0.
    8880022    1    1    2    0    0 -0.99729457811E+03  0.57585239671E+02  0.11450554400E+04  0.15272380787E+04  0.15294330000E+03 0.  0.
<mgrwt>
<rscale>  0 0.10105960E+04</rscale>
<asrwt>0</asrwt>
<pdfrwt beam="1">  1        1 0.72093502E-01 0.10105960E+04</pdfrwt>
<pdfrwt beam="2">  1       -1 0.34710555E+00 0.10105960E+04</pdfrwt>
<totfact> 0.80191605E-01</totfact>
</mgrwt>
</event>
<event>
 4    1  0.2731969E-009  0.1399546E+04  0.7818608E-02  0.8954148E-01
          1   -1    0    0  501    0  0.00000000000E+00  0.00000000000E+00  0.15386112481E+04  0.15386112481E+04  0.50400000000E-02 0. -1.
         -1   -1    0    0    0  501 -0.00000000000E+00 -0.00000000000E+00 -0.22048591514E+04  0.22048591514E+04  0.50400000000E-02 0.  1.
    8880022    1    1    2    0    0  0.68038496557E+03  0.12134300944E+04  0.88367165908E+03  0.16551747791E+04  0.15294330000E+03 0.  0.
    8880022    1    1    2    0    0 -0.68038496557E+03 -0.12134300944E+04 -0.15499195623E+04  0.20882956204E+04  0.15294330000E+03 0.  0.
<mgrwt>
<rscale>  0 0.13995456E+04</rscale>
<asrwt>0</asrwt>
<pdfrwt beam="1">  1        1 0.23670942E+00 0.13995456E+04</pdfrwt>
<pdfrwt beam="2">  1       -1 0.33920910E+00 0.13995456E+04</pdfrwt>
<totfact> 0.10797836E-01</totfact>
</mgrwt>
</event>
<event>
 4    1  0.2731969E-009  0.1261216E+04  0.7818608E-02  0.9060899E-01
          1   -1    0    0  501    0  0.00000000000E+00  0.00000000000E+00  0.18819684441E+04  0.18819684441E+04  0.50400000000E-02 0. -1.
         -1   -1    0    0    0  501 -0.00000000000E+00 -0.00000000000E+00 -0.26098951649E+04  0.26098951649E+04  0.50400000000E-02 0.  1.
    8880022    1    1    2    0    0  0.11530304802E+04  0.48764276186E+03  0.14828292898E+04  0.19466507410E+04  0.15294330000E+03 0.  0.
    8880022    1    1    2    0    0 -0.11530304802E+04 -0.48764276186E+03 -0.22107560107E+04  0.25452128680E+04  0.15294330000E+03 0.  0.
<mgrwt>
<rscale>  0 0.12612162E+04</rscale>
<asrwt>0</asrwt>
<pdfrwt beam="1">  1        1 0.28953361E+00 0.12612162E+04</pdfrwt>
<pdfrwt beam="2">  1       -1 0.40152233E+00 0.12612162E+04</pdfrwt>
<totfact> 0.24555691E-02</totfact>
</mgrwt>
</event>
<event>
 4    1  0.2731969E-009  0.6795453E+03  0.7818608E-02  0.9752866E-01
         -1   -1    0    0    0  501 -0.00000000000E+00  0.00000000000E+00  0.11013031879E+04  0.11013031880E+04  0.50400000000E-02 0.  1.
          1   -1    0    0  501    0  0.00000000000E+00 -0.00000000000E+00 -0.96028392474E+03  0.96028392476E+03  0.50400000000E-02 0. -1.
    8880022    1    1    2    0    0 -0.53716661255E+03 -0.38709460031E+03  0.84419087518E+03  0.10837158696E+04  0.15294330000E+03 0.  0.
    8880022    1    1    2    0    0  0.53716661255E+03  0.38709460031E+03 -0.70317161198E+03  0.97787124313E+03  0.15294330000E+03 0.  0.
<mgrwt>
<rscale>  0 0.67954533E+03</rscale>
<asrwt>0</asrwt>
<pdfrwt beam="1">  1        1 0.14773599E+00 0.67954533E+03</pdfrwt>
<pdfrwt beam="2">  1       -1 0.16943126E+00 0.67954533E+03</pdfrwt>
<totfact> 0.42427600E+00</totfact>
</mgrwt>
</event>
<event>
 4    1  0.2731969E-009  0.1285620E+04  0.7818608E-02  0.9041047E-01
          1   -1    0    0  501    0  0.00000000000E+00  0.00000000000E+00  0.22666889481E+04  0.22666889481E+04  0.50400000000E-02 0. -1.
         -1   -1    0    0    0  501 -0.00000000000E+00 -0.00000000000E+00 -0.79974210446E+03  0.79974210448E+03  0.50400000000E-02 0.  1.
    8880022    1    1    2    0    0  0.49364844818E+03  0.11771735224E+04  0.27804246625E+03  0.13153423730E+04  0.15294330000E+03 0.  0.
    8880022    1    1    2    0    0 -0.49364844818E+03 -0.11771735224E+04  0.11889043774E+04  0.17510886796E+04  0.15294330000E+03 0.  0.
<mgrwt>
<rscale>  0 0.12856197E+04</rscale>
<asrwt>0</asrwt>
<pdfrwt beam="1">  1        1 0.34872138E+00 0.12856197E+04</pdfrwt>
<pdfrwt beam="2">  1       -1 0.12303725E+00 0.12856197E+04</pdfrwt>
<totfact> 0.11141691E+00</totfact>
</mgrwt>
</event>
<event>
 4    1  0.2731969E-009  0.4622024E+03  0.7818608E-02  0.1024144E+00
          1   -1    0    0  501    0  0.00000000000E+00  0.00000000000E+00  0.87600331010E+03  0.87600331012E+03  0.50400000000E-02 0. -1.
         -1   -1    0    0    0  501 -0.00000000000E+00 -0.00000000000E+00 -0.75916660109E+03  0.75916660111E+03  0.50400000000E-02 0.  1.
    8880022    1    1    2    0    0 -0.43589855518E+03 -0.15226330293E+02  0.73200416080E+03  0.86571423460E+03  0.15294330000E+03 0.  0.
    8880022    1    1    2    0    0  0.43589855518E+03  0.15226330293E+02 -0.61516745179E+03  0.76945567663E+03  0.15294330000E+03 0.  1.
<mgrwt>
<rscale>  0 0.46220238E+03</rscale>
<asrwt>0</asrwt>
<pdfrwt beam="1">  1        1 0.13476974E+00 0.46220238E+03</pdfrwt>
<pdfrwt beam="2">  1       -1 0.11679486E+00 0.46220238E+03</pdfrwt>
<totfact> 0.13601730E+01</totfact>
</mgrwt>
</event>
<event>
 4    1  0.2731969E-009  0.6723161E+03  0.7818608E-02  0.9765783E-01
          1   -1    0    0  501    0  0.00000000000E+00  0.00000000000E+00  0.61831759926E+03  0.61831759928E+03  0.50400000000E-02 0. -1.
         -1   -1    0    0    0  501 -0.00000000000E+00 -0.00000000000E+00 -0.13750674000E+04  0.13750674001E+04  0.50400000000E-02 0.  1.
    8880022    1    1    2    0    0  0.65041185424E+03 -0.74710519047E+02  0.30373545520E+03  0.73774258489E+03  0.15294330000E+03 0.  0.
    8880022    1    1    2    0    0 -0.65041185424E+03  0.74710519047E+02 -0.10604852560E+04  0.12556424144E+04  0.15294330000E+03 0.  0.
<mgrwt>
<rscale>  0 0.67231607E+03</rscale>
<asrwt>0</asrwt>
<pdfrwt beam="1">  1        1 0.95125785E-01 0.67231607E+03</pdfrwt>
<pdfrwt beam="2">  1       -1 0.21154883E+00 0.67231607E+03</pdfrwt>
<totfact> 0.43225442E+00</totfact>
</mgrwt>
</event>
<event>
 4    1  0.2731969E-009  0.2879354E+03  0.7818608E-02  0.1091432E+00
          1   -1    0    0  501    0  0.00000000000E+00  0.00000000000E+00  0.29965981859E+04  0.29965981859E+04  0.50400000000E-02 0. -1.
         -1   -1    0    0    0  501 -0.00000000000E+00 -0.00000000000E+00 -0.65292375885E+03  0.65292375887E+03  0.50400000000E-02 0.  1.
    8880022    1    1    2    0    0 -0.10842348473E+02 -0.24371617458E+03 -0.61384411116E+03  0.67802018856E+03  0.15294330000E+03 0.  1.
    8880022    1    1    2    0    0  0.10842348473E+02  0.24371617458E+03  0.29575185382E+04  0.29715017562E+04  0.15294330000E+03 0.  0.
<mgrwt>
<rscale>  0 0.28793538E+03</rscale>
<asrwt>0</asrwt>
<pdfrwt beam="1">  1        1 0.46101511E+00 0.28793538E+03</pdfrwt>
<pdfrwt beam="2">  1       -1 0.10044981E+00 0.28793538E+03</pdfrwt>
<totfact> 0.73196858E-01</totfact>
</mgrwt>
</event>
<event>
 4    1  0.2731969E-009  0.3577143E+03  0.7818608E-02  0.1059493E+00
         -1   -1    0    0    0  501 -0.00000000000E+00  0.00000000000E+00  0.84498314536E+03  0.84498314538E+03  0.50400000000E-02 0.  1.
          1   -1    0    0  501    0  0.00000000000E+00 -0.00000000000E+00 -0.63701872751E+03  0.63701872753E+03  0.50400000000E-02 0. -1.
    8880022    1    1    2    0    0 -0.28544659538E+03  0.15194765598E+03  0.75093858075E+03  0.83178618289E+03  0.15294330000E+03 0.  0.
    8880022    1    1    2    0    0  0.28544659538E+03 -0.15194765598E+03 -0.54297416289E+03  0.65021569002E+03  0.15294330000E+03 0.  0.
<mgrwt>
<rscale>  0 0.35771427E+03</rscale>
<asrwt>0</asrwt>
<pdfrwt beam="1">  1        1 0.98002881E-01 0.35771427E+03</pdfrwt>
<pdfrwt beam="2">  1       -1 0.12999741E+00 0.35771427E+03</pdfrwt>
<totfact> 0.17456182E+01</totfact>
</mgrwt>
</event>
<event>
 4    1  0.2731969E-009  0.7549184E+03  0.7818608E-02  0.9627666E-01
         -1   -1    0    0    0  501 -0.00000000000E+00  0.00000000000E+00  0.23529353967E+04  0.23529353967E+04  0.50400000000E-02 0.  1.
          1   -1    0    0  501    0  0.00000000000E+00 -0.00000000000E+00 -0.77611931181E+03  0.77611931183E+03  0.50400000000E-02 0. -1.
    8880022    1    1    2    0    0 -0.68821109506E+03 -0.26995477340E+03 -0.50922870836E+03  0.91061277252E+03  0.15294330000E+03 0.  0.
    8880022    1    1    2    0    0  0.68821109506E+03  0.26995477340E+03  0.20860447933E+04  0.22184419360E+04  0.15294330000E+03 0.  0.
<mgrwt>
<rscale>  0 0.75491837E+03</rscale>
<asrwt>0</asrwt>
<pdfrwt beam="1">  1        1 0.11940297E+00 0.75491837E+03</pdfrwt>
<pdfrwt beam="2">  1       -1 0.36199006E+00 0.75491837E+03</pdfrwt>
<totfact> 0.32124064E-01</totfact>
</mgrwt>
</event>
<event>
 4    1  0.2731969E-009  0.9858960E+03  0.7818608E-02  0.9324150E-01
         -1   -1    0    0    0  501 -0.00000000000E+00  0.00000000000E+00  0.23987898010E+04  0.23987898010E+04  0.50400000000E-02 0.  1.
          1   -1    0    0  501    0  0.00000000000E+00 -0.00000000000E+00 -0.68857629077E+03  0.68857629079E+03  0.50400000000E-02 0. -1.
    8880022    1    1    2    0    0  0.29008288097E+03 -0.92975870582E+03  0.18453991068E+04  0.20922449296E+04  0.15294330000E+03 0.  0.
    8880022    1    1    2    0    0 -0.29008288097E+03  0.92975870582E+03 -0.13518559662E+03  0.99512116219E+03  0.15294330000E+03 0.  0.
<mgrwt>
<rscale>  0 0.98589603E+03</rscale>
<asrwt>0</asrwt>
<pdfrwt beam="1">  1        1 0.10593481E+00 0.98589603E+03</pdfrwt>
<pdfrwt beam="2">  1       -1 0.36904459E+00 0.98589603E+03</pdfrwt>
<totfact> 0.33204510E-01</totfact>
</mgrwt>
</event>
<event>
 4    1  0.2731969E-009  0.4232657E+03  0.7818608E-02  0.1036009E+00
         -1   -1    0    0    0  501 -0.00000000000E+00  0.00000000000E+00  0.95761783711E+03  0.95761783713E+03  0.50400000000E-02 0.  1.
          1   -1    0    0  501    0  0.00000000000E+00 -0.00000000000E+00 -0.46774645560E+03  0.46774645563E+03  0.50400000000E-02 0. -1.
    8880022    1    1    2    0    0 -0.29941088304E+03 -0.25712897686E+03 -0.30712103315E+03  0.52295044664E+03  0.15294330000E+03 0.  0.
    8880022    1    1    2    0    0  0.29941088304E+03  0.25712897686E+03  0.79699241466E+03  0.90241384612E+03  0.15294330000E+03 0.  0.
<mgrwt>
<rscale>  0 0.42326569E+03</rscale>
<asrwt>0</asrwt>
<pdfrwt beam="1">  1        1 0.71960994E-01 0.42326569E+03</pdfrwt>
<pdfrwt beam="2">  1       -1 0.14732582E+00 0.42326569E+03</pdfrwt>
<totfact> 0.19135332E+01</totfact>
</mgrwt>
</event>
<event>
 4    1  0.2731969E-009  0.1178426E+04  0.7818608E-02  0.9131953E-01
         -1   -1    0    0    0  501 -0.00000000000E+00  0.00000000000E+00  0.40968721123E+04  0.40968721123E+04  0.50400000000E-02 0.  1.
          1   -1    0    0  501    0  0.00000000000E+00 -0.00000000000E+00 -0.10978908614E+04  0.10978908614E+04  0.50400000000E-02 0. -1.
    8880022    1    1    2    0    0 -0.11629500993E+04  0.11332778486E+03  0.36590066158E+04  0.38440886030E+04  0.15294330000E+03 0.  0.
    8880022    1    1    2    0    0  0.11629500993E+04 -0.11332778486E+03 -0.66002536494E+03  0.13506743707E+04  0.15294330000E+03 0.  0.
<mgrwt>
<rscale>  0 0.11784260E+04</rscale>
<asrwt>0</asrwt>
<pdfrwt beam="1">  1        1 0.16890629E+00 0.11784260E+04</pdfrwt>
<pdfrwt beam="2">  1       -1 0.63028802E+00 0.11784260E+04</pdfrwt>
<totfact> 0.41577137E-03</totfact>
</mgrwt>
</event>
<event>
 4    1  0.2731969E-009  0.6021267E+03  0.7818608E-02  0.9901004E-01
         -1   -1    0    0    0  501 -0.00000000000E+00  0.00000000000E+00  0.20581968930E+04  0.20581968930E+04  0.50400000000E-02 0.  1.
          1   -1    0    0  501    0  0.00000000000E+00 -0.00000000000E+00 -0.54520449253E+03  0.54520449255E+03  0.50400000000E-02 0. -1.
    8880022    1    1    2    0    0  0.52827913070E+03  0.24512451230E+03 -0.31446861441E+03  0.67929892457E+03  0.15294330000E+03 0.  0.
    8880022    1    1    2    0    0 -0.52827913070E+03 -0.24512451230E+03  0.18274610149E+04  0.19241024610E+04  0.15294330000E+03 0.  0.
<mgrwt>
<rscale>  0 0.60212666E+03</rscale>
<asrwt>0</asrwt>
<pdfrwt beam="1">  1        1 0.83877614E-01 0.60212666E+03</pdfrwt>
<pdfrwt beam="2">  1       -1 0.31664568E+00 0.60212666E+03</pdfrwt>
<totfact> 0.11030967E+00</totfact>
</mgrwt>
</event>
<event>
 4    1  0.2731969E-009  0.6404175E+03  0.7818608E-02  0.9824928E-01
         -1   -1    0    0    0  501 -0.00000000000E+00  0.00000000000E+00  0.36554367530E+03  0.36554367534E+03  0.50400000000E-02 0.  1.
          1   -1    0    0  501    0  0.00000000000E+00 -0.00000000000E+00 -0.14018431897E+04  0.14018431897E+04  0.50400000000E-02 0. -1.
    8880022    1    1    2    0    0  0.57636400889E+03 -0.23355389041E+03 -0.12331000476E+03  0.65218088040E+03  0.15294330000E+03 0.  0.
    8880022    1    1    2    0    0 -0.57636400889E+03  0.23355389041E+03 -0.91298950964E+03  0.11152059847E+04  0.15294330000E+03 0.  0.
<mgrwt>
<rscale>  0 0.64041748E+03</rscale>
<asrwt>0</asrwt>
<pdfrwt beam="1">  1        1 0.21566818E+00 0.64041748E+03</pdfrwt>
<pdfrwt beam="2">  1       -1 0.56237489E-01 0.64041748E+03</pdfrwt>
<totfact> 0.25666653E+01</totfact>
</mgrwt>
</event>
<event>
 4    1  0.2731969E-009  0.1333983E+04  0.7818608E-02  0.9003042E-01
          1   -1    0    0  501    0  0.00000000000E+00  0.00000000000E+00  0.52649681932E+04  0.52649681932E+04  0.50400000000E-02 0. -1.
         -1   -1    0    0    0  501 -0.00000000000E+00 -0.00000000000E+00 -0.52969414043E+03  0.52969414045E+03  0.50400000000E-02 0.  1.
    8880022    1    1    2    0    0 -0.10123800688E+04  0.85510518816E+03  0.41106498476E+04  0.43216839437E+04  0.15294330000E+03 0.  0.
    8880022    1    1    2    0    0  0.10123800688E+04 -0.85510518816E+03  0.62462420514E+03  0.14729783899E+04  0.15294330000E+03 0.  0.
<mgrwt>
<rscale>  0 0.13339827E+04</rscale>
<asrwt>0</asrwt>
<pdfrwt beam="1">  1        1 0.80999507E+00 0.13339827E+04</pdfrwt>
<pdfrwt beam="2">  1       -1 0.81491409E-01 0.13339827E+04</pdfrwt>
<totfact> 0.57540790E-03</totfact>
</mgrwt>
</event>
<event>
 4    1  0.2731969E-009  0.1485243E+04  0.7818608E-02  0.8894326E-01
         -1   -1    0    0    0  501 -0.00000000000E+00  0.00000000000E+00  0.12437789035E+04  0.12437789035E+04  0.50400000000E-02 0.  1.
          1   -1    0    0  501    0  0.00000000000E+00 -0.00000000000E+00 -0.19691390649E+04  0.19691390649E+04  0.50400000000E-02 0. -1.
    8880022    1    1    2    0    0 -0.14672024052E+04 -0.17283758630E+03 -0.86893012249E+03  0.17207518531E+04  0.15294330000E+03 0.  0.
    8880022    1    1    2    0    0  0.14672024052E+04  0.17283758630E+03  0.14356996109E+03  0.14921661154E+04  0.15294330000E+03 0.  0.
<mgrwt>
<rscale>  0 0.14852432E+04</rscale>
<asrwt>0</asrwt>
<pdfrwt beam="1">  1        1 0.30294447E+00 0.14852432E+04</pdfrwt>
<pdfrwt beam="2">  1       -1 0.19135060E+00 0.14852432E+04</pdfrwt>
<totfact> 0.51235010E-01</totfact>
</mgrwt>
</event>
<event>
 4    1  0.2731969E-009  0.8626557E+03  0.7818608E-02  0.9473507E-01
          1   -1    0    0  501    0  0.00000000000E+00  0.00000000000E+00  0.21524960436E+04  0.21524960437E+04  0.50400000000E-02 0. -1.
         -1   -1    0    0    0  501 -0.00000000000E+00 -0.00000000000E+00 -0.96249549628E+03  0.96249549629E+03  0.50400000000E-02 0.  1.
    8880022    1    1    2    0    0 -0.82263310807E+03 -0.20989987160E+03 -0.65177678880E+03  0.10811974020E+04  0.15294330000E+03 0.  0.
    8880022    1    1    2    0    0  0.82263310807E+03  0.20989987160E+03  0.18417773362E+04  0.20337941380E+04  0.15294330000E+03 0.  0.
<mgrwt>
<rscale>  0 0.86265569E+03</rscale>
<asrwt>0</asrwt>
<pdfrwt beam="1">  1        1 0.33115324E+00 0.86265569E+03</pdfrwt>
<pdfrwt beam="2">  1       -1 0.14807623E+00 0.86265569E+03</pdfrwt>
<totfact> 0.87979680E-01</totfact>
</mgrwt>
</event>
<event>
 4    1  0.2731969E-009  0.5975081E+03  0.7818608E-02  0.9910590E-01
         -1   -1    0    0    0  501 -0.00000000000E+00  0.00000000000E+00  0.10187681036E+04  0.10187681036E+04  0.50400000000E-02 0.  1.
          1   -1    0    0  501    0  0.00000000000E+00 -0.00000000000E+00 -0.14050579798E+04  0.14050579798E+04  0.50400000000E-02 0. -1.
    8880022    1    1    2    0    0  0.57007083948E+03 -0.92970344108E+02 -0.12431035091E+04  0.13792469809E+04  0.15294330000E+03 0.  0.
    8880022    1    1    2    0    0 -0.57007083948E+03  0.92970344108E+02  0.85681363294E+03  0.10445791026E+04  0.15294330000E+03 0.  0.
<mgrwt>
<rscale>  0 0.59750808E+03</rscale>
<asrwt>0</asrwt>
<pdfrwt beam="1">  1        1 0.21616277E+00 0.59750808E+03</pdfrwt>
<pdfrwt beam="2">  1       -1 0.15673355E+00 0.59750808E+03</pdfrwt>
<totfact> 0.25423373E+00</totfact>
</mgrwt>
</event>
<event>
 4    1  0.2731969E-009  0.9693534E+03  0.7818608E-02  0.9342811E-01
         -1   -1    0    0    0  501 -0.00000000000E+00  0.00000000000E+00  0.68531448814E+03  0.68531448815E+03  0.50400000000E-02 0.  1.
          1   -1    0    0  501    0  0.00000000000E+00 -0.00000000000E+00 -0.16457280952E+04  0.16457280953E+04  0.50400000000E-02 0. -1.
    8880022    1    1    2    0    0 -0.64959811442E+03 -0.70304817847E+03 -0.41042754078E+01  0.96936213543E+03  0.15294330000E+03 0.  0.
    8880022    1    1    2    0    0  0.64959811442E+03  0.70304817847E+03 -0.95630933170E+03  0.13616804480E+04  0.15294330000E+03 0.  0.
<mgrwt>
<rscale>  0 0.96935345E+03</rscale>
<asrwt>0</asrwt>
<pdfrwt beam="1">  1        1 0.25318894E+00 0.96935345E+03</pdfrwt>
<pdfrwt beam="2">  1       -1 0.10543300E+00 0.96935345E+03</pdfrwt>
<totfact> 0.44252275E+00</totfact>
</mgrwt>
</event>
<event>
 4    1  0.2731969E-009  0.1024299E+04  0.7818608E-02  0.9282288E-01
         -1   -1    0    0    0  501 -0.00000000000E+00  0.00000000000E+00  0.68504287224E+03  0.68504287226E+03  0.50400000000E-02 0.  1.
          1   -1    0    0  501    0  0.00000000000E+00 -0.00000000000E+00 -0.39487204725E+04  0.39487204726E+04  0.50400000000E-02 0. -1.
    8880022    1    1    2    0    0 -0.58213398558E+03 -0.82880455621E+03 -0.34445467038E+04  0.35936180400E+04  0.15294330000E+03 0.  0.
    8880022    1    1    2    0    0  0.58213398558E+03  0.82880455621E+03  0.18086910349E+03  0.10401453048E+04  0.15294330000E+03 0.  0.
<mgrwt>
<rscale>  0 0.10242991E+04</rscale>
<asrwt>0</asrwt>
<pdfrwt beam="1">  1        1 0.60749545E+00 0.10242991E+04</pdfrwt>
<pdfrwt beam="2">  1       -1 0.10539121E+00 0.10242991E+04</pdfrwt>
<totfact> 0.94042673E-02</totfact>
</mgrwt>
</event>
<event>
 4    1  0.2731969E-009  0.6786043E+03  0.7818608E-02  0.9754538E-01
         -1   -1    0    0    0  501 -0.00000000000E+00  0.00000000000E+00  0.21924323919E+03  0.21924323925E+03  0.50400000000E-02 0.  1.
          1   -1    0    0  501    0  0.00000000000E+00 -0.00000000000E+00 -0.42597384485E+04  0.42597384485E+04  0.50400000000E-02 0. -1.
    8880022    1    1    2    0    0  0.10692522513E+03 -0.65244090245E+03 -0.36147154205E+04  0.36778623355E+04  0.15294330000E+03 0.  0.
    8880022    1    1    2    0    0 -0.10692522513E+03  0.65244090245E+03 -0.42577978887E+03  0.80111935227E+03  0.15294330000E+03 0.  0.
<mgrwt>
<rscale>  0 0.67860429E+03</rscale>
<asrwt>0</asrwt>
<pdfrwt beam="1">  1        1 0.65534431E+00 0.67860429E+03</pdfrwt>
<pdfrwt beam="2">  1       -1 0.33729732E-01 0.67860429E+03</pdfrwt>
<totfact> 0.52565336E-01</totfact>
</mgrwt>
</event>
<event>
 4    1  0.2731969E-009  0.6842711E+03  0.7818608E-02  0.9744515E-01
         -1   -1    0    0    0  501 -0.00000000000E+00  0.00000000000E+00  0.82432905562E+03  0.82432905564E+03  0.50400000000E-02 0.  1.
          1   -1    0    0  501    0  0.00000000000E+00 -0.00000000000E+00 -0.12009379595E+04  0.12009379595E+04  0.50400000000E-02 0. -1.
    8880022    1    1    2    0    0  0.60548144910E+03 -0.27969181952E+03  0.54683415212E+03  0.87593067195E+03  0.15294330000E+03 0.  0.
    8880022    1    1    2    0    0 -0.60548144910E+03  0.27969181952E+03 -0.92344305596E+03  0.11493363432E+04  0.15294330000E+03 0. -1.
<mgrwt>
<rscale>  0 0.68427111E+03</rscale>
<asrwt>0</asrwt>
<pdfrwt beam="1">  1        1 0.18475969E+00 0.68427111E+03</pdfrwt>
<pdfrwt beam="2">  1       -1 0.12681986E+00 0.68427111E+03</pdfrwt>
<totfact> 0.60380177E+00</totfact>
</mgrwt>
</event>
<event>
 4    1  0.2731969E-009  0.2876417E+03  0.7818608E-02  0.1091587E+00
         -1   -1    0    0    0  501 -0.00000000000E+00  0.00000000000E+00  0.23761937001E+03  0.23761937006E+03  0.50400000000E-02 0.  1.
          1   -1    0    0  501    0  0.00000000000E+00 -0.00000000000E+00 -0.98551139302E+03  0.98551139303E+03  0.50400000000E-02 0. -1.
    8880022    1    1    2    0    0  0.22994281043E+03 -0.80451187992E+02 -0.86574746238E+03  0.91228088402E+03  0.15294330000E+03 0. -1.
    8880022    1    1    2    0    0 -0.22994281043E+03  0.80451187992E+02  0.11785543937E+03  0.31084987908E+03  0.15294330000E+03 0.  0.
<mgrwt>
<rscale>  0 0.28764169E+03</rscale>
<asrwt>0</asrwt>
<pdfrwt beam="1">  1        1 0.15161714E+00 0.28764169E+03</pdfrwt>
<pdfrwt beam="2">  1       -1 0.36556827E-01 0.28764169E+03</pdfrwt>
<totfact> 0.11986425E+02</totfact>
</mgrwt>
</event>
<event>
 4    1  0.2731969E-009  0.9811306E+03  0.7818608E-02  0.9329486E-01
         -1   -1    0    0    0  501 -0.00000000000E+00  0.00000000000E+00  0.45727534179E+03  0.45727534181E+03  0.50400000000E-02 0.  1.
          1   -1    0    0  501    0  0.00000000000E+00 -0.00000000000E+00 -0.24331807165E+04  0.24331807165E+04  0.50400000000E-02 0. -1.
    8880022    1    1    2    0    0  0.96912543505E+03 -0.46374034577E+01 -0.15186287425E+04  0.18079962735E+04  0.15294330000E+03 0.  0.
    8880022    1    1    2    0    0 -0.96912543505E+03  0.46374034577E+01 -0.45727663220E+03  0.10824597848E+04  0.15294330000E+03 0.  0.
<mgrwt>
<rscale>  0 0.98113061E+03</rscale>
<asrwt>0</asrwt>
<pdfrwt beam="1">  1        1 0.37433549E+00 0.98113061E+03</pdfrwt>
<pdfrwt beam="2">  1       -1 0.70350054E-01 0.98113061E+03</pdfrwt>
<totfact> 0.31408390E+00</totfact>
</mgrwt>
</event>
<event>
 4    1  0.2731969E-009  0.1019138E+04  0.7818608E-02  0.9287800E-01
         -1   -1    0    0    0  501 -0.00000000000E+00  0.00000000000E+00  0.25631810184E+04  0.25631810184E+04  0.50400000000E-02 0.  1.
          1   -1    0    0  501    0  0.00000000000E+00 -0.00000000000E+00 -0.12251635319E+04  0.12251635319E+04  0.50400000000E-02 0. -1.
    8880022    1    1    2    0    0 -0.42505164223E+03  0.91355441830E+03 -0.88057641770E+03  0.13468693530E+04  0.15294330000E+03 0.  0.
    8880022    1    1    2    0    0  0.42505164223E+03 -0.91355441830E+03  0.22185939042E+04  0.24414751972E+04  0.15294330000E+03 0.  0.
<mgrwt>
<rscale>  0 0.10191380E+04</rscale>
<asrwt>0</asrwt>
<pdfrwt beam="1">  1        1 0.18848670E+00 0.10191380E+04</pdfrwt>
<pdfrwt beam="2">  1       -1 0.39433554E+00 0.10191380E+04</pdfrwt>
<totfact> 0.81902718E-02</totfact>
</mgrwt>
</event>
<event>
 4    1  0.2731969E-009  0.6376818E+03  0.7818608E-02  0.9830172E-01
          1   -1    0    0  501    0  0.00000000000E+00  0.00000000000E+00  0.21119137028E+04  0.21119137028E+04  0.50400000000E-02 0. -1.
         -1   -1    0    0    0  501 -0.00000000000E+00 -0.00000000000E+00 -0.48955080262E+03  0.48955080265E+03  0.50400000000E-02 0.  1.
    8880022    1    1    2    0    0  0.22959311426E+03  0.57492037225E+03  0.18243264603E+04  0.19325643894E+04  0.15294330000E+03 0.  0.
    8880022    1    1    2    0    0 -0.22959311426E+03 -0.57492037225E+03 -0.20196356014E+03  0.66890011600E+03  0.15294330000E+03 0.  0.
<mgrwt>
<rscale>  0 0.63768181E+03</rscale>
<asrwt>0</asrwt>
<pdfrwt beam="1">  1        1 0.32490980E+00 0.63768181E+03</pdfrwt>
<pdfrwt beam="2">  1       -1 0.75315508E-01 0.63768181E+03</pdfrwt>
<totfact> 0.47672001E+00</totfact>
</mgrwt>
</event>
<event>
 4    1  0.2731969E-009  0.8298510E+03  0.7818608E-02  0.9517787E-01
         -1   -1    0    0    0  501 -0.00000000000E+00  0.00000000000E+00  0.25926374388E+03  0.25926374393E+03  0.50400000000E-02 0.  1.
          1   -1    0    0  501    0  0.00000000000E+00 -0.00000000000E+00 -0.49260026361E+04  0.49260026361E+04  0.50400000000E-02 0. -1.
    8880022    1    1    2    0    0  0.31821083651E+03  0.75100122177E+03 -0.40932742696E+04  0.41765472427E+04  0.15294330000E+03 0.  0.
    8880022    1    1    2    0    0 -0.31821083651E+03 -0.75100122177E+03 -0.57346462268E+03  0.10087191373E+04  0.15294330000E+03 0.  0.
<mgrwt>
<rscale>  0 0.82985097E+03</rscale>
<asrwt>0</asrwt>
<pdfrwt beam="1">  1        1 0.75784649E+00 0.82985097E+03</pdfrwt>
<pdfrwt beam="2">  1       -1 0.39886733E-01 0.82985097E+03</pdfrwt>
<totfact> 0.74732466E-02</totfact>
</mgrwt>
</event>
<event>
 4    1  0.2731969E-009  0.1192259E+04  0.7818608E-02  0.9119659E-01
         -1   -1    0    0    0  501 -0.00000000000E+00  0.00000000000E+00  0.16440247654E+04  0.16440247655E+04  0.50400000000E-02 0.  1.
          1   -1    0    0  501    0  0.00000000000E+00 -0.00000000000E+00 -0.18548015092E+04  0.18548015093E+04  0.50400000000E-02 0. -1.
    8880022    1    1    2    0    0  0.42749025831E+03 -0.11024253448E+04  0.11728086407E+04  0.16724118280E+04  0.15294330000E+03 0.  0.
    8880022    1    1    2    0    0 -0.42749025831E+03  0.11024253448E+04 -0.13835853845E+04  0.18264144467E+04  0.15294330000E+03 0.  0.
<mgrwt>
<rscale>  0 0.11922589E+04</rscale>
<asrwt>0</asrwt>
<pdfrwt beam="1">  1        1 0.28535408E+00 0.11922589E+04</pdfrwt>
<pdfrwt beam="2">  1       -1 0.25292689E+00 0.11922589E+04</pdfrwt>
<totfact> 0.24531716E-01</totfact>
</mgrwt>
</event>
<event>
 4    1  0.2731969E-009  0.7037310E+03  0.7818608E-02  0.9710873E-01
         -1   -1    0    0    0  501 -0.00000000000E+00  0.00000000000E+00  0.58944880024E+03  0.58944880026E+03  0.50400000000E-02 0.  1.
          1   -1    0    0  501    0  0.00000000000E+00 -0.00000000000E+00 -0.10510648503E+04  0.10510648503E+04  0.50400000000E-02 0. -1.
    8880022    1    1    2    0    0 -0.67481136131E+03  0.12835637057E+03 -0.59823222708E+03  0.92364451049E+03  0.15294330000E+03 0.  0.
    8880022    1    1    2    0    0  0.67481136131E+03 -0.12835637057E+03  0.13661617699E+03  0.71686914012E+03  0.15294330000E+03 0.  0.
<mgrwt>
<rscale>  0 0.70373105E+03</rscale>
<asrwt>0</asrwt>
<pdfrwt beam="1">  1        1 0.16170228E+00 0.70373105E+03</pdfrwt>
<pdfrwt beam="2">  1       -1 0.90684431E-01 0.70373105E+03</pdfrwt>
<totfact> 0.17010051E+01</totfact>
</mgrwt>
</event>
<event>
 4    1  0.2731969E-009  0.9434801E+03  0.7818608E-02  0.9372804E-01
         -1   -1    0    0    0  501 -0.00000000000E+00  0.00000000000E+00  0.10780941095E+04  0.10780941095E+04  0.50400000000E-02 0.  1.
          1   -1    0    0  501    0  0.00000000000E+00 -0.00000000000E+00 -0.11415880752E+04  0.11415880753E+04  0.50400000000E-02 0. -1.
    8880022    1    1    2    0    0 -0.68062813106E+03  0.63522308810E+03 -0.61558224378E+03  0.11265416887E+04  0.15294330000E+03 0.  0.
    8880022    1    1    2    0    0  0.68062813106E+03 -0.63522308810E+03  0.55208827801E+03  0.10931404961E+04  0.15294330000E+03 0.  0.
<mgrwt>
<rscale>  0 0.94348009E+03</rscale>
<asrwt>0</asrwt>
<pdfrwt beam="1">  1        1 0.17562893E+00 0.94348009E+03</pdfrwt>
<pdfrwt beam="2">  1       -1 0.16586063E+00 0.94348009E+03</pdfrwt>
<totfact> 0.31497738E+00</totfact>
</mgrwt>
</event>
<event>
 4    1  0.2731969E-009  0.4220272E+03  0.7818608E-02  0.1036409E+00
         -1   -1    0    0    0  501 -0.00000000000E+00  0.00000000000E+00  0.72262504030E+03  0.72262504032E+03  0.50400000000E-02 0.  1.
          1   -1    0    0  501    0  0.00000000000E+00 -0.00000000000E+00 -0.74693588479E+03  0.74693588481E+03  0.50400000000E-02 0. -1.
    8880022    1    1    2    0    0 -0.37967013762E+03 -0.10279066410E+03  0.58929830457E+03  0.72483065527E+03  0.15294330000E+03 0.  0.
    8880022    1    1    2    0    0  0.37967013762E+03  0.10279066410E+03 -0.61360914906E+03  0.74473026986E+03  0.15294330000E+03 0.  0.
<mgrwt>
<rscale>  0 0.42202723E+03</rscale>
<asrwt>0</asrwt>
<pdfrwt beam="1">  1        1 0.11491321E+00 0.42202723E+03</pdfrwt>
<pdfrwt beam="2">  1       -1 0.11117308E+00 0.42202723E+03</pdfrwt>
<totfact> 0.19821762E+01</totfact>
</mgrwt>
</event>
<event>
 4    1  0.2731969E-009  0.6411650E+03  0.7818608E-02  0.9823500E-01
         -1   -1    0    0    0  501 -0.00000000000E+00  0.00000000000E+00  0.77859790901E+03  0.77859790903E+03  0.50400000000E-02 0.  1.
          1   -1    0    0  501    0  0.00000000000E+00 -0.00000000000E+00 -0.24703802070E+04  0.24703802070E+04  0.50400000000E-02 0. -1.
    8880022    1    1    2    0    0 -0.18324079216E+03 -0.59508289671E+03 -0.22863572649E+04  0.23745572298E+04  0.15294330000E+03 0.  0.
    8880022    1    1    2    0    0  0.18324079216E+03  0.59508289671E+03  0.59457496694E+03  0.87442088619E+03  0.15294330000E+03 0.  0.
<mgrwt>
<rscale>  0 0.64116495E+03</rscale>
<asrwt>0</asrwt>
<pdfrwt beam="1">  1        1 0.38005849E+00 0.64116495E+03</pdfrwt>
<pdfrwt beam="2">  1       -1 0.11978429E+00 0.64116495E+03</pdfrwt>
<totfact> 0.96779831E-01</totfact>
</mgrwt>
</event>
<event>
 4    1  0.2731969E-009  0.3983623E+03  0.7818608E-02  0.1044348E+00
         -1   -1    0    0    0  501 -0.00000000000E+00  0.00000000000E+00  0.18971606983E+04  0.18971606983E+04  0.50400000000E-02 0.  1.
          1   -1    0    0  501    0  0.00000000000E+00 -0.00000000000E+00 -0.17590950674E+04  0.17590950674E+04  0.50400000000E-02 0. -1.
    8880022    1    1    2    0    0 -0.17688334373E+03 -0.32251072001E+03 -0.17151007036E+04  0.17607563597E+04  0.15294330000E+03 0. -1.
    8880022    1    1    2    0    0  0.17688334373E+03  0.32251072001E+03  0.18531663345E+04  0.18954994060E+04  0.15294330000E+03 0.  0.
<mgrwt>
<rscale>  0 0.39836232E+03</rscale>
<asrwt>0</asrwt>
<pdfrwt beam="1">  1        1 0.27063001E+00 0.39836232E+03</pdfrwt>
<pdfrwt beam="2">  1       -1 0.29187088E+00 0.39836232E+03</pdfrwt>
<totfact> 0.19790112E-01</totfact>
</mgrwt>
</event>
<event>
 4    1  0.2731969E-009  0.5453877E+03  0.7818608E-02  0.1002567E+00
         -1   -1    0    0    0  501 -0.00000000000E+00  0.00000000000E+00  0.14254717190E+04  0.14254717190E+04  0.50400000000E-02 0.  1.
          1   -1    0    0  501    0  0.00000000000E+00 -0.00000000000E+00 -0.47499884241E+03  0.47499884243E+03  0.50400000000E-02 0. -1.
    8880022    1    1    2    0    0  0.52145773802E+03  0.46237315745E+02  0.11867728087E+04  0.13060924219E+04  0.15294330000E+03 0.  0.
    8880022    1    1    2    0    0 -0.52145773802E+03 -0.46237315745E+02 -0.23629993211E+03  0.59437813960E+03  0.15294330000E+03 0.  0.
<mgrwt>
<rscale>  0 0.54538767E+03</rscale>
<asrwt>0</asrwt>
<pdfrwt beam="1">  1        1 0.73076747E-01 0.54538767E+03</pdfrwt>
<pdfrwt beam="2">  1       -1 0.21930334E+00 0.54538767E+03</pdfrwt>
<totfact> 0.56730554E+00</totfact>
</mgrwt>
</event>
<event>
 4    1  0.2731969E-009  0.4116998E+03  0.7818608E-02  0.1039802E+00
          1   -1    0    0  501    0  0.00000000000E+00  0.00000000000E+00  0.12134573891E+04  0.12134573891E+04  0.50400000000E-02 0. -1.
         -1   -1    0    0    0  501 -0.00000000000E+00 -0.00000000000E+00 -0.32440450197E+03  0.32440450201E+03  0.50400000000E-02 0.  1.
    8880022    1    1    2    0    0 -0.10833553971E+03  0.36656307835E+03 -0.13571024007E+03  0.43349048646E+03  0.15294330000E+03 0.  0.
    8880022    1    1    2    0    0  0.10833553971E+03 -0.36656307835E+03  0.10247631272E+04  0.11043714047E+04  0.15294330000E+03 0.  0.
<mgrwt>
<rscale>  0 0.41169981E+03</rscale>
<asrwt>0</asrwt>
<pdfrwt beam="1">  1        1 0.18668575E+00 0.41169981E+03</pdfrwt>
<pdfrwt beam="2">  1       -1 0.49908385E-01 0.41169981E+03</pdfrwt>
<totfact> 0.45337982E+01</totfact>
</mgrwt>
</event>
<event>
 4    1  0.2731969E-009  0.1369391E+04  0.7818608E-02  0.8976278E-01
          1   -1    0    0  501    0  0.00000000000E+00  0.00000000000E+00  0.13375003318E+04  0.13375003318E+04  0.50400000000E-02 0. -1.
         -1   -1    0    0    0  501 -0.00000000000E+00 -0.00000000000E+00 -0.20143934904E+04  0.20143934904E+04  0.50400000000E-02 0.  1.
    8880022    1    1    2    0    0  0.12907053657E+04 -0.43118262342E+03 -0.12624824022E+04  0.18625499361E+04  0.15294330000E+03 0.  0.
    8880022    1    1    2    0    0 -0.12907053657E+04  0.43118262342E+03  0.58558924361E+03  0.14893438861E+04  0.15294330000E+03 0.  0.
<mgrwt>
<rscale>  0 0.13693905E+04</rscale>
<asrwt>0</asrwt>
<pdfrwt beam="1">  1        1 0.20576928E+00 0.13693905E+04</pdfrwt>
<pdfrwt beam="2">  1       -1 0.30990669E+00 0.13693905E+04</pdfrwt>
<totfact> 0.23309765E-01</totfact>
</mgrwt>
</event>
<event>
 4    1  0.2731969E-009  0.2330638E+03  0.7818608E-02  0.1124502E+00
          1   -1    0    0  501    0  0.00000000000E+00  0.00000000000E+00  0.31946298278E+04  0.31946298278E+04  0.50400000000E-02 0. -1.
         -1   -1    0    0    0  501 -0.00000000000E+00 -0.00000000000E+00 -0.34198100035E+03  0.34198100038E+03  0.50400000000E-02 0.  1.
    8880022    1    1    2    0    0 -0.11972057925E+03  0.12881798980E+03 -0.29746088926E+03  0.37789115529E+03  0.15294330000E+03 0.  1.
    8880022    1    1    2    0    0  0.11972057925E+03 -0.12881798980E+03  0.31501097167E+04  0.31587196729E+04  0.15294330000E+03 0.  0.
<mgrwt>
<rscale>  0 0.23306382E+03</rscale>
<asrwt>0</asrwt>
<pdfrwt beam="1">  1        1 0.49148150E+00 0.23306382E+03</pdfrwt>
<pdfrwt beam="2">  1       -1 0.52612462E-01 0.23306382E+03</pdfrwt>
<totfact> 0.20512302E+00</totfact>
</mgrwt>
</event>
<event>
 4    1  0.2731969E-009  0.1701905E+04  0.7818608E-02  0.8760279E-01
          1   -1    0    0  501    0  0.00000000000E+00  0.00000000000E+00  0.13124679110E+04  0.13124679111E+04  0.50400000000E-02 0. -1.
         -1   -1    0    0    0  501 -0.00000000000E+00 -0.00000000000E+00 -0.24476185232E+04  0.24476185233E+04  0.50400000000E-02 0.  1.
    8880022    1    1    2    0    0  0.10087210835E+04  0.13621930764E+04 -0.11571713438E+04  0.20580392060E+04  0.15294330000E+03 0.  0.
    8880022    1    1    2    0    0 -0.10087210835E+04 -0.13621930764E+04  0.22020731628E+02  0.17020472283E+04  0.15294330000E+03 0.  0.
<mgrwt>
<rscale>  0 0.17019048E+04</rscale>
<asrwt>0</asrwt>
<pdfrwt beam="1">  1        1 0.20191814E+00 0.17019048E+04</pdfrwt>
<pdfrwt beam="2">  1       -1 0.37655669E+00 0.17019048E+04</pdfrwt>
<totfact> 0.84748476E-02</totfact>
</mgrwt>
</event>
<event>
 4    1  0.2731969E-009  0.5272681E+03  0.7818608E-02  0.1006897E+00
         -1   -1    0    0    0  501 -0.00000000000E+00  0.00000000000E+00  0.46389373294E+03  0.46389373296E+03  0.50400000000E-02 0.  1.
          1   -1    0    0  501    0  0.00000000000E+00 -0.00000000000E+00 -0.74973054893E+03  0.74973054894E+03  0.50400000000E-02 0. -1.
    8880022    1    1    2    0    0  0.18110719680E+03 -0.47097786131E+03  0.12889405281E+03  0.54279396869E+03  0.15294330000E+03 0.  0.
    8880022    1    1    2    0    0 -0.18110719680E+03  0.47097786131E+03 -0.41473086881E+03  0.67083031322E+03  0.15294330000E+03 0.  0.
<mgrwt>
<rscale>  0 0.52726807E+03</rscale>
<asrwt>0</asrwt>
<pdfrwt beam="1">  1        1 0.11534316E+00 0.52726807E+03</pdfrwt>
<pdfrwt beam="2">  1       -1 0.71368267E-01 0.52726807E+03</pdfrwt>
<totfact> 0.50900030E+01</totfact>
</mgrwt>
</event>
<event>
 4    1  0.2731969E-009  0.9697670E+03  0.7818608E-02  0.9342340E-01
         -1   -1    0    0    0  501 -0.00000000000E+00  0.00000000000E+00  0.18108094271E+04  0.18108094272E+04  0.50400000000E-02 0.  1.
          1   -1    0    0  501    0  0.00000000000E+00 -0.00000000000E+00 -0.82480711656E+03  0.82480711658E+03  0.50400000000E-02 0. -1.
    8880022    1    1    2    0    0  0.46934003921E+03  0.83473133187E+03 -0.30895289772E+03  0.10177917345E+04  0.15294330000E+03 0.  0.
    8880022    1    1    2    0    0 -0.46934003921E+03 -0.83473133187E+03  0.12949552083E+04  0.16178248092E+04  0.15294330000E+03 0.  0.
<mgrwt>
<rscale>  0 0.96976705E+03</rscale>
<asrwt>0</asrwt>
<pdfrwt beam="1">  1        1 0.12689340E+00 0.96976705E+03</pdfrwt>
<pdfrwt beam="2">  1       -1 0.27858606E+00 0.96976705E+03</pdfrwt>
<totfact> 0.97146493E-01</totfact>
</mgrwt>
</event>
<event>
 4    1  0.2731969E-009  0.1106310E+04  0.7818608E-02  0.9199063E-01
          1   -1    0    0  501    0  0.00000000000E+00  0.00000000000E+00  0.23513511845E+04  0.23513511845E+04  0.50400000000E-02 0. -1.
         -1   -1    0    0    0  501 -0.00000000000E+00 -0.00000000000E+00 -0.79428898538E+03  0.79428898539E+03  0.50400000000E-02 0.  1.
    8880022    1    1    2    0    0  0.76890024066E+03  0.78059137935E+03  0.17019164362E+04  0.20298871127E+04  0.15294330000E+03 0.  0.
    8880022    1    1    2    0    0 -0.76890024066E+03 -0.78059137935E+03 -0.14485423706E+03  0.11157530572E+04  0.15294330000E+03 0.  0.
<mgrwt>
<rscale>  0 0.11063101E+04</rscale>
<asrwt>0</asrwt>
<pdfrwt beam="1">  1        1 0.36174633E+00 0.11063101E+04</pdfrwt>
<pdfrwt beam="2">  1       -1 0.12219831E+00 0.11063101E+04</pdfrwt>
<totfact> 0.10157708E+00</totfact>
</mgrwt>
</event>
<event>
 4    1  0.2731969E-009  0.9250166E+03  0.7818608E-02  0.9394839E-01
          1   -1    0    0  501    0  0.00000000000E+00  0.00000000000E+00  0.19668504751E+04  0.19668504751E+04  0.50400000000E-02 0. -1.
         -1   -1    0    0    0  501 -0.00000000000E+00 -0.00000000000E+00 -0.10447063978E+04  0.10447063978E+04  0.50400000000E-02 0.  1.
    8880022    1    1    2    0    0 -0.65605616901E+03  0.63391981308E+03  0.16113706895E+04  0.18580019317E+04  0.15294330000E+03 0.  0.
    8880022    1    1    2    0    0  0.65605616901E+03 -0.63391981308E+03 -0.68922661216E+03  0.11535549411E+04  0.15294330000E+03 0.  0.
<mgrwt>
<rscale>  0 0.92501658E+03</rscale>
<asrwt>0</asrwt>
<pdfrwt beam="1">  1        1 0.30259238E+00 0.92501658E+03</pdfrwt>
<pdfrwt beam="2">  1       -1 0.16072406E+00 0.92501658E+03</pdfrwt>
<totfact> 0.92689706E-01</totfact>
</mgrwt>
</event>
<event>
 4    1  0.2731969E-009  0.6528263E+03  0.7818608E-02  0.9801490E-01
         -1   -1    0    0    0  501 -0.00000000000E+00  0.00000000000E+00  0.33641079498E+03  0.33641079502E+03  0.50400000000E-02 0.  1.
          1   -1    0    0  501    0  0.00000000000E+00 -0.00000000000E+00 -0.38586284141E+04  0.38586284141E+04  0.50400000000E-02 0. -1.
    8880022    1    1    2    0    0  0.55768971760E+03 -0.30294008191E+03 -0.34801585619E+04  0.35408594696E+04  0.15294330000E+03 0.  0.
    8880022    1    1    2    0    0 -0.55768971760E+03  0.30294008191E+03 -0.42059057242E+02  0.65417973956E+03  0.15294330000E+03 0.  0.
<mgrwt>
<rscale>  0 0.65282629E+03</rscale>
<asrwt>0</asrwt>
<pdfrwt beam="1">  1        1 0.59363511E+00 0.65282629E+03</pdfrwt>
<pdfrwt beam="2">  1       -1 0.51755510E-01 0.65282629E+03</pdfrwt>
<totfact> 0.54238058E-01</totfact>
</mgrwt>
</event>
<event>
 4    1  0.2731969E-009  0.7386303E+03  0.7818608E-02  0.9653358E-01
         -1   -1    0    0    0  501 -0.00000000000E+00  0.00000000000E+00  0.29535994625E+03  0.29535994629E+03  0.50400000000E-02 0.  1.
          1   -1    0    0  501    0  0.00000000000E+00 -0.00000000000E+00 -0.21440035599E+04  0.21440035599E+04  0.50400000000E-02 0. -1.
    8880022    1    1    2    0    0 -0.28874854814E+03  0.66242538813E+03 -0.13781623638E+04  0.15636196062E+04  0.15294330000E+03 0.  0.
    8880022    1    1    2    0    0  0.28874854814E+03 -0.66242538813E+03 -0.47048124984E+03  0.87574389998E+03  0.15294330000E+03 0.  0.
<mgrwt>
<rscale>  0 0.73863034E+03</rscale>
<asrwt>0</asrwt>
<pdfrwt beam="1">  1        1 0.32984669E+00 0.73863034E+03</pdfrwt>
<pdfrwt beam="2">  1       -1 0.45439993E-01 0.73863034E+03</pdfrwt>
<totfact> 0.11995253E+01</totfact>
</mgrwt>
</event>
<event>
 4    1  0.2731969E-009  0.8877392E+03  0.7818608E-02  0.9441039E-01
         -1   -1    0    0    0  501 -0.00000000000E+00  0.00000000000E+00  0.48111227666E+03  0.48111227669E+03  0.50400000000E-02 0.  1.
          1   -1    0    0  501    0  0.00000000000E+00 -0.00000000000E+00 -0.26002879878E+04  0.26002879878E+04  0.50400000000E-02 0. -1.
    8880022    1    1    2    0    0 -0.91190397856E+02  0.86969740592E+03 -0.12234743421E+03  0.89613046718E+03  0.15294330000E+03 0.  0.
    8880022    1    1    2    0    0  0.91190397856E+02 -0.86969740592E+03 -0.19968282769E+04  0.21852697973E+04  0.15294330000E+03 0. -1.
<mgrwt>
<rscale>  0 0.88773922E+03</rscale>
<asrwt>0</asrwt>
<pdfrwt beam="1">  1        1 0.40004430E+00 0.88773922E+03</pdfrwt>
<pdfrwt beam="2">  1       -1 0.74017275E-01 0.88773922E+03</pdfrwt>
<totfact> 0.22018803E+00</totfact>
</mgrwt>
</event>
<event>
 4    1  0.2731969E-009  0.4217766E+03  0.7818608E-02  0.1036490E+00
         -1   -1    0    0    0  501 -0.00000000000E+00  0.00000000000E+00  0.80973011950E+03  0.80973011951E+03  0.50400000000E-02 0.  1.
          1   -1    0    0  501    0  0.00000000000E+00 -0.00000000000E+00 -0.30752315154E+03  0.30752315158E+03  0.50400000000E-02 0. -1.
    8880022    1    1    2    0    0 -0.36580454815E+03 -0.14384318854E+03 -0.47430674422E+02  0.42443509778E+03  0.15294330000E+03 0.  0.
    8880022    1    1    2    0    0  0.36580454815E+03  0.14384318854E+03  0.54963764238E+03  0.69281817331E+03  0.15294330000E+03 0.  0.
<mgrwt>
<rscale>  0 0.42177658E+03</rscale>
<asrwt>0</asrwt>
<pdfrwt beam="1">  1        1 0.47311255E-01 0.42177658E+03</pdfrwt>
<pdfrwt beam="2">  1       -1 0.12457386E+00 0.42177658E+03</pdfrwt>
<totfact> 0.50562651E+01</totfact>
</mgrwt>
</event>
<event>
 4    1  0.2731969E-009  0.5356623E+03  0.7818608E-02  0.1004868E+00
         -1   -1    0    0    0  501 -0.00000000000E+00  0.00000000000E+00  0.74416632100E+03  0.74416632101E+03  0.50400000000E-02 0.  1.
          1   -1    0    0  501    0  0.00000000000E+00 -0.00000000000E+00 -0.38565032217E+03  0.38565032220E+03  0.50400000000E-02 0. -1.
    8880022    1    1    2    0    0 -0.17583635493E+03  0.48231111497E+03  0.18699927905E+03  0.56736480215E+03  0.15294330000E+03 0.  1.
    8880022    1    1    2    0    0  0.17583635493E+03 -0.48231111497E+03  0.17151671977E+03  0.56245184107E+03  0.15294330000E+03 0. -1.
<mgrwt>
<rscale>  0 0.53566229E+03</rscale>
<asrwt>0</asrwt>
<pdfrwt beam="1">  1        1 0.59330819E-01 0.53566229E+03</pdfrwt>
<pdfrwt beam="2">  1       -1 0.11448713E+00 0.53566229E+03</pdfrwt>
<totfact> 0.45580973E+01</totfact>
</mgrwt>
</event>
<event>
 4    1  0.2731969E-009  0.6620149E+03  0.7818608E-02  0.9784492E-01
         -1   -1    0    0    0  501 -0.00000000000E+00  0.00000000000E+00  0.14157671327E+04  0.14157671327E+04  0.50400000000E-02 0.  1.
          1   -1    0    0  501    0  0.00000000000E+00 -0.00000000000E+00 -0.71850906089E+03  0.71850906091E+03  0.50400000000E-02 0. -1.
    8880022    1    1    2    0    0  0.57558257233E+03 -0.28909657011E+03  0.11537099270E+04  0.13301542666E+04  0.15294330000E+03 0.  0.
    8880022    1    1    2    0    0 -0.57558257233E+03  0.28909657011E+03 -0.45645185514E+03  0.80412192701E+03  0.15294330000E+03 0.  0.
<mgrwt>
<rscale>  0 0.66201494E+03</rscale>
<asrwt>0</asrwt>
<pdfrwt beam="1">  1        1 0.11053986E+00 0.66201494E+03</pdfrwt>
<pdfrwt beam="2">  1       -1 0.21781032E+00 0.66201494E+03</pdfrwt>
<totfact> 0.31483979E+00</totfact>
</mgrwt>
</event>
<event>
 4    1  0.2731969E-009  0.6808046E+03  0.7818608E-02  0.9750634E-01
          1   -1    0    0  501    0  0.00000000000E+00  0.00000000000E+00  0.44548502169E+03  0.44548502172E+03  0.50400000000E-02 0. -1.
         -1   -1    0    0    0  501 -0.00000000000E+00 -0.00000000000E+00 -0.16146087117E+04  0.16146087118E+04  0.50400000000E-02 0.  1.
    8880022    1    1    2    0    0  0.36068881795E+03 -0.55678252020E+03 -0.11988156313E+04  0.13786420018E+04  0.15294330000E+03 0.  0.
    8880022    1    1    2    0    0 -0.36068881795E+03  0.55678252020E+03  0.29691941284E+02  0.68145173166E+03  0.15294330000E+03 0.  0.
<mgrwt>
<rscale>  0 0.68080456E+03</rscale>
<asrwt>0</asrwt>
<pdfrwt beam="1">  1        1 0.68536158E-01 0.68080456E+03</pdfrwt>
<pdfrwt beam="2">  1       -1 0.24840134E+00 0.68080456E+03</pdfrwt>
<totfact> 0.39025092E+00</totfact>
</mgrwt>
</event>
<event>
 4    1  0.2731969E-009  0.1231618E+04  0.7818608E-02  0.9085623E-01
         -1   -1    0    0    0  501 -0.00000000000E+00  0.00000000000E+00  0.95936359790E+03  0.95936359792E+03  0.50400000000E-02 0.  1.
          1   -1    0    0  501    0  0.00000000000E+00 -0.00000000000E+00 -0.29595474714E+04  0.29595474714E+04  0.50400000000E-02 0. -1.
    8880022    1    1    2    0    0 -0.11914105904E+04  0.27208847700E+03 -0.23373413496E+04  0.26419779658E+04  0.15294330000E+03 0.  0.
    8880022    1    1    2    0    0  0.11914105904E+04 -0.27208847700E+03  0.33715747605E+03  0.12769331036E+04  0.15294330000E+03 0.  0.
<mgrwt>
<rscale>  0 0.12316180E+04</rscale>
<asrwt>0</asrwt>
<pdfrwt beam="1">  1        1 0.45531499E+00 0.12316180E+04</pdfrwt>
<pdfrwt beam="2">  1       -1 0.14759440E+00 0.12316180E+04</pdfrwt>
<totfact> 0.23020113E-01</totfact>
</mgrwt>
</event>
<event>
 4    1  0.2731969E-009  0.5120168E+03  0.7818608E-02  0.1010689E+00
          1   -1    0    0  501    0  0.00000000000E+00  0.00000000000E+00  0.33016885088E+04  0.33016885088E+04  0.50400000000E-02 0. -1.
         -1   -1    0    0    0  501 -0.00000000000E+00 -0.00000000000E+00 -0.33221489099E+03  0.33221489102E+03  0.50400000000E-02 0.  1.
    8880022    1    1    2    0    0  0.10895333680E+03 -0.47633887786E+03 -0.10027792081E+03  0.52174406617E+03  0.15294330000E+03 0.  0.
    8880022    1    1    2    0    0 -0.10895333680E+03  0.47633887786E+03  0.30697515386E+04  0.31121593336E+04  0.15294330000E+03 0.  0.
<mgrwt>
<rscale>  0 0.51201681E+03</rscale>
<asrwt>0</asrwt>
<pdfrwt beam="1">  1        1 0.50795208E+00 0.51201681E+03</pdfrwt>
<pdfrwt beam="2">  1       -1 0.51109983E-01 0.51201681E+03</pdfrwt>
<totfact> 0.15816935E+00</totfact>
</mgrwt>
</event>
<event>
 4    1  0.2731969E-009  0.1031951E+04  0.7818608E-02  0.9274180E-01
         -1   -1    0    0    0  501 -0.00000000000E+00  0.00000000000E+00  0.61815616087E+03  0.61815616089E+03  0.50400000000E-02 0.  1.
          1   -1    0    0  501    0  0.00000000000E+00 -0.00000000000E+00 -0.23932964425E+04  0.23932964425E+04  0.50400000000E-02 0. -1.
    8880022    1    1    2    0    0 -0.95967186079E+03  0.34721834229E+03 -0.90557009937E+02  0.10359164458E+04  0.15294330000E+03 0.  0.
    8880022    1    1    2    0    0  0.95967186079E+03 -0.34721834229E+03 -0.16845832717E+04  0.19755361575E+04  0.15294330000E+03 0.  0.
<mgrwt>
<rscale>  0 0.10319507E+04</rscale>
<asrwt>0</asrwt>
<pdfrwt beam="1">  1        1 0.36819945E+00 0.10319507E+04</pdfrwt>
<pdfrwt beam="2">  1       -1 0.95100949E-01 0.10319507E+04</pdfrwt>
<totfact> 0.17359394E+00</totfact>
</mgrwt>
</event>
<event>
 4    1  0.2731969E-009  0.9914840E+03  0.7818608E-02  0.9317935E-01
          1   -1    0    0  501    0  0.00000000000E+00  0.00000000000E+00  0.82236367356E+03  0.82236367357E+03  0.50400000000E-02 0. -1.
         -1   -1    0    0    0  501 -0.00000000000E+00 -0.00000000000E+00 -0.16030792274E+04  0.16030792274E+04  0.50400000000E-02 0.  1.
    8880022    1    1    2    0    0 -0.91641186113E+03 -0.34617641167E+03 -0.10019350333E+04  0.14095794661E+04  0.15294330000E+03 0.  0.
    8880022    1    1    2    0    0  0.91641186113E+03  0.34617641167E+03  0.22121947949E+03  0.10158634349E+04  0.15294330000E+03 0.  0.
<mgrwt>
<rscale>  0 0.99148397E+03</rscale>
<asrwt>0</asrwt>
<pdfrwt beam="1">  1        1 0.12651749E+00 0.99148397E+03</pdfrwt>
<pdfrwt beam="2">  1       -1 0.24662757E+00 0.99148397E+03</pdfrwt>
<totfact> 0.15646803E+00</totfact>
</mgrwt>
</event>
<event>
 4    1  0.2731969E-009  0.4815475E+03  0.7818608E-02  0.1018711E+00
         -1   -1    0    0    0  501 -0.00000000000E+00  0.00000000000E+00  0.93014950337E+03  0.93014950338E+03  0.50400000000E-02 0.  1.
          1   -1    0    0  501    0  0.00000000000E+00 -0.00000000000E+00 -0.55425004155E+03  0.55425004157E+03  0.50400000000E-02 0. -1.
    8880022    1    1    2    0    0  0.34125917058E+03 -0.30337851432E+03  0.73847971399E+03  0.88161232152E+03  0.15294330000E+03 0.  0.
    8880022    1    1    2    0    0 -0.34125917058E+03  0.30337851432E+03 -0.36258025217E+03  0.60278722344E+03  0.15294330000E+03 0.  0.
<mgrwt>
<rscale>  0 0.48154750E+03</rscale>
<asrwt>0</asrwt>
<pdfrwt beam="1">  1        1 0.85269238E-01 0.48154750E+03</pdfrwt>
<pdfrwt beam="2">  1       -1 0.14309992E+00 0.48154750E+03</pdfrwt>
<totfact> 0.16212473E+01</totfact>
</mgrwt>
</event>
<event>
 4    1  0.2731969E-009  0.2948955E+03  0.7818608E-02  0.1087821E+00
          1   -1    0    0  501    0  0.00000000000E+00  0.00000000000E+00  0.23445588507E+03  0.23445588512E+03  0.50400000000E-02 0. -1.
         -1   -1    0    0    0  501 -0.00000000000E+00 -0.00000000000E+00 -0.26952266729E+04  0.26952266729E+04  0.50400000000E-02 0.  1.
    8880022    1    1    2    0    0  0.17511388214E+03 -0.18140234467E+03 -0.25907021618E+04  0.26074318834E+04  0.15294330000E+03 0.  0.
    8880022    1    1    2    0    0 -0.17511388214E+03  0.18140234467E+03  0.12993137394E+03  0.32225067466E+03  0.15294330000E+03 0.  0.
<mgrwt>
<rscale>  0 0.29489547E+03</rscale>
<asrwt>0</asrwt>
<pdfrwt beam="1">  1        1 0.36070138E-01 0.29489547E+03</pdfrwt>
<pdfrwt beam="2">  1       -1 0.41465023E+00 0.29489547E+03</pdfrwt>
<totfact> 0.83661180E-01</totfact>
</mgrwt>
</event>
<event>
 4    1  0.2731969E-009  0.8656765E+03  0.7818608E-02  0.9469535E-01
         -1   -1    0    0    0  501 -0.00000000000E+00  0.00000000000E+00  0.92827101326E+03  0.92827101328E+03  0.50400000000E-02 0.  1.
          1   -1    0    0  501    0  0.00000000000E+00 -0.00000000000E+00 -0.13783682464E+04  0.13783682464E+04  0.50400000000E-02 0. -1.
    8880022    1    1    2    0    0 -0.76985147285E+03  0.36514782600E+03 -0.96740074619E+03  0.12981756745E+04  0.15294330000E+03 0.  0.
    8880022    1    1    2    0    0  0.76985147285E+03 -0.36514782600E+03  0.51730351304E+03  0.10084635852E+04  0.15294330000E+03 0.  0.
<mgrwt>
<rscale>  0 0.86567654E+03</rscale>
<asrwt>0</asrwt>
<pdfrwt beam="1">  1        1 0.21205665E+00 0.86567654E+03</pdfrwt>
<pdfrwt beam="2">  1       -1 0.14281092E+00 0.86567654E+03</pdfrwt>
<totfact> 0.32391570E+00</totfact>
</mgrwt>
</event>
<event>
 4    1  0.2731969E-009  0.6826546E+03  0.7818608E-02  0.9747364E-01
          1   -1    0    0  501    0  0.00000000000E+00  0.00000000000E+00  0.73699821687E+03  0.73699821688E+03  0.50400000000E-02 0. -1.
         -1   -1    0    0    0  501 -0.00000000000E+00 -0.00000000000E+00 -0.78493796127E+03  0.78493796129E+03  0.50400000000E-02 0.  1.
    8880022    1    1    2    0    0  0.73675532433E+02  0.66120916328E+03 -0.35951762892E+03  0.77153756889E+03  0.15294330000E+03 0.  0.
    8880022    1    1    2    0    0 -0.73675532433E+02 -0.66120916328E+03  0.31157788452E+03  0.75039860929E+03  0.15294330000E+03 0.  0.
<mgrwt>
<rscale>  0 0.68265459E+03</rscale>
<asrwt>0</asrwt>
<pdfrwt beam="1">  1        1 0.11338434E+00 0.68265459E+03</pdfrwt>
<pdfrwt beam="2">  1       -1 0.12075969E+00 0.68265459E+03</pdfrwt>
<totfact> 0.15910579E+01</totfact>
</mgrwt>
</event>
<event>
 4    1  0.2731969E-009  0.5886741E+03  0.7818608E-02  0.9929186E-01
          1   -1    0    0  501    0  0.00000000000E+00  0.00000000000E+00  0.11819612928E+04  0.11819612928E+04  0.50400000000E-02 0. -1.
         -1   -1    0    0    0  501 -0.00000000000E+00 -0.00000000000E+00 -0.10391102525E+04  0.10391102526E+04  0.50400000000E-02 0.  1.
    8880022    1    1    2    0    0 -0.55925755070E+03 -0.10186501137E+03 -0.86948527635E+03  0.10500198986E+04  0.15294330000E+03 0.  0.
    8880022    1    1    2    0    0  0.55925755070E+03  0.10186501137E+03  0.10123363166E+04  0.11710516468E+04  0.15294330000E+03 0.  0.
<mgrwt>
<rscale>  0 0.58867405E+03</rscale>
<asrwt>0</asrwt>
<pdfrwt beam="1">  1        1 0.18184020E+00 0.58867405E+03</pdfrwt>
<pdfrwt beam="2">  1       -1 0.15986312E+00 0.58867405E+03</pdfrwt>
<totfact> 0.34642087E+00</totfact>
</mgrwt>
</event>
<event>
 4    1  0.2731969E-009  0.1550146E+04  0.7818608E-02  0.8851774E-01
          1   -1    0    0  501    0  0.00000000000E+00  0.00000000000E+00  0.21574569533E+04  0.21574569533E+04  0.50400000000E-02 0. -1.
         -1   -1    0    0    0  501 -0.00000000000E+00 -0.00000000000E+00 -0.18386017060E+04  0.18386017061E+04  0.50400000000E-02 0.  1.
    8880022    1    1    2    0    0  0.11944574976E+04  0.97613179580E+03 -0.10950724034E+04  0.18979297189E+04  0.15294330000E+03 0.  0.
    8880022    1    1    2    0    0 -0.11944574976E+04 -0.97613179580E+03  0.14139276506E+04  0.20981289404E+04  0.15294330000E+03 0.  0.
<mgrwt>
<rscale>  0 0.15501463E+04</rscale>
<asrwt>0</asrwt>
<pdfrwt beam="1">  1        1 0.33191646E+00 0.15501463E+04</pdfrwt>
<pdfrwt beam="2">  1       -1 0.28286180E+00 0.15501463E+04</pdfrwt>
<totfact> 0.93062257E-02</totfact>
</mgrwt>
</event>
<event>
 4    1  0.2731969E-009  0.1064187E+04  0.7818608E-02  0.9240819E-01
         -1   -1    0    0    0  501 -0.00000000000E+00  0.00000000000E+00  0.22321593298E+04  0.22321593298E+04  0.50400000000E-02 0.  1.
          1   -1    0    0  501    0  0.00000000000E+00 -0.00000000000E+00 -0.74471401089E+03  0.74471401091E+03  0.50400000000E-02 0. -1.
    8880022    1    1    2    0    0  0.42627934093E+03  0.96300964791E+03  0.15840336678E+04  0.19083123361E+04  0.15294330000E+03 0.  0.
    8880022    1    1    2    0    0 -0.42627934093E+03 -0.96300964791E+03 -0.96588348834E+02  0.10685610046E+04  0.15294330000E+03 0.  0.
<mgrwt>
<rscale>  0 0.10641867E+04</rscale>
<asrwt>0</asrwt>
<pdfrwt beam="1">  1        1 0.11457139E+00 0.10641867E+04</pdfrwt>
<pdfrwt beam="2">  1       -1 0.34340913E+00 0.10641867E+04</pdfrwt>
<totfact> 0.42953282E-01</totfact>
</mgrwt>
</event>
<event>
 4    1  0.2731969E-009  0.7594684E+03  0.7818608E-02  0.9620612E-01
          1   -1    0    0  501    0  0.00000000000E+00  0.00000000000E+00  0.25640616704E+04  0.25640616704E+04  0.50400000000E-02 0. -1.
         -1   -1    0    0    0  501 -0.00000000000E+00 -0.00000000000E+00 -0.79736483169E+03  0.79736483171E+03  0.50400000000E-02 0.  1.
    8880022    1    1    2    0    0  0.15606603042E+03 -0.72735409148E+03 -0.54068294293E+03  0.93227156882E+03  0.15294330000E+03 0.  0.
    8880022    1    1    2    0    0 -0.15606603042E+03  0.72735409148E+03  0.23073797816E+04  0.24291549333E+04  0.15294330000E+03 0.  0.
<mgrwt>
<rscale>  0 0.75946839E+03</rscale>
<asrwt>0</asrwt>
<pdfrwt beam="1">  1        1 0.39447103E+00 0.75946839E+03</pdfrwt>
<pdfrwt beam="2">  1       -1 0.12267151E+00 0.75946839E+03</pdfrwt>
<totfact> 0.76568161E-01</totfact>
</mgrwt>
</event>
<event>
 4    1  0.2731969E-009  0.9594550E+03  0.7818608E-02  0.9354167E-01
         -1   -1    0    0    0  501 -0.00000000000E+00  0.00000000000E+00  0.79767065938E+03  0.79767065939E+03  0.50400000000E-02 0.  1.
          1   -1    0    0  501    0  0.00000000000E+00 -0.00000000000E+00 -0.50214049920E+04  0.50214049920E+04  0.50400000000E-02 0. -1.
    8880022    1    1    2    0    0 -0.67660867664E+03  0.66284456820E+03 -0.46652636593E+04  0.47629023596E+04  0.15294330000E+03 0.  0.
    8880022    1    1    2    0    0  0.67660867664E+03 -0.66284456820E+03  0.44152932673E+03  0.10561732918E+04  0.15294330000E+03 0.  0.
<mgrwt>
<rscale>  0 0.95945499E+03</rscale>
<asrwt>0</asrwt>
<pdfrwt beam="1">  1        1 0.77252383E+00 0.95945499E+03</pdfrwt>
<pdfrwt beam="2">  1       -1 0.12271857E+00 0.95945499E+03</pdfrwt>
<totfact> 0.52857852E-03</totfact>
</mgrwt>
</event>
<event>
 4    1  0.2731969E-009  0.5764645E+03  0.7818608E-02  0.9955475E-01
         -1   -1    0    0    0  501 -0.00000000000E+00  0.00000000000E+00  0.15781414311E+04  0.15781414311E+04  0.50400000000E-02 0.  1.
          1   -1    0    0  501    0  0.00000000000E+00 -0.00000000000E+00 -0.69102988618E+03  0.69102988619E+03  0.50400000000E-02 0. -1.
    8880022    1    1    2    0    0  0.44245073351E+03 -0.33638810860E+03  0.13896118111E+04  0.15044375194E+04  0.15294330000E+03 0.  0.
    8880022    1    1    2    0    0 -0.44245073351E+03  0.33638810860E+03 -0.50250026616E+03  0.76473379793E+03  0.15294330000E+03 0.  0.
<mgrwt>
<rscale>  0 0.57646445E+03</rscale>
<asrwt>0</asrwt>
<pdfrwt beam="1">  1        1 0.10631229E+00 0.57646445E+03</pdfrwt>
<pdfrwt beam="2">  1       -1 0.24279099E+00 0.57646445E+03</pdfrwt>
<totfact> 0.23332174E+00</totfact>
</mgrwt>
</event>
<event>
 4    1  0.2731969E-009  0.6660670E+03  0.7818608E-02  0.9777089E-01
          1   -1    0    0  501    0  0.00000000000E+00  0.00000000000E+00  0.94797954178E+03  0.94797954179E+03  0.50400000000E-02 0. -1.
         -1   -1    0    0    0  501 -0.00000000000E+00 -0.00000000000E+00 -0.52471907302E+03  0.52471907304E+03  0.50400000000E-02 0.  1.
    8880022    1    1    2    0    0  0.64824981648E+03 -0.50810379388E+01 -0.30484874943E+02  0.66676429278E+03  0.15294330000E+03 0.  0.
    8880022    1    1    2    0    0 -0.64824981648E+03  0.50810379388E+01  0.45374534370E+03  0.80593432205E+03  0.15294330000E+03 0.  0.
<mgrwt>
<rscale>  0 0.66606703E+03</rscale>
<asrwt>0</asrwt>
<pdfrwt beam="1">  1        1 0.14584301E+00 0.66606703E+03</pdfrwt>
<pdfrwt beam="2">  1       -1 0.80726012E-01 0.66606703E+03</pdfrwt>
<totfact> 0.26415910E+01</totfact>
</mgrwt>
</event>
<event>
 4    1  0.2731969E-009  0.9328265E+03  0.7818608E-02  0.9385452E-01
         -1   -1    0    0    0  501 -0.00000000000E+00  0.00000000000E+00  0.55947512688E+03  0.55947512690E+03  0.50400000000E-02 0.  1.
          1   -1    0    0  501    0  0.00000000000E+00 -0.00000000000E+00 -0.16857365869E+04  0.16857365869E+04  0.50400000000E-02 0. -1.
    8880022    1    1    2    0    0  0.78184239328E+03 -0.48527944226E+03 -0.25088857881E+03  0.96597639567E+03  0.15294330000E+03 0.  0.
    8880022    1    1    2    0    0 -0.78184239328E+03  0.48527944226E+03 -0.87537288120E+03  0.12792353181E+04  0.15294330000E+03 0.  0.
<mgrwt>
<rscale>  0 0.93282652E+03</rscale>
<asrwt>0</asrwt>
<pdfrwt beam="1">  1        1 0.25934409E+00 0.93282652E+03</pdfrwt>
<pdfrwt beam="2">  1       -1 0.86073097E-01 0.93282652E+03</pdfrwt>
<totfact> 0.65974672E+00</totfact>
</mgrwt>
</event>
<event>
 4    1  0.2731969E-009  0.9745451E+03  0.7818608E-02  0.9336913E-01
         -1   -1    0    0    0  501 -0.00000000000E+00  0.00000000000E+00  0.76498396958E+03  0.76498396960E+03  0.50400000000E-02 0.  1.
          1   -1    0    0  501    0  0.00000000000E+00 -0.00000000000E+00 -0.14508383662E+04  0.14508383662E+04  0.50400000000E-02 0. -1.
    8880022    1    1    2    0    0  0.26496383112E+01 -0.96246526617E+03  0.77901792098E+02  0.97765369707E+03  0.15294330000E+03 0.  0.
    8880022    1    1    2    0    0 -0.26496383112E+01  0.96246526617E+03 -0.76375618875E+03  0.12381686388E+04  0.15294330000E+03 0.  0.
<mgrwt>
<rscale>  0 0.97454505E+03</rscale>
<asrwt>0</asrwt>
<pdfrwt beam="1">  1        1 0.22320590E+00 0.97454505E+03</pdfrwt>
<pdfrwt beam="2">  1       -1 0.11768984E+00 0.97454505E+03</pdfrwt>
<totfact> 0.46325945E+00</totfact>
</mgrwt>
</event>
<event>
 4    1  0.2731969E-009  0.1296167E+04  0.7818608E-02  0.9032610E-01
         -1   -1    0    0    0  501 -0.00000000000E+00  0.00000000000E+00  0.88404839623E+03  0.88404839624E+03  0.50400000000E-02 0.  1.
          1   -1    0    0  501    0  0.00000000000E+00 -0.00000000000E+00 -0.19379006354E+04  0.19379006354E+04  0.50400000000E-02 0. -1.
    8880022    1    1    2    0    0 -0.12860267247E+04  0.52843795218E+02 -0.72319489783E+03  0.14842707693E+04  0.15294330000E+03 0.  0.
    8880022    1    1    2    0    0  0.12860267247E+04 -0.52843795218E+02 -0.33065734136E+03  0.13376782624E+04  0.15294330000E+03 0.  0.
<mgrwt>
<rscale>  0 0.12961670E+04</rscale>
<asrwt>0</asrwt>
<pdfrwt beam="1">  1        1 0.29813856E+00 0.12961670E+04</pdfrwt>
<pdfrwt beam="2">  1       -1 0.13600745E+00 0.12961670E+04</pdfrwt>
<totfact> 0.14426351E+00</totfact>
</mgrwt>
</event>
<event>
 4    1  0.2731969E-009  0.4370442E+03  0.7818608E-02  0.1031658E+00
          1   -1    0    0  501    0  0.00000000000E+00  0.00000000000E+00  0.37138851902E+04  0.37138851902E+04  0.50400000000E-02 0. -1.
         -1   -1    0    0    0  501 -0.00000000000E+00 -0.00000000000E+00 -0.31502000225E+03  0.31502000229E+03  0.50400000000E-02 0.  1.
    8880022    1    1    2    0    0 -0.23149149832E+03  0.33767987522E+03 -0.14325574842E+03  0.45992377019E+03  0.15294330000E+03 0.  0.
    8880022    1    1    2    0    0  0.23149149832E+03 -0.33767987522E+03  0.35421209363E+04  0.35689814223E+04  0.15294330000E+03 0.  0.
<mgrwt>
<rscale>  0 0.43704424E+03</rscale>
<asrwt>0</asrwt>
<pdfrwt beam="1">  1        1 0.57136691E+00 0.43704424E+03</pdfrwt>
<pdfrwt beam="2">  1       -1 0.48464619E-01 0.43704424E+03</pdfrwt>
<totfact> 0.86699790E-01</totfact>
</mgrwt>
</event>
<event>
 4    1  0.2731969E-009  0.3335242E+03  0.7818608E-02  0.1069588E+00
         -1   -1    0    0    0  501 -0.00000000000E+00  0.00000000000E+00  0.54797485555E+03  0.54797485557E+03  0.50400000000E-02 0.  1.
          1   -1    0    0  501    0  0.00000000000E+00 -0.00000000000E+00 -0.93311050805E+03  0.93311050806E+03  0.50400000000E-02 0. -1.
    8880022    1    1    2    0    0  0.25184550400E+03 -0.15627080137E+03 -0.84762338585E+03  0.91088077074E+03  0.15294330000E+03 0. -1.
    8880022    1    1    2    0    0 -0.25184550400E+03  0.15627080137E+03  0.46248773335E+03  0.57020459290E+03  0.15294330000E+03 0.  0.
<mgrwt>
<rscale>  0 0.33352417E+03</rscale>
<asrwt>0</asrwt>
<pdfrwt beam="1">  1        1 0.14355546E+00 0.33352417E+03</pdfrwt>
<pdfrwt beam="2">  1       -1 0.84303824E-01 0.33352417E+03</pdfrwt>
<totfact> 0.26273881E+01</totfact>
</mgrwt>
</event>
<event>
 4    1  0.2731969E-009  0.1060512E+04  0.7818608E-02  0.9244558E-01
          1   -1    0    0  501    0  0.00000000000E+00  0.00000000000E+00  0.21082389378E+04  0.21082389379E+04  0.50400000000E-02 0. -1.
         -1   -1    0    0    0  501 -0.00000000000E+00 -0.00000000000E+00 -0.90027864791E+03  0.90027864793E+03  0.50400000000E-02 0.  1.
    8880022    1    1    2    0    0  0.92549305838E+02  0.10453369693E+04 -0.35619993769E+03  0.11187335706E+04  0.15294330000E+03 0.  0.
    8880022    1    1    2    0    0 -0.92549305838E+02 -0.10453369693E+04  0.15641602276E+04  0.18897840152E+04  0.15294330000E+03 0.  0.
<mgrwt>
<rscale>  0 0.10605123E+04</rscale>
<asrwt>0</asrwt>
<pdfrwt beam="1">  1        1 0.32434445E+00 0.10605123E+04</pdfrwt>
<pdfrwt beam="2">  1       -1 0.13850441E+00 0.10605123E+04</pdfrwt>
<totfact> 0.10879160E+00</totfact>
</mgrwt>
</event>
<event>
 4    1  0.2731969E-009  0.1214235E+04  0.7818608E-02  0.9100487E-01
          1   -1    0    0  501    0  0.00000000000E+00  0.00000000000E+00  0.91175721326E+03  0.91175721328E+03  0.50400000000E-02 0. -1.
         -1   -1    0    0    0  501 -0.00000000000E+00 -0.00000000000E+00 -0.21835420170E+04  0.21835420170E+04  0.50400000000E-02 0.  1.
    8880022    1    1    2    0    0  0.22345570428E+03 -0.11836562653E+04 -0.14241803239E+04  0.18715383656E+04  0.15294330000E+03 0.  0.
    8880022    1    1    2    0    0 -0.22345570428E+03  0.11836562653E+04  0.15239552016E+03  0.12237608646E+04  0.15294330000E+03 0.  0.
<mgrwt>
<rscale>  0 0.12142348E+04</rscale>
<asrwt>0</asrwt>
<pdfrwt beam="1">  1        1 0.14027034E+00 0.12142348E+04</pdfrwt>
<pdfrwt beam="2">  1       -1 0.33592954E+00 0.12142348E+04</pdfrwt>
<totfact> 0.33800805E-01</totfact>
</mgrwt>
</event>
<event>
 4    1  0.2731969E-009  0.2454571E+03  0.7818608E-02  0.1116210E+00
         -1   -1    0    0    0  501 -0.00000000000E+00  0.00000000000E+00  0.10326337808E+03  0.10326337820E+03  0.50400000000E-02 0.  1.
          1   -1    0    0  501    0  0.00000000000E+00 -0.00000000000E+00 -0.59773405286E+03  0.59773405289E+03  0.50400000000E-02 0. -1.
    8880022    1    1    2    0    0 -0.16425202313E+03  0.99392232085E+02 -0.30141445909E+03  0.38871566995E+03  0.15294330000E+03 0.  0.
    8880022    1    1    2    0    0  0.16425202313E+03 -0.99392232085E+02 -0.19305621570E+03  0.31228176114E+03  0.15294330000E+03 0. -1.
<mgrwt>
<rscale>  0 0.24545712E+03</rscale>
<asrwt>0</asrwt>
<pdfrwt beam="1">  1        1 0.91959082E-01 0.24545712E+03</pdfrwt>
<pdfrwt beam="2">  1       -1 0.15886674E-01 0.24545712E+03</pdfrwt>
<totfact> 0.10378858E+03</totfact>
</mgrwt>
</event>
<event>
 4    1  0.2731969E-009  0.6300082E+03  0.7818608E-02  0.9845033E-01
         -1   -1    0    0    0  501 -0.00000000000E+00  0.00000000000E+00  0.24887425863E+03  0.24887425868E+03  0.50400000000E-02 0.  1.
          1   -1    0    0  501    0  0.00000000000E+00 -0.00000000000E+00 -0.25956868057E+04  0.25956868057E+04  0.50400000000E-02 0. -1.
    8880022    1    1    2    0    0  0.10854776371E+03  0.60144501092E+03 -0.29023155042E+03  0.69364596448E+03  0.15294330000E+03 0.  0.
    8880022    1    1    2    0    0 -0.10854776371E+03 -0.60144501092E+03 -0.20565809967E+04  0.21509150999E+04  0.15294330000E+03 0.  0.
<mgrwt>
<rscale>  0 0.63000823E+03</rscale>
<asrwt>0</asrwt>
<pdfrwt beam="1">  1        1 0.39933641E+00 0.63000823E+03</pdfrwt>
<pdfrwt beam="2">  1       -1 0.38288349E-01 0.63000823E+03</pdfrwt>
<totfact> 0.82829187E+00</totfact>
</mgrwt>
</event>
<event>
 4    1  0.2731969E-009  0.8257428E+03  0.7818608E-02  0.9523485E-01
          1   -1    0    0  501    0  0.00000000000E+00  0.00000000000E+00  0.16436014706E+04  0.16436014706E+04  0.50400000000E-02 0. -1.
         -1   -1    0    0    0  501 -0.00000000000E+00 -0.00000000000E+00 -0.43117686441E+03  0.43117686444E+03  0.50400000000E-02 0.  1.
    8880022    1    1    2    0    0 -0.78606467933E+03  0.20139957562E+03  0.80806784541E+03  0.11553461667E+04  0.15294330000E+03 0.  0.
    8880022    1    1    2    0    0  0.78606467933E+03 -0.20139957562E+03  0.40435676078E+03  0.91943216832E+03  0.15294330000E+03 0.  0.
<mgrwt>
<rscale>  0 0.82574277E+03</rscale>
<asrwt>0</asrwt>
<pdfrwt beam="1">  1        1 0.25286176E+00 0.82574277E+03</pdfrwt>
<pdfrwt beam="2">  1       -1 0.66334902E-01 0.82574277E+03</pdfrwt>
<totfact> 0.12335611E+01</totfact>
</mgrwt>
</event>
<event>
 4    1  0.2731969E-009  0.1073684E+04  0.7818608E-02  0.9231228E-01
         -1   -1    0    0    0  501 -0.00000000000E+00  0.00000000000E+00  0.12287644374E+04  0.12287644374E+04  0.50400000000E-02 0.  1.
          1   -1    0    0  501    0  0.00000000000E+00 -0.00000000000E+00 -0.13768144312E+04  0.13768144312E+04  0.50400000000E-02 0. -1.
    8880022    1    1    2    0    0 -0.84308734167E+03  0.64700057582E+03 -0.80936758323E+03  0.13445718830E+04  0.15294330000E+03 0.  0.
    8880022    1    1    2    0    0  0.84308734167E+03 -0.64700057582E+03  0.66131758938E+03  0.12610069856E+04  0.15294330000E+03 0.  0.
<mgrwt>
<rscale>  0 0.10736842E+04</rscale>
<asrwt>0</asrwt>
<pdfrwt beam="1">  1        1 0.21181760E+00 0.10736842E+04</pdfrwt>
<pdfrwt beam="2">  1       -1 0.18904068E+00 0.10736842E+04</pdfrwt>
<totfact> 0.14251787E+00</totfact>
</mgrwt>
</event>
<event>
 4    1  0.2731969E-009  0.8499733E+03  0.7818608E-02  0.9490373E-01
          1   -1    0    0  501    0  0.00000000000E+00  0.00000000000E+00  0.12639391789E+04  0.12639391789E+04  0.50400000000E-02 0. -1.
         -1   -1    0    0    0  501 -0.00000000000E+00 -0.00000000000E+00 -0.20602234742E+04  0.20602234742E+04  0.50400000000E-02 0.  1.
    8880022    1    1    2    0    0  0.66768336584E+02 -0.83342963115E+03  0.10146850246E+04  0.13236465967E+04  0.15294330000E+03 0.  0.
    8880022    1    1    2    0    0 -0.66768336584E+02  0.83342963115E+03 -0.18109693199E+04  0.20005160563E+04  0.15294330000E+03 0.  0.
<mgrwt>
<rscale>  0 0.84997330E+03</rscale>
<asrwt>0</asrwt>
<pdfrwt beam="1">  1        1 0.19445218E+00 0.84997330E+03</pdfrwt>
<pdfrwt beam="2">  1       -1 0.31695746E+00 0.84997330E+03</pdfrwt>
<totfact> 0.25763058E-01</totfact>
</mgrwt>
</event>
<event>
 4    1  0.2731969E-009  0.1074409E+04  0.7818608E-02  0.9230500E-01
          1   -1    0    0  501    0  0.00000000000E+00  0.00000000000E+00  0.36167426878E+04  0.36167426878E+04  0.50400000000E-02 0. -1.
         -1   -1    0    0    0  501 -0.00000000000E+00 -0.00000000000E+00 -0.45692442958E+03  0.45692442960E+03  0.50400000000E-02 0.  1.
    8880022    1    1    2    0    0 -0.10423298096E+04 -0.21097692389E+03  0.26982823418E+04  0.29043212535E+04  0.15294330000E+03 0.  0.
    8880022    1    1    2    0    0  0.10423298096E+04  0.21097692389E+03  0.46153591640E+03  0.11693458639E+04  0.15294330000E+03 0.  0.
<mgrwt>
<rscale>  0 0.10744088E+04</rscale>
<asrwt>0</asrwt>
<pdfrwt beam="1">  1        1 0.55642196E+00 0.10744088E+04</pdfrwt>
<pdfrwt beam="2">  1       -1 0.70296065E-01 0.10744088E+04</pdfrwt>
<totfact> 0.42464212E-01</totfact>
</mgrwt>
</event>
<event>
 4    1  0.2731969E-009  0.1368777E+04  0.7818608E-02  0.8976734E-01
         -1   -1    0    0    0  501 -0.00000000000E+00  0.00000000000E+00  0.17278647611E+04  0.17278647611E+04  0.50400000000E-02 0.  1.
          1   -1    0    0  501    0  0.00000000000E+00 -0.00000000000E+00 -0.20057069470E+04  0.20057069470E+04  0.50400000000E-02 0. -1.
    8880022    1    1    2    0    0 -0.41295822604E+03  0.12960036105E+04  0.11263474725E+04  0.17726280311E+04  0.15294330000E+03 0.  0.
    8880022    1    1    2    0    0  0.41295822604E+03 -0.12960036105E+04 -0.14041896584E+04  0.19609436771E+04  0.15294330000E+03 0.  0.
<mgrwt>
<rscale>  0 0.13687774E+04</rscale>
<asrwt>0</asrwt>
<pdfrwt beam="1">  1        1 0.30857030E+00 0.13687774E+04</pdfrwt>
<pdfrwt beam="2">  1       -1 0.26582535E+00 0.13687774E+04</pdfrwt>
<totfact> 0.15586762E-01</totfact>
</mgrwt>
</event>
<event>
 4    1  0.2731969E-009  0.1761744E+04  0.7818608E-02  0.8726912E-01
          1   -1    0    0  501    0  0.00000000000E+00  0.00000000000E+00  0.16239297084E+04  0.16239297084E+04  0.50400000000E-02 0. -1.
         -1   -1    0    0    0  501 -0.00000000000E+00 -0.00000000000E+00 -0.22019739608E+04  0.22019739608E+04  0.50400000000E-02 0.  1.
    8880022    1    1    2    0    0 -0.17416382588E+04  0.21690046289E+03 -0.98410368792E+03  0.20179696125E+04  0.15294330000E+03 0.  0.
    8880022    1    1    2    0    0  0.17416382588E+04 -0.21690046289E+03  0.40605943555E+03  0.18079340567E+04  0.15294330000E+03 0.  0.
<mgrwt>
<rscale>  0 0.17617438E+04</rscale>
<asrwt>0</asrwt>
<pdfrwt beam="1">  1        1 0.24983534E+00 0.17617438E+04</pdfrwt>
<pdfrwt beam="2">  1       -1 0.33876523E+00 0.17617438E+04</pdfrwt>
<totfact> 0.90827415E-02</totfact>
</mgrwt>
</event>
<event>
 4    1  0.2731969E-009  0.5577655E+03  0.7818608E-02  0.9997123E-01
         -1   -1    0    0    0  501 -0.00000000000E+00  0.00000000000E+00  0.30623926791E+04  0.30623926791E+04  0.50400000000E-02 0.  1.
          1   -1    0    0  501    0  0.00000000000E+00 -0.00000000000E+00 -0.87259246341E+03  0.87259246343E+03  0.50400000000E-02 0. -1.
    8880022    1    1    2    0    0 -0.38262665766E+03 -0.37590891878E+03  0.29443212598E+04  0.29966865049E+04  0.15294330000E+03 0.  0.
    8880022    1    1    2    0    0  0.38262665766E+03  0.37590891878E+03 -0.75452104414E+03  0.93829863766E+03  0.15294330000E+03 0.  0.
<mgrwt>
<rscale>  0 0.55776548E+03</rscale>
<asrwt>0</asrwt>
<pdfrwt beam="1">  1        1 0.13424499E+00 0.55776548E+03</pdfrwt>
<pdfrwt beam="2">  1       -1 0.47113735E+00 0.55776548E+03</pdfrwt>
<totfact> 0.50911366E-02</totfact>
</mgrwt>
</event>
<event>
 4    1  0.2731969E-009  0.1395566E+04  0.7818608E-02  0.8957034E-01
          1   -1    0    0  501    0  0.00000000000E+00  0.00000000000E+00  0.27892105785E+04  0.27892105785E+04  0.50400000000E-02 0. -1.
         -1   -1    0    0    0  501 -0.00000000000E+00 -0.00000000000E+00 -0.75263495397E+03  0.75263495399E+03  0.50400000000E-02 0.  1.
    8880022    1    1    2    0    0 -0.47206121387E+03 -0.13043664587E+04  0.54230534638E+03  0.14972309073E+04  0.15294330000E+03 0.  0.
    8880022    1    1    2    0    0  0.47206121387E+03  0.13043664587E+04  0.14942702781E+04  0.20446146251E+04  0.15294330000E+03 0.  0.
<mgrwt>
<rscale>  0 0.13955663E+04</rscale>
<asrwt>0</asrwt>
<pdfrwt beam="1">  1        1 0.42910932E+00 0.13955663E+04</pdfrwt>
<pdfrwt beam="2">  1       -1 0.11578999E+00 0.13955663E+04</pdfrwt>
<totfact> 0.55392665E-01</totfact>
</mgrwt>
</event>
<event>
 4    1  0.2731969E-009  0.2160673E+03  0.7818608E-02  0.1136849E+00
         -1   -1    0    0    0  501 -0.00000000000E+00  0.00000000000E+00  0.94687961768E+02  0.94687961902E+02  0.50400000000E-02 0.  1.
          1   -1    0    0  501    0  0.00000000000E+00 -0.00000000000E+00 -0.19176368851E+04  0.19176368851E+04  0.50400000000E-02 0. -1.
    8880022    1    1    2    0    0 -0.12012585278E+03 -0.94144549979E+02 -0.17786973137E+04  0.17917726429E+04  0.15294330000E+03 0.  0.
    8880022    1    1    2    0    0  0.12012585278E+03  0.94144549979E+02 -0.44251609625E+02  0.22055220418E+03  0.15294330000E+03 0.  0.
<mgrwt>
<rscale>  0 0.21606728E+03</rscale>
<asrwt>0</asrwt>
<pdfrwt beam="1">  1        1 0.29502103E+00 0.21606728E+03</pdfrwt>
<pdfrwt beam="2">  1       -1 0.14567380E-01 0.21606728E+03</pdfrwt>
<totfact> 0.13122795E+02</totfact>
</mgrwt>
</event>
<event>
 4    1  0.2731969E-009  0.1088374E+04  0.7818608E-02  0.9216598E-01
         -1   -1    0    0    0  501 -0.00000000000E+00  0.00000000000E+00  0.93287139807E+03  0.93287139809E+03  0.50400000000E-02 0.  1.
          1   -1    0    0  501    0  0.00000000000E+00 -0.00000000000E+00 -0.12891192359E+04  0.12891192360E+04  0.50400000000E-02 0. -1.
    8880022    1    1    2    0    0 -0.68251932955E+03 -0.83386628675E+03 -0.42106434258E+02  0.10891878737E+04  0.15294330000E+03 0.  0.
    8880022    1    1    2    0    0  0.68251932955E+03  0.83386628675E+03 -0.31414140361E+03  0.11328027603E+04  0.15294330000E+03 0.  0.
<mgrwt>
<rscale>  0 0.10883737E+04</rscale>
<asrwt>0</asrwt>
<pdfrwt beam="1">  1        1 0.19832604E+00 0.10883737E+04</pdfrwt>
<pdfrwt beam="2">  1       -1 0.14351868E+00 0.10883737E+04</pdfrwt>
<totfact> 0.35919129E+00</totfact>
</mgrwt>
</event>
<event>
 4    1  0.2731969E-009  0.7937545E+03  0.7818608E-02  0.9569101E-01
          1   -1    0    0  501    0  0.00000000000E+00  0.00000000000E+00  0.14398422425E+04  0.14398422425E+04  0.50400000000E-02 0. -1.
         -1   -1    0    0    0  501 -0.00000000000E+00 -0.00000000000E+00 -0.54925066350E+03  0.54925066353E+03  0.50400000000E-02 0.  1.
    8880022    1    1    2    0    0  0.74681655349E+03 -0.22117771034E+03 -0.31493149908E+01  0.79376074186E+03  0.15294330000E+03 0.  0.
    8880022    1    1    2    0    0 -0.74681655349E+03  0.22117771034E+03  0.89374089399E+03  0.11953321642E+04  0.15294330000E+03 0.  0.
<mgrwt>
<rscale>  0 0.79375449E+03</rscale>
<asrwt>0</asrwt>
<pdfrwt beam="1">  1        1 0.22151419E+00 0.79375449E+03</pdfrwt>
<pdfrwt beam="2">  1       -1 0.84500104E-01 0.79375449E+03</pdfrwt>
<totfact> 0.10300051E+01</totfact>
</mgrwt>
</event>
<event>
 4    1  0.2731969E-009  0.6073865E+03  0.7818608E-02  0.9890199E-01
         -1   -1    0    0    0  501 -0.00000000000E+00  0.00000000000E+00  0.62508981571E+03  0.62508981573E+03  0.50400000000E-02 0.  1.
          1   -1    0    0  501    0  0.00000000000E+00 -0.00000000000E+00 -0.24962609343E+04  0.24962609343E+04  0.50400000000E-02 0. -1.
    8880022    1    1    2    0    0  0.56788634118E+03  0.15176250913E+03  0.42817374862E+03  0.74313603579E+03  0.15294330000E+03 0.  0.
    8880022    1    1    2    0    0 -0.56788634118E+03 -0.15176250913E+03 -0.22993448672E+04  0.23782147142E+04  0.15294330000E+03 0.  0.
<mgrwt>
<rscale>  0 0.60738654E+03</rscale>
<asrwt>0</asrwt>
<pdfrwt beam="1">  1        1 0.38404014E+00 0.60738654E+03</pdfrwt>
<pdfrwt beam="2">  1       -1 0.96167665E-01 0.60738654E+03</pdfrwt>
<totfact> 0.15640967E+00</totfact>
</mgrwt>
</event>
<event>
 4    1  0.2731969E-009  0.1078844E+04  0.7818608E-02  0.9226061E-01
          1   -1    0    0  501    0  0.00000000000E+00  0.00000000000E+00  0.24300724909E+04  0.24300724909E+04  0.50400000000E-02 0. -1.
         -1   -1    0    0    0  501 -0.00000000000E+00 -0.00000000000E+00 -0.66783722313E+03  0.66783722315E+03  0.50400000000E-02 0.  1.
    8880022    1    1    2    0    0 -0.71781086936E+03  0.79073420917E+03  0.57369231867E+02  0.10803684166E+04  0.15294330000E+03 0.  0.
    8880022    1    1    2    0    0  0.71781086936E+03 -0.79073420917E+03  0.17048660359E+04  0.20175412975E+04  0.15294330000E+03 0.  0.
<mgrwt>
<rscale>  0 0.10788441E+04</rscale>
<asrwt>0</asrwt>
<pdfrwt beam="1">  1        1 0.37385731E+00 0.10788441E+04</pdfrwt>
<pdfrwt beam="2">  1       -1 0.10274419E+00 0.10788441E+04</pdfrwt>
<totfact> 0.13637380E+00</totfact>
</mgrwt>
</event>
<event>
 4    1  0.2731969E-009  0.2622481E+03  0.7818608E-02  0.1105800E+00
          1   -1    0    0  501    0  0.00000000000E+00  0.00000000000E+00  0.28287696621E+04  0.28287696621E+04  0.50400000000E-02 0. -1.
         -1   -1    0    0    0  501 -0.00000000000E+00 -0.00000000000E+00 -0.91123606516E+02  0.91123606656E+02  0.50400000000E-02 0.  1.
    8880022    1    1    2    0    0 -0.18016992601E+03 -0.11367145750E+03  0.26189275640E+04  0.26320250077E+04  0.15294330000E+03 0. -1.
    8880022    1    1    2    0    0  0.18016992601E+03  0.11367145750E+03  0.11871849159E+03  0.28786826110E+03  0.15294330000E+03 0.  0.
<mgrwt>
<rscale>  0 0.26224808E+03</rscale>
<asrwt>0</asrwt>
<pdfrwt beam="1">  1        1 0.43519530E+00 0.26224808E+03</pdfrwt>
<pdfrwt beam="2">  1       -1 0.14019017E-01 0.26224808E+03</pdfrwt>
<totfact> 0.34337339E+01</totfact>
</mgrwt>
</event>
<event>
 4    1  0.2731969E-009  0.6402711E+03  0.7818608E-02  0.9825208E-01
         -1   -1    0    0    0  501 -0.00000000000E+00  0.00000000000E+00  0.94360587132E+03  0.94360587134E+03  0.50400000000E-02 0.  1.
          1   -1    0    0  501    0  0.00000000000E+00 -0.00000000000E+00 -0.72987238664E+03  0.72987238665E+03  0.50400000000E-02 0. -1.
    8880022    1    1    2    0    0 -0.60595301904E+03 -0.13919899201E+03  0.63920816196E+03  0.90472877040E+03  0.15294330000E+03 0.  0.
    8880022    1    1    2    0    0  0.60595301904E+03  0.13919899201E+03 -0.42547467728E+03  0.76874948759E+03  0.15294330000E+03 0.  0.
<mgrwt>
<rscale>  0 0.64027109E+03</rscale>
<asrwt>0</asrwt>
<pdfrwt beam="1">  1        1 0.11228806E+00 0.64027109E+03</pdfrwt>
<pdfrwt beam="2">  1       -1 0.14517013E+00 0.64027109E+03</pdfrwt>
<totfact> 0.10189864E+01</totfact>
</mgrwt>
</event>
<event>
 4    1  0.2731969E-009  0.1008328E+04  0.7818608E-02  0.9299458E-01
         -1   -1    0    0    0  501 -0.00000000000E+00  0.00000000000E+00  0.19281389853E+04  0.19281389853E+04  0.50400000000E-02 0.  1.
          1   -1    0    0  501    0  0.00000000000E+00 -0.00000000000E+00 -0.57736110908E+03  0.57736110910E+03  0.50400000000E-02 0. -1.
    8880022    1    1    2    0    0 -0.97068767738E+03 -0.22605179780E+03  0.30653831906E+03  0.10538934369E+04  0.15294330000E+03 0.  0.
    8880022    1    1    2    0    0  0.97068767738E+03  0.22605179780E+03  0.10442395571E+04  0.14516066575E+04  0.15294330000E+03 0.  0.
<mgrwt>
<rscale>  0 0.10083281E+04</rscale>
<asrwt>0</asrwt>
<pdfrwt beam="1">  1        1 0.88824785E-01 0.10083281E+04</pdfrwt>
<pdfrwt beam="2">  1       -1 0.29663677E+00 0.10083281E+04</pdfrwt>
<totfact> 0.12728940E+00</totfact>
</mgrwt>
</event>
<event>
 4    1  0.2731969E-009  0.8798203E+03  0.7818608E-02  0.9451165E-01
         -1   -1    0    0    0  501 -0.00000000000E+00  0.00000000000E+00  0.13158551934E+04  0.13158551934E+04  0.50400000000E-02 0.  1.
          1   -1    0    0  501    0  0.00000000000E+00 -0.00000000000E+00 -0.18929416566E+04  0.18929416566E+04  0.50400000000E-02 0. -1.
    8880022    1    1    2    0    0 -0.84304256817E+03 -0.19992810829E+03  0.10434239549E+04  0.13648506230E+04  0.15294330000E+03 0.  0.
    8880022    1    1    2    0    0  0.84304256817E+03  0.19992810829E+03 -0.16205104181E+04  0.18439462271E+04  0.15294330000E+03 0.  0.
<mgrwt>
<rscale>  0 0.87982025E+03</rscale>
<asrwt>0</asrwt>
<pdfrwt beam="1">  1        1 0.29122179E+00 0.87982025E+03</pdfrwt>
<pdfrwt beam="2">  1       -1 0.20243926E+00 0.87982025E+03</pdfrwt>
<totfact> 0.52724256E-01</totfact>
</mgrwt>
</event>
<event>
 4    1  0.2731969E-009  0.3394880E+03  0.7818608E-02  0.1067014E+00
         -1   -1    0    0    0  501 -0.00000000000E+00  0.00000000000E+00  0.40159346996E+03  0.40159346999E+03  0.50400000000E-02 0.  1.
          1   -1    0    0  501    0  0.00000000000E+00 -0.00000000000E+00 -0.11499374772E+04  0.11499374772E+04  0.50400000000E-02 0. -1.
    8880022    1    1    2    0    0 -0.28315777021E+03 -0.10808397538E+03  0.29785428011E+03  0.45162959797E+03  0.15294330000E+03 0.  0.
    8880022    1    1    2    0    0  0.28315777021E+03  0.10808397538E+03 -0.10461982874E+04  0.10999013493E+04  0.15294330000E+03 0.  0.
<mgrwt>
<rscale>  0 0.33948803E+03</rscale>
<asrwt>0</asrwt>
<pdfrwt beam="1">  1        1 0.17691346E+00 0.33948803E+03</pdfrwt>
<pdfrwt beam="2">  1       -1 0.61783611E-01 0.33948803E+03</pdfrwt>
<totfact> 0.34013514E+01</totfact>
</mgrwt>
</event>
<event>
 4    1  0.2731969E-009  0.8320353E+03  0.7818608E-02  0.9514771E-01
         -1   -1    0    0    0  501 -0.00000000000E+00  0.00000000000E+00  0.89807643823E+03  0.89807643825E+03  0.50400000000E-02 0.  1.
          1   -1    0    0  501    0  0.00000000000E+00 -0.00000000000E+00 -0.97248533372E+03  0.97248533373E+03  0.50400000000E-02 0. -1.
    8880022    1    1    2    0    0  0.43947721338E+03 -0.68974694248E+03  0.38867163700E+03  0.91834000248E+03  0.15294330000E+03 0.  0.
    8880022    1    1    2    0    0 -0.43947721338E+03  0.68974694248E+03 -0.46308053249E+03  0.95222176950E+03  0.15294330000E+03 0.  0.
<mgrwt>
<rscale>  0 0.83203529E+03</rscale>
<asrwt>0</asrwt>
<pdfrwt beam="1">  1        1 0.14961313E+00 0.83203529E+03</pdfrwt>
<pdfrwt beam="2">  1       -1 0.13816561E+00 0.83203529E+03</pdfrwt>
<totfact> 0.70561562E+00</totfact>
</mgrwt>
</event>
<event>
 4    1  0.7878701E-009  0.1150565E+04  0.7818608E-02  0.9157262E-01
         -1   -1    0    0    0  501 -0.00000000000E+00  0.00000000000E+00  0.18491615336E+04  0.18491615336E+04  0.50400000000E-02 0.  1.
          1   -1    0    0  501    0  0.00000000000E+00 -0.00000000000E+00 -0.28814939096E+04  0.28814939096E+04  0.50400000000E-02 0. -1.
    8880022    1    1    2    0    0 -0.70826163849E+03  0.89374159079E+03 -0.25667228112E+04  0.28128039786E+04  0.15294330000E+03 0.  0.
    8880022    1    1    2    0    0  0.70826163849E+03 -0.89374159079E+03  0.15343904352E+04  0.19178514646E+04  0.15294330000E+03 0.  0.
<mgrwt>
<rscale>  0 0.11505652E+04</rscale>
<asrwt>0</asrwt>
<pdfrwt beam="1">  1        1 0.44330676E+00 0.11505652E+04</pdfrwt>
<pdfrwt beam="2">  1       -1 0.28448639E+00 0.11505652E+04</pdfrwt>
<totfact> 0.30408460E-02</totfact>
</mgrwt>
</event>
<event>
 4    1  0.2731969E-009  0.4104213E+03  0.7818608E-02  0.1040230E+00
         -1   -1    0    0    0  501 -0.00000000000E+00  0.00000000000E+00  0.63631202425E+03  0.63631202427E+03  0.50400000000E-02 0.  1.
          1   -1    0    0  501    0  0.00000000000E+00 -0.00000000000E+00 -0.90385806085E+03  0.90385806087E+03  0.50400000000E-02 0. -1.
    8880022    1    1    2    0    0  0.37639807680E+03  0.58124766583E+02  0.51379487018E+03  0.65759472500E+03  0.15294330000E+03 0.  0.
    8880022    1    1    2    0    0 -0.37639807680E+03 -0.58124766583E+02 -0.78134090677E+03  0.88257536014E+03  0.15294330000E+03 0.  0.
<mgrwt>
<rscale>  0 0.41042131E+03</rscale>
<asrwt>0</asrwt>
<pdfrwt beam="1">  1        1 0.13905509E+00 0.41042131E+03</pdfrwt>
<pdfrwt beam="2">  1       -1 0.97894158E-01 0.41042131E+03</pdfrwt>
<totfact> 0.19641918E+01</totfact>
</mgrwt>
</event>
<event>
 4    1  0.2731969E-009  0.4105637E+03  0.7818608E-02  0.1040182E+00
          1   -1    0    0  501    0  0.00000000000E+00  0.00000000000E+00  0.99754349716E+03  0.99754349717E+03  0.50400000000E-02 0. -1.
         -1   -1    0    0    0  501 -0.00000000000E+00 -0.00000000000E+00 -0.93655808159E+03  0.93655808160E+03  0.50400000000E-02 0.  1.
    8880022    1    1    2    0    0  0.15051293934E+02 -0.38071555271E+03 -0.84498255941E+03  0.93944560898E+03  0.15294330000E+03 0.  1.
    8880022    1    1    2    0    0 -0.15051293934E+02  0.38071555271E+03  0.90596797498E+03  0.99465596978E+03  0.15294330000E+03 0.  0.
<mgrwt>
<rscale>  0 0.41056367E+03</rscale>
<asrwt>0</asrwt>
<pdfrwt beam="1">  1        1 0.15346823E+00 0.41056367E+03</pdfrwt>
<pdfrwt beam="2">  1       -1 0.14408586E+00 0.41056367E+03</pdfrwt>
<totfact> 0.65508920E+00</totfact>
</mgrwt>
</event>
<event>
 4    1  0.2731969E-009  0.1694661E+04  0.7818608E-02  0.8764415E-01
         -1   -1    0    0    0  501 -0.00000000000E+00  0.00000000000E+00  0.23871608128E+04  0.23871608128E+04  0.50400000000E-02 0.  1.
          1   -1    0    0  501    0  0.00000000000E+00 -0.00000000000E+00 -0.13449147397E+04  0.13449147397E+04  0.50400000000E-02 0. -1.
    8880022    1    1    2    0    0 -0.39299498037E+03 -0.16413528792E+04 -0.84927581867E+02  0.16967877522E+04  0.15294330000E+03 0.  0.
    8880022    1    1    2    0    0  0.39299498037E+03  0.16413528792E+04  0.11271736550E+04  0.20352878003E+04  0.15294330000E+03 0.  0.
<mgrwt>
<rscale>  0 0.16946610E+04</rscale>
<asrwt>0</asrwt>
<pdfrwt beam="1">  1        1 0.20690996E+00 0.16946610E+04</pdfrwt>
<pdfrwt beam="2">  1       -1 0.36725551E+00 0.16946610E+04</pdfrwt>
<totfact> 0.92846187E-02</totfact>
</mgrwt>
</event>
<event>
 4    1  0.2731969E-009  0.9178744E+03  0.7818608E-02  0.9403509E-01
         -1   -1    0    0    0  501 -0.00000000000E+00  0.00000000000E+00  0.10291751564E+04  0.10291751564E+04  0.50400000000E-02 0.  1.
          1   -1    0    0  501    0  0.00000000000E+00 -0.00000000000E+00 -0.25003961908E+04  0.25003961908E+04  0.50400000000E-02 0. -1.
    8880022    1    1    2    0    0 -0.88587487426E+03  0.18527658049E+03  0.71173730132E+03  0.11614918610E+04  0.15294330000E+03 0.  0.
    8880022    1    1    2    0    0  0.88587487426E+03 -0.18527658049E+03 -0.21829583358E+04  0.23680794862E+04  0.15294330000E+03 0.  0.
<mgrwt>
<rscale>  0 0.91787437E+03</rscale>
<asrwt>0</asrwt>
<pdfrwt beam="1">  1        1 0.38467634E+00 0.91787437E+03</pdfrwt>
<pdfrwt beam="2">  1       -1 0.15833464E+00 0.91787437E+03</pdfrwt>
<totfact> 0.42135229E-01</totfact>
</mgrwt>
</event>
<event>
 4    1  0.2731969E-009  0.2723233E+03  0.7818608E-02  0.1099957E+00
         -1   -1    0    0    0  501 -0.00000000000E+00  0.00000000000E+00  0.74103669171E+03  0.74103669172E+03  0.50400000000E-02 0.  1.
          1   -1    0    0  501    0  0.00000000000E+00 -0.00000000000E+00 -0.80868328896E+03  0.80868328898E+03  0.50400000000E-02 0. -1.
    8880022    1    1    2    0    0 -0.20787965620E+03  0.86916009304E+02  0.69150864849E+03  0.74319863300E+03  0.15294330000E+03 0.  1.
    8880022    1    1    2    0    0  0.20787965620E+03 -0.86916009304E+02 -0.75915524575E+03  0.80652134770E+03  0.15294330000E+03 0.  0.
<mgrwt>
<rscale>  0 0.27232333E+03</rscale>
<asrwt>0</asrwt>
<pdfrwt beam="1">  1        1 0.12441281E+00 0.27232333E+03</pdfrwt>
<pdfrwt beam="2">  1       -1 0.11400565E+00 0.27232333E+03</pdfrwt>
<totfact> 0.17218329E+01</totfact>
</mgrwt>
</event>
<event>
 4    1  0.2731969E-009  0.1151839E+04  0.7818608E-02  0.9156088E-01
          1   -1    0    0  501    0  0.00000000000E+00  0.00000000000E+00  0.25853934784E+04  0.25853934784E+04  0.50400000000E-02 0. -1.
         -1   -1    0    0    0  501 -0.00000000000E+00 -0.00000000000E+00 -0.58557784224E+03  0.58557784226E+03  0.50400000000E-02 0.  1.
    8880022    1    1    2    0    0 -0.99468004928E+03 -0.56031558408E+03  0.15574498444E+04  0.19371070246E+04  0.15294330000E+03 0.  0.
    8880022    1    1    2    0    0  0.99468004928E+03  0.56031558408E+03  0.44236579178E+03  0.12338642960E+04  0.15294330000E+03 0.  0.
<mgrwt>
<rscale>  0 0.11518392E+04</rscale>
<asrwt>0</asrwt>
<pdfrwt beam="1">  1        1 0.39775284E+00 0.11518392E+04</pdfrwt>
<pdfrwt beam="2">  1       -1 0.90088900E-01 0.11518392E+04</pdfrwt>
<totfact> 0.14213048E+00</totfact>
</mgrwt>
</event>
<event>
 4    1  0.2731969E-009  0.3966935E+03  0.7818608E-02  0.1044931E+00
         -1   -1    0    0    0  501 -0.00000000000E+00  0.00000000000E+00  0.25741613122E+03  0.25741613127E+03  0.50400000000E-02 0.  1.
          1   -1    0    0  501    0  0.00000000000E+00 -0.00000000000E+00 -0.15641504497E+04  0.15641504497E+04  0.50400000000E-02 0. -1.
    8880022    1    1    2    0    0 -0.10811127872E+03  0.34969415352E+03 -0.13642233837E+04  0.14207290886E+04  0.15294330000E+03 0. -1.
    8880022    1    1    2    0    0  0.10811127872E+03 -0.34969415352E+03  0.57489065283E+02  0.40083749230E+03  0.15294330000E+03 0.  0.
<mgrwt>
<rscale>  0 0.39669346E+03</rscale>
<asrwt>0</asrwt>
<pdfrwt beam="1">  1        1 0.24063853E+00 0.39669346E+03</pdfrwt>
<pdfrwt beam="2">  1       -1 0.39602483E-01 0.39669346E+03</pdfrwt>
<totfact> 0.39967361E+01</totfact>
</mgrwt>
</event>
<event>
 4    1  0.2731969E-009  0.1234740E+04  0.7818608E-02  0.9082981E-01
          1   -1    0    0  501    0  0.00000000000E+00  0.00000000000E+00  0.16775307740E+04  0.16775307741E+04  0.50400000000E-02 0. -1.
         -1   -1    0    0    0  501 -0.00000000000E+00 -0.00000000000E+00 -0.19406553358E+04  0.19406553358E+04  0.50400000000E-02 0.  1.
    8880022    1    1    2    0    0  0.12243930061E+04 -0.45304336102E+02 -0.14507019751E+04  0.19050245641E+04  0.15294330000E+03 0.  0.
    8880022    1    1    2    0    0 -0.12243930061E+04  0.45304336102E+02  0.11875774134E+04  0.17131615458E+04  0.15294330000E+03 0.  0.
<mgrwt>
<rscale>  0 0.12347398E+04</rscale>
<asrwt>0</asrwt>
<pdfrwt beam="1">  1        1 0.25808166E+00 0.12347398E+04</pdfrwt>
<pdfrwt beam="2">  1       -1 0.29856236E+00 0.12347398E+04</pdfrwt>
<totfact> 0.16311053E-01</totfact>
</mgrwt>
</event>
<event>
 4    1  0.2731969E-009  0.6346314E+03  0.7818608E-02  0.9836052E-01
          1   -1    0    0  501    0  0.00000000000E+00  0.00000000000E+00  0.19353194380E+04  0.19353194380E+04  0.50400000000E-02 0. -1.
         -1   -1    0    0    0  501 -0.00000000000E+00 -0.00000000000E+00 -0.23407209011E+03  0.23407209017E+03  0.50400000000E-02 0.  1.
    8880022    1    1    2    0    0 -0.52206088411E+03  0.32682985137E+03  0.12118780691E+04  0.13679932112E+04  0.15294330000E+03 0.  0.
    8880022    1    1    2    0    0  0.52206088411E+03 -0.32682985137E+03  0.48936927884E+03  0.80139831704E+03  0.15294330000E+03 0.  0.
<mgrwt>
<rscale>  0 0.63463137E+03</rscale>
<asrwt>0</asrwt>
<pdfrwt beam="1">  1        1 0.29774146E+00 0.63463137E+03</pdfrwt>
<pdfrwt beam="2">  1       -1 0.36011090E-01 0.63463137E+03</pdfrwt>
<totfact> 0.25660729E+01</totfact>
</mgrwt>
</event>
<event>
 4    1  0.2731969E-009  0.1838896E+04  0.7818608E-02  0.8685884E-01
         -1   -1    0    0    0  501 -0.00000000000E+00  0.00000000000E+00  0.19059662106E+04  0.19059662106E+04  0.50400000000E-02 0.  1.
          1   -1    0    0  501    0  0.00000000000E+00 -0.00000000000E+00 -0.19487399666E+04  0.19487399667E+04  0.50400000000E-02 0. -1.
    8880022    1    1    2    0    0  0.14899157715E+04 -0.10669104241E+04 -0.59821873208E+03  0.19337539046E+04  0.15294330000E+03 0.  0.
    8880022    1    1    2    0    0 -0.14899157715E+04  0.10669104241E+04  0.55544497600E+03  0.19209522726E+04  0.15294330000E+03 0.  0.
<mgrwt>
<rscale>  0 0.18388960E+04</rscale>
<asrwt>0</asrwt>
<pdfrwt beam="1">  1        1 0.29980615E+00 0.18388960E+04</pdfrwt>
<pdfrwt beam="2">  1       -1 0.29322557E+00 0.18388960E+04</pdfrwt>
<totfact> 0.10704762E-01</totfact>
</mgrwt>
</event>
<event>
 4    1  0.2731969E-009  0.6883664E+03  0.7818608E-02  0.9737337E-01
         -1   -1    0    0    0  501 -0.00000000000E+00  0.00000000000E+00  0.59713846095E+03  0.59713846097E+03  0.50400000000E-02 0.  1.
          1   -1    0    0  501    0  0.00000000000E+00 -0.00000000000E+00 -0.22030005544E+04  0.22030005544E+04  0.50400000000E-02 0. -1.
    8880022    1    1    2    0    0 -0.64181609842E+03  0.19628742929E+03  0.31694519739E+03  0.75782753331E+03  0.15294330000E+03 0.  1.
    8880022    1    1    2    0    0  0.64181609842E+03 -0.19628742929E+03 -0.19228072908E+04  0.20423114820E+04  0.15294330000E+03 0.  0.
<mgrwt>
<rscale>  0 0.68836641E+03</rscale>
<asrwt>0</asrwt>
<pdfrwt beam="1">  1        1 0.33892316E+00 0.68836641E+03</pdfrwt>
<pdfrwt beam="2">  1       -1 0.91867457E-01 0.68836641E+03</pdfrwt>
<totfact> 0.26779414E+00</totfact>
</mgrwt>
</event>
<event>
 4    1  0.2731969E-009  0.5024410E+03  0.7818608E-02  0.1013144E+00
         -1   -1    0    0    0  501 -0.00000000000E+00  0.00000000000E+00  0.53804310126E+03  0.53804310128E+03  0.50400000000E-02 0.  1.
          1   -1    0    0  501    0  0.00000000000E+00 -0.00000000000E+00 -0.16028235409E+04  0.16028235409E+04  0.50400000000E-02 0. -1.
    8880022    1    1    2    0    0  0.29416132489E+03  0.37752411710E+03 -0.14326175581E+04  0.15181699723E+04  0.15294330000E+03 0.  0.
    8880022    1    1    2    0    0 -0.29416132489E+03 -0.37752411710E+03  0.36783711840E+03  0.62269666993E+03  0.15294330000E+03 0.  0.
<mgrwt>
<rscale>  0 0.50244104E+03</rscale>
<asrwt>0</asrwt>
<pdfrwt beam="1">  1        1 0.24658824E+00 0.50244104E+03</pdfrwt>
<pdfrwt beam="2">  1       -1 0.82775862E-01 0.50244104E+03</pdfrwt>
<totfact> 0.87891244E+00</totfact>
</mgrwt>
</event>
<event>
 4    1  0.2731969E-009  0.6580481E+03  0.7818608E-02  0.9791794E-01
         -1   -1    0    0    0  501 -0.00000000000E+00  0.00000000000E+00  0.27392836273E+03  0.27392836278E+03  0.50400000000E-02 0.  1.
          1   -1    0    0  501    0  0.00000000000E+00 -0.00000000000E+00 -0.28895128765E+04  0.28895128766E+04  0.50400000000E-02 0. -1.
    8880022    1    1    2    0    0  0.58599350168E+03  0.25738546960E+03 -0.23722754833E+04  0.24618526125E+04  0.15294330000E+03 0.  0.
    8880022    1    1    2    0    0 -0.58599350168E+03 -0.25738546960E+03 -0.24330903055E+03  0.70158862686E+03  0.15294330000E+03 0.  0.
<mgrwt>
<rscale>  0 0.65804811E+03</rscale>
<asrwt>0</asrwt>
<pdfrwt beam="1">  1        1 0.44454042E+00 0.65804811E+03</pdfrwt>
<pdfrwt beam="2">  1       -1 0.42142827E-01 0.65804811E+03</pdfrwt>
<totfact> 0.43236416E+00</totfact>
</mgrwt>
</event>
<event>
 4    1  0.2731969E-009  0.4789578E+03  0.7818608E-02  0.1019422E+00
         -1   -1    0    0    0  501 -0.00000000000E+00  0.00000000000E+00  0.79175103303E+03  0.79175103305E+03  0.50400000000E-02 0.  1.
          1   -1    0    0  501    0  0.00000000000E+00 -0.00000000000E+00 -0.14322566549E+04  0.14322566549E+04  0.50400000000E-02 0. -1.
    8880022    1    1    2    0    0  0.10985694326E+03  0.44038663989E+03  0.67292602900E+03  0.82597217514E+03  0.15294330000E+03 0.  1.
    8880022    1    1    2    0    0 -0.10985694326E+03 -0.44038663989E+03 -0.13134316508E+04  0.13980355128E+04  0.15294330000E+03 0.  0.
<mgrwt>
<rscale>  0 0.47895782E+03</rscale>
<asrwt>0</asrwt>
<pdfrwt beam="1">  1        1 0.22034718E+00 0.47895782E+03</pdfrwt>
<pdfrwt beam="2">  1       -1 0.12180785E+00 0.47895782E+03</pdfrwt>
<totfact> 0.47989302E+00</totfact>
</mgrwt>
</event>
<event>
 4    1  0.2731969E-009  0.1347733E+04  0.7818608E-02  0.8992546E-01
          1   -1    0    0  501    0  0.00000000000E+00  0.00000000000E+00  0.11880361890E+04  0.11880361890E+04  0.50400000000E-02 0. -1.
         -1   -1    0    0    0  501 -0.00000000000E+00 -0.00000000000E+00 -0.23928550846E+04  0.23928550846E+04  0.50400000000E-02 0.  1.
    8880022    1    1    2    0    0 -0.11819469804E+04 -0.62927951869E+03 -0.16782543989E+04  0.21524220909E+04  0.15294330000E+03 0.  0.
    8880022    1    1    2    0    0  0.11819469804E+04  0.62927951869E+03  0.47343550325E+03  0.14284691827E+04  0.15294330000E+03 0.  0.
<mgrwt>
<rscale>  0 0.13477326E+04</rscale>
<asrwt>0</asrwt>
<pdfrwt beam="1">  1        1 0.18277480E+00 0.13477326E+04</pdfrwt>
<pdfrwt beam="2">  1       -1 0.36813155E+00 0.13477326E+04</pdfrwt>
<totfact> 0.12422057E-01</totfact>
</mgrwt>
</event>
<event>
 4    1  0.2731969E-009  0.5935321E+03  0.7818608E-02  0.9918916E-01
          1   -1    0    0  501    0  0.00000000000E+00  0.00000000000E+00  0.74696152846E+03  0.74696152848E+03  0.50400000000E-02 0. -1.
         -1   -1    0    0    0  501 -0.00000000000E+00 -0.00000000000E+00 -0.88830515634E+03  0.88830515635E+03  0.50400000000E-02 0.  1.
    8880022    1    1    2    0    0 -0.44164955487E+03 -0.36583380739E+03 -0.63066489379E+03  0.86603612236E+03  0.15294330000E+03 0.  0.
    8880022    1    1    2    0    0  0.44164955487E+03  0.36583380739E+03  0.48932126592E+03  0.76923056248E+03  0.15294330000E+03 0.  0.
<mgrwt>
<rscale>  0 0.59353210E+03</rscale>
<asrwt>0</asrwt>
<pdfrwt beam="1">  1        1 0.11491716E+00 0.59353210E+03</pdfrwt>
<pdfrwt beam="2">  1       -1 0.13666233E+00 0.59353210E+03</pdfrwt>
<totfact> 0.11592747E+01</totfact>
</mgrwt>
</event>
<event>
 4    1  0.2731969E-009  0.1626399E+03  0.7818608E-02  0.1185748E+00
          1   -1    0    0  501    0  0.00000000000E+00  0.00000000000E+00  0.30422671220E+02  0.30422671638E+02  0.50400000000E-02 0. -1.
         -1   -1    0    0    0  501 -0.00000000000E+00 -0.00000000000E+00 -0.18003009117E+04  0.18003009117E+04  0.50400000000E-02 0.  1.
    8880022    1    1    2    0    0  0.43821300108E+02  0.33760622766E+02 -0.15431340970E+04  0.15516812109E+04  0.15294330000E+03 0.  1.
    8880022    1    1    2    0    0 -0.43821300108E+02 -0.33760622766E+02 -0.22674414351E+03  0.27904237245E+03  0.15294330000E+03 0.  0.
<mgrwt>
<rscale>  0 0.16263991E+03</rscale>
<asrwt>0</asrwt>
<pdfrwt beam="1">  1        1 0.46804124E-02 0.16263991E+03</pdfrwt>
<pdfrwt beam="2">  1       -1 0.27696929E+00 0.16263991E+03</pdfrwt>
<totfact> 0.99788201E+01</totfact>
</mgrwt>
</event>
<event>
 4    1  0.2731969E-009  0.5163474E+03  0.7818608E-02  0.1009598E+00
          1   -1    0    0  501    0  0.00000000000E+00  0.00000000000E+00  0.96134783190E+03  0.96134783192E+03  0.50400000000E-02 0. -1.
         -1   -1    0    0    0  501 -0.00000000000E+00 -0.00000000000E+00 -0.45161352688E+03  0.45161352690E+03  0.50400000000E-02 0.  1.
    8880022    1    1    2    0    0 -0.46792008359E+03  0.15580038111E+03 -0.18400676942E+03  0.54815427353E+03  0.15294330000E+03 0.  0.
    8880022    1    1    2    0    0  0.46792008359E+03 -0.15580038111E+03  0.69374107444E+03  0.86480708529E+03  0.15294330000E+03 0.  0.
<mgrwt>
<rscale>  0 0.51634738E+03</rscale>
<asrwt>0</asrwt>
<pdfrwt beam="1">  1        1 0.14789967E+00 0.51634738E+03</pdfrwt>
<pdfrwt beam="2">  1       -1 0.69479004E-01 0.51634738E+03</pdfrwt>
<totfact> 0.35946879E+01</totfact>
</mgrwt>
</event>
<event>
 4    1  0.2731969E-009  0.1287069E+04  0.7818608E-02  0.9039883E-01
          1   -1    0    0  501    0  0.00000000000E+00  0.00000000000E+00  0.14415569206E+04  0.14415569206E+04  0.50400000000E-02 0. -1.
         -1   -1    0    0    0  501 -0.00000000000E+00 -0.00000000000E+00 -0.14878958264E+04  0.14878958264E+04  0.50400000000E-02 0.  1.
    8880022    1    1    2    0    0  0.10765989920E+04  0.68854143465E+03 -0.72207030279E+03  0.14757817833E+04  0.15294330000E+03 0.  0.
    8880022    1    1    2    0    0 -0.10765989920E+04 -0.68854143465E+03  0.67573139699E+03  0.14536709637E+04  0.15294330000E+03 0.  0.
<mgrwt>
<rscale>  0 0.12870689E+04</rscale>
<asrwt>0</asrwt>
<pdfrwt beam="1">  1        1 0.22177799E+00 0.12870689E+04</pdfrwt>
<pdfrwt beam="2">  1       -1 0.22890705E+00 0.12870689E+04</pdfrwt>
<totfact> 0.66857082E-01</totfact>
</mgrwt>
</event>
<event>
 4    1  0.2731969E-009  0.4331465E+03  0.7818608E-02  0.1032871E+00
          1   -1    0    0  501    0  0.00000000000E+00  0.00000000000E+00  0.94289157177E+03  0.94289157179E+03  0.50400000000E-02 0. -1.
         -1   -1    0    0    0  501 -0.00000000000E+00 -0.00000000000E+00 -0.22212934958E+03  0.22212934964E+03  0.50400000000E-02 0.  1.
    8880022    1    1    2    0    0  0.18084440330E+03  0.36265619864E+03  0.54843272742E+03  0.69885214899E+03  0.15294330000E+03 0.  0.
    8880022    1    1    2    0    0 -0.18084440330E+03 -0.36265619864E+03  0.17232949477E+03  0.46616877244E+03  0.15294330000E+03 0.  0.
<mgrwt>
<rscale>  0 0.43314648E+03</rscale>
<asrwt>0</asrwt>
<pdfrwt beam="1">  1        1 0.14506024E+00 0.43314648E+03</pdfrwt>
<pdfrwt beam="2">  1       -1 0.34173746E-01 0.43314648E+03</pdfrwt>
<totfact> 0.14231373E+02</totfact>
</mgrwt>
</event>
<event>
 4    1  0.2731969E-009  0.3966096E+03  0.7818608E-02  0.1044960E+00
          1   -1    0    0  501    0  0.00000000000E+00  0.00000000000E+00  0.82334925100E+03  0.82334925101E+03  0.50400000000E-02 0. -1.
         -1   -1    0    0    0  501 -0.00000000000E+00 -0.00000000000E+00 -0.48138277382E+03  0.48138277384E+03  0.50400000000E-02 0.  1.
    8880022    1    1    2    0    0 -0.35616046092E+03  0.84007299020E+02  0.67761877562E+03  0.78515371635E+03  0.15294330000E+03 0.  0.
    8880022    1    1    2    0    0  0.35616046092E+03 -0.84007299020E+02 -0.33565229844E+03  0.51957830851E+03  0.15294330000E+03 0.  0.
<mgrwt>
<rscale>  0 0.39660957E+03</rscale>
<asrwt>0</asrwt>
<pdfrwt beam="1">  1        1 0.12666912E+00 0.39660957E+03</pdfrwt>
<pdfrwt beam="2">  1       -1 0.74058888E-01 0.39660957E+03</pdfrwt>
<totfact> 0.41616352E+01</totfact>
</mgrwt>
</event>
<event>
 4    1  0.2731969E-009  0.4590362E+03  0.7818608E-02  0.1025061E+00
         -1   -1    0    0    0  501 -0.00000000000E+00  0.00000000000E+00  0.49740798386E+03  0.49740798389E+03  0.50400000000E-02 0.  1.
          1   -1    0    0  501    0  0.00000000000E+00 -0.00000000000E+00 -0.15912431622E+04  0.15912431622E+04  0.50400000000E-02 0. -1.
    8880022    1    1    2    0    0  0.34800393070E+03  0.25732437161E+03 -0.14414954520E+04  0.15128196717E+04  0.15294330000E+03 0.  0.
    8880022    1    1    2    0    0 -0.34800393070E+03 -0.25732437161E+03  0.34766027365E+03  0.57583147439E+03  0.15294330000E+03 0.  0.
<mgrwt>
<rscale>  0 0.45903619E+03</rscale>
<asrwt>0</asrwt>
<pdfrwt beam="1">  1        1 0.24480664E+00 0.45903619E+03</pdfrwt>
<pdfrwt beam="2">  1       -1 0.76524306E-01 0.45903619E+03</pdfrwt>
<totfact> 0.10666127E+01</totfact>
</mgrwt>
</event>
<event>
 4    1  0.2731969E-009  0.1576880E+04  0.7818608E-02  0.8834879E-01
         -1   -1    0    0    0  501 -0.00000000000E+00  0.00000000000E+00  0.13089624241E+04  0.13089624241E+04  0.50400000000E-02 0.  1.
          1   -1    0    0  501    0  0.00000000000E+00 -0.00000000000E+00 -0.22416268706E+04  0.22416268706E+04  0.50400000000E-02 0. -1.
    8880022    1    1    2    0    0 -0.14421345286E+04  0.61919892611E+03 -0.11597526187E+04  0.19574414674E+04  0.15294330000E+03 0.  0.
    8880022    1    1    2    0    0  0.14421345286E+04 -0.61919892611E+03  0.22708817224E+03  0.15931478273E+04  0.15294330000E+03 0.  0.
<mgrwt>
<rscale>  0 0.15768801E+04</rscale>
<asrwt>0</asrwt>
<pdfrwt beam="1">  1        1 0.34486567E+00 0.15768801E+04</pdfrwt>
<pdfrwt beam="2">  1       -1 0.20137883E+00 0.15768801E+04</pdfrwt>
<totfact> 0.28149596E-01</totfact>
</mgrwt>
</event>
<event>
 4    1  0.2731969E-009  0.7008138E+03  0.7818608E-02  0.9715842E-01
          1   -1    0    0  501    0  0.00000000000E+00  0.00000000000E+00  0.17046946445E+04  0.17046946446E+04  0.50400000000E-02 0. -1.
         -1   -1    0    0    0  501 -0.00000000000E+00 -0.00000000000E+00 -0.82511130978E+03  0.82511130980E+03  0.50400000000E-02 0.  1.
    8880022    1    1    2    0    0 -0.55550616504E+03 -0.39895014029E+03  0.14602341345E+04  0.16196986431E+04  0.15294330000E+03 0.  0.
    8880022    1    1    2    0    0  0.55550616504E+03  0.39895014029E+03 -0.58065079971E+03  0.91010731129E+03  0.15294330000E+03 0.  0.
<mgrwt>
<rscale>  0 0.70081379E+03</rscale>
<asrwt>0</asrwt>
<pdfrwt beam="1">  1        1 0.26226071E+00 0.70081379E+03</pdfrwt>
<pdfrwt beam="2">  1       -1 0.12694020E+00 0.70081379E+03</pdfrwt>
<totfact> 0.26957993E+00</totfact>
</mgrwt>
</event>
<event>
 4    1  0.2731969E-009  0.6619029E+03  0.7818608E-02  0.9784697E-01
          1   -1    0    0  501    0  0.00000000000E+00  0.00000000000E+00  0.11282521019E+04  0.11282521019E+04  0.50400000000E-02 0. -1.
         -1   -1    0    0    0  501 -0.00000000000E+00 -0.00000000000E+00 -0.11469057572E+04  0.11469057572E+04  0.50400000000E-02 0.  1.
    8880022    1    1    2    0    0  0.20129619151E+03 -0.61172188947E+03 -0.93449756248E+03  0.11451642564E+04  0.15294330000E+03 0.  0.
    8880022    1    1    2    0    0 -0.20129619151E+03  0.61172188947E+03  0.91584390724E+03  0.11299936027E+04  0.15294330000E+03 0.  0.
<mgrwt>
<rscale>  0 0.66190292E+03</rscale>
<asrwt>0</asrwt>
<pdfrwt beam="1">  1        1 0.17357725E+00 0.66190292E+03</pdfrwt>
<pdfrwt beam="2">  1       -1 0.17644704E+00 0.66190292E+03</pdfrwt>
<totfact> 0.28226175E+00</totfact>
</mgrwt>
</event>
<event>
 4    1  0.2731969E-009  0.8489196E+03  0.7818608E-02  0.9491788E-01
         -1   -1    0    0    0  501 -0.00000000000E+00  0.00000000000E+00  0.12329599811E+04  0.12329599811E+04  0.50400000000E-02 0.  1.
          1   -1    0    0  501    0  0.00000000000E+00 -0.00000000000E+00 -0.71259798719E+03  0.71259798721E+03  0.50400000000E-02 0. -1.
    8880022    1    1    2    0    0 -0.19332407245E+03 -0.81234145819E+03  0.67262394389E+03  0.10830916234E+04  0.15294330000E+03 0.  0.
    8880022    1    1    2    0    0  0.19332407245E+03  0.81234145819E+03 -0.15226195002E+03  0.86246634492E+03  0.15294330000E+03 0.  0.
<mgrwt>
<rscale>  0 0.84891960E+03</rscale>
<asrwt>0</asrwt>
<pdfrwt beam="1">  1        1 0.10963046E+00 0.84891960E+03</pdfrwt>
<pdfrwt beam="2">  1       -1 0.18968615E+00 0.84891960E+03</pdfrwt>
<totfact> 0.48114547E+00</totfact>
</mgrwt>
</event>
<event>
 4    1  0.2731969E-009  0.4153036E+03  0.7818608E-02  0.1038606E+00
          1   -1    0    0  501    0  0.00000000000E+00  0.00000000000E+00  0.12910351926E+04  0.12910351926E+04  0.50400000000E-02 0. -1.
         -1   -1    0    0    0  501 -0.00000000000E+00 -0.00000000000E+00 -0.60870489100E+03  0.60870489102E+03  0.50400000000E-02 0.  1.
    8880022    1    1    2    0    0  0.31022356960E+03 -0.22988428078E+03 -0.49801922129E+03  0.64845990121E+03  0.15294330000E+03 0.  1.
    8880022    1    1    2    0    0 -0.31022356960E+03  0.22988428078E+03  0.11803495229E+04  0.12512801824E+04  0.15294330000E+03 0.  0.
<mgrwt>
<rscale>  0 0.41530362E+03</rscale>
<asrwt>0</asrwt>
<pdfrwt beam="1">  1        1 0.19862079E+00 0.41530362E+03</pdfrwt>
<pdfrwt beam="2">  1       -1 0.93646908E-01 0.41530362E+03</pdfrwt>
<totfact> 0.11213795E+01</totfact>
</mgrwt>
</event>
<event>
 4    1  0.2731969E-009  0.1085588E+04  0.7818608E-02  0.9219354E-01
          1   -1    0    0  501    0  0.00000000000E+00  0.00000000000E+00  0.12395734999E+04  0.12395734999E+04  0.50400000000E-02 0. -1.
         -1   -1    0    0    0  501 -0.00000000000E+00 -0.00000000000E+00 -0.11607310269E+04  0.11607310269E+04  0.50400000000E-02 0.  1.
    8880022    1    1    2    0    0 -0.90410479082E+03  0.58112343358E+03 -0.47105991537E+03  0.11833845591E+04  0.15294330000E+03 0.  0.
    8880022    1    1    2    0    0  0.90410479082E+03 -0.58112343358E+03  0.54990238837E+03  0.12169199676E+04  0.15294330000E+03 0.  0.
<mgrwt>
<rscale>  0 0.10855881E+04</rscale>
<asrwt>0</asrwt>
<pdfrwt beam="1">  1        1 0.19070362E+00 0.10855881E+04</pdfrwt>
<pdfrwt beam="2">  1       -1 0.17857400E+00 0.10855881E+04</pdfrwt>
<totfact> 0.21166260E+00</totfact>
</mgrwt>
</event>
<event>
 4    1  0.2731969E-009  0.5535948E+03  0.7818608E-02  0.1000665E+00
          1   -1    0    0  501    0  0.00000000000E+00  0.00000000000E+00  0.21544402086E+04  0.21544402086E+04  0.50400000000E-02 0. -1.
         -1   -1    0    0    0  501 -0.00000000000E+00 -0.00000000000E+00 -0.89506501558E+03  0.89506501560E+03  0.50400000000E-02 0.  1.
    8880022    1    1    2    0    0  0.50661203057E+03  0.16254177086E+03  0.20280395201E+04  0.21022396450E+04  0.15294330000E+03 0.  0.
    8880022    1    1    2    0    0 -0.50661203057E+03 -0.16254177086E+03 -0.76866432710E+03  0.94726557922E+03  0.15294330000E+03 0.  0.
<mgrwt>
<rscale>  0 0.55359482E+03</rscale>
<asrwt>0</asrwt>
<pdfrwt beam="1">  1        1 0.33145234E+00 0.55359482E+03</pdfrwt>
<pdfrwt beam="2">  1       -1 0.13770231E+00 0.55359482E+03</pdfrwt>
<totfact> 0.11414253E+00</totfact>
</mgrwt>
</event>
<event>
 4    1  0.2731969E-009  0.5216753E+03  0.7818608E-02  0.1008271E+00
          1   -1    0    0  501    0  0.00000000000E+00  0.00000000000E+00  0.22057033113E+04  0.22057033113E+04  0.50400000000E-02 0. -1.
         -1   -1    0    0    0  501 -0.00000000000E+00 -0.00000000000E+00 -0.93259097833E+03  0.93259097834E+03  0.50400000000E-02 0.  1.
    8880022    1    1    2    0    0  0.96281245091E+02 -0.48937035242E+03 -0.82511032946E+03  0.97619266990E+03  0.15294330000E+03 0.  0.
    8880022    1    1    2    0    0 -0.96281245091E+02  0.48937035242E+03  0.20982226624E+04  0.21621016198E+04  0.15294330000E+03 0.  0.
<mgrwt>
<rscale>  0 0.52167526E+03</rscale>
<asrwt>0</asrwt>
<pdfrwt beam="1">  1        1 0.33933897E+00 0.52167526E+03</pdfrwt>
<pdfrwt beam="2">  1       -1 0.14347554E+00 0.52167526E+03</pdfrwt>
<totfact> 0.95813561E-01</totfact>
</mgrwt>
</event>
<event>
 4    1  0.2731969E-009  0.2302102E+03  0.7818608E-02  0.1126492E+00
          1   -1    0    0  501    0  0.00000000000E+00  0.00000000000E+00  0.25894288454E+03  0.25894288458E+03  0.50400000000E-02 0. -1.
         -1   -1    0    0    0  501 -0.00000000000E+00 -0.00000000000E+00 -0.41035454179E+03  0.41035454182E+03  0.50400000000E-02 0.  1.
    8880022    1    1    2    0    0 -0.14715582661E+03 -0.89164115653E+02 -0.31263301163E+03  0.38824751100E+03  0.15294330000E+03 0.  0.
    8880022    1    1    2    0    0  0.14715582661E+03  0.89164115653E+02  0.16122135438E+03  0.28104991540E+03  0.15294330000E+03 0.  0.
<mgrwt>
<rscale>  0 0.23021019E+03</rscale>
<asrwt>0</asrwt>
<pdfrwt beam="1">  1        1 0.39837367E-01 0.23021019E+03</pdfrwt>
<pdfrwt beam="2">  1       -1 0.63131468E-01 0.23021019E+03</pdfrwt>
<totfact> 0.28072604E+02</totfact>
</mgrwt>
</event>
<event>
 4    1  0.2731969E-009  0.1024023E+04  0.7818608E-02  0.9282583E-01
          1   -1    0    0  501    0  0.00000000000E+00  0.00000000000E+00  0.15711588065E+04  0.15711588065E+04  0.50400000000E-02 0. -1.
         -1   -1    0    0    0  501 -0.00000000000E+00 -0.00000000000E+00 -0.92906967850E+03  0.92906967851E+03  0.50400000000E-02 0.  1.
    8880022    1    1    2    0    0  0.82149187926E+03 -0.59193038057E+03 -0.34237155426E+03  0.10797409029E+04  0.15294330000E+03 0.  0.
    8880022    1    1    2    0    0 -0.82149187926E+03  0.59193038057E+03  0.98446068228E+03  0.14204875822E+04  0.15294330000E+03 0.  0.
<mgrwt>
<rscale>  0 0.10240225E+04</rscale>
<asrwt>0</asrwt>
<pdfrwt beam="1">  1        1 0.24171674E+00 0.10240225E+04</pdfrwt>
<pdfrwt beam="2">  1       -1 0.14293380E+00 0.10240225E+04</pdfrwt>
<totfact> 0.23248726E+00</totfact>
</mgrwt>
</event>
<event>
 4    1  0.2731969E-009  0.1405804E+04  0.7818608E-02  0.8949628E-01
         -1   -1    0    0    0  501 -0.00000000000E+00  0.00000000000E+00  0.18294538390E+04  0.18294538390E+04  0.50400000000E-02 0.  1.
          1   -1    0    0  501    0  0.00000000000E+00 -0.00000000000E+00 -0.22674122493E+04  0.22674122493E+04  0.50400000000E-02 0. -1.
    8880022    1    1    2    0    0  0.12913031209E+04 -0.53425723049E+03  0.12632306614E+04  0.18899835701E+04  0.15294330000E+03 0.  0.
    8880022    1    1    2    0    0 -0.12913031209E+04  0.53425723049E+03 -0.17011890717E+04  0.22068825182E+04  0.15294330000E+03 0.  0.
<mgrwt>
<rscale>  0 0.14058045E+04</rscale>
<asrwt>0</asrwt>
<pdfrwt beam="1">  1        1 0.34883265E+00 0.14058045E+04</pdfrwt>
<pdfrwt beam="2">  1       -1 0.28145444E+00 0.14058045E+04</pdfrwt>
<totfact> 0.81528869E-02</totfact>
</mgrwt>
</event>
<event>
 4    1  0.2731969E-009  0.9597878E+03  0.7818608E-02  0.9353783E-01
          1   -1    0    0  501    0  0.00000000000E+00  0.00000000000E+00  0.77255648194E+03  0.77255648195E+03  0.50400000000E-02 0. -1.
         -1   -1    0    0    0  501 -0.00000000000E+00 -0.00000000000E+00 -0.24035968615E+04  0.24035968615E+04  0.50400000000E-02 0.  1.
    8880022    1    1    2    0    0 -0.92111445874E+03 -0.22214647687E+03 -0.19428445731E+04  0.21669881383E+04  0.15294330000E+03 0.  0.
    8880022    1    1    2    0    0  0.92111445874E+03  0.22214647687E+03  0.31180419349E+03  0.10091652052E+04  0.15294330000E+03 0.  0.
<mgrwt>
<rscale>  0 0.95978777E+03</rscale>
<asrwt>0</asrwt>
<pdfrwt beam="1">  1        1 0.11885484E+00 0.95978777E+03</pdfrwt>
<pdfrwt beam="2">  1       -1 0.36978413E+00 0.95978777E+03</pdfrwt>
<totfact> 0.27597058E-01</totfact>
</mgrwt>
</event>
<event>
 4    1  0.2731969E-009  0.1069375E+04  0.7818608E-02  0.9235566E-01
          1   -1    0    0  501    0  0.00000000000E+00  0.00000000000E+00  0.13660833174E+04  0.13660833174E+04  0.50400000000E-02 0. -1.
         -1   -1    0    0    0  501 -0.00000000000E+00 -0.00000000000E+00 -0.91038392154E+03  0.91038392155E+03  0.50400000000E-02 0.  1.
    8880022    1    1    2    0    0 -0.10093526788E+04 -0.31840122382E+03  0.55076594466E+03  0.12028744524E+04  0.15294330000E+03 0.  0.
    8880022    1    1    2    0    0  0.10093526788E+04  0.31840122382E+03 -0.95066548849E+02  0.10735927865E+04  0.15294330000E+03 0.  0.
<mgrwt>
<rscale>  0 0.10693754E+04</rscale>
<asrwt>0</asrwt>
<pdfrwt beam="1">  1        1 0.21016666E+00 0.10693754E+04</pdfrwt>
<pdfrwt beam="2">  1       -1 0.14005907E+00 0.10693754E+04</pdfrwt>
<totfact> 0.33847675E+00</totfact>
</mgrwt>
</event>
<event>
 4    1  0.2731969E-009  0.1134878E+04  0.7818608E-02  0.9171848E-01
         -1   -1    0    0    0  501 -0.00000000000E+00  0.00000000000E+00  0.12432720170E+04  0.12432720170E+04  0.50400000000E-02 0.  1.
          1   -1    0    0  501    0  0.00000000000E+00 -0.00000000000E+00 -0.11082803730E+04  0.11082803730E+04  0.50400000000E-02 0. -1.
    8880022    1    1    2    0    0 -0.11191966231E+04  0.10934563487E+03  0.36789914145E+03  0.11930209471E+04  0.15294330000E+03 0.  0.
    8880022    1    1    2    0    0  0.11191966231E+04 -0.10934563487E+03 -0.23290749746E+03  0.11585314430E+04  0.15294330000E+03 0.  0.
<mgrwt>
<rscale>  0 0.11348785E+04</rscale>
<asrwt>0</asrwt>
<pdfrwt beam="1">  1        1 0.17050467E+00 0.11348785E+04</pdfrwt>
<pdfrwt beam="2">  1       -1 0.19127262E+00 0.11348785E+04</pdfrwt>
<totfact> 0.21368402E+00</totfact>
</mgrwt>
</event>
<event>
 4    1  0.2731969E-009  0.1892139E+03  0.7818608E-02  0.1159172E+00
          1   -1    0    0  501    0  0.00000000000E+00  0.00000000000E+00  0.20413994336E+04  0.20413994336E+04  0.50400000000E-02 0. -1.
         -1   -1    0    0    0  501 -0.00000000000E+00 -0.00000000000E+00 -0.80104716020E+03  0.80104716022E+03  0.50400000000E-02 0.  1.
    8880022    1    1    2    0    0  0.80111781155E+02 -0.77410191896E+02  0.20257553899E+04  0.20345728761E+04  0.15294330000E+03 0. -1.
    8880022    1    1    2    0    0 -0.80111781155E+02  0.77410191896E+02 -0.78540311655E+03  0.80787371772E+03  0.15294330000E+03 0.  0.
<mgrwt>
<rscale>  0 0.18921387E+03</rscale>
<asrwt>0</asrwt>
<pdfrwt beam="1">  1        1 0.31406145E+00 0.18921387E+03</pdfrwt>
<pdfrwt beam="2">  1       -1 0.12323802E+00 0.18921387E+03</pdfrwt>
<totfact> 0.21307064E+00</totfact>
</mgrwt>
</event>
<event>
 4    1  0.2731969E-009  0.4794350E+03  0.7818608E-02  0.1019291E+00
         -1   -1    0    0    0  501 -0.00000000000E+00  0.00000000000E+00  0.62153226341E+03  0.62153226343E+03  0.50400000000E-02 0.  1.
          1   -1    0    0  501    0  0.00000000000E+00 -0.00000000000E+00 -0.18709132914E+04  0.18709132914E+04  0.50400000000E-02 0. -1.
    8880022    1    1    2    0    0 -0.43796204475E+03  0.12106002395E+03  0.49158661761E+03  0.68666974425E+03  0.15294330000E+03 0.  0.
    8880022    1    1    2    0    0  0.43796204475E+03 -0.12106002395E+03 -0.17409676456E+04  0.18057758106E+04  0.15294330000E+03 0.  0.
<mgrwt>
<rscale>  0 0.47943502E+03</rscale>
<asrwt>0</asrwt>
<pdfrwt beam="1">  1        1 0.28783281E+00 0.47943502E+03</pdfrwt>
<pdfrwt beam="2">  1       -1 0.95620349E-01 0.47943502E+03</pdfrwt>
<totfact> 0.42875634E+00</totfact>
</mgrwt>
</event>
<event>
 4    1  0.2731969E-009  0.1131261E+04  0.7818608E-02  0.9175248E-01
          1   -1    0    0  501    0  0.00000000000E+00  0.00000000000E+00  0.13251508737E+04  0.13251508737E+04  0.50400000000E-02 0. -1.
         -1   -1    0    0    0  501 -0.00000000000E+00 -0.00000000000E+00 -0.12546396100E+04  0.12546396100E+04  0.50400000000E-02 0.  1.
    8880022    1    1    2    0    0 -0.11656180291E+03  0.11147969641E+04 -0.58371319437E+03  0.12729774827E+04  0.15294330000E+03 0.  0.
    8880022    1    1    2    0    0  0.11656180291E+03 -0.11147969641E+04  0.65422445810E+03  0.13068130010E+04  0.15294330000E+03 0. -1.
<mgrwt>
<rscale>  0 0.11312606E+04</rscale>
<asrwt>0</asrwt>
<pdfrwt beam="1">  1        1 0.20386937E+00 0.11312606E+04</pdfrwt>
<pdfrwt beam="2">  1       -1 0.19302148E+00 0.11312606E+04</pdfrwt>
<totfact> 0.14432306E+00</totfact>
</mgrwt>
</event>
<event>
 4    1  0.2731969E-009  0.5409079E+03  0.7818608E-02  0.1003621E+00
          1   -1    0    0  501    0  0.00000000000E+00  0.00000000000E+00  0.53154089808E+03  0.53154089810E+03  0.50400000000E-02 0. -1.
         -1   -1    0    0    0  501 -0.00000000000E+00 -0.00000000000E+00 -0.10133478146E+04  0.10133478146E+04  0.50400000000E-02 0.  1.
    8880022    1    1    2    0    0  0.47368217645E+03  0.21169534014E+03 -0.76298121570E+03  0.93526558252E+03  0.15294330000E+03 0.  0.
    8880022    1    1    2    0    0 -0.47368217645E+03 -0.21169534014E+03  0.28117429918E+03  0.60962313019E+03  0.15294330000E+03 0.  0.
<mgrwt>
<rscale>  0 0.54090792E+03</rscale>
<asrwt>0</asrwt>
<pdfrwt beam="1">  1        1 0.81775523E-01 0.54090792E+03</pdfrwt>
<pdfrwt beam="2">  1       -1 0.15589966E+00 0.54090792E+03</pdfrwt>
<totfact> 0.13539935E+01</totfact>
</mgrwt>
</event>
<event>
 4    1  0.2731969E-009  0.8594570E+03  0.7818608E-02  0.9477731E-01
         -1   -1    0    0    0  501 -0.00000000000E+00  0.00000000000E+00  0.12712101468E+04  0.12712101468E+04  0.50400000000E-02 0.  1.
          1   -1    0    0  501    0  0.00000000000E+00 -0.00000000000E+00 -0.12471885087E+04  0.12471885087E+04  0.50400000000E-02 0. -1.
    8880022    1    1    2    0    0  0.77855807040E+03 -0.33033610838E+03 -0.90823342514E+03  0.12504216173E+04  0.15294330000E+03 0.  0.
    8880022    1    1    2    0    0 -0.77855807040E+03  0.33033610838E+03  0.93225506325E+03  0.12679770382E+04  0.15294330000E+03 0.  0.
<mgrwt>
<rscale>  0 0.85945696E+03</rscale>
<asrwt>0</asrwt>
<pdfrwt beam="1">  1        1 0.19187516E+00 0.85945696E+03</pdfrwt>
<pdfrwt beam="2">  1       -1 0.19557079E+00 0.85945696E+03</pdfrwt>
<totfact> 0.16373013E+00</totfact>
</mgrwt>
</event>
<event>
 4    1  0.2731969E-009  0.7934689E+03  0.7818608E-02  0.9569519E-01
         -1   -1    0    0    0  501 -0.00000000000E+00  0.00000000000E+00  0.57201718476E+03  0.57201718479E+03  0.50400000000E-02 0.  1.
          1   -1    0    0  501    0  0.00000000000E+00 -0.00000000000E+00 -0.15758328502E+04  0.15758328502E+04  0.50400000000E-02 0. -1.
    8880022    1    1    2    0    0 -0.60056886437E+03 -0.49549803570E+03  0.87814403916E+02  0.79831340135E+03  0.15294330000E+03 0.  0.
    8880022    1    1    2    0    0  0.60056886437E+03  0.49549803570E+03 -0.10916300694E+04  0.13495366337E+04  0.15294330000E+03 0.  0.
<mgrwt>
<rscale>  0 0.79346891E+03</rscale>
<asrwt>0</asrwt>
<pdfrwt beam="1">  1        1 0.24243582E+00 0.79346891E+03</pdfrwt>
<pdfrwt beam="2">  1       -1 0.88002645E-01 0.79346891E+03</pdfrwt>
<totfact> 0.76088138E+00</totfact>
</mgrwt>
</event>
<event>
 4    1  0.2731969E-009  0.1406541E+04  0.7818608E-02  0.8949097E-01
          1   -1    0    0  501    0  0.00000000000E+00  0.00000000000E+00  0.31871762325E+04  0.31871762325E+04  0.50400000000E-02 0. -1.
         -1   -1    0    0    0  501 -0.00000000000E+00 -0.00000000000E+00 -0.15904611015E+04  0.15904611015E+04  0.50400000000E-02 0.  1.
    8880022    1    1    2    0    0 -0.74444271430E+03 -0.11835419432E+04  0.26636570428E+04  0.30122129707E+04  0.15294330000E+03 0.  0.
    8880022    1    1    2    0    0  0.74444271430E+03  0.11835419432E+04 -0.10669419119E+04  0.17654243633E+04  0.15294330000E+03 0.  1.
<mgrwt>
<rscale>  0 0.14065412E+04</rscale>
<asrwt>0</asrwt>
<pdfrwt beam="1">  1        1 0.49033480E+00 0.14065412E+04</pdfrwt>
<pdfrwt beam="2">  1       -1 0.24468632E+00 0.14065412E+04</pdfrwt>
<totfact> 0.31534241E-02</totfact>
</mgrwt>
</event>
<event>
 4    1  0.2731969E-009  0.1333634E+04  0.7818608E-02  0.9003310E-01
         -1   -1    0    0    0  501 -0.00000000000E+00  0.00000000000E+00  0.13137869278E+04  0.13137869278E+04  0.50400000000E-02 0.  1.
          1   -1    0    0  501    0  0.00000000000E+00 -0.00000000000E+00 -0.19541206343E+04  0.19541206343E+04  0.50400000000E-02 0. -1.
    8880022    1    1    2    0    0  0.13182302042E+04  0.13212741270E+03  0.58548750490E+03  0.14564943515E+04  0.15294330000E+03 0.  0.
    8880022    1    1    2    0    0 -0.13182302042E+04 -0.13212741270E+03 -0.12258212113E+04  0.18114132106E+04  0.15294330000E+03 0.  0.
<mgrwt>
<rscale>  0 0.13336342E+04</rscale>
<asrwt>0</asrwt>
<pdfrwt beam="1">  1        1 0.30063394E+00 0.13336342E+04</pdfrwt>
<pdfrwt beam="2">  1       -1 0.20212107E+00 0.13336342E+04</pdfrwt>
<totfact> 0.44920369E-01</totfact>
</mgrwt>
</event>
<event>
 4    1  0.2731969E-009  0.6386177E+03  0.7818608E-02  0.9828375E-01
         -1   -1    0    0    0  501 -0.00000000000E+00  0.00000000000E+00  0.12550240101E+04  0.12550240101E+04  0.50400000000E-02 0.  1.
          1   -1    0    0  501    0  0.00000000000E+00 -0.00000000000E+00 -0.17062268774E+04  0.17062268774E+04  0.50400000000E-02 0. -1.
    8880022    1    1    2    0    0 -0.57630381696E+03 -0.22872428045E+03  0.11065868982E+04  0.12776412260E+04  0.15294330000E+03 0.  0.
    8880022    1    1    2    0    0  0.57630381696E+03  0.22872428045E+03 -0.15577897656E+04  0.16836096616E+04  0.15294330000E+03 0.  0.
<mgrwt>
<rscale>  0 0.63861768E+03</rscale>
<asrwt>0</asrwt>
<pdfrwt beam="1">  1        1 0.26249644E+00 0.63861768E+03</pdfrwt>
<pdfrwt beam="2">  1       -1 0.19308062E+00 0.63861768E+03</pdfrwt>
<totfact> 0.86050800E-01</totfact>
</mgrwt>
</event>
<event>
 4    1  0.2731969E-009  0.1060506E+04  0.7818608E-02  0.9244564E-01
         -1   -1    0    0    0  501 -0.00000000000E+00  0.00000000000E+00  0.83104117516E+03  0.83104117518E+03  0.50400000000E-02 0.  1.
          1   -1    0    0  501    0  0.00000000000E+00 -0.00000000000E+00 -0.44637555238E+04  0.44637555238E+04  0.50400000000E-02 0. -1.
    8880022    1    1    2    0    0  0.10423550450E+04 -0.12155771237E+03 -0.40262900343E+04  0.41636142245E+04  0.15294330000E+03 0.  0.
    8880022    1    1    2    0    0 -0.10423550450E+04  0.12155771237E+03  0.39357568559E+03  0.11311824745E+04  0.15294330000E+03 0.  0.
<mgrwt>
<rscale>  0 0.10605055E+04</rscale>
<asrwt>0</asrwt>
<pdfrwt beam="1">  1        1 0.68673161E+00 0.10605055E+04</pdfrwt>
<pdfrwt beam="2">  1       -1 0.12785249E+00 0.10605055E+04</pdfrwt>
<totfact> 0.19599111E-02</totfact>
</mgrwt>
</event>
<event>
 4    1  0.2731969E-009  0.6033951E+03  0.7818608E-02  0.9898387E-01
         -1   -1    0    0    0  501 -0.00000000000E+00  0.00000000000E+00  0.31902882056E+03  0.31902882060E+03  0.50400000000E-02 0.  1.
          1   -1    0    0  501    0  0.00000000000E+00 -0.00000000000E+00 -0.20204454432E+04  0.20204454432E+04  0.50400000000E-02 0. -1.
    8880022    1    1    2    0    0  0.39298865069E+03 -0.43157147716E+03 -0.16223435411E+04  0.17309200553E+04  0.15294330000E+03 0.  0.
    8880022    1    1    2    0    0 -0.39298865069E+03  0.43157147716E+03 -0.79073081558E+02  0.60855420853E+03  0.15294330000E+03 0.  0.
<mgrwt>
<rscale>  0 0.60339512E+03</rscale>
<asrwt>0</asrwt>
<pdfrwt beam="1">  1        1 0.31083775E+00 0.60339512E+03</pdfrwt>
<pdfrwt beam="2">  1       -1 0.49081358E-01 0.60339512E+03</pdfrwt>
<totfact> 0.12853774E+01</totfact>
</mgrwt>
</event>
<event>
 4    1  0.2731969E-009  0.1384077E+04  0.7818608E-02  0.8965426E-01
         -1   -1    0    0    0  501 -0.00000000000E+00  0.00000000000E+00  0.18505294970E+04  0.18505294970E+04  0.50400000000E-02 0.  1.
          1   -1    0    0  501    0  0.00000000000E+00 -0.00000000000E+00 -0.10854888875E+04  0.10854888875E+04  0.50400000000E-02 0. -1.
    8880022    1    1    2    0    0  0.12287849450E+04  0.61835649028E+03  0.69849364891E+03  0.15503426140E+04  0.15294330000E+03 0.  0.
    8880022    1    1    2    0    0 -0.12287849450E+04 -0.61835649028E+03  0.66546960617E+02  0.13856757705E+04  0.15294330000E+03 0.  0.
<mgrwt>
<rscale>  0 0.13840769E+04</rscale>
<asrwt>0</asrwt>
<pdfrwt beam="1">  1        1 0.16699829E+00 0.13840769E+04</pdfrwt>
<pdfrwt beam="2">  1       -1 0.28469685E+00 0.13840769E+04</pdfrwt>
<totfact> 0.51913701E-01</totfact>
</mgrwt>
</event>
<event>
 4    1  0.2731969E-009  0.1027912E+04  0.7818608E-02  0.9278451E-01
          1   -1    0    0  501    0  0.00000000000E+00  0.00000000000E+00  0.97067646435E+03  0.97067646436E+03  0.50400000000E-02 0. -1.
         -1   -1    0    0    0  501 -0.00000000000E+00 -0.00000000000E+00 -0.11713457372E+04  0.11713457372E+04  0.50400000000E-02 0.  1.
    8880022    1    1    2    0    0  0.80066389830E+03 -0.62621741027E+03  0.18445824600E+03  0.10443310876E+04  0.15294330000E+03 0.  0.
    8880022    1    1    2    0    0 -0.80066389830E+03  0.62621741027E+03 -0.38512751886E+03  0.10976911140E+04  0.15294330000E+03 0.  0.
<mgrwt>
<rscale>  0 0.10279118E+04</rscale>
<asrwt>0</asrwt>
<pdfrwt beam="1">  1        1 0.14933484E+00 0.10279118E+04</pdfrwt>
<pdfrwt beam="2">  1       -1 0.18020704E+00 0.10279118E+04</pdfrwt>
<totfact> 0.33093646E+00</totfact>
</mgrwt>
</event>
<event>
 4    1  0.2731969E-009  0.1061164E+04  0.7818608E-02  0.9243894E-01
          1   -1    0    0  501    0  0.00000000000E+00  0.00000000000E+00  0.18539287400E+04  0.18539287400E+04  0.50400000000E-02 0. -1.
         -1   -1    0    0    0  501 -0.00000000000E+00 -0.00000000000E+00 -0.62039011740E+03  0.62039011742E+03  0.50400000000E-02 0.  1.
    8880022    1    1    2    0    0  0.11352972442E+03 -0.10439288348E+04  0.43771937253E+03  0.11478964729E+04  0.15294330000E+03 0.  0.
    8880022    1    1    2    0    0 -0.11352972442E+03  0.10439288348E+04  0.79581925001E+03  0.13264223845E+04  0.15294330000E+03 0.  0.
<mgrwt>
<rscale>  0 0.10611635E+04</rscale>
<asrwt>0</asrwt>
<pdfrwt beam="1">  1        1 0.28521980E+00 0.10611635E+04</pdfrwt>
<pdfrwt beam="2">  1       -1 0.95444634E-01 0.10611635E+04</pdfrwt>
<totfact> 0.39735249E+00</totfact>
</mgrwt>
</event>
<event>
 4    1  0.2731969E-009  0.1576976E+04  0.7818608E-02  0.8834818E-01
         -1   -1    0    0    0  501 -0.00000000000E+00  0.00000000000E+00  0.14198868038E+04  0.14198868038E+04  0.50400000000E-02 0.  1.
          1   -1    0    0  501    0  0.00000000000E+00 -0.00000000000E+00 -0.18738959272E+04  0.18738959272E+04  0.50400000000E-02 0. -1.
    8880022    1    1    2    0    0 -0.71247218531E+03 -0.13985158264E+04  0.19398548923E+03  0.15888628495E+04  0.15294330000E+03 0.  0.
    8880022    1    1    2    0    0  0.71247218531E+03  0.13985158264E+04 -0.64799461264E+03  0.17049198816E+04  0.15294330000E+03 0.  0.
<mgrwt>
<rscale>  0 0.15769765E+04</rscale>
<asrwt>0</asrwt>
<pdfrwt beam="1">  1        1 0.28829168E+00 0.15769765E+04</pdfrwt>
<pdfrwt beam="2">  1       -1 0.21844412E+00 0.15769765E+04</pdfrwt>
<totfact> 0.38330866E-01</totfact>
</mgrwt>
</event>
<event>
 4    1  0.2731969E-009  0.4040567E+03  0.7818608E-02  0.1042384E+00
         -1   -1    0    0    0  501 -0.00000000000E+00  0.00000000000E+00  0.23239622236E+04  0.23239622236E+04  0.50400000000E-02 0.  1.
          1   -1    0    0  501    0  0.00000000000E+00 -0.00000000000E+00 -0.58658439402E+03  0.58658439404E+03  0.50400000000E-02 0. -1.
    8880022    1    1    2    0    0 -0.21529701271E+03  0.30580612689E+03 -0.49666175094E+03  0.64026146127E+03  0.15294330000E+03 0. -1.
    8880022    1    1    2    0    0  0.21529701271E+03 -0.30580612689E+03  0.22340395805E+04  0.22702851564E+04  0.15294330000E+03 0.  0.
<mgrwt>
<rscale>  0 0.40405673E+03</rscale>
<asrwt>0</asrwt>
<pdfrwt beam="1">  1        1 0.90243753E-01 0.40405673E+03</pdfrwt>
<pdfrwt beam="2">  1       -1 0.35753265E+00 0.40405673E+03</pdfrwt>
<totfact> 0.57684765E-01</totfact>
</mgrwt>
</event>
<event>
 4    1  0.2731969E-009  0.7383881E+03  0.7818608E-02  0.9653746E-01
          1   -1    0    0  501    0  0.00000000000E+00  0.00000000000E+00  0.11624048754E+04  0.11624048754E+04  0.50400000000E-02 0. -1.
         -1   -1    0    0    0  501 -0.00000000000E+00 -0.00000000000E+00 -0.64375060966E+03  0.64375060968E+03  0.50400000000E-02 0.  1.
    8880022    1    1    2    0    0 -0.10189927152E+03 -0.71515166617E+03  0.72978759574E+03  0.10381748191E+04  0.15294330000E+03 0.  0.
    8880022    1    1    2    0    0  0.10189927152E+03  0.71515166617E+03 -0.21113333004E+03  0.76798066592E+03  0.15294330000E+03 0.  0.
<mgrwt>
<rscale>  0 0.73838812E+03</rscale>
<asrwt>0</asrwt>
<pdfrwt beam="1">  1        1 0.17883152E+00 0.73838812E+03</pdfrwt>
<pdfrwt beam="2">  1       -1 0.99038556E-01 0.73838812E+03</pdfrwt>
<totfact> 0.11487716E+01</totfact>
</mgrwt>
</event>
<event>
 4    1  0.2731969E-009  0.9319551E+03  0.7818608E-02  0.9386495E-01
          1   -1    0    0  501    0  0.00000000000E+00  0.00000000000E+00  0.23013954278E+04  0.23013954278E+04  0.50400000000E-02 0. -1.
         -1   -1    0    0    0  501 -0.00000000000E+00 -0.00000000000E+00 -0.45786439222E+03  0.45786439225E+03  0.50400000000E-02 0.  1.
    8880022    1    1    2    0    0  0.91512560066E+03  0.87714292128E+02  0.15001324361E+04  0.17660514265E+04  0.15294330000E+03 0.  0.
    8880022    1    1    2    0    0 -0.91512560066E+03 -0.87714292128E+02  0.34339859952E+03  0.99320839363E+03  0.15294330000E+03 0.  0.
<mgrwt>
<rscale>  0 0.93195510E+03</rscale>
<asrwt>0</asrwt>
<pdfrwt beam="1">  1        1 0.35406083E+00 0.93195510E+03</pdfrwt>
<pdfrwt beam="2">  1       -1 0.70440677E-01 0.93195510E+03</pdfrwt>
<totfact> 0.38787358E+00</totfact>
</mgrwt>
</event>
<event>
 4    1  0.2731969E-009  0.8747882E+03  0.7818608E-02  0.9457658E-01
         -1   -1    0    0    0  501 -0.00000000000E+00  0.00000000000E+00  0.10130180220E+04  0.10130180220E+04  0.50400000000E-02 0.  1.
          1   -1    0    0  501    0  0.00000000000E+00 -0.00000000000E+00 -0.13872957377E+04  0.13872957377E+04  0.50400000000E-02 0. -1.
    8880022    1    1    2    0    0  0.25280737517E+03  0.82337787762E+03 -0.99710942753E+03  0.13264545080E+04  0.15294330000E+03 0.  0.
    8880022    1    1    2    0    0 -0.25280737517E+03 -0.82337787762E+03  0.62283171179E+03  0.10738592517E+04  0.15294330000E+03 0.  0.
<mgrwt>
<rscale>  0 0.87478818E+03</rscale>
<asrwt>0</asrwt>
<pdfrwt beam="1">  1        1 0.21343011E+00 0.87478818E+03</pdfrwt>
<pdfrwt beam="2">  1       -1 0.15584893E+00 0.87478818E+03</pdfrwt>
<totfact> 0.25216676E+00</totfact>
</mgrwt>
</event>
<event>
 4    1  0.2731969E-009  0.7211144E+03  0.7818608E-02  0.9681790E-01
         -1   -1    0    0    0  501 -0.00000000000E+00  0.00000000000E+00  0.21295120121E+03  0.21295120127E+03  0.50400000000E-02 0.  1.
          1   -1    0    0  501    0  0.00000000000E+00 -0.00000000000E+00 -0.25553030313E+04  0.25553030313E+04  0.50400000000E-02 0. -1.
    8880022    1    1    2    0    0 -0.42283776334E+03 -0.56375755247E+03 -0.14627593894E+04  0.16308497896E+04  0.15294330000E+03 0.  0.
    8880022    1    1    2    0    0  0.42283776334E+03  0.56375755247E+03 -0.87959244068E+03  0.11374044429E+04  0.15294330000E+03 0.  0.
<mgrwt>
<rscale>  0 0.72111442E+03</rscale>
<asrwt>0</asrwt>
<pdfrwt beam="1">  1        1 0.39312352E+00 0.72111442E+03</pdfrwt>
<pdfrwt beam="2">  1       -1 0.32761725E-01 0.72111442E+03</pdfrwt>
<totfact> 0.11456922E+01</totfact>
</mgrwt>
</event>
<event>
 4    1  0.2731969E-009  0.7528293E+03  0.7818608E-02  0.9630922E-01
          1   -1    0    0  501    0  0.00000000000E+00  0.00000000000E+00  0.15704274323E+04  0.15704274323E+04  0.50400000000E-02 0. -1.
         -1   -1    0    0    0  501 -0.00000000000E+00 -0.00000000000E+00 -0.97984586107E+03  0.97984586109E+03  0.50400000000E-02 0.  1.
    8880022    1    1    2    0    0 -0.58358494100E+03 -0.45032095572E+03  0.13087530598E+04  0.15098299809E+04  0.15294330000E+03 0.  0.
    8880022    1    1    2    0    0  0.58358494100E+03  0.45032095572E+03 -0.71817148860E+03  0.10404433125E+04  0.15294330000E+03 0.  0.
<mgrwt>
<rscale>  0 0.75282933E+03</rscale>
<asrwt>0</asrwt>
<pdfrwt beam="1">  1        1 0.24160422E+00 0.75282933E+03</pdfrwt>
<pdfrwt beam="2">  1       -1 0.15074552E+00 0.75282933E+03</pdfrwt>
<totfact> 0.21081697E+00</totfact>
</mgrwt>
</event>
<event>
 4    1  0.2731969E-009  0.6648082E+03  0.7818608E-02  0.9779383E-01
          1   -1    0    0  501    0  0.00000000000E+00  0.00000000000E+00  0.97031869047E+03  0.97031869048E+03  0.50400000000E-02 0. -1.
         -1   -1    0    0    0  501 -0.00000000000E+00 -0.00000000000E+00 -0.90455289868E+03  0.90455289869E+03  0.50400000000E-02 0.  1.
    8880022    1    1    2    0    0 -0.42232646124E+03  0.49012109474E+03  0.69339134046E+03  0.96060477378E+03  0.15294330000E+03 0.  0.
    8880022    1    1    2    0    0  0.42232646124E+03 -0.49012109474E+03 -0.62762554867E+03  0.91426681539E+03  0.15294330000E+03 0.  0.
<mgrwt>
<rscale>  0 0.66480823E+03</rscale>
<asrwt>0</asrwt>
<pdfrwt beam="1">  1        1 0.14927980E+00 0.66480823E+03</pdfrwt>
<pdfrwt beam="2">  1       -1 0.13916198E+00 0.66480823E+03</pdfrwt>
<totfact> 0.71261300E+00</totfact>
</mgrwt>
</event>
<event>
 4    1  0.2731969E-009  0.4099474E+03  0.7818608E-02  0.1040389E+00
          1   -1    0    0  501    0  0.00000000000E+00  0.00000000000E+00  0.13415668979E+04  0.13415668979E+04  0.50400000000E-02 0. -1.
         -1   -1    0    0    0  501 -0.00000000000E+00 -0.00000000000E+00 -0.33518086638E+03  0.33518086642E+03  0.50400000000E-02 0.  1.
    8880022    1    1    2    0    0  0.30630022210E+03  0.22548923395E+03  0.11666557368E+04  0.12365850079E+04  0.15294330000E+03 0.  0.
    8880022    1    1    2    0    0 -0.30630022210E+03 -0.22548923395E+03 -0.16026970524E+03  0.44016275640E+03  0.15294330000E+03 0.  0.
<mgrwt>
<rscale>  0 0.40994740E+03</rscale>
<asrwt>0</asrwt>
<pdfrwt beam="1">  1        1 0.20639491E+00 0.40994740E+03</pdfrwt>
<pdfrwt beam="2">  1       -1 0.51566287E-01 0.40994740E+03</pdfrwt>
<totfact> 0.34716914E+01</totfact>
</mgrwt>
</event>
<event>
 4    1  0.2731969E-009  0.4552906E+03  0.7818608E-02  0.1026156E+00
         -1   -1    0    0    0  501 -0.00000000000E+00  0.00000000000E+00  0.98218830397E+03  0.98218830398E+03  0.50400000000E-02 0.  1.
          1   -1    0    0  501    0  0.00000000000E+00 -0.00000000000E+00 -0.51486529128E+03  0.51486529131E+03  0.50400000000E-02 0. -1.
    8880022    1    1    2    0    0  0.31844646233E+03  0.28721017341E+03  0.80865952173E+03  0.92801923912E+03  0.15294330000E+03 0.  0.
    8880022    1    1    2    0    0 -0.31844646233E+03 -0.28721017341E+03 -0.34133650904E+03  0.56903435617E+03  0.15294330000E+03 0.  0.
<mgrwt>
<rscale>  0 0.45529055E+03</rscale>
<asrwt>0</asrwt>
<pdfrwt beam="1">  1        1 0.79210046E-01 0.45529055E+03</pdfrwt>
<pdfrwt beam="2">  1       -1 0.15110589E+00 0.45529055E+03</pdfrwt>
<totfact> 0.15622494E+01</totfact>
</mgrwt>
</event>
<event>
 4    1  0.2731969E-009  0.8040280E+03  0.7818608E-02  0.9554205E-01
          1   -1    0    0  501    0  0.00000000000E+00  0.00000000000E+00  0.23543897406E+04  0.23543897406E+04  0.50400000000E-02 0. -1.
         -1   -1    0    0    0  501 -0.00000000000E+00 -0.00000000000E+00 -0.94637011732E+03  0.94637011734E+03  0.50400000000E-02 0.  1.
    8880022    1    1    2    0    0  0.26190862586E+02  0.78891276161E+03 -0.68649098487E+03  0.10572278998E+04  0.15294330000E+03 0.  0.
    8880022    1    1    2    0    0 -0.26190862586E+02 -0.78891276161E+03  0.20945106082E+04  0.22435319582E+04  0.15294330000E+03 0.  0.
<mgrwt>
<rscale>  0 0.80402796E+03</rscale>
<asrwt>0</asrwt>
<pdfrwt beam="1">  1        1 0.36221380E+00 0.80402796E+03</pdfrwt>
<pdfrwt beam="2">  1       -1 0.14559541E+00 0.80402796E+03</pdfrwt>
<totfact> 0.68053942E-01</totfact>
</mgrwt>
</event>
<event>
 4    1  0.2731969E-009  0.1070564E+04  0.7818608E-02  0.9234367E-01
         -1   -1    0    0    0  501 -0.00000000000E+00  0.00000000000E+00  0.83672553890E+03  0.83672553892E+03  0.50400000000E-02 0.  1.
          1   -1    0    0  501    0  0.00000000000E+00 -0.00000000000E+00 -0.15179744829E+04  0.15179744829E+04  0.50400000000E-02 0. -1.
    8880022    1    1    2    0    0 -0.10545542321E+04 -0.10310866173E+03  0.27274269579E+02  0.10709115572E+04  0.15294330000E+03 0.  0.
    8880022    1    1    2    0    0  0.10545542321E+04  0.10310866173E+03 -0.70852321353E+03  0.12837884646E+04  0.15294330000E+03 0.  0.
<mgrwt>
<rscale>  0 0.10705642E+04</rscale>
<asrwt>0</asrwt>
<pdfrwt beam="1">  1        1 0.23353454E+00 0.10705642E+04</pdfrwt>
<pdfrwt beam="2">  1       -1 0.12872701E+00 0.10705642E+04</pdfrwt>
<totfact> 0.32940171E+00</totfact>
</mgrwt>
</event>
<event>
 4    1  0.2731969E-009  0.1891431E+04  0.7818608E-02  0.8659134E-01
         -1   -1    0    0    0  501 -0.00000000000E+00  0.00000000000E+00  0.17351578615E+04  0.17351578615E+04  0.50400000000E-02 0.  1.
          1   -1    0    0  501    0  0.00000000000E+00 -0.00000000000E+00 -0.24243441201E+04  0.24243441201E+04  0.50400000000E-02 0. -1.
    8880022    1    1    2    0    0 -0.16116607797E+04 -0.97809446584E+03  0.45968750094E+03  0.19464900473E+04  0.15294330000E+03 0.  0.
    8880022    1    1    2    0    0  0.16116607797E+04  0.97809446584E+03 -0.11488737595E+04  0.22130119343E+04  0.15294330000E+03 0.  0.
<mgrwt>
<rscale>  0 0.18914309E+04</rscale>
<asrwt>0</asrwt>
<pdfrwt beam="1">  1        1 0.37297602E+00 0.18914309E+04</pdfrwt>
<pdfrwt beam="2">  1       -1 0.26694736E+00 0.18914309E+04</pdfrwt>
<totfact> 0.74435701E-02</totfact>
</mgrwt>
</event>
<event>
 4    1  0.2731969E-009  0.8112620E+03  0.7818608E-02  0.9543857E-01
         -1   -1    0    0    0  501 -0.00000000000E+00  0.00000000000E+00  0.33023228124E+03  0.33023228128E+03  0.50400000000E-02 0.  1.
          1   -1    0    0  501    0  0.00000000000E+00 -0.00000000000E+00 -0.24022775520E+04  0.24022775520E+04  0.50400000000E-02 0. -1.
    8880022    1    1    2    0    0 -0.77177624956E+02 -0.79296783329E+03 -0.15999721347E+04  0.17938943267E+04  0.15294330000E+03 0.  0.
    8880022    1    1    2    0    0  0.77177624956E+02  0.79296783329E+03 -0.47207313601E+03  0.93861550657E+03  0.15294330000E+03 0.  0.
<mgrwt>
<rscale>  0 0.81126199E+03</rscale>
<asrwt>0</asrwt>
<pdfrwt beam="1">  1        1 0.36958115E+00 0.81126199E+03</pdfrwt>
<pdfrwt beam="2">  1       -1 0.50804968E-01 0.81126199E+03</pdfrwt>
<totfact> 0.64376358E+00</totfact>
</mgrwt>
</event>
<event>
 4    1  0.2731969E-009  0.1594370E+04  0.7818608E-02  0.8824014E-01
         -1   -1    0    0    0  501 -0.00000000000E+00  0.00000000000E+00  0.14764452946E+04  0.14764452946E+04  0.50400000000E-02 0.  1.
          1   -1    0    0  501    0  0.00000000000E+00 -0.00000000000E+00 -0.21650608264E+04  0.21650608264E+04  0.50400000000E-02 0. -1.
    8880022    1    1    2    0    0  0.12544424682E+04  0.97211026196E+03  0.47961784575E+03  0.16649472059E+04  0.15294330000E+03 0.  0.
    8880022    1    1    2    0    0 -0.12544424682E+04 -0.97211026196E+03 -0.11682333775E+04  0.19765589151E+04  0.15294330000E+03 0.  0.
<mgrwt>
<rscale>  0 0.15943701E+04</rscale>
<asrwt>0</asrwt>
<pdfrwt beam="1">  1        1 0.33308628E+00 0.15943701E+04</pdfrwt>
<pdfrwt beam="2">  1       -1 0.22714543E+00 0.15943701E+04</pdfrwt>
<totfact> 0.21185437E-01</totfact>
</mgrwt>
</event>
<event>
 4    1  0.2731969E-009  0.7521296E+03  0.7818608E-02  0.9632015E-01
          1   -1    0    0  501    0  0.00000000000E+00  0.00000000000E+00  0.90401432050E+03  0.90401432051E+03  0.50400000000E-02 0. -1.
         -1   -1    0    0    0  501 -0.00000000000E+00 -0.00000000000E+00 -0.11144293370E+04  0.11144293370E+04  0.50400000000E-02 0.  1.
    8880022    1    1    2    0    0  0.12953835537E+03 -0.72493250864E+03  0.56308477628E+03  0.93955491904E+03  0.15294330000E+03 0.  0.
    8880022    1    1    2    0    0 -0.12953835537E+03  0.72493250864E+03 -0.77349979280E+03  0.10788887385E+04  0.15294330000E+03 0.  0.
<mgrwt>
<rscale>  0 0.75212963E+03</rscale>
<asrwt>0</asrwt>
<pdfrwt beam="1">  1        1 0.13907913E+00 0.75212963E+03</pdfrwt>
<pdfrwt beam="2">  1       -1 0.17145067E+00 0.75212963E+03</pdfrwt>
<totfact> 0.44945085E+00</totfact>
</mgrwt>
</event>
<event>
 4    1  0.2731969E-009  0.1101232E+04  0.7818608E-02  0.9203992E-01
         -1   -1    0    0    0  501 -0.00000000000E+00  0.00000000000E+00  0.16682198131E+04  0.16682198131E+04  0.50400000000E-02 0.  1.
          1   -1    0    0  501    0  0.00000000000E+00 -0.00000000000E+00 -0.11937710905E+04  0.11937710905E+04  0.50400000000E-02 0. -1.
    8880022    1    1    2    0    0  0.84867928648E+03 -0.68488293449E+03  0.11320797147E+04  0.15793407798E+04  0.15294330000E+03 0.  0.
    8880022    1    1    2    0    0 -0.84867928648E+03  0.68488293449E+03 -0.65763099212E+03  0.12826501238E+04  0.15294330000E+03 0.  0.
<mgrwt>
<rscale>  0 0.11012324E+04</rscale>
<asrwt>0</asrwt>
<pdfrwt beam="1">  1        1 0.18365709E+00 0.11012324E+04</pdfrwt>
<pdfrwt beam="2">  1       -1 0.25664920E+00 0.11012324E+04</pdfrwt>
<totfact> 0.67770626E-01</totfact>
</mgrwt>
</event>
<event>
 4    1  0.2731969E-009  0.4483091E+03  0.7818608E-02  0.1028227E+00
         -1   -1    0    0    0  501 -0.00000000000E+00  0.00000000000E+00  0.10687265220E+04  0.10687265221E+04  0.50400000000E-02 0.  1.
          1   -1    0    0  501    0  0.00000000000E+00 -0.00000000000E+00 -0.57335306195E+03  0.57335306197E+03  0.50400000000E-02 0. -1.
    8880022    1    1    2    0    0  0.30931710052E+03  0.28620326995E+03 -0.42536844960E+03  0.61799623893E+03  0.15294330000E+03 0.  0.
    8880022    1    1    2    0    0 -0.30931710052E+03 -0.28620326995E+03  0.92074190970E+03  0.10240833451E+04  0.15294330000E+03 0.  0.
<mgrwt>
<rscale>  0 0.44830908E+03</rscale>
<asrwt>0</asrwt>
<pdfrwt beam="1">  1        1 0.88208164E-01 0.44830908E+03</pdfrwt>
<pdfrwt beam="2">  1       -1 0.16441946E+00 0.44830908E+03</pdfrwt>
<totfact> 0.10712123E+01</totfact>
</mgrwt>
</event>
<event>
 4    1  0.2731969E-009  0.5981197E+03  0.7818608E-02  0.9909315E-01
         -1   -1    0    0    0  501 -0.00000000000E+00  0.00000000000E+00  0.10435227606E+04  0.10435227606E+04  0.50400000000E-02 0.  1.
          1   -1    0    0  501    0  0.00000000000E+00 -0.00000000000E+00 -0.46046325220E+03  0.46046325223E+03  0.50400000000E-02 0. -1.
    8880022    1    1    2    0    0  0.15956229992E+03 -0.55578354928E+03 -0.88561643889E+02  0.60464063624E+03  0.15294330000E+03 0.  0.
    8880022    1    1    2    0    0 -0.15956229992E+03  0.55578354928E+03  0.67162115227E+03  0.89934537659E+03  0.15294330000E+03 0.  0.
<mgrwt>
<rscale>  0 0.59811967E+03</rscale>
<asrwt>0</asrwt>
<pdfrwt beam="1">  1        1 0.70840501E-01 0.59811967E+03</pdfrwt>
<pdfrwt beam="2">  1       -1 0.16054196E+00 0.59811967E+03</pdfrwt>
<totfact> 0.15055674E+01</totfact>
</mgrwt>
</event>
<event>
 4    1  0.2731969E-009  0.3007597E+03  0.7818608E-02  0.1084861E+00
          1   -1    0    0  501    0  0.00000000000E+00  0.00000000000E+00  0.99359660205E+03  0.99359660206E+03  0.50400000000E-02 0. -1.
         -1   -1    0    0    0  501 -0.00000000000E+00 -0.00000000000E+00 -0.50728770007E+03  0.50728770009E+03  0.50400000000E-02 0.  1.
    8880022    1    1    2    0    0 -0.32028436996E+02 -0.25698039040E+03 -0.43662230880E+03  0.53018434095E+03  0.15294330000E+03 0.  0.
    8880022    1    1    2    0    0  0.32028436996E+02  0.25698039040E+03  0.92293121079E+03  0.97069996121E+03  0.15294330000E+03 0.  0.
<mgrwt>
<rscale>  0 0.30075970E+03</rscale>
<asrwt>0</asrwt>
<pdfrwt beam="1">  1        1 0.15286102E+00 0.30075970E+03</pdfrwt>
<pdfrwt beam="2">  1       -1 0.78044262E-01 0.30075970E+03</pdfrwt>
<totfact> 0.28007269E+01</totfact>
</mgrwt>
</event>
<event>
 4    1  0.2731969E-009  0.8601312E+03  0.7818608E-02  0.9476839E-01
          1   -1    0    0  501    0  0.00000000000E+00  0.00000000000E+00  0.13048504487E+04  0.13048504488E+04  0.50400000000E-02 0. -1.
         -1   -1    0    0    0  501 -0.00000000000E+00 -0.00000000000E+00 -0.67105289269E+03  0.67105289271E+03  0.50400000000E-02 0.  1.
    8880022    1    1    2    0    0  0.82768776684E+03 -0.17710735218E+03 -0.72167490243E+02  0.86315343551E+03  0.15294330000E+03 0.  0.
    8880022    1    1    2    0    0 -0.82768776684E+03  0.17710735218E+03  0.70596504630E+03  0.11127499059E+04  0.15294330000E+03 0.  0.
<mgrwt>
<rscale>  0 0.86013121E+03</rscale>
<asrwt>0</asrwt>
<pdfrwt beam="1">  1        1 0.20074622E+00 0.86013121E+03</pdfrwt>
<pdfrwt beam="2">  1       -1 0.10323891E+00 0.86013121E+03</pdfrwt>
<totfact> 0.81135032E+00</totfact>
</mgrwt>
</event>
<event>
 4    1  0.2731969E-009  0.6445604E+03  0.7818608E-02  0.9817040E-01
          1   -1    0    0  501    0  0.00000000000E+00  0.00000000000E+00  0.44817792093E+03  0.44817792096E+03  0.50400000000E-02 0. -1.
         -1   -1    0    0    0  501 -0.00000000000E+00 -0.00000000000E+00 -0.12009421953E+04  0.12009421953E+04  0.50400000000E-02 0.  1.
    8880022    1    1    2    0    0  0.93651708727E+02  0.61910885111E+03  0.17436059600E+02  0.64479615481E+03  0.15294330000E+03 0.  0.
    8880022    1    1    2    0    0 -0.93651708727E+02 -0.61910885111E+03 -0.77020033392E+03  0.10043239614E+04  0.15294330000E+03 0.  0.
<mgrwt>
<rscale>  0 0.64456037E+03</rscale>
<asrwt>0</asrwt>
<pdfrwt beam="1">  1        1 0.68950450E-01 0.64456037E+03</pdfrwt>
<pdfrwt beam="2">  1       -1 0.18476034E+00 0.64456037E+03</pdfrwt>
<totfact> 0.10355970E+01</totfact>
</mgrwt>
</event>
<event>
 4    1  0.2731969E-009  0.5145124E+03  0.7818608E-02  0.1010059E+00
          1   -1    0    0  501    0  0.00000000000E+00  0.00000000000E+00  0.21179461804E+04  0.21179461804E+04  0.50400000000E-02 0. -1.
         -1   -1    0    0    0  501 -0.00000000000E+00 -0.00000000000E+00 -0.19546317950E+03  0.19546317956E+03  0.50400000000E-02 0.  1.
    8880022    1    1    2    0    0 -0.47343412794E+03 -0.13111629983E+03  0.26669614512E+03  0.57952553388E+03  0.15294330000E+03 0.  0.
    8880022    1    1    2    0    0  0.47343412794E+03  0.13111629983E+03  0.16557868558E+04  0.17338838261E+04  0.15294330000E+03 0.  0.
<mgrwt>
<rscale>  0 0.51451240E+03</rscale>
<asrwt>0</asrwt>
<pdfrwt beam="1">  1        1 0.32583785E+00 0.51451240E+03</pdfrwt>
<pdfrwt beam="2">  1       -1 0.30071261E-01 0.51451240E+03</pdfrwt>
<totfact> 0.27214382E+01</totfact>
</mgrwt>
</event>
<event>
 4    1  0.2731969E-009  0.5199581E+03  0.7818608E-02  0.1008697E+00
          1   -1    0    0  501    0  0.00000000000E+00  0.00000000000E+00  0.24025262098E+04  0.24025262098E+04  0.50400000000E-02 0. -1.
         -1   -1    0    0    0  501 -0.00000000000E+00 -0.00000000000E+00 -0.38618734156E+03  0.38618734159E+03  0.50400000000E-02 0.  1.
    8880022    1    1    2    0    0  0.44121413192E+03 -0.22868080092E+03 -0.16558806731E+03  0.54568844588E+03  0.15294330000E+03 0.  0.
    8880022    1    1    2    0    0 -0.44121413192E+03  0.22868080092E+03  0.21819269355E+04  0.22430251055E+04  0.15294330000E+03 0.  0.
<mgrwt>
<rscale>  0 0.51995814E+03</rscale>
<asrwt>0</asrwt>
<pdfrwt beam="1">  1        1 0.36961941E+00 0.51995814E+03</pdfrwt>
<pdfrwt beam="2">  1       -1 0.59413438E-01 0.51995814E+03</pdfrwt>
<totfact> 0.50521033E+00</totfact>
</mgrwt>
</event>
<event>
 4    1  0.2731969E-009  0.3494751E+03  0.7818608E-02  0.1062831E+00
          1   -1    0    0  501    0  0.00000000000E+00  0.00000000000E+00  0.21458679379E+04  0.21458679379E+04  0.50400000000E-02 0. -1.
         -1   -1    0    0    0  501 -0.00000000000E+00 -0.00000000000E+00 -0.33319205098E+03  0.33319205101E+03  0.50400000000E-02 0.  1.
    8880022    1    1    2    0    0 -0.30555471495E+03 -0.73331432574E+02  0.20350465878E+04  0.20648359379E+04  0.15294330000E+03 0.  0.
    8880022    1    1    2    0    0  0.30555471495E+03  0.73331432574E+02 -0.22237070088E+03  0.41422405104E+03  0.15294330000E+03 0.  1.
<mgrwt>
<rscale>  0 0.34947509E+03</rscale>
<asrwt>0</asrwt>
<pdfrwt beam="1">  1        1 0.33013353E+00 0.34947509E+03</pdfrwt>
<pdfrwt beam="2">  1       -1 0.51260315E-01 0.34947509E+03</pdfrwt>
<totfact> 0.10457097E+01</totfact>
</mgrwt>
</event>
<event>
 4    1  0.2731969E-009  0.7551535E+03  0.7818608E-02  0.9627300E-01
         -1   -1    0    0    0  501 -0.00000000000E+00  0.00000000000E+00  0.42804877770E+03  0.42804877773E+03  0.50400000000E-02 0.  1.
          1   -1    0    0  501    0  0.00000000000E+00 -0.00000000000E+00 -0.28966226269E+04  0.28966226269E+04  0.50400000000E-02 0. -1.
    8880022    1    1    2    0    0 -0.86348284327E+02 -0.73444482152E+03 -0.24559360249E+04  0.25694121182E+04  0.15294330000E+03 0.  0.
    8880022    1    1    2    0    0  0.86348284327E+02  0.73444482152E+03 -0.12637824316E+02  0.75525928639E+03  0.15294330000E+03 0.  1.
<mgrwt>
<rscale>  0 0.75515354E+03</rscale>
<asrwt>0</asrwt>
<pdfrwt beam="1">  1        1 0.44563424E+00 0.75515354E+03</pdfrwt>
<pdfrwt beam="2">  1       -1 0.65853660E-01 0.75515354E+03</pdfrwt>
<totfact> 0.17799869E+00</totfact>
</mgrwt>
</event>
<event>
 4    1  0.2731969E-009  0.5719840E+03  0.7818608E-02  0.9965298E-01
          1   -1    0    0  501    0  0.00000000000E+00  0.00000000000E+00  0.16910326076E+04  0.16910326076E+04  0.50400000000E-02 0. -1.
         -1   -1    0    0    0  501 -0.00000000000E+00 -0.00000000000E+00 -0.39059460471E+03  0.39059460474E+03  0.50400000000E-02 0.  1.
    8880022    1    1    2    0    0 -0.34122787813E+03 -0.43282509102E+03 -0.89180608723E+02  0.57889451389E+03  0.15294330000E+03 0.  0.
    8880022    1    1    2    0    0  0.34122787813E+03  0.43282509102E+03  0.13896186116E+04  0.15027326984E+04  0.15294330000E+03 0.  0.
<mgrwt>
<rscale>  0 0.57198398E+03</rscale>
<asrwt>0</asrwt>
<pdfrwt beam="1">  1        1 0.26015886E+00 0.57198398E+03</pdfrwt>
<pdfrwt beam="2">  1       -1 0.60091478E-01 0.57198398E+03</pdfrwt>
<totfact> 0.14527558E+01</totfact>
</mgrwt>
</event>
<event>
 4    1  0.2731969E-009  0.3889156E+03  0.7818608E-02  0.1047687E+00
         -1   -1    0    0    0  501 -0.00000000000E+00  0.00000000000E+00  0.13461546727E+04  0.13461546728E+04  0.50400000000E-02 0.  1.
          1   -1    0    0  501    0  0.00000000000E+00 -0.00000000000E+00 -0.19958151198E+03  0.19958151204E+03  0.50400000000E-02 0. -1.
    8880022    1    1    2    0    0  0.54262737813E+02 -0.35343912204E+03  0.62364711137E+02  0.39388407929E+03  0.15294330000E+03 0.  0.
    8880022    1    1    2    0    0 -0.54262737813E+02  0.35343912204E+03  0.10842084496E+04  0.11518521055E+04  0.15294330000E+03 0.  0.
<mgrwt>
<rscale>  0 0.38891556E+03</rscale>
<asrwt>0</asrwt>
<pdfrwt beam="1">  1        1 0.30704849E-01 0.38891556E+03</pdfrwt>
<pdfrwt beam="2">  1       -1 0.20710071E+00 0.38891556E+03</pdfrwt>
<totfact> 0.21633236E+01</totfact>
</mgrwt>
</event>
<event>
 4    1  0.2731969E-009  0.1543186E+04  0.7818608E-02  0.8856232E-01
          1   -1    0    0  501    0  0.00000000000E+00  0.00000000000E+00  0.22476422039E+04  0.22476422039E+04  0.50400000000E-02 0. -1.
         -1   -1    0    0    0  501 -0.00000000000E+00 -0.00000000000E+00 -0.16265028470E+04  0.16265028470E+04  0.50400000000E-02 0.  1.
    8880022    1    1    2    0    0  0.10088579870E+04  0.11576862568E+04  0.14542460253E+04  0.21204374695E+04  0.15294330000E+03 0.  0.
    8880022    1    1    2    0    0 -0.10088579870E+04 -0.11576862568E+04 -0.83310666838E+03  0.17537075814E+04  0.15294330000E+03 0.  0.
<mgrwt>
<rscale>  0 0.15431862E+04</rscale>
<asrwt>0</asrwt>
<pdfrwt beam="1">  1        1 0.34579111E+00 0.15431862E+04</pdfrwt>
<pdfrwt beam="2">  1       -1 0.25023121E+00 0.15431862E+04</pdfrwt>
<totfact> 0.13174077E-01</totfact>
</mgrwt>
</event>
<event>
 4    1  0.2731969E-009  0.7870656E+03  0.7818608E-02  0.9578930E-01
          1   -1    0    0  501    0  0.00000000000E+00  0.00000000000E+00  0.16045969607E+04  0.16045969607E+04  0.50400000000E-02 0. -1.
         -1   -1    0    0    0  501 -0.00000000000E+00 -0.00000000000E+00 -0.54572359429E+03  0.54572359431E+03  0.50400000000E-02 0.  1.
    8880022    1    1    2    0    0 -0.32024052923E+03  0.70251443808E+03 -0.52115297876E+02  0.78878906531E+03  0.15294330000E+03 0.  0.
    8880022    1    1    2    0    0  0.32024052923E+03 -0.70251443808E+03  0.11109886642E+04  0.13615314897E+04  0.15294330000E+03 0.  0.
<mgrwt>
<rscale>  0 0.78706555E+03</rscale>
<asrwt>0</asrwt>
<pdfrwt beam="1">  1        1 0.24686107E+00 0.78706555E+03</pdfrwt>
<pdfrwt beam="2">  1       -1 0.83957476E-01 0.78706555E+03</pdfrwt>
<totfact> 0.80639793E+00</totfact>
</mgrwt>
</event>
<event>
 4    1  0.2731969E-009  0.1187427E+04  0.7818608E-02  0.9123934E-01
          1   -1    0    0  501    0  0.00000000000E+00  0.00000000000E+00  0.16489432192E+04  0.16489432192E+04  0.50400000000E-02 0. -1.
         -1   -1    0    0    0  501 -0.00000000000E+00 -0.00000000000E+00 -0.16463000084E+04  0.16463000084E+04  0.50400000000E-02 0.  1.
    8880022    1    1    2    0    0 -0.11772256422E+04 -0.27025923019E+02  0.11435447924E+04  0.16485378244E+04  0.15294330000E+03 0.  0.
    8880022    1    1    2    0    0  0.11772256422E+04  0.27025923019E+02 -0.11409015816E+04  0.16467054032E+04  0.15294330000E+03 0.  0.
<mgrwt>
<rscale>  0 0.11874267E+04</rscale>
<asrwt>0</asrwt>
<pdfrwt beam="1">  1        1 0.25368357E+00 0.11874267E+04</pdfrwt>
<pdfrwt beam="2">  1       -1 0.25327693E+00 0.11874267E+04</pdfrwt>
<totfact> 0.33703901E-01</totfact>
</mgrwt>
</event>
<event>
 4    1  0.2731969E-009  0.8866363E+03  0.7818608E-02  0.9442443E-01
         -1   -1    0    0    0  501 -0.00000000000E+00  0.00000000000E+00  0.62936334026E+03  0.62936334028E+03  0.50400000000E-02 0.  1.
          1   -1    0    0  501    0  0.00000000000E+00 -0.00000000000E+00 -0.12752783210E+04  0.12752783210E+04  0.50400000000E-02 0. -1.
    8880022    1    1    2    0    0  0.35887207157E+03  0.79620539515E+03 -0.45945817089E+03  0.99861186596E+03  0.15294330000E+03 0.  0.
    8880022    1    1    2    0    0 -0.35887207157E+03 -0.79620539515E+03 -0.18645680982E+03  0.90602979530E+03  0.15294330000E+03 0.  0.
<mgrwt>
<rscale>  0 0.88663625E+03</rscale>
<asrwt>0</asrwt>
<pdfrwt beam="1">  1        1 0.19619666E+00 0.88663625E+03</pdfrwt>
<pdfrwt beam="2">  1       -1 0.96825129E-01 0.88663625E+03</pdfrwt>
<totfact> 0.98294298E+00</totfact>
</mgrwt>
</event>
<event>
 4    1  0.2731969E-009  0.1687364E+04  0.7818608E-02  0.8768604E-01
         -1   -1    0    0    0  501 -0.00000000000E+00  0.00000000000E+00  0.15962595557E+04  0.15962595557E+04  0.50400000000E-02 0.  1.
          1   -1    0    0  501    0  0.00000000000E+00 -0.00000000000E+00 -0.34440442435E+04  0.34440442435E+04  0.50400000000E-02 0. -1.
    8880022    1    1    2    0    0 -0.56205221046E+03  0.15836356423E+04  0.82593696526E+03  0.18786612410E+04  0.15294330000E+03 0.  0.
    8880022    1    1    2    0    0  0.56205221046E+03 -0.15836356423E+04 -0.26737216530E+04  0.31616425582E+04  0.15294330000E+03 0.  0.
<mgrwt>
<rscale>  0 0.16873637E+04</rscale>
<asrwt>0</asrwt>
<pdfrwt beam="1">  1        1 0.52985296E+00 0.16873637E+04</pdfrwt>
<pdfrwt beam="2">  1       -1 0.24557839E+00 0.16873637E+04</pdfrwt>
<totfact> 0.19041182E-02</totfact>
</mgrwt>
</event>
<event>
 4    1  0.2731969E-009  0.9731625E+03  0.7818608E-02  0.9338480E-01
          1   -1    0    0  501    0  0.00000000000E+00  0.00000000000E+00  0.96181621288E+03  0.96181621289E+03  0.50400000000E-02 0. -1.
         -1   -1    0    0    0  501 -0.00000000000E+00 -0.00000000000E+00 -0.14780184113E+04  0.14780184114E+04  0.50400000000E-02 0.  1.
    8880022    1    1    2    0    0 -0.13779950019E+03 -0.95113874492E+03  0.44672077838E+03  0.10707963024E+04  0.15294330000E+03 0.  0.
    8880022    1    1    2    0    0  0.13779950019E+03  0.95113874492E+03 -0.96292297685E+03  0.13690383219E+04  0.15294330000E+03 0.  0.
<mgrwt>
<rscale>  0 0.97316251E+03</rscale>
<asrwt>0</asrwt>
<pdfrwt beam="1">  1        1 0.14797172E+00 0.97316251E+03</pdfrwt>
<pdfrwt beam="2">  1       -1 0.22738745E+00 0.97316251E+03</pdfrwt>
<totfact> 0.16089565E+00</totfact>
</mgrwt>
</event>
<event>
 4    1  0.2731969E-009  0.7458209E+03  0.7818608E-02  0.9641930E-01
          1   -1    0    0  501    0  0.00000000000E+00  0.00000000000E+00  0.99050363130E+03  0.99050363131E+03  0.50400000000E-02 0. -1.
         -1   -1    0    0    0  501 -0.00000000000E+00 -0.00000000000E+00 -0.81713048877E+03  0.81713048878E+03  0.50400000000E-02 0.  1.
    8880022    1    1    2    0    0 -0.34044687229E+03  0.64571909084E+03  0.59212889565E+03  0.95229485938E+03  0.15294330000E+03 0.  0.
    8880022    1    1    2    0    0  0.34044687229E+03 -0.64571909084E+03 -0.41875575312E+03  0.85533926071E+03  0.15294330000E+03 0.  1.
<mgrwt>
<rscale>  0 0.74582094E+03</rscale>
<asrwt>0</asrwt>
<pdfrwt beam="1">  1        1 0.15238517E+00 0.74582094E+03</pdfrwt>
<pdfrwt beam="2">  1       -1 0.12571238E+00 0.74582094E+03</pdfrwt>
<totfact> 0.87801282E+00</totfact>
</mgrwt>
</event>
<event>
 4    1  0.2731969E-009  0.5081132E+03  0.7818608E-02  0.1011683E+00
         -1   -1    0    0    0  501 -0.00000000000E+00  0.00000000000E+00  0.40101191955E+03  0.40101191958E+03  0.50400000000E-02 0.  1.
          1   -1    0    0  501    0  0.00000000000E+00 -0.00000000000E+00 -0.35113968693E+04  0.35113968693E+04  0.50400000000E-02 0. -1.
    8880022    1    1    2    0    0  0.47835743817E+03 -0.77210876010E+02 -0.33229874572E+04  0.33616104254E+04  0.15294330000E+03 0.  0.
    8880022    1    1    2    0    0 -0.47835743817E+03  0.77210876010E+02  0.21260250749E+03  0.55079836350E+03  0.15294330000E+03 0.  1.
<mgrwt>
<rscale>  0 0.50811319E+03</rscale>
<asrwt>0</asrwt>
<pdfrwt beam="1">  1        1 0.54021488E+00 0.50811319E+03</pdfrwt>
<pdfrwt beam="2">  1       -1 0.61694144E-01 0.50811319E+03</pdfrwt>
<totfact> 0.76536344E-01</totfact>
</mgrwt>
</event>
<event>
 4    1  0.2731969E-009  0.3832032E+03  0.7818608E-02  0.1049756E+00
         -1   -1    0    0    0  501 -0.00000000000E+00  0.00000000000E+00  0.26308089134E+03  0.26308089139E+03  0.50400000000E-02 0.  1.
          1   -1    0    0  501    0  0.00000000000E+00 -0.00000000000E+00 -0.56666279937E+03  0.56666279939E+03  0.50400000000E-02 0. -1.
    8880022    1    1    2    0    0  0.17072237969E+03  0.30709428988E+03 -0.10101047612E+03  0.39629257261E+03  0.15294330000E+03 0.  0.
    8880022    1    1    2    0    0 -0.17072237969E+03 -0.30709428988E+03 -0.20257143191E+03  0.43345111817E+03  0.15294330000E+03 0.  0.
<mgrwt>
<rscale>  0 0.38320319E+03</rscale>
<asrwt>0</asrwt>
<pdfrwt beam="1">  1        1 0.87178892E-01 0.38320319E+03</pdfrwt>
<pdfrwt beam="2">  1       -1 0.40473983E-01 0.38320319E+03</pdfrwt>
<totfact> 0.22974697E+02</totfact>
</mgrwt>
</event>
<event>
 4    1  0.2731969E-009  0.9491293E+03  0.7818608E-02  0.9366169E-01
         -1   -1    0    0    0  501 -0.00000000000E+00  0.00000000000E+00  0.20049946290E+04  0.20049946290E+04  0.50400000000E-02 0.  1.
          1   -1    0    0  501    0  0.00000000000E+00 -0.00000000000E+00 -0.65110296293E+03  0.65110296295E+03  0.50400000000E-02 0. -1.
    8880022    1    1    2    0    0  0.72252723935E+03  0.59616199854E+03 -0.62406977401E+02  0.95117875499E+03  0.15294330000E+03 0.  0.
    8880022    1    1    2    0    0 -0.72252723935E+03 -0.59616199854E+03  0.14162986434E+04  0.17049188369E+04  0.15294330000E+03 0.  0.
<mgrwt>
<rscale>  0 0.94912928E+03</rscale>
<asrwt>0</asrwt>
<pdfrwt beam="1">  1        1 0.10016969E+00 0.94912928E+03</pdfrwt>
<pdfrwt beam="2">  1       -1 0.30846071E+00 0.94912928E+03</pdfrwt>
<totfact> 0.90413196E-01</totfact>
</mgrwt>
</event>
<event>
 4    1  0.2731969E-009  0.1319684E+04  0.7818608E-02  0.9014100E-01
          1   -1    0    0  501    0  0.00000000000E+00  0.00000000000E+00  0.16985788868E+04  0.16985788868E+04  0.50400000000E-02 0. -1.
         -1   -1    0    0    0  501 -0.00000000000E+00 -0.00000000000E+00 -0.16326699374E+04  0.16326699375E+04  0.50400000000E-02 0.  1.
    8880022    1    1    2    0    0  0.10759414529E+04  0.74868164829E+03  0.10488564426E+04  0.16857240909E+04  0.15294330000E+03 0.  0.
    8880022    1    1    2    0    0 -0.10759414529E+04 -0.74868164829E+03 -0.98294749327E+03  0.16455247333E+04  0.15294330000E+03 0.  0.
<mgrwt>
<rscale>  0 0.13196840E+04</rscale>
<asrwt>0</asrwt>
<pdfrwt beam="1">  1        1 0.26131983E+00 0.13196840E+04</pdfrwt>
<pdfrwt beam="2">  1       -1 0.25117999E+00 0.13196840E+04</pdfrwt>
<totfact> 0.31587295E-01</totfact>
</mgrwt>
</event>
<event>
 4    1  0.2731969E-009  0.6652181E+03  0.7818608E-02  0.9778635E-01
         -1   -1    0    0    0  501 -0.00000000000E+00  0.00000000000E+00  0.12055017259E+04  0.12055017259E+04  0.50400000000E-02 0.  1.
          1   -1    0    0  501    0  0.00000000000E+00 -0.00000000000E+00 -0.49366596169E+03  0.49366596171E+03  0.50400000000E-02 0. -1.
    8880022    1    1    2    0    0 -0.37529977657E+03  0.52751642985E+03  0.78613037307E+03  0.10298136349E+04  0.15294330000E+03 0.  0.
    8880022    1    1    2    0    0  0.37529977657E+03 -0.52751642985E+03 -0.74294608845E+02  0.66935405278E+03  0.15294330000E+03 0.  0.
<mgrwt>
<rscale>  0 0.66521813E+03</rscale>
<asrwt>0</asrwt>
<pdfrwt beam="1">  1        1 0.75948609E-01 0.66521813E+03</pdfrwt>
<pdfrwt beam="2">  1       -1 0.18546180E+00 0.66521813E+03</pdfrwt>
<totfact> 0.89562776E+00</totfact>
</mgrwt>
</event>
<event>
 4    1  0.2731969E-009  0.1902893E+04  0.7818608E-02  0.8653418E-01
         -1   -1    0    0    0  501 -0.00000000000E+00  0.00000000000E+00  0.18885546234E+04  0.18885546234E+04  0.50400000000E-02 0.  1.
          1   -1    0    0  501    0  0.00000000000E+00 -0.00000000000E+00 -0.26639680952E+04  0.26639680952E+04  0.50400000000E-02 0. -1.
    8880022    1    1    2    0    0 -0.17238678060E+03 -0.18888862446E+04 -0.15927703365E+04  0.24815151511E+04  0.15294330000E+03 0.  0.
    8880022    1    1    2    0    0  0.17238678060E+03  0.18888862446E+04  0.81735686472E+03  0.20710075675E+04  0.15294330000E+03 0.  0.
<mgrwt>
<rscale>  0 0.19028926E+04</rscale>
<asrwt>0</asrwt>
<pdfrwt beam="1">  1        1 0.40984124E+00 0.19028926E+04</pdfrwt>
<pdfrwt beam="2">  1       -1 0.29054687E+00 0.19028926E+04</pdfrwt>
<totfact> 0.35491510E-02</totfact>
</mgrwt>
</event>
<event>
 4    1  0.2731969E-009  0.1390331E+04  0.7818608E-02  0.8960847E-01
          1   -1    0    0  501    0  0.00000000000E+00  0.00000000000E+00  0.25502847936E+04  0.25502847936E+04  0.50400000000E-02 0. -1.
         -1   -1    0    0    0  501 -0.00000000000E+00 -0.00000000000E+00 -0.13519942664E+04  0.13519942664E+04  0.50400000000E-02 0.  1.
    8880022    1    1    2    0    0  0.12330590823E+04  0.62385375251E+03 -0.69417413700E+03  0.15539940767E+04  0.15294330000E+03 0.  0.
    8880022    1    1    2    0    0 -0.12330590823E+04 -0.62385375251E+03  0.18924646642E+04  0.23482849834E+04  0.15294330000E+03 0.  0.
<mgrwt>
<rscale>  0 0.13903308E+04</rscale>
<asrwt>0</asrwt>
<pdfrwt beam="1">  1        1 0.39235151E+00 0.13903308E+04</pdfrwt>
<pdfrwt beam="2">  1       -1 0.20799912E+00 0.13903308E+04</pdfrwt>
<totfact> 0.15898981E-01</totfact>
</mgrwt>
</event>
<event>
 4    1  0.2731969E-009  0.1638322E+04  0.7818608E-02  0.8797345E-01
          1   -1    0    0  501    0  0.00000000000E+00  0.00000000000E+00  0.12396556821E+04  0.12396556821E+04  0.50400000000E-02 0. -1.
         -1   -1    0    0    0  501 -0.00000000000E+00 -0.00000000000E+00 -0.41259182594E+04  0.41259182594E+04  0.50400000000E-02 0.  1.
    8880022    1    1    2    0    0 -0.14616231732E+04 -0.72413142333E+03 -0.32925432953E+04  0.36776271729E+04  0.15294330000E+03 0.  0.
    8880022    1    1    2    0    0  0.14616231732E+04  0.72413142333E+03  0.40628071807E+03  0.16879467686E+04  0.15294330000E+03 0.  0.
<mgrwt>
<rscale>  0 0.16383224E+04</rscale>
<asrwt>0</asrwt>
<pdfrwt beam="1">  1        1 0.19071626E+00 0.16383224E+04</pdfrwt>
<pdfrwt beam="2">  1       -1 0.63475665E+00 0.16383224E+04</pdfrwt>
<totfact> 0.29672792E-03</totfact>
</mgrwt>
</event>
<event>
 4    1  0.2731969E-009  0.9220652E+03  0.7818608E-02  0.9398412E-01
          1   -1    0    0  501    0  0.00000000000E+00  0.00000000000E+00  0.68281533233E+03  0.68281533235E+03  0.50400000000E-02 0. -1.
         -1   -1    0    0    0  501 -0.00000000000E+00 -0.00000000000E+00 -0.16969051358E+04  0.16969051358E+04  0.50400000000E-02 0.  1.
    8880022    1    1    2    0    0  0.47400724504E+03  0.77597018551E+03 -0.11209779512E+04  0.14514805604E+04  0.15294330000E+03 0.  0.
    8880022    1    1    2    0    0 -0.47400724504E+03 -0.77597018551E+03  0.10688814774E+03  0.92823990773E+03  0.15294330000E+03 0.  0.
<mgrwt>
<rscale>  0 0.92206521E+03</rscale>
<asrwt>0</asrwt>
<pdfrwt beam="1">  1        1 0.10504851E+00 0.92206521E+03</pdfrwt>
<pdfrwt beam="2">  1       -1 0.26106233E+00 0.92206521E+03</pdfrwt>
<totfact> 0.17041496E+00</totfact>
</mgrwt>
</event>
<event>
 4    1  0.2731969E-009  0.9175768E+03  0.7818608E-02  0.9403872E-01
          1   -1    0    0  501    0  0.00000000000E+00  0.00000000000E+00  0.13325559467E+04  0.13325559467E+04  0.50400000000E-02 0. -1.
         -1   -1    0    0    0  501 -0.00000000000E+00 -0.00000000000E+00 -0.76425360278E+03  0.76425360279E+03  0.50400000000E-02 0.  1.
    8880022    1    1    2    0    0  0.90438917022E+03  0.25213722634E+02  0.72056147464E+03  0.11666859024E+04  0.15294330000E+03 0.  0.
    8880022    1    1    2    0    0 -0.90438917022E+03 -0.25213722634E+02 -0.15225913074E+03  0.93012364712E+03  0.15294330000E+03 0.  0.
<mgrwt>
<rscale>  0 0.91757678E+03</rscale>
<asrwt>0</asrwt>
<pdfrwt beam="1">  1        1 0.20500861E+00 0.91757678E+03</pdfrwt>
<pdfrwt beam="2">  1       -1 0.11757748E+00 0.91757678E+03</pdfrwt>
<totfact> 0.56593908E+00</totfact>
</mgrwt>
</event>
<event>
 4    1  0.2731969E-009  0.2653314E+03  0.7818608E-02  0.1103982E+00
         -1   -1    0    0    0  501 -0.00000000000E+00  0.00000000000E+00  0.34861731429E+02  0.34861731794E+02  0.50400000000E-02 0.  1.
          1   -1    0    0  501    0  0.00000000000E+00 -0.00000000000E+00 -0.36083923061E+04  0.36083923062E+04  0.50400000000E-02 0. -1.
    8880022    1    1    2    0    0  0.19437436453E+03  0.96061047399E+02 -0.57795095892E+03  0.63594660337E+03  0.15294330000E+03 0.  0.
    8880022    1    1    2    0    0 -0.19437436453E+03 -0.96061047399E+02 -0.29955796158E+04  0.30073074346E+04  0.15294330000E+03 0.  0.
<mgrwt>
<rscale>  0 0.26533144E+03</rscale>
<asrwt>0</asrwt>
<pdfrwt beam="1">  1        1 0.55513698E+00 0.26533144E+03</pdfrwt>
<pdfrwt beam="2">  1       -1 0.53633462E-02 0.26533144E+03</pdfrwt>
<totfact> 0.41139022E+01</totfact>
</mgrwt>
</event>
<event>
 4    1  0.2731969E-009  0.1641770E+04  0.7818608E-02  0.8795290E-01
         -1   -1    0    0    0  501 -0.00000000000E+00  0.00000000000E+00  0.12116662377E+04  0.12116662377E+04  0.50400000000E-02 0.  1.
          1   -1    0    0  501    0  0.00000000000E+00 -0.00000000000E+00 -0.34988143173E+04  0.34988143173E+04  0.50400000000E-02 0. -1.
    8880022    1    1    2    0    0 -0.82039441621E+03  0.14138496433E+04  0.27778863896E+03  0.16651054000E+04  0.15294330000E+03 0.  0.
    8880022    1    1    2    0    0  0.82039441621E+03 -0.14138496433E+04 -0.25649367185E+04  0.30453751550E+04  0.15294330000E+03 0.  0.
<mgrwt>
<rscale>  0 0.16417702E+04</rscale>
<asrwt>0</asrwt>
<pdfrwt beam="1">  1        1 0.53827912E+00 0.16417702E+04</pdfrwt>
<pdfrwt beam="2">  1       -1 0.18641019E+00 0.16417702E+04</pdfrwt>
<totfact> 0.43837862E-02</totfact>
</mgrwt>
</event>
<event>
 4    1  0.2731969E-009  0.1084305E+04  0.7818608E-02  0.9220626E-01
          1   -1    0    0  501    0  0.00000000000E+00  0.00000000000E+00  0.30231183177E+04  0.30231183177E+04  0.50400000000E-02 0. -1.
         -1   -1    0    0    0  501 -0.00000000000E+00 -0.00000000000E+00 -0.41677338555E+03  0.41677338558E+03  0.50400000000E-02 0.  1.
    8880022    1    1    2    0    0 -0.30954871418E+03  0.10278644380E+04  0.17478968713E+04  0.20569056457E+04  0.15294330000E+03 0.  0.
    8880022    1    1    2    0    0  0.30954871418E+03 -0.10278644380E+04  0.85844806082E+03  0.13829860576E+04  0.15294330000E+03 0.  0.
<mgrwt>
<rscale>  0 0.10843050E+04</rscale>
<asrwt>0</asrwt>
<pdfrwt beam="1">  1        1 0.46509513E+00 0.10843050E+04</pdfrwt>
<pdfrwt beam="2">  1       -1 0.64118982E-01 0.10843050E+04</pdfrwt>
<totfact> 0.14403462E+00</totfact>
</mgrwt>
</event>
<event>
 4    1  0.2731969E-009  0.1134174E+04  0.7818608E-02  0.9172510E-01
          1   -1    0    0  501    0  0.00000000000E+00  0.00000000000E+00  0.11630530433E+04  0.11630530433E+04  0.50400000000E-02 0. -1.
         -1   -1    0    0    0  501 -0.00000000000E+00 -0.00000000000E+00 -0.11657555605E+04  0.11657555605E+04  0.50400000000E-02 0.  1.
    8880022    1    1    2    0    0 -0.42788129676E+03  0.10391706443E+04  0.26225063999E+03  0.11640983993E+04  0.15294330000E+03 0.  0.
    8880022    1    1    2    0    0  0.42788129676E+03 -0.10391706443E+04 -0.26495315715E+03  0.11647102045E+04  0.15294330000E+03 0.  0.
<mgrwt>
<rscale>  0 0.11341736E+04</rscale>
<asrwt>0</asrwt>
<pdfrwt beam="1">  1        1 0.17893124E+00 0.11341736E+04</pdfrwt>
<pdfrwt beam="2">  1       -1 0.17934701E+00 0.11341736E+04</pdfrwt>
<totfact> 0.23637407E+00</totfact>
</mgrwt>
</event>
<event>
 4    1  0.2731969E-009  0.3525920E+03  0.7818608E-02  0.1061556E+00
         -1   -1    0    0    0  501 -0.00000000000E+00  0.00000000000E+00  0.69674762951E+03  0.69674762953E+03  0.50400000000E-02 0.  1.
          1   -1    0    0  501    0  0.00000000000E+00 -0.00000000000E+00 -0.31438978914E+04  0.31438978914E+04  0.50400000000E-02 0. -1.
    8880022    1    1    2    0    0 -0.53215055492E+02 -0.31320542566E+03 -0.30886083792E+04  0.31086689843E+04  0.15294330000E+03 0. -1.
    8880022    1    1    2    0    0  0.53215055492E+02  0.31320542566E+03  0.64145811736E+03  0.73197653660E+03  0.15294330000E+03 0.  0.
<mgrwt>
<rscale>  0 0.35259202E+03</rscale>
<asrwt>0</asrwt>
<pdfrwt beam="1">  1        1 0.48367659E+00 0.35259202E+03</pdfrwt>
<pdfrwt beam="2">  1       -1 0.10719194E+00 0.35259202E+03</pdfrwt>
<totfact> 0.47716493E-01</totfact>
</mgrwt>
</event>
<event>
 4    1  0.2731969E-009  0.1228617E+04  0.7818608E-02  0.9088170E-01
          1   -1    0    0  501    0  0.00000000000E+00  0.00000000000E+00  0.45119376978E+04  0.45119376978E+04  0.50400000000E-02 0. -1.
         -1   -1    0    0    0  501 -0.00000000000E+00 -0.00000000000E+00 -0.83522672633E+03  0.83522672634E+03  0.50400000000E-02 0.  1.
    8880022    1    1    2    0    0 -0.11324646870E+04  0.45125646793E+03 -0.23162866226E+03  0.12502608357E+04  0.15294330000E+03 0.  0.
    8880022    1    1    2    0    0  0.11324646870E+04 -0.45125646793E+03  0.39083396338E+04  0.40969035885E+04  0.15294330000E+03 0.  0.
<mgrwt>
<rscale>  0 0.12286172E+04</rscale>
<asrwt>0</asrwt>
<pdfrwt beam="1">  1        1 0.69414425E+00 0.12286172E+04</pdfrwt>
<pdfrwt beam="2">  1       -1 0.12849642E+00 0.12286172E+04</pdfrwt>
<totfact> 0.16706952E-02</totfact>
</mgrwt>
</event>
<event>
 4    1  0.2731969E-009  0.1608778E+04  0.7818608E-02  0.8815173E-01
         -1   -1    0    0    0  501 -0.00000000000E+00  0.00000000000E+00  0.20625084757E+04  0.20625084757E+04  0.50400000000E-02 0.  1.
          1   -1    0    0  501    0  0.00000000000E+00 -0.00000000000E+00 -0.23050102340E+04  0.23050102340E+04  0.50400000000E-02 0. -1.
    8880022    1    1    2    0    0  0.15407151118E+04  0.43700486570E+03  0.13527346044E+04  0.21019179031E+04  0.15294330000E+03 0.  0.
    8880022    1    1    2    0    0 -0.15407151118E+04 -0.43700486570E+03 -0.15952363627E+04  0.22656008065E+04  0.15294330000E+03 0.  0.
<mgrwt>
<rscale>  0 0.16087784E+04</rscale>
<asrwt>0</asrwt>
<pdfrwt beam="1">  1        1 0.35461696E+00 0.16087784E+04</pdfrwt>
<pdfrwt beam="2">  1       -1 0.31730899E+00 0.16087784E+04</pdfrwt>
<totfact> 0.43745877E-02</totfact>
</mgrwt>
</event>
<event>
 4    1  0.2731969E-009  0.1850329E+04  0.7818608E-02  0.8679984E-01
          1   -1    0    0  501    0  0.00000000000E+00  0.00000000000E+00  0.43152552856E+04  0.43152552856E+04  0.50400000000E-02 0. -1.
         -1   -1    0    0    0  501 -0.00000000000E+00 -0.00000000000E+00 -0.13764410490E+04  0.13764410490E+04  0.50400000000E-02 0.  1.
    8880022    1    1    2    0    0 -0.14980444974E+04 -0.10752614227E+04 -0.38277261030E+03  0.18895054823E+04  0.15294330000E+03 0.  0.
    8880022    1    1    2    0    0  0.14980444974E+04  0.10752614227E+04  0.33215868469E+04  0.38021908524E+04  0.15294330000E+03 0.  0.
<mgrwt>
<rscale>  0 0.18503286E+04</rscale>
<asrwt>0</asrwt>
<pdfrwt beam="1">  1        1 0.66388542E+00 0.18503286E+04</pdfrwt>
<pdfrwt beam="2">  1       -1 0.21176016E+00 0.18503286E+04</pdfrwt>
<totfact> 0.56180933E-03</totfact>
</mgrwt>
</event>
<event>
 4    1  0.2731969E-009  0.1223514E+04  0.7818608E-02  0.9092520E-01
         -1   -1    0    0    0  501 -0.00000000000E+00  0.00000000000E+00  0.18379625675E+04  0.18379625675E+04  0.50400000000E-02 0.  1.
          1   -1    0    0  501    0  0.00000000000E+00 -0.00000000000E+00 -0.13969668547E+04  0.13969668547E+04  0.50400000000E-02 0. -1.
    8880022    1    1    2    0    0 -0.10513597186E+04 -0.60682558178E+03  0.12649398659E+04  0.17598463177E+04  0.15294330000E+03 0.  0.
    8880022    1    1    2    0    0  0.10513597186E+04  0.60682558178E+03 -0.82394415310E+03  0.14750831045E+04  0.15294330000E+03 0.  0.
<mgrwt>
<rscale>  0 0.12235139E+04</rscale>
<asrwt>0</asrwt>
<pdfrwt beam="1">  1        1 0.21491798E+00 0.12235139E+04</pdfrwt>
<pdfrwt beam="2">  1       -1 0.28276347E+00 0.12235139E+04</pdfrwt>
<totfact> 0.32301993E-01</totfact>
</mgrwt>
</event>
<event>
 4    1  0.2731969E-009  0.5894441E+03  0.7818608E-02  0.9927551E-01
         -1   -1    0    0    0  501 -0.00000000000E+00  0.00000000000E+00  0.22429085677E+04  0.22429085677E+04  0.50400000000E-02 0.  1.
          1   -1    0    0  501    0  0.00000000000E+00 -0.00000000000E+00 -0.11533942926E+04  0.11533942926E+04  0.50400000000E-02 0. -1.
    8880022    1    1    2    0    0 -0.49175687909E+03  0.28675411712E+03  0.21247625589E+04  0.22050080128E+04  0.15294330000E+03 0.  0.
    8880022    1    1    2    0    0  0.49175687909E+03 -0.28675411712E+03 -0.10352482837E+04  0.11912948476E+04  0.15294330000E+03 0.  0.
<mgrwt>
<rscale>  0 0.58944415E+03</rscale>
<asrwt>0</asrwt>
<pdfrwt beam="1">  1        1 0.17744528E+00 0.58944415E+03</pdfrwt>
<pdfrwt beam="2">  1       -1 0.34506285E+00 0.58944415E+03</pdfrwt>
<totfact> 0.21782193E-01</totfact>
</mgrwt>
</event>
<event>
 4    1  0.2731969E-009  0.3815199E+03  0.7818608E-02  0.1050373E+00
          1   -1    0    0  501    0  0.00000000000E+00  0.00000000000E+00  0.14450454133E+04  0.14450454134E+04  0.50400000000E-02 0. -1.
         -1   -1    0    0    0  501 -0.00000000000E+00 -0.00000000000E+00 -0.30927290673E+03  0.30927290677E+03  0.50400000000E-02 0.  1.
    8880022    1    1    2    0    0  0.44500128908E+02 -0.34667783898E+03  0.12881749628E+04  0.13434850849E+04  0.15294330000E+03 0.  0.
    8880022    1    1    2    0    0 -0.44500128908E+02  0.34667783898E+03 -0.15240245618E+03  0.41083323524E+03  0.15294330000E+03 0.  0.
<mgrwt>
<rscale>  0 0.38151991E+03</rscale>
<asrwt>0</asrwt>
<pdfrwt beam="1">  1        1 0.22231468E+00 0.38151991E+03</pdfrwt>
<pdfrwt beam="2">  1       -1 0.47580448E-01 0.38151991E+03</pdfrwt>
<totfact> 0.34515969E+01</totfact>
</mgrwt>
</event>
<event>
 4    1  0.2731969E-009  0.9066125E+03  0.7818608E-02  0.9417353E-01
         -1   -1    0    0    0  501 -0.00000000000E+00  0.00000000000E+00  0.55125071360E+03  0.55125071362E+03  0.50400000000E-02 0.  1.
          1   -1    0    0  501    0  0.00000000000E+00 -0.00000000000E+00 -0.23678011101E+04  0.23678011101E+04  0.50400000000E-02 0. -1.
    8880022    1    1    2    0    0 -0.84975697496E+03 -0.27652773478E+03 -0.20146991904E+02  0.90683629112E+03  0.15294330000E+03 0.  0.
    8880022    1    1    2    0    0  0.84975697496E+03  0.27652773478E+03 -0.17964034046E+04  0.20122155326E+04  0.15294330000E+03 0.  0.
<mgrwt>
<rscale>  0 0.90661246E+03</rscale>
<asrwt>0</asrwt>
<pdfrwt beam="1">  1        1 0.36427709E+00 0.90661246E+03</pdfrwt>
<pdfrwt beam="2">  1       -1 0.84807804E-01 0.90661246E+03</pdfrwt>
<totfact> 0.23721723E+00</totfact>
</mgrwt>
</event>
<event>
 4    1  0.2731969E-009  0.9965967E+03  0.7818608E-02  0.9312285E-01
          1   -1    0    0  501    0  0.00000000000E+00  0.00000000000E+00  0.11826714918E+04  0.11826714918E+04  0.50400000000E-02 0. -1.
         -1   -1    0    0    0  501 -0.00000000000E+00 -0.00000000000E+00 -0.88701164810E+03  0.88701164812E+03  0.50400000000E-02 0.  1.
    8880022    1    1    2    0    0  0.97770062061E+03  0.11796145246E+03  0.38657990217E+03  0.10689476515E+04  0.15294330000E+03 0.  0.
    8880022    1    1    2    0    0 -0.97770062061E+03 -0.11796145246E+03 -0.90920058466E+02  0.10007354885E+04  0.15294330000E+03 0.  0.
<mgrwt>
<rscale>  0 0.99659674E+03</rscale>
<asrwt>0</asrwt>
<pdfrwt beam="1">  1        1 0.18194946E+00 0.99659674E+03</pdfrwt>
<pdfrwt beam="2">  1       -1 0.13646333E+00 0.99659674E+03</pdfrwt>
<totfact> 0.49476602E+00</totfact>
</mgrwt>
</event>
<event>
 4    1  0.2731969E-009  0.1608018E+04  0.7818608E-02  0.8815637E-01
          1   -1    0    0  501    0  0.00000000000E+00  0.00000000000E+00  0.30550784838E+04  0.30550784838E+04  0.50400000000E-02 0. -1.
         -1   -1    0    0    0  501 -0.00000000000E+00 -0.00000000000E+00 -0.93606103061E+03  0.93606103063E+03  0.50400000000E-02 0.  1.
    8880022    1    1    2    0    0 -0.15819304397E+04 -0.24459690236E+03  0.16772294359E+04  0.23235364844E+04  0.15294330000E+03 0.  0.
    8880022    1    1    2    0    0  0.15819304397E+04  0.24459690236E+03  0.44178801728E+03  0.16676030301E+04  0.15294330000E+03 0.  0.
<mgrwt>
<rscale>  0 0.16080184E+04</rscale>
<asrwt>0</asrwt>
<pdfrwt beam="1">  1        1 0.47001207E+00 0.16080184E+04</pdfrwt>
<pdfrwt beam="2">  1       -1 0.14400939E+00 0.16080184E+04</pdfrwt>
<totfact> 0.19941528E-01</totfact>
</mgrwt>
</event>
<event>
 4    1  0.2731969E-009  0.4866732E+03  0.7818608E-02  0.1017317E+00
         -1   -1    0    0    0  501 -0.00000000000E+00  0.00000000000E+00  0.18987405551E+04  0.18987405551E+04  0.50400000000E-02 0.  1.
          1   -1    0    0  501    0  0.00000000000E+00 -0.00000000000E+00 -0.18037038869E+03  0.18037038876E+03  0.50400000000E-02 0. -1.
    8880022    1    1    2    0    0  0.46131387358E+03  0.25468807844E+02  0.28186432078E+03  0.56240403490E+03  0.15294330000E+03 0.  0.
    8880022    1    1    2    0    0 -0.46131387358E+03 -0.25468807844E+02  0.14365058456E+04  0.15167069090E+04  0.15294330000E+03 0.  0.
<mgrwt>
<rscale>  0 0.48667320E+03</rscale>
<asrwt>0</asrwt>
<pdfrwt beam="1">  1        1 0.27749289E-01 0.48667320E+03</pdfrwt>
<pdfrwt beam="2">  1       -1 0.29211395E+00 0.48667320E+03</pdfrwt>
<totfact> 0.68804712E+00</totfact>
</mgrwt>
</event>
<event>
 4    1  0.2731969E-009  0.8678469E+03  0.7818608E-02  0.9466692E-01
          1   -1    0    0  501    0  0.00000000000E+00  0.00000000000E+00  0.59744854204E+03  0.59744854206E+03  0.50400000000E-02 0. -1.
         -1   -1    0    0    0  501 -0.00000000000E+00 -0.00000000000E+00 -0.13119991567E+04  0.13119991567E+04  0.50400000000E-02 0.  1.
    8880022    1    1    2    0    0 -0.81631657892E+03  0.25178131636E+03 -0.54619866695E+03  0.10254224618E+04  0.15294330000E+03 0.  0.
    8880022    1    1    2    0    0  0.81631657892E+03 -0.25178131636E+03 -0.16835194766E+03  0.88402523696E+03  0.15294330000E+03 0.  0.
<mgrwt>
<rscale>  0 0.86784690E+03</rscale>
<asrwt>0</asrwt>
<pdfrwt beam="1">  1        1 0.91915161E-01 0.86784690E+03</pdfrwt>
<pdfrwt beam="2">  1       -1 0.20184602E+00 0.86784690E+03</pdfrwt>
<totfact> 0.51360810E+00</totfact>
</mgrwt>
</event>
<event>
 4    1  0.2731969E-009  0.9461830E+03  0.7818608E-02  0.9369623E-01
         -1   -1    0    0    0  501 -0.00000000000E+00  0.00000000000E+00  0.19301426230E+04  0.19301426230E+04  0.50400000000E-02 0.  1.
          1   -1    0    0  501    0  0.00000000000E+00 -0.00000000000E+00 -0.93928802601E+03  0.93928802602E+03  0.50400000000E-02 0. -1.
    8880022    1    1    2    0    0 -0.50500803421E+02  0.93237346351E+03  0.15161821204E+04  0.17871962628E+04  0.15294330000E+03 0.  0.
    8880022    1    1    2    0    0  0.50500803421E+02 -0.93237346351E+03 -0.52532752348E+03  0.10822343861E+04  0.15294330000E+03 0.  0.
<mgrwt>
<rscale>  0 0.94618299E+03</rscale>
<asrwt>0</asrwt>
<pdfrwt beam="1">  1        1 0.14450585E+00 0.94618299E+03</pdfrwt>
<pdfrwt beam="2">  1       -1 0.29694501E+00 0.94618299E+03</pdfrwt>
<totfact> 0.59744839E-01</totfact>
</mgrwt>
</event>
<event>
 4    1  0.2731969E-009  0.1729895E+04  0.7818608E-02  0.8744495E-01
         -1   -1    0    0    0  501 -0.00000000000E+00  0.00000000000E+00  0.29966481461E+04  0.29966481461E+04  0.50400000000E-02 0.  1.
          1   -1    0    0  501    0  0.00000000000E+00 -0.00000000000E+00 -0.16384184172E+04  0.16384184172E+04  0.50400000000E-02 0. -1.
    8880022    1    1    2    0    0 -0.15477993126E+04  0.75727372976E+03 -0.76909768812E+03  0.18931585039E+04  0.15294330000E+03 0.  0.
    8880022    1    1    2    0    0  0.15477993126E+04 -0.75727372976E+03  0.21273274171E+04  0.27419080594E+04  0.15294330000E+03 0.  0.
<mgrwt>
<rscale>  0 0.17298953E+04</rscale>
<asrwt>0</asrwt>
<pdfrwt beam="1">  1        1 0.25206437E+00 0.17298953E+04</pdfrwt>
<pdfrwt beam="2">  1       -1 0.46102279E+00 0.17298953E+04</pdfrwt>
<totfact> 0.13061134E-02</totfact>
</mgrwt>
</event>
<event>
 4    1  0.2731969E-009  0.1165741E+04  0.7818608E-02  0.9143384E-01
         -1   -1    0    0    0  501 -0.00000000000E+00  0.00000000000E+00  0.10710889050E+04  0.10710889050E+04  0.50400000000E-02 0.  1.
          1   -1    0    0  501    0  0.00000000000E+00 -0.00000000000E+00 -0.21840899366E+04  0.21840899366E+04  0.50400000000E-02 0. -1.
    8880022    1    1    2    0    0  0.79769963112E+02  0.11529077632E+04 -0.16101574235E+04  0.19878526451E+04  0.15294330000E+03 0.  0.
    8880022    1    1    2    0    0 -0.79769963112E+02 -0.11529077632E+04  0.49715639182E+03  0.12673261965E+04  0.15294330000E+03 0.  0.
<mgrwt>
<rscale>  0 0.11657406E+04</rscale>
<asrwt>0</asrwt>
<pdfrwt beam="1">  1        1 0.33601384E+00 0.11657406E+04</pdfrwt>
<pdfrwt beam="2">  1       -1 0.16478291E+00 0.11657406E+04</pdfrwt>
<totfact> 0.59379053E-01</totfact>
</mgrwt>
</event>
<event>
 4    1  0.2731969E-009  0.5090444E+03  0.7818608E-02  0.1011445E+00
         -1   -1    0    0    0  501 -0.00000000000E+00  0.00000000000E+00  0.34049994314E+04  0.34049994314E+04  0.50400000000E-02 0.  1.
          1   -1    0    0  501    0  0.00000000000E+00 -0.00000000000E+00 -0.39669710631E+03  0.39669710634E+03  0.50400000000E-02 0. -1.
    8880022    1    1    2    0    0  0.44818347089E+03 -0.18672471737E+03 -0.20466991664E+03  0.54864922441E+03  0.15294330000E+03 0.  0.
    8880022    1    1    2    0    0 -0.44818347089E+03  0.18672471737E+03  0.32129722418E+04  0.32530473134E+04  0.15294330000E+03 0.  0.
<mgrwt>
<rscale>  0 0.50904440E+03</rscale>
<asrwt>0</asrwt>
<pdfrwt beam="1">  1        1 0.61030322E-01 0.50904440E+03</pdfrwt>
<pdfrwt beam="2">  1       -1 0.52384608E+00 0.50904440E+03</pdfrwt>
<totfact> 0.72074281E-02</totfact>
</mgrwt>
</event>
<event>
 4    1  0.2731969E-009  0.2620240E+03  0.7818608E-02  0.1105933E+00
          1   -1    0    0  501    0  0.00000000000E+00  0.00000000000E+00  0.61164149254E+03  0.61164149256E+03  0.50400000000E-02 0. -1.
         -1   -1    0    0    0  501 -0.00000000000E+00 -0.00000000000E+00 -0.30901057487E+03  0.30901057491E+03  0.50400000000E-02 0.  1.
    8880022    1    1    2    0    0  0.20281285257E+03 -0.64279649228E+02  0.51863854861E+03  0.58107015376E+03  0.15294330000E+03 0. -1.
    8880022    1    1    2    0    0 -0.20281285257E+03  0.64279649228E+02 -0.21600763095E+03  0.33958191370E+03  0.15294330000E+03 0.  0.
<mgrwt>
<rscale>  0 0.26202401E+03</rscale>
<asrwt>0</asrwt>
<pdfrwt beam="1">  1        1 0.94098690E-01 0.26202401E+03</pdfrwt>
<pdfrwt beam="2">  1       -1 0.47540089E-01 0.26202401E+03</pdfrwt>
<totfact> 0.15640211E+02</totfact>
</mgrwt>
</event>
<event>
 4    1  0.2731969E-009  0.1096526E+04  0.7818608E-02  0.9208585E-01
         -1   -1    0    0    0  501 -0.00000000000E+00  0.00000000000E+00  0.17922714279E+04  0.17922714279E+04  0.50400000000E-02 0.  1.
          1   -1    0    0  501    0  0.00000000000E+00 -0.00000000000E+00 -0.10773060337E+04  0.10773060337E+04  0.50400000000E-02 0. -1.
    8880022    1    1    2    0    0 -0.91824220679E+03 -0.57948995803E+03 -0.52380584848E+03  0.12152125665E+04  0.15294330000E+03 0.  0.
    8880022    1    1    2    0    0  0.91824220679E+03  0.57948995803E+03  0.12387712426E+04  0.16543648952E+04  0.15294330000E+03 0.  0.
<mgrwt>
<rscale>  0 0.10965259E+04</rscale>
<asrwt>0</asrwt>
<pdfrwt beam="1">  1        1 0.16573939E+00 0.10965259E+04</pdfrwt>
<pdfrwt beam="2">  1       -1 0.27573406E+00 0.10965259E+04</pdfrwt>
<totfact> 0.62372622E-01</totfact>
</mgrwt>
</event>
<event>
 4    1  0.2731969E-009  0.7849246E+03  0.7818608E-02  0.9582098E-01
          1   -1    0    0  501    0  0.00000000000E+00  0.00000000000E+00  0.19798311650E+04  0.19798311650E+04  0.50400000000E-02 0. -1.
         -1   -1    0    0    0  501 -0.00000000000E+00 -0.00000000000E+00 -0.93221151358E+03  0.93221151360E+03  0.50400000000E-02 0.  1.
    8880022    1    1    2    0    0 -0.76813234595E+03 -0.51843415631E+02 -0.66459195995E+03  0.10284887782E+04  0.15294330000E+03 0.  0.
    8880022    1    1    2    0    0  0.76813234595E+03  0.51843415631E+02  0.17122116113E+04  0.18835539004E+04  0.15294330000E+03 0.  0.
<mgrwt>
<rscale>  0 0.78492464E+03</rscale>
<asrwt>0</asrwt>
<pdfrwt beam="1">  1        1 0.30458941E+00 0.78492464E+03</pdfrwt>
<pdfrwt beam="2">  1       -1 0.14341716E+00 0.78492464E+03</pdfrwt>
<totfact> 0.12694427E+00</totfact>
</mgrwt>
</event>
<event>
 4    1  0.2731969E-009  0.2484067E+03  0.7818608E-02  0.1114316E+00
         -1   -1    0    0    0  501 -0.00000000000E+00  0.00000000000E+00  0.26502893900E+03  0.26502893905E+03  0.50400000000E-02 0.  1.
          1   -1    0    0  501    0  0.00000000000E+00 -0.00000000000E+00 -0.65789760222E+03  0.65789760224E+03  0.50400000000E-02 0. -1.
    8880022    1    1    2    0    0 -0.17346942679E+01 -0.19573254634E+03 -0.56736139817E+03  0.61935841644E+03  0.15294330000E+03 0. -1.
    8880022    1    1    2    0    0  0.17346942679E+01  0.19573254634E+03  0.17449273495E+03  0.30356812485E+03  0.15294330000E+03 0.  0.
<mgrwt>
<rscale>  0 0.24840671E+03</rscale>
<asrwt>0</asrwt>
<pdfrwt beam="1">  1        1 0.10121502E+00 0.24840671E+03</pdfrwt>
<pdfrwt beam="2">  1       -1 0.40773683E-01 0.24840671E+03</pdfrwt>
<totfact> 0.18665378E+02</totfact>
</mgrwt>
</event>
<event>
 4    1  0.2731969E-009  0.1325905E+04  0.7818608E-02  0.9009271E-01
          1   -1    0    0  501    0  0.00000000000E+00  0.00000000000E+00  0.28794359988E+04  0.28794359988E+04  0.50400000000E-02 0. -1.
         -1   -1    0    0    0  501 -0.00000000000E+00 -0.00000000000E+00 -0.62687208941E+03  0.62687208943E+03  0.50400000000E-02 0.  1.
    8880022    1    1    2    0    0 -0.34941033392E+03  0.12698596685E+04  0.84334070627E+03  0.15713835811E+04  0.15294330000E+03 0.  0.
    8880022    1    1    2    0    0  0.34941033392E+03 -0.12698596685E+04  0.14092232031E+04  0.19349245071E+04  0.15294330000E+03 0.  0.
<mgrwt>
<rscale>  0 0.13259045E+04</rscale>
<asrwt>0</asrwt>
<pdfrwt beam="1">  1        1 0.44299015E+00 0.13259045E+04</pdfrwt>
<pdfrwt beam="2">  1       -1 0.96441860E-01 0.13259045E+04</pdfrwt>
<totfact> 0.74037563E-01</totfact>
</mgrwt>
</event>
<event>
 4    1  0.2731969E-009  0.4966420E+03  0.7818608E-02  0.1014659E+00
          1   -1    0    0  501    0  0.00000000000E+00  0.00000000000E+00  0.36353376568E+04  0.36353376568E+04  0.50400000000E-02 0. -1.
         -1   -1    0    0    0  501 -0.00000000000E+00 -0.00000000000E+00 -0.44407341106E+03  0.44407341109E+03  0.50400000000E-02 0.  1.
    8880022    1    1    2    0    0 -0.42467354428E+03 -0.20715704213E+03  0.34730618386E+04  0.35083916325E+04  0.15294330000E+03 0.  0.
    8880022    1    1    2    0    0  0.42467354428E+03  0.20715704213E+03 -0.28179759281E+03  0.57101943543E+03  0.15294330000E+03 0.  0.
<mgrwt>
<rscale>  0 0.49664204E+03</rscale>
<asrwt>0</asrwt>
<pdfrwt beam="1">  1        1 0.55928274E+00 0.49664204E+03</pdfrwt>
<pdfrwt beam="2">  1       -1 0.68318984E-01 0.49664204E+03</pdfrwt>
<totfact> 0.50239276E-01</totfact>
</mgrwt>
</event>
<event>
 4    1  0.2731969E-009  0.3946176E+03  0.7818608E-02  0.1045659E+00
          1   -1    0    0  501    0  0.00000000000E+00  0.00000000000E+00  0.15002325193E+04  0.15002325193E+04  0.50400000000E-02 0. -1.
         -1   -1    0    0    0  501 -0.00000000000E+00 -0.00000000000E+00 -0.21421734068E+03  0.21421734074E+03  0.50400000000E-02 0.  1.
    8880022    1    1    2    0    0  0.34540817690E+03 -0.11412540037E+03  0.27565036145E+02  0.39557919550E+03  0.15294330000E+03 0.  0.
    8880022    1    1    2    0    0 -0.34540817690E+03  0.11412540037E+03  0.12584501424E+04  0.13188706645E+04  0.15294330000E+03 0.  0.
<mgrwt>
<rscale>  0 0.39461762E+03</rscale>
<asrwt>0</asrwt>
<pdfrwt beam="1">  1        1 0.23080500E+00 0.39461762E+03</pdfrwt>
<pdfrwt beam="2">  1       -1 0.32956514E-01 0.39461762E+03</pdfrwt>
<totfact> 0.61053416E+01</totfact>
</mgrwt>
</event>
<event>
 4    1  0.2731969E-009  0.8326804E+03  0.7818608E-02  0.9513882E-01
         -1   -1    0    0    0  501 -0.00000000000E+00  0.00000000000E+00  0.15043116370E+04  0.15043116370E+04  0.50400000000E-02 0.  1.
          1   -1    0    0  501    0  0.00000000000E+00 -0.00000000000E+00 -0.10445162695E+04  0.10445162695E+04  0.50400000000E-02 0. -1.
    8880022    1    1    2    0    0 -0.79143908680E+03  0.20878023951E+03 -0.72270500092E+03  0.11025693574E+04  0.15294330000E+03 0.  0.
    8880022    1    1    2    0    0  0.79143908680E+03 -0.20878023951E+03  0.11825003684E+04  0.14462585491E+04  0.15294330000E+03 0.  0.
<mgrwt>
<rscale>  0 0.83268041E+03</rscale>
<asrwt>0</asrwt>
<pdfrwt beam="1">  1        1 0.16069481E+00 0.83268041E+03</pdfrwt>
<pdfrwt beam="2">  1       -1 0.23143256E+00 0.83268041E+03</pdfrwt>
<totfact> 0.13332358E+00</totfact>
</mgrwt>
</event>
<event>
 4    1  0.2731969E-009  0.1130476E+04  0.7818608E-02  0.9175987E-01
         -1   -1    0    0    0  501 -0.00000000000E+00  0.00000000000E+00  0.12235735601E+04  0.12235735601E+04  0.50400000000E-02 0.  1.
          1   -1    0    0  501    0  0.00000000000E+00 -0.00000000000E+00 -0.29912758137E+04  0.29912758137E+04  0.50400000000E-02 0. -1.
    8880022    1    1    2    0    0  0.90719090896E+03 -0.65695443976E+03  0.81629417160E+03  0.13943859971E+04  0.15294330000E+03 0.  0.
    8880022    1    1    2    0    0 -0.90719090896E+03  0.65695443976E+03 -0.25839964252E+04  0.28204633768E+04  0.15294330000E+03 0.  0.
<mgrwt>
<rscale>  0 0.11304761E+04</rscale>
<asrwt>0</asrwt>
<pdfrwt beam="1">  1        1 0.46019628E+00 0.11304761E+04</pdfrwt>
<pdfrwt beam="2">  1       -1 0.18824209E+00 0.11304761E+04</pdfrwt>
<totfact> 0.11067215E-01</totfact>
</mgrwt>
</event>
<event>
 4    1  0.2731969E-009  0.6691153E+03  0.7818608E-02  0.9771557E-01
          1   -1    0    0  501    0  0.00000000000E+00  0.00000000000E+00  0.92380753414E+03  0.92380753415E+03  0.50400000000E-02 0. -1.
         -1   -1    0    0    0  501 -0.00000000000E+00 -0.00000000000E+00 -0.52558658606E+03  0.52558658609E+03  0.50400000000E-02 0.  1.
    8880022    1    1    2    0    0  0.96235096257E+01 -0.65133018875E+03  0.40138274217E+03  0.78027135372E+03  0.15294330000E+03 0.  0.
    8880022    1    1    2    0    0 -0.96235096257E+01  0.65133018875E+03 -0.31617940941E+01  0.66912276652E+03  0.15294330000E+03 0.  1.
<mgrwt>
<rscale>  0 0.66911530E+03</rscale>
<asrwt>0</asrwt>
<pdfrwt beam="1">  1        1 0.14212424E+00 0.66911530E+03</pdfrwt>
<pdfrwt beam="2">  1       -1 0.80859475E-01 0.66911530E+03</pdfrwt>
<totfact> 0.27505486E+01</totfact>
</mgrwt>
</event>
<event>
 4    1  0.2731969E-009  0.6225420E+03  0.7818608E-02  0.9859712E-01
         -1   -1    0    0    0  501 -0.00000000000E+00  0.00000000000E+00  0.47569417172E+03  0.47569417175E+03  0.50400000000E-02 0.  1.
          1   -1    0    0  501    0  0.00000000000E+00 -0.00000000000E+00 -0.82284766673E+03  0.82284766674E+03  0.50400000000E-02 0. -1.
    8880022    1    1    2    0    0 -0.59844139428E+03 -0.77684139953E+02 -0.23809633408E+03  0.66651965110E+03  0.15294330000E+03 0.  0.
    8880022    1    1    2    0    0  0.59844139428E+03  0.77684139953E+02 -0.10905716092E+03  0.63202218739E+03  0.15294330000E+03 0. -1.
<mgrwt>
<rscale>  0 0.62254203E+03</rscale>
<asrwt>0</asrwt>
<pdfrwt beam="1">  1        1 0.12659195E+00 0.62254203E+03</pdfrwt>
<pdfrwt beam="2">  1       -1 0.73183719E-01 0.62254203E+03</pdfrwt>
<totfact> 0.41274810E+01</totfact>
</mgrwt>
</event>
<event>
 4    1  0.2731969E-009  0.7789440E+03  0.7818608E-02  0.9591005E-01
          1   -1    0    0  501    0  0.00000000000E+00  0.00000000000E+00  0.19122918339E+04  0.19122918339E+04  0.50400000000E-02 0. -1.
         -1   -1    0    0    0  501 -0.00000000000E+00 -0.00000000000E+00 -0.57016633493E+03  0.57016633496E+03  0.50400000000E-02 0.  1.
    8880022    1    1    2    0    0 -0.16354595896E+03  0.74606623434E+03  0.14976792057E+04  0.16881341069E+04  0.15294330000E+03 0.  0.
    8880022    1    1    2    0    0  0.16354595896E+03 -0.74606623434E+03 -0.15555370672E+03  0.79432406196E+03  0.15294330000E+03 0.  0.
<mgrwt>
<rscale>  0 0.77894400E+03</rscale>
<asrwt>0</asrwt>
<pdfrwt beam="1">  1        1 0.29419874E+00 0.77894400E+03</pdfrwt>
<pdfrwt beam="2">  1       -1 0.87717898E-01 0.77894400E+03</pdfrwt>
<totfact> 0.45593003E+00</totfact>
</mgrwt>
</event>
<event>
 4    1  0.2731969E-009  0.1955714E+03  0.7818608E-02  0.1153530E+00
         -1   -1    0    0    0  501 -0.00000000000E+00  0.00000000000E+00  0.67220056331E+03  0.67220056332E+03  0.50400000000E-02 0.  1.
          1   -1    0    0  501    0  0.00000000000E+00 -0.00000000000E+00 -0.25021381897E+03  0.25021381902E+03  0.50400000000E-02 0. -1.
    8880022    1    1    2    0    0  0.16489717986E+02  0.12076679837E+03 -0.19439559277E+03  0.27574957822E+03  0.15294330000E+03 0. -1.
    8880022    1    1    2    0    0 -0.16489717986E+02 -0.12076679837E+03  0.61638233710E+03  0.64666480412E+03  0.15294330000E+03 0.  0.
<mgrwt>
<rscale>  0 0.19557143E+03</rscale>
<asrwt>0</asrwt>
<pdfrwt beam="1">  1        1 0.38494434E-01 0.19557143E+03</pdfrwt>
<pdfrwt beam="2">  1       -1 0.10341547E+00 0.19557143E+03</pdfrwt>
<totfact> 0.10540874E+02</totfact>
</mgrwt>
</event>
<event>
 4    1  0.2731969E-009  0.1721557E+04  0.7818608E-02  0.8749165E-01
         -1   -1    0    0    0  501 -0.00000000000E+00  0.00000000000E+00  0.16002314678E+04  0.16002314678E+04  0.50400000000E-02 0.  1.
          1   -1    0    0  501    0  0.00000000000E+00 -0.00000000000E+00 -0.29579548548E+04  0.29579548548E+04  0.50400000000E-02 0. -1.
    8880022    1    1    2    0    0 -0.12399399449E+04 -0.11844467643E+04  0.71467779327E+03  0.18640067611E+04  0.15294330000E+03 0.  0.
    8880022    1    1    2    0    0  0.12399399449E+04  0.11844467643E+04 -0.20724011803E+04  0.26941795615E+04  0.15294330000E+03 0.  0.
<mgrwt>
<rscale>  0 0.17215565E+04</rscale>
<asrwt>0</asrwt>
<pdfrwt beam="1">  1        1 0.45506998E+00 0.17215565E+04</pdfrwt>
<pdfrwt beam="2">  1       -1 0.24618946E+00 0.17215565E+04</pdfrwt>
<totfact> 0.43490801E-02</totfact>
</mgrwt>
</event>
<event>
 4    1  0.2731969E-009  0.6316868E+03  0.7818608E-02  0.9841763E-01
         -1   -1    0    0    0  501 -0.00000000000E+00  0.00000000000E+00  0.54995721890E+03  0.54995721892E+03  0.50400000000E-02 0.  1.
          1   -1    0    0  501    0  0.00000000000E+00 -0.00000000000E+00 -0.98295183646E+03  0.98295183647E+03  0.50400000000E-02 0. -1.
    8880022    1    1    2    0    0  0.59269157636E+03 -0.15605533224E+03  0.17571003310E+03  0.65566930701E+03  0.15294330000E+03 0.  0.
    8880022    1    1    2    0    0 -0.59269157636E+03  0.15605533224E+03 -0.60870465066E+03  0.87723974839E+03  0.15294330000E+03 0.  0.
<mgrwt>
<rscale>  0 0.63168681E+03</rscale>
<asrwt>0</asrwt>
<pdfrwt beam="1">  1        1 0.15122336E+00 0.63168681E+03</pdfrwt>
<pdfrwt beam="2">  1       -1 0.84608803E-01 0.63168681E+03</pdfrwt>
<totfact> 0.22534111E+01</totfact>
</mgrwt>
</event>
<event>
 4    1  0.2731969E-009  0.5590096E+03  0.7818608E-02  0.9994298E-01
          1   -1    0    0  501    0  0.00000000000E+00  0.00000000000E+00  0.32010199830E+04  0.32010199830E+04  0.50400000000E-02 0. -1.
         -1   -1    0    0    0  501 -0.00000000000E+00 -0.00000000000E+00 -0.36213362536E+03  0.36213362540E+03  0.50400000000E-02 0.  1.
    8880022    1    1    2    0    0 -0.37100561194E+02  0.53639870873E+03 -0.10317870652E+03  0.56845186680E+03  0.15294330000E+03 0.  0.
    8880022    1    1    2    0    0  0.37100561194E+02 -0.53639870873E+03  0.29420650642E+04  0.29947017416E+04  0.15294330000E+03 0.  0.
<mgrwt>
<rscale>  0 0.55900955E+03</rscale>
<asrwt>0</asrwt>
<pdfrwt beam="1">  1        1 0.49246460E+00 0.55900955E+03</pdfrwt>
<pdfrwt beam="2">  1       -1 0.55712867E-01 0.55900955E+03</pdfrwt>
<totfact> 0.15687497E+00</totfact>
</mgrwt>
</event>
<event>
 4    1  0.2731969E-009  0.6295536E+03  0.7818608E-02  0.9845920E-01
          1   -1    0    0  501    0  0.00000000000E+00  0.00000000000E+00  0.45245175028E+03  0.45245175031E+03  0.50400000000E-02 0. -1.
         -1   -1    0    0    0  501 -0.00000000000E+00 -0.00000000000E+00 -0.11479214516E+04  0.11479214516E+04  0.50400000000E-02 0.  1.
    8880022    1    1    2    0    0 -0.52424127689E+03 -0.31323654291E+03 -0.73720540573E+03  0.96943772954E+03  0.15294330000E+03 0.  0.
    8880022    1    1    2    0    0  0.52424127689E+03  0.31323654291E+03  0.41735704459E+02  0.63093547233E+03  0.15294330000E+03 0.  0.
<mgrwt>
<rscale>  0 0.62955357E+03</rscale>
<asrwt>0</asrwt>
<pdfrwt beam="1">  1        1 0.69607962E-01 0.62955357E+03</pdfrwt>
<pdfrwt beam="2">  1       -1 0.17660330E+00 0.62955357E+03</pdfrwt>
<totfact> 0.11708387E+01</totfact>
</mgrwt>
</event>
<event>
 4    1  0.2731969E-009  0.2003236E+03  0.7818608E-02  0.1149466E+00
         -1   -1    0    0    0  501 -0.00000000000E+00  0.00000000000E+00  0.39051873319E+03  0.39051873323E+03  0.50400000000E-02 0.  1.
          1   -1    0    0  501    0  0.00000000000E+00 -0.00000000000E+00 -0.21873785498E+04  0.21873785498E+04  0.50400000000E-02 0. -1.
    8880022    1    1    2    0    0  0.11952572634E+03 -0.49512577346E+02  0.35987815511E+03  0.41187599361E+03  0.15294330000E+03 0.  1.
    8880022    1    1    2    0    0 -0.11952572634E+03  0.49512577346E+02 -0.21567379718E+04  0.21660212895E+04  0.15294330000E+03 0.  0.
<mgrwt>
<rscale>  0 0.20032361E+03</rscale>
<asrwt>0</asrwt>
<pdfrwt beam="1">  1        1 0.33651977E+00 0.20032361E+03</pdfrwt>
<pdfrwt beam="2">  1       -1 0.60079806E-01 0.20032361E+03</pdfrwt>
<totfact> 0.78293784E+00</totfact>
</mgrwt>
</event>
<event>
 4    1  0.2731969E-009  0.1009495E+04  0.7818608E-02  0.9298192E-01
          1   -1    0    0  501    0  0.00000000000E+00  0.00000000000E+00  0.27151829225E+04  0.27151829225E+04  0.50400000000E-02 0. -1.
         -1   -1    0    0    0  501 -0.00000000000E+00 -0.00000000000E+00 -0.57569397640E+03  0.57569397642E+03  0.50400000000E-02 0.  1.
    8880022    1    1    2    0    0 -0.79193833945E+03 -0.60706040684E+03  0.20404764248E+04  0.22765378020E+04  0.15294330000E+03 0.  0.
    8880022    1    1    2    0    0  0.79193833945E+03  0.60706040684E+03  0.99012521299E+02  0.10143390969E+04  0.15294330000E+03 0.  0.
<mgrwt>
<rscale>  0 0.10094951E+04</rscale>
<asrwt>0</asrwt>
<pdfrwt beam="1">  1        1 0.41772045E+00 0.10094951E+04</pdfrwt>
<pdfrwt beam="2">  1       -1 0.88568305E-01 0.10094951E+04</pdfrwt>
<totfact> 0.12232858E+00</totfact>
</mgrwt>
</event>
<event>
 4    1  0.2731969E-009  0.1172262E+04  0.7818608E-02  0.9137488E-01
          1   -1    0    0  501    0  0.00000000000E+00  0.00000000000E+00  0.13057853297E+04  0.13057853297E+04  0.50400000000E-02 0. -1.
         -1   -1    0    0    0  501 -0.00000000000E+00 -0.00000000000E+00 -0.17536808696E+04  0.17536808696E+04  0.50400000000E-02 0.  1.
    8880022    1    1    2    0    0  0.13504027110E+03  0.11543698277E+04 -0.11913098209E+04  0.16713516435E+04  0.15294330000E+03 0.  0.
    8880022    1    1    2    0    0 -0.13504027110E+03 -0.11543698277E+04  0.74341428103E+03  0.13881145558E+04  0.15294330000E+03 0.  0.
<mgrwt>
<rscale>  0 0.11722616E+04</rscale>
<asrwt>0</asrwt>
<pdfrwt beam="1">  1        1 0.20089005E+00 0.11722616E+04</pdfrwt>
<pdfrwt beam="2">  1       -1 0.26979706E+00 0.11722616E+04</pdfrwt>
<totfact> 0.45778920E-01</totfact>
</mgrwt>
</event>
<event>
 4    1  0.2731969E-009  0.8098074E+03  0.7818608E-02  0.9545929E-01
          1   -1    0    0  501    0  0.00000000000E+00  0.00000000000E+00  0.28703446191E+04  0.28703446191E+04  0.50400000000E-02 0. -1.
         -1   -1    0    0    0  501 -0.00000000000E+00 -0.00000000000E+00 -0.64930894882E+03  0.64930894884E+03  0.50400000000E-02 0.  1.
    8880022    1    1    2    0    0 -0.65653227630E+03  0.44873345465E+03 -0.30626121948E+03  0.86578515275E+03  0.15294330000E+03 0.  0.
    8880022    1    1    2    0    0  0.65653227630E+03 -0.44873345465E+03  0.25272968897E+04  0.26538684152E+04  0.15294330000E+03 0.  0.
<mgrwt>
<rscale>  0 0.80980738E+03</rscale>
<asrwt>0</asrwt>
<pdfrwt beam="1">  1        1 0.44159148E+00 0.80980738E+03</pdfrwt>
<pdfrwt beam="2">  1       -1 0.99893685E-01 0.80980738E+03</pdfrwt>
<totfact> 0.75368963E-01</totfact>
</mgrwt>
</event>
<event>
 4    1  0.2731969E-009  0.1724277E+04  0.7818608E-02  0.8747638E-01
          1   -1    0    0  501    0  0.00000000000E+00  0.00000000000E+00  0.24835010267E+04  0.24835010267E+04  0.50400000000E-02 0. -1.
         -1   -1    0    0    0  501 -0.00000000000E+00 -0.00000000000E+00 -0.22301367184E+04  0.22301367184E+04  0.50400000000E-02 0.  1.
    8880022    1    1    2    0    0  0.17174210437E+04  0.14306148548E+02  0.17306924283E+04  0.24430365617E+04  0.15294330000E+03 0.  0.
    8880022    1    1    2    0    0 -0.17174210437E+04 -0.14306148548E+02 -0.14773281200E+04  0.22706011834E+04  0.15294330000E+03 0.  0.
<mgrwt>
<rscale>  0 0.17242771E+04</rscale>
<asrwt>0</asrwt>
<pdfrwt beam="1">  1        1 0.38207708E+00 0.17242771E+04</pdfrwt>
<pdfrwt beam="2">  1       -1 0.34309796E+00 0.17242771E+04</pdfrwt>
<totfact> 0.21975622E-02</totfact>
</mgrwt>
</event>
<event>
 4    1  0.2731969E-009  0.3814856E+03  0.7818608E-02  0.1050386E+00
          1   -1    0    0  501    0  0.00000000000E+00  0.00000000000E+00  0.14762221670E+04  0.14762221670E+04  0.50400000000E-02 0. -1.
         -1   -1    0    0    0  501 -0.00000000000E+00 -0.00000000000E+00 -0.63875806126E+03  0.63875806128E+03  0.50400000000E-02 0.  1.
    8880022    1    1    2    0    0  0.34333069239E+03 -0.65296883662E+02 -0.55373554891E+03  0.67242423996E+03  0.15294330000E+03 0.  0.
    8880022    1    1    2    0    0 -0.34333069239E+03  0.65296883662E+02  0.13911996547E+04  0.14425559883E+04  0.15294330000E+03 0. -1.
<mgrwt>
<rscale>  0 0.38148565E+03</rscale>
<asrwt>0</asrwt>
<pdfrwt beam="1">  1        1 0.22711110E+00 0.38148565E+03</pdfrwt>
<pdfrwt beam="2">  1       -1 0.98270473E-01 0.38148565E+03</pdfrwt>
<totfact> 0.76043046E+00</totfact>
</mgrwt>
</event>
<event>
 4    1  0.2731969E-009  0.3626318E+03  0.7818608E-02  0.1057547E+00
         -1   -1    0    0    0  501 -0.00000000000E+00  0.00000000000E+00  0.15014673084E+04  0.15014673084E+04  0.50400000000E-02 0.  1.
          1   -1    0    0  501    0  0.00000000000E+00 -0.00000000000E+00 -0.18128206828E+03  0.18128206835E+03  0.50400000000E-02 0. -1.
    8880022    1    1    2    0    0  0.32805659285E+02 -0.32716048555E+03  0.55195591219E+02  0.36680839806E+03  0.15294330000E+03 0.  0.
    8880022    1    1    2    0    0 -0.32805659285E+02  0.32716048555E+03  0.12649896489E+04  0.13159409787E+04  0.15294330000E+03 0.  0.
<mgrwt>
<rscale>  0 0.36263183E+03</rscale>
<asrwt>0</asrwt>
<pdfrwt beam="1">  1        1 0.27889549E-01 0.36263183E+03</pdfrwt>
<pdfrwt beam="2">  1       -1 0.23099497E+00 0.36263183E+03</pdfrwt>
<totfact> 0.17158470E+01</totfact>
</mgrwt>
</event>
<event>
 4    1  0.2731969E-009  0.3716223E+03  0.7818608E-02  0.1054074E+00
         -1   -1    0    0    0  501 -0.00000000000E+00  0.00000000000E+00  0.17542503706E+03  0.17542503713E+03  0.50400000000E-02 0.  1.
          1   -1    0    0  501    0  0.00000000000E+00 -0.00000000000E+00 -0.15199864294E+04  0.15199864294E+04  0.50400000000E-02 0. -1.
    8880022    1    1    2    0    0 -0.25884683790E+03  0.21842566582E+03 -0.83708719833E+02  0.38093340595E+03  0.15294330000E+03 0.  0.
    8880022    1    1    2    0    0  0.25884683790E+03 -0.21842566582E+03 -0.12608526725E+04  0.13144780606E+04  0.15294330000E+03 0.  0.
<mgrwt>
<rscale>  0 0.37162227E+03</rscale>
<asrwt>0</asrwt>
<pdfrwt beam="1">  1        1 0.23384406E+00 0.37162227E+03</pdfrwt>
<pdfrwt beam="2">  1       -1 0.26988468E-01 0.37162227E+03</pdfrwt>
<totfact> 0.83882611E+01</totfact>
</mgrwt>
</event>
<event>
 4    1  0.2731969E-009  0.4409488E+03  0.7818608E-02  0.1030456E+00
          1   -1    0    0  501    0  0.00000000000E+00  0.00000000000E+00  0.86228121185E+03  0.86228121186E+03  0.50400000000E-02 0. -1.
         -1   -1    0    0    0  501 -0.00000000000E+00 -0.00000000000E+00 -0.58421889769E+03  0.58421889771E+03  0.50400000000E-02 0.  1.
    8880022    1    1    2    0    0 -0.41305586848E+03 -0.20714148264E+02 -0.42770874890E+03  0.61430501653E+03  0.15294330000E+03 0.  0.
    8880022    1    1    2    0    0  0.41305586848E+03  0.20714148264E+02  0.70577106306E+03  0.83219509305E+03  0.15294330000E+03 0. -1.
<mgrwt>
<rscale>  0 0.44094884E+03</rscale>
<asrwt>0</asrwt>
<pdfrwt beam="1">  1        1 0.13265865E+00 0.44094884E+03</pdfrwt>
<pdfrwt beam="2">  1       -1 0.89879830E-01 0.44094884E+03</pdfrwt>
<totfact> 0.25456766E+01</totfact>
</mgrwt>
</event>
<event>
 4    1  0.2731969E-009  0.1362847E+04  0.7818608E-02  0.8981160E-01
          1   -1    0    0  501    0  0.00000000000E+00  0.00000000000E+00  0.17237592912E+04  0.17237592912E+04  0.50400000000E-02 0. -1.
         -1   -1    0    0    0  501 -0.00000000000E+00 -0.00000000000E+00 -0.17562622236E+04  0.17562622236E+04  0.50400000000E-02 0.  1.
    8880022    1    1    2    0    0 -0.78481613269E+01  0.13542147576E+04  0.10654714849E+04  0.17299076107E+04  0.15294330000E+03 0.  0.
    8880022    1    1    2    0    0  0.78481613269E+01 -0.13542147576E+04 -0.10979744173E+04  0.17501139041E+04  0.15294330000E+03 0.  0.
<mgrwt>
<rscale>  0 0.13628466E+04</rscale>
<asrwt>0</asrwt>
<pdfrwt beam="1">  1        1 0.26519374E+00 0.13628466E+04</pdfrwt>
<pdfrwt beam="2">  1       -1 0.27019419E+00 0.13628466E+04</pdfrwt>
<totfact> 0.22718693E-01</totfact>
</mgrwt>
</event>
<event>
 4    1  0.2731969E-009  0.3159256E+03  0.7818608E-02  0.1077540E+00
         -1   -1    0    0    0  501 -0.00000000000E+00  0.00000000000E+00  0.46060050899E+02  0.46060051174E+02  0.50400000000E-02 0.  1.
          1   -1    0    0  501    0  0.00000000000E+00 -0.00000000000E+00 -0.28825492002E+04  0.28825492002E+04  0.50400000000E-02 0. -1.
    8880022    1    1    2    0    0 -0.24068121609E+03  0.13597751749E+03 -0.68864673845E+03  0.75765646334E+03  0.15294330000E+03 0.  1.
    8880022    1    1    2    0    0  0.24068121609E+03 -0.13597751749E+03 -0.21478424108E+04  0.21709527880E+04  0.15294330000E+03 0.  0.
<mgrwt>
<rscale>  0 0.31592560E+03</rscale>
<asrwt>0</asrwt>
<pdfrwt beam="1">  1        1 0.44346897E+00 0.31592560E+03</pdfrwt>
<pdfrwt beam="2">  1       -1 0.70861640E-02 0.31592560E+03</pdfrwt>
<totfact> 0.89445976E+01</totfact>
</mgrwt>
</event>
<event>
 4    1  0.2731969E-009  0.8058300E+03  0.7818608E-02  0.9551617E-01
         -1   -1    0    0    0  501 -0.00000000000E+00  0.00000000000E+00  0.70205106569E+03  0.70205106571E+03  0.50400000000E-02 0.  1.
          1   -1    0    0  501    0  0.00000000000E+00 -0.00000000000E+00 -0.15968475354E+04  0.15968475354E+04  0.50400000000E-02 0. -1.
    8880022    1    1    2    0    0 -0.64831613540E+03  0.45349367486E+03  0.29820827275E+03  0.85923812270E+03  0.15294330000E+03 0.  0.
    8880022    1    1    2    0    0  0.64831613540E+03 -0.45349367486E+03 -0.11930047425E+04  0.14396604784E+04  0.15294330000E+03 0.  0.
<mgrwt>
<rscale>  0 0.80582999E+03</rscale>
<asrwt>0</asrwt>
<pdfrwt beam="1">  1        1 0.24566885E+00 0.80582999E+03</pdfrwt>
<pdfrwt beam="2">  1       -1 0.10800786E+00 0.80582999E+03</pdfrwt>
<totfact> 0.46216362E+00</totfact>
</mgrwt>
</event>
<event>
 4    1  0.2731969E-009  0.1305281E+04  0.7818608E-02  0.9025388E-01
          1   -1    0    0  501    0  0.00000000000E+00  0.00000000000E+00  0.18390420100E+04  0.18390420100E+04  0.50400000000E-02 0. -1.
         -1   -1    0    0    0  501 -0.00000000000E+00 -0.00000000000E+00 -0.19574550541E+04  0.19574550541E+04  0.50400000000E-02 0.  1.
    8880022    1    1    2    0    0 -0.82699178770E+02 -0.12936491941E+04  0.13184470549E+04  0.18552794079E+04  0.15294330000E+03 0.  0.
    8880022    1    1    2    0    0  0.82699178770E+02  0.12936491941E+04 -0.14368600991E+04  0.19412176563E+04  0.15294330000E+03 0.  0.
<mgrwt>
<rscale>  0 0.13052812E+04</rscale>
<asrwt>0</asrwt>
<pdfrwt beam="1">  1        1 0.28292954E+00 0.13052812E+04</pdfrwt>
<pdfrwt beam="2">  1       -1 0.30114693E+00 0.13052812E+04</pdfrwt>
<totfact> 0.12059413E-01</totfact>
</mgrwt>
</event>
<event>
 4    1  0.2731969E-009  0.1101045E+04  0.7818608E-02  0.9204174E-01
          1   -1    0    0  501    0  0.00000000000E+00  0.00000000000E+00  0.14004266228E+04  0.14004266228E+04  0.50400000000E-02 0. -1.
         -1   -1    0    0    0  501 -0.00000000000E+00 -0.00000000000E+00 -0.10527635212E+04  0.10527635212E+04  0.50400000000E-02 0.  1.
    8880022    1    1    2    0    0 -0.23162546834E+03 -0.10654852517E+04 -0.34326369906E+03  0.11533129668E+04  0.15294330000E+03 0.  0.
    8880022    1    1    2    0    0  0.23162546834E+03  0.10654852517E+04  0.69092680064E+03  0.12998771773E+04  0.15294330000E+03 0.  0.
<mgrwt>
<rscale>  0 0.11010453E+04</rscale>
<asrwt>0</asrwt>
<pdfrwt beam="1">  1        1 0.21545025E+00 0.11010453E+04</pdfrwt>
<pdfrwt beam="2">  1       -1 0.16196362E+00 0.11010453E+04</pdfrwt>
<totfact> 0.21507964E+00</totfact>
</mgrwt>
</event>
<event>
 4    1  0.2731969E-009  0.5020862E+03  0.7818608E-02  0.1013236E+00
         -1   -1    0    0    0  501 -0.00000000000E+00  0.00000000000E+00  0.15323057887E+04  0.15323057887E+04  0.50400000000E-02 0.  1.
          1   -1    0    0  501    0  0.00000000000E+00 -0.00000000000E+00 -0.27816400439E+04  0.27816400439E+04  0.50400000000E-02 0. -1.
    8880022    1    1    2    0    0 -0.45582031269E+01  0.47820297523E+03 -0.27168820193E+04  0.27628858866E+04  0.15294330000E+03 0.  0.
    8880022    1    1    2    0    0  0.45582031269E+01 -0.47820297523E+03  0.14675477641E+04  0.15510599459E+04  0.15294330000E+03 0.  0.
<mgrwt>
<rscale>  0 0.50208616E+03</rscale>
<asrwt>0</asrwt>
<pdfrwt beam="1">  1        1 0.42794462E+00 0.50208616E+03</pdfrwt>
<pdfrwt beam="2">  1       -1 0.23573935E+00 0.50208616E+03</pdfrwt>
<totfact> 0.88696711E-02</totfact>
</mgrwt>
</event>
<event>
 4    1  0.2731969E-009  0.2692299E+03  0.7818608E-02  0.1101721E+00
          1   -1    0    0  501    0  0.00000000000E+00  0.00000000000E+00  0.29450720158E+04  0.29450720158E+04  0.50400000000E-02 0. -1.
         -1   -1    0    0    0  501 -0.00000000000E+00 -0.00000000000E+00 -0.72334247117E+03  0.72334247119E+03  0.50400000000E-02 0.  1.
    8880022    1    1    2    0    0  0.34952645411E+02  0.21879538004E+03  0.29135968836E+04  0.29260094940E+04  0.15294330000E+03 0.  0.
    8880022    1    1    2    0    0 -0.34952645411E+02 -0.21879538004E+03 -0.69186733902E+03  0.74240499296E+03  0.15294330000E+03 0.  1.
<mgrwt>
<rscale>  0 0.26922994E+03</rscale>
<asrwt>0</asrwt>
<pdfrwt beam="1">  1        1 0.45308800E+00 0.26922994E+03</pdfrwt>
<pdfrwt beam="2">  1       -1 0.11128346E+00 0.26922994E+03</pdfrwt>
<totfact> 0.63783723E-01</totfact>
</mgrwt>
</event>
<event>
 4    1  0.2731969E-009  0.1126015E+04  0.7818608E-02  0.9180200E-01
         -1   -1    0    0    0  501 -0.00000000000E+00  0.00000000000E+00  0.23379167963E+04  0.23379167963E+04  0.50400000000E-02 0.  1.
          1   -1    0    0  501    0  0.00000000000E+00 -0.00000000000E+00 -0.69444162464E+03  0.69444162465E+03  0.50400000000E-02 0. -1.
    8880022    1    1    2    0    0 -0.63387072942E+03  0.91800156935E+03  0.11212540694E+03  0.11315841740E+04  0.15294330000E+03 0.  0.
    8880022    1    1    2    0    0  0.63387072942E+03 -0.91800156935E+03  0.15313497647E+04  0.19007742469E+04  0.15294330000E+03 0.  0.
<mgrwt>
<rscale>  0 0.11260154E+04</rscale>
<asrwt>0</asrwt>
<pdfrwt beam="1">  1        1 0.10683717E+00 0.11260154E+04</pdfrwt>
<pdfrwt beam="2">  1       -1 0.35967950E+00 0.11260154E+04</pdfrwt>
<totfact> 0.37041466E-01</totfact>
</mgrwt>
</event>
<event>
 4    1  0.2731969E-009  0.2701747E+03  0.7818608E-02  0.1101180E+00
          1   -1    0    0  501    0  0.00000000000E+00  0.00000000000E+00  0.13624047653E+04  0.13624047653E+04  0.50400000000E-02 0. -1.
         -1   -1    0    0    0  501 -0.00000000000E+00 -0.00000000000E+00 -0.44148933342E+03  0.44148933345E+03  0.50400000000E-02 0.  1.
    8880022    1    1    2    0    0 -0.20051623422E+03  0.96932613567E+02 -0.38499126709E+03  0.47033245743E+03  0.15294330000E+03 0.  1.
    8880022    1    1    2    0    0  0.20051623422E+03 -0.96932613567E+02  0.13059066990E+04  0.13335616413E+04  0.15294330000E+03 0.  0.
<mgrwt>
<rscale>  0 0.27017466E+03</rscale>
<asrwt>0</asrwt>
<pdfrwt beam="1">  1        1 0.20960073E+00 0.27017466E+03</pdfrwt>
<pdfrwt beam="2">  1       -1 0.67921436E-01 0.27017466E+03</pdfrwt>
<totfact> 0.20526355E+01</totfact>
</mgrwt>
</event>
<event>
 4    1  0.2731969E-009  0.5987501E+03  0.7818608E-02  0.9908002E-01
         -1   -1    0    0    0  501 -0.00000000000E+00  0.00000000000E+00  0.44390883215E+03  0.44390883218E+03  0.50400000000E-02 0.  1.
          1   -1    0    0  501    0  0.00000000000E+00 -0.00000000000E+00 -0.12426345620E+04  0.12426345620E+04  0.50400000000E-02 0. -1.
    8880022    1    1    2    0    0  0.12417991749E+03 -0.56541085660E+03 -0.89831237589E+03  0.10795679072E+04  0.15294330000E+03 0.  0.
    8880022    1    1    2    0    0 -0.12417991749E+03  0.56541085660E+03  0.99586646036E+02  0.60697548694E+03  0.15294330000E+03 0.  0.
<mgrwt>
<rscale>  0 0.59875015E+03</rscale>
<asrwt>0</asrwt>
<pdfrwt beam="1">  1        1 0.19117455E+00 0.59875015E+03</pdfrwt>
<pdfrwt beam="2">  1       -1 0.68293667E-01 0.59875015E+03</pdfrwt>
<totfact> 0.22732975E+01</totfact>
</mgrwt>
</event>
<event>
 4    1  0.2731969E-009  0.1041685E+04  0.7818608E-02  0.9263971E-01
          1   -1    0    0  501    0  0.00000000000E+00  0.00000000000E+00  0.63056196527E+03  0.63056196529E+03  0.50400000000E-02 0. -1.
         -1   -1    0    0    0  501 -0.00000000000E+00 -0.00000000000E+00 -0.26866248121E+04  0.26866248121E+04  0.50400000000E-02 0.  1.
    8880022    1    1    2    0    0  0.92481534404E+03  0.45434853978E+03 -0.20224575684E+04  0.22749598425E+04  0.15294330000E+03 0.  1.
    8880022    1    1    2    0    0 -0.92481534404E+03 -0.45434853978E+03 -0.33605278519E+02  0.10422269349E+04  0.15294330000E+03 0.  0.
<mgrwt>
<rscale>  0 0.10416850E+04</rscale>
<asrwt>0</asrwt>
<pdfrwt beam="1">  1        1 0.97009534E-01 0.10416850E+04</pdfrwt>
<pdfrwt beam="2">  1       -1 0.41332689E+00 0.10416850E+04</pdfrwt>
<totfact> 0.18821327E-01</totfact>
</mgrwt>
</event>
<event>
 4    1  0.2731969E-009  0.1054820E+04  0.7818608E-02  0.9250382E-01
          1   -1    0    0  501    0  0.00000000000E+00  0.00000000000E+00  0.14054299439E+04  0.14054299439E+04  0.50400000000E-02 0. -1.
         -1   -1    0    0    0  501 -0.00000000000E+00 -0.00000000000E+00 -0.12514711580E+04  0.12514711580E+04  0.50400000000E-02 0.  1.
    8880022    1    1    2    0    0 -0.24372333234E+03  0.10148164234E+04  0.88220428183E+03  0.13751107169E+04  0.15294330000E+03 0.  0.
    8880022    1    1    2    0    0  0.24372333234E+03 -0.10148164234E+04 -0.72824549592E+03  0.12817903851E+04  0.15294330000E+03 0.  0.
<mgrwt>
<rscale>  0 0.10548199E+04</rscale>
<asrwt>0</asrwt>
<pdfrwt beam="1">  1        1 0.21621999E+00 0.10548199E+04</pdfrwt>
<pdfrwt beam="2">  1       -1 0.19253403E+00 0.10548199E+04</pdfrwt>
<totfact> 0.12894340E+00</totfact>
</mgrwt>
</event>
<event>
 4    1  0.2731969E-009  0.1058955E+04  0.7818608E-02  0.9246147E-01
          1   -1    0    0  501    0  0.00000000000E+00  0.00000000000E+00  0.16187878429E+04  0.16187878429E+04  0.50400000000E-02 0. -1.
         -1   -1    0    0    0  501 -0.00000000000E+00 -0.00000000000E+00 -0.11516468569E+04  0.11516468569E+04  0.50400000000E-02 0.  1.
    8880022    1    1    2    0    0 -0.81036504030E+03  0.66430639170E+03 -0.64085803903E+03  0.12377742766E+04  0.15294330000E+03 0.  0.
    8880022    1    1    2    0    0  0.81036504030E+03 -0.66430639170E+03  0.11079990249E+04  0.15326604232E+04  0.15294330000E+03 0.  0.
<mgrwt>
<rscale>  0 0.10589552E+04</rscale>
<asrwt>0</asrwt>
<pdfrwt beam="1">  1        1 0.24904428E+00 0.10589552E+04</pdfrwt>
<pdfrwt beam="2">  1       -1 0.17717644E+00 0.10589552E+04</pdfrwt>
<totfact> 0.11798336E+00</totfact>
</mgrwt>
</event>
<event>
 4    1  0.2731969E-009  0.5020404E+03  0.7818608E-02  0.1013248E+00
         -1   -1    0    0    0  501 -0.00000000000E+00  0.00000000000E+00  0.58387851716E+04  0.58387851716E+04  0.50400000000E-02 0.  1.
          1   -1    0    0  501    0  0.00000000000E+00 -0.00000000000E+00 -0.31074668737E+03  0.31074668741E+03  0.50400000000E-02 0. -1.
    8880022    1    1    2    0    0 -0.64563691455E+02  0.47379785249E+03 -0.89199989149E+02  0.50990309507E+03  0.15294330000E+03 0.  0.
    8880022    1    1    2    0    0  0.64563691455E+02 -0.47379785249E+03  0.56172384733E+04  0.56396287639E+04  0.15294330000E+03 0.  0.
<mgrwt>
<rscale>  0 0.50204037E+03</rscale>
<asrwt>0</asrwt>
<pdfrwt beam="1">  1        1 0.47807185E-01 0.50204037E+03</pdfrwt>
<pdfrwt beam="2">  1       -1 0.89827459E+00 0.50204037E+03</pdfrwt>
<totfact> 0.10110920E-03</totfact>
</mgrwt>
</event>
<event>
 4    1  0.2731969E-009  0.7919766E+03  0.7818608E-02  0.9571704E-01
          1   -1    0    0  501    0  0.00000000000E+00  0.00000000000E+00  0.24988263157E+04  0.24988263157E+04  0.50400000000E-02 0. -1.
         -1   -1    0    0    0  501 -0.00000000000E+00 -0.00000000000E+00 -0.41908057790E+03  0.41908057794E+03  0.50400000000E-02 0.  1.
    8880022    1    1    2    0    0  0.45538638529E+03  0.62964948644E+03  0.19638055437E+04  0.21174888671E+04  0.15294330000E+03 0.  0.
    8880022    1    1    2    0    0 -0.45538638529E+03 -0.62964948644E+03  0.11594019412E+03  0.80041802660E+03  0.15294330000E+03 0.  0.
<mgrwt>
<rscale>  0 0.79197657E+03</rscale>
<asrwt>0</asrwt>
<pdfrwt beam="1">  1        1 0.38443482E+00 0.79197657E+03</pdfrwt>
<pdfrwt beam="2">  1       -1 0.64473935E-01 0.79197657E+03</pdfrwt>
<totfact> 0.34856970E+00</totfact>
</mgrwt>
</event>
<event>
 4    1  0.2731969E-009  0.5733829E+03  0.7818608E-02  0.9962220E-01
         -1   -1    0    0    0  501 -0.00000000000E+00  0.00000000000E+00  0.17176966700E+04  0.17176966700E+04  0.50400000000E-02 0.  1.
          1   -1    0    0  501    0  0.00000000000E+00 -0.00000000000E+00 -0.31132835231E+03  0.31132835235E+03  0.50400000000E-02 0. -1.
    8880022    1    1    2    0    0  0.50939030072E+03  0.21423789277E+03  0.73521275352E+02  0.57807731673E+03  0.15294330000E+03 0.  0.
    8880022    1    1    2    0    0 -0.50939030072E+03 -0.21423789277E+03  0.13328470423E+04  0.14509477056E+04  0.15294330000E+03 0.  0.
<mgrwt>
<rscale>  0 0.57338295E+03</rscale>
<asrwt>0</asrwt>
<pdfrwt beam="1">  1        1 0.47896669E-01 0.57338295E+03</pdfrwt>
<pdfrwt beam="2">  1       -1 0.26426103E+00 0.57338295E+03</pdfrwt>
<totfact> 0.50365216E+00</totfact>
</mgrwt>
</event>
<event>
 4    1  0.2731969E-009  0.9158526E+03  0.7818608E-02  0.9405979E-01
         -1   -1    0    0    0  501 -0.00000000000E+00  0.00000000000E+00  0.84388708556E+03  0.84388708557E+03  0.50400000000E-02 0.  1.
          1   -1    0    0  501    0  0.00000000000E+00 -0.00000000000E+00 -0.29297454336E+04  0.29297454336E+04  0.50400000000E-02 0. -1.
    8880022    1    1    2    0    0 -0.18234561538E+03  0.88438930687E+03 -0.25766411388E+04  0.27345686279E+04  0.15294330000E+03 0.  0.
    8880022    1    1    2    0    0  0.18234561538E+03 -0.88438930687E+03  0.49078279071E+03  0.10390638913E+04  0.15294330000E+03 0.  0.
<mgrwt>
<rscale>  0 0.91585262E+03</rscale>
<asrwt>0</asrwt>
<pdfrwt beam="1">  1        1 0.45073006E+00 0.91585262E+03</pdfrwt>
<pdfrwt beam="2">  1       -1 0.12982878E+00 0.91585262E+03</pdfrwt>
<totfact> 0.35683843E-01</totfact>
</mgrwt>
</event>
<event>
 4    1  0.2731969E-009  0.5494273E+03  0.7818608E-02  0.1001627E+00
          1   -1    0    0  501    0  0.00000000000E+00  0.00000000000E+00  0.58730260592E+03  0.58730260594E+03  0.50400000000E-02 0. -1.
         -1   -1    0    0    0  501 -0.00000000000E+00 -0.00000000000E+00 -0.11757046461E+04  0.11757046461E+04  0.50400000000E-02 0.  1.
    8880022    1    1    2    0    0  0.24715848059E+03 -0.46625248165E+03  0.36711472569E+03  0.66079010737E+03  0.15294330000E+03 0. -1.
    8880022    1    1    2    0    0 -0.24715848059E+03  0.46625248165E+03 -0.95551676587E+03  0.11022171447E+04  0.15294330000E+03 0.  0.
<mgrwt>
<rscale>  0 0.54942729E+03</rscale>
<asrwt>0</asrwt>
<pdfrwt beam="1">  1        1 0.90354247E-01 0.54942729E+03</pdfrwt>
<pdfrwt beam="2">  1       -1 0.18087764E+00 0.54942729E+03</pdfrwt>
<totfact> 0.77232095E+00</totfact>
</mgrwt>
</event>
<event>
 4    1  0.2731969E-009  0.1272189E+04  0.7818608E-02  0.9051915E-01
          1   -1    0    0  501    0  0.00000000000E+00  0.00000000000E+00  0.23020334960E+04  0.23020334960E+04  0.50400000000E-02 0. -1.
         -1   -1    0    0    0  501 -0.00000000000E+00 -0.00000000000E+00 -0.10182817939E+04  0.10182817939E+04  0.50400000000E-02 0.  1.
    8880022    1    1    2    0    0  0.10180764919E+03 -0.12588523570E+04 -0.28180947759E+03  0.13030281228E+04  0.15294330000E+03 0.  0.
    8880022    1    1    2    0    0 -0.10180764919E+03  0.12588523570E+04  0.15655611796E+04  0.20172871671E+04  0.15294330000E+03 0.  0.
<mgrwt>
<rscale>  0 0.12721893E+04</rscale>
<asrwt>0</asrwt>
<pdfrwt beam="1">  1        1 0.35415900E+00 0.12721893E+04</pdfrwt>
<pdfrwt beam="2">  1       -1 0.15665874E+00 0.12721893E+04</pdfrwt>
<totfact> 0.56061256E-01</totfact>
</mgrwt>
</event>
<event>
 4    1  0.2731969E-009  0.7609578E+03  0.7818608E-02  0.9618314E-01
         -1   -1    0    0    0  501 -0.00000000000E+00  0.00000000000E+00  0.53627295029E+03  0.53627295032E+03  0.50400000000E-02 0.  1.
          1   -1    0    0  501    0  0.00000000000E+00 -0.00000000000E+00 -0.19430928049E+04  0.19430928050E+04  0.50400000000E-02 0. -1.
    8880022    1    1    2    0    0 -0.59344996649E+03 -0.45109013684E+03  0.12290940296E+03  0.77082004945E+03  0.15294330000E+03 0.  0.
    8880022    1    1    2    0    0  0.59344996649E+03  0.45109013684E+03 -0.15297292576E+04  0.17085457058E+04  0.15294330000E+03 0.  0.
<mgrwt>
<rscale>  0 0.76095784E+03</rscale>
<asrwt>0</asrwt>
<pdfrwt beam="1">  1        1 0.29893735E+00 0.76095784E+03</pdfrwt>
<pdfrwt beam="2">  1       -1 0.82503532E-01 0.76095784E+03</pdfrwt>
<totfact> 0.49795159E+00</totfact>
</mgrwt>
</event>
<event>
 4    1  0.3530237E-009  0.1679348E+04  0.7818608E-02  0.8773232E-01
          1   -1    0    0  501    0  0.00000000000E+00  0.00000000000E+00  0.26877718020E+04  0.26877718020E+04  0.50400000000E-02 0. -1.
         -1   -1    0    0    0  501 -0.00000000000E+00 -0.00000000000E+00 -0.21321787656E+04  0.21321787656E+04  0.50400000000E-02 0.  1.
    8880022    1    1    2    0    0 -0.51312739160E+03 -0.15917025512E+04 -0.14397003951E+04  0.22120003644E+04  0.15294330000E+03 0.  0.
    8880022    1    1    2    0    0  0.51312739160E+03  0.15917025512E+04  0.19952934316E+04  0.26079502032E+04  0.15294330000E+03 0.  0.
<mgrwt>
<rscale>  0 0.16793476E+04</rscale>
<asrwt>0</asrwt>
<pdfrwt beam="1">  1        1 0.41350335E+00 0.16793476E+04</pdfrwt>
<pdfrwt beam="2">  1       -1 0.32802750E+00 0.16793476E+04</pdfrwt>
<totfact> 0.19989087E-02</totfact>
</mgrwt>
</event>
<event>
 4    1  0.2731969E-009  0.9041192E+03  0.7818608E-02  0.9420447E-01
          1   -1    0    0  501    0  0.00000000000E+00  0.00000000000E+00  0.11577769996E+04  0.11577769996E+04  0.50400000000E-02 0. -1.
         -1   -1    0    0    0  501 -0.00000000000E+00 -0.00000000000E+00 -0.99229007445E+03  0.99229007447E+03  0.50400000000E-02 0.  1.
    8880022    1    1    2    0    0 -0.81708031223E+03 -0.35555548840E+03 -0.49465942498E+03  0.10305918405E+04  0.15294330000E+03 0.  0.
    8880022    1    1    2    0    0  0.81708031223E+03  0.35555548840E+03  0.66014635008E+03  0.11194752335E+04  0.15294330000E+03 0.  0.
<mgrwt>
<rscale>  0 0.90411924E+03</rscale>
<asrwt>0</asrwt>
<pdfrwt beam="1">  1        1 0.17811954E+00 0.90411924E+03</pdfrwt>
<pdfrwt beam="2">  1       -1 0.15266001E+00 0.90411924E+03</pdfrwt>
<totfact> 0.38783818E+00</totfact>
</mgrwt>
</event>
<event>
 4    1  0.2731969E-009  0.6505897E+03  0.7818608E-02  0.9805673E-01
          1   -1    0    0  501    0  0.00000000000E+00  0.00000000000E+00  0.50415650184E+03  0.50415650187E+03  0.50400000000E-02 0. -1.
         -1   -1    0    0    0  501 -0.00000000000E+00 -0.00000000000E+00 -0.16108968549E+04  0.16108968550E+04  0.50400000000E-02 0.  1.
    8880022    1    1    2    0    0  0.10139296891E+03  0.62417526658E+03 -0.12851509663E+04  0.14404443608E+04  0.15294330000E+03 0.  0.
    8880022    1    1    2    0    0 -0.10139296891E+03 -0.62417526658E+03  0.17841061317E+03  0.67460899598E+03  0.15294330000E+03 0.  0.
<mgrwt>
<rscale>  0 0.65058969E+03</rscale>
<asrwt>0</asrwt>
<pdfrwt beam="1">  1        1 0.77562540E-01 0.65058969E+03</pdfrwt>
<pdfrwt beam="2">  1       -1 0.24783028E+00 0.65058969E+03</pdfrwt>
<totfact> 0.33450809E+00</totfact>
</mgrwt>
</event>
<event>
 4    1  0.2731969E-009  0.5623215E+03  0.7818608E-02  0.9986816E-01
         -1   -1    0    0    0  501 -0.00000000000E+00  0.00000000000E+00  0.55431903267E+03  0.55431903270E+03  0.50400000000E-02 0.  1.
          1   -1    0    0  501    0  0.00000000000E+00 -0.00000000000E+00 -0.18571878149E+04  0.18571878150E+04  0.50400000000E-02 0. -1.
    8880022    1    1    2    0    0 -0.16079274333E+03  0.51668122777E+03 -0.16550730967E+04  0.17479909627E+04  0.15294330000E+03 0.  0.
    8880022    1    1    2    0    0  0.16079274333E+03 -0.51668122777E+03  0.35220431440E+03  0.66351588492E+03  0.15294330000E+03 0.  1.
<mgrwt>
<rscale>  0 0.56232148E+03</rscale>
<asrwt>0</asrwt>
<pdfrwt beam="1">  1        1 0.28572120E+00 0.56232148E+03</pdfrwt>
<pdfrwt beam="2">  1       -1 0.85279852E-01 0.56232148E+03</pdfrwt>
<totfact> 0.55045328E+00</totfact>
</mgrwt>
</event>
<event>
 4    1  0.2731969E-009  0.4329071E+03  0.7818608E-02  0.1032946E+00
          1   -1    0    0  501    0  0.00000000000E+00  0.00000000000E+00  0.33332123617E+03  0.33332123621E+03  0.50400000000E-02 0. -1.
         -1   -1    0    0    0  501 -0.00000000000E+00 -0.00000000000E+00 -0.88771784341E+03  0.88771784342E+03  0.50400000000E-02 0.  1.
    8880022    1    1    2    0    0 -0.30923944272E+02 -0.40380768667E+03 -0.64687211611E+03  0.77836503375E+03  0.15294330000E+03 0.  0.
    8880022    1    1    2    0    0  0.30923944272E+02  0.40380768667E+03  0.92475508871E+02  0.44267404588E+03  0.15294330000E+03 0.  0.
<mgrwt>
<rscale>  0 0.43290714E+03</rscale>
<asrwt>0</asrwt>
<pdfrwt beam="1">  1        1 0.51280191E-01 0.43290714E+03</pdfrwt>
<pdfrwt beam="2">  1       -1 0.13657197E+00 0.43290714E+03</pdfrwt>
<totfact> 0.36197534E+01</totfact>
</mgrwt>
</event>
<event>
 4    1  0.2731969E-009  0.4691548E+03  0.7818608E-02  0.1022159E+00
         -1   -1    0    0    0  501 -0.00000000000E+00  0.00000000000E+00  0.36196190590E+03  0.36196190593E+03  0.50400000000E-02 0.  1.
          1   -1    0    0  501    0  0.00000000000E+00 -0.00000000000E+00 -0.22554784332E+04  0.22554784332E+04  0.50400000000E-02 0. -1.
    8880022    1    1    2    0    0 -0.43379447235E+03  0.92395493613E+02  0.17171386884E+03  0.49959171055E+03  0.15294330000E+03 0.  0.
    8880022    1    1    2    0    0  0.43379447235E+03 -0.92395493613E+02 -0.20652303961E+04  0.21178486286E+04  0.15294330000E+03 0. -1.
<mgrwt>
<rscale>  0 0.46915480E+03</rscale>
<asrwt>0</asrwt>
<pdfrwt beam="1">  1        1 0.34699667E+00 0.46915480E+03</pdfrwt>
<pdfrwt beam="2">  1       -1 0.55686449E-01 0.46915480E+03</pdfrwt>
<totfact> 0.72823534E+00</totfact>
</mgrwt>
</event>
<event>
 4    1  0.2731969E-009  0.9463656E+03  0.7818608E-02  0.9369409E-01
          1   -1    0    0  501    0  0.00000000000E+00  0.00000000000E+00  0.13152521865E+04  0.13152521865E+04  0.50400000000E-02 0. -1.
         -1   -1    0    0    0  501 -0.00000000000E+00 -0.00000000000E+00 -0.13440273754E+04  0.13440273754E+04  0.50400000000E-02 0.  1.
    8880022    1    1    2    0    0  0.87380463311E+03  0.32966907713E+03 -0.94831970146E+03  0.13397455529E+04  0.15294330000E+03 0.  0.
    8880022    1    1    2    0    0 -0.87380463311E+03 -0.32966907713E+03  0.91954451258E+03  0.13195340090E+04  0.15294330000E+03 0.  0.
<mgrwt>
<rscale>  0 0.94636562E+03</rscale>
<asrwt>0</asrwt>
<pdfrwt beam="1">  1        1 0.20234649E+00 0.94636562E+03</pdfrwt>
<pdfrwt beam="2">  1       -1 0.20677344E+00 0.94636562E+03</pdfrwt>
<totfact> 0.12100355E+00</totfact>
</mgrwt>
</event>
<event>
 4    1  0.2731969E-009  0.2914659E+03  0.7818608E-02  0.1089586E+00
         -1   -1    0    0    0  501 -0.00000000000E+00  0.00000000000E+00  0.74092589632E+03  0.74092589634E+03  0.50400000000E-02 0.  1.
          1   -1    0    0  501    0  0.00000000000E+00 -0.00000000000E+00 -0.22769850789E+03  0.22769850794E+03  0.50400000000E-02 0. -1.
    8880022    1    1    2    0    0  0.24635506719E+03 -0.29493824535E+02  0.59785708203E+03  0.66512062693E+03  0.15294330000E+03 0.  1.
    8880022    1    1    2    0    0 -0.24635506719E+03  0.29493824535E+02 -0.84629693597E+02  0.30350377735E+03  0.15294330000E+03 0.  0.
<mgrwt>
<rscale>  0 0.29146588E+03</rscale>
<asrwt>0</asrwt>
<pdfrwt beam="1">  1        1 0.35030539E-01 0.29146588E+03</pdfrwt>
<pdfrwt beam="2">  1       -1 0.11398860E+00 0.29146588E+03</pdfrwt>
<totfact> 0.93380203E+01</totfact>
</mgrwt>
</event>
<event>
 4    1  0.2731969E-009  0.2365617E+03  0.7818608E-02  0.1122105E+00
         -1   -1    0    0    0  501 -0.00000000000E+00  0.00000000000E+00  0.11499599219E+03  0.11499599231E+03  0.50400000000E-02 0.  1.
          1   -1    0    0  501    0  0.00000000000E+00 -0.00000000000E+00 -0.11675639251E+04  0.11675639251E+04  0.50400000000E-02 0. -1.
    8880022    1    1    2    0    0  0.43954033662E+02 -0.17503664487E+03 -0.10160145427E+04  0.10431907726E+04  0.15294330000E+03 0. -1.
    8880022    1    1    2    0    0 -0.43954033662E+02  0.17503664487E+03 -0.36553390207E+02  0.23936914478E+03  0.15294330000E+03 0.  0.
<mgrwt>
<rscale>  0 0.23656170E+03</rscale>
<asrwt>0</asrwt>
<pdfrwt beam="1">  1        1 0.17962521E+00 0.23656170E+03</pdfrwt>
<pdfrwt beam="2">  1       -1 0.17691692E-01 0.23656170E+03</pdfrwt>
<totfact> 0.30086371E+02</totfact>
</mgrwt>
</event>
<event>
 4    1  0.2731969E-009  0.3221934E+03  0.7818608E-02  0.1074644E+00
         -1   -1    0    0    0  501 -0.00000000000E+00  0.00000000000E+00  0.78062339171E+03  0.78062339173E+03  0.50400000000E-02 0.  1.
          1   -1    0    0  501    0  0.00000000000E+00 -0.00000000000E+00 -0.45869603094E+03  0.45869603097E+03  0.50400000000E-02 0. -1.
    8880022    1    1    2    0    0 -0.20676600296E+03 -0.19407408342E+03 -0.36120310051E+03  0.48402093205E+03  0.15294330000E+03 0.  0.
    8880022    1    1    2    0    0  0.20676600296E+03  0.19407408342E+03  0.68313046127E+03  0.75529849065E+03  0.15294330000E+03 0.  0.
<mgrwt>
<rscale>  0 0.32219339E+03</rscale>
<asrwt>0</asrwt>
<pdfrwt beam="1">  1        1 0.70568621E-01 0.32219339E+03</pdfrwt>
<pdfrwt beam="2">  1       -1 0.12009590E+00 0.32219339E+03</pdfrwt>
<totfact> 0.33497776E+01</totfact>
</mgrwt>
</event>
<event>
 4    1  0.2731969E-009  0.1313988E+04  0.7818608E-02  0.9018545E-01
          1   -1    0    0  501    0  0.00000000000E+00  0.00000000000E+00  0.21209893533E+04  0.21209893533E+04  0.50400000000E-02 0. -1.
         -1   -1    0    0    0  501 -0.00000000000E+00 -0.00000000000E+00 -0.20733971773E+04  0.20733971774E+04  0.50400000000E-02 0.  1.
    8880022    1    1    2    0    0  0.26580541798E+03 -0.12777014456E+04  0.16582477139E+04  0.21157387925E+04  0.15294330000E+03 0.  0.
    8880022    1    1    2    0    0 -0.26580541798E+03  0.12777014456E+04 -0.16106555380E+04  0.20786477382E+04  0.15294330000E+03 0.  0.
<mgrwt>
<rscale>  0 0.13139883E+04</rscale>
<asrwt>0</asrwt>
<pdfrwt beam="1">  1        1 0.32630606E+00 0.13139883E+04</pdfrwt>
<pdfrwt beam="2">  1       -1 0.31898418E+00 0.13139883E+04</pdfrwt>
<totfact> 0.59422986E-02</totfact>
</mgrwt>
</event>
<event>
 4    1  0.2731969E-009  0.6114810E+03  0.7818608E-02  0.9881869E-01
         -1   -1    0    0    0  501 -0.00000000000E+00  0.00000000000E+00  0.64528877357E+03  0.64528877359E+03  0.50400000000E-02 0.  1.
          1   -1    0    0  501    0  0.00000000000E+00 -0.00000000000E+00 -0.11523051654E+04  0.11523051654E+04  0.50400000000E-02 0. -1.
    8880022    1    1    2    0    0  0.59185277130E+03  0.15086967135E+02  0.38021905244E+03  0.72005242888E+03  0.15294330000E+03 0.  0.
    8880022    1    1    2    0    0 -0.59185277130E+03 -0.15086967135E+02 -0.88723544429E+03  0.10775415102E+04  0.15294330000E+03 0.  0.
<mgrwt>
<rscale>  0 0.61148097E+03</rscale>
<asrwt>0</asrwt>
<pdfrwt beam="1">  1        1 0.17727772E+00 0.61148097E+03</pdfrwt>
<pdfrwt beam="2">  1       -1 0.99275196E-01 0.61148097E+03</pdfrwt>
<totfact> 0.11852317E+01</totfact>
</mgrwt>
</event>
<event>
 4    1  0.2731969E-009  0.9713946E+03  0.7818608E-02  0.9340487E-01
         -1   -1    0    0    0  501 -0.00000000000E+00  0.00000000000E+00  0.20387667147E+04  0.20387667147E+04  0.50400000000E-02 0.  1.
          1   -1    0    0  501    0  0.00000000000E+00 -0.00000000000E+00 -0.96513877247E+03  0.96513877249E+03  0.50400000000E-02 0. -1.
    8880022    1    1    2    0    0 -0.59939327364E+03  0.74896160864E+03 -0.54672790267E+03  0.11146832915E+04  0.15294330000E+03 0.  0.
    8880022    1    1    2    0    0  0.59939327364E+03 -0.74896160864E+03  0.16203558449E+04  0.18892221957E+04  0.15294330000E+03 0.  0.
<mgrwt>
<rscale>  0 0.97139459E+03</rscale>
<asrwt>0</asrwt>
<pdfrwt beam="1">  1        1 0.14848289E+00 0.97139459E+03</pdfrwt>
<pdfrwt beam="2">  1       -1 0.31365642E+00 0.97139459E+03</pdfrwt>
<totfact> 0.44290314E-01</totfact>
</mgrwt>
</event>
<event>
 4    1  0.2731969E-009  0.1462391E+04  0.7818608E-02  0.8909855E-01
         -1   -1    0    0    0  501 -0.00000000000E+00  0.00000000000E+00  0.13374591322E+04  0.13374591322E+04  0.50400000000E-02 0.  1.
          1   -1    0    0  501    0  0.00000000000E+00 -0.00000000000E+00 -0.25390141574E+04  0.25390141574E+04  0.50400000000E-02 0. -1.
    8880022    1    1    2    0    0 -0.11523293020E+03 -0.14497985057E+04 -0.17801292860E+04  0.23037895440E+04  0.15294330000E+03 0.  0.
    8880022    1    1    2    0    0  0.11523293020E+03  0.14497985057E+04  0.57857426078E+03  0.15726837455E+04  0.15294330000E+03 0.  0.
<mgrwt>
<rscale>  0 0.14623905E+04</rscale>
<asrwt>0</asrwt>
<pdfrwt beam="1">  1        1 0.39061756E+00 0.14623905E+04</pdfrwt>
<pdfrwt beam="2">  1       -1 0.20576294E+00 0.14623905E+04</pdfrwt>
<totfact> 0.16608767E-01</totfact>
</mgrwt>
</event>
<event>
 4    1  0.2731969E-009  0.1649332E+04  0.7818608E-02  0.8790802E-01
         -1   -1    0    0    0  501 -0.00000000000E+00  0.00000000000E+00  0.16806920550E+04  0.16806920550E+04  0.50400000000E-02 0.  1.
          1   -1    0    0  501    0  0.00000000000E+00 -0.00000000000E+00 -0.20966365282E+04  0.20966365282E+04  0.50400000000E-02 0. -1.
    8880022    1    1    2    0    0  0.57322368255E+03 -0.15389347481E+04 -0.11098401055E+04  0.19879744118E+04  0.15294330000E+03 0.  0.
    8880022    1    1    2    0    0 -0.57322368255E+03  0.15389347481E+04  0.69389563227E+03  0.17893541714E+04  0.15294330000E+03 0.  0.
<mgrwt>
<rscale>  0 0.16493324E+04</rscale>
<asrwt>0</asrwt>
<pdfrwt beam="1">  1        1 0.32255947E+00 0.16493324E+04</pdfrwt>
<pdfrwt beam="2">  1       -1 0.25856801E+00 0.16493324E+04</pdfrwt>
<totfact> 0.14553212E-01</totfact>
</mgrwt>
</event>
<event>
 4    1  0.2731969E-009  0.5129586E+03  0.7818608E-02  0.1010451E+00
         -1   -1    0    0    0  501 -0.00000000000E+00  0.00000000000E+00  0.38874916807E+03  0.38874916810E+03  0.50400000000E-02 0.  1.
          1   -1    0    0  501    0  0.00000000000E+00 -0.00000000000E+00 -0.11270553626E+04  0.11270553626E+04  0.50400000000E-02 0. -1.
    8880022    1    1    2    0    0  0.61911663624E+02  0.48569725447E+03 -0.84816230084E+03  0.99121431521E+03  0.15294330000E+03 0.  0.
    8880022    1    1    2    0    0 -0.61911663624E+02 -0.48569725447E+03  0.10985610631E+03  0.52459021551E+03  0.15294330000E+03 0.  0.
<mgrwt>
<rscale>  0 0.51295860E+03</rscale>
<asrwt>0</asrwt>
<pdfrwt beam="1">  1        1 0.17339313E+00 0.51295860E+03</pdfrwt>
<pdfrwt beam="2">  1       -1 0.59807565E-01 0.51295860E+03</pdfrwt>
<totfact> 0.36355068E+01</totfact>
</mgrwt>
</event>
<event>
 4    1  0.2731969E-009  0.5456884E+03  0.7818608E-02  0.1002497E+00
          1   -1    0    0  501    0  0.00000000000E+00  0.00000000000E+00  0.75985404317E+03  0.75985404319E+03  0.50400000000E-02 0. -1.
         -1   -1    0    0    0  501 -0.00000000000E+00 -0.00000000000E+00 -0.88926881580E+03  0.88926881582E+03  0.50400000000E-02 0.  1.
    8880022    1    1    2    0    0  0.38951255425E+03  0.35023440377E+03  0.55196154516E+03  0.77616838885E+03  0.15294330000E+03 0.  0.
    8880022    1    1    2    0    0 -0.38951255425E+03 -0.35023440377E+03 -0.68137631779E+03  0.87295447015E+03  0.15294330000E+03 0.  0.
<mgrwt>
<rscale>  0 0.54568839E+03</rscale>
<asrwt>0</asrwt>
<pdfrwt beam="1">  1        1 0.11690062E+00 0.54568839E+03</pdfrwt>
<pdfrwt beam="2">  1       -1 0.13681059E+00 0.54568839E+03</pdfrwt>
<totfact> 0.11352826E+01</totfact>
</mgrwt>
</event>
<event>
 4    1  0.2731969E-009  0.8400073E+03  0.7818608E-02  0.9503848E-01
         -1   -1    0    0    0  501 -0.00000000000E+00  0.00000000000E+00  0.14313750525E+04  0.14313750525E+04  0.50400000000E-02 0.  1.
          1   -1    0    0  501    0  0.00000000000E+00 -0.00000000000E+00 -0.11681704273E+04  0.11681704274E+04  0.50400000000E-02 0. -1.
    8880022    1    1    2    0    0  0.28740156047E+02 -0.82546633316E+03 -0.85657189759E+03  0.11997198558E+04  0.15294330000E+03 0.  0.
    8880022    1    1    2    0    0 -0.28740156047E+02  0.82546633316E+03  0.11197765227E+04  0.13998256240E+04  0.15294330000E+03 0.  0.
<mgrwt>
<rscale>  0 0.84000733E+03</rscale>
<asrwt>0</asrwt>
<pdfrwt beam="1">  1        1 0.17971853E+00 0.84000733E+03</pdfrwt>
<pdfrwt beam="2">  1       -1 0.22021155E+00 0.84000733E+03</pdfrwt>
<totfact> 0.12764767E+00</totfact>
</mgrwt>
</event>
<event>
 4    1  0.2731969E-009  0.5832117E+03  0.7818608E-02  0.9940862E-01
          1   -1    0    0  501    0  0.00000000000E+00  0.00000000000E+00  0.49250051238E+03  0.49250051241E+03  0.50400000000E-02 0. -1.
         -1   -1    0    0    0  501 -0.00000000000E+00 -0.00000000000E+00 -0.19117474978E+04  0.19117474978E+04  0.50400000000E-02 0.  1.
    8880022    1    1    2    0    0  0.50218924569E+03  0.25406725714E+03 -0.16703784792E+04  0.17692654200E+04  0.15294330000E+03 0.  0.
    8880022    1    1    2    0    0 -0.50218924569E+03 -0.25406725714E+03  0.25113149381E+03  0.63498259018E+03  0.15294330000E+03 0.  0.
<mgrwt>
<rscale>  0 0.58321168E+03</rscale>
<asrwt>0</asrwt>
<pdfrwt beam="1">  1        1 0.75769311E-01 0.58321168E+03</pdfrwt>
<pdfrwt beam="2">  1       -1 0.29411500E+00 0.58321168E+03</pdfrwt>
<totfact> 0.17738109E+00</totfact>
</mgrwt>
</event>
<event>
 4    1  0.2731969E-009  0.9012629E+03  0.7818608E-02  0.9424004E-01
          1   -1    0    0  501    0  0.00000000000E+00  0.00000000000E+00  0.14591644687E+04  0.14591644687E+04  0.50400000000E-02 0. -1.
         -1   -1    0    0    0  501 -0.00000000000E+00 -0.00000000000E+00 -0.82167592457E+03  0.82167592459E+03  0.50400000000E-02 0.  1.
    8880022    1    1    2    0    0 -0.12182679517E+03 -0.87979624950E+03  0.96639582728E+03  0.13214370044E+04  0.15294330000E+03 0.  0.
    8880022    1    1    2    0    0  0.12182679517E+03  0.87979624950E+03 -0.32890728315E+03  0.95940338887E+03  0.15294330000E+03 0.  0.
<mgrwt>
<rscale>  0 0.90126293E+03</rscale>
<asrwt>0</asrwt>
<pdfrwt beam="1">  1        1 0.22448684E+00 0.90126293E+03</pdfrwt>
<pdfrwt beam="2">  1       -1 0.12641168E+00 0.90126293E+03</pdfrwt>
<totfact> 0.38701588E+00</totfact>
</mgrwt>
</event>
<event>
 4    1  0.2731969E-009  0.1173389E+04  0.7818608E-02  0.9136473E-01
          1   -1    0    0  501    0  0.00000000000E+00  0.00000000000E+00  0.20492309824E+04  0.20492309824E+04  0.50400000000E-02 0. -1.
         -1   -1    0    0    0  501 -0.00000000000E+00 -0.00000000000E+00 -0.11011246928E+04  0.11011246928E+04  0.50400000000E-02 0.  1.
    8880022    1    1    2    0    0 -0.91176406057E+02  0.11598002038E+04 -0.50942072135E+03  0.12791992706E+04  0.15294330000E+03 0.  0.
    8880022    1    1    2    0    0  0.91176406057E+02 -0.11598002038E+04  0.14575270110E+04  0.18711564046E+04  0.15294330000E+03 0.  0.
<mgrwt>
<rscale>  0 0.11733888E+04</rscale>
<asrwt>0</asrwt>
<pdfrwt beam="1">  1        1 0.31526630E+00 0.11733888E+04</pdfrwt>
<pdfrwt beam="2">  1       -1 0.16940380E+00 0.11733888E+04</pdfrwt>
<totfact> 0.67626910E-01</totfact>
</mgrwt>
</event>
<event>
 4    1  0.2731969E-009  0.1045768E+04  0.7818608E-02  0.9259724E-01
         -1   -1    0    0    0  501 -0.00000000000E+00  0.00000000000E+00  0.98934500958E+03  0.98934500959E+03  0.50400000000E-02 0.  1.
          1   -1    0    0  501    0  0.00000000000E+00 -0.00000000000E+00 -0.13812754825E+04  0.13812754825E+04  0.50400000000E-02 0. -1.
    8880022    1    1    2    0    0  0.74670450575E+03  0.71601136879E+03  0.33374799245E+03  0.10977336993E+04  0.15294330000E+03 0.  0.
    8880022    1    1    2    0    0 -0.74670450575E+03 -0.71601136879E+03 -0.72567846539E+03  0.12728867928E+04  0.15294330000E+03 0.  0.
<mgrwt>
<rscale>  0 0.10457684E+04</rscale>
<asrwt>0</asrwt>
<pdfrwt beam="1">  1        1 0.21250392E+00 0.10457684E+04</pdfrwt>
<pdfrwt beam="2">  1       -1 0.15220692E+00 0.10457684E+04</pdfrwt>
<totfact> 0.26524435E+00</totfact>
</mgrwt>
</event>
<event>
 4    1  0.2731969E-009  0.8323375E+03  0.7818608E-02  0.9514354E-01
         -1   -1    0    0    0  501 -0.00000000000E+00  0.00000000000E+00  0.13595109494E+04  0.13595109494E+04  0.50400000000E-02 0.  1.
          1   -1    0    0  501    0  0.00000000000E+00 -0.00000000000E+00 -0.75687998308E+03  0.75687998310E+03  0.50400000000E-02 0. -1.
    8880022    1    1    2    0    0  0.72457170307E+02  0.81495030081E+03 -0.30355235303E+03  0.88596259423E+03  0.15294330000E+03 0.  0.
    8880022    1    1    2    0    0 -0.72457170307E+02 -0.81495030081E+03  0.90618331931E+03  0.12304283382E+04  0.15294330000E+03 0.  0.
<mgrwt>
<rscale>  0 0.83233748E+03</rscale>
<asrwt>0</asrwt>
<pdfrwt beam="1">  1        1 0.11644307E+00 0.83233748E+03</pdfrwt>
<pdfrwt beam="2">  1       -1 0.20915553E+00 0.83233748E+03</pdfrwt>
<totfact> 0.32297129E+00</totfact>
</mgrwt>
</event>
<event>
 4    1  0.2731969E-009  0.1017330E+04  0.7818608E-02  0.9289739E-01
         -1   -1    0    0    0  501 -0.00000000000E+00  0.00000000000E+00  0.76598957047E+03  0.76598957048E+03  0.50400000000E-02 0.  1.
          1   -1    0    0  501    0  0.00000000000E+00 -0.00000000000E+00 -0.14734797842E+04  0.14734797842E+04  0.50400000000E-02 0. -1.
    8880022    1    1    2    0    0  0.10056860918E+04 -0.12844246885E+02 -0.67638812413E+03  0.12216636351E+04  0.15294330000E+03 0.  0.
    8880022    1    1    2    0    0 -0.10056860918E+04  0.12844246885E+02 -0.31102089609E+02  0.10178057196E+04  0.15294330000E+03 0.  0.
<mgrwt>
<rscale>  0 0.10173304E+04</rscale>
<asrwt>0</asrwt>
<pdfrwt beam="1">  1        1 0.22668920E+00 0.10173304E+04</pdfrwt>
<pdfrwt beam="2">  1       -1 0.11784455E+00 0.10173304E+04</pdfrwt>
<totfact> 0.44302542E+00</totfact>
</mgrwt>
</event>
<event>
 4    1  0.2731969E-009  0.5499542E+03  0.7818608E-02  0.1001505E+00
         -1   -1    0    0    0  501 -0.00000000000E+00  0.00000000000E+00  0.13311115449E+04  0.13311115449E+04  0.50400000000E-02 0.  1.
          1   -1    0    0  501    0  0.00000000000E+00 -0.00000000000E+00 -0.15423530963E+04  0.15423530963E+04  0.50400000000E-02 0. -1.
    8880022    1    1    2    0    0 -0.58751469830E+02  0.52498210441E+03 -0.14323109145E+04  0.15342633914E+04  0.15294330000E+03 0. -1.
    8880022    1    1    2    0    0  0.58751469830E+02 -0.52498210441E+03  0.12210693631E+04  0.13392012498E+04  0.15294330000E+03 0.  0.
<mgrwt>
<rscale>  0 0.54995418E+03</rscale>
<asrwt>0</asrwt>
<pdfrwt beam="1">  1        1 0.23728509E+00 0.54995418E+03</pdfrwt>
<pdfrwt beam="2">  1       -1 0.20478639E+00 0.54995418E+03</pdfrwt>
<totfact> 0.94545367E-01</totfact>
</mgrwt>
</event>
<event>
 4    1  0.2731969E-009  0.7281079E+03  0.7818608E-02  0.9670336E-01
          1   -1    0    0  501    0  0.00000000000E+00  0.00000000000E+00  0.14183642856E+04  0.14183642857E+04  0.50400000000E-02 0. -1.
         -1   -1    0    0    0  501 -0.00000000000E+00 -0.00000000000E+00 -0.49226716200E+03  0.49226716202E+03  0.50400000000E-02 0.  1.
    8880022    1    1    2    0    0  0.24229331188E+03 -0.66936040400E+03 -0.56587369401E+01  0.72812984676E+03  0.15294330000E+03 0.  0.
    8880022    1    1    2    0    0 -0.24229331188E+03  0.66936040400E+03  0.93175586059E+03  0.11825016009E+04  0.15294330000E+03 0.  0.
<mgrwt>
<rscale>  0 0.72810786E+03</rscale>
<asrwt>0</asrwt>
<pdfrwt beam="1">  1        1 0.21820989E+00 0.72810786E+03</pdfrwt>
<pdfrwt beam="2">  1       -1 0.75733409E-01 0.72810786E+03</pdfrwt>
<totfact> 0.13574234E+01</totfact>
</mgrwt>
</event>
<event>
 4    1  0.2731969E-009  0.5403294E+03  0.7818608E-02  0.1003757E+00
          1   -1    0    0  501    0  0.00000000000E+00  0.00000000000E+00  0.11937970147E+04  0.11937970147E+04  0.50400000000E-02 0. -1.
         -1   -1    0    0    0  501 -0.00000000000E+00 -0.00000000000E+00 -0.13211964512E+04  0.13211964512E+04  0.50400000000E-02 0.  1.
    8880022    1    1    2    0    0 -0.55357476752E+01 -0.51820222190E+03  0.10714615474E+04  0.11999940366E+04  0.15294330000E+03 0.  0.
    8880022    1    1    2    0    0  0.55357476752E+01  0.51820222190E+03 -0.11988609839E+04  0.13149994293E+04  0.15294330000E+03 0.  0.
<mgrwt>
<rscale>  0 0.54032938E+03</rscale>
<asrwt>0</asrwt>
<pdfrwt beam="1">  1        1 0.18366108E+00 0.54032938E+03</pdfrwt>
<pdfrwt beam="2">  1       -1 0.20326099E+00 0.54032938E+03</pdfrwt>
<totfact> 0.16934629E+00</totfact>
</mgrwt>
</event>
<event>
 4    1  0.2731969E-009  0.1187466E+04  0.7818608E-02  0.9123899E-01
         -1   -1    0    0    0  501 -0.00000000000E+00  0.00000000000E+00  0.13576946569E+04  0.13576946569E+04  0.50400000000E-02 0.  1.
          1   -1    0    0  501    0  0.00000000000E+00 -0.00000000000E+00 -0.30902278128E+04  0.30902278128E+04  0.50400000000E-02 0. -1.
    8880022    1    1    2    0    0  0.65982674792E+03  0.97535224364E+03  0.94583831649E+03  0.15181189382E+04  0.15294330000E+03 0.  0.
    8880022    1    1    2    0    0 -0.65982674792E+03 -0.97535224364E+03 -0.26783714724E+04  0.29298035316E+04  0.15294330000E+03 0.  0.
<mgrwt>
<rscale>  0 0.11874658E+04</rscale>
<asrwt>0</asrwt>
<pdfrwt beam="1">  1        1 0.47541966E+00 0.11874658E+04</pdfrwt>
<pdfrwt beam="2">  1       -1 0.20887610E+00 0.11874658E+04</pdfrwt>
<totfact> 0.66811513E-02</totfact>
</mgrwt>
</event>
<event>
 4    1  0.2731969E-009  0.1002399E+04  0.7818608E-02  0.9305917E-01
          1   -1    0    0  501    0  0.00000000000E+00  0.00000000000E+00  0.13992594888E+04  0.13992594888E+04  0.50400000000E-02 0. -1.
         -1   -1    0    0    0  501 -0.00000000000E+00 -0.00000000000E+00 -0.19906682883E+04  0.19906682883E+04  0.50400000000E-02 0.  1.
    8880022    1    1    2    0    0 -0.52888541738E+03 -0.83767100818E+03 -0.16509002001E+04  0.19313921472E+04  0.15294330000E+03 0.  0.
    8880022    1    1    2    0    0  0.52888541738E+03  0.83767100818E+03  0.10594914006E+04  0.14585356299E+04  0.15294330000E+03 0.  0.
<mgrwt>
<rscale>  0 0.10023992E+04</rscale>
<asrwt>0</asrwt>
<pdfrwt beam="1">  1        1 0.21527069E+00 0.10023992E+04</pdfrwt>
<pdfrwt beam="2">  1       -1 0.30625666E+00 0.10023992E+04</pdfrwt>
<totfact> 0.23519139E-01</totfact>
</mgrwt>
</event>
<event>
 4    1  0.2731969E-009  0.3243254E+03  0.7818608E-02  0.1073676E+00
          1   -1    0    0  501    0  0.00000000000E+00  0.00000000000E+00  0.24265910610E+03  0.24265910616E+03  0.50400000000E-02 0. -1.
         -1   -1    0    0    0  501 -0.00000000000E+00 -0.00000000000E+00 -0.70600267014E+03  0.70600267016E+03  0.50400000000E-02 0.  1.
    8880022    1    1    2    0    0  0.28429748402E+03 -0.31148851041E+02 -0.52637340487E+03  0.61826848918E+03  0.15294330000E+03 0.  0.
    8880022    1    1    2    0    0 -0.28429748402E+03  0.31148851041E+02  0.63029840831E+02  0.33039328714E+03  0.15294330000E+03 0.  0.
<mgrwt>
<rscale>  0 0.32432540E+03</rscale>
<asrwt>0</asrwt>
<pdfrwt beam="1">  1        1 0.37332171E-01 0.32432540E+03</pdfrwt>
<pdfrwt beam="2">  1       -1 0.10861579E+00 0.32432540E+03</pdfrwt>
<totfact> 0.95932493E+01</totfact>
</mgrwt>
</event>
<event>
 4    1  0.2731969E-009  0.1031487E+04  0.7818608E-02  0.9274669E-01
          1   -1    0    0  501    0  0.00000000000E+00  0.00000000000E+00  0.26035697628E+04  0.26035697628E+04  0.50400000000E-02 0. -1.
         -1   -1    0    0    0  501 -0.00000000000E+00 -0.00000000000E+00 -0.90404731509E+03  0.90404731510E+03  0.50400000000E-02 0.  1.
    8880022    1    1    2    0    0  0.10139015184E+04 -0.11214906000E+03 -0.44849566107E+03  0.11247727378E+04  0.15294330000E+03 0.  0.
    8880022    1    1    2    0    0 -0.10139015184E+04  0.11214906000E+03  0.21480181088E+04  0.23828443401E+04  0.15294330000E+03 0.  0.
<mgrwt>
<rscale>  0 0.10314870E+04</rscale>
<asrwt>0</asrwt>
<pdfrwt beam="1">  1        1 0.40054919E+00 0.10314870E+04</pdfrwt>
<pdfrwt beam="2">  1       -1 0.13908420E+00 0.10314870E+04</pdfrwt>
<totfact> 0.49636036E-01</totfact>
</mgrwt>
</event>
<event>
 4    1  0.2731969E-009  0.8963831E+03  0.7818608E-02  0.9430114E-01
          1   -1    0    0  501    0  0.00000000000E+00  0.00000000000E+00  0.23294624972E+04  0.23294624972E+04  0.50400000000E-02 0. -1.
         -1   -1    0    0    0  501 -0.00000000000E+00 -0.00000000000E+00 -0.50521917293E+03  0.50521917295E+03  0.50400000000E-02 0.  1.
    8880022    1    1    2    0    0 -0.80639077236E+03 -0.36034003769E+03  0.11378550521E+03  0.90357612558E+03  0.15294330000E+03 0.  0.
    8880022    1    1    2    0    0  0.80639077236E+03  0.36034003769E+03  0.17104578191E+04  0.19311055446E+04  0.15294330000E+03 0.  0.
<mgrwt>
<rscale>  0 0.89638311E+03</rscale>
<asrwt>0</asrwt>
<pdfrwt beam="1">  1        1 0.35837885E+00 0.89638311E+03</pdfrwt>
<pdfrwt beam="2">  1       -1 0.77726026E-01 0.89638311E+03</pdfrwt>
<totfact> 0.30400976E+00</totfact>
</mgrwt>
</event>
<event>
 4    1  0.2731969E-009  0.5161115E+03  0.7818608E-02  0.1009657E+00
         -1   -1    0    0    0  501 -0.00000000000E+00  0.00000000000E+00  0.17346772546E+04  0.17346772546E+04  0.50400000000E-02 0.  1.
          1   -1    0    0  501    0  0.00000000000E+00 -0.00000000000E+00 -0.12861542292E+04  0.12861542292E+04  0.50400000000E-02 0. -1.
    8880022    1    1    2    0    0  0.49266688551E+03 -0.16087432058E+02 -0.11931233975E+04  0.12999671382E+04  0.15294330000E+03 0.  0.
    8880022    1    1    2    0    0 -0.49266688551E+03  0.16087432058E+02  0.16416464229E+04  0.17208643457E+04  0.15294330000E+03 0.  1.
<mgrwt>
<rscale>  0 0.51611154E+03</rscale>
<asrwt>0</asrwt>
<pdfrwt beam="1">  1        1 0.19786988E+00 0.51611154E+03</pdfrwt>
<pdfrwt beam="2">  1       -1 0.26687343E+00 0.51611154E+03</pdfrwt>
<totfact> 0.56594892E-01</totfact>
</mgrwt>
</event>
<event>
 4    1  0.2731969E-009  0.2438084E+03  0.7818608E-02  0.1117281E+00
         -1   -1    0    0    0  501 -0.00000000000E+00  0.00000000000E+00  0.16641209774E+03  0.16641209781E+03  0.50400000000E-02 0.  1.
          1   -1    0    0  501    0  0.00000000000E+00 -0.00000000000E+00 -0.10863318614E+04  0.10863318614E+04  0.50400000000E-02 0. -1.
    8880022    1    1    2    0    0  0.17619947939E+03  0.70743539806E+02  0.53201328457E+02  0.24954546545E+03  0.15294330000E+03 0.  0.
    8880022    1    1    2    0    0 -0.17619947939E+03 -0.70743539806E+02 -0.97312109207E+03  0.10031984937E+04  0.15294330000E+03 0.  0.
<mgrwt>
<rscale>  0 0.24380845E+03</rscale>
<asrwt>0</asrwt>
<pdfrwt beam="1">  1        1 0.16712797E+00 0.24380845E+03</pdfrwt>
<pdfrwt beam="2">  1       -1 0.25601862E-01 0.24380845E+03</pdfrwt>
<totfact> 0.18740685E+02</totfact>
</mgrwt>
</event>
<event>
 4    1  0.2731969E-009  0.7629339E+03  0.7818608E-02  0.9615275E-01
         -1   -1    0    0    0  501 -0.00000000000E+00  0.00000000000E+00  0.12412281297E+04  0.12412281297E+04  0.50400000000E-02 0.  1.
          1   -1    0    0  501    0  0.00000000000E+00 -0.00000000000E+00 -0.95442198546E+03  0.95442198548E+03  0.50400000000E-02 0. -1.
    8880022    1    1    2    0    0 -0.64567617838E+03 -0.37653528749E+03 -0.63957044485E+03  0.99554937446E+03  0.15294330000E+03 0.  0.
    8880022    1    1    2    0    0  0.64567617838E+03  0.37653528749E+03  0.92637658908E+03  0.12001007407E+04  0.15294330000E+03 0.  0.
<mgrwt>
<rscale>  0 0.76293394E+03</rscale>
<asrwt>0</asrwt>
<pdfrwt beam="1">  1        1 0.14683415E+00 0.76293394E+03</pdfrwt>
<pdfrwt beam="2">  1       -1 0.19095817E+00 0.76293394E+03</pdfrwt>
<totfact> 0.29696218E+00</totfact>
</mgrwt>
</event>
<event>
 4    1  0.2731969E-009  0.4511037E+03  0.7818608E-02  0.1027393E+00
         -1   -1    0    0    0  501 -0.00000000000E+00  0.00000000000E+00  0.30440809641E+03  0.30440809645E+03  0.50400000000E-02 0.  1.
          1   -1    0    0  501    0  0.00000000000E+00 -0.00000000000E+00 -0.34690125835E+04  0.34690125835E+04  0.50400000000E-02 0. -1.
    8880022    1    1    2    0    0 -0.22046478480E+02 -0.42381227959E+03 -0.32775049335E+04  0.33084034121E+04  0.15294330000E+03 0.  0.
    8880022    1    1    2    0    0  0.22046478480E+02  0.42381227959E+03  0.11290044639E+03  0.46501726780E+03  0.15294330000E+03 0.  0.
<mgrwt>
<rscale>  0 0.45110370E+03</rscale>
<asrwt>0</asrwt>
<pdfrwt beam="1">  1        1 0.53369422E+00 0.45110370E+03</pdfrwt>
<pdfrwt beam="2">  1       -1 0.46832017E-01 0.45110370E+03</pdfrwt>
<totfact> 0.14250020E+00</totfact>
</mgrwt>
</event>
<event>
 4    1  0.2731969E-009  0.4587947E+03  0.7818608E-02  0.1025131E+00
         -1   -1    0    0    0  501 -0.00000000000E+00  0.00000000000E+00  0.10774319466E+04  0.10774319466E+04  0.50400000000E-02 0.  1.
          1   -1    0    0  501    0  0.00000000000E+00 -0.00000000000E+00 -0.39943087799E+03  0.39943087802E+03  0.50400000000E-02 0. -1.
    8880022    1    1    2    0    0 -0.23603347018E+03 -0.36247633621E+03  0.86680673506E+03  0.98073771332E+03  0.15294330000E+03 0.  0.
    8880022    1    1    2    0    0  0.23603347018E+03  0.36247633621E+03 -0.18880566647E+03  0.49612511130E+03  0.15294330000E+03 0.  0.
<mgrwt>
<rscale>  0 0.45879467E+03</rscale>
<asrwt>0</asrwt>
<pdfrwt beam="1">  1        1 0.61450904E-01 0.45879467E+03</pdfrwt>
<pdfrwt beam="2">  1       -1 0.16575876E+00 0.45879467E+03</pdfrwt>
<totfact> 0.17009032E+01</totfact>
</mgrwt>
</event>
<event>
 4    1  0.2731969E-009  0.1171735E+04  0.7818608E-02  0.9137963E-01
         -1   -1    0    0    0  501 -0.00000000000E+00  0.00000000000E+00  0.23047191198E+04  0.23047191198E+04  0.50400000000E-02 0.  1.
          1   -1    0    0  501    0  0.00000000000E+00 -0.00000000000E+00 -0.17256577940E+04  0.17256577940E+04  0.50400000000E-02 0. -1.
    8880022    1    1    2    0    0 -0.50604674118E+02  0.11606076885E+04  0.19202002737E+04  0.22494736682E+04  0.15294330000E+03 0.  0.
    8880022    1    1    2    0    0  0.50604674118E+02 -0.11606076885E+04 -0.13411389479E+04  0.17809032456E+04  0.15294330000E+03 0.  0.
<mgrwt>
<rscale>  0 0.11717349E+04</rscale>
<asrwt>0</asrwt>
<pdfrwt beam="1">  1        1 0.26548581E+00 0.11717349E+04</pdfrwt>
<pdfrwt beam="2">  1       -1 0.35457217E+00 0.11717349E+04</pdfrwt>
<totfact> 0.65900055E-02</totfact>
</mgrwt>
</event>
<event>
 4    1  0.2731969E-009  0.5616987E+03  0.7818608E-02  0.9988218E-01
          1   -1    0    0  501    0  0.00000000000E+00  0.00000000000E+00  0.13421715452E+04  0.13421715452E+04  0.50400000000E-02 0. -1.
         -1   -1    0    0    0  501 -0.00000000000E+00 -0.00000000000E+00 -0.40734523503E+03  0.40734523506E+03  0.50400000000E-02 0.  1.
    8880022    1    1    2    0    0  0.46848233627E+03 -0.26951450627E+03  0.10362885317E+04  0.11787278492E+04  0.15294330000E+03 0.  0.
    8880022    1    1    2    0    0 -0.46848233627E+03  0.26951450627E+03 -0.10146222150E+03  0.57078893112E+03  0.15294330000E+03 0.  0.
<mgrwt>
<rscale>  0 0.56169869E+03</rscale>
<asrwt>0</asrwt>
<pdfrwt beam="1">  1        1 0.20648793E+00 0.56169869E+03</pdfrwt>
<pdfrwt beam="2">  1       -1 0.62668497E-01 0.56169869E+03</pdfrwt>
<totfact> 0.23123501E+01</totfact>
</mgrwt>
</event>
<event>
 4    1  0.2731969E-009  0.6316636E+03  0.7818608E-02  0.9841808E-01
         -1   -1    0    0    0  501 -0.00000000000E+00  0.00000000000E+00  0.50376005665E+03  0.50376005668E+03  0.50400000000E-02 0.  1.
          1   -1    0    0  501    0  0.00000000000E+00 -0.00000000000E+00 -0.11009210350E+04  0.11009210350E+04  0.50400000000E-02 0. -1.
    8880022    1    1    2    0    0 -0.36552394048E+03 -0.49193445566E+03 -0.72356701768E+03  0.96049369691E+03  0.15294330000E+03 0.  0.
    8880022    1    1    2    0    0  0.36552394048E+03  0.49193445566E+03  0.12640603937E+03  0.64418739473E+03  0.15294330000E+03 0.  0.
<mgrwt>
<rscale>  0 0.63166361E+03</rscale>
<asrwt>0</asrwt>
<pdfrwt beam="1">  1        1 0.16937247E+00 0.63166361E+03</pdfrwt>
<pdfrwt beam="2">  1       -1 0.77501548E-01 0.63166361E+03</pdfrwt>
<totfact> 0.22092274E+01</totfact>
</mgrwt>
</event>
<event>
 4    1  0.2731969E-009  0.8721516E+03  0.7818608E-02  0.9461079E-01
          1   -1    0    0  501    0  0.00000000000E+00  0.00000000000E+00  0.14817511838E+04  0.14817511838E+04  0.50400000000E-02 0. -1.
         -1   -1    0    0    0  501 -0.00000000000E+00 -0.00000000000E+00 -0.75814723723E+03  0.75814723724E+03  0.50400000000E-02 0.  1.
    8880022    1    1    2    0    0  0.88767746271E+02  0.85403578888E+03  0.99820154631E+03  0.13255394455E+04  0.15294330000E+03 0.  0.
    8880022    1    1    2    0    0 -0.88767746271E+02 -0.85403578888E+03 -0.27459759970E+03  0.91435897559E+03  0.15294330000E+03 0.  0.
<mgrwt>
<rscale>  0 0.87215165E+03</rscale>
<asrwt>0</asrwt>
<pdfrwt beam="1">  1        1 0.22796172E+00 0.87215165E+03</pdfrwt>
<pdfrwt beam="2">  1       -1 0.11663804E+00 0.87215165E+03</pdfrwt>
<totfact> 0.45688293E+00</totfact>
</mgrwt>
</event>
<event>
 4    1  0.2731969E-009  0.9802979E+03  0.7818608E-02  0.9330422E-01
         -1   -1    0    0    0  501 -0.00000000000E+00  0.00000000000E+00  0.17605299510E+04  0.17605299510E+04  0.50400000000E-02 0.  1.
          1   -1    0    0  501    0  0.00000000000E+00 -0.00000000000E+00 -0.19845377624E+04  0.19845377624E+04  0.50400000000E-02 0. -1.
    8880022    1    1    2    0    0 -0.41576854353E+03 -0.87448774958E+03 -0.17063528650E+04  0.19678983863E+04  0.15294330000E+03 0.  0.
    8880022    1    1    2    0    0  0.41576854353E+03  0.87448774958E+03  0.14823450537E+04  0.17771693271E+04  0.15294330000E+03 0.  0.
<mgrwt>
<rscale>  0 0.98029789E+03</rscale>
<asrwt>0</asrwt>
<pdfrwt beam="1">  1        1 0.30531350E+00 0.98029789E+03</pdfrwt>
<pdfrwt beam="2">  1       -1 0.27085076E+00 0.98029789E+03</pdfrwt>
<totfact> 0.15929729E-01</totfact>
</mgrwt>
</event>
<event>
 4    1  0.2731969E-009  0.1519710E+04  0.7818608E-02  0.8871451E-01
         -1   -1    0    0    0  501 -0.00000000000E+00  0.00000000000E+00  0.21253544619E+04  0.21253544619E+04  0.50400000000E-02 0.  1.
          1   -1    0    0  501    0  0.00000000000E+00 -0.00000000000E+00 -0.12187574580E+04  0.12187574580E+04  0.50400000000E-02 0. -1.
    8880022    1    1    2    0    0  0.12639767768E+04  0.82975328825E+03  0.10037936341E+04  0.18212965504E+04  0.15294330000E+03 0.  0.
    8880022    1    1    2    0    0 -0.12639767768E+04 -0.82975328825E+03 -0.97196630141E+02  0.15228153695E+04  0.15294330000E+03 0.  0.
<mgrwt>
<rscale>  0 0.15197103E+04</rscale>
<asrwt>0</asrwt>
<pdfrwt beam="1">  1        1 0.18750115E+00 0.15197103E+04</pdfrwt>
<pdfrwt beam="2">  1       -1 0.32697760E+00 0.15197103E+04</pdfrwt>
<totfact> 0.21597687E-01</totfact>
</mgrwt>
</event>
<event>
 4    1  0.2731969E-009  0.3715871E+03  0.7818608E-02  0.1054088E+00
         -1   -1    0    0    0  501 -0.00000000000E+00  0.00000000000E+00  0.87430278000E+02  0.87430278145E+02  0.50400000000E-02 0.  1.
          1   -1    0    0  501    0  0.00000000000E+00 -0.00000000000E+00 -0.18638564401E+04  0.18638564401E+04  0.50400000000E-02 0. -1.
    8880022    1    1    2    0    0 -0.26679010858E+03  0.20858660126E+03 -0.12694399474E+04  0.13227073619E+04  0.15294330000E+03 0.  0.
    8880022    1    1    2    0    0  0.26679010858E+03 -0.20858660126E+03 -0.50698621468E+03  0.62857935629E+03  0.15294330000E+03 0.  0.
<mgrwt>
<rscale>  0 0.37158712E+03</rscale>
<asrwt>0</asrwt>
<pdfrwt beam="1">  1        1 0.28674711E+00 0.37158712E+03</pdfrwt>
<pdfrwt beam="2">  1       -1 0.13450813E-01 0.37158712E+03</pdfrwt>
<totfact> 0.15560787E+02</totfact>
</mgrwt>
</event>
<event>
 4    1  0.2731969E-009  0.9457439E+03  0.7818608E-02  0.9370139E-01
          1   -1    0    0  501    0  0.00000000000E+00  0.00000000000E+00  0.30548141848E+04  0.30548141848E+04  0.50400000000E-02 0. -1.
         -1   -1    0    0    0  501 -0.00000000000E+00 -0.00000000000E+00 -0.49428731738E+03  0.49428731741E+03  0.50400000000E-02 0.  1.
    8880022    1    1    2    0    0 -0.13074351869E+03  0.92409202293E+03  0.14726606731E+03  0.95714099386E+03  0.15294330000E+03 0.  0.
    8880022    1    1    2    0    0  0.13074351869E+03 -0.92409202293E+03  0.24132608001E+04  0.25919605084E+04  0.15294330000E+03 0.  0.
<mgrwt>
<rscale>  0 0.94574393E+03</rscale>
<asrwt>0</asrwt>
<pdfrwt beam="1">  1        1 0.46997142E+00 0.94574393E+03</pdfrwt>
<pdfrwt beam="2">  1       -1 0.76044202E-01 0.94574393E+03</pdfrwt>
<totfact> 0.98327763E-01</totfact>
</mgrwt>
</event>
<event>
 4    1  0.2731969E-009  0.1517643E+04  0.7818608E-02  0.8872805E-01
          1   -1    0    0  501    0  0.00000000000E+00  0.00000000000E+00  0.34227744145E+04  0.34227744145E+04  0.50400000000E-02 0. -1.
         -1   -1    0    0    0  501 -0.00000000000E+00 -0.00000000000E+00 -0.76824518988E+03  0.76824518989E+03  0.50400000000E-02 0.  1.
    8880022    1    1    2    0    0 -0.23542861512E+03  0.14914493669E+04  0.20654285679E+04  0.25630518272E+04  0.15294330000E+03 0.  0.
    8880022    1    1    2    0    0  0.23542861512E+03 -0.14914493669E+04  0.58910065668E+03  0.16279677772E+04  0.15294330000E+03 0.  0.
<mgrwt>
<rscale>  0 0.15176427E+04</rscale>
<asrwt>0</asrwt>
<pdfrwt beam="1">  1        1 0.52658067E+00 0.15176427E+04</pdfrwt>
<pdfrwt beam="2">  1       -1 0.11819157E+00 0.15176427E+04</pdfrwt>
<totfact> 0.17668753E-01</totfact>
</mgrwt>
</event>
<event>
 4    1  0.2731969E-009  0.1209447E+04  0.7818608E-02  0.9104628E-01
         -1   -1    0    0    0  501 -0.00000000000E+00  0.00000000000E+00  0.15093769230E+04  0.15093769230E+04  0.50400000000E-02 0.  1.
          1   -1    0    0  501    0  0.00000000000E+00 -0.00000000000E+00 -0.22759768583E+04  0.22759768583E+04  0.50400000000E-02 0. -1.
    8880022    1    1    2    0    0  0.74426301048E+03  0.94097941724E+03 -0.18174917565E+04  0.21831256561E+04  0.15294330000E+03 0.  0.
    8880022    1    1    2    0    0 -0.74426301048E+03 -0.94097941724E+03  0.10508918212E+04  0.16022281253E+04  0.15294330000E+03 0.  0.
<mgrwt>
<rscale>  0 0.12094467E+04</rscale>
<asrwt>0</asrwt>
<pdfrwt beam="1">  1        1 0.35015029E+00 0.12094467E+04</pdfrwt>
<pdfrwt beam="2">  1       -1 0.23221183E+00 0.12094467E+04</pdfrwt>
<totfact> 0.17334973E-01</totfact>
</mgrwt>
</event>
<event>
 4    1  0.2731969E-009  0.3763197E+03  0.7818608E-02  0.1052302E+00
          1   -1    0    0  501    0  0.00000000000E+00  0.00000000000E+00  0.44872517479E+04  0.44872517479E+04  0.50400000000E-02 0. -1.
         -1   -1    0    0    0  501 -0.00000000000E+00 -0.00000000000E+00 -0.96086972212E+02  0.96086972344E+02  0.50400000000E-02 0.  1.
    8880022    1    1    2    0    0  0.28023003720E+03  0.19923858477E+03  0.40735633750E+04  0.40909088368E+04  0.15294330000E+03 0.  0.
    8880022    1    1    2    0    0 -0.28023003720E+03 -0.19923858477E+03  0.31760140063E+03  0.49242988344E+03  0.15294330000E+03 0.  0.
<mgrwt>
<rscale>  0 0.37631973E+03</rscale>
<asrwt>0</asrwt>
<pdfrwt beam="1">  1        1 0.69034612E+00 0.37631973E+03</pdfrwt>
<pdfrwt beam="2">  1       -1 0.14782618E-01 0.37631973E+03</pdfrwt>
<totfact> 0.14168135E+00</totfact>
</mgrwt>
</event>
<event>
 4    1  0.2731969E-009  0.4696829E+03  0.7818608E-02  0.1022010E+00
         -1   -1    0    0    0  501 -0.00000000000E+00  0.00000000000E+00  0.40807643952E+03  0.40807643955E+03  0.50400000000E-02 0.  1.
          1   -1    0    0  501    0  0.00000000000E+00 -0.00000000000E+00 -0.31449254666E+04  0.31449254666E+04  0.50400000000E-02 0. -1.
    8880022    1    1    2    0    0 -0.12879872048E+03  0.42499562092E+03 -0.29850474234E+04  0.30217726852E+04  0.15294330000E+03 0.  0.
    8880022    1    1    2    0    0  0.12879872048E+03 -0.42499562092E+03  0.24819839634E+03  0.53122922092E+03  0.15294330000E+03 0.  0.
<mgrwt>
<rscale>  0 0.46968292E+03</rscale>
<asrwt>0</asrwt>
<pdfrwt beam="1">  1        1 0.48383467E+00 0.46968292E+03</pdfrwt>
<pdfrwt beam="2">  1       -1 0.62780993E-01 0.46968292E+03</pdfrwt>
<totfact> 0.14058391E+00</totfact>
</mgrwt>
</event>
<event>
 4    1  0.2731969E-009  0.9672515E+03  0.7818608E-02  0.9345210E-01
          1   -1    0    0  501    0  0.00000000000E+00  0.00000000000E+00  0.17159840027E+04  0.17159840027E+04  0.50400000000E-02 0. -1.
         -1   -1    0    0    0  501 -0.00000000000E+00 -0.00000000000E+00 -0.65841748057E+03  0.65841748059E+03  0.50400000000E-02 0.  1.
    8880022    1    1    2    0    0 -0.68096093115E+03 -0.66968355095E+03  0.36509455117E+02  0.96794030884E+03  0.15294330000E+03 0.  0.
    8880022    1    1    2    0    0  0.68096093115E+03  0.66968355095E+03  0.10210570670E+04  0.14064611745E+04  0.15294330000E+03 0.  0.
<mgrwt>
<rscale>  0 0.96725152E+03</rscale>
<asrwt>0</asrwt>
<pdfrwt beam="1">  1        1 0.26399754E+00 0.96725152E+03</pdfrwt>
<pdfrwt beam="2">  1       -1 0.10129500E+00 0.96725152E+03</pdfrwt>
<totfact> 0.43524685E+00</totfact>
</mgrwt>
</event>
<event>
 4    1  0.2731969E-009  0.3998908E+03  0.7818608E-02  0.1043817E+00
          1   -1    0    0  501    0  0.00000000000E+00  0.00000000000E+00  0.87984081307E+03  0.87984081308E+03  0.50400000000E-02 0. -1.
         -1   -1    0    0    0  501 -0.00000000000E+00 -0.00000000000E+00 -0.21701688080E+04  0.21701688080E+04  0.50400000000E-02 0.  1.
    8880022    1    1    2    0    0 -0.96332256381E+02 -0.35670873484E+03  0.81458500261E+03  0.90744774209E+03  0.15294330000E+03 0.  0.
    8880022    1    1    2    0    0  0.96332256381E+02  0.35670873484E+03 -0.21049129975E+04  0.21425618790E+04  0.15294330000E+03 0.  1.
<mgrwt>
<rscale>  0 0.39989083E+03</rscale>
<asrwt>0</asrwt>
<pdfrwt beam="1">  1        1 0.13536013E+00 0.39989083E+03</pdfrwt>
<pdfrwt beam="2">  1       -1 0.33387212E+00 0.39989083E+03</pdfrwt>
<totfact> 0.44600657E-01</totfact>
</mgrwt>
</event>
<event>
 4    1  0.2731969E-009  0.7891076E+03  0.7818608E-02  0.9575919E-01
         -1   -1    0    0    0  501 -0.00000000000E+00  0.00000000000E+00  0.12023112721E+04  0.12023112721E+04  0.50400000000E-02 0.  1.
          1   -1    0    0  501    0  0.00000000000E+00 -0.00000000000E+00 -0.62653682051E+03  0.62653682053E+03  0.50400000000E-02 0. -1.
    8880022    1    1    2    0    0  0.73586944541E+03 -0.24040671287E+03 -0.92862672636E+02  0.79455292918E+03  0.15294330000E+03 0.  0.
    8880022    1    1    2    0    0 -0.73586944541E+03  0.24040671287E+03  0.66863712424E+03  0.10342951635E+04  0.15294330000E+03 0.  0.
<mgrwt>
<rscale>  0 0.78910765E+03</rscale>
<asrwt>0</asrwt>
<pdfrwt beam="1">  1        1 0.96390280E-01 0.78910765E+03</pdfrwt>
<pdfrwt beam="2">  1       -1 0.18497097E+00 0.78910765E+03</pdfrwt>
<totfact> 0.63420410E+00</totfact>
</mgrwt>
</event>
<event>
 4    1  0.2731969E-009  0.5597358E+03  0.7818608E-02  0.9992653E-01
          1   -1    0    0  501    0  0.00000000000E+00  0.00000000000E+00  0.29729193131E+04  0.29729193131E+04  0.50400000000E-02 0. -1.
         -1   -1    0    0    0  501 -0.00000000000E+00 -0.00000000000E+00 -0.11212086874E+03  0.11212086885E+03  0.50400000000E-02 0.  1.
    8880022    1    1    2    0    0 -0.46495137382E+03 -0.27153775490E+03  0.10523477163E+04  0.11919479441E+04  0.15294330000E+03 0.  0.
    8880022    1    1    2    0    0  0.46495137382E+03  0.27153775490E+03  0.18084507281E+04  0.18930922379E+04  0.15294330000E+03 0.  0.
<mgrwt>
<rscale>  0 0.55973582E+03</rscale>
<asrwt>0</asrwt>
<pdfrwt beam="1">  1        1 0.45737220E+00 0.55973582E+03</pdfrwt>
<pdfrwt beam="2">  1       -1 0.17249364E-01 0.55973582E+03</pdfrwt>
<totfact> 0.17912265E+01</totfact>
</mgrwt>
</event>
<event>
 4    1  0.2731969E-009  0.5320216E+03  0.7818608E-02  0.1005743E+00
         -1   -1    0    0    0  501 -0.00000000000E+00  0.00000000000E+00  0.13618663683E+04  0.13618663683E+04  0.50400000000E-02 0.  1.
          1   -1    0    0  501    0  0.00000000000E+00 -0.00000000000E+00 -0.10301545814E+04  0.10301545814E+04  0.50400000000E-02 0. -1.
    8880022    1    1    2    0    0 -0.50941486377E+03 -0.12321706728E+02 -0.90271520707E+03  0.10478271451E+04  0.15294330000E+03 0.  0.
    8880022    1    1    2    0    0  0.50941486377E+03  0.12321706728E+02  0.12344269940E+04  0.13441938047E+04  0.15294330000E+03 0.  0.
<mgrwt>
<rscale>  0 0.53202160E+03</rscale>
<asrwt>0</asrwt>
<pdfrwt beam="1">  1        1 0.15848532E+00 0.53202160E+03</pdfrwt>
<pdfrwt beam="2">  1       -1 0.20951790E+00 0.53202160E+03</pdfrwt>
<totfact> 0.20335217E+00</totfact>
</mgrwt>
</event>
<event>
 4    1  0.2731969E-009  0.3250324E+03  0.7818608E-02  0.1073356E+00
          1   -1    0    0  501    0  0.00000000000E+00  0.00000000000E+00  0.70724428054E+03  0.70724428055E+03  0.50400000000E-02 0. -1.
         -1   -1    0    0    0  501 -0.00000000000E+00 -0.00000000000E+00 -0.23275311356E+03  0.23275311361E+03  0.50400000000E-02 0.  1.
    8880022    1    1    2    0    0 -0.66739250527E+02 -0.27892701504E+03 -0.44054338982E+02  0.32800433698E+03  0.15294330000E+03 0.  0.
    8880022    1    1    2    0    0  0.66739250527E+02  0.27892701504E+03  0.51854550596E+03  0.61199305719E+03  0.15294330000E+03 0.  0.
<mgrwt>
<rscale>  0 0.32503240E+03</rscale>
<asrwt>0</asrwt>
<pdfrwt beam="1">  1        1 0.10880681E+00 0.32503240E+03</pdfrwt>
<pdfrwt beam="2">  1       -1 0.35808171E-01 0.32503240E+03</pdfrwt>
<totfact> 0.20924820E+02</totfact>
</mgrwt>
</event>
<event>
 4    1  0.2731969E-009  0.7928555E+03  0.7818608E-02  0.9570416E-01
          1   -1    0    0  501    0  0.00000000000E+00  0.00000000000E+00  0.18287508232E+04  0.18287508232E+04  0.50400000000E-02 0. -1.
         -1   -1    0    0    0  501 -0.00000000000E+00 -0.00000000000E+00 -0.77926730204E+03  0.77926730205E+03  0.50400000000E-02 0.  1.
    8880022    1    1    2    0    0 -0.52199989608E+03  0.57683998760E+03  0.14996049744E+04  0.16963003846E+04  0.15294330000E+03 0.  0.
    8880022    1    1    2    0    0  0.52199989608E+03 -0.57683998760E+03 -0.45012145324E+03  0.91171774058E+03  0.15294330000E+03 0.  0.
<mgrwt>
<rscale>  0 0.79285555E+03</rscale>
<asrwt>0</asrwt>
<pdfrwt beam="1">  1        1 0.28134628E+00 0.79285555E+03</pdfrwt>
<pdfrwt beam="2">  1       -1 0.11988728E+00 0.79285555E+03</pdfrwt>
<totfact> 0.25187525E+00</totfact>
</mgrwt>
</event>
<event>
 4    1  0.2731969E-009  0.5821306E+03  0.7818608E-02  0.9943189E-01
         -1   -1    0    0    0  501 -0.00000000000E+00  0.00000000000E+00  0.17029086039E+04  0.17029086039E+04  0.50400000000E-02 0.  1.
          1   -1    0    0  501    0  0.00000000000E+00 -0.00000000000E+00 -0.11326761743E+04  0.11326761743E+04  0.50400000000E-02 0. -1.
    8880022    1    1    2    0    0 -0.24570160731E+03  0.50508925183E+03 -0.10021200567E+04  0.11589308406E+04  0.15294330000E+03 0.  0.
    8880022    1    1    2    0    0  0.24570160731E+03 -0.50508925183E+03  0.15723524864E+04  0.16766539376E+04  0.15294330000E+03 0.  0.
<mgrwt>
<rscale>  0 0.58213064E+03</rscale>
<asrwt>0</asrwt>
<pdfrwt beam="1">  1        1 0.17425787E+00 0.58213064E+03</pdfrwt>
<pdfrwt beam="2">  1       -1 0.26198594E+00 0.58213064E+03</pdfrwt>
<totfact> 0.76755035E-01</totfact>
</mgrwt>
</event>
<event>
 4    1  0.2731969E-009  0.7458195E+03  0.7818608E-02  0.9641932E-01
         -1   -1    0    0    0  501 -0.00000000000E+00  0.00000000000E+00  0.82509604678E+03  0.82509604680E+03  0.50400000000E-02 0.  1.
          1   -1    0    0  501    0  0.00000000000E+00 -0.00000000000E+00 -0.13225722018E+04  0.13225722018E+04  0.50400000000E-02 0. -1.
    8880022    1    1    2    0    0  0.71459993690E+03  0.14900351349E+03  0.50314980784E+03  0.89967021680E+03  0.15294330000E+03 0.  0.
    8880022    1    1    2    0    0 -0.71459993690E+03 -0.14900351349E+03 -0.10006259629E+04  0.12479980318E+04  0.15294330000E+03 0.  0.
<mgrwt>
<rscale>  0 0.74581953E+03</rscale>
<asrwt>0</asrwt>
<pdfrwt beam="1">  1        1 0.20347265E+00 0.74581953E+03</pdfrwt>
<pdfrwt beam="2">  1       -1 0.12693785E+00 0.74581953E+03</pdfrwt>
<totfact> 0.48836776E+00</totfact>
</mgrwt>
</event>
<event>
 4    1  0.2731969E-009  0.9112874E+03  0.7818608E-02  0.9411581E-01
         -1   -1    0    0    0  501 -0.00000000000E+00  0.00000000000E+00  0.10180616080E+04  0.10180616080E+04  0.50400000000E-02 0.  1.
          1   -1    0    0  501    0  0.00000000000E+00 -0.00000000000E+00 -0.94054329967E+03  0.94054329968E+03  0.50400000000E-02 0. -1.
    8880022    1    1    2    0    0  0.25617186199E+03 -0.86106270010E+03  0.39553045445E+03  0.99342286555E+03  0.15294330000E+03 0.  0.
    8880022    1    1    2    0    0 -0.25617186199E+03  0.86106270010E+03 -0.31801214612E+03  0.96518204214E+03  0.15294330000E+03 0.  0.
<mgrwt>
<rscale>  0 0.91128736E+03</rscale>
<asrwt>0</asrwt>
<pdfrwt beam="1">  1        1 0.14469897E+00 0.91128736E+03</pdfrwt>
<pdfrwt beam="2">  1       -1 0.15662486E+00 0.91128736E+03</pdfrwt>
<totfact> 0.52986591E+00</totfact>
</mgrwt>
</event>
<event>
 4    1  0.2731969E-009  0.8743376E+03  0.7818608E-02  0.9458242E-01
         -1   -1    0    0    0  501 -0.00000000000E+00  0.00000000000E+00  0.55885233245E+03  0.55885233247E+03  0.50400000000E-02 0.  1.
          1   -1    0    0  501    0  0.00000000000E+00 -0.00000000000E+00 -0.17342045208E+04  0.17342045209E+04  0.50400000000E-02 0. -1.
    8880022    1    1    2    0    0 -0.58103044850E+03  0.63519933043E+03 -0.11145939959E+04  0.14166107441E+04  0.15294330000E+03 0.  0.
    8880022    1    1    2    0    0  0.58103044850E+03 -0.63519933043E+03 -0.60758192484E+02  0.87644610926E+03  0.15294330000E+03 0.  0.
<mgrwt>
<rscale>  0 0.87433759E+03</rscale>
<asrwt>0</asrwt>
<pdfrwt beam="1">  1        1 0.26680069E+00 0.87433759E+03</pdfrwt>
<pdfrwt beam="2">  1       -1 0.85977283E-01 0.87433759E+03</pdfrwt>
<totfact> 0.61808654E+00</totfact>
</mgrwt>
</event>
<event>
 4    1  0.2731969E-009  0.6107423E+03  0.7818608E-02  0.9883366E-01
         -1   -1    0    0    0  501 -0.00000000000E+00  0.00000000000E+00  0.11642750295E+04  0.11642750295E+04  0.50400000000E-02 0.  1.
          1   -1    0    0  501    0  0.00000000000E+00 -0.00000000000E+00 -0.34825330661E+03  0.34825330664E+03  0.50400000000E-02 0. -1.
    8880022    1    1    2    0    0  0.43806124476E+03 -0.39713585068E+03  0.19404300573E+03  0.64082671538E+03  0.15294330000E+03 0.  0.
    8880022    1    1    2    0    0 -0.43806124476E+03  0.39713585068E+03  0.62197871718E+03  0.87170162079E+03  0.15294330000E+03 0.  0.
<mgrwt>
<rscale>  0 0.61074233E+03</rscale>
<asrwt>0</asrwt>
<pdfrwt beam="1">  1        1 0.53577433E-01 0.61074233E+03</pdfrwt>
<pdfrwt beam="2">  1       -1 0.17911923E+00 0.61074233E+03</pdfrwt>
<totfact> 0.15910783E+01</totfact>
</mgrwt>
</event>
<event>
 4    1  0.2731969E-009  0.2037978E+04  0.7818608E-02  0.8589068E-01
         -1   -1    0    0    0  501 -0.00000000000E+00  0.00000000000E+00  0.95589081139E+03  0.95589081141E+03  0.50400000000E-02 0.  1.
          1   -1    0    0  501    0  0.00000000000E+00 -0.00000000000E+00 -0.54917729121E+04  0.54917729121E+04  0.50400000000E-02 0. -1.
    8880022    1    1    2    0    0 -0.19120763085E+04  0.68842325887E+03 -0.37411119551E+04  0.42601963225E+04  0.15294330000E+03 0.  0.
    8880022    1    1    2    0    0  0.19120763085E+04 -0.68842325887E+03 -0.79477014561E+03  0.21874674010E+04  0.15294330000E+03 0.  0.
<mgrwt>
<rscale>  0 0.20379779E+04</rscale>
<asrwt>0</asrwt>
<pdfrwt beam="1">  1        1 0.84488813E+00 0.20379779E+04</pdfrwt>
<pdfrwt beam="2">  1       -1 0.14706013E+00 0.20379779E+04</pdfrwt>
<totfact> 0.52975346E-04</totfact>
</mgrwt>
</event>
<event>
 4    1  0.2731969E-009  0.1343150E+04  0.7818608E-02  0.8996030E-01
          1   -1    0    0  501    0  0.00000000000E+00  0.00000000000E+00  0.14651484058E+04  0.14651484058E+04  0.50400000000E-02 0. -1.
         -1   -1    0    0    0  501 -0.00000000000E+00 -0.00000000000E+00 -0.23034984155E+04  0.23034984155E+04  0.50400000000E-02 0.  1.
    8880022    1    1    2    0    0  0.12821826341E+04 -0.36968551469E+03  0.86639909812E+03  0.15983424969E+04  0.15294330000E+03 0.  0.
    8880022    1    1    2    0    0 -0.12821826341E+04  0.36968551469E+03 -0.17047491078E+04  0.21703043244E+04  0.15294330000E+03 0.  0.
<mgrwt>
<rscale>  0 0.13431498E+04</rscale>
<asrwt>0</asrwt>
<pdfrwt beam="1">  1        1 0.22540745E+00 0.13431498E+04</pdfrwt>
<pdfrwt beam="2">  1       -1 0.35438437E+00 0.13431498E+04</pdfrwt>
<totfact> 0.97195690E-02</totfact>
</mgrwt>
</event>
<event>
 4    1  0.2731969E-009  0.6395103E+03  0.7818608E-02  0.9826664E-01
          1   -1    0    0  501    0  0.00000000000E+00  0.00000000000E+00  0.68743769381E+03  0.68743769382E+03  0.50400000000E-02 0. -1.
         -1   -1    0    0    0  501 -0.00000000000E+00 -0.00000000000E+00 -0.19078129563E+04  0.19078129563E+04  0.50400000000E-02 0.  1.
    8880022    1    1    2    0    0  0.54575204419E+03 -0.29620341536E+03 -0.16866413410E+04  0.18038105286E+04  0.15294330000E+03 0.  0.
    8880022    1    1    2    0    0 -0.54575204419E+03  0.29620341536E+03  0.46626607848E+03  0.79144012153E+03  0.15294330000E+03 0.  0.
<mgrwt>
<rscale>  0 0.63951029E+03</rscale>
<asrwt>0</asrwt>
<pdfrwt beam="1">  1        1 0.10575965E+00 0.63951029E+03</pdfrwt>
<pdfrwt beam="2">  1       -1 0.29350968E+00 0.63951029E+03</pdfrwt>
<totfact> 0.11000228E+00</totfact>
</mgrwt>
</event>
<event>
 4    1  0.2731969E-009  0.3406155E+03  0.7818608E-02  0.1066534E+00
         -1   -1    0    0    0  501 -0.00000000000E+00  0.00000000000E+00  0.13518085581E+03  0.13518085590E+03  0.50400000000E-02 0.  1.
          1   -1    0    0  501    0  0.00000000000E+00 -0.00000000000E+00 -0.14845007147E+04  0.14845007147E+04  0.50400000000E-02 0. -1.
    8880022    1    1    2    0    0 -0.29744051769E+03 -0.64470376593E+02 -0.12006573594E+04  0.12480372746E+04  0.15294330000E+03 0. -1.
    8880022    1    1    2    0    0  0.29744051769E+03  0.64470376593E+02 -0.14866249952E+03  0.37164429607E+03  0.15294330000E+03 0.  0.
<mgrwt>
<rscale>  0 0.34061554E+03</rscale>
<asrwt>0</asrwt>
<pdfrwt beam="1">  1        1 0.22838471E+00 0.34061554E+03</pdfrwt>
<pdfrwt beam="2">  1       -1 0.20797056E-01 0.34061554E+03</pdfrwt>
<totfact> 0.13774571E+02</totfact>
</mgrwt>
</event>
<event>
 4    1  0.2731969E-009  0.9708049E+03  0.7818608E-02  0.9341158E-01
         -1   -1    0    0    0  501 -0.00000000000E+00  0.00000000000E+00  0.55349654348E+03  0.55349654350E+03  0.50400000000E-02 0.  1.
          1   -1    0    0  501    0  0.00000000000E+00 -0.00000000000E+00 -0.31306537754E+04  0.31306537754E+04  0.50400000000E-02 0. -1.
    8880022    1    1    2    0    0  0.56621136920E+03 -0.77361177168E+03 -0.44521205102E+02  0.97182523049E+03  0.15294330000E+03 0.  0.
    8880022    1    1    2    0    0 -0.56621136920E+03  0.77361177168E+03 -0.25326360269E+04  0.27123250885E+04  0.15294330000E+03 0.  0.
<mgrwt>
<rscale>  0 0.97080489E+03</rscale>
<asrwt>0</asrwt>
<pdfrwt beam="1">  1        1 0.48163903E+00 0.97080489E+03</pdfrwt>
<pdfrwt beam="2">  1       -1 0.85153317E-01 0.97080489E+03</pdfrwt>
<totfact> 0.67681222E-01</totfact>
</mgrwt>
</event>
<event>
 4    1  0.2731969E-009  0.9177803E+03  0.7818608E-02  0.9403624E-01
         -1   -1    0    0    0  501 -0.00000000000E+00  0.00000000000E+00  0.86459070316E+03  0.86459070317E+03  0.50400000000E-02 0.  1.
          1   -1    0    0  501    0  0.00000000000E+00 -0.00000000000E+00 -0.30476660028E+04  0.30476660028E+04  0.50400000000E-02 0. -1.
    8880022    1    1    2    0    0  0.48913208117E+03 -0.76136645679E+03 -0.27049958005E+04  0.28564528717E+04  0.15294330000E+03 0.  0.
    8880022    1    1    2    0    0 -0.48913208117E+03  0.76136645679E+03  0.52192050084E+03  0.10558038343E+04  0.15294330000E+03 0.  0.
<mgrwt>
<rscale>  0 0.91778033E+03</rscale>
<asrwt>0</asrwt>
<pdfrwt beam="1">  1        1 0.46887169E+00 0.91778033E+03</pdfrwt>
<pdfrwt beam="2">  1       -1 0.13301396E+00 0.91778033E+03</pdfrwt>
<totfact> 0.27592155E-01</totfact>
</mgrwt>
</event>
<event>
 4    1  0.2731969E-009  0.6286067E+03  0.7818608E-02  0.9847772E-01
         -1   -1    0    0    0  501 -0.00000000000E+00  0.00000000000E+00  0.42980472690E+03  0.42980472693E+03  0.50400000000E-02 0.  1.
          1   -1    0    0  501    0  0.00000000000E+00 -0.00000000000E+00 -0.11260252238E+04  0.11260252238E+04  0.50400000000E-02 0. -1.
    8880022    1    1    2    0    0  0.41110673262E+03  0.45027318427E+03 -0.14845660050E+02  0.62878194370E+03  0.15294330000E+03 0.  0.
    8880022    1    1    2    0    0 -0.41110673262E+03 -0.45027318427E+03 -0.68137483688E+03  0.92704800708E+03  0.15294330000E+03 0.  0.
<mgrwt>
<rscale>  0 0.62860666E+03</rscale>
<asrwt>0</asrwt>
<pdfrwt beam="1">  1        1 0.17323465E+00 0.62860666E+03</pdfrwt>
<pdfrwt beam="2">  1       -1 0.66123805E-01 0.62860666E+03</pdfrwt>
<totfact> 0.29334984E+01</totfact>
</mgrwt>
</event>
<event>
 4    1  0.2731969E-009  0.8388370E+03  0.7818608E-02  0.9505443E-01
          1   -1    0    0  501    0  0.00000000000E+00  0.00000000000E+00  0.24265721198E+04  0.24265721198E+04  0.50400000000E-02 0. -1.
         -1   -1    0    0    0  501 -0.00000000000E+00 -0.00000000000E+00 -0.54113662509E+03  0.54113662512E+03  0.50400000000E-02 0.  1.
    8880022    1    1    2    0    0  0.27103767360E+03  0.77897012696E+03  0.19536304312E+04  0.21261042763E+04  0.15294330000E+03 0.  0.
    8880022    1    1    2    0    0 -0.27103767360E+03 -0.77897012696E+03 -0.68194936445E+02  0.84160446861E+03  0.15294330000E+03 0.  0.
<mgrwt>
<rscale>  0 0.83883701E+03</rscale>
<asrwt>0</asrwt>
<pdfrwt beam="1">  1        1 0.37331878E+00 0.83883701E+03</pdfrwt>
<pdfrwt beam="2">  1       -1 0.83251789E-01 0.83883701E+03</pdfrwt>
<totfact> 0.22776499E+00</totfact>
</mgrwt>
</event>
<event>
 4    1  0.2731969E-009  0.1534693E+04  0.7818608E-02  0.8861705E-01
         -1   -1    0    0    0  501 -0.00000000000E+00  0.00000000000E+00  0.22361764472E+04  0.22361764473E+04  0.50400000000E-02 0.  1.
          1   -1    0    0  501    0  0.00000000000E+00 -0.00000000000E+00 -0.21080127404E+04  0.21080127404E+04  0.50400000000E-02 0. -1.
    8880022    1    1    2    0    0 -0.11233166576E+04  0.10344322812E+04  0.16005261316E+04  0.22174232813E+04  0.15294330000E+03 0.  0.
    8880022    1    1    2    0    0  0.11233166576E+04 -0.10344322812E+04 -0.14723624248E+04  0.21267659064E+04  0.15294330000E+03 0.  0.
<mgrwt>
<rscale>  0 0.15346928E+04</rscale>
<asrwt>0</asrwt>
<pdfrwt beam="1">  1        1 0.32430965E+00 0.15346928E+04</pdfrwt>
<pdfrwt beam="2">  1       -1 0.34402714E+00 0.15346928E+04</pdfrwt>
<totfact> 0.40231561E-02</totfact>
</mgrwt>
</event>
<event>
 4    1  0.2731969E-009  0.5938252E+03  0.7818608E-02  0.9918300E-01
         -1   -1    0    0    0  501 -0.00000000000E+00  0.00000000000E+00  0.14486188875E+04  0.14486188875E+04  0.50400000000E-02 0.  1.
          1   -1    0    0  501    0  0.00000000000E+00 -0.00000000000E+00 -0.29528538428E+03  0.29528538432E+03  0.50400000000E-02 0. -1.
    8880022    1    1    2    0    0 -0.49130561967E+03  0.29640435228E+03  0.94208842174E+03  0.11136242631E+04  0.15294330000E+03 0.  1.
    8880022    1    1    2    0    0  0.49130561967E+03 -0.29640435228E+03  0.21124508151E+03  0.63028000876E+03  0.15294330000E+03 0.  0.
<mgrwt>
<rscale>  0 0.59382523E+03</rscale>
<asrwt>0</asrwt>
<pdfrwt beam="1">  1        1 0.45428521E-01 0.59382523E+03</pdfrwt>
<pdfrwt beam="2">  1       -1 0.22286444E+00 0.59382523E+03</pdfrwt>
<totfact> 0.99421236E+00</totfact>
</mgrwt>
</event>
<event>
 4    1  0.2731969E-009  0.1594921E+04  0.7818608E-02  0.8823674E-01
         -1   -1    0    0    0  501 -0.00000000000E+00  0.00000000000E+00  0.20321145716E+04  0.20321145716E+04  0.50400000000E-02 0.  1.
          1   -1    0    0  501    0  0.00000000000E+00 -0.00000000000E+00 -0.15693960754E+04  0.15693960754E+04  0.50400000000E-02 0. -1.
    8880022    1    1    2    0    0 -0.83044054038E+03 -0.13530522058E+04 -0.57873449439E+03  0.16966752874E+04  0.15294330000E+03 0.  0.
    8880022    1    1    2    0    0  0.83044054038E+03  0.13530522058E+04  0.10414529906E+04  0.19048353597E+04  0.15294330000E+03 0.  0.
<mgrwt>
<rscale>  0 0.15949211E+04</rscale>
<asrwt>0</asrwt>
<pdfrwt beam="1">  1        1 0.24144555E+00 0.15949211E+04</pdfrwt>
<pdfrwt beam="2">  1       -1 0.31263301E+00 0.15949211E+04</pdfrwt>
<totfact> 0.14969072E-01</totfact>
</mgrwt>
</event>
<event>
 4    1  0.2731969E-009  0.9109096E+03  0.7818608E-02  0.9412046E-01
         -1   -1    0    0    0  501 -0.00000000000E+00  0.00000000000E+00  0.61609283049E+03  0.61609283051E+03  0.50400000000E-02 0.  1.
          1   -1    0    0  501    0  0.00000000000E+00 -0.00000000000E+00 -0.15217127738E+04  0.15217127738E+04  0.50400000000E-02 0. -1.
    8880022    1    1    2    0    0 -0.43332972142E+03  0.78650491048E+03 -0.90418725929E+02  0.91538615933E+03  0.15294330000E+03 0.  0.
    8880022    1    1    2    0    0  0.43332972142E+03 -0.78650491048E+03 -0.81520121737E+03  0.12224194450E+04  0.15294330000E+03 0.  0.
<mgrwt>
<rscale>  0 0.91090959E+03</rscale>
<asrwt>0</asrwt>
<pdfrwt beam="1">  1        1 0.23410966E+00 0.91090959E+03</pdfrwt>
<pdfrwt beam="2">  1       -1 0.94783513E-01 0.91090959E+03</pdfrwt>
<totfact> 0.69158193E+00</totfact>
</mgrwt>
</event>
<event>
 4    1  0.2731969E-009  0.4656275E+03  0.7818608E-02  0.1023162E+00
         -1   -1    0    0    0  501 -0.00000000000E+00  0.00000000000E+00  0.61850532828E+03  0.61850532830E+03  0.50400000000E-02 0.  1.
          1   -1    0    0  501    0  0.00000000000E+00 -0.00000000000E+00 -0.50709772981E+03  0.50709772983E+03  0.50400000000E-02 0. -1.
    8880022    1    1    2    0    0 -0.96223890484E+02  0.42913664192E+03  0.36842042891E+03  0.59375294525E+03  0.15294330000E+03 0.  1.
    8880022    1    1    2    0    0  0.96223890484E+02 -0.42913664192E+03 -0.25701283044E+03  0.53185011288E+03  0.15294330000E+03 0.  0.
<mgrwt>
<rscale>  0 0.46562748E+03</rscale>
<asrwt>0</asrwt>
<pdfrwt beam="1">  1        1 0.78015035E-01 0.46562748E+03</pdfrwt>
<pdfrwt beam="2">  1       -1 0.95154666E-01 0.46562748E+03</pdfrwt>
<totfact> 0.48845949E+01</totfact>
</mgrwt>
</event>
<event>
 4    1  0.2731969E-009  0.1039189E+04  0.7818608E-02  0.9266578E-01
         -1   -1    0    0    0  501 -0.00000000000E+00  0.00000000000E+00  0.67179094043E+03  0.67179094045E+03  0.50400000000E-02 0.  1.
          1   -1    0    0  501    0  0.00000000000E+00 -0.00000000000E+00 -0.21956261915E+04  0.21956261915E+04  0.50400000000E-02 0. -1.
    8880022    1    1    2    0    0  0.49957855635E+02  0.10266575781E+04 -0.19904077182E+02  0.10393793318E+04  0.15294330000E+03 0.  0.
    8880022    1    1    2    0    0 -0.49957855635E+02 -0.10266575781E+04 -0.15039311739E+04  0.18280378002E+04  0.15294330000E+03 0.  0.
<mgrwt>
<rscale>  0 0.10391887E+04</rscale>
<asrwt>0</asrwt>
<pdfrwt beam="1">  1        1 0.33778864E+00 0.10391887E+04</pdfrwt>
<pdfrwt beam="2">  1       -1 0.10335245E+00 0.10391887E+04</pdfrwt>
<totfact> 0.19531632E+00</totfact>
</mgrwt>
</event>
<event>
 4    1  0.2731969E-009  0.5116185E+03  0.7818608E-02  0.1010790E+00
          1   -1    0    0  501    0  0.00000000000E+00  0.00000000000E+00  0.10064756484E+04  0.10064756484E+04  0.50400000000E-02 0. -1.
         -1   -1    0    0    0  501 -0.00000000000E+00 -0.00000000000E+00 -0.38191375443E+03  0.38191375446E+03  0.50400000000E-02 0.  1.
    8880022    1    1    2    0    0  0.43723960114E+03  0.21721741308E+03 -0.79823109777E+02  0.51780812587E+03  0.15294330000E+03 0.  0.
    8880022    1    1    2    0    0 -0.43723960114E+03 -0.21721741308E+03  0.70438500373E+03  0.87058127699E+03  0.15294330000E+03 0.  0.
<mgrwt>
<rscale>  0 0.51161854E+03</rscale>
<asrwt>0</asrwt>
<pdfrwt beam="1">  1        1 0.15484240E+00 0.51161854E+03</pdfrwt>
<pdfrwt beam="2">  1       -1 0.58755963E-01 0.51161854E+03</pdfrwt>
<totfact> 0.46317912E+01</totfact>
</mgrwt>
</event>
<event>
 4    1  0.2731969E-009  0.1271913E+04  0.7818608E-02  0.9052140E-01
          1   -1    0    0  501    0  0.00000000000E+00  0.00000000000E+00  0.12823815586E+04  0.12823815586E+04  0.50400000000E-02 0. -1.
         -1   -1    0    0    0  501 -0.00000000000E+00 -0.00000000000E+00 -0.32691638095E+04  0.32691638095E+04  0.50400000000E-02 0.  1.
    8880022    1    1    2    0    0 -0.10875014604E+03  0.12579922800E+04 -0.27768076571E+04  0.30542468119E+04  0.15294330000E+03 0.  0.
    8880022    1    1    2    0    0  0.10875014604E+03 -0.12579922800E+04  0.79002540614E+03  0.14972985561E+04  0.15294330000E+03 0.  0.
<mgrwt>
<rscale>  0 0.12719131E+04</rscale>
<asrwt>0</asrwt>
<pdfrwt beam="1">  1        1 0.19728947E+00 0.12719131E+04</pdfrwt>
<pdfrwt beam="2">  1       -1 0.50294828E+00 0.12719131E+04</pdfrwt>
<totfact> 0.12898085E-02</totfact>
</mgrwt>
</event>
<event>
 4    1  0.2731969E-009  0.3659915E+03  0.7818608E-02  0.1056236E+00
         -1   -1    0    0    0  501 -0.00000000000E+00  0.00000000000E+00  0.13393416059E+03  0.13393416068E+03  0.50400000000E-02 0.  1.
          1   -1    0    0  501    0  0.00000000000E+00 -0.00000000000E+00 -0.19655665457E+04  0.19655665457E+04  0.50400000000E-02 0. -1.
    8880022    1    1    2    0    0  0.20045358864E+03 -0.26528567118E+03 -0.16515268170E+04  0.16915941028E+04  0.15294330000E+03 0.  0.
    8880022    1    1    2    0    0 -0.20045358864E+03  0.26528567118E+03 -0.18010556812E+03  0.40790660355E+03  0.15294330000E+03 0.  1.
<mgrwt>
<rscale>  0 0.36599150E+03</rscale>
<asrwt>0</asrwt>
<pdfrwt beam="1">  1        1 0.30239483E+00 0.36599150E+03</pdfrwt>
<pdfrwt beam="2">  1       -1 0.20605257E-01 0.36599150E+03</pdfrwt>
<totfact> 0.67012169E+01</totfact>
</mgrwt>
</event>
<event>
 4    1  0.2731969E-009  0.1231421E+04  0.7818608E-02  0.9085789E-01
          1   -1    0    0  501    0  0.00000000000E+00  0.00000000000E+00  0.21734311682E+04  0.21734311682E+04  0.50400000000E-02 0. -1.
         -1   -1    0    0    0  501 -0.00000000000E+00 -0.00000000000E+00 -0.77622354426E+03  0.77622354427E+03  0.50400000000E-02 0.  1.
    8880022    1    1    2    0    0 -0.25451033651E+03  0.11950864199E+04  0.22951715122E+03  0.12526279727E+04  0.15294330000E+03 0.  0.
    8880022    1    1    2    0    0  0.25451033651E+03 -0.11950864199E+04  0.11676904728E+04  0.16970267398E+04  0.15294330000E+03 0.  0.
<mgrwt>
<rscale>  0 0.12314214E+04</rscale>
<asrwt>0</asrwt>
<pdfrwt beam="1">  1        1 0.33437403E+00 0.12314214E+04</pdfrwt>
<pdfrwt beam="2">  1       -1 0.11941901E+00 0.12314214E+04</pdfrwt>
<totfact> 0.13973641E+00</totfact>
</mgrwt>
</event>
<event>
 4    1  0.2731969E-009  0.1282329E+04  0.7818608E-02  0.9043697E-01
          1   -1    0    0  501    0  0.00000000000E+00  0.00000000000E+00  0.13589053780E+04  0.13589053780E+04  0.50400000000E-02 0. -1.
         -1   -1    0    0    0  501 -0.00000000000E+00 -0.00000000000E+00 -0.14000514310E+04  0.14000514310E+04  0.50400000000E-02 0.  1.
    8880022    1    1    2    0    0 -0.12586829119E+04 -0.19155670320E+03  0.48758694494E+03  0.13718998962E+04  0.15294330000E+03 0.  0.
    8880022    1    1    2    0    0  0.12586829119E+04  0.19155670320E+03 -0.52873299792E+03  0.13870569128E+04  0.15294330000E+03 0.  0.
<mgrwt>
<rscale>  0 0.12823292E+04</rscale>
<asrwt>0</asrwt>
<pdfrwt beam="1">  1        1 0.20906237E+00 0.12823292E+04</pdfrwt>
<pdfrwt beam="2">  1       -1 0.21539253E+00 0.12823292E+04</pdfrwt>
<totfact> 0.94191535E-01</totfact>
</mgrwt>
</event>
<event>
 4    1  0.2731969E-009  0.7829490E+03  0.7818608E-02  0.9585031E-01
          1   -1    0    0  501    0  0.00000000000E+00  0.00000000000E+00  0.13400453409E+04  0.13400453409E+04  0.50400000000E-02 0. -1.
         -1   -1    0    0    0  501 -0.00000000000E+00 -0.00000000000E+00 -0.10528228308E+04  0.10528228308E+04  0.50400000000E-02 0.  1.
    8880022    1    1    2    0    0  0.76562992438E+03  0.58552090736E+02 -0.75610207646E+03  0.10884390343E+04  0.15294330000E+03 0.  0.
    8880022    1    1    2    0    0 -0.76562992438E+03 -0.58552090736E+02  0.10433245866E+04  0.13044291374E+04  0.15294330000E+03 0.  0.
<mgrwt>
<rscale>  0 0.78294903E+03</rscale>
<asrwt>0</asrwt>
<pdfrwt beam="1">  1        1 0.20616082E+00 0.78294903E+03</pdfrwt>
<pdfrwt beam="2">  1       -1 0.16197274E+00 0.78294903E+03</pdfrwt>
<totfact> 0.24827132E+00</totfact>
</mgrwt>
</event>
<event>
 4    1  0.2731969E-009  0.8965688E+03  0.7818608E-02  0.9429881E-01
         -1   -1    0    0    0  501 -0.00000000000E+00  0.00000000000E+00  0.63788986631E+03  0.63788986633E+03  0.50400000000E-02 0.  1.
          1   -1    0    0  501    0  0.00000000000E+00 -0.00000000000E+00 -0.17309992466E+04  0.17309992466E+04  0.50400000000E-02 0. -1.
    8880022    1    1    2    0    0 -0.38931001322E+02  0.88256913269E+03  0.71188865977E+02  0.89939057394E+03  0.15294330000E+03 0.  0.
    8880022    1    1    2    0    0  0.38931001322E+02 -0.88256913269E+03 -0.11642982462E+04  0.14694985390E+04  0.15294330000E+03 0.  0.
<mgrwt>
<rscale>  0 0.89656876E+03</rscale>
<asrwt>0</asrwt>
<pdfrwt beam="1">  1        1 0.26630757E+00 0.89656876E+03</pdfrwt>
<pdfrwt beam="2">  1       -1 0.98136903E-01 0.89656876E+03</pdfrwt>
<totfact> 0.46156880E+00</totfact>
</mgrwt>
</event>
<event>
 4    1  0.2731969E-009  0.4193973E+03  0.7818608E-02  0.1037263E+00
         -1   -1    0    0    0  501 -0.00000000000E+00  0.00000000000E+00  0.20172578076E+04  0.20172578077E+04  0.50400000000E-02 0.  1.
          1   -1    0    0  501    0  0.00000000000E+00 -0.00000000000E+00 -0.11041090291E+04  0.11041090291E+04  0.50400000000E-02 0. -1.
    8880022    1    1    2    0    0  0.20127575048E+01 -0.39051038556E+03 -0.10412159741E+04  0.11225082495E+04  0.15294330000E+03 0.  0.
    8880022    1    1    2    0    0 -0.20127575048E+01  0.39051038556E+03  0.19543647527E+04  0.19988585873E+04  0.15294330000E+03 0.  0.
<mgrwt>
<rscale>  0 0.41939726E+03</rscale>
<asrwt>0</asrwt>
<pdfrwt beam="1">  1        1 0.16986293E+00 0.41939726E+03</pdfrwt>
<pdfrwt beam="2">  1       -1 0.31034735E+00 0.41939726E+03</pdfrwt>
<totfact> 0.42038084E-01</totfact>
</mgrwt>
</event>
<event>
 4    1  0.2731969E-009  0.6757396E+03  0.7818608E-02  0.9759644E-01
          1   -1    0    0  501    0  0.00000000000E+00  0.00000000000E+00  0.11133544046E+04  0.11133544046E+04  0.50400000000E-02 0. -1.
         -1   -1    0    0    0  501 -0.00000000000E+00 -0.00000000000E+00 -0.12814317590E+04  0.12814317590E+04  0.50400000000E-02 0.  1.
    8880022    1    1    2    0    0 -0.65771682607E+03 -0.25317660421E+02 -0.10713915607E+04  0.12666901502E+04  0.15294330000E+03 0.  0.
    8880022    1    1    2    0    0  0.65771682607E+03  0.25317660421E+02  0.90331420629E+03  0.11280960134E+04  0.15294330000E+03 0.  0.
<mgrwt>
<rscale>  0 0.67573964E+03</rscale>
<asrwt>0</asrwt>
<pdfrwt beam="1">  1        1 0.17128529E+00 0.67573964E+03</pdfrwt>
<pdfrwt beam="2">  1       -1 0.19714335E+00 0.67573964E+03</pdfrwt>
<totfact> 0.20671181E+00</totfact>
</mgrwt>
</event>
<event>
 4    1  0.2731969E-009  0.9294612E+03  0.7818608E-02  0.9389485E-01
         -1   -1    0    0    0  501 -0.00000000000E+00  0.00000000000E+00  0.99747303049E+03  0.99747303050E+03  0.50400000000E-02 0.  1.
          1   -1    0    0  501    0  0.00000000000E+00 -0.00000000000E+00 -0.23876479261E+04  0.23876479261E+04  0.50400000000E-02 0. -1.
    8880022    1    1    2    0    0  0.34902288972E+03 -0.84775560209E+03 -0.20462380489E+04  0.22474403984E+04  0.15294330000E+03 0.  0.
    8880022    1    1    2    0    0 -0.34902288972E+03  0.84775560209E+03  0.65606315330E+03  0.11376805582E+04  0.15294330000E+03 0.  1.
<mgrwt>
<rscale>  0 0.92946124E+03</rscale>
<asrwt>0</asrwt>
<pdfrwt beam="1">  1        1 0.36733045E+00 0.92946124E+03</pdfrwt>
<pdfrwt beam="2">  1       -1 0.15345739E+00 0.92946124E+03</pdfrwt>
<totfact> 0.54712539E-01</totfact>
</mgrwt>
</event>
<event>
 4    1  0.2731969E-009  0.4936781E+03  0.7818608E-02  0.1015442E+00
         -1   -1    0    0    0  501 -0.00000000000E+00  0.00000000000E+00  0.18661963698E+03  0.18661963704E+03  0.50400000000E-02 0.  1.
          1   -1    0    0  501    0  0.00000000000E+00 -0.00000000000E+00 -0.25555533748E+04  0.25555533748E+04  0.50400000000E-02 0. -1.
    8880022    1    1    2    0    0  0.35195167176E+03  0.31057429269E+03 -0.22571436789E+03  0.54283054393E+03  0.15294330000E+03 0.  0.
    8880022    1    1    2    0    0 -0.35195167176E+03 -0.31057429269E+03 -0.21432193699E+04  0.21993424679E+04  0.15294330000E+03 0.  0.
<mgrwt>
<rscale>  0 0.49367806E+03</rscale>
<asrwt>0</asrwt>
<pdfrwt beam="1">  1        1 0.39316203E+00 0.49367806E+03</pdfrwt>
<pdfrwt beam="2">  1       -1 0.28710715E-01 0.49367806E+03</pdfrwt>
<totfact> 0.15080651E+01</totfact>
</mgrwt>
</event>
<event>
 4    1  0.2731969E-009  0.6530994E+03  0.7818608E-02  0.9800981E-01
         -1   -1    0    0    0  501 -0.00000000000E+00  0.00000000000E+00  0.52798797053E+03  0.52798797056E+03  0.50400000000E-02 0.  1.
          1   -1    0    0  501    0  0.00000000000E+00 -0.00000000000E+00 -0.22245800312E+04  0.22245800312E+04  0.50400000000E-02 0. -1.
    8880022    1    1    2    0    0 -0.62977243899E+03  0.80832298967E+02  0.25001792928E+03  0.69931952886E+03  0.15294330000E+03 0.  0.
    8880022    1    1    2    0    0  0.62977243899E+03 -0.80832298967E+02 -0.19466099900E+04  0.20532484729E+04  0.15294330000E+03 0.  0.
<mgrwt>
<rscale>  0 0.65309941E+03</rscale>
<asrwt>0</asrwt>
<pdfrwt beam="1">  1        1 0.34224308E+00 0.65309941E+03</pdfrwt>
<pdfrwt beam="2">  1       -1 0.81228920E-01 0.65309941E+03</pdfrwt>
<totfact> 0.34081214E+00</totfact>
</mgrwt>
</event>
<event>
 4    1  0.2731969E-009  0.8761956E+03  0.7818608E-02  0.9455837E-01
          1   -1    0    0  501    0  0.00000000000E+00  0.00000000000E+00  0.98893092565E+03  0.98893092566E+03  0.50400000000E-02 0. -1.
         -1   -1    0    0    0  501 -0.00000000000E+00 -0.00000000000E+00 -0.13566033746E+04  0.13566033747E+04  0.50400000000E-02 0.  1.
    8880022    1    1    2    0    0  0.41135616827E+03  0.75836218505E+03 -0.95085938182E+03  0.12930012830E+04  0.15294330000E+03 0.  0.
    8880022    1    1    2    0    0 -0.41135616827E+03 -0.75836218505E+03  0.58318693282E+03  0.10525330173E+04  0.15294330000E+03 0.  0.
<mgrwt>
<rscale>  0 0.87619561E+03</rscale>
<asrwt>0</asrwt>
<pdfrwt beam="1">  1        1 0.15214322E+00 0.87619561E+03</pdfrwt>
<pdfrwt beam="2">  1       -1 0.20870821E+00 0.87619561E+03</pdfrwt>
<totfact> 0.20703568E+00</totfact>
</mgrwt>
</event>
<event>
 4    1  0.2731969E-009  0.1118627E+04  0.7818608E-02  0.9187225E-01
         -1   -1    0    0    0  501 -0.00000000000E+00  0.00000000000E+00  0.16643678431E+04  0.16643678431E+04  0.50400000000E-02 0.  1.
          1   -1    0    0  501    0  0.00000000000E+00 -0.00000000000E+00 -0.12074777675E+04  0.12074777675E+04  0.50400000000E-02 0. -1.
    8880022    1    1    2    0    0 -0.74692088322E+03  0.81856174565E+03 -0.65362885172E+03  0.12955911647E+04  0.15294330000E+03 0.  0.
    8880022    1    1    2    0    0  0.74692088322E+03 -0.81856174565E+03  0.11105189274E+04  0.15762544459E+04  0.15294330000E+03 0.  0.
<mgrwt>
<rscale>  0 0.11186267E+04</rscale>
<asrwt>0</asrwt>
<pdfrwt beam="1">  1        1 0.18576581E+00 0.11186267E+04</pdfrwt>
<pdfrwt beam="2">  1       -1 0.25605659E+00 0.11186267E+04</pdfrwt>
<totfact> 0.66650297E-01</totfact>
</mgrwt>
</event>
<event>
 4    1  0.2731969E-009  0.1415233E+04  0.7818608E-02  0.8942865E-01
         -1   -1    0    0    0  501 -0.00000000000E+00  0.00000000000E+00  0.14910064339E+04  0.14910064340E+04  0.50400000000E-02 0.  1.
          1   -1    0    0  501    0  0.00000000000E+00 -0.00000000000E+00 -0.19852939764E+04  0.19852939764E+04  0.50400000000E-02 0. -1.
    8880022    1    1    2    0    0  0.68814826363E+03  0.12271698341E+04  0.74126505515E+03  0.15976105187E+04  0.15294330000E+03 0.  0.
    8880022    1    1    2    0    0 -0.68814826363E+03 -0.12271698341E+04 -0.12355525976E+04  0.18786898917E+04  0.15294330000E+03 0.  0.
<mgrwt>
<rscale>  0 0.14152334E+04</rscale>
<asrwt>0</asrwt>
<pdfrwt beam="1">  1        1 0.30542984E+00 0.14152334E+04</pdfrwt>
<pdfrwt beam="2">  1       -1 0.22938561E+00 0.14152334E+04</pdfrwt>
<totfact> 0.27711857E-01</totfact>
</mgrwt>
</event>
<event>
 4    1  0.2731969E-009  0.1098248E+04  0.7818608E-02  0.9206901E-01
          1   -1    0    0  501    0  0.00000000000E+00  0.00000000000E+00  0.34289029739E+04  0.34289029739E+04  0.50400000000E-02 0. -1.
         -1   -1    0    0    0  501 -0.00000000000E+00 -0.00000000000E+00 -0.48439098488E+03  0.48439098491E+03  0.50400000000E-02 0.  1.
    8880022    1    1    2    0    0 -0.87604374497E+03 -0.64444182233E+03  0.44840302652E+03  0.11862608620E+04  0.15294330000E+03 0.  0.
    8880022    1    1    2    0    0  0.87604374497E+03  0.64444182233E+03  0.24961089625E+04  0.27270330968E+04  0.15294330000E+03 0.  0.
<mgrwt>
<rscale>  0 0.10982484E+04</rscale>
<asrwt>0</asrwt>
<pdfrwt beam="1">  1        1 0.52752353E+00 0.10982484E+04</pdfrwt>
<pdfrwt beam="2">  1       -1 0.74521691E-01 0.10982484E+04</pdfrwt>
<totfact> 0.52565387E-01</totfact>
</mgrwt>
</event>
<event>
 4    1  0.2731969E-009  0.2130381E+03  0.7818608E-02  0.1139183E+00
          1   -1    0    0  501    0  0.00000000000E+00  0.00000000000E+00  0.72280155323E+03  0.72280155325E+03  0.50400000000E-02 0. -1.
         -1   -1    0    0    0  501 -0.00000000000E+00 -0.00000000000E+00 -0.17526861020E+04  0.17526861020E+04  0.50400000000E-02 0.  1.
    8880022    1    1    2    0    0 -0.35373847220E+02 -0.14402170071E+03 -0.17303125498E+04  0.17433779660E+04  0.15294330000E+03 0.  0.
    8880022    1    1    2    0    0  0.35373847220E+02  0.14402170071E+03  0.70042800107E+03  0.73210968921E+03  0.15294330000E+03 0.  0.
<mgrwt>
<rscale>  0 0.21303805E+03</rscale>
<asrwt>0</asrwt>
<pdfrwt beam="1">  1        1 0.11120024E+00 0.21303805E+03</pdfrwt>
<pdfrwt beam="2">  1       -1 0.26964401E+00 0.21303805E+03</pdfrwt>
<totfact> 0.16952484E+00</totfact>
</mgrwt>
</event>
<event>
 4    1  0.2731969E-009  0.2661904E+03  0.7818608E-02  0.1103480E+00
          1   -1    0    0  501    0  0.00000000000E+00  0.00000000000E+00  0.93305562021E+03  0.93305562023E+03  0.50400000000E-02 0. -1.
         -1   -1    0    0    0  501 -0.00000000000E+00 -0.00000000000E+00 -0.29794013754E+03  0.29794013759E+03  0.50400000000E-02 0.  1.
    8880022    1    1    2    0    0  0.21150445246E+03 -0.52264154271E+02  0.84885495535E+03  0.88961343486E+03  0.15294330000E+03 0. -1.
    8880022    1    1    2    0    0 -0.21150445246E+03  0.52264154271E+02 -0.21373947268E+03  0.34138232296E+03  0.15294330000E+03 0.  0.
<mgrwt>
<rscale>  0 0.26619040E+03</rscale>
<asrwt>0</asrwt>
<pdfrwt beam="1">  1        1 0.14354702E+00 0.26619040E+03</pdfrwt>
<pdfrwt beam="2">  1       -1 0.45836944E-01 0.26619040E+03</pdfrwt>
<totfact> 0.88097505E+01</totfact>
</mgrwt>
</event>
<event>
 4    1  0.2731969E-009  0.9607182E+03  0.7818608E-02  0.9352710E-01
          1   -1    0    0  501    0  0.00000000000E+00  0.00000000000E+00  0.81825049109E+03  0.81825049110E+03  0.50400000000E-02 0. -1.
         -1   -1    0    0    0  501 -0.00000000000E+00 -0.00000000000E+00 -0.14625178420E+04  0.14625178420E+04  0.50400000000E-02 0.  1.
    8880022    1    1    2    0    0 -0.94831606619E+03  0.16862876034E+02 -0.86753468050E+03  0.12944480650E+04  0.15294330000E+03 0.  0.
    8880022    1    1    2    0    0  0.94831606619E+03 -0.16862876034E+02  0.22326732956E+03  0.98632026819E+03  0.15294330000E+03 0.  0.
<mgrwt>
<rscale>  0 0.96071815E+03</rscale>
<asrwt>0</asrwt>
<pdfrwt beam="1">  1        1 0.12588469E+00 0.96071815E+03</pdfrwt>
<pdfrwt beam="2">  1       -1 0.22500274E+00 0.96071815E+03</pdfrwt>
<totfact> 0.21958150E+00</totfact>
</mgrwt>
</event>
<event>
 4    1  0.2731969E-009  0.1976424E+04  0.7818608E-02  0.8617723E-01
          1   -1    0    0  501    0  0.00000000000E+00  0.00000000000E+00  0.29520942904E+04  0.29520942904E+04  0.50400000000E-02 0. -1.
         -1   -1    0    0    0  501 -0.00000000000E+00 -0.00000000000E+00 -0.19665002671E+04  0.19665002671E+04  0.50400000000E-02 0.  1.
    8880022    1    1    2    0    0  0.18149717559E+04  0.76729185406E+03 -0.91378916423E+03  0.21774438118E+04  0.15294330000E+03 0.  0.
    8880022    1    1    2    0    0 -0.18149717559E+04 -0.76729185406E+03  0.18993831876E+04  0.27411507457E+04  0.15294330000E+03 0.  0.
<mgrwt>
<rscale>  0 0.19764238E+04</rscale>
<asrwt>0</asrwt>
<pdfrwt beam="1">  1        1 0.45416835E+00 0.19764238E+04</pdfrwt>
<pdfrwt beam="2">  1       -1 0.30253850E+00 0.19764238E+04</pdfrwt>
<totfact> 0.18289999E-02</totfact>
</mgrwt>
</event>
<event>
 4    1  0.2731969E-009  0.4146833E+03  0.7818608E-02  0.1038811E+00
          1   -1    0    0  501    0  0.00000000000E+00  0.00000000000E+00  0.72815359871E+03  0.72815359873E+03  0.50400000000E-02 0. -1.
         -1   -1    0    0    0  501 -0.00000000000E+00 -0.00000000000E+00 -0.76390350362E+03  0.76390350364E+03  0.50400000000E-02 0.  1.
    8880022    1    1    2    0    0 -0.31533480465E+03  0.22166319605E+03  0.60220371706E+03  0.73117137619E+03  0.15294330000E+03 0.  0.
    8880022    1    1    2    0    0  0.31533480465E+03 -0.22166319605E+03 -0.63795362197E+03  0.76088572618E+03  0.15294330000E+03 0.  0.
<mgrwt>
<rscale>  0 0.41468333E+03</rscale>
<asrwt>0</asrwt>
<pdfrwt beam="1">  1        1 0.11202363E+00 0.41468333E+03</pdfrwt>
<pdfrwt beam="2">  1       -1 0.11752362E+00 0.41468333E+03</pdfrwt>
<totfact> 0.18098031E+01</totfact>
</mgrwt>
</event>
<event>
 4    1  0.2731969E-009  0.2316935E+03  0.7818608E-02  0.1125453E+00
          1   -1    0    0  501    0  0.00000000000E+00  0.00000000000E+00  0.78479285420E+03  0.78479285422E+03  0.50400000000E-02 0. -1.
         -1   -1    0    0    0  501 -0.00000000000E+00 -0.00000000000E+00 -0.26068408942E+03  0.26068408947E+03  0.50400000000E-02 0.  1.
    8880022    1    1    2    0    0  0.16454584006E+03  0.56700066909E+02  0.71100225944E+03  0.74780084047E+03  0.15294330000E+03 0. -1.
    8880022    1    1    2    0    0 -0.16454584006E+03 -0.56700066909E+02 -0.18689349465E+03  0.29767610322E+03  0.15294330000E+03 0.  0.
<mgrwt>
<rscale>  0 0.23169351E+03</rscale>
<asrwt>0</asrwt>
<pdfrwt beam="1">  1        1 0.12073736E+00 0.23169351E+03</pdfrwt>
<pdfrwt beam="2">  1       -1 0.40105244E-01 0.23169351E+03</pdfrwt>
<totfact> 0.14865751E+02</totfact>
</mgrwt>
</event>
<event>
 4    1  0.2731969E-009  0.8451829E+03  0.7818608E-02  0.9496825E-01
         -1   -1    0    0    0  501 -0.00000000000E+00  0.00000000000E+00  0.21689549164E+04  0.21689549164E+04  0.50400000000E-02 0.  1.
          1   -1    0    0  501    0  0.00000000000E+00 -0.00000000000E+00 -0.59171822561E+03  0.59171822563E+03  0.50400000000E-02 0. -1.
    8880022    1    1    2    0    0  0.18652675464E+03  0.81003099773E+03 -0.13053381988E+03  0.85520358899E+03  0.15294330000E+03 0.  0.
    8880022    1    1    2    0    0 -0.18652675464E+03 -0.81003099773E+03  0.17077705107E+04  0.19054695531E+04  0.15294330000E+03 0.  0.
<mgrwt>
<rscale>  0 0.84518288E+03</rscale>
<asrwt>0</asrwt>
<pdfrwt beam="1">  1        1 0.91033573E-01 0.84518288E+03</pdfrwt>
<pdfrwt beam="2">  1       -1 0.33368537E+00 0.84518288E+03</pdfrwt>
<totfact> 0.72632805E-01</totfact>
</mgrwt>
</event>
<event>
 4    1  0.2731969E-009  0.5966748E+03  0.7818608E-02  0.9912329E-01
          1   -1    0    0  501    0  0.00000000000E+00  0.00000000000E+00  0.72528529641E+03  0.72528529643E+03  0.50400000000E-02 0. -1.
         -1   -1    0    0    0  501 -0.00000000000E+00 -0.00000000000E+00 -0.10113809984E+04  0.10113809984E+04  0.50400000000E-02 0.  1.
    8880022    1    1    2    0    0  0.15849087015E+03  0.55453563255E+03  0.47988889495E+03  0.76571151761E+03  0.15294330000E+03 0.  0.
    8880022    1    1    2    0    0 -0.15849087015E+03 -0.55453563255E+03 -0.76598459698E+03  0.97095477727E+03  0.15294330000E+03 0.  0.
<mgrwt>
<rscale>  0 0.59667477E+03</rscale>
<asrwt>0</asrwt>
<pdfrwt beam="1">  1        1 0.11158235E+00 0.59667477E+03</pdfrwt>
<pdfrwt beam="2">  1       -1 0.15559708E+00 0.59667477E+03</pdfrwt>
<totfact> 0.86054772E+00</totfact>
</mgrwt>
</event>
<event>
 4    1  0.2731969E-009  0.5326363E+03  0.7818608E-02  0.1005595E+00
          1   -1    0    0  501    0  0.00000000000E+00  0.00000000000E+00  0.38856654144E+03  0.38856654147E+03  0.50400000000E-02 0. -1.
         -1   -1    0    0    0  501 -0.00000000000E+00 -0.00000000000E+00 -0.10003666414E+04  0.10003666414E+04  0.50400000000E-02 0.  1.
    8880022    1    1    2    0    0 -0.50552023137E+03 -0.68986231867E+02 -0.66685193682E+03  0.85345940921E+03  0.15294330000E+03 0.  0.
    8880022    1    1    2    0    0  0.50552023137E+03  0.68986231867E+02  0.55051836885E+02  0.53547377365E+03  0.15294330000E+03 0.  0.
<mgrwt>
<rscale>  0 0.53263633E+03</rscale>
<asrwt>0</asrwt>
<pdfrwt beam="1">  1        1 0.59779468E-01 0.53263633E+03</pdfrwt>
<pdfrwt beam="2">  1       -1 0.15390256E+00 0.53263633E+03</pdfrwt>
<totfact> 0.21368539E+01</totfact>
</mgrwt>
</event>
<event>
 4    1  0.2731969E-009  0.7327135E+03  0.7818608E-02  0.9662867E-01
          1   -1    0    0  501    0  0.00000000000E+00  0.00000000000E+00  0.18453092732E+03  0.18453092738E+03  0.50400000000E-02 0. -1.
         -1   -1    0    0    0  501 -0.00000000000E+00 -0.00000000000E+00 -0.35406861843E+04  0.35406861843E+04  0.50400000000E-02 0.  1.
    8880022    1    1    2    0    0 -0.56251022452E+03  0.44391401766E+03 -0.24645812860E+04  0.25711923257E+04  0.15294330000E+03 0.  0.
    8880022    1    1    2    0    0  0.56251022452E+03 -0.44391401766E+03 -0.89157397098E+03  0.11540247859E+04  0.15294330000E+03 0.  0.
<mgrwt>
<rscale>  0 0.73271349E+03</rscale>
<asrwt>0</asrwt>
<pdfrwt beam="1">  1        1 0.28389376E-01 0.73271349E+03</pdfrwt>
<pdfrwt beam="2">  1       -1 0.54472090E+00 0.73271349E+03</pdfrwt>
<totfact> 0.13837766E-01</totfact>
</mgrwt>
</event>
<event>
 4    1  0.2731969E-009  0.9109921E+03  0.7818608E-02  0.9411944E-01
          1   -1    0    0  501    0  0.00000000000E+00  0.00000000000E+00  0.99684340666E+03  0.99684340667E+03  0.50400000000E-02 0. -1.
         -1   -1    0    0    0  501 -0.00000000000E+00 -0.00000000000E+00 -0.10686840466E+04  0.10686840466E+04  0.50400000000E-02 0.  1.
    8880022    1    1    2    0    0 -0.88569604808E+03  0.14851774912E+03  0.44955789255E+03  0.10158784195E+04  0.15294330000E+03 0.  0.
    8880022    1    1    2    0    0  0.88569604808E+03 -0.14851774912E+03 -0.52139853245E+03  0.10496490338E+04  0.15294330000E+03 0.  0.
<mgrwt>
<rscale>  0 0.91099213E+03</rscale>
<asrwt>0</asrwt>
<pdfrwt beam="1">  1        1 0.15336052E+00 0.91099213E+03</pdfrwt>
<pdfrwt beam="2">  1       -1 0.16441293E+00 0.91099213E+03</pdfrwt>
<totfact> 0.41769677E+00</totfact>
</mgrwt>
</event>
<event>
 4    1  0.2731969E-009  0.4921321E+03  0.7818608E-02  0.1015853E+00
          1   -1    0    0  501    0  0.00000000000E+00  0.00000000000E+00  0.21205607156E+04  0.21205607156E+04  0.50400000000E-02 0. -1.
         -1   -1    0    0    0  501 -0.00000000000E+00 -0.00000000000E+00 -0.44717029182E+03  0.44717029185E+03  0.50400000000E-02 0.  1.
    8880022    1    1    2    0    0  0.39056327496E+03  0.25741536972E+03 -0.27114676498E+03  0.56188483294E+03  0.15294330000E+03 0.  0.
    8880022    1    1    2    0    0 -0.39056327496E+03 -0.25741536972E+03  0.19445371888E+04  0.20058461745E+04  0.15294330000E+03 0.  0.
<mgrwt>
<rscale>  0 0.49213209E+03</rscale>
<asrwt>0</asrwt>
<pdfrwt beam="1">  1        1 0.32624011E+00 0.49213209E+03</pdfrwt>
<pdfrwt beam="2">  1       -1 0.68795430E-01 0.49213209E+03</pdfrwt>
<totfact> 0.58647319E+00</totfact>
</mgrwt>
</event>
<event>
 4    1  0.2731969E-009  0.3433403E+03  0.7818608E-02  0.1065382E+00
          1   -1    0    0  501    0  0.00000000000E+00  0.00000000000E+00  0.67096965346E+03  0.67096965348E+03  0.50400000000E-02 0. -1.
         -1   -1    0    0    0  501 -0.00000000000E+00 -0.00000000000E+00 -0.41994397293E+03  0.41994397296E+03  0.50400000000E-02 0.  1.
    8880022    1    1    2    0    0  0.35696215750E+02 -0.30531410661E+03 -0.29047977521E+03  0.44973445092E+03  0.15294330000E+03 0.  0.
    8880022    1    1    2    0    0 -0.35696215750E+02  0.30531410661E+03  0.54150545574E+03  0.64117917553E+03  0.15294330000E+03 0.  0.
<mgrwt>
<rscale>  0 0.34334032E+03</rscale>
<asrwt>0</asrwt>
<pdfrwt beam="1">  1        1 0.10322610E+00 0.34334032E+03</pdfrwt>
<pdfrwt beam="2">  1       -1 0.64606765E-01 0.34334032E+03</pdfrwt>
<totfact> 0.75430728E+01</totfact>
</mgrwt>
</event>
<event>
 4    1  0.2731969E-009  0.1158890E+04  0.7818608E-02  0.9149621E-01
          1   -1    0    0  501    0  0.00000000000E+00  0.00000000000E+00  0.11622063515E+04  0.11622063516E+04  0.50400000000E-02 0. -1.
         -1   -1    0    0    0  501 -0.00000000000E+00 -0.00000000000E+00 -0.16489681715E+04  0.16489681715E+04  0.50400000000E-02 0.  1.
    8880022    1    1    2    0    0  0.13585151610E+03 -0.11406921602E+04  0.52547459191E+03  0.12724580302E+04  0.15294330000E+03 0.  0.
    8880022    1    1    2    0    0 -0.13585151610E+03  0.11406921602E+04 -0.10122364119E+04  0.15387164929E+04  0.15294330000E+03 0.  0.
<mgrwt>
<rscale>  0 0.11588899E+04</rscale>
<asrwt>0</asrwt>
<pdfrwt beam="1">  1        1 0.17880098E+00 0.11588899E+04</pdfrwt>
<pdfrwt beam="2">  1       -1 0.25368741E+00 0.11588899E+04</pdfrwt>
<totfact> 0.74154176E-01</totfact>
</mgrwt>
</event>
<event>
 4    1  0.2731969E-009  0.5366135E+03  0.7818608E-02  0.1004641E+00
          1   -1    0    0  501    0  0.00000000000E+00  0.00000000000E+00  0.25725684828E+04  0.25725684828E+04  0.50400000000E-02 0. -1.
         -1   -1    0    0    0  501 -0.00000000000E+00 -0.00000000000E+00 -0.43685950332E+03  0.43685950335E+03  0.50400000000E-02 0.  1.
    8880022    1    1    2    0    0 -0.33379263984E+03 -0.39133731889E+03 -0.22985043939E+03  0.58376819121E+03  0.15294330000E+03 0.  0.
    8880022    1    1    2    0    0  0.33379263984E+03  0.39133731889E+03  0.23655594189E+04  0.24256597950E+04  0.15294330000E+03 0.  0.
<mgrwt>
<rscale>  0 0.53661353E+03</rscale>
<asrwt>0</asrwt>
<pdfrwt beam="1">  1        1 0.39577977E+00 0.53661353E+03</pdfrwt>
<pdfrwt beam="2">  1       -1 0.67209155E-01 0.53661353E+03</pdfrwt>
<totfact> 0.30224506E+00</totfact>
</mgrwt>
</event>
<event>
 4    1  0.2731969E-009  0.2733911E+03  0.7818608E-02  0.1099354E+00
         -1   -1    0    0    0  501 -0.00000000000E+00  0.00000000000E+00  0.62092325691E+03  0.62092325693E+03  0.50400000000E-02 0.  1.
          1   -1    0    0  501    0  0.00000000000E+00 -0.00000000000E+00 -0.13495463927E+04  0.13495463927E+04  0.50400000000E-02 0. -1.
    8880022    1    1    2    0    0  0.22051133663E+03 -0.52209041694E+02  0.57595790727E+03  0.63755015299E+03  0.15294330000E+03 0.  0.
    8880022    1    1    2    0    0 -0.22051133663E+03  0.52209041694E+02 -0.13045810430E+04  0.13329194966E+04  0.15294330000E+03 0.  0.
<mgrwt>
<rscale>  0 0.27339109E+03</rscale>
<asrwt>0</asrwt>
<pdfrwt beam="1">  1        1 0.20762252E+00 0.27339109E+03</pdfrwt>
<pdfrwt beam="2">  1       -1 0.95526655E-01 0.27339109E+03</pdfrwt>
<totfact> 0.10264294E+01</totfact>
</mgrwt>
</event>
<event>
 4    1  0.2731969E-009  0.2401375E+03  0.7818608E-02  0.1119701E+00
         -1   -1    0    0    0  501 -0.00000000000E+00  0.00000000000E+00  0.20028082384E+03  0.20028082390E+03  0.50400000000E-02 0.  1.
          1   -1    0    0  501    0  0.00000000000E+00 -0.00000000000E+00 -0.18365559055E+04  0.18365559055E+04  0.50400000000E-02 0. -1.
    8880022    1    1    2    0    0 -0.16997691138E+03  0.73363664243E+02  0.11704843311E+03  0.26714484150E+03  0.15294330000E+03 0.  1.
    8880022    1    1    2    0    0  0.16997691138E+03 -0.73363664243E+02 -0.17533235148E+04  0.17696918879E+04  0.15294330000E+03 0.  0.
<mgrwt>
<rscale>  0 0.24013752E+03</rscale>
<asrwt>0</asrwt>
<pdfrwt beam="1">  1        1 0.28254705E+00 0.24013752E+03</pdfrwt>
<pdfrwt beam="2">  1       -1 0.30812436E-01 0.24013752E+03</pdfrwt>
<totfact> 0.43017677E+01</totfact>
</mgrwt>
</event>
<event>
 4    1  0.2731969E-009  0.3799027E+03  0.7818608E-02  0.1050970E+00
         -1   -1    0    0    0  501 -0.00000000000E+00  0.00000000000E+00  0.14282565746E+04  0.14282565746E+04  0.50400000000E-02 0.  1.
          1   -1    0    0  501    0  0.00000000000E+00 -0.00000000000E+00 -0.15600892878E+04  0.15600892878E+04  0.50400000000E-02 0. -1.
    8880022    1    1    2    0    0  0.60515024479E+02 -0.34245052982E+03 -0.15108887537E+04  0.15579187760E+04  0.15294330000E+03 0. -1.
    8880022    1    1    2    0    0 -0.60515024479E+02  0.34245052982E+03  0.13790560405E+04  0.14304270864E+04  0.15294330000E+03 0.  0.
<mgrwt>
<rscale>  0 0.37990273E+03</rscale>
<asrwt>0</asrwt>
<pdfrwt beam="1">  1        1 0.24001374E+00 0.37990273E+03</pdfrwt>
<pdfrwt beam="2">  1       -1 0.21973178E+00 0.37990273E+03</pdfrwt>
<totfact> 0.77881283E-01</totfact>
</mgrwt>
</event>
<event>
 4    1  0.2731969E-009  0.8597619E+03  0.7818608E-02  0.9477328E-01
          1   -1    0    0  501    0  0.00000000000E+00  0.00000000000E+00  0.20631808120E+04  0.20631808120E+04  0.50400000000E-02 0. -1.
         -1   -1    0    0    0  501 -0.00000000000E+00 -0.00000000000E+00 -0.67429524720E+03  0.67429524722E+03  0.50400000000E-02 0.  1.
    8880022    1    1    2    0    0 -0.62221817867E+03 -0.57327425552E+03  0.16314680018E+04  0.18441470461E+04  0.15294330000E+03 0.  0.
    8880022    1    1    2    0    0  0.62221817867E+03  0.57327425552E+03 -0.24258243697E+03  0.89332901311E+03  0.15294330000E+03 0.  1.
<mgrwt>
<rscale>  0 0.85976188E+03</rscale>
<asrwt>0</asrwt>
<pdfrwt beam="1">  1        1 0.31741244E+00 0.85976188E+03</pdfrwt>
<pdfrwt beam="2">  1       -1 0.10373773E+00 0.85976188E+03</pdfrwt>
<totfact> 0.24442706E+00</totfact>
</mgrwt>
</event>
<event>
 4    1  0.2731969E-009  0.5869779E+03  0.7818608E-02  0.9932797E-01
          1   -1    0    0  501    0  0.00000000000E+00  0.00000000000E+00  0.23138319186E+04  0.23138319186E+04  0.50400000000E-02 0. -1.
         -1   -1    0    0    0  501 -0.00000000000E+00 -0.00000000000E+00 -0.45879655458E+03  0.45879655461E+03  0.50400000000E-02 0.  1.
    8880022    1    1    2    0    0 -0.18458713884E+03  0.53579757034E+03 -0.21182898509E+03  0.62403094486E+03  0.15294330000E+03 0.  0.
    8880022    1    1    2    0    0  0.18458713884E+03 -0.53579757034E+03  0.20668643491E+04  0.21485975283E+04  0.15294330000E+03 0.  0.
<mgrwt>
<rscale>  0 0.58697794E+03</rscale>
<asrwt>0</asrwt>
<pdfrwt beam="1">  1        1 0.35597414E+00 0.58697794E+03</pdfrwt>
<pdfrwt beam="2">  1       -1 0.70584085E-01 0.58697794E+03</pdfrwt>
<totfact> 0.40391944E+00</totfact>
</mgrwt>
</event>
<event>
 4    1  0.2731969E-009  0.1460571E+04  0.7818608E-02  0.8911104E-01
         -1   -1    0    0    0  501 -0.00000000000E+00  0.00000000000E+00  0.93981904931E+03  0.93981904932E+03  0.50400000000E-02 0.  1.
          1   -1    0    0  501    0  0.00000000000E+00 -0.00000000000E+00 -0.26750526372E+04  0.26750526372E+04  0.50400000000E-02 0. -1.
    8880022    1    1    2    0    0 -0.21437320004E+03 -0.14366350999E+04 -0.16418556706E+03  0.14697703332E+04  0.15294330000E+03 0.  0.
    8880022    1    1    2    0    0  0.21437320004E+03  0.14366350999E+04 -0.15710480208E+04  0.21451013532E+04  0.15294330000E+03 0.  0.
<mgrwt>
<rscale>  0 0.14605711E+04</rscale>
<asrwt>0</asrwt>
<pdfrwt beam="1">  1        1 0.41154656E+00 0.14605711E+04</pdfrwt>
<pdfrwt beam="2">  1       -1 0.14458755E+00 0.14605711E+04</pdfrwt>
<totfact> 0.37594542E-01</totfact>
</mgrwt>
</event>
<event>
 4    1  0.2731969E-009  0.4067848E+03  0.7818608E-02  0.1041455E+00
         -1   -1    0    0    0  501 -0.00000000000E+00  0.00000000000E+00  0.19057352048E+03  0.19057352055E+03  0.50400000000E-02 0.  1.
          1   -1    0    0  501    0  0.00000000000E+00 -0.00000000000E+00 -0.35727894675E+04  0.35727894675E+04  0.50400000000E-02 0. -1.
    8880022    1    1    2    0    0 -0.26126581881E+03  0.27170270075E+03 -0.53969056489E+02  0.41034923875E+03  0.15294330000E+03 0.  0.
    8880022    1    1    2    0    0  0.26126581881E+03 -0.27170270075E+03 -0.33282468906E+04  0.33530137493E+04  0.15294330000E+03 0.  0.
<mgrwt>
<rscale>  0 0.40678476E+03</rscale>
<asrwt>0</asrwt>
<pdfrwt beam="1">  1        1 0.54965987E+00 0.40678476E+03</pdfrwt>
<pdfrwt beam="2">  1       -1 0.29319006E-01 0.40678476E+03</pdfrwt>
<totfact> 0.27771476E+00</totfact>
</mgrwt>
</event>
<event>
 4    1  0.2731969E-009  0.5513073E+03  0.7818608E-02  0.1001192E+00
         -1   -1    0    0    0  501 -0.00000000000E+00  0.00000000000E+00  0.23416186682E+03  0.23416186687E+03  0.50400000000E-02 0.  1.
          1   -1    0    0  501    0  0.00000000000E+00 -0.00000000000E+00 -0.21599710766E+04  0.21599710766E+04  0.50400000000E-02 0. -1.
    8880022    1    1    2    0    0  0.20832264746E+03 -0.48698025436E+03 -0.17191159368E+04  0.18053529713E+04  0.15294330000E+03 0.  0.
    8880022    1    1    2    0    0 -0.20832264746E+03  0.48698025436E+03 -0.20669327296E+03  0.58877997222E+03  0.15294330000E+03 0.  0.
<mgrwt>
<rscale>  0 0.55130731E+03</rscale>
<asrwt>0</asrwt>
<pdfrwt beam="1">  1        1 0.33230323E+00 0.55130731E+03</pdfrwt>
<pdfrwt beam="2">  1       -1 0.36024904E-01 0.55130731E+03</pdfrwt>
<totfact> 0.18453165E+01</totfact>
</mgrwt>
</event>
<event>
 4    1  0.2731969E-009  0.1858527E+04  0.7818608E-02  0.8675780E-01
          1   -1    0    0  501    0  0.00000000000E+00  0.00000000000E+00  0.39814071052E+04  0.39814071052E+04  0.50400000000E-02 0. -1.
         -1   -1    0    0    0  501 -0.00000000000E+00 -0.00000000000E+00 -0.10799213023E+04  0.10799213023E+04  0.50400000000E-02 0.  1.
    8880022    1    1    2    0    0 -0.71103029710E+03 -0.17103116755E+04  0.25729500237E+04  0.31739870176E+04  0.15294330000E+03 0.  0.
    8880022    1    1    2    0    0  0.71103029710E+03  0.17103116755E+04  0.32853577928E+03  0.18873413899E+04  0.15294330000E+03 0.  0.
<mgrwt>
<rscale>  0 0.18585268E+04</rscale>
<asrwt>0</asrwt>
<pdfrwt beam="1">  1        1 0.61252417E+00 0.18585268E+04</pdfrwt>
<pdfrwt beam="2">  1       -1 0.16614174E+00 0.18585268E+04</pdfrwt>
<totfact> 0.23968151E-02</totfact>
</mgrwt>
</event>
<event>
 4    1  0.2731969E-009  0.1018304E+04  0.7818608E-02  0.9288694E-01
          1   -1    0    0  501    0  0.00000000000E+00  0.00000000000E+00  0.19930048359E+04  0.19930048359E+04  0.50400000000E-02 0. -1.
         -1   -1    0    0    0  501 -0.00000000000E+00 -0.00000000000E+00 -0.12447266217E+04  0.12447266217E+04  0.50400000000E-02 0.  1.
    8880022    1    1    2    0    0 -0.93090545593E+03 -0.38336227930E+03  0.16091580574E+04  0.19042932841E+04  0.15294330000E+03 0.  0.
    8880022    1    1    2    0    0  0.93090545593E+03  0.38336227930E+03 -0.86087984325E+03  0.13334381735E+04  0.15294330000E+03 0.  0.
<mgrwt>
<rscale>  0 0.10183041E+04</rscale>
<asrwt>0</asrwt>
<pdfrwt beam="1">  1        1 0.30661613E+00 0.10183041E+04</pdfrwt>
<pdfrwt beam="2">  1       -1 0.19149640E+00 0.10183041E+04</pdfrwt>
<totfact> 0.52436279E-01</totfact>
</mgrwt>
</event>
<event>
 4    1  0.2731969E-009  0.7605063E+03  0.7818608E-02  0.9619010E-01
         -1   -1    0    0    0  501 -0.00000000000E+00  0.00000000000E+00  0.67449577666E+03  0.67449577668E+03  0.50400000000E-02 0.  1.
          1   -1    0    0  501    0  0.00000000000E+00 -0.00000000000E+00 -0.17029138720E+04  0.17029138720E+04  0.50400000000E-02 0. -1.
    8880022    1    1    2    0    0  0.14390898362E+03  0.73093664526E+03  0.32335165192E+03  0.82639344066E+03  0.15294330000E+03 0.  0.
    8880022    1    1    2    0    0 -0.14390898362E+03 -0.73093664526E+03 -0.13517697473E+04  0.15510162080E+04  0.15294330000E+03 0.  0.
<mgrwt>
<rscale>  0 0.76050630E+03</rscale>
<asrwt>0</asrwt>
<pdfrwt beam="1">  1        1 0.26198675E+00 0.76050630E+03</pdfrwt>
<pdfrwt beam="2">  1       -1 0.10376858E+00 0.76050630E+03</pdfrwt>
<totfact> 0.43333184E+00</totfact>
</mgrwt>
</event>
<event>
 4    1  0.2731969E-009  0.5621348E+03  0.7818608E-02  0.9987236E-01
          1   -1    0    0  501    0  0.00000000000E+00  0.00000000000E+00  0.82826336293E+03  0.82826336295E+03  0.50400000000E-02 0. -1.
         -1   -1    0    0    0  501 -0.00000000000E+00 -0.00000000000E+00 -0.76202674271E+03  0.76202674273E+03  0.50400000000E-02 0.  1.
    8880022    1    1    2    0    0  0.61824527888E+01 -0.54089341186E+03 -0.52876331614E+03  0.77174231660E+03  0.15294330000E+03 0.  0.
    8880022    1    1    2    0    0 -0.61824527888E+01  0.54089341186E+03  0.59499993636E+03  0.81854778908E+03  0.15294330000E+03 0.  0.
<mgrwt>
<rscale>  0 0.56213482E+03</rscale>
<asrwt>0</asrwt>
<pdfrwt beam="1">  1        1 0.12742513E+00 0.56213482E+03</pdfrwt>
<pdfrwt beam="2">  1       -1 0.11723488E+00 0.56213482E+03</pdfrwt>
<totfact> 0.14487042E+01</totfact>
</mgrwt>
</event>
<event>
 4    1  0.2731969E-009  0.1166775E+04  0.7818608E-02  0.9142446E-01
          1   -1    0    0  501    0  0.00000000000E+00  0.00000000000E+00  0.13582491111E+04  0.13582491111E+04  0.50400000000E-02 0. -1.
         -1   -1    0    0    0  501 -0.00000000000E+00 -0.00000000000E+00 -0.13987713765E+04  0.13987713765E+04  0.50400000000E-02 0.  1.
    8880022    1    1    2    0    0  0.11333290643E+03 -0.11511418243E+04  0.71365496434E+03  0.13677232573E+04  0.15294330000E+03 0.  0.
    8880022    1    1    2    0    0 -0.11333290643E+03  0.11511418243E+04 -0.75417722971E+03  0.13892972303E+04  0.15294330000E+03 0.  0.
<mgrwt>
<rscale>  0 0.11667748E+04</rscale>
<asrwt>0</asrwt>
<pdfrwt beam="1">  1        1 0.20896140E+00 0.11667748E+04</pdfrwt>
<pdfrwt beam="2">  1       -1 0.21519560E+00 0.11667748E+04</pdfrwt>
<totfact> 0.95923445E-01</totfact>
</mgrwt>
</event>
<event>
 4    1  0.2731969E-009  0.7887814E+03  0.7818608E-02  0.9576399E-01
         -1   -1    0    0    0  501 -0.00000000000E+00  0.00000000000E+00  0.90859618364E+03  0.90859618365E+03  0.50400000000E-02 0.  1.
          1   -1    0    0  501    0  0.00000000000E+00 -0.00000000000E+00 -0.96850087302E+03  0.96850087304E+03  0.50400000000E-02 0. -1.
    8880022    1    1    2    0    0 -0.74454216588E+03  0.21081122131E+03  0.47804663723E+03  0.92233651570E+03  0.15294330000E+03 0.  0.
    8880022    1    1    2    0    0  0.74454216588E+03 -0.21081122131E+03 -0.53795132662E+03  0.95476054099E+03  0.15294330000E+03 0.  0.
<mgrwt>
<rscale>  0 0.78878138E+03</rscale>
<asrwt>0</asrwt>
<pdfrwt beam="1">  1        1 0.14900013E+00 0.78878138E+03</pdfrwt>
<pdfrwt beam="2">  1       -1 0.13978403E+00 0.78878138E+03</pdfrwt>
<totfact> 0.69357315E+00</totfact>
</mgrwt>
</event>
<event>
 4    1  0.2731969E-009  0.3188578E+03  0.7818608E-02  0.1076176E+00
          1   -1    0    0  501    0  0.00000000000E+00  0.00000000000E+00  0.39462508823E+03  0.39462508826E+03  0.50400000000E-02 0. -1.
         -1   -1    0    0    0  501 -0.00000000000E+00 -0.00000000000E+00 -0.68513778966E+03  0.68513778968E+03  0.50400000000E-02 0.  1.
    8880022    1    1    2    0    0 -0.31150201976E+02 -0.27804374890E+03 -0.57171558452E+03  0.65462128287E+03  0.15294330000E+03 0.  0.
    8880022    1    1    2    0    0  0.31150201976E+02  0.27804374890E+03  0.28120288309E+03  0.42514159507E+03  0.15294330000E+03 0.  0.
<mgrwt>
<rscale>  0 0.31885783E+03</rscale>
<asrwt>0</asrwt>
<pdfrwt beam="1">  1        1 0.60711552E-01 0.31885783E+03</pdfrwt>
<pdfrwt beam="2">  1       -1 0.10540581E+00 0.31885783E+03</pdfrwt>
<totfact> 0.55344392E+01</totfact>
</mgrwt>
</event>
<event>
 4    1  0.2731969E-009  0.7584070E+03  0.7818608E-02  0.9622253E-01
          1   -1    0    0  501    0  0.00000000000E+00  0.00000000000E+00  0.24164137127E+04  0.24164137127E+04  0.50400000000E-02 0. -1.
         -1   -1    0    0    0  501 -0.00000000000E+00 -0.00000000000E+00 -0.50819361099E+03  0.50819361102E+03  0.50400000000E-02 0.  1.
    8880022    1    1    2    0    0 -0.66403013630E+03  0.33294662087E+03 -0.11208256684E+03  0.76664439545E+03  0.15294330000E+03 0.  0.
    8880022    1    1    2    0    0  0.66403013630E+03 -0.33294662087E+03  0.20203026685E+04  0.21579629283E+04  0.15294330000E+03 0.  0.
<mgrwt>
<rscale>  0 0.75840697E+03</rscale>
<asrwt>0</asrwt>
<pdfrwt beam="1">  1        1 0.37175596E+00 0.75840697E+03</pdfrwt>
<pdfrwt beam="2">  1       -1 0.78183631E-01 0.75840697E+03</pdfrwt>
<totfact> 0.26850965E+00</totfact>
</mgrwt>
</event>
<event>
 4    1  0.2731969E-009  0.4434358E+03  0.7818608E-02  0.1029698E+00
          1   -1    0    0  501    0  0.00000000000E+00  0.00000000000E+00  0.35018463877E+03  0.35018463881E+03  0.50400000000E-02 0. -1.
         -1   -1    0    0    0  501 -0.00000000000E+00 -0.00000000000E+00 -0.11246960687E+04  0.11246960687E+04  0.50400000000E-02 0.  1.
    8880022    1    1    2    0    0 -0.25673615063E+01 -0.41621760500E+03 -0.90908900364E+03  0.10114732600E+04  0.15294330000E+03 0.  0.
    8880022    1    1    2    0    0  0.25673615063E+01  0.41621760500E+03  0.13457757374E+03  0.46340744753E+03  0.15294330000E+03 0.  0.
<mgrwt>
<rscale>  0 0.44343583E+03</rscale>
<asrwt>0</asrwt>
<pdfrwt beam="1">  1        1 0.53874560E-01 0.44343583E+03</pdfrwt>
<pdfrwt beam="2">  1       -1 0.17303016E+00 0.44343583E+03</pdfrwt>
<totfact> 0.17925524E+01</totfact>
</mgrwt>
</event>
<event>
 4    1  0.2731969E-009  0.1235941E+04  0.7818608E-02  0.9081966E-01
         -1   -1    0    0    0  501 -0.00000000000E+00  0.00000000000E+00  0.92116467896E+03  0.92116467897E+03  0.50400000000E-02 0.  1.
          1   -1    0    0  501    0  0.00000000000E+00 -0.00000000000E+00 -0.44756014648E+04  0.44756014649E+04  0.50400000000E-02 0. -1.
    8880022    1    1    2    0    0  0.98150756461E+03 -0.73539243593E+03 -0.39181162601E+04  0.41084286309E+04  0.15294330000E+03 0.  0.
    8880022    1    1    2    0    0 -0.98150756461E+03  0.73539243593E+03  0.36367947425E+03  0.12883375129E+04  0.15294330000E+03 0.  0.
<mgrwt>
<rscale>  0 0.12359413E+04</rscale>
<asrwt>0</asrwt>
<pdfrwt beam="1">  1        1 0.68855406E+00 0.12359413E+04</pdfrwt>
<pdfrwt beam="2">  1       -1 0.14171765E+00 0.12359413E+04</pdfrwt>
<totfact> 0.14100367E-02</totfact>
</mgrwt>
</event>
<event>
 4    1  0.2731969E-009  0.1538662E+04  0.7818608E-02  0.8859143E-01
         -1   -1    0    0    0  501 -0.00000000000E+00  0.00000000000E+00  0.10135496915E+04  0.10135496915E+04  0.50400000000E-02 0.  1.
          1   -1    0    0  501    0  0.00000000000E+00 -0.00000000000E+00 -0.32176630621E+04  0.32176630621E+04  0.50400000000E-02 0. -1.
    8880022    1    1    2    0    0  0.14608792905E+04 -0.45817076104E+03  0.54787286476E+01  0.15386716405E+04  0.15294330000E+03 0.  0.
    8880022    1    1    2    0    0 -0.14608792905E+04  0.45817076104E+03 -0.22095920992E+04  0.26925411131E+04  0.15294330000E+03 0.  0.
<mgrwt>
<rscale>  0 0.15386619E+04</rscale>
<asrwt>0</asrwt>
<pdfrwt beam="1">  1        1 0.49502508E+00 0.15386619E+04</pdfrwt>
<pdfrwt beam="2">  1       -1 0.15593072E+00 0.15386619E+04</pdfrwt>
<totfact> 0.12270526E-01</totfact>
</mgrwt>
</event>
<event>
 4    1  0.2731969E-009  0.1518795E+04  0.7818608E-02  0.8872050E-01
         -1   -1    0    0    0  501 -0.00000000000E+00  0.00000000000E+00  0.10884178170E+04  0.10884178170E+04  0.50400000000E-02 0.  1.
          1   -1    0    0  501    0  0.00000000000E+00 -0.00000000000E+00 -0.28643233152E+04  0.28643233152E+04  0.50400000000E-02 0. -1.
    8880022    1    1    2    0    0  0.11715447423E+04  0.95437427081E+03  0.11997066352E+03  0.15235261550E+04  0.15294330000E+03 0.  0.
    8880022    1    1    2    0    0 -0.11715447423E+04 -0.95437427081E+03 -0.18958761617E+04  0.24292149772E+04  0.15294330000E+03 0.  0.
<mgrwt>
<rscale>  0 0.15187952E+04</rscale>
<asrwt>0</asrwt>
<pdfrwt beam="1">  1        1 0.44066512E+00 0.15187952E+04</pdfrwt>
<pdfrwt beam="2">  1       -1 0.16744890E+00 0.15187952E+04</pdfrwt>
<totfact> 0.18244072E-01</totfact>
</mgrwt>
</event>
<event>
 4    1  0.2731969E-009  0.8823883E+03  0.7818608E-02  0.9447869E-01
         -1   -1    0    0    0  501 -0.00000000000E+00  0.00000000000E+00  0.10630481019E+04  0.10630481019E+04  0.50400000000E-02 0.  1.
          1   -1    0    0  501    0  0.00000000000E+00 -0.00000000000E+00 -0.14920276108E+04  0.14920276108E+04  0.50400000000E-02 0. -1.
    8880022    1    1    2    0    0  0.51629498408E+03  0.69903998804E+03  0.69705278762E+03  0.11244961793E+04  0.15294330000E+03 0.  1.
    8880022    1    1    2    0    0 -0.51629498408E+03 -0.69903998804E+03 -0.11260322966E+04  0.14305795334E+04  0.15294330000E+03 0.  0.
<mgrwt>
<rscale>  0 0.88238828E+03</rscale>
<asrwt>0</asrwt>
<pdfrwt beam="1">  1        1 0.22954271E+00 0.88238828E+03</pdfrwt>
<pdfrwt beam="2">  1       -1 0.16354586E+00 0.88238828E+03</pdfrwt>
<totfact> 0.18635174E+00</totfact>
</mgrwt>
</event>
<event>
 4    1  0.2731969E-009  0.5293979E+03  0.7818608E-02  0.1006378E+00
          1   -1    0    0  501    0  0.00000000000E+00  0.00000000000E+00  0.72415342986E+03  0.72415342988E+03  0.50400000000E-02 0. -1.
         -1   -1    0    0    0  501 -0.00000000000E+00 -0.00000000000E+00 -0.55283369061E+03  0.55283369064E+03  0.50400000000E-02 0.  1.
    8880022    1    1    2    0    0 -0.45915256341E+03 -0.21459132670E+03  0.43533835229E+03  0.68540619196E+03  0.15294330000E+03 0. -1.
    8880022    1    1    2    0    0  0.45915256341E+03  0.21459132670E+03 -0.26401861305E+03  0.59158092856E+03  0.15294330000E+03 0.  0.
<mgrwt>
<rscale>  0 0.52939793E+03</rscale>
<asrwt>0</asrwt>
<pdfrwt beam="1">  1        1 0.11140822E+00 0.52939793E+03</pdfrwt>
<pdfrwt beam="2">  1       -1 0.85051337E-01 0.52939793E+03</pdfrwt>
<totfact> 0.37164392E+01</totfact>
</mgrwt>
</event>
<event>
 4    1  0.2731969E-009  0.9253309E+03  0.7818608E-02  0.9394459E-01
         -1   -1    0    0    0  501 -0.00000000000E+00  0.00000000000E+00  0.55274426554E+03  0.55274426557E+03  0.50400000000E-02 0.  1.
          1   -1    0    0  501    0  0.00000000000E+00 -0.00000000000E+00 -0.19662728002E+04  0.19662728002E+04  0.50400000000E-02 0. -1.
    8880022    1    1    2    0    0  0.70723856379E+03  0.57676619029E+03 -0.12659464621E+03  0.93395047076E+03  0.15294330000E+03 0.  0.
    8880022    1    1    2    0    0 -0.70723856379E+03 -0.57676619029E+03 -0.12869338884E+04  0.15850665950E+04  0.15294330000E+03 0.  0.
<mgrwt>
<rscale>  0 0.92533090E+03</rscale>
<asrwt>0</asrwt>
<pdfrwt beam="1">  1        1 0.30250350E+00 0.92533090E+03</pdfrwt>
<pdfrwt beam="2">  1       -1 0.85037580E-01 0.92533090E+03</pdfrwt>
<totfact> 0.43876184E+00</totfact>
</mgrwt>
</event>
<event>
 4    1  0.2731969E-009  0.1189935E+04  0.7818608E-02  0.9121712E-01
          1   -1    0    0  501    0  0.00000000000E+00  0.00000000000E+00  0.20112076590E+04  0.20112076590E+04  0.50400000000E-02 0. -1.
         -1   -1    0    0    0  501 -0.00000000000E+00 -0.00000000000E+00 -0.18200879182E+04  0.18200879182E+04  0.50400000000E-02 0.  1.
    8880022    1    1    2    0    0 -0.83431494848E+03 -0.83454974911E+03 -0.14045160786E+04  0.18408182379E+04  0.15294330000E+03 0.  0.
    8880022    1    1    2    0    0  0.83431494848E+03  0.83454974911E+03  0.15956358194E+04  0.19904773393E+04  0.15294330000E+03 0.  0.
<mgrwt>
<rscale>  0 0.11899354E+04</rscale>
<asrwt>0</asrwt>
<pdfrwt beam="1">  1        1 0.30941656E+00 0.11899354E+04</pdfrwt>
<pdfrwt beam="2">  1       -1 0.28001352E+00 0.11899354E+04</pdfrwt>
<totfact> 0.12850364E-01</totfact>
</mgrwt>
</event>
<event>
 4    1  0.2731969E-009  0.1104959E+04  0.7818608E-02  0.9200372E-01
          1   -1    0    0  501    0  0.00000000000E+00  0.00000000000E+00  0.34047733185E+04  0.34047733185E+04  0.50400000000E-02 0. -1.
         -1   -1    0    0    0  501 -0.00000000000E+00 -0.00000000000E+00 -0.93811545963E+03  0.93811545964E+03  0.50400000000E-02 0.  1.
    8880022    1    1    2    0    0  0.92727132059E+03  0.58112810952E+03  0.29400205944E+04  0.31408047902E+04  0.15294330000E+03 0.  0.
    8880022    1    1    2    0    0 -0.92727132059E+03 -0.58112810952E+03 -0.47336273552E+03  0.12020839879E+04  0.15294330000E+03 0.  0.
<mgrwt>
<rscale>  0 0.11049587E+04</rscale>
<asrwt>0</asrwt>
<pdfrwt beam="1">  1        1 0.52381128E+00 0.11049587E+04</pdfrwt>
<pdfrwt beam="2">  1       -1 0.14432546E+00 0.11049587E+04</pdfrwt>
<totfact> 0.11662289E-01</totfact>
</mgrwt>
</event>
<event>
 4    1  0.2731969E-009  0.5060198E+03  0.7818608E-02  0.1012220E+00
          1   -1    0    0  501    0  0.00000000000E+00  0.00000000000E+00  0.13955318417E+04  0.13955318417E+04  0.50400000000E-02 0. -1.
         -1   -1    0    0    0  501 -0.00000000000E+00 -0.00000000000E+00 -0.12038496052E+04  0.12038496052E+04  0.50400000000E-02 0.  1.
    8880022    1    1    2    0    0  0.28862886035E+03 -0.38646828923E+03 -0.11007122529E+04  0.12114551062E+04  0.15294330000E+03 0.  0.
    8880022    1    1    2    0    0 -0.28862886035E+03  0.38646828923E+03  0.12923944895E+04  0.13879263407E+04  0.15294330000E+03 0. -1.
<mgrwt>
<rscale>  0 0.50601977E+03</rscale>
<asrwt>0</asrwt>
<pdfrwt beam="1">  1        1 0.21469721E+00 0.50601977E+03</pdfrwt>
<pdfrwt beam="2">  1       -1 0.18520763E+00 0.50601977E+03</pdfrwt>
<totfact> 0.16423614E+00</totfact>
</mgrwt>
</event>
<event>
 4    1  0.2731969E-009  0.8945507E+03  0.7818608E-02  0.9432419E-01
          1   -1    0    0  501    0  0.00000000000E+00  0.00000000000E+00  0.82992088274E+03  0.82992088276E+03  0.50400000000E-02 0. -1.
         -1   -1    0    0    0  501 -0.00000000000E+00 -0.00000000000E+00 -0.19975331978E+04  0.19975331978E+04  0.50400000000E-02 0.  1.
    8880022    1    1    2    0    0 -0.83615162997E+02  0.87740399471E+03 -0.16006070441E+04  0.18336204155E+04  0.15294330000E+03 0.  0.
    8880022    1    1    2    0    0  0.83615162997E+02 -0.87740399471E+03  0.43299472906E+03  0.99383366507E+03  0.15294330000E+03 0.  0.
<mgrwt>
<rscale>  0 0.89455068E+03</rscale>
<asrwt>0</asrwt>
<pdfrwt beam="1">  1        1 0.12768014E+00 0.89455068E+03</pdfrwt>
<pdfrwt beam="2">  1       -1 0.30731280E+00 0.89455068E+03</pdfrwt>
<totfact> 0.63655505E-01</totfact>
</mgrwt>
</event>
<event>
 4    1  0.2731969E-009  0.5140112E+03  0.7818608E-02  0.1010185E+00
          1   -1    0    0  501    0  0.00000000000E+00  0.00000000000E+00  0.42874796861E+03  0.42874796864E+03  0.50400000000E-02 0. -1.
         -1   -1    0    0    0  501 -0.00000000000E+00 -0.00000000000E+00 -0.65554038645E+03  0.65554038647E+03  0.50400000000E-02 0.  1.
    8880022    1    1    2    0    0  0.75918860853E+01  0.49067114956E+03  0.19363827262E+02  0.51437576203E+03  0.15294330000E+03 0.  0.
    8880022    1    1    2    0    0 -0.75918860853E+01 -0.49067114956E+03 -0.24615624510E+03  0.56991259309E+03  0.15294330000E+03 0.  0.
<mgrwt>
<rscale>  0 0.51401115E+03</rscale>
<asrwt>0</asrwt>
<pdfrwt beam="1">  1        1 0.65961226E-01 0.51401115E+03</pdfrwt>
<pdfrwt beam="2">  1       -1 0.10085237E+00 0.51401115E+03</pdfrwt>
<totfact> 0.53363902E+01</totfact>
</mgrwt>
</event>
<event>
 4    1  0.2731969E-009  0.1333842E+04  0.7818608E-02  0.9003151E-01
         -1   -1    0    0    0  501 -0.00000000000E+00  0.00000000000E+00  0.13778825353E+04  0.13778825353E+04  0.50400000000E-02 0.  1.
          1   -1    0    0  501    0  0.00000000000E+00 -0.00000000000E+00 -0.17344285706E+04  0.17344285706E+04  0.50400000000E-02 0. -1.
    8880022    1    1    2    0    0 -0.38188558186E+03 -0.12688203797E+04  0.60838249473E+03  0.14660363796E+04  0.15294330000E+03 0.  0.
    8880022    1    1    2    0    0  0.38188558186E+03  0.12688203797E+04 -0.96492852998E+03  0.16462747263E+04  0.15294330000E+03 0.  0.
<mgrwt>
<rscale>  0 0.13338416E+04</rscale>
<asrwt>0</asrwt>
<pdfrwt beam="1">  1        1 0.26683516E+00 0.13338416E+04</pdfrwt>
<pdfrwt beam="2">  1       -1 0.21198193E+00 0.13338416E+04</pdfrwt>
<totfact> 0.54236089E-01</totfact>
</mgrwt>
</event>
<event>
 4    1  0.2731969E-009  0.7621330E+03  0.7818608E-02  0.9616506E-01
          1   -1    0    0  501    0  0.00000000000E+00  0.00000000000E+00  0.96528145929E+03  0.96528145930E+03  0.50400000000E-02 0. -1.
         -1   -1    0    0    0  501 -0.00000000000E+00 -0.00000000000E+00 -0.11196708503E+04  0.11196708503E+04  0.50400000000E-02 0.  1.
    8880022    1    1    2    0    0  0.74132547372E+03 -0.88834428196E+02  0.63182388323E+03  0.98997378049E+03  0.15294330000E+03 0.  0.
    8880022    1    1    2    0    0 -0.74132547372E+03  0.88834428196E+02 -0.78621327421E+03  0.10949785291E+04  0.15294330000E+03 0.  0.
<mgrwt>
<rscale>  0 0.76213297E+03</rscale>
<asrwt>0</asrwt>
<pdfrwt beam="1">  1        1 0.14850484E+00 0.76213297E+03</pdfrwt>
<pdfrwt beam="2">  1       -1 0.17225705E+00 0.76213297E+03</pdfrwt>
<totfact> 0.39549489E+00</totfact>
</mgrwt>
</event>
<event>
 4    1  0.2731969E-009  0.1030377E+04  0.7818608E-02  0.9275841E-01
          1   -1    0    0  501    0  0.00000000000E+00  0.00000000000E+00  0.32212432190E+04  0.32212432190E+04  0.50400000000E-02 0. -1.
         -1   -1    0    0    0  501 -0.00000000000E+00 -0.00000000000E+00 -0.98134342272E+03  0.98134342274E+03  0.50400000000E-02 0.  1.
    8880022    1    1    2    0    0 -0.14726450361E+03  0.10082653375E+04  0.28324045565E+04  0.30139995105E+04  0.15294330000E+03 0.  0.
    8880022    1    1    2    0    0  0.14726450361E+03 -0.10082653375E+04 -0.59250476016E+03  0.11885871313E+04  0.15294330000E+03 0.  0.
<mgrwt>
<rscale>  0 0.10303773E+04</rscale>
<asrwt>0</asrwt>
<pdfrwt beam="1">  1        1 0.49557588E+00 0.10303773E+04</pdfrwt>
<pdfrwt beam="2">  1       -1 0.15097591E+00 0.10303773E+04</pdfrwt>
<totfact> 0.14419464E-01</totfact>
</mgrwt>
</event>
<event>
 4    1  0.2731969E-009  0.3157556E+03  0.7818608E-02  0.1077619E+00
         -1   -1    0    0    0  501 -0.00000000000E+00  0.00000000000E+00  0.15007918791E+03  0.15007918799E+03  0.50400000000E-02 0.  1.
          1   -1    0    0  501    0  0.00000000000E+00 -0.00000000000E+00 -0.15107170813E+04  0.15107170814E+04  0.50400000000E-02 0. -1.
    8880022    1    1    2    0    0 -0.21556086645E+03 -0.17275250828E+03 -0.13018748953E+04  0.13396192788E+04  0.15294330000E+03 0.  0.
    8880022    1    1    2    0    0  0.21556086645E+03  0.17275250828E+03 -0.58762998161E+02  0.32117699051E+03  0.15294330000E+03 0.  0.
<mgrwt>
<rscale>  0 0.31575555E+03</rscale>
<asrwt>0</asrwt>
<pdfrwt beam="1">  1        1 0.23241800E+00 0.31575555E+03</pdfrwt>
<pdfrwt beam="2">  1       -1 0.23089107E-01 0.31575555E+03</pdfrwt>
<totfact> 0.11184592E+02</totfact>
</mgrwt>
</event>
<event>
 4    1  0.2731969E-009  0.5684514E+03  0.7818608E-02  0.9973111E-01
         -1   -1    0    0    0  501 -0.00000000000E+00  0.00000000000E+00  0.12971918610E+04  0.12971918610E+04  0.50400000000E-02 0.  1.
          1   -1    0    0  501    0  0.00000000000E+00 -0.00000000000E+00 -0.12104614162E+04  0.12104614162E+04  0.50400000000E-02 0. -1.
    8880022    1    1    2    0    0 -0.24958071788E+02 -0.54692089982E+03 -0.10740233436E+04  0.12151803041E+04  0.15294330000E+03 0.  0.
    8880022    1    1    2    0    0  0.24958071788E+02  0.54692089982E+03  0.11607537884E+04  0.12924729731E+04  0.15294330000E+03 0.  0.
<mgrwt>
<rscale>  0 0.56845143E+03</rscale>
<asrwt>0</asrwt>
<pdfrwt beam="1">  1        1 0.18622483E+00 0.56845143E+03</pdfrwt>
<pdfrwt beam="2">  1       -1 0.19956798E+00 0.56845143E+03</pdfrwt>
<totfact> 0.17324632E+00</totfact>
</mgrwt>
</event>
<event>
 4    1  0.2731969E-009  0.4216630E+03  0.7818608E-02  0.1036526E+00
          1   -1    0    0  501    0  0.00000000000E+00  0.00000000000E+00  0.31635361628E+04  0.31635361628E+04  0.50400000000E-02 0. -1.
         -1   -1    0    0    0  501 -0.00000000000E+00 -0.00000000000E+00 -0.36847226398E+03  0.36847226402E+03  0.50400000000E-02 0.  1.
    8880022    1    1    2    0    0  0.31660690944E+03  0.23274041145E+03 -0.22821920697E+03  0.47946187927E+03  0.15294330000E+03 0.  0.
    8880022    1    1    2    0    0 -0.31660690944E+03 -0.23274041145E+03  0.30232831058E+04  0.30525465475E+04  0.15294330000E+03 0. -1.
<mgrwt>
<rscale>  0 0.42166300E+03</rscale>
<asrwt>0</asrwt>
<pdfrwt beam="1">  1        1 0.48669789E+00 0.42166300E+03</pdfrwt>
<pdfrwt beam="2">  1       -1 0.56688039E-01 0.42166300E+03</pdfrwt>
<totfact> 0.16935210E+00</totfact>
</mgrwt>
</event>
<event>
 4    1  0.2731969E-009  0.9394072E+03  0.7818608E-02  0.9377618E-01
         -1   -1    0    0    0  501 -0.00000000000E+00  0.00000000000E+00  0.59891074310E+03  0.59891074312E+03  0.50400000000E-02 0.  1.
          1   -1    0    0  501    0  0.00000000000E+00 -0.00000000000E+00 -0.16459070568E+04  0.16459070568E+04  0.50400000000E-02 0. -1.
    8880022    1    1    2    0    0  0.92457009545E+03  0.65302259986E+02 -0.88678114594E+03  0.12918462371E+04  0.15294330000E+03 0.  0.
    8880022    1    1    2    0    0 -0.92457009545E+03 -0.65302259986E+02 -0.16021516778E+03  0.95297156283E+03  0.15294330000E+03 0.  0.
<mgrwt>
<rscale>  0 0.93940721E+03</rscale>
<asrwt>0</asrwt>
<pdfrwt beam="1">  1        1 0.25321647E+00 0.93940721E+03</pdfrwt>
<pdfrwt beam="2">  1       -1 0.92140115E-01 0.93940721E+03</pdfrwt>
<totfact> 0.60382139E+00</totfact>
</mgrwt>
</event>
<event>
 4    1  0.2731969E-009  0.3044922E+03  0.7818608E-02  0.1083016E+00
          1   -1    0    0  501    0  0.00000000000E+00  0.00000000000E+00  0.26713854241E+04  0.26713854241E+04  0.50400000000E-02 0. -1.
         -1   -1    0    0    0  501 -0.00000000000E+00 -0.00000000000E+00 -0.37809017135E+03  0.37809017139E+03  0.50400000000E-02 0.  1.
    8880022    1    1    2    0    0  0.26208724359E+03  0.25181311154E+02 -0.30642408192E+03  0.43198517646E+03  0.15294330000E+03 0.  0.
    8880022    1    1    2    0    0 -0.26208724359E+03 -0.25181311154E+02  0.25997193346E+04  0.26174904190E+04  0.15294330000E+03 0. -1.
<mgrwt>
<rscale>  0 0.30449216E+03</rscale>
<asrwt>0</asrwt>
<pdfrwt beam="1">  1        1 0.41098239E+00 0.30449216E+03</pdfrwt>
<pdfrwt beam="2">  1       -1 0.58167717E-01 0.30449216E+03</pdfrwt>
<totfact> 0.37504354E+00</totfact>
</mgrwt>
</event>
<event>
 4    1  0.2731969E-009  0.3241012E+03  0.7818608E-02  0.1073777E+00
          1   -1    0    0  501    0  0.00000000000E+00  0.00000000000E+00  0.13669928788E+04  0.13669928788E+04  0.50400000000E-02 0. -1.
         -1   -1    0    0    0  501 -0.00000000000E+00 -0.00000000000E+00 -0.17540071629E+03  0.17540071636E+03  0.50400000000E-02 0.  1.
    8880022    1    1    2    0    0  0.27933753608E+03 -0.60170408789E+02  0.11738900897E+04  0.12178093172E+04  0.15294330000E+03 0. -1.
    8880022    1    1    2    0    0 -0.27933753608E+03  0.60170408789E+02  0.17702072802E+02  0.32458427805E+03  0.15294330000E+03 0.  0.
<mgrwt>
<rscale>  0 0.32410120E+03</rscale>
<asrwt>0</asrwt>
<pdfrwt beam="1">  1        1 0.21030659E+00 0.32410120E+03</pdfrwt>
<pdfrwt beam="2">  1       -1 0.26984726E-01 0.32410120E+03</pdfrwt>
<totfact> 0.10742588E+02</totfact>
</mgrwt>
</event>
<event>
 4    1  0.2731969E-009  0.3845587E+03  0.7818608E-02  0.1049262E+00
          1   -1    0    0  501    0  0.00000000000E+00  0.00000000000E+00  0.12413529370E+04  0.12413529370E+04  0.50400000000E-02 0. -1.
         -1   -1    0    0    0  501 -0.00000000000E+00 -0.00000000000E+00 -0.10055781295E+04  0.10055781295E+04  0.50400000000E-02 0.  1.
    8880022    1    1    2    0    0 -0.35282384702E+03  0.30078820428E+01  0.11727063387E+04  0.12341497171E+04  0.15294330000E+03 0.  0.
    8880022    1    1    2    0    0  0.35282384702E+03 -0.30078820428E+01 -0.93693153122E+03  0.10127813493E+04  0.15294330000E+03 0.  0.
<mgrwt>
<rscale>  0 0.38455867E+03</rscale>
<asrwt>0</asrwt>
<pdfrwt beam="1">  1        1 0.19097737E+00 0.38455867E+03</pdfrwt>
<pdfrwt beam="2">  1       -1 0.15470433E+00 0.38455867E+03</pdfrwt>
<totfact> 0.36352188E+00</totfact>
</mgrwt>
</event>
<event>
 4    1  0.2731969E-009  0.2455018E+03  0.7818608E-02  0.1116181E+00
         -1   -1    0    0    0  501 -0.00000000000E+00  0.00000000000E+00  0.83187579338E+03  0.83187579340E+03  0.50400000000E-02 0.  1.
          1   -1    0    0  501    0  0.00000000000E+00 -0.00000000000E+00 -0.45607000228E+03  0.45607000230E+03  0.50400000000E-02 0. -1.
    8880022    1    1    2    0    0  0.27752379787E+02  0.19002445100E+03  0.77851354716E+03  0.81630538568E+03  0.15294330000E+03 0.  0.
    8880022    1    1    2    0    0 -0.27752379787E+02 -0.19002445100E+03 -0.40270775606E+03  0.47164041002E+03  0.15294330000E+03 0. -1.
<mgrwt>
<rscale>  0 0.24550181E+03</rscale>
<asrwt>0</asrwt>
<pdfrwt beam="1">  1        1 0.70164616E-01 0.24550181E+03</pdfrwt>
<pdfrwt beam="2">  1       -1 0.12798089E+00 0.24550181E+03</pdfrwt>
<totfact> 0.29509923E+01</totfact>
</mgrwt>
</event>
<event>
 4    1  0.2731969E-009  0.1490781E+04  0.7818608E-02  0.8890607E-01
          1   -1    0    0  501    0  0.00000000000E+00  0.00000000000E+00  0.37859284414E+04  0.37859284414E+04  0.50400000000E-02 0. -1.
         -1   -1    0    0    0  501 -0.00000000000E+00 -0.00000000000E+00 -0.11712147389E+04  0.11712147389E+04  0.50400000000E-02 0.  1.
    8880022    1    1    2    0    0  0.61262933272E+03  0.13504525488E+04 -0.44313774431E+03  0.15552490153E+04  0.15294330000E+03 0.  0.
    8880022    1    1    2    0    0 -0.61262933272E+03 -0.13504525488E+04  0.30578514469E+04  0.34018941651E+04  0.15294330000E+03 0.  0.
<mgrwt>
<rscale>  0 0.14907812E+04</rscale>
<asrwt>0</asrwt>
<pdfrwt beam="1">  1        1 0.58245053E+00 0.14907812E+04</pdfrwt>
<pdfrwt beam="2">  1       -1 0.18018688E+00 0.14907812E+04</pdfrwt>
<totfact> 0.29099087E-02</totfact>
</mgrwt>
</event>
<event>
 4    1  0.2731969E-009  0.1866561E+04  0.7818608E-02  0.8671683E-01
          1   -1    0    0  501    0  0.00000000000E+00  0.00000000000E+00  0.24838760812E+04  0.24838760812E+04  0.50400000000E-02 0. -1.
         -1   -1    0    0    0  501 -0.00000000000E+00 -0.00000000000E+00 -0.17446950275E+04  0.17446950275E+04  0.50400000000E-02 0.  1.
    8880022    1    1    2    0    0  0.98277301997E+03 -0.15794980621E+04  0.13057187689E+04  0.22779267094E+04  0.15294330000E+03 0.  0.
    8880022    1    1    2    0    0 -0.98277301997E+03  0.15794980621E+04 -0.56653771515E+03  0.19506443993E+04  0.15294330000E+03 0.  0.
<mgrwt>
<rscale>  0 0.18665606E+04</rscale>
<asrwt>0</asrwt>
<pdfrwt beam="1">  1        1 0.38213478E+00 0.18665606E+04</pdfrwt>
<pdfrwt beam="2">  1       -1 0.26841462E+00 0.18665606E+04</pdfrwt>
<totfact> 0.66373849E-02</totfact>
</mgrwt>
</event>
<event>
 4    1  0.2731969E-009  0.6897747E+03  0.7818608E-02  0.9734880E-01
         -1   -1    0    0    0  501 -0.00000000000E+00  0.00000000000E+00  0.65961412819E+03  0.65961412820E+03  0.50400000000E-02 0.  1.
          1   -1    0    0  501    0  0.00000000000E+00 -0.00000000000E+00 -0.12029224933E+04  0.12029224933E+04  0.50400000000E-02 0. -1.
    8880022    1    1    2    0    0  0.64162683176E+03  0.20177345499E+03 -0.86090865681E+03  0.11031558760E+04  0.15294330000E+03 0.  0.
    8880022    1    1    2    0    0 -0.64162683176E+03 -0.20177345499E+03  0.31760029168E+03  0.75938074552E+03  0.15294330000E+03 0.  0.
<mgrwt>
<rscale>  0 0.68977473E+03</rscale>
<asrwt>0</asrwt>
<pdfrwt beam="1">  1        1 0.18506500E+00 0.68977473E+03</pdfrwt>
<pdfrwt beam="2">  1       -1 0.10147910E+00 0.68977473E+03</pdfrwt>
<totfact> 0.10228426E+01</totfact>
</mgrwt>
</event>
<event>
 4    1  0.2731969E-009  0.3351548E+03  0.7818608E-02  0.1068879E+00
         -1   -1    0    0    0  501 -0.00000000000E+00  0.00000000000E+00  0.57105521033E+03  0.57105521035E+03  0.50400000000E-02 0.  1.
          1   -1    0    0  501    0  0.00000000000E+00 -0.00000000000E+00 -0.70210494822E+03  0.70210494824E+03  0.50400000000E-02 0. -1.
    8880022    1    1    2    0    0  0.81779148129E+02  0.28679130813E+03  0.47457010302E+03  0.58098667729E+03  0.15294330000E+03 0.  0.
    8880022    1    1    2    0    0 -0.81779148129E+02 -0.28679130813E+03 -0.60561984092E+03  0.69217348130E+03  0.15294330000E+03 0.  0.
<mgrwt>
<rscale>  0 0.33515479E+03</rscale>
<asrwt>0</asrwt>
<pdfrwt beam="1">  1        1 0.10801615E+00 0.33515479E+03</pdfrwt>
<pdfrwt beam="2">  1       -1 0.87854648E-01 0.33515479E+03</pdfrwt>
<totfact> 0.37566846E+01</totfact>
</mgrwt>
</event>
<event>
 4    1  0.2731969E-009  0.5195323E+03  0.7818608E-02  0.1008803E+00
         -1   -1    0    0    0  501 -0.00000000000E+00  0.00000000000E+00  0.25215930411E+03  0.25215930416E+03  0.50400000000E-02 0.  1.
          1   -1    0    0  501    0  0.00000000000E+00 -0.00000000000E+00 -0.17790160045E+04  0.17790160045E+04  0.50400000000E-02 0. -1.
    8880022    1    1    2    0    0 -0.16217716163E+03  0.46927683177E+03 -0.12246984779E+03  0.53377213605E+03  0.15294330000E+03 0.  0.
    8880022    1    1    2    0    0  0.16217716163E+03 -0.46927683177E+03 -0.14043868526E+04  0.14974031726E+04  0.15294330000E+03 0. -1.
<mgrwt>
<rscale>  0 0.51953232E+03</rscale>
<asrwt>0</asrwt>
<pdfrwt beam="1">  1        1 0.27369476E+00 0.51953232E+03</pdfrwt>
<pdfrwt beam="2">  1       -1 0.38793740E-01 0.51953232E+03</pdfrwt>
<totfact> 0.29100027E+01</totfact>
</mgrwt>
</event>
<event>
 4    1  0.2731969E-009  0.1246479E+04  0.7818608E-02  0.9073119E-01
          1   -1    0    0  501    0  0.00000000000E+00  0.00000000000E+00  0.25242417006E+04  0.25242417006E+04  0.50400000000E-02 0. -1.
         -1   -1    0    0    0  501 -0.00000000000E+00 -0.00000000000E+00 -0.11735240341E+04  0.11735240341E+04  0.50400000000E-02 0.  1.
    8880022    1    1    2    0    0  0.10603670621E+04  0.63713437406E+03 -0.59956365462E+03  0.13831799398E+04  0.15294330000E+03 0.  0.
    8880022    1    1    2    0    0 -0.10603670621E+04 -0.63713437406E+03  0.19502813212E+04  0.23145857949E+04  0.15294330000E+03 0.  0.
<mgrwt>
<rscale>  0 0.12464791E+04</rscale>
<asrwt>0</asrwt>
<pdfrwt beam="1">  1        1 0.38834487E+00 0.12464791E+04</pdfrwt>
<pdfrwt beam="2">  1       -1 0.18054216E+00 0.12464791E+04</pdfrwt>
<totfact> 0.26320206E-01</totfact>
</mgrwt>
</event>
<event>
 4    1  0.2731969E-009  0.1141695E+04  0.7818608E-02  0.9165480E-01
          1   -1    0    0  501    0  0.00000000000E+00  0.00000000000E+00  0.29173867251E+04  0.29173867251E+04  0.50400000000E-02 0. -1.
         -1   -1    0    0    0  501 -0.00000000000E+00 -0.00000000000E+00 -0.11087813305E+04  0.11087813305E+04  0.50400000000E-02 0.  1.
    8880022    1    1    2    0    0 -0.31590864149E+02  0.11309633504E+04 -0.65117627186E+03  0.13143432857E+04  0.15294330000E+03 0.  0.
    8880022    1    1    2    0    0  0.31590864149E+02 -0.11309633504E+04  0.24597816665E+04  0.27118247699E+04  0.15294330000E+03 0.  0.
<mgrwt>
<rscale>  0 0.11416951E+04</rscale>
<asrwt>0</asrwt>
<pdfrwt beam="1">  1        1 0.44882872E+00 0.11416951E+04</pdfrwt>
<pdfrwt beam="2">  1       -1 0.17058175E+00 0.11416951E+04</pdfrwt>
<totfact> 0.16731713E-01</totfact>
</mgrwt>
</event>
<event>
 4    1  0.2731969E-009  0.9768265E+03  0.7818608E-02  0.9334333E-01
          1   -1    0    0  501    0  0.00000000000E+00  0.00000000000E+00  0.11567089682E+04  0.11567089683E+04  0.50400000000E-02 0. -1.
         -1   -1    0    0    0  501 -0.00000000000E+00 -0.00000000000E+00 -0.18602654930E+04  0.18602654930E+04  0.50400000000E-02 0.  1.
    8880022    1    1    2    0    0  0.15561050823E+03  0.95214687183E+03  0.77359672774E+03  0.12460504990E+04  0.15294330000E+03 0.  0.
    8880022    1    1    2    0    0 -0.15561050823E+03 -0.95214687183E+03 -0.14771532525E+04  0.17709239623E+04  0.15294330000E+03 0.  0.
<mgrwt>
<rscale>  0 0.97682647E+03</rscale>
<asrwt>0</asrwt>
<pdfrwt beam="1">  1        1 0.17795523E+00 0.97682647E+03</pdfrwt>
<pdfrwt beam="2">  1       -1 0.28619469E+00 0.97682647E+03</pdfrwt>
<totfact> 0.47452776E-01</totfact>
</mgrwt>
</event>
<event>
 4    1  0.2731969E-009  0.9739415E+03  0.7818608E-02  0.9337596E-01
         -1   -1    0    0    0  501 -0.00000000000E+00  0.00000000000E+00  0.13815521458E+04  0.13815521458E+04  0.50400000000E-02 0.  1.
          1   -1    0    0  501    0  0.00000000000E+00 -0.00000000000E+00 -0.15905320328E+04  0.15905320329E+04  0.50400000000E-02 0. -1.
    8880022    1    1    2    0    0 -0.73884143584E+03 -0.61586015089E+03 -0.12247782828E+04  0.15648143301E+04  0.15294330000E+03 0.  0.
    8880022    1    1    2    0    0  0.73884143584E+03  0.61586015089E+03  0.10157983958E+04  0.14072698485E+04  0.15294330000E+03 0.  0.
<mgrwt>
<rscale>  0 0.97394150E+03</rscale>
<asrwt>0</asrwt>
<pdfrwt beam="1">  1        1 0.24469723E+00 0.97394150E+03</pdfrwt>
<pdfrwt beam="2">  1       -1 0.21254649E+00 0.97394150E+03</pdfrwt>
<totfact> 0.70899480E-01</totfact>
</mgrwt>
</event>
<event>
 4    1  0.2731969E-009  0.1043656E+04  0.7818608E-02  0.9261919E-01
         -1   -1    0    0    0  501 -0.00000000000E+00  0.00000000000E+00  0.16327591409E+04  0.16327591409E+04  0.50400000000E-02 0.  1.
          1   -1    0    0  501    0  0.00000000000E+00 -0.00000000000E+00 -0.98250075566E+03  0.98250075567E+03  0.50400000000E-02 0. -1.
    8880022    1    1    2    0    0  0.69283547873E+03  0.76537892246E+03  0.10660096195E+04  0.14918425042E+04  0.15294330000E+03 0.  0.
    8880022    1    1    2    0    0 -0.69283547873E+03 -0.76537892246E+03 -0.41575123430E+03  0.11234173923E+04  0.15294330000E+03 0.  0.
<mgrwt>
<rscale>  0 0.10436559E+04</rscale>
<asrwt>0</asrwt>
<pdfrwt beam="1">  1        1 0.15115396E+00 0.10436559E+04</pdfrwt>
<pdfrwt beam="2">  1       -1 0.25119371E+00 0.10436559E+04</pdfrwt>
<totfact> 0.10717243E+00</totfact>
</mgrwt>
</event>
<event>
 4    1  0.2731969E-009  0.2119893E+04  0.7818608E-02  0.8552531E-01
          1   -1    0    0  501    0  0.00000000000E+00  0.00000000000E+00  0.13983408889E+04  0.13983408889E+04  0.50400000000E-02 0. -1.
         -1   -1    0    0    0  501 -0.00000000000E+00 -0.00000000000E+00 -0.42240034858E+04  0.42240034858E+04  0.50400000000E-02 0.  1.
    8880022    1    1    2    0    0 -0.18597536806E+04 -0.10059169004E+04 -0.27876216242E+04  0.35021105830E+04  0.15294330000E+03 0.  0.
    8880022    1    1    2    0    0  0.18597536806E+04  0.10059169004E+04 -0.38040972683E+02  0.21202337917E+04  0.15294330000E+03 0.  0.
<mgrwt>
<rscale>  0 0.21198925E+04</rscale>
<asrwt>0</asrwt>
<pdfrwt beam="1">  1        1 0.21512937E+00 0.21198925E+04</pdfrwt>
<pdfrwt beam="2">  1       -1 0.64984669E+00 0.21198925E+04</pdfrwt>
<totfact> 0.19370933E-03</totfact>
</mgrwt>
</event>
<event>
 4    1  0.2731969E-009  0.6052665E+03  0.7818608E-02  0.9894540E-01
         -1   -1    0    0    0  501 -0.00000000000E+00  0.00000000000E+00  0.63020574915E+03  0.63020574917E+03  0.50400000000E-02 0.  1.
          1   -1    0    0  501    0  0.00000000000E+00 -0.00000000000E+00 -0.97734166406E+03  0.97734166407E+03  0.50400000000E-02 0. -1.
    8880022    1    1    2    0    0 -0.57758015518E+03 -0.96731947276E+02 -0.68521825931E+03  0.91426014962E+03  0.15294330000E+03 0.  0.
    8880022    1    1    2    0    0  0.57758015518E+03  0.96731947276E+02  0.33808234441E+03  0.69328726362E+03  0.15294330000E+03 0.  0.
<mgrwt>
<rscale>  0 0.60526652E+03</rscale>
<asrwt>0</asrwt>
<pdfrwt beam="1">  1        1 0.15036026E+00 0.60526652E+03</pdfrwt>
<pdfrwt beam="2">  1       -1 0.96954730E-01 0.60526652E+03</pdfrwt>
<totfact> 0.16941295E+01</totfact>
</mgrwt>
</event>
<event>
 4    1  0.2731969E-009  0.4971249E+03  0.7818608E-02  0.1014532E+00
          1   -1    0    0  501    0  0.00000000000E+00  0.00000000000E+00  0.12462970817E+04  0.12462970818E+04  0.50400000000E-02 0. -1.
         -1   -1    0    0    0  501 -0.00000000000E+00 -0.00000000000E+00 -0.29162673426E+03  0.29162673430E+03  0.50400000000E-02 0.  1.
    8880022    1    1    2    0    0 -0.45366994883E+03  0.13388478906E+03  0.91235414178E+03  0.10390011031E+04  0.15294330000E+03 0.  0.
    8880022    1    1    2    0    0  0.45366994883E+03 -0.13388478906E+03  0.42316205707E+02  0.49892271295E+03  0.15294330000E+03 0.  0.
<mgrwt>
<rscale>  0 0.49712495E+03</rscale>
<asrwt>0</asrwt>
<pdfrwt beam="1">  1        1 0.19173801E+00 0.49712495E+03</pdfrwt>
<pdfrwt beam="2">  1       -1 0.44865651E-01 0.49712495E+03</pdfrwt>
<totfact> 0.51586544E+01</totfact>
</mgrwt>
</event>
<event>
 4    1  0.2731969E-009  0.7798120E+03  0.7818608E-02  0.9589707E-01
          1   -1    0    0  501    0  0.00000000000E+00  0.00000000000E+00  0.14977838968E+04  0.14977838968E+04  0.50400000000E-02 0. -1.
         -1   -1    0    0    0  501 -0.00000000000E+00 -0.00000000000E+00 -0.49155129377E+03  0.49155129379E+03  0.50400000000E-02 0.  1.
    8880022    1    1    2    0    0 -0.64714719841E+03 -0.40732741945E+03  0.88166272282E+02  0.78478026710E+03  0.15294330000E+03 0.  0.
    8880022    1    1    2    0    0  0.64714719841E+03  0.40732741945E+03  0.91806633071E+03  0.12045549235E+04  0.15294330000E+03 0.  0.
<mgrwt>
<rscale>  0 0.77981201E+03</rscale>
<asrwt>0</asrwt>
<pdfrwt beam="1">  1        1 0.23042829E+00 0.77981201E+03</pdfrwt>
<pdfrwt beam="2">  1       -1 0.75623277E-01 0.77981201E+03</pdfrwt>
<totfact> 0.11917512E+01</totfact>
</mgrwt>
</event>
<event>
 4    1  0.2731969E-009  0.3417450E+03  0.7818608E-02  0.1066055E+00
         -1   -1    0    0    0  501 -0.00000000000E+00  0.00000000000E+00  0.33553360180E+03  0.33553360183E+03  0.50400000000E-02 0.  1.
          1   -1    0    0  501    0  0.00000000000E+00 -0.00000000000E+00 -0.17362000391E+04  0.17362000391E+04  0.50400000000E-02 0. -1.
    8880022    1    1    2    0    0 -0.12863804324E+03 -0.27721876994E+03  0.22589690466E+03  0.40965724347E+03  0.15294330000E+03 0.  0.
    8880022    1    1    2    0    0  0.12863804324E+03  0.27721876994E+03 -0.16265633419E+04  0.16620763975E+04  0.15294330000E+03 0. -1.
<mgrwt>
<rscale>  0 0.34174500E+03</rscale>
<asrwt>0</asrwt>
<pdfrwt beam="1">  1        1 0.26710769E+00 0.34174500E+03</pdfrwt>
<pdfrwt beam="2">  1       -1 0.51620555E-01 0.34174500E+03</pdfrwt>
<totfact> 0.19196867E+01</totfact>
</mgrwt>
</event>
<event>
 4    1  0.2731969E-009  0.1285532E+04  0.7818608E-02  0.9041118E-01
         -1   -1    0    0    0  501 -0.00000000000E+00  0.00000000000E+00  0.79557536406E+03  0.79557536408E+03  0.50400000000E-02 0.  1.
          1   -1    0    0  501    0  0.00000000000E+00 -0.00000000000E+00 -0.21548600112E+04  0.21548600112E+04  0.50400000000E-02 0. -1.
    8880022    1    1    2    0    0 -0.72178930077E+03 -0.10527208318E+04 -0.95964544173E+03  0.16042169339E+04  0.15294330000E+03 0.  0.
    8880022    1    1    2    0    0  0.72178930077E+03  0.10527208318E+04 -0.39963920544E+03  0.13462184414E+04  0.15294330000E+03 0.  0.
<mgrwt>
<rscale>  0 0.12855320E+04</rscale>
<asrwt>0</asrwt>
<pdfrwt beam="1">  1        1 0.33151692E+00 0.12855320E+04</pdfrwt>
<pdfrwt beam="2">  1       -1 0.12239621E+00 0.12855320E+04</pdfrwt>
<totfact> 0.13448685E+00</totfact>
</mgrwt>
</event>
<event>
 4    1  0.2731969E-009  0.4424849E+03  0.7818608E-02  0.1029987E+00
         -1   -1    0    0    0  501 -0.00000000000E+00  0.00000000000E+00  0.68571999017E+03  0.68571999019E+03  0.50400000000E-02 0.  1.
          1   -1    0    0  501    0  0.00000000000E+00 -0.00000000000E+00 -0.15716869222E+04  0.15716869222E+04  0.50400000000E-02 0. -1.
    8880022    1    1    2    0    0 -0.55518619717E+02 -0.41148379609E+03 -0.14640263858E+04  0.15294332751E+04  0.15294330000E+03 0.  0.
    8880022    1    1    2    0    0  0.55518619717E+02  0.41148379609E+03  0.57805945375E+03  0.72797363734E+03  0.15294330000E+03 0.  0.
<mgrwt>
<rscale>  0 0.44248490E+03</rscale>
<asrwt>0</asrwt>
<pdfrwt beam="1">  1        1 0.24179799E+00 0.44248490E+03</pdfrwt>
<pdfrwt beam="2">  1       -1 0.10549538E+00 0.44248490E+03</pdfrwt>
<totfact> 0.54818284E+00</totfact>
</mgrwt>
</event>
<event>
 4    1  0.2731969E-009  0.8836423E+03  0.7818608E-02  0.9446263E-01
         -1   -1    0    0    0  501 -0.00000000000E+00  0.00000000000E+00  0.11134490245E+04  0.11134490245E+04  0.50400000000E-02 0.  1.
          1   -1    0    0  501    0  0.00000000000E+00 -0.00000000000E+00 -0.99300008105E+03  0.99300008106E+03  0.50400000000E-02 0. -1.
    8880022    1    1    2    0    0  0.44490942759E+03 -0.74798912014E+03  0.63109816279E+03  0.10858677022E+04  0.15294330000E+03 0.  0.
    8880022    1    1    2    0    0 -0.44490942759E+03  0.74798912014E+03 -0.51064921935E+03  0.10205814033E+04  0.15294330000E+03 0.  0.
<mgrwt>
<rscale>  0 0.88364233E+03</rscale>
<asrwt>0</asrwt>
<pdfrwt beam="1">  1        1 0.15276924E+00 0.88364233E+03</pdfrwt>
<pdfrwt beam="2">  1       -1 0.17129985E+00 0.88364233E+03</pdfrwt>
<totfact> 0.37550201E+00</totfact>
</mgrwt>
</event>
<event>
 4    1  0.2731969E-009  0.1058558E+04  0.7818608E-02  0.9246553E-01
          1   -1    0    0  501    0  0.00000000000E+00  0.00000000000E+00  0.24794553402E+04  0.24794553402E+04  0.50400000000E-02 0. -1.
         -1   -1    0    0    0  501 -0.00000000000E+00 -0.00000000000E+00 -0.75412765547E+03  0.75412765549E+03  0.50400000000E-02 0.  1.
    8880022    1    1    2    0    0 -0.72894705214E+03  0.75218972485E+03  0.18861354483E+04  0.21628804334E+04  0.15294330000E+03 0.  0.
    8880022    1    1    2    0    0  0.72894705214E+03 -0.75218972485E+03 -0.16080776357E+03  0.10707025623E+04  0.15294330000E+03 0.  0.
<mgrwt>
<rscale>  0 0.10585579E+04</rscale>
<asrwt>0</asrwt>
<pdfrwt beam="1">  1        1 0.38145468E+00 0.10585579E+04</pdfrwt>
<pdfrwt beam="2">  1       -1 0.11601964E+00 0.10585579E+04</pdfrwt>
<totfact> 0.94894803E-01</totfact>
</mgrwt>
</event>
<event>
 4    1  0.2731969E-009  0.7024618E+03  0.7818608E-02  0.9713031E-01
          1   -1    0    0  501    0  0.00000000000E+00  0.00000000000E+00  0.85377612743E+03  0.85377612744E+03  0.50400000000E-02 0. -1.
         -1   -1    0    0    0  501 -0.00000000000E+00 -0.00000000000E+00 -0.76298336816E+03  0.76298336818E+03  0.50400000000E-02 0.  1.
    8880022    1    1    2    0    0  0.44722213969E+03 -0.51966651185E+03 -0.35267917207E+03  0.78602492149E+03  0.15294330000E+03 0.  0.
    8880022    1    1    2    0    0 -0.44722213969E+03  0.51966651185E+03  0.44347193134E+03  0.83073457414E+03  0.15294330000E+03 0.  0.
<mgrwt>
<rscale>  0 0.70246180E+03</rscale>
<asrwt>0</asrwt>
<pdfrwt beam="1">  1        1 0.13135017E+00 0.70246180E+03</pdfrwt>
<pdfrwt beam="2">  1       -1 0.11738206E+00 0.70246180E+03</pdfrwt>
<totfact> 0.13460605E+01</totfact>
</mgrwt>
</event>
<event>
 4    1  0.2731969E-009  0.2018234E+03  0.7818608E-02  0.1148210E+00
         -1   -1    0    0    0  501 -0.00000000000E+00  0.00000000000E+00  0.24543630476E+03  0.24543630481E+03  0.50400000000E-02 0.  1.
          1   -1    0    0  501    0  0.00000000000E+00 -0.00000000000E+00 -0.28667930057E+04  0.28667930057E+04  0.50400000000E-02 0. -1.
    8880022    1    1    2    0    0 -0.12095377835E+03  0.52069360953E+02 -0.28210793526E+04  0.28282894833E+04  0.15294330000E+03 0.  0.
    8880022    1    1    2    0    0  0.12095377835E+03 -0.52069360953E+02  0.19972265167E+03  0.28393982717E+03  0.15294330000E+03 0.  1.
<mgrwt>
<rscale>  0 0.20182341E+03</rscale>
<asrwt>0</asrwt>
<pdfrwt beam="1">  1        1 0.44104505E+00 0.20182341E+03</pdfrwt>
<pdfrwt beam="2">  1       -1 0.37759434E-01 0.20182341E+03</pdfrwt>
<totfact> 0.64850372E+00</totfact>
</mgrwt>
</event>
<event>
 4    1  0.2731969E-009  0.1447087E+04  0.7818608E-02  0.8920422E-01
         -1   -1    0    0    0  501 -0.00000000000E+00  0.00000000000E+00  0.28901847520E+04  0.28901847520E+04  0.50400000000E-02 0.  1.
          1   -1    0    0  501    0  0.00000000000E+00 -0.00000000000E+00 -0.15323119112E+04  0.15323119112E+04  0.50400000000E-02 0. -1.
    8880022    1    1    2    0    0  0.14058941126E+04  0.30680855993E+03 -0.92655377429E+03  0.17183024466E+04  0.15294330000E+03 0.  0.
    8880022    1    1    2    0    0 -0.14058941126E+04 -0.30680855993E+03  0.22844266151E+04  0.27041942166E+04  0.15294330000E+03 0.  0.
<mgrwt>
<rscale>  0 0.14470872E+04</rscale>
<asrwt>0</asrwt>
<pdfrwt beam="1">  1        1 0.23574029E+00 0.14470872E+04</pdfrwt>
<pdfrwt beam="2">  1       -1 0.44464381E+00 0.14470872E+04</pdfrwt>
<totfact> 0.20848751E-02</totfact>
</mgrwt>
</event>
<event>
 4    1  0.2731969E-009  0.3531294E+03  0.7818608E-02  0.1061338E+00
          1   -1    0    0  501    0  0.00000000000E+00  0.00000000000E+00  0.20266223127E+03  0.20266223134E+03  0.50400000000E-02 0. -1.
         -1   -1    0    0    0  501 -0.00000000000E+00 -0.00000000000E+00 -0.85243671521E+03  0.85243671522E+03  0.50400000000E-02 0.  1.
    8880022    1    1    2    0    0  0.28623401014E+03 -0.13920773256E+03 -0.46646192673E+02  0.35619688611E+03  0.15294330000E+03 0.  0.
    8880022    1    1    2    0    0 -0.28623401014E+03  0.13920773256E+03 -0.60312829126E+03  0.69890206045E+03  0.15294330000E+03 0.  1.
<mgrwt>
<rscale>  0 0.35312937E+03</rscale>
<asrwt>0</asrwt>
<pdfrwt beam="1">  1        1 0.31178805E-01 0.35312937E+03</pdfrwt>
<pdfrwt beam="2">  1       -1 0.13114411E+00 0.35312937E+03</pdfrwt>
<totfact> 0.76509063E+01</totfact>
</mgrwt>
</event>
<event>
 4    1  0.2731969E-009  0.7400676E+03  0.7818608E-02  0.9651063E-01
          1   -1    0    0  501    0  0.00000000000E+00  0.00000000000E+00  0.14138715828E+04  0.14138715828E+04  0.50400000000E-02 0. -1.
         -1   -1    0    0    0  501 -0.00000000000E+00 -0.00000000000E+00 -0.82269304708E+03  0.82269304710E+03  0.50400000000E-02 0.  1.
    8880022    1    1    2    0    0 -0.57271812543E+03 -0.44306027684E+03 -0.51786906417E+03  0.90326545420E+03  0.15294330000E+03 0.  0.
    8880022    1    1    2    0    0  0.57271812543E+03  0.44306027684E+03  0.11090475999E+04  0.13332991757E+04  0.15294330000E+03 0.  0.
<mgrwt>
<rscale>  0 0.74006764E+03</rscale>
<asrwt>0</asrwt>
<pdfrwt beam="1">  1        1 0.21751870E+00 0.74006764E+03</pdfrwt>
<pdfrwt beam="2">  1       -1 0.12656816E+00 0.74006764E+03</pdfrwt>
<totfact> 0.42520317E+00</totfact>
</mgrwt>
</event>
<event>
 4    1  0.2731969E-009  0.1438590E+04  0.7818608E-02  0.8926350E-01
          1   -1    0    0  501    0  0.00000000000E+00  0.00000000000E+00  0.36553248081E+04  0.36553248082E+04  0.50400000000E-02 0. -1.
         -1   -1    0    0    0  501 -0.00000000000E+00 -0.00000000000E+00 -0.71836405235E+03  0.71836405236E+03  0.50400000000E-02 0.  1.
    8880022    1    1    2    0    0  0.21742254416E+03  0.14138160376E+04  0.24750471195E+04  0.28627605991E+04  0.15294330000E+03 0.  0.
    8880022    1    1    2    0    0 -0.21742254416E+03 -0.14138160376E+04  0.46191363631E+03  0.15109282614E+04  0.15294330000E+03 0.  0.
<mgrwt>
<rscale>  0 0.14385896E+04</rscale>
<asrwt>0</asrwt>
<pdfrwt beam="1">  1        1 0.56235766E+00 0.14385896E+04</pdfrwt>
<pdfrwt beam="2">  1       -1 0.11051755E+00 0.14385896E+04</pdfrwt>
<totfact> 0.13754230E-01</totfact>
</mgrwt>
</event>
<event>
 4    1  0.2731969E-009  0.9300196E+03  0.7818608E-02  0.9388814E-01
         -1   -1    0    0    0  501 -0.00000000000E+00  0.00000000000E+00  0.99806272864E+03  0.99806272866E+03  0.50400000000E-02 0.  1.
          1   -1    0    0  501    0  0.00000000000E+00 -0.00000000000E+00 -0.18316254285E+04  0.18316254285E+04  0.50400000000E-02 0. -1.
    8880022    1    1    2    0    0 -0.67636207139E+03 -0.61974116601E+03  0.61018494028E+03  0.11123228303E+04  0.15294330000E+03 0.  0.
    8880022    1    1    2    0    0  0.67636207139E+03  0.61974116601E+03 -0.14437476401E+04  0.17173653268E+04  0.15294330000E+03 0.  0.
<mgrwt>
<rscale>  0 0.93001958E+03</rscale>
<asrwt>0</asrwt>
<pdfrwt beam="1">  1        1 0.28178853E+00 0.93001958E+03</pdfrwt>
<pdfrwt beam="2">  1       -1 0.15354811E+00 0.93001958E+03</pdfrwt>
<totfact> 0.12951985E+00</totfact>
</mgrwt>
</event>
<event>
 4    1  0.2731969E-009  0.7736146E+03  0.7818608E-02  0.9599014E-01
          1   -1    0    0  501    0  0.00000000000E+00  0.00000000000E+00  0.82698395156E+03  0.82698395158E+03  0.50400000000E-02 0. -1.
         -1   -1    0    0    0  501 -0.00000000000E+00 -0.00000000000E+00 -0.96927799514E+03  0.96927799515E+03  0.50400000000E-02 0.  1.
    8880022    1    1    2    0    0  0.68428536077E+03  0.32686602100E+03  0.38093747259E+03  0.86231830648E+03  0.15294330000E+03 0.  0.
    8880022    1    1    2    0    0 -0.68428536077E+03 -0.32686602100E+03 -0.52323151616E+03  0.93394364025E+03  0.15294330000E+03 0.  0.
<mgrwt>
<rscale>  0 0.77361457E+03</rscale>
<asrwt>0</asrwt>
<pdfrwt beam="1">  1        1 0.12722830E+00 0.77361457E+03</pdfrwt>
<pdfrwt beam="2">  1       -1 0.14911969E+00 0.77361457E+03</pdfrwt>
<totfact> 0.76466299E+00</totfact>
</mgrwt>
</event>
<event>
 4    1  0.2731969E-009  0.1369176E+04  0.7818608E-02  0.8976438E-01
         -1   -1    0    0    0  501 -0.00000000000E+00  0.00000000000E+00  0.22687338776E+04  0.22687338776E+04  0.50400000000E-02 0.  1.
          1   -1    0    0  501    0  0.00000000000E+00 -0.00000000000E+00 -0.12546558889E+04  0.12546558889E+04  0.50400000000E-02 0. -1.
    8880022    1    1    2    0    0  0.29489305615E+03  0.13282651841E+04  0.15364139963E+04  0.20579625689E+04  0.15294330000E+03 0.  0.
    8880022    1    1    2    0    0 -0.29489305615E+03 -0.13282651841E+04 -0.52233600769E+03  0.14654271977E+04  0.15294330000E+03 0.  0.
<mgrwt>
<rscale>  0 0.13691757E+04</rscale>
<asrwt>0</asrwt>
<pdfrwt beam="1">  1        1 0.19302398E+00 0.13691757E+04</pdfrwt>
<pdfrwt beam="2">  1       -1 0.34903598E+00 0.13691757E+04</pdfrwt>
<totfact> 0.14831718E-01</totfact>
</mgrwt>
</event>
<event>
 4    1  0.2731969E-009  0.5871858E+03  0.7818608E-02  0.9932354E-01
         -1   -1    0    0    0  501 -0.00000000000E+00  0.00000000000E+00  0.24279578292E+03  0.24279578298E+03  0.50400000000E-02 0.  1.
          1   -1    0    0  501    0  0.00000000000E+00 -0.00000000000E+00 -0.40075600169E+04  0.40075600169E+04  0.50400000000E-02 0. -1.
    8880022    1    1    2    0    0 -0.34223248607E+03 -0.45196511164E+03 -0.17474906603E+03  0.61263727094E+03  0.15294330000E+03 0.  0.
    8880022    1    1    2    0    0  0.34223248607E+03  0.45196511164E+03 -0.35900151680E+04  0.36377185289E+04  0.15294330000E+03 0.  0.
<mgrwt>
<rscale>  0 0.58718582E+03</rscale>
<asrwt>0</asrwt>
<pdfrwt beam="1">  1        1 0.61654765E+00 0.58718582E+03</pdfrwt>
<pdfrwt beam="2">  1       -1 0.37353200E-01 0.58718582E+03</pdfrwt>
<totfact> 0.75526074E-01</totfact>
</mgrwt>
</event>
<event>
 4    1  0.2731969E-009  0.1706308E+04  0.7818608E-02  0.8757775E-01
          1   -1    0    0  501    0  0.00000000000E+00  0.00000000000E+00  0.23858112557E+04  0.23858112557E+04  0.50400000000E-02 0. -1.
         -1   -1    0    0    0  501 -0.00000000000E+00 -0.00000000000E+00 -0.17533340647E+04  0.17533340647E+04  0.50400000000E-02 0.  1.
    8880022    1    1    2    0    0 -0.40053272332E+03 -0.16515651089E+04  0.14573082966E+04  0.22439324624E+04  0.15294330000E+03 0.  0.
    8880022    1    1    2    0    0  0.40053272332E+03  0.16515651089E+04 -0.82483110561E+03  0.18952128580E+04  0.15294330000E+03 0.  0.
<mgrwt>
<rscale>  0 0.17063075E+04</rscale>
<asrwt>0</asrwt>
<pdfrwt beam="1">  1        1 0.36704788E+00 0.17063075E+04</pdfrwt>
<pdfrwt beam="2">  1       -1 0.26974370E+00 0.17063075E+04</pdfrwt>
<totfact> 0.77467659E-02</totfact>
</mgrwt>
</event>
<event>
 4    1  0.2731969E-009  0.6413980E+03  0.7818608E-02  0.9823055E-01
         -1   -1    0    0    0  501 -0.00000000000E+00  0.00000000000E+00  0.10060502817E+04  0.10060502817E+04  0.50400000000E-02 0.  1.
          1   -1    0    0  501    0  0.00000000000E+00 -0.00000000000E+00 -0.62718132503E+03  0.62718132505E+03  0.50400000000E-02 0. -1.
    8880022    1    1    2    0    0 -0.21999994286E+03 -0.58275188544E+03  0.67117400136E+03  0.92836734538E+03  0.15294330000E+03 0.  0.
    8880022    1    1    2    0    0  0.21999994286E+03  0.58275188544E+03 -0.29230504468E+03  0.70486426140E+03  0.15294330000E+03 0.  0.
<mgrwt>
<rscale>  0 0.64139799E+03</rscale>
<asrwt>0</asrwt>
<pdfrwt beam="1">  1        1 0.96489436E-01 0.64139799E+03</pdfrwt>
<pdfrwt beam="2">  1       -1 0.15477696E+00 0.64139799E+03</pdfrwt>
<totfact> 0.10756284E+01</totfact>
</mgrwt>
</event>
<event>
 4    1  0.2731969E-009  0.6070232E+03  0.7818608E-02  0.9890941E-01
         -1   -1    0    0    0  501 -0.00000000000E+00  0.00000000000E+00  0.41299459514E+03  0.41299459517E+03  0.50400000000E-02 0.  1.
          1   -1    0    0  501    0  0.00000000000E+00 -0.00000000000E+00 -0.13977539614E+04  0.13977539614E+04  0.50400000000E-02 0. -1.
    8880022    1    1    2    0    0  0.53686942040E+03 -0.23844652000E+03  0.52114214155E+02  0.60925615450E+03  0.15294330000E+03 0.  0.
    8880022    1    1    2    0    0 -0.53686942040E+03  0.23844652000E+03 -0.10368735804E+04  0.12014924021E+04  0.15294330000E+03 0.  0.
<mgrwt>
<rscale>  0 0.60702320E+03</rscale>
<asrwt>0</asrwt>
<pdfrwt beam="1">  1        1 0.21503907E+00 0.60702320E+03</pdfrwt>
<pdfrwt beam="2">  1       -1 0.63537631E-01 0.60702320E+03</pdfrwt>
<totfact> 0.20435960E+01</totfact>
</mgrwt>
</event>
<event>
 4    1  0.2731969E-009  0.1069751E+04  0.7818608E-02  0.9235187E-01
          1   -1    0    0  501    0  0.00000000000E+00  0.00000000000E+00  0.20241595033E+04  0.20241595033E+04  0.50400000000E-02 0. -1.
         -1   -1    0    0    0  501 -0.00000000000E+00 -0.00000000000E+00 -0.98267136850E+03  0.98267136852E+03  0.50400000000E-02 0.  1.
    8880022    1    1    2    0    0 -0.88070903465E+03  0.58764518803E+03 -0.45898957001E+03  0.11640611449E+04  0.15294330000E+03 0.  0.
    8880022    1    1    2    0    0  0.88070903465E+03 -0.58764518803E+03  0.15004777048E+04  0.18427697269E+04  0.15294330000E+03 0.  0.
<mgrwt>
<rscale>  0 0.10697509E+04</rscale>
<asrwt>0</asrwt>
<pdfrwt beam="1">  1        1 0.31140915E+00 0.10697509E+04</pdfrwt>
<pdfrwt beam="2">  1       -1 0.15118021E+00 0.10697509E+04</pdfrwt>
<totfact> 0.98087412E-01</totfact>
</mgrwt>
</event>
<event>
 4    1  0.2731969E-009  0.7679069E+03  0.7818608E-02  0.9607669E-01
         -1   -1    0    0    0  501 -0.00000000000E+00  0.00000000000E+00  0.32752073861E+04  0.32752073861E+04  0.50400000000E-02 0.  1.
          1   -1    0    0  501    0  0.00000000000E+00 -0.00000000000E+00 -0.30743531609E+03  0.30743531613E+03  0.50400000000E-02 0. -1.
    8880022    1    1    2    0    0  0.61030253216E+03 -0.44025019063E+03  0.33078667241E+03  0.83612253096E+03  0.15294330000E+03 0.  0.
    8880022    1    1    2    0    0 -0.61030253216E+03  0.44025019063E+03  0.26369853975E+04  0.27465201712E+04  0.15294330000E+03 0.  0.
<mgrwt>
<rscale>  0 0.76790694E+03</rscale>
<asrwt>0</asrwt>
<pdfrwt beam="1">  1        1 0.47297737E-01 0.76790694E+03</pdfrwt>
<pdfrwt beam="2">  1       -1 0.50387810E+00 0.76790694E+03</pdfrwt>
<totfact> 0.12649924E-01</totfact>
</mgrwt>
</event>
<event>
 4    1  0.2731969E-009  0.1159221E+04  0.7818608E-02  0.9149319E-01
         -1   -1    0    0    0  501 -0.00000000000E+00  0.00000000000E+00  0.82419184357E+03  0.82419184358E+03  0.50400000000E-02 0.  1.
          1   -1    0    0  501    0  0.00000000000E+00 -0.00000000000E+00 -0.30052283210E+04  0.30052283210E+04  0.50400000000E-02 0. -1.
    8880022    1    1    2    0    0 -0.34823341099E+03  0.10950498802E+04 -0.23855570069E+04  0.26522961062E+04  0.15294330000E+03 0.  0.
    8880022    1    1    2    0    0  0.34823341099E+03 -0.10950498802E+04  0.20452052951E+03  0.11771240584E+04  0.15294330000E+03 0.  0.
<mgrwt>
<rscale>  0 0.11592206E+04</rscale>
<asrwt>0</asrwt>
<pdfrwt beam="1">  1        1 0.46234281E+00 0.11592206E+04</pdfrwt>
<pdfrwt beam="2">  1       -1 0.12679875E+00 0.11592206E+04</pdfrwt>
<totfact> 0.32010689E-01</totfact>
</mgrwt>
</event>
<event>
 4    1  0.2731969E-009  0.5548886E+03  0.7818608E-02  0.1000369E+00
          1   -1    0    0  501    0  0.00000000000E+00  0.00000000000E+00  0.65590544639E+03  0.65590544641E+03  0.50400000000E-02 0. -1.
         -1   -1    0    0    0  501 -0.00000000000E+00 -0.00000000000E+00 -0.89926497940E+03  0.89926497941E+03  0.50400000000E-02 0.  1.
    8880022    1    1    2    0    0  0.41844898734E+03  0.33077201683E+03 -0.65927487243E+03  0.86171032984E+03  0.15294330000E+03 0.  1.
    8880022    1    1    2    0    0 -0.41844898734E+03 -0.33077201683E+03  0.41591533942E+03  0.69346009597E+03  0.15294330000E+03 0.  0.
<mgrwt>
<rscale>  0 0.55488858E+03</rscale>
<asrwt>0</asrwt>
<pdfrwt beam="1">  1        1 0.10090853E+00 0.55488858E+03</pdfrwt>
<pdfrwt beam="2">  1       -1 0.13834846E+00 0.55488858E+03</pdfrwt>
<totfact> 0.13741304E+01</totfact>
</mgrwt>
</event>
<event>
 4    1  0.2731969E-009  0.1035817E+04  0.7818608E-02  0.9270111E-01
          1   -1    0    0  501    0  0.00000000000E+00  0.00000000000E+00  0.19935946771E+04  0.19935946771E+04  0.50400000000E-02 0. -1.
         -1   -1    0    0    0  501 -0.00000000000E+00 -0.00000000000E+00 -0.10352411769E+04  0.10352411769E+04  0.50400000000E-02 0.  1.
    8880022    1    1    2    0    0 -0.83539443439E+03 -0.59299291330E+03 -0.57019451114E+03  0.11823865230E+04  0.15294330000E+03 0.  0.
    8880022    1    1    2    0    0  0.83539443439E+03  0.59299291330E+03  0.15285480113E+04  0.18464493311E+04  0.15294330000E+03 0.  0.
<mgrwt>
<rscale>  0 0.10358166E+04</rscale>
<asrwt>0</asrwt>
<pdfrwt beam="1">  1        1 0.30670687E+00 0.10358166E+04</pdfrwt>
<pdfrwt beam="2">  1       -1 0.15926788E+00 0.10358166E+04</pdfrwt>
<totfact> 0.89582112E-01</totfact>
</mgrwt>
</event>
<event>
 4    1  0.2731969E-009  0.1229336E+04  0.7818608E-02  0.9087560E-01
          1   -1    0    0  501    0  0.00000000000E+00  0.00000000000E+00  0.20085933621E+04  0.20085933621E+04  0.50400000000E-02 0. -1.
         -1   -1    0    0    0  501 -0.00000000000E+00 -0.00000000000E+00 -0.10702228553E+04  0.10702228553E+04  0.50400000000E-02 0.  1.
    8880022    1    1    2    0    0  0.12178326654E+04  0.68981213137E+02 -0.36971233153E+03  0.12837264778E+04  0.15294330000E+03 0.  0.
    8880022    1    1    2    0    0 -0.12178326654E+04 -0.68981213137E+02  0.13080828383E+04  0.17950897397E+04  0.15294330000E+03 0.  0.
<mgrwt>
<rscale>  0 0.12293358E+04</rscale>
<asrwt>0</asrwt>
<pdfrwt beam="1">  1        1 0.30901436E+00 0.12293358E+04</pdfrwt>
<pdfrwt beam="2">  1       -1 0.16464967E+00 0.12293358E+04</pdfrwt>
<totfact> 0.77569780E-01</totfact>
</mgrwt>
</event>
<event>
 4    1  0.2731969E-009  0.3446198E+03  0.7818608E-02  0.1064845E+00
         -1   -1    0    0    0  501 -0.00000000000E+00  0.00000000000E+00  0.95128698081E+03  0.95128698082E+03  0.50400000000E-02 0.  1.
          1   -1    0    0  501    0  0.00000000000E+00 -0.00000000000E+00 -0.17058811146E+03  0.17058811154E+03  0.50400000000E-02 0. -1.
    8880022    1    1    2    0    0  0.20650292058E+03  0.22962510649E+03  0.68082265308E+03  0.76307423210E+03  0.15294330000E+03 0.  0.
    8880022    1    1    2    0    0 -0.20650292058E+03 -0.22962510649E+03  0.99876216268E+02  0.35880086026E+03  0.15294330000E+03 0.  0.
<mgrwt>
<rscale>  0 0.34461979E+03</rscale>
<asrwt>0</asrwt>
<pdfrwt beam="1">  1        1 0.26244325E-01 0.34461979E+03</pdfrwt>
<pdfrwt beam="2">  1       -1 0.14635184E+00 0.34461979E+03</pdfrwt>
<totfact> 0.72181370E+01</totfact>
</mgrwt>
</event>
<event>
 4    1  0.2731969E-009  0.2632464E+03  0.7818608E-02  0.1105208E+00
          1   -1    0    0  501    0  0.00000000000E+00  0.00000000000E+00  0.93888371693E+03  0.93888371694E+03  0.50400000000E-02 0. -1.
         -1   -1    0    0    0  501 -0.00000000000E+00 -0.00000000000E+00 -0.19548694149E+03  0.19548694156E+03  0.50400000000E-02 0.  1.
    8880022    1    1    2    0    0 -0.14281703626E+03 -0.15971952318E+03 -0.75778766789E+02  0.27393631822E+03  0.15294330000E+03 0.  1.
    8880022    1    1    2    0    0  0.14281703626E+03  0.15971952318E+03  0.81917554223E+03  0.86043434028E+03  0.15294330000E+03 0.  0.
<mgrwt>
<rscale>  0 0.26324643E+03</rscale>
<asrwt>0</asrwt>
<pdfrwt beam="1">  1        1 0.14444365E+00 0.26324643E+03</pdfrwt>
<pdfrwt beam="2">  1       -1 0.30074914E-01 0.26324643E+03</pdfrwt>
<totfact> 0.18327049E+02</totfact>
</mgrwt>
</event>
<event>
 4    1  0.2731969E-009  0.6076311E+03  0.7818608E-02  0.9889699E-01
         -1   -1    0    0    0  501 -0.00000000000E+00  0.00000000000E+00  0.70016384280E+03  0.70016384282E+03  0.50400000000E-02 0.  1.
          1   -1    0    0  501    0  0.00000000000E+00 -0.00000000000E+00 -0.84207399280E+03  0.84207399282E+03  0.50400000000E-02 0. -1.
    8880022    1    1    2    0    0  0.19985952957E+03 -0.55306422657E+03  0.40048533304E+03  0.72773898155E+03  0.15294330000E+03 0.  0.
    8880022    1    1    2    0    0 -0.19985952957E+03  0.55306422657E+03 -0.54239548304E+03  0.81449885409E+03  0.15294330000E+03 0.  0.
<mgrwt>
<rscale>  0 0.60763107E+03</rscale>
<asrwt>0</asrwt>
<pdfrwt beam="1">  1        1 0.12954985E+00 0.60763107E+03</pdfrwt>
<pdfrwt beam="2">  1       -1 0.10771751E+00 0.60763107E+03</pdfrwt>
<totfact> 0.17103722E+01</totfact>
</mgrwt>
</event>
<event>
 4    1  0.2731969E-009  0.3588828E+03  0.7818608E-02  0.1059027E+00
          1   -1    0    0  501    0  0.00000000000E+00  0.00000000000E+00  0.10540771667E+04  0.10540771667E+04  0.50400000000E-02 0. -1.
         -1   -1    0    0    0  501 -0.00000000000E+00 -0.00000000000E+00 -0.21800261143E+03  0.21800261148E+03  0.50400000000E-02 0.  1.
    8880022    1    1    2    0    0 -0.32284266774E+03 -0.34319248156E+02 -0.36268383025E+01  0.35890110877E+03  0.15294330000E+03 0.  0.
    8880022    1    1    2    0    0  0.32284266774E+03  0.34319248156E+02  0.83970139358E+03  0.91317866943E+03  0.15294330000E+03 0.  0.
<mgrwt>
<rscale>  0 0.35888278E+03</rscale>
<asrwt>0</asrwt>
<pdfrwt beam="1">  1        1 0.16216572E+00 0.35888278E+03</pdfrwt>
<pdfrwt beam="2">  1       -1 0.33538863E-01 0.35888278E+03</pdfrwt>
<totfact> 0.12228395E+02</totfact>
</mgrwt>
</event>
<event>
 4    1  0.2731969E-009  0.7169893E+03  0.7818608E-02  0.9688611E-01
          1   -1    0    0  501    0  0.00000000000E+00  0.00000000000E+00  0.16727320693E+04  0.16727320693E+04  0.50400000000E-02 0. -1.
         -1   -1    0    0    0  501 -0.00000000000E+00 -0.00000000000E+00 -0.44050561220E+03  0.44050561222E+03  0.50400000000E-02 0.  1.
    8880022    1    1    2    0    0  0.29269103088E+03  0.63640703329E+03  0.11970942428E+04  0.13953882007E+04  0.15294330000E+03 0.  0.
    8880022    1    1    2    0    0 -0.29269103088E+03 -0.63640703329E+03  0.35132214306E+02  0.71784948080E+03  0.15294330000E+03 0.  0.
<mgrwt>
<rscale>  0 0.71698926E+03</rscale>
<asrwt>0</asrwt>
<pdfrwt beam="1">  1        1 0.25734340E+00 0.71698926E+03</pdfrwt>
<pdfrwt beam="2">  1       -1 0.67770093E-01 0.71698926E+03</pdfrwt>
<totfact> 0.11466427E+01</totfact>
</mgrwt>
</event>
<event>
 4    1  0.2731969E-009  0.5534523E+03  0.7818608E-02  0.1000698E+00
          1   -1    0    0  501    0  0.00000000000E+00  0.00000000000E+00  0.13848992284E+04  0.13848992284E+04  0.50400000000E-02 0. -1.
         -1   -1    0    0    0  501 -0.00000000000E+00 -0.00000000000E+00 -0.40751140246E+03  0.40751140249E+03  0.50400000000E-02 0.  1.
    8880022    1    1    2    0    0 -0.24042279676E+03 -0.47446253642E+03 -0.11732027995E+03  0.56575040501E+03  0.15294330000E+03 0.  0.
    8880022    1    1    2    0    0  0.24042279676E+03  0.47446253642E+03  0.10947081059E+04  0.12266602259E+04  0.15294330000E+03 0.  0.
<mgrwt>
<rscale>  0 0.55345232E+03</rscale>
<asrwt>0</asrwt>
<pdfrwt beam="1">  1        1 0.21306142E+00 0.55345232E+03</pdfrwt>
<pdfrwt beam="2">  1       -1 0.62694062E-01 0.55345232E+03</pdfrwt>
<totfact> 0.21613813E+01</totfact>
</mgrwt>
</event>
<event>
 4    1  0.2731969E-009  0.6574889E+03  0.7818608E-02  0.9792827E-01
          1   -1    0    0  501    0  0.00000000000E+00  0.00000000000E+00  0.75699161101E+03  0.75699161103E+03  0.50400000000E-02 0. -1.
         -1   -1    0    0    0  501 -0.00000000000E+00 -0.00000000000E+00 -0.58746409193E+03  0.58746409195E+03  0.50400000000E-02 0.  1.
    8880022    1    1    2    0    0 -0.52143875147E+03  0.37013725680E+03  0.19707733608E+03  0.68638989636E+03  0.15294330000E+03 0.  0.
    8880022    1    1    2    0    0  0.52143875147E+03 -0.37013725680E+03 -0.27549816997E+02  0.65806580662E+03  0.15294330000E+03 0.  0.
<mgrwt>
<rscale>  0 0.65748887E+03</rscale>
<asrwt>0</asrwt>
<pdfrwt beam="1">  1        1 0.11646025E+00 0.65748887E+03</pdfrwt>
<pdfrwt beam="2">  1       -1 0.90379092E-01 0.65748887E+03</pdfrwt>
<totfact> 0.29927908E+01</totfact>
</mgrwt>
</event>
<event>
 4    1  0.2731969E-009  0.1050879E+04  0.7818608E-02  0.9254437E-01
         -1   -1    0    0    0  501 -0.00000000000E+00  0.00000000000E+00  0.10538662275E+04  0.10538662275E+04  0.50400000000E-02 0.  1.
          1   -1    0    0  501    0  0.00000000000E+00 -0.00000000000E+00 -0.12950008541E+04  0.12950008541E+04  0.50400000000E-02 0. -1.
    8880022    1    1    2    0    0 -0.68504398901E+03 -0.78209351805E+03  0.39244749185E+03  0.11217674557E+04  0.15294330000E+03 0.  0.
    8880022    1    1    2    0    0  0.68504398901E+03  0.78209351805E+03 -0.63358211847E+03  0.12270996258E+04  0.15294330000E+03 0.  0.
<mgrwt>
<rscale>  0 0.10508792E+04</rscale>
<asrwt>0</asrwt>
<pdfrwt beam="1">  1        1 0.19923090E+00 0.10508792E+04</pdfrwt>
<pdfrwt beam="2">  1       -1 0.16213327E+00 0.10508792E+04</pdfrwt>
<totfact> 0.25621725E+00</totfact>
</mgrwt>
</event>
<event>
 4    1  0.2731969E-009  0.6171624E+03  0.7818608E-02  0.9870426E-01
          1   -1    0    0  501    0  0.00000000000E+00  0.00000000000E+00  0.21498301815E+04  0.21498301815E+04  0.50400000000E-02 0. -1.
         -1   -1    0    0    0  501 -0.00000000000E+00 -0.00000000000E+00 -0.34619533700E+03  0.34619533703E+03  0.50400000000E-02 0.  1.
    8880022    1    1    2    0    0 -0.43601358434E+03  0.40913318225E+03  0.29786459004E+02  0.61788080785E+03  0.15294330000E+03 0.  0.
    8880022    1    1    2    0    0  0.43601358434E+03 -0.40913318225E+03  0.17738483855E+04  0.18781447107E+04  0.15294330000E+03 0.  0.
<mgrwt>
<rscale>  0 0.61716243E+03</rscale>
<asrwt>0</asrwt>
<pdfrwt beam="1">  1        1 0.33074311E+00 0.61716243E+03</pdfrwt>
<pdfrwt beam="2">  1       -1 0.53260821E-01 0.61716243E+03</pdfrwt>
<totfact> 0.90047310E+00</totfact>
</mgrwt>
</event>
<event>
 4    1  0.2731969E-009  0.6079795E+03  0.7818608E-02  0.9888988E-01
         -1   -1    0    0    0  501 -0.00000000000E+00  0.00000000000E+00  0.55640432989E+03  0.55640432991E+03  0.50400000000E-02 0.  1.
          1   -1    0    0  501    0  0.00000000000E+00 -0.00000000000E+00 -0.11995694678E+04  0.11995694678E+04  0.50400000000E-02 0. -1.
    8880022    1    1    2    0    0 -0.12179496132E+03 -0.57568519178E+03  0.26488931843E+03  0.66317829931E+03  0.15294330000E+03 0.  0.
    8880022    1    1    2    0    0  0.12179496132E+03  0.57568519178E+03 -0.90805445636E+03  0.10927954984E+04  0.15294330000E+03 0.  0.
<mgrwt>
<rscale>  0 0.60797953E+03</rscale>
<asrwt>0</asrwt>
<pdfrwt beam="1">  1        1 0.18454915E+00 0.60797953E+03</pdfrwt>
<pdfrwt beam="2">  1       -1 0.85600666E-01 0.60797953E+03</pdfrwt>
<totfact> 0.15204827E+01</totfact>
</mgrwt>
</event>
<event>
 4    1  0.2731969E-009  0.6760193E+03  0.7818608E-02  0.9759145E-01
          1   -1    0    0  501    0  0.00000000000E+00  0.00000000000E+00  0.74358552590E+03  0.74358552592E+03  0.50400000000E-02 0. -1.
         -1   -1    0    0    0  501 -0.00000000000E+00 -0.00000000000E+00 -0.85489378457E+03  0.85489378459E+03  0.50400000000E-02 0.  1.
    8880022    1    1    2    0    0  0.18331409808E+03  0.63246053481E+03 -0.47939372531E+03  0.82874627210E+03  0.15294330000E+03 0.  0.
    8880022    1    1    2    0    0 -0.18331409808E+03 -0.63246053481E+03  0.36808546664E+03  0.76973303840E+03  0.15294330000E+03 0.  0.
<mgrwt>
<rscale>  0 0.67601926E+03</rscale>
<asrwt>0</asrwt>
<pdfrwt beam="1">  1        1 0.11439777E+00 0.67601926E+03</pdfrwt>
<pdfrwt beam="2">  1       -1 0.13152212E+00 0.67601926E+03</pdfrwt>
<totfact> 0.12708279E+01</totfact>
</mgrwt>
</event>
<event>
 4    1  0.2731969E-009  0.2216500E+03  0.7818608E-02  0.1132659E+00
          1   -1    0    0  501    0  0.00000000000E+00  0.00000000000E+00  0.74024635692E+03  0.74024635693E+03  0.50400000000E-02 0. -1.
         -1   -1    0    0    0  501 -0.00000000000E+00 -0.00000000000E+00 -0.11033635040E+03  0.11033635051E+03  0.50400000000E-02 0.  1.
    8880022    1    1    2    0    0 -0.15666245688E+03 -0.34553598382E+02  0.46484277748E+02  0.22647189152E+03  0.15294330000E+03 0.  0.
    8880022    1    1    2    0    0  0.15666245688E+03  0.34553598382E+02  0.58342572877E+03  0.62411081593E+03  0.15294330000E+03 0. -1.
<mgrwt>
<rscale>  0 0.22165002E+03</rscale>
<asrwt>0</asrwt>
<pdfrwt beam="1">  1        1 0.11388406E+00 0.22165002E+03</pdfrwt>
<pdfrwt beam="2">  1       -1 0.16974823E-01 0.22165002E+03</pdfrwt>
<totfact> 0.68733089E+02</totfact>
</mgrwt>
</event>
<event>
 4    1  0.2731969E-009  0.4722599E+03  0.7818608E-02  0.1021284E+00
          1   -1    0    0  501    0  0.00000000000E+00  0.00000000000E+00  0.48241998284E+03  0.48241998286E+03  0.50400000000E-02 0. -1.
         -1   -1    0    0    0  501 -0.00000000000E+00 -0.00000000000E+00 -0.88217901053E+03  0.88217901055E+03  0.50400000000E-02 0.  1.
    8880022    1    1    2    0    0 -0.33839177928E+03 -0.29176831025E+03 -0.67058759775E+03  0.82019334454E+03  0.15294330000E+03 0.  0.
    8880022    1    1    2    0    0  0.33839177928E+03  0.29176831025E+03  0.27082857005E+03  0.54440564887E+03  0.15294330000E+03 0.  0.
<mgrwt>
<rscale>  0 0.47225988E+03</rscale>
<asrwt>0</asrwt>
<pdfrwt beam="1">  1        1 0.74218459E-01 0.47225988E+03</pdfrwt>
<pdfrwt beam="2">  1       -1 0.13571985E+00 0.47225988E+03</pdfrwt>
<totfact> 0.22502163E+01</totfact>
</mgrwt>
</event>
<event>
 4    1  0.2731969E-009  0.1114045E+04  0.7818608E-02  0.9191610E-01
         -1   -1    0    0    0  501 -0.00000000000E+00  0.00000000000E+00  0.10431612819E+04  0.10431612819E+04  0.50400000000E-02 0.  1.
          1   -1    0    0  501    0  0.00000000000E+00 -0.00000000000E+00 -0.21101655622E+04  0.21101655622E+04  0.50400000000E-02 0. -1.
    8880022    1    1    2    0    0  0.78171387617E+02  0.11007244042E+04 -0.15747969926E+04  0.19290106793E+04  0.15294330000E+03 0.  0.
    8880022    1    1    2    0    0 -0.78171387617E+02 -0.11007244042E+04  0.50779271237E+03  0.12243161649E+04  0.15294330000E+03 0.  0.
<mgrwt>
<rscale>  0 0.11140452E+04</rscale>
<asrwt>0</asrwt>
<pdfrwt beam="1">  1        1 0.32464086E+00 0.11140452E+04</pdfrwt>
<pdfrwt beam="2">  1       -1 0.16048635E+00 0.11140452E+04</pdfrwt>
<totfact> 0.72321526E-01</totfact>
</mgrwt>
</event>
<event>
 4    1  0.2731969E-009  0.6643033E+03  0.7818608E-02  0.9780304E-01
         -1   -1    0    0    0  501 -0.00000000000E+00  0.00000000000E+00  0.14602656278E+04  0.14602656278E+04  0.50400000000E-02 0.  1.
          1   -1    0    0  501    0  0.00000000000E+00 -0.00000000000E+00 -0.81966255702E+03  0.81966255704E+03  0.50400000000E-02 0. -1.
    8880022    1    1    2    0    0  0.14369331390E+03 -0.63028517635E+03 -0.58545443553E+03  0.88546920956E+03  0.15294330000E+03 0.  0.
    8880022    1    1    2    0    0 -0.14369331390E+03  0.63028517635E+03  0.12260575063E+04  0.13944589753E+04  0.15294330000E+03 0.  0.
<mgrwt>
<rscale>  0 0.66430326E+03</rscale>
<asrwt>0</asrwt>
<pdfrwt beam="1">  1        1 0.12610193E+00 0.66430326E+03</pdfrwt>
<pdfrwt beam="2">  1       -1 0.22465625E+00 0.66430326E+03</pdfrwt>
<totfact> 0.23083748E+00</totfact>
</mgrwt>
</event>
<event>
 4    1  0.2731969E-009  0.1141711E+04  0.7818608E-02  0.9165465E-01
          1   -1    0    0  501    0  0.00000000000E+00  0.00000000000E+00  0.18082418508E+04  0.18082418508E+04  0.50400000000E-02 0. -1.
         -1   -1    0    0    0  501 -0.00000000000E+00 -0.00000000000E+00 -0.22881958363E+04  0.22881958363E+04  0.50400000000E-02 0.  1.
    8880022    1    1    2    0    0 -0.77253430165E+03 -0.82662144392E+03  0.14551789949E+04  0.18496080176E+04  0.15294330000E+03 0.  0.
    8880022    1    1    2    0    0  0.77253430165E+03  0.82662144392E+03 -0.19351329804E+04  0.22468296695E+04  0.15294330000E+03 0.  0.
<mgrwt>
<rscale>  0 0.11417110E+04</rscale>
<asrwt>0</asrwt>
<pdfrwt beam="1">  1        1 0.27819105E+00 0.11417110E+04</pdfrwt>
<pdfrwt beam="2">  1       -1 0.35203013E+00 0.11417110E+04</pdfrwt>
<totfact> 0.60530347E-02</totfact>
</mgrwt>
</event>
<event>
 4    1  0.2731969E-009  0.5884361E+03  0.7818608E-02  0.9929692E-01
          1   -1    0    0  501    0  0.00000000000E+00  0.00000000000E+00  0.65336501411E+03  0.65336501413E+03  0.50400000000E-02 0. -1.
         -1   -1    0    0    0  501 -0.00000000000E+00 -0.00000000000E+00 -0.79383699744E+03  0.79383699746E+03  0.50400000000E-02 0.  1.
    8880022    1    1    2    0    0  0.54514868836E+03 -0.16024456005E+03 -0.48742666072E+03  0.76409542208E+03  0.15294330000E+03 0.  0.
    8880022    1    1    2    0    0 -0.54514868836E+03  0.16024456005E+03  0.34695467738E+03  0.68310658950E+03  0.15294330000E+03 0.  0.
<mgrwt>
<rscale>  0 0.58843612E+03</rscale>
<asrwt>0</asrwt>
<pdfrwt beam="1">  1        1 0.10051769E+00 0.58843612E+03</pdfrwt>
<pdfrwt beam="2">  1       -1 0.12212877E+00 0.58843612E+03</pdfrwt>
<totfact> 0.18788274E+01</totfact>
</mgrwt>
</event>
<event>
 4    1  0.2731969E-009  0.1136455E+04  0.7818608E-02  0.9170371E-01
          1   -1    0    0  501    0  0.00000000000E+00  0.00000000000E+00  0.29189479693E+04  0.29189479693E+04  0.50400000000E-02 0. -1.
         -1   -1    0    0    0  501 -0.00000000000E+00 -0.00000000000E+00 -0.97101895365E+03  0.97101895366E+03  0.50400000000E-02 0.  1.
    8880022    1    1    2    0    0  0.93605730125E+02 -0.11222197077E+04 -0.46101910316E+03  0.12264050601E+04  0.15294330000E+03 0.  0.
    8880022    1    1    2    0    0 -0.93605730125E+02  0.11222197077E+04  0.24089481188E+04  0.26635618628E+04  0.15294330000E+03 0.  0.
<mgrwt>
<rscale>  0 0.11364553E+04</rscale>
<asrwt>0</asrwt>
<pdfrwt beam="1">  1        1 0.44906891E+00 0.11364553E+04</pdfrwt>
<pdfrwt beam="2">  1       -1 0.14938753E+00 0.11364553E+04</pdfrwt>
<totfact> 0.24194882E-01</totfact>
</mgrwt>
</event>
<event>
 4    1  0.2731969E-009  0.1875937E+03  0.7818608E-02  0.1160650E+00
         -1   -1    0    0    0  501 -0.00000000000E+00  0.00000000000E+00  0.37663266001E+03  0.37663266004E+03  0.50400000000E-02 0.  1.
          1   -1    0    0  501    0  0.00000000000E+00 -0.00000000000E+00 -0.72972090436E+03  0.72972090437E+03  0.50400000000E-02 0. -1.
    8880022    1    1    2    0    0  0.42481117199E+02 -0.99975485319E+02 -0.69309255183E+03  0.71803111451E+03  0.15294330000E+03 0.  0.
    8880022    1    1    2    0    0 -0.42481117199E+02  0.99975485319E+02  0.34000430748E+03  0.38832244991E+03  0.15294330000E+03 0.  0.
<mgrwt>
<rscale>  0 0.18759370E+03</rscale>
<asrwt>0</asrwt>
<pdfrwt beam="1">  1        1 0.11226475E+00 0.18759370E+03</pdfrwt>
<pdfrwt beam="2">  1       -1 0.57943486E-01 0.18759370E+03</pdfrwt>
<totfact> 0.85363846E+01</totfact>
</mgrwt>
</event>
<event>
 4    1  0.2731969E-009  0.1379616E+04  0.7818608E-02  0.8968707E-01
         -1   -1    0    0    0  501 -0.00000000000E+00  0.00000000000E+00  0.14820701788E+04  0.14820701788E+04  0.50400000000E-02 0.  1.
          1   -1    0    0  501    0  0.00000000000E+00 -0.00000000000E+00 -0.25835841578E+04  0.25835841578E+04  0.50400000000E-02 0. -1.
    8880022    1    1    2    0    0  0.76283732097E+03 -0.11393100952E+04  0.89086221478E+03  0.16422470612E+04  0.15294330000E+03 0.  0.
    8880022    1    1    2    0    0 -0.76283732097E+03  0.11393100952E+04 -0.19923761938E+04  0.24234072753E+04  0.15294330000E+03 0.  0.
<mgrwt>
<rscale>  0 0.13796159E+04</rscale>
<asrwt>0</asrwt>
<pdfrwt beam="1">  1        1 0.39747448E+00 0.13796159E+04</pdfrwt>
<pdfrwt beam="2">  1       -1 0.22801080E+00 0.13796159E+04</pdfrwt>
<totfact> 0.11068179E-01</totfact>
</mgrwt>
</event>
<event>
 4    1  0.2731969E-009  0.1647059E+04  0.7818608E-02  0.8792148E-01
         -1   -1    0    0    0  501 -0.00000000000E+00  0.00000000000E+00  0.14582857533E+04  0.14582857533E+04  0.50400000000E-02 0.  1.
          1   -1    0    0  501    0  0.00000000000E+00 -0.00000000000E+00 -0.26127284875E+04  0.26127284875E+04  0.50400000000E-02 0. -1.
    8880022    1    1    2    0    0  0.15440322752E+04 -0.55260886206E+03 -0.16695844846E+04  0.23452752984E+04  0.15294330000E+03 0.  0.
    8880022    1    1    2    0    0 -0.15440322752E+04  0.55260886206E+03  0.51514175040E+03  0.17257389424E+04  0.15294330000E+03 0.  0.
<mgrwt>
<rscale>  0 0.16470592E+04</rscale>
<asrwt>0</asrwt>
<pdfrwt beam="1">  1        1 0.40195823E+00 0.16470592E+04</pdfrwt>
<pdfrwt beam="2">  1       -1 0.22435165E+00 0.16470592E+04</pdfrwt>
<totfact> 0.10791743E-01</totfact>
</mgrwt>
</event>
<event>
 4    1  0.2731969E-009  0.1951026E+03  0.7818608E-02  0.1153938E+00
         -1   -1    0    0    0  501 -0.00000000000E+00  0.00000000000E+00  0.31565939586E+02  0.31565939988E+02  0.50400000000E-02 0.  1.
          1   -1    0    0  501    0  0.00000000000E+00 -0.00000000000E+00 -0.18771035750E+04  0.18771035750E+04  0.50400000000E-02 0. -1.
    8880022    1    1    2    0    0 -0.66956044835E+02 -0.10094679528E+03 -0.35209584673E+03  0.40253758299E+03  0.15294330000E+03 0.  0.
    8880022    1    1    2    0    0  0.66956044835E+02  0.10094679528E+03 -0.14934417887E+04  0.15061319320E+04  0.15294330000E+03 0.  0.
<mgrwt>
<rscale>  0 0.19510259E+03</rscale>
<asrwt>0</asrwt>
<pdfrwt beam="1">  1        1 0.28878508E+00 0.19510259E+03</pdfrwt>
<pdfrwt beam="2">  1       -1 0.48562999E-02 0.19510259E+03</pdfrwt>
<totfact> 0.75249656E+02</totfact>
</mgrwt>
</event>
<event>
 4    1  0.2731969E-009  0.1121793E+04  0.7818608E-02  0.9184208E-01
          1   -1    0    0  501    0  0.00000000000E+00  0.00000000000E+00  0.11022265151E+04  0.11022265151E+04  0.50400000000E-02 0. -1.
         -1   -1    0    0    0  501 -0.00000000000E+00 -0.00000000000E+00 -0.21009295674E+04  0.21009295674E+04  0.50400000000E-02 0.  1.
    8880022    1    1    2    0    0  0.11110427022E+04 -0.24722884095E+02 -0.15815383746E+04  0.19389900439E+04  0.15294330000E+03 0.  0.
    8880022    1    1    2    0    0 -0.11110427022E+04  0.24722884095E+02  0.58283532234E+03  0.12641660386E+04  0.15294330000E+03 0.  0.
<mgrwt>
<rscale>  0 0.11217927E+04</rscale>
<asrwt>0</asrwt>
<pdfrwt beam="1">  1        1 0.16957331E+00 0.11217927E+04</pdfrwt>
<pdfrwt beam="2">  1       -1 0.32321993E+00 0.11217927E+04</pdfrwt>
<totfact> 0.29386191E-01</totfact>
</mgrwt>
</event>
<event>
 4    1  0.2731969E-009  0.1004226E+04  0.7818608E-02  0.9303922E-01
          1   -1    0    0  501    0  0.00000000000E+00  0.00000000000E+00  0.62640752173E+03  0.62640752175E+03  0.50400000000E-02 0. -1.
         -1   -1    0    0    0  501 -0.00000000000E+00 -0.00000000000E+00 -0.21541179552E+04  0.21541179552E+04  0.50400000000E-02 0.  1.
    8880022    1    1    2    0    0 -0.64178707677E+03 -0.75709148380E+03 -0.14626315068E+04  0.17741929840E+04  0.15294330000E+03 0.  0.
    8880022    1    1    2    0    0  0.64178707677E+03  0.75709148380E+03 -0.65078926712E+02  0.10063324930E+04  0.15294330000E+03 0.  0.
<mgrwt>
<rscale>  0 0.10042260E+04</rscale>
<asrwt>0</asrwt>
<pdfrwt beam="1">  1        1 0.96370389E-01 0.10042260E+04</pdfrwt>
<pdfrwt beam="2">  1       -1 0.33140276E+00 0.10042260E+04</pdfrwt>
<totfact> 0.67454366E-01</totfact>
</mgrwt>
</event>
<event>
 4    1  0.2731969E-009  0.7283294E+03  0.7818608E-02  0.9669975E-01
          1   -1    0    0  501    0  0.00000000000E+00  0.00000000000E+00  0.21643700051E+04  0.21643700051E+04  0.50400000000E-02 0. -1.
         -1   -1    0    0    0  501 -0.00000000000E+00 -0.00000000000E+00 -0.31510776587E+03  0.31510776591E+03  0.50400000000E-02 0.  1.
    8880022    1    1    2    0    0  0.14517787203E+03  0.69713368518E+03  0.34023492825E+03  0.80388024541E+03  0.15294330000E+03 0.  0.
    8880022    1    1    2    0    0 -0.14517787203E+03 -0.69713368518E+03  0.15090273110E+04  0.16755975256E+04  0.15294330000E+03 0.  0.
<mgrwt>
<rscale>  0 0.72832935E+03</rscale>
<asrwt>0</asrwt>
<pdfrwt beam="1">  1        1 0.33298001E+00 0.72832935E+03</pdfrwt>
<pdfrwt beam="2">  1       -1 0.48478117E-01 0.72832935E+03</pdfrwt>
<totfact> 0.10315555E+01</totfact>
</mgrwt>
</event>
<event>
 4    1  0.2731969E-009  0.5856658E+03  0.7818608E-02  0.9935600E-01
          1   -1    0    0  501    0  0.00000000000E+00  0.00000000000E+00  0.83588187875E+03  0.83588187876E+03  0.50400000000E-02 0. -1.
         -1   -1    0    0    0  501 -0.00000000000E+00 -0.00000000000E+00 -0.66864639911E+03  0.66864639913E+03  0.50400000000E-02 0.  1.
    8880022    1    1    2    0    0  0.54978677022E+03 -0.13170892146E+03 -0.38393544727E+03  0.70029337665E+03  0.15294330000E+03 0.  0.
    8880022    1    1    2    0    0 -0.54978677022E+03  0.13170892146E+03  0.55117092690E+03  0.80423490124E+03  0.15294330000E+03 0.  0.
<mgrwt>
<rscale>  0 0.58566576E+03</rscale>
<asrwt>0</asrwt>
<pdfrwt beam="1">  1        1 0.12859721E+00 0.58566576E+03</pdfrwt>
<pdfrwt beam="2">  1       -1 0.10286868E+00 0.58566576E+03</pdfrwt>
<totfact> 0.19319568E+01</totfact>
</mgrwt>
</event>
<event>
 4    1  0.2731969E-009  0.6351254E+03  0.7818608E-02  0.9835098E-01
          1   -1    0    0  501    0  0.00000000000E+00  0.00000000000E+00  0.17743080815E+04  0.17743080815E+04  0.50400000000E-02 0. -1.
         -1   -1    0    0    0  501 -0.00000000000E+00 -0.00000000000E+00 -0.50099462314E+03  0.50099462316E+03  0.50400000000E-02 0.  1.
    8880022    1    1    2    0    0  0.30812680031E+03 -0.53390116277E+03 -0.20413459588E+03  0.66712454829E+03  0.15294330000E+03 0.  0.
    8880022    1    1    2    0    0 -0.30812680031E+03  0.53390116277E+03  0.14774480542E+04  0.16081781564E+04  0.15294330000E+03 0.  0.
<mgrwt>
<rscale>  0 0.63512537E+03</rscale>
<asrwt>0</asrwt>
<pdfrwt beam="1">  1        1 0.27297047E+00 0.63512537E+03</pdfrwt>
<pdfrwt beam="2">  1       -1 0.77076097E-01 0.63512537E+03</pdfrwt>
<totfact> 0.76280214E+00</totfact>
</mgrwt>
</event>
<event>
 4    1  0.2731969E-009  0.1049189E+04  0.7818608E-02  0.9256181E-01
          1   -1    0    0  501    0  0.00000000000E+00  0.00000000000E+00  0.21418570088E+04  0.21418570088E+04  0.50400000000E-02 0. -1.
         -1   -1    0    0    0  501 -0.00000000000E+00 -0.00000000000E+00 -0.74835875756E+03  0.74835875758E+03  0.50400000000E-02 0.  1.
    8880022    1    1    2    0    0 -0.34178150560E+03  0.98009794130E+03 -0.11204173735E+03  0.10551547640E+04  0.15294330000E+03 0.  0.
    8880022    1    1    2    0    0  0.34178150560E+03 -0.98009794130E+03  0.15055399886E+04  0.18350610023E+04  0.15294330000E+03 0.  0.
<mgrwt>
<rscale>  0 0.10491893E+04</rscale>
<asrwt>0</asrwt>
<pdfrwt beam="1">  1        1 0.32951646E+00 0.10491893E+04</pdfrwt>
<pdfrwt beam="2">  1       -1 0.11513212E+00 0.10491893E+04</pdfrwt>
<totfact> 0.16429319E+00</totfact>
</mgrwt>
</event>
<event>
 4    1  0.2731969E-009  0.1223837E+04  0.7818608E-02  0.9092245E-01
         -1   -1    0    0    0  501 -0.00000000000E+00  0.00000000000E+00  0.54609485825E+03  0.54609485827E+03  0.50400000000E-02 0.  1.
          1   -1    0    0  501    0  0.00000000000E+00 -0.00000000000E+00 -0.48248029158E+04  0.48248029158E+04  0.50400000000E-02 0. -1.
    8880022    1    1    2    0    0  0.12091359512E+04 -0.11124062136E+03 -0.37523489801E+03  0.12800691802E+04  0.15294330000E+03 0.  0.
    8880022    1    1    2    0    0 -0.12091359512E+04  0.11124062136E+03 -0.39034731596E+04  0.40908285939E+04  0.15294330000E+03 0.  0.
<mgrwt>
<rscale>  0 0.12238365E+04</rscale>
<asrwt>0</asrwt>
<pdfrwt beam="1">  1        1 0.74227734E+00 0.12238365E+04</pdfrwt>
<pdfrwt beam="2">  1       -1 0.84014597E-01 0.12238365E+04</pdfrwt>
<totfact> 0.20660956E-02</totfact>
</mgrwt>
</event>
<event>
 4    1  0.2731969E-009  0.2633759E+03  0.7818608E-02  0.1105132E+00
          1   -1    0    0  501    0  0.00000000000E+00  0.00000000000E+00  0.58796582155E+03  0.58796582158E+03  0.50400000000E-02 0. -1.
         -1   -1    0    0    0  501 -0.00000000000E+00 -0.00000000000E+00 -0.17698843881E+03  0.17698843888E+03  0.50400000000E-02 0.  1.
    8880022    1    1    2    0    0  0.71468886844E+02  0.20215694269E+03 -0.15361798917E+02  0.26382355685E+03  0.15294330000E+03 0.  0.
    8880022    1    1    2    0    0 -0.71468886844E+02 -0.20215694269E+03  0.42633918166E+03  0.50113070361E+03  0.15294330000E+03 0.  0.
<mgrwt>
<rscale>  0 0.26337594E+03</rscale>
<asrwt>0</asrwt>
<pdfrwt beam="1">  1        1 0.90456281E-01 0.26337594E+03</pdfrwt>
<pdfrwt beam="2">  1       -1 0.27228990E-01 0.26337594E+03</pdfrwt>
<totfact> 0.43914476E+02</totfact>
</mgrwt>
</event>
<event>
 4    1  0.2731969E-009  0.5957550E+03  0.7818608E-02  0.9914252E-01
         -1   -1    0    0    0  501 -0.00000000000E+00  0.00000000000E+00  0.14130768416E+04  0.14130768416E+04  0.50400000000E-02 0.  1.
          1   -1    0    0  501    0  0.00000000000E+00 -0.00000000000E+00 -0.10866856976E+04  0.10866856976E+04  0.50400000000E-02 0. -1.
    8880022    1    1    2    0    0  0.41252605827E+03  0.40168965638E+03 -0.93276219939E+03  0.11067833132E+04  0.15294330000E+03 0.  0.
    8880022    1    1    2    0    0 -0.41252605827E+03 -0.40168965638E+03  0.12591533434E+04  0.13929792260E+04  0.15294330000E+03 0.  0.
<mgrwt>
<rscale>  0 0.59575497E+03</rscale>
<asrwt>0</asrwt>
<pdfrwt beam="1">  1        1 0.16718241E+00 0.59575497E+03</pdfrwt>
<pdfrwt beam="2">  1       -1 0.21739644E+00 0.59575497E+03</pdfrwt>
<totfact> 0.16083398E+00</totfact>
</mgrwt>
</event>
<event>
 4    1  0.2731969E-009  0.2330064E+03  0.7818608E-02  0.1124541E+00
          1   -1    0    0  501    0  0.00000000000E+00  0.00000000000E+00  0.16191415744E+04  0.16191415744E+04  0.50400000000E-02 0. -1.
         -1   -1    0    0    0  501 -0.00000000000E+00 -0.00000000000E+00 -0.19106978273E+03  0.19106978280E+03  0.50400000000E-02 0.  1.
    8880022    1    1    2    0    0 -0.16705081513E+03  0.54720538179E+02  0.15358934988E+04  0.15534673491E+04  0.15294330000E+03 0.  0.
    8880022    1    1    2    0    0  0.16705081513E+03 -0.54720538179E+02 -0.10782170714E+03  0.25674400807E+03  0.15294330000E+03 0.  0.
<mgrwt>
<rscale>  0 0.23300636E+03</rscale>
<asrwt>0</asrwt>
<pdfrwt beam="1">  1        1 0.24909871E+00 0.23300636E+03</pdfrwt>
<pdfrwt beam="2">  1       -1 0.29395351E-01 0.23300636E+03</pdfrwt>
<totfact> 0.64703383E+01</totfact>
</mgrwt>
</event>
<event>
 4    1  0.2731969E-009  0.1176471E+04  0.7818608E-02  0.9133704E-01
         -1   -1    0    0    0  501 -0.00000000000E+00  0.00000000000E+00  0.96969684116E+03  0.96969684117E+03  0.50400000000E-02 0.  1.
          1   -1    0    0  501    0  0.00000000000E+00 -0.00000000000E+00 -0.18467944397E+04  0.18467944397E+04  0.50400000000E-02 0. -1.
    8880022    1    1    2    0    0 -0.10699718588E+04  0.46460054373E+03 -0.11096879867E+04  0.16172484425E+04  0.15294330000E+03 0.  0.
    8880022    1    1    2    0    0  0.10699718588E+04 -0.46460054373E+03  0.23259038813E+03  0.11992428384E+04  0.15294330000E+03 0.  0.
<mgrwt>
<rscale>  0 0.11764715E+04</rscale>
<asrwt>0</asrwt>
<pdfrwt beam="1">  1        1 0.28412222E+00 0.11764715E+04</pdfrwt>
<pdfrwt beam="2">  1       -1 0.14918413E+00 0.11764715E+04</pdfrwt>
<totfact> 0.13205034E+00</totfact>
</mgrwt>
</event>
<event>
 4    1  0.2731969E-009  0.9570958E+03  0.7818608E-02  0.9356895E-01
          1   -1    0    0  501    0  0.00000000000E+00  0.00000000000E+00  0.23487032190E+04  0.23487032190E+04  0.50400000000E-02 0. -1.
         -1   -1    0    0    0  501 -0.00000000000E+00 -0.00000000000E+00 -0.14100564840E+04  0.14100564840E+04  0.50400000000E-02 0.  1.
    8880022    1    1    2    0    0  0.10925121456E+03  0.93845880435E+03 -0.11291483773E+04  0.14802055486E+04  0.15294330000E+03 0.  0.
    8880022    1    1    2    0    0 -0.10925121456E+03 -0.93845880435E+03  0.20677951123E+04  0.22785541544E+04  0.15294330000E+03 0.  0.
<mgrwt>
<rscale>  0 0.95709582E+03</rscale>
<asrwt>0</asrwt>
<pdfrwt beam="1">  1        1 0.36133895E+00 0.95709582E+03</pdfrwt>
<pdfrwt beam="2">  1       -1 0.21693177E+00 0.95709582E+03</pdfrwt>
<totfact> 0.20433026E-01</totfact>
</mgrwt>
</event>
<event>
 4    1  0.2731969E-009  0.1251165E+04  0.7818608E-02  0.9069214E-01
         -1   -1    0    0    0  501 -0.00000000000E+00  0.00000000000E+00  0.88875104618E+03  0.88875104619E+03  0.50400000000E-02 0.  1.
          1   -1    0    0  501    0  0.00000000000E+00 -0.00000000000E+00 -0.22867009907E+04  0.22867009907E+04  0.50400000000E-02 0. -1.
    8880022    1    1    2    0    0 -0.51778961438E+03 -0.11286786262E+04 -0.14599848434E+04  0.19227503535E+04  0.15294330000E+03 0.  0.
    8880022    1    1    2    0    0  0.51778961438E+03  0.11286786262E+04  0.62034898815E+02  0.12527016834E+04  0.15294330000E+03 0.  0.
<mgrwt>
<rscale>  0 0.12511647E+04</rscale>
<asrwt>0</asrwt>
<pdfrwt beam="1">  1        1 0.35180015E+00 0.12511647E+04</pdfrwt>
<pdfrwt beam="2">  1       -1 0.13673093E+00 0.12511647E+04</pdfrwt>
<totfact> 0.82944803E-01</totfact>
</mgrwt>
</event>
<event>
 4    1  0.2731969E-009  0.4859599E+03  0.7818608E-02  0.1017510E+00
          1   -1    0    0  501    0  0.00000000000E+00  0.00000000000E+00  0.63981358364E+03  0.63981358366E+03  0.50400000000E-02 0. -1.
         -1   -1    0    0    0  501 -0.00000000000E+00 -0.00000000000E+00 -0.64226173326E+03  0.64226173328E+03  0.50400000000E-02 0.  1.
    8880022    1    1    2    0    0  0.20552799546E+03  0.41294506668E+03  0.41683259653E+03  0.64023937052E+03  0.15294330000E+03 0.  0.
    8880022    1    1    2    0    0 -0.20552799546E+03 -0.41294506668E+03 -0.41928074615E+03  0.64183594642E+03  0.15294330000E+03 0.  0.
<mgrwt>
<rscale>  0 0.48595991E+03</rscale>
<asrwt>0</asrwt>
<pdfrwt beam="1">  1        1 0.98432860E-01 0.48595991E+03</pdfrwt>
<pdfrwt beam="2">  1       -1 0.98809497E-01 0.48595991E+03</pdfrwt>
<totfact> 0.32321069E+01</totfact>
</mgrwt>
</event>
<event>
 4    1  0.2731969E-009  0.1011383E+04  0.7818608E-02  0.9296147E-01
         -1   -1    0    0    0  501 -0.00000000000E+00  0.00000000000E+00  0.10921213429E+04  0.10921213429E+04  0.50400000000E-02 0.  1.
          1   -1    0    0  501    0  0.00000000000E+00 -0.00000000000E+00 -0.14988776169E+04  0.14988776169E+04  0.50400000000E-02 0. -1.
    8880022    1    1    2    0    0  0.66991461889E+03  0.74210453558E+03 -0.99683634619E+03  0.14200630593E+04  0.15294330000E+03 0.  0.
    8880022    1    1    2    0    0 -0.66991461889E+03 -0.74210453558E+03  0.59008007224E+03  0.11709359005E+04  0.15294330000E+03 0.  0.
<mgrwt>
<rscale>  0 0.10113834E+04</rscale>
<asrwt>0</asrwt>
<pdfrwt beam="1">  1        1 0.23059656E+00 0.10113834E+04</pdfrwt>
<pdfrwt beam="2">  1       -1 0.16801867E+00 0.10113834E+04</pdfrwt>
<totfact> 0.16748984E+00</totfact>
</mgrwt>
</event>
<event>
 4    1  0.2731969E-009  0.8437242E+03  0.7818608E-02  0.9498799E-01
         -1   -1    0    0    0  501 -0.00000000000E+00  0.00000000000E+00  0.27376007990E+04  0.27376007990E+04  0.50400000000E-02 0.  1.
          1   -1    0    0  501    0  0.00000000000E+00 -0.00000000000E+00 -0.14698107991E+04  0.14698107991E+04  0.50400000000E-02 0. -1.
    8880022    1    1    2    0    0  0.35853389488E+02 -0.82897132902E+03  0.25424594398E+04  0.26788002139E+04  0.15294330000E+03 0.  0.
    8880022    1    1    2    0    0 -0.35853389488E+02  0.82897132902E+03 -0.12746694399E+04  0.15286113842E+04  0.15294330000E+03 0.  0.
<mgrwt>
<rscale>  0 0.84372423E+03</rscale>
<asrwt>0</asrwt>
<pdfrwt beam="1">  1        1 0.22612474E+00 0.84372423E+03</pdfrwt>
<pdfrwt beam="2">  1       -1 0.42116935E+00 0.84372423E+03</pdfrwt>
<totfact> 0.37503493E-02</totfact>
</mgrwt>
</event>
<event>
 4    1  0.2731969E-009  0.8388356E+03  0.7818608E-02  0.9505445E-01
          1   -1    0    0  501    0  0.00000000000E+00  0.00000000000E+00  0.37166047248E+04  0.37166047248E+04  0.50400000000E-02 0. -1.
         -1   -1    0    0    0  501 -0.00000000000E+00 -0.00000000000E+00 -0.66917525467E+03  0.66917525469E+03  0.50400000000E-02 0.  1.
    8880022    1    1    2    0    0 -0.66513577851E+03  0.48769654869E+03 -0.33323392305E+03  0.90260181029E+03  0.15294330000E+03 0.  0.
    8880022    1    1    2    0    0  0.66513577851E+03 -0.48769654869E+03  0.33806633932E+04  0.34831781692E+04  0.15294330000E+03 0.  0.
<mgrwt>
<rscale>  0 0.83883561E+03</rscale>
<asrwt>0</asrwt>
<pdfrwt beam="1">  1        1 0.57178534E+00 0.83883561E+03</pdfrwt>
<pdfrwt beam="2">  1       -1 0.10295004E+00 0.83883561E+03</pdfrwt>
<totfact> 0.16143970E-01</totfact>
</mgrwt>
</event>
<event>
 4    1  0.2731969E-009  0.7868151E+03  0.7818608E-02  0.9579300E-01
         -1   -1    0    0    0  501 -0.00000000000E+00  0.00000000000E+00  0.71855247708E+03  0.71855247710E+03  0.50400000000E-02 0.  1.
          1   -1    0    0  501    0  0.00000000000E+00 -0.00000000000E+00 -0.11402239571E+04  0.11402239571E+04  0.50400000000E-02 0. -1.
    8880022    1    1    2    0    0 -0.34372722062E+03 -0.69104116822E+03  0.24861657417E+03  0.82515947085E+03  0.15294330000E+03 0.  0.
    8880022    1    1    2    0    0  0.34372722062E+03  0.69104116822E+03 -0.67028805421E+03  0.10336169634E+04  0.15294330000E+03 0.  0.
<mgrwt>
<rscale>  0 0.78681507E+03</rscale>
<asrwt>0</asrwt>
<pdfrwt beam="1">  1        1 0.17541907E+00 0.78681507E+03</pdfrwt>
<pdfrwt beam="2">  1       -1 0.11054653E+00 0.78681507E+03</pdfrwt>
<totfact> 0.91815938E+00</totfact>
</mgrwt>
</event>
<event>
 4    1  0.2731969E-009  0.1150354E+04  0.7818608E-02  0.9157457E-01
         -1   -1    0    0    0  501 -0.00000000000E+00  0.00000000000E+00  0.53558238446E+03  0.53558238448E+03  0.50400000000E-02 0.  1.
          1   -1    0    0  501    0  0.00000000000E+00 -0.00000000000E+00 -0.37815943425E+04  0.37815943425E+04  0.50400000000E-02 0. -1.
    8880022    1    1    2    0    0  0.14547295606E+03 -0.11308225112E+04 -0.35213728043E+03  0.12030437440E+04  0.15294330000E+03 0.  0.
    8880022    1    1    2    0    0 -0.14547295606E+03  0.11308225112E+04 -0.28938746777E+04  0.31141329830E+04  0.15294330000E+03 0.  0.
<mgrwt>
<rscale>  0 0.11503537E+04</rscale>
<asrwt>0</asrwt>
<pdfrwt beam="1">  1        1 0.58178373E+00 0.11503537E+04</pdfrwt>
<pdfrwt beam="2">  1       -1 0.82397292E-01 0.11503537E+04</pdfrwt>
<totfact> 0.22052080E-01</totfact>
</mgrwt>
</event>
<event>
 4    1  0.2731969E-009  0.7599241E+03  0.7818608E-02  0.9619908E-01
         -1   -1    0    0    0  501 -0.00000000000E+00  0.00000000000E+00  0.97767652797E+03  0.97767652798E+03  0.50400000000E-02 0.  1.
          1   -1    0    0  501    0  0.00000000000E+00 -0.00000000000E+00 -0.14856520970E+04  0.14856520970E+04  0.50400000000E-02 0. -1.
    8880022    1    1    2    0    0  0.73069826908E+02  0.74077915887E+03  0.70197473998E+03  0.10345304009E+04  0.15294330000E+03 0.  0.
    8880022    1    1    2    0    0 -0.73069826908E+02 -0.74077915887E+03 -0.12099503090E+04  0.14287982241E+04  0.15294330000E+03 0.  0.
<mgrwt>
<rscale>  0 0.75992408E+03</rscale>
<asrwt>0</asrwt>
<pdfrwt beam="1">  1        1 0.22856186E+00 0.75992408E+03</pdfrwt>
<pdfrwt beam="2">  1       -1 0.15041177E+00 0.75992408E+03</pdfrwt>
<totfact> 0.24199873E+00</totfact>
</mgrwt>
</event>
<event>
 4    1  0.2731969E-009  0.5889380E+03  0.7818608E-02  0.9928626E-01
          1   -1    0    0  501    0  0.00000000000E+00  0.00000000000E+00  0.94090222728E+03  0.94090222730E+03  0.50400000000E-02 0. -1.
         -1   -1    0    0    0  501 -0.00000000000E+00 -0.00000000000E+00 -0.45293382974E+03  0.45293382977E+03  0.50400000000E-02 0.  1.
    8880022    1    1    2    0    0  0.56339852913E+03  0.77707499109E+02 -0.56678221049E+02  0.59165905030E+03  0.15294330000E+03 0.  0.
    8880022    1    1    2    0    0 -0.56339852913E+03 -0.77707499109E+02  0.54464661859E+03  0.80217700677E+03  0.15294330000E+03 0.  0.
<mgrwt>
<rscale>  0 0.58893804E+03</rscale>
<asrwt>0</asrwt>
<pdfrwt beam="1">  1        1 0.14475419E+00 0.58893804E+03</pdfrwt>
<pdfrwt beam="2">  1       -1 0.69682128E-01 0.58893804E+03</pdfrwt>
<totfact> 0.36693912E+01</totfact>
</mgrwt>
</event>
<event>
 4    1  0.2731969E-009  0.6094625E+03  0.7818608E-02  0.9885967E-01
          1   -1    0    0  501    0  0.00000000000E+00  0.00000000000E+00  0.12135497908E+04  0.12135497908E+04  0.50400000000E-02 0. -1.
         -1   -1    0    0    0  501 -0.00000000000E+00 -0.00000000000E+00 -0.54227752685E+03  0.54227752687E+03  0.50400000000E-02 0.  1.
    8880022    1    1    2    0    0  0.28301854825E+03 -0.51764211180E+03 -0.24376291416E+03  0.65640297523E+03  0.15294330000E+03 0.  0.
    8880022    1    1    2    0    0 -0.28301854825E+03  0.51764211180E+03  0.91503517808E+03  0.10994243424E+04  0.15294330000E+03 0.  0.
<mgrwt>
<rscale>  0 0.60946247E+03</rscale>
<asrwt>0</asrwt>
<pdfrwt beam="1">  1        1 0.18669997E+00 0.60946247E+03</pdfrwt>
<pdfrwt beam="2">  1       -1 0.83427312E-01 0.60946247E+03</pdfrwt>
<totfact> 0.15697640E+01</totfact>
</mgrwt>
</event>
<event>
 4    1  0.2731969E-009  0.1430234E+04  0.7818608E-02  0.8932220E-01
          1   -1    0    0  501    0  0.00000000000E+00  0.00000000000E+00  0.31262148558E+04  0.31262148558E+04  0.50400000000E-02 0. -1.
         -1   -1    0    0    0  501 -0.00000000000E+00 -0.00000000000E+00 -0.14702949983E+04  0.14702949984E+04  0.50400000000E-02 0.  1.
    8880022    1    1    2    0    0 -0.14183196875E+04 -0.10270319000E+03  0.25400721260E+04  0.29150534711E+04  0.15294330000E+03 0.  0.
    8880022    1    1    2    0    0  0.14183196875E+04  0.10270319000E+03 -0.88415226853E+03  0.16814563831E+04  0.15294330000E+03 0.  0.
<mgrwt>
<rscale>  0 0.14302344E+04</rscale>
<asrwt>0</asrwt>
<pdfrwt beam="1">  1        1 0.48095612E+00 0.14302344E+04</pdfrwt>
<pdfrwt beam="2">  1       -1 0.22619924E+00 0.14302344E+04</pdfrwt>
<totfact> 0.46196418E-02</totfact>
</mgrwt>
</event>
<event>
 4    1  0.2731969E-009  0.5449477E+03  0.7818608E-02  0.1002670E+00
          1   -1    0    0  501    0  0.00000000000E+00  0.00000000000E+00  0.75655949839E+03  0.75655949841E+03  0.50400000000E-02 0. -1.
         -1   -1    0    0    0  501 -0.00000000000E+00 -0.00000000000E+00 -0.14030537854E+04  0.14030537854E+04  0.50400000000E-02 0.  1.
    8880022    1    1    2    0    0  0.42290173996E+03  0.30778318915E+03 -0.12396434257E+04  0.13541358311E+04  0.15294330000E+03 0.  0.
    8880022    1    1    2    0    0 -0.42290173996E+03 -0.30778318915E+03  0.59314913865E+03  0.80547745275E+03  0.15294330000E+03 0.  0.
<mgrwt>
<rscale>  0 0.54494773E+03</rscale>
<asrwt>0</asrwt>
<pdfrwt beam="1">  1        1 0.11639377E+00 0.54494773E+03</pdfrwt>
<pdfrwt beam="2">  1       -1 0.21585443E+00 0.54494773E+03</pdfrwt>
<totfact> 0.30702760E+00</totfact>
</mgrwt>
</event>
<event>
 4    1  0.2731969E-009  0.1404576E+04  0.7818608E-02  0.8950513E-01
          1   -1    0    0  501    0  0.00000000000E+00  0.00000000000E+00  0.12291722242E+04  0.12291722242E+04  0.50400000000E-02 0. -1.
         -1   -1    0    0    0  501 -0.00000000000E+00 -0.00000000000E+00 -0.20630156089E+04  0.20630156089E+04  0.50400000000E-02 0.  1.
    8880022    1    1    2    0    0 -0.80132400748E+02 -0.13939225304E+04 -0.11925239665E+04  0.18425380013E+04  0.15294330000E+03 0.  0.
    8880022    1    1    2    0    0  0.80132400748E+02  0.13939225304E+04  0.35868058186E+03  0.14496498319E+04  0.15294330000E+03 0.  0.
<mgrwt>
<rscale>  0 0.14045757E+04</rscale>
<asrwt>0</asrwt>
<pdfrwt beam="1">  1        1 0.18910342E+00 0.14045757E+04</pdfrwt>
<pdfrwt beam="2">  1       -1 0.31738702E+00 0.14045757E+04</pdfrwt>
<totfact> 0.24846227E-01</totfact>
</mgrwt>
</event>
<event>
 4    1  0.2731969E-009  0.7052965E+03  0.7818608E-02  0.9708217E-01
          1   -1    0    0  501    0  0.00000000000E+00  0.00000000000E+00  0.78732047372E+03  0.78732047373E+03  0.50400000000E-02 0. -1.
         -1   -1    0    0    0  501 -0.00000000000E+00 -0.00000000000E+00 -0.84932584532E+03  0.84932584533E+03  0.50400000000E-02 0.  1.
    8880022    1    1    2    0    0  0.68711757162E+03  0.43828778409E+02 -0.44512175635E+03  0.83401232008E+03  0.15294330000E+03 0.  0.
    8880022    1    1    2    0    0 -0.68711757162E+03 -0.43828778409E+02  0.38311638475E+03  0.80263399899E+03  0.15294330000E+03 0.  0.
<mgrwt>
<rscale>  0 0.70529651E+03</rscale>
<asrwt>0</asrwt>
<pdfrwt beam="1">  1        1 0.12112623E+00 0.70529651E+03</pdfrwt>
<pdfrwt beam="2">  1       -1 0.13066551E+00 0.70529651E+03</pdfrwt>
<totfact> 0.11768342E+01</totfact>
</mgrwt>
</event>
<event>
 4    1  0.2731969E-009  0.8470493E+03  0.7818608E-02  0.9494306E-01
         -1   -1    0    0    0  501 -0.00000000000E+00  0.00000000000E+00  0.65288015995E+03  0.65288015997E+03  0.50400000000E-02 0.  1.
          1   -1    0    0  501    0  0.00000000000E+00 -0.00000000000E+00 -0.23338956054E+04  0.23338956054E+04  0.50400000000E-02 0. -1.
    8880022    1    1    2    0    0 -0.49517993954E+03  0.66999833550E+03  0.24580069922E+03  0.88199239161E+03  0.15294330000E+03 0.  0.
    8880022    1    1    2    0    0  0.49517993954E+03 -0.66999833550E+03 -0.19268161446E+04  0.21047833737E+04  0.15294330000E+03 0.  0.
<mgrwt>
<rscale>  0 0.84704935E+03</rscale>
<asrwt>0</asrwt>
<pdfrwt beam="1">  1        1 0.35906086E+00 0.84704935E+03</pdfrwt>
<pdfrwt beam="2">  1       -1 0.10044310E+00 0.84704935E+03</pdfrwt>
<totfact> 0.17339460E+00</totfact>
</mgrwt>
</event>
<event>
 4    1  0.2731969E-009  0.7104161E+03  0.7818608E-02  0.9699583E-01
          1   -1    0    0  501    0  0.00000000000E+00  0.00000000000E+00  0.17125955213E+04  0.17125955213E+04  0.50400000000E-02 0. -1.
         -1   -1    0    0    0  501 -0.00000000000E+00 -0.00000000000E+00 -0.14530258527E+04  0.14530258527E+04  0.50400000000E-02 0.  1.
    8880022    1    1    2    0    0  0.25948385831E+03 -0.64340303657E+03  0.15430018954E+04  0.16986894485E+04  0.15294330000E+03 0.  0.
    8880022    1    1    2    0    0 -0.25948385831E+03  0.64340303657E+03 -0.12834322268E+04  0.14669319255E+04  0.15294330000E+03 0.  0.
<mgrwt>
<rscale>  0 0.71041607E+03</rscale>
<asrwt>0</asrwt>
<pdfrwt beam="1">  1        1 0.26347624E+00 0.71041607E+03</pdfrwt>
<pdfrwt beam="2">  1       -1 0.22354244E+00 0.71041607E+03</pdfrwt>
<totfact> 0.52168971E-01</totfact>
</mgrwt>
</event>
<event>
 4    1  0.2731969E-009  0.2039258E+04  0.7818608E-02  0.8588483E-01
         -1   -1    0    0    0  501 -0.00000000000E+00  0.00000000000E+00  0.13673494271E+04  0.13673494271E+04  0.50400000000E-02 0.  1.
          1   -1    0    0  501    0  0.00000000000E+00 -0.00000000000E+00 -0.35539145679E+04  0.35539145679E+04  0.50400000000E-02 0. -1.
    8880022    1    1    2    0    0  0.16810704975E+04 -0.11441949631E+04 -0.15879711572E+03  0.20454310813E+04  0.15294330000E+03 0.  0.
    8880022    1    1    2    0    0 -0.16810704975E+04  0.11441949631E+04 -0.20277680251E+04  0.28758329138E+04  0.15294330000E+03 0.  0.
<mgrwt>
<rscale>  0 0.20392577E+04</rscale>
<asrwt>0</asrwt>
<pdfrwt beam="1">  1        1 0.54675608E+00 0.20392577E+04</pdfrwt>
<pdfrwt beam="2">  1       -1 0.21036145E+00 0.20392577E+04</pdfrwt>
<totfact> 0.25750422E-02</totfact>
</mgrwt>
</event>
<event>
 4    1  0.2731969E-009  0.2963683E+03  0.7818608E-02  0.1087070E+00
         -1   -1    0    0    0  501 -0.00000000000E+00  0.00000000000E+00  0.30899086870E+03  0.30899086874E+03  0.50400000000E-02 0.  1.
          1   -1    0    0  501    0  0.00000000000E+00 -0.00000000000E+00 -0.38336876284E+03  0.38336876287E+03  0.50400000000E-02 0. -1.
    8880022    1    1    2    0    0 -0.17858410311E+03  0.18041681231E+03 -0.21320263941E+03  0.36508838178E+03  0.15294330000E+03 0. -1.
    8880022    1    1    2    0    0  0.17858410311E+03 -0.18041681231E+03  0.13882474526E+03  0.32727124982E+03  0.15294330000E+03 0.  0.
<mgrwt>
<rscale>  0 0.29636829E+03</rscale>
<asrwt>0</asrwt>
<pdfrwt beam="1">  1        1 0.58979810E-01 0.29636829E+03</pdfrwt>
<pdfrwt beam="2">  1       -1 0.47537057E-01 0.29636829E+03</pdfrwt>
<totfact> 0.29042258E+02</totfact>
</mgrwt>
</event>
<event>
 4    1  0.2731969E-009  0.1094253E+04  0.7818608E-02  0.9210812E-01
          1   -1    0    0  501    0  0.00000000000E+00  0.00000000000E+00  0.16336153564E+04  0.16336153564E+04  0.50400000000E-02 0. -1.
         -1   -1    0    0    0  501 -0.00000000000E+00 -0.00000000000E+00 -0.96809818590E+03  0.96809818591E+03  0.50400000000E-02 0.  1.
    8880022    1    1    2    0    0  0.84662244808E+03  0.67618638450E+03 -0.30833752527E+03  0.11368646703E+04  0.15294330000E+03 0.  0.
    8880022    1    1    2    0    0 -0.84662244808E+03 -0.67618638450E+03  0.97385469573E+03  0.14648488719E+04  0.15294330000E+03 0.  0.
<mgrwt>
<rscale>  0 0.10942528E+04</rscale>
<asrwt>0</asrwt>
<pdfrwt beam="1">  1        1 0.25132544E+00 0.10942528E+04</pdfrwt>
<pdfrwt beam="2">  1       -1 0.14893818E+00 0.10942528E+04</pdfrwt>
<totfact> 0.18707258E+00</totfact>
</mgrwt>
</event>
<event>
 4    1  0.2731969E-009  0.7327188E+03  0.7818608E-02  0.9662859E-01
          1   -1    0    0  501    0  0.00000000000E+00  0.00000000000E+00  0.35316527298E+04  0.35316527298E+04  0.50400000000E-02 0. -1.
         -1   -1    0    0    0  501 -0.00000000000E+00 -0.00000000000E+00 -0.19462898749E+03  0.19462898755E+03  0.50400000000E-02 0.  1.
    8880022    1    1    2    0    0  0.43971368158E+03 -0.56580658723E+03  0.79674628578E+03  0.10824423831E+04  0.15294330000E+03 0.  0.
    8880022    1    1    2    0    0 -0.43971368158E+03  0.56580658723E+03  0.25402774566E+04  0.26438393342E+04  0.15294330000E+03 0.  0.
<mgrwt>
<rscale>  0 0.73271882E+03</rscale>
<asrwt>0</asrwt>
<pdfrwt beam="1">  1        1 0.54333119E+00 0.73271882E+03</pdfrwt>
<pdfrwt beam="2">  1       -1 0.29942921E-01 0.73271882E+03</pdfrwt>
<totfact> 0.26279417E+00</totfact>
</mgrwt>
</event>
<event>
 4    1  0.2731969E-009  0.1449572E+04  0.7818608E-02  0.8918697E-01
          1   -1    0    0  501    0  0.00000000000E+00  0.00000000000E+00  0.16568375324E+04  0.16568375324E+04  0.50400000000E-02 0. -1.
         -1   -1    0    0    0  501 -0.00000000000E+00 -0.00000000000E+00 -0.12973162576E+04  0.12973162576E+04  0.50400000000E-02 0.  1.
    8880022    1    1    2    0    0  0.73716593916E+03  0.12387310142E+04 -0.41388233637E+02  0.14501630206E+04  0.15294330000E+03 0.  0.
    8880022    1    1    2    0    0 -0.73716593916E+03 -0.12387310142E+04  0.40090950851E+03  0.15039907694E+04  0.15294330000E+03 0.  0.
<mgrwt>
<rscale>  0 0.14495723E+04</rscale>
<asrwt>0</asrwt>
<pdfrwt beam="1">  1        1 0.25489808E+00 0.14495723E+04</pdfrwt>
<pdfrwt beam="2">  1       -1 0.19958712E+00 0.14495723E+04</pdfrwt>
<totfact> 0.73555491E-01</totfact>
</mgrwt>
</event>
<event>
 4    1  0.2731969E-009  0.8588104E+03  0.7818608E-02  0.9478588E-01
         -1   -1    0    0    0  501 -0.00000000000E+00  0.00000000000E+00  0.30179159803E+03  0.30179159807E+03  0.50400000000E-02 0.  1.
          1   -1    0    0  501    0  0.00000000000E+00 -0.00000000000E+00 -0.33306029154E+04  0.33306029154E+04  0.50400000000E-02 0. -1.
    8880022    1    1    2    0    0 -0.77184220285E+03  0.34412684011E+03 -0.57730744843E+03  0.10348136118E+04  0.15294330000E+03 0.  0.
    8880022    1    1    2    0    0  0.77184220285E+03 -0.34412684011E+03 -0.24515038690E+04  0.25975809017E+04  0.15294330000E+03 0.  0.
<mgrwt>
<rscale>  0 0.85881041E+03</rscale>
<asrwt>0</asrwt>
<pdfrwt beam="1">  1        1 0.51240042E+00 0.85881041E+03</pdfrwt>
<pdfrwt beam="2">  1       -1 0.46429479E-01 0.85881041E+03</pdfrwt>
<totfact> 0.16568323E+00</totfact>
</mgrwt>
</event>
<event>
 4    1  0.2731969E-009  0.9250905E+03  0.7818608E-02  0.9394749E-01
          1   -1    0    0  501    0  0.00000000000E+00  0.00000000000E+00  0.25725621071E+04  0.25725621071E+04  0.50400000000E-02 0. -1.
         -1   -1    0    0    0  501 -0.00000000000E+00 -0.00000000000E+00 -0.10543943944E+04  0.10543943945E+04  0.50400000000E-02 0.  1.
    8880022    1    1    2    0    0 -0.20126414098E+03  0.88988394767E+03 -0.74128851960E+03  0.11854539287E+04  0.15294330000E+03 0.  0.
    8880022    1    1    2    0    0  0.20126414098E+03 -0.88988394767E+03  0.22594562322E+04  0.24415025728E+04  0.15294330000E+03 0.  0.
<mgrwt>
<rscale>  0 0.92509045E+03</rscale>
<asrwt>0</asrwt>
<pdfrwt beam="1">  1        1 0.39577878E+00 0.92509045E+03</pdfrwt>
<pdfrwt beam="2">  1       -1 0.16221452E+00 0.92509045E+03</pdfrwt>
<totfact> 0.35081817E-01</totfact>
</mgrwt>
</event>
<event>
 4    1  0.2731969E-009  0.1044386E+04  0.7818608E-02  0.9261160E-01
         -1   -1    0    0    0  501 -0.00000000000E+00  0.00000000000E+00  0.24526237771E+04  0.24526237771E+04  0.50400000000E-02 0.  1.
          1   -1    0    0  501    0  0.00000000000E+00 -0.00000000000E+00 -0.18401247532E+04  0.18401247532E+04  0.50400000000E-02 0. -1.
    8880022    1    1    2    0    0 -0.15248118201E+03 -0.10218118744E+04  0.21753438892E+04  0.24130608585E+04  0.15294330000E+03 0.  0.
    8880022    1    1    2    0    0  0.15248118201E+03  0.10218118744E+04 -0.15628448652E+04  0.18796876718E+04  0.15294330000E+03 0.  0.
<mgrwt>
<rscale>  0 0.10443858E+04</rscale>
<asrwt>0</asrwt>
<pdfrwt beam="1">  1        1 0.28309612E+00 0.10443858E+04</pdfrwt>
<pdfrwt beam="2">  1       -1 0.37732673E+00 0.10443858E+04</pdfrwt>
<totfact> 0.39827108E-02</totfact>
</mgrwt>
</event>
<event>
 4    1  0.2731969E-009  0.8011795E+03  0.7818608E-02  0.9558311E-01
          1   -1    0    0  501    0  0.00000000000E+00  0.00000000000E+00  0.41163873664E+03  0.41163873667E+03  0.50400000000E-02 0. -1.
         -1   -1    0    0    0  501 -0.00000000000E+00 -0.00000000000E+00 -0.17776787183E+04  0.17776787183E+04  0.50400000000E-02 0.  1.
    8880022    1    1    2    0    0  0.69478746600E+03  0.36846617422E+03 -0.29939385793E+03  0.85529251116E+03  0.15294330000E+03 0.  0.
    8880022    1    1    2    0    0 -0.69478746600E+03 -0.36846617422E+03 -0.10666461237E+04  0.13340249438E+04  0.15294330000E+03 0.  0.
<mgrwt>
<rscale>  0 0.80117950E+03</rscale>
<asrwt>0</asrwt>
<pdfrwt beam="1">  1        1 0.63329037E-01 0.80117950E+03</pdfrwt>
<pdfrwt beam="2">  1       -1 0.27348903E+00 0.80117950E+03</pdfrwt>
<totfact> 0.29385262E+00</totfact>
</mgrwt>
</event>
<event>
 4    1  0.2731969E-009  0.8333847E+03  0.7818608E-02  0.9512913E-01
          1   -1    0    0  501    0  0.00000000000E+00  0.00000000000E+00  0.40385649424E+04  0.40385649425E+04  0.50400000000E-02 0. -1.
         -1   -1    0    0    0  501 -0.00000000000E+00 -0.00000000000E+00 -0.67091058217E+03  0.67091058219E+03  0.50400000000E-02 0.  1.
    8880022    1    1    2    0    0  0.50818480898E+03 -0.64256258847E+03  0.37144660242E+04  0.38068081089E+04  0.15294330000E+03 0.  0.
    8880022    1    1    2    0    0 -0.50818480898E+03  0.64256258847E+03 -0.34681166391E+03  0.90266741573E+03  0.15294330000E+03 0.  0.
<mgrwt>
<rscale>  0 0.83338474E+03</rscale>
<asrwt>0</asrwt>
<pdfrwt beam="1">  1        1 0.62131767E+00 0.83338474E+03</pdfrwt>
<pdfrwt beam="2">  1       -1 0.10321701E+00 0.83338474E+03</pdfrwt>
<totfact> 0.86267747E-02</totfact>
</mgrwt>
</event>
<event>
 4    1  0.2731969E-009  0.1146985E+04  0.7818608E-02  0.9160569E-01
          1   -1    0    0  501    0  0.00000000000E+00  0.00000000000E+00  0.81086903445E+03  0.81086903447E+03  0.50400000000E-02 0. -1.
         -1   -1    0    0    0  501 -0.00000000000E+00 -0.00000000000E+00 -0.18173749931E+04  0.18173749931E+04  0.50400000000E-02 0.  1.
    8880022    1    1    2    0    0  0.10506478471E+04 -0.43396211770E+03 -0.93365370840E+03  0.14789472331E+04  0.15294330000E+03 0.  0.
    8880022    1    1    2    0    0 -0.10506478471E+04  0.43396211770E+03 -0.72852250198E+02  0.11492967944E+04  0.15294330000E+03 0.  0.
<mgrwt>
<rscale>  0 0.11469855E+04</rscale>
<asrwt>0</asrwt>
<pdfrwt beam="1">  1        1 0.12474908E+00 0.11469855E+04</pdfrwt>
<pdfrwt beam="2">  1       -1 0.27959615E+00 0.11469855E+04</pdfrwt>
<totfact> 0.96064676E-01</totfact>
</mgrwt>
</event>
<event>
 4    1  0.2731969E-009  0.4784656E+03  0.7818608E-02  0.1019558E+00
          1   -1    0    0  501    0  0.00000000000E+00  0.00000000000E+00  0.13420325139E+04  0.13420325140E+04  0.50400000000E-02 0. -1.
         -1   -1    0    0    0  501 -0.00000000000E+00 -0.00000000000E+00 -0.22827972510E+04  0.22827972510E+04  0.50400000000E-02 0.  1.
    8880022    1    1    2    0    0 -0.25260743008E+03  0.37646671566E+03  0.12730007026E+04  0.13599485812E+04  0.15294330000E+03 0.  0.
    8880022    1    1    2    0    0  0.25260743008E+03 -0.37646671566E+03 -0.22137654396E+04  0.22648811837E+04  0.15294330000E+03 0.  0.
<mgrwt>
<rscale>  0 0.47846563E+03</rscale>
<asrwt>0</asrwt>
<pdfrwt beam="1">  1        1 0.20646654E+00 0.47846563E+03</pdfrwt>
<pdfrwt beam="2">  1       -1 0.35119958E+00 0.47846563E+03</pdfrwt>
<totfact> 0.15210445E-01</totfact>
</mgrwt>
</event>
<event>
 4    1  0.2731969E-009  0.1013384E+04  0.7818608E-02  0.9293986E-01
          1   -1    0    0  501    0  0.00000000000E+00  0.00000000000E+00  0.15698208987E+04  0.15698208987E+04  0.50400000000E-02 0. -1.
         -1   -1    0    0    0  501 -0.00000000000E+00 -0.00000000000E+00 -0.90598578520E+03  0.90598578522E+03  0.50400000000E-02 0.  1.
    8880022    1    1    2    0    0  0.32527612452E+03 -0.94749758806E+03  0.98453330166E+03  0.14128884286E+04  0.15294330000E+03 0.  0.
    8880022    1    1    2    0    0 -0.32527612452E+03  0.94749758806E+03 -0.32069818819E+03  0.10629182553E+04  0.15294330000E+03 0.  0.
<mgrwt>
<rscale>  0 0.10133844E+04</rscale>
<asrwt>0</asrwt>
<pdfrwt beam="1">  1        1 0.24151090E+00 0.10133844E+04</pdfrwt>
<pdfrwt beam="2">  1       -1 0.13938243E+00 0.10133844E+04</pdfrwt>
<totfact> 0.24926331E+00</totfact>
</mgrwt>
</event>
<event>
 4    1  0.2731969E-009  0.1107373E+04  0.7818608E-02  0.9198036E-01
         -1   -1    0    0    0  501 -0.00000000000E+00  0.00000000000E+00  0.87958494835E+03  0.87958494837E+03  0.50400000000E-02 0.  1.
          1   -1    0    0  501    0  0.00000000000E+00 -0.00000000000E+00 -0.14634179651E+04  0.14634179651E+04  0.50400000000E-02 0. -1.
    8880022    1    1    2    0    0 -0.10709885832E+04 -0.23635968473E+03 -0.37044460787E+02  0.11079920537E+04  0.15294330000E+03 0.  0.
    8880022    1    1    2    0    0  0.10709885832E+04  0.23635968473E+03 -0.54678855600E+03  0.12350108598E+04  0.15294330000E+03 0.  0.
<mgrwt>
<rscale>  0 0.11073726E+04</rscale>
<asrwt>0</asrwt>
<pdfrwt beam="1">  1        1 0.22514122E+00 0.11073726E+04</pdfrwt>
<pdfrwt beam="2">  1       -1 0.13532076E+00 0.11073726E+04</pdfrwt>
<totfact> 0.31502109E+00</totfact>
</mgrwt>
</event>
<event>
 4    1  0.2731969E-009  0.8440158E+03  0.7818608E-02  0.9498404E-01
          1   -1    0    0  501    0  0.00000000000E+00  0.00000000000E+00  0.90569565524E+03  0.90569565525E+03  0.50400000000E-02 0. -1.
         -1   -1    0    0    0  501 -0.00000000000E+00 -0.00000000000E+00 -0.91715693778E+03  0.91715693779E+03  0.50400000000E-02 0.  1.
    8880022    1    1    2    0    0  0.56715951241E+03  0.60605372357E+03 -0.34968855937E+03  0.91358895021E+03  0.15294330000E+03 0.  0.
    8880022    1    1    2    0    0 -0.56715951241E+03 -0.60605372357E+03  0.33822727683E+03  0.90926364284E+03  0.15294330000E+03 0.  0.
<mgrwt>
<rscale>  0 0.84401581E+03</rscale>
<asrwt>0</asrwt>
<pdfrwt beam="1">  1        1 0.13933779E+00 0.84401581E+03</pdfrwt>
<pdfrwt beam="2">  1       -1 0.14110107E+00 0.84401581E+03</pdfrwt>
<totfact> 0.75432008E+00</totfact>
</mgrwt>
</event>
<event>
 4    1  0.2731969E-009  0.2816208E+03  0.7818608E-02  0.1094807E+00
         -1   -1    0    0    0  501 -0.00000000000E+00  0.00000000000E+00  0.71252406523E+03  0.71252406525E+03  0.50400000000E-02 0.  1.
          1   -1    0    0  501    0  0.00000000000E+00 -0.00000000000E+00 -0.18495005733E+03  0.18495005740E+03  0.50400000000E-02 0. -1.
    8880022    1    1    2    0    0  0.22902046935E+03 -0.58891873998E+02 -0.19368469034E+02  0.28228605848E+03  0.15294330000E+03 0.  0.
    8880022    1    1    2    0    0 -0.22902046935E+03  0.58891873998E+02  0.54694247694E+03  0.61518806417E+03  0.15294330000E+03 0.  0.
<mgrwt>
<rscale>  0 0.28162081E+03</rscale>
<asrwt>0</asrwt>
<pdfrwt beam="1">  1        1 0.28453855E-01 0.28162081E+03</pdfrwt>
<pdfrwt beam="2">  1       -1 0.10961909E+00 0.28162081E+03</pdfrwt>
<totfact> 0.13330122E+02</totfact>
</mgrwt>
</event>
<event>
 4    1  0.2731969E-009  0.9082445E+03  0.7818608E-02  0.9415334E-01
         -1   -1    0    0    0  501 -0.00000000000E+00  0.00000000000E+00  0.39596438794E+03  0.39596438798E+03  0.50400000000E-02 0.  1.
          1   -1    0    0  501    0  0.00000000000E+00 -0.00000000000E+00 -0.25718141913E+04  0.25718141914E+04  0.50400000000E-02 0. -1.
    8880022    1    1    2    0    0 -0.88490507481E+03 -0.13586576915E+03 -0.44119148360E+03  0.10097316856E+04  0.15294330000E+03 0.  0.
    8880022    1    1    2    0    0  0.88490507481E+03  0.13586576915E+03 -0.17346583198E+04  0.19580468938E+04  0.15294330000E+03 0.  0.
<mgrwt>
<rscale>  0 0.90824454E+03</rscale>
<asrwt>0</asrwt>
<pdfrwt beam="1">  1        1 0.39566371E+00 0.90824454E+03</pdfrwt>
<pdfrwt beam="2">  1       -1 0.60917600E-01 0.90824454E+03</pdfrwt>
<totfact> 0.34115532E+00</totfact>
</mgrwt>
</event>
<event>
 4    1  0.2731969E-009  0.8117051E+03  0.7818608E-02  0.9543227E-01
          1   -1    0    0  501    0  0.00000000000E+00  0.00000000000E+00  0.59328732597E+03  0.59328732599E+03  0.50400000000E-02 0. -1.
         -1   -1    0    0    0  501 -0.00000000000E+00 -0.00000000000E+00 -0.19570552919E+04  0.19570552919E+04  0.50400000000E-02 0.  1.
    8880022    1    1    2    0    0 -0.35017964684E+03 -0.71613384520E+03  0.15677653497E+03  0.82670672202E+03  0.15294330000E+03 0.  0.
    8880022    1    1    2    0    0  0.35017964684E+03  0.71613384520E+03 -0.15205445009E+04  0.17236358959E+04  0.15294330000E+03 0.  0.
<mgrwt>
<rscale>  0 0.81170507E+03</rscale>
<asrwt>0</asrwt>
<pdfrwt beam="1">  1        1 0.91274974E-01 0.81170507E+03</pdfrwt>
<pdfrwt beam="2">  1       -1 0.30108543E+00 0.81170507E+03</pdfrwt>
<totfact> 0.11806354E+00</totfact>
</mgrwt>
</event>
<event>
 4    1  0.2731969E-009  0.4197237E+03  0.7818608E-02  0.1037156E+00
          1   -1    0    0  501    0  0.00000000000E+00  0.00000000000E+00  0.40862207721E+03  0.40862207724E+03  0.50400000000E-02 0. -1.
         -1   -1    0    0    0  501 -0.00000000000E+00 -0.00000000000E+00 -0.12672853317E+04  0.12672853318E+04  0.50400000000E-02 0.  1.
    8880022    1    1    2    0    0 -0.36013065745E+03  0.15192831951E+03 -0.11099867468E+04  0.11866922667E+04  0.15294330000E+03 0.  0.
    8880022    1    1    2    0    0  0.36013065745E+03 -0.15192831951E+03  0.25132349226E+03  0.48921514233E+03  0.15294330000E+03 0.  0.
<mgrwt>
<rscale>  0 0.41972367E+03</rscale>
<asrwt>0</asrwt>
<pdfrwt beam="1">  1        1 0.62864936E-01 0.41972367E+03</pdfrwt>
<pdfrwt beam="2">  1       -1 0.19496697E+00 0.41972367E+03</pdfrwt>
<totfact> 0.10353487E+01</totfact>
</mgrwt>
</event>
<event>
 4    1  0.2731969E-009  0.8609166E+03  0.7818608E-02  0.9475801E-01
          1   -1    0    0  501    0  0.00000000000E+00  0.00000000000E+00  0.13698452016E+04  0.13698452016E+04  0.50400000000E-02 0. -1.
         -1   -1    0    0    0  501 -0.00000000000E+00 -0.00000000000E+00 -0.80312274388E+03  0.80312274390E+03  0.50400000000E-02 0.  1.
    8880022    1    1    2    0    0  0.55270400925E+02 -0.84541755202E+03 -0.33726430960E+03  0.92462128573E+03  0.15294330000E+03 0.  0.
    8880022    1    1    2    0    0 -0.55270400925E+02  0.84541755202E+03  0.90398676731E+03  0.12483466598E+04  0.15294330000E+03 0.  0.
<mgrwt>
<rscale>  0 0.86091655E+03</rscale>
<asrwt>0</asrwt>
<pdfrwt beam="1">  1        1 0.21074541E+00 0.86091655E+03</pdfrwt>
<pdfrwt beam="2">  1       -1 0.12355735E+00 0.86091655E+03</pdfrwt>
<totfact> 0.47536432E+00</totfact>
</mgrwt>
</event>
<event>
 4    1  0.2731969E-009  0.8914118E+03  0.7818608E-02  0.9436381E-01
          1   -1    0    0  501    0  0.00000000000E+00  0.00000000000E+00  0.24879637369E+04  0.24879637369E+04  0.50400000000E-02 0. -1.
         -1   -1    0    0    0  501 -0.00000000000E+00 -0.00000000000E+00 -0.42840282859E+03  0.42840282862E+03  0.50400000000E-02 0.  1.
    8880022    1    1    2    0    0 -0.86668254785E+03  0.14172026366E+03  0.17653731607E+04  0.19776646130E+04  0.15294330000E+03 0.  0.
    8880022    1    1    2    0    0  0.86668254785E+03 -0.14172026366E+03  0.29418774762E+03  0.93870195257E+03  0.15294330000E+03 0.  0.
<mgrwt>
<rscale>  0 0.89141176E+03</rscale>
<asrwt>0</asrwt>
<pdfrwt beam="1">  1        1 0.38276364E+00 0.89141176E+03</pdfrwt>
<pdfrwt beam="2">  1       -1 0.65908130E-01 0.89141176E+03</pdfrwt>
<totfact> 0.33357504E+00</totfact>
</mgrwt>
</event>
<event>
 4    1  0.2731969E-009  0.8760785E+03  0.7818608E-02  0.9455989E-01
         -1   -1    0    0    0  501 -0.00000000000E+00  0.00000000000E+00  0.11898446563E+04  0.11898446563E+04  0.50400000000E-02 0.  1.
          1   -1    0    0  501    0  0.00000000000E+00 -0.00000000000E+00 -0.77213912781E+03  0.77213912783E+03  0.50400000000E-02 0. -1.
    8880022    1    1    2    0    0  0.63675350113E+03 -0.58195086511E+03 -0.18913142859E+03  0.89626122359E+03  0.15294330000E+03 0.  0.
    8880022    1    1    2    0    0 -0.63675350113E+03  0.58195086511E+03  0.60683695711E+03  0.10657225606E+04  0.15294330000E+03 0.  0.
<mgrwt>
<rscale>  0 0.87607847E+03</rscale>
<asrwt>0</asrwt>
<pdfrwt beam="1">  1        1 0.11879063E+00 0.87607847E+03</pdfrwt>
<pdfrwt beam="2">  1       -1 0.18305302E+00 0.87607847E+03</pdfrwt>
<totfact> 0.47140324E+00</totfact>
</mgrwt>
</event>
<event>
 4    1  0.2731969E-009  0.1036757E+04  0.7818608E-02  0.9269124E-01
         -1   -1    0    0    0  501 -0.00000000000E+00  0.00000000000E+00  0.10267244194E+04  0.10267244194E+04  0.50400000000E-02 0.  1.
          1   -1    0    0  501    0  0.00000000000E+00 -0.00000000000E+00 -0.23694262436E+04  0.23694262436E+04  0.50400000000E-02 0. -1.
    8880022    1    1    2    0    0 -0.92443463362E+03  0.44372715054E+03 -0.19399943532E+04  0.21996460896E+04  0.15294330000E+03 0.  0.
    8880022    1    1    2    0    0  0.92443463362E+03 -0.44372715054E+03  0.59729252897E+03  0.11965045734E+04  0.15294330000E+03 0.  0.
<mgrwt>
<rscale>  0 0.10367569E+04</rscale>
<asrwt>0</asrwt>
<pdfrwt beam="1">  1        1 0.36452711E+00 0.10367569E+04</pdfrwt>
<pdfrwt beam="2">  1       -1 0.15795760E+00 0.10367569E+04</pdfrwt>
<totfact> 0.51024011E-01</totfact>
</mgrwt>
</event>
<event>
 4    1  0.2731969E-009  0.1581461E+04  0.7818608E-02  0.8832019E-01
          1   -1    0    0  501    0  0.00000000000E+00  0.00000000000E+00  0.40578202156E+04  0.40578202156E+04  0.50400000000E-02 0. -1.
         -1   -1    0    0    0  501 -0.00000000000E+00 -0.00000000000E+00 -0.75666221835E+03  0.75666221836E+03  0.50400000000E-02 0.  1.
    8880022    1    1    2    0    0 -0.13497049433E+04 -0.80989136913E+03  0.26872079618E+04  0.31180291446E+04  0.15294330000E+03 0.  0.
    8880022    1    1    2    0    0  0.13497049433E+04  0.80989136913E+03  0.61395003543E+03  0.16964532893E+04  0.15294330000E+03 0.  0.
<mgrwt>
<rscale>  0 0.15814611E+04</rscale>
<asrwt>0</asrwt>
<pdfrwt beam="1">  1        1 0.62428004E+00 0.15814611E+04</pdfrwt>
<pdfrwt beam="2">  1       -1 0.11640957E+00 0.15814611E+04</pdfrwt>
<totfact> 0.54387470E-02</totfact>
</mgrwt>
</event>
<event>
 4    1  0.2731969E-009  0.3667391E+03  0.7818608E-02  0.1055947E+00
          1   -1    0    0  501    0  0.00000000000E+00  0.00000000000E+00  0.27385909030E+04  0.27385909030E+04  0.50400000000E-02 0. -1.
         -1   -1    0    0    0  501 -0.00000000000E+00 -0.00000000000E+00 -0.35055926994E+03  0.35055926997E+03  0.50400000000E-02 0.  1.
    8880022    1    1    2    0    0  0.15708270807E+03  0.29399136640E+03  0.26263158677E+04  0.26517979921E+04  0.15294330000E+03 0.  0.
    8880022    1    1    2    0    0 -0.15708270807E+03 -0.29399136640E+03 -0.23828423462E+03  0.43735218094E+03  0.15294330000E+03 0.  0.
<mgrwt>
<rscale>  0 0.36673908E+03</rscale>
<asrwt>0</asrwt>
<pdfrwt beam="1">  1        1 0.42132169E+00 0.36673908E+03</pdfrwt>
<pdfrwt beam="2">  1       -1 0.53932194E-01 0.36673908E+03</pdfrwt>
<totfact> 0.37896634E+00</totfact>
</mgrwt>
</event>
<event>
 4    1  0.2731969E-009  0.7334158E+03  0.7818608E-02  0.9661734E-01
         -1   -1    0    0    0  501 -0.00000000000E+00  0.00000000000E+00  0.72077475822E+03  0.72077475823E+03  0.50400000000E-02 0.  1.
          1   -1    0    0  501    0  0.00000000000E+00 -0.00000000000E+00 -0.11854169684E+04  0.11854169685E+04  0.50400000000E-02 0. -1.
    8880022    1    1    2    0    0  0.67490013675E+03  0.24293376774E+03 -0.81241966229E+03  0.10944973142E+04  0.15294330000E+03 0.  0.
    8880022    1    1    2    0    0 -0.67490013675E+03 -0.24293376774E+03  0.34777745206E+03  0.81169441249E+03  0.15294330000E+03 0.  0.
<mgrwt>
<rscale>  0 0.73341575E+03</rscale>
<asrwt>0</asrwt>
<pdfrwt beam="1">  1        1 0.18237184E+00 0.73341575E+03</pdfrwt>
<pdfrwt beam="2">  1       -1 0.11088842E+00 0.73341575E+03</pdfrwt>
<totfact> 0.85108636E+00</totfact>
</mgrwt>
</event>
<event>
 4    1  0.2731969E-009  0.1365627E+04  0.7818608E-02  0.8979082E-01
         -1   -1    0    0    0  501 -0.00000000000E+00  0.00000000000E+00  0.96706136965E+03  0.96706136966E+03  0.50400000000E-02 0.  1.
          1   -1    0    0  501    0  0.00000000000E+00 -0.00000000000E+00 -0.25778011520E+04  0.25778011521E+04  0.50400000000E-02 0. -1.
    8880022    1    1    2    0    0 -0.85236108076E+03  0.10559484980E+04 -0.16949426192E+04  0.21766416283E+04  0.15294330000E+03 0.  0.
    8880022    1    1    2    0    0  0.85236108076E+03 -0.10559484980E+04  0.84202836803E+02  0.13682208934E+04  0.15294330000E+03 0.  0.
<mgrwt>
<rscale>  0 0.13656274E+04</rscale>
<asrwt>0</asrwt>
<pdfrwt beam="1">  1        1 0.39658479E+00 0.13656274E+04</pdfrwt>
<pdfrwt beam="2">  1       -1 0.14877867E+00 0.13656274E+04</pdfrwt>
<totfact> 0.41194254E-01</totfact>
</mgrwt>
</event>
<event>
 4    1  0.2731969E-009  0.6725598E+03  0.7818608E-02  0.9765345E-01
         -1   -1    0    0    0  501 -0.00000000000E+00  0.00000000000E+00  0.49652613865E+03  0.49652613867E+03  0.50400000000E-02 0.  1.
          1   -1    0    0  501    0  0.00000000000E+00 -0.00000000000E+00 -0.10254856308E+04  0.10254856308E+04  0.50400000000E-02 0. -1.
    8880022    1    1    2    0    0  0.64625269559E+03  0.10631291052E+03 -0.10210599515E+02  0.67263726544E+03  0.15294330000E+03 0.  0.
    8880022    1    1    2    0    0 -0.64625269559E+03 -0.10631291052E+03 -0.51874889266E+03  0.84937450407E+03  0.15294330000E+03 0.  0.
<mgrwt>
<rscale>  0 0.67255976E+03</rscale>
<asrwt>0</asrwt>
<pdfrwt beam="1">  1        1 0.15776702E+00 0.67255976E+03</pdfrwt>
<pdfrwt beam="2">  1       -1 0.76388637E-01 0.67255976E+03</pdfrwt>
<totfact> 0.25809197E+01</totfact>
</mgrwt>
</event>
<event>
 4    1  0.2731969E-009  0.3396332E+03  0.7818608E-02  0.1066952E+00
          1   -1    0    0  501    0  0.00000000000E+00  0.00000000000E+00  0.49429483684E+03  0.49429483687E+03  0.50400000000E-02 0. -1.
         -1   -1    0    0    0  501 -0.00000000000E+00 -0.00000000000E+00 -0.29382318704E+03  0.29382318708E+03  0.50400000000E-02 0.  1.
    8880022    1    1    2    0    0  0.28762217816E+03 -0.96086105712E+02 -0.78515278307E+02  0.34859053203E+03  0.15294330000E+03 0.  0.
    8880022    1    1    2    0    0 -0.28762217816E+03  0.96086105712E+02  0.27898692811E+03  0.43952749192E+03  0.15294330000E+03 0.  0.
<mgrwt>
<rscale>  0 0.33963320E+03</rscale>
<asrwt>0</asrwt>
<pdfrwt beam="1">  1        1 0.76045359E-01 0.33963320E+03</pdfrwt>
<pdfrwt beam="2">  1       -1 0.45203567E-01 0.33963320E+03</pdfrwt>
<totfact> 0.22742476E+02</totfact>
</mgrwt>
</event>
<event>
 4    1  0.2731969E-009  0.1232386E+04  0.7818608E-02  0.9084972E-01
          1   -1    0    0  501    0  0.00000000000E+00  0.00000000000E+00  0.14075061717E+04  0.14075061717E+04  0.50400000000E-02 0. -1.
         -1   -1    0    0    0  501 -0.00000000000E+00 -0.00000000000E+00 -0.16331750129E+04  0.16331750129E+04  0.50400000000E-02 0.  1.
    8880022    1    1    2    0    0 -0.10379571706E+04 -0.64655039219E+03 -0.99841303384E+03  0.15860651742E+04  0.15294330000E+03 0.  0.
    8880022    1    1    2    0    0  0.10379571706E+04  0.64655039219E+03  0.77274419269E+03  0.14546160105E+04  0.15294330000E+03 0.  0.
<mgrwt>
<rscale>  0 0.12323856E+04</rscale>
<asrwt>0</asrwt>
<pdfrwt beam="1">  1        1 0.21653941E+00 0.12323856E+04</pdfrwt>
<pdfrwt beam="2">  1       -1 0.25125769E+00 0.12323856E+04</pdfrwt>
<totfact> 0.50721159E-01</totfact>
</mgrwt>
</event>
<event>
 4    1  0.2731969E-009  0.8969582E+03  0.7818608E-02  0.9429392E-01
         -1   -1    0    0    0  501 -0.00000000000E+00  0.00000000000E+00  0.96981525991E+03  0.96981525992E+03  0.50400000000E-02 0.  1.
          1   -1    0    0  501    0  0.00000000000E+00 -0.00000000000E+00 -0.18277115552E+04  0.18277115552E+04  0.50400000000E-02 0. -1.
    8880022    1    1    2    0    0 -0.86228238198E+03  0.19393653898E+03  0.60473048378E+03  0.10817730346E+04  0.15294330000E+03 0.  0.
    8880022    1    1    2    0    0  0.86228238198E+03 -0.19393653898E+03 -0.14626267791E+04  0.17157537805E+04  0.15294330000E+03 0.  0.
<mgrwt>
<rscale>  0 0.89695816E+03</rscale>
<asrwt>0</asrwt>
<pdfrwt beam="1">  1        1 0.28118639E+00 0.89695816E+03</pdfrwt>
<pdfrwt beam="2">  1       -1 0.14920235E+00 0.89695816E+03</pdfrwt>
<totfact> 0.14159632E+00</totfact>
</mgrwt>
</event>
<event>
 4    1  0.2731969E-009  0.9213975E+03  0.7818608E-02  0.9399222E-01
         -1   -1    0    0    0  501 -0.00000000000E+00  0.00000000000E+00  0.13163235072E+04  0.13163235072E+04  0.50400000000E-02 0.  1.
          1   -1    0    0  501    0  0.00000000000E+00 -0.00000000000E+00 -0.10672635336E+04  0.10672635336E+04  0.50400000000E-02 0. -1.
    8880022    1    1    2    0    0  0.70230552638E+03  0.57649688603E+03  0.87421456179E+03  0.12701277357E+04  0.15294330000E+03 0.  0.
    8880022    1    1    2    0    0 -0.70230552638E+03 -0.57649688603E+03 -0.62515458817E+03  0.11134593051E+04  0.15294330000E+03 0.  0.
<mgrwt>
<rscale>  0 0.92139751E+03</rscale>
<asrwt>0</asrwt>
<pdfrwt beam="1">  1        1 0.16419439E+00 0.92139751E+03</pdfrwt>
<pdfrwt beam="2">  1       -1 0.20251131E+00 0.92139751E+03</pdfrwt>
<totfact> 0.19720283E+00</totfact>
</mgrwt>
</event>
<event>
 4    1  0.2731969E-009  0.1028774E+04  0.7818608E-02  0.9277537E-01
          1   -1    0    0  501    0  0.00000000000E+00  0.00000000000E+00  0.21306022271E+04  0.21306022271E+04  0.50400000000E-02 0. -1.
         -1   -1    0    0    0  501 -0.00000000000E+00 -0.00000000000E+00 -0.68957356169E+03  0.68957356171E+03  0.50400000000E-02 0.  1.
    8880022    1    1    2    0    0  0.24654086972E+03  0.98701652510E+03  0.14661667883E+04  0.17910948399E+04  0.15294330000E+03 0.  0.
    8880022    1    1    2    0    0 -0.24654086972E+03 -0.98701652510E+03 -0.25138122891E+02  0.10290809490E+04  0.15294330000E+03 0.  0.
<mgrwt>
<rscale>  0 0.10287739E+04</rscale>
<asrwt>0</asrwt>
<pdfrwt beam="1">  1        1 0.32778496E+00 0.10287739E+04</pdfrwt>
<pdfrwt beam="2">  1       -1 0.10608824E+00 0.10287739E+04</pdfrwt>
<totfact> 0.20363631E+00</totfact>
</mgrwt>
</event>
<event>
 4    1  0.2731969E-009  0.2443417E+03  0.7818608E-02  0.1116934E+00
          1   -1    0    0  501    0  0.00000000000E+00  0.00000000000E+00  0.22716621227E+03  0.22716621232E+03  0.50400000000E-02 0. -1.
         -1   -1    0    0    0  501 -0.00000000000E+00 -0.00000000000E+00 -0.43547472125E+03  0.43547472128E+03  0.50400000000E-02 0.  1.
    8880022    1    1    2    0    0  0.14259581853E+03 -0.12640266850E+03 -0.31277686857E+03  0.39690329375E+03  0.15294330000E+03 0.  1.
    8880022    1    1    2    0    0 -0.14259581853E+03  0.12640266850E+03  0.10446835958E+03  0.26573763985E+03  0.15294330000E+03 0.  0.
<mgrwt>
<rscale>  0 0.24434168E+03</rscale>
<asrwt>0</asrwt>
<pdfrwt beam="1">  1        1 0.34948648E-01 0.24434168E+03</pdfrwt>
<pdfrwt beam="2">  1       -1 0.66996111E-01 0.24434168E+03</pdfrwt>
<totfact> 0.29422908E+02</totfact>
</mgrwt>
</event>
<event>
 4    1  0.2731969E-009  0.9310574E+03  0.7818608E-02  0.9387570E-01
         -1   -1    0    0    0  501 -0.00000000000E+00  0.00000000000E+00  0.17613164158E+04  0.17613164158E+04  0.50400000000E-02 0.  1.
          1   -1    0    0  501    0  0.00000000000E+00 -0.00000000000E+00 -0.20923631197E+04  0.20923631197E+04  0.50400000000E-02 0. -1.
    8880022    1    1    2    0    0 -0.87236690504E+03 -0.28714497108E+03  0.15195282706E+04  0.17820869983E+04  0.15294330000E+03 0.  0.
    8880022    1    1    2    0    0  0.87236690504E+03  0.28714497108E+03 -0.18505749744E+04  0.20715925373E+04  0.15294330000E+03 0.  0.
<mgrwt>
<rscale>  0 0.93105741E+03</rscale>
<asrwt>0</asrwt>
<pdfrwt beam="1">  1        1 0.32190202E+00 0.93105741E+03</pdfrwt>
<pdfrwt beam="2">  1       -1 0.27097176E+00 0.93105741E+03</pdfrwt>
<totfact> 0.13591709E-01</totfact>
</mgrwt>
</event>
<event>
 4    1  0.2731969E-009  0.1462004E+04  0.7818608E-02  0.8910121E-01
         -1   -1    0    0    0  501 -0.00000000000E+00  0.00000000000E+00  0.12573223957E+04  0.12573223957E+04  0.50400000000E-02 0.  1.
          1   -1    0    0  501    0  0.00000000000E+00 -0.00000000000E+00 -0.36353225285E+04  0.36353225285E+04  0.50400000000E-02 0. -1.
    8880022    1    1    2    0    0  0.13258449600E+04 -0.59682304527E+03 -0.29739184115E+04  0.33138565112E+04  0.15294330000E+03 0.  0.
    8880022    1    1    2    0    0 -0.13258449600E+04  0.59682304527E+03  0.59591827869E+03  0.15787884130E+04  0.15294330000E+03 0.  0.
<mgrwt>
<rscale>  0 0.14620035E+04</rscale>
<asrwt>0</asrwt>
<pdfrwt beam="1">  1        1 0.55928039E+00 0.14620035E+04</pdfrwt>
<pdfrwt beam="2">  1       -1 0.19343422E+00 0.14620035E+04</pdfrwt>
<totfact> 0.31233041E-02</totfact>
</mgrwt>
</event>
<event>
 4    1  0.2731969E-009  0.1138595E+04  0.7818608E-02  0.9168370E-01
          1   -1    0    0  501    0  0.00000000000E+00  0.00000000000E+00  0.22754545881E+04  0.22754545881E+04  0.50400000000E-02 0. -1.
         -1   -1    0    0    0  501 -0.00000000000E+00 -0.00000000000E+00 -0.12167792164E+04  0.12167792164E+04  0.50400000000E-02 0.  1.
    8880022    1    1    2    0    0  0.19803277025E+02  0.11281022181E+04  0.18026517548E+04  0.21321237737E+04  0.15294330000E+03 0.  0.
    8880022    1    1    2    0    0 -0.19803277025E+02 -0.11281022181E+04 -0.74397638309E+03  0.13601100308E+04  0.15294330000E+03 0.  0.
<mgrwt>
<rscale>  0 0.11385949E+04</rscale>
<asrwt>0</asrwt>
<pdfrwt beam="1">  1        1 0.35006994E+00 0.11385949E+04</pdfrwt>
<pdfrwt beam="2">  1       -1 0.18719680E+00 0.11385949E+04</pdfrwt>
<totfact> 0.35521743E-01</totfact>
</mgrwt>
</event>
<event>
 4    1  0.2731969E-009  0.5273100E+03  0.7818608E-02  0.1006887E+00
         -1   -1    0    0    0  501 -0.00000000000E+00  0.00000000000E+00  0.12348439663E+04  0.12348439663E+04  0.50400000000E-02 0.  1.
          1   -1    0    0  501    0  0.00000000000E+00 -0.00000000000E+00 -0.55742424162E+03  0.55742424164E+03  0.50400000000E-02 0. -1.
    8880022    1    1    2    0    0 -0.14046190561E+03 -0.48470055307E+03 -0.35314048869E+03  0.63463692836E+03  0.15294330000E+03 0.  0.
    8880022    1    1    2    0    0  0.14046190561E+03  0.48470055307E+03  0.10305602133E+04  0.11576312795E+04  0.15294330000E+03 0.  0.
<mgrwt>
<rscale>  0 0.52730999E+03</rscale>
<asrwt>0</asrwt>
<pdfrwt beam="1">  1        1 0.85757577E-01 0.52730999E+03</pdfrwt>
<pdfrwt beam="2">  1       -1 0.18997599E+00 0.52730999E+03</pdfrwt>
<totfact> 0.72093446E+00</totfact>
</mgrwt>
</event>
<event>
 4    1  0.2731969E-009  0.4255422E+03  0.7818608E-02  0.1035277E+00
          1   -1    0    0  501    0  0.00000000000E+00  0.00000000000E+00  0.75788210608E+03  0.75788210610E+03  0.50400000000E-02 0. -1.
         -1   -1    0    0    0  501 -0.00000000000E+00 -0.00000000000E+00 -0.41868259472E+03  0.41868259475E+03  0.50400000000E-02 0.  1.
    8880022    1    1    2    0    0 -0.13339294010E+03  0.37403318397E+03 -0.21585408106E+03  0.47715734984E+03  0.15294330000E+03 0.  0.
    8880022    1    1    2    0    0  0.13339294010E+03 -0.37403318397E+03  0.55505359242E+03  0.69940735101E+03  0.15294330000E+03 0.  0.
<mgrwt>
<rscale>  0 0.42554219E+03</rscale>
<asrwt>0</asrwt>
<pdfrwt beam="1">  1        1 0.11659725E+00 0.42554219E+03</pdfrwt>
<pdfrwt beam="2">  1       -1 0.64412707E-01 0.42554219E+03</pdfrwt>
<totfact> 0.62426548E+01</totfact>
</mgrwt>
</event>
<event>
 4    1  0.2731969E-009  0.1867701E+04  0.7818608E-02  0.8671103E-01
          1   -1    0    0  501    0  0.00000000000E+00  0.00000000000E+00  0.13699431561E+04  0.13699431561E+04  0.50400000000E-02 0. -1.
         -1   -1    0    0    0  501 -0.00000000000E+00 -0.00000000000E+00 -0.25868629054E+04  0.25868629054E+04  0.50400000000E-02 0.  1.
    8880022    1    1    2    0    0 -0.17236007651E+04  0.70293371420E+03 -0.36076826251E+03  0.19022252222E+04  0.15294330000E+03 0.  0.
    8880022    1    1    2    0    0  0.17236007651E+04 -0.70293371420E+03 -0.85615148681E+03  0.20545808393E+04  0.15294330000E+03 0.  0.
<mgrwt>
<rscale>  0 0.18677010E+04</rscale>
<asrwt>0</asrwt>
<pdfrwt beam="1">  1        1 0.21076049E+00 0.18677010E+04</pdfrwt>
<pdfrwt beam="2">  1       -1 0.39797891E+00 0.18677010E+04</pdfrwt>
<totfact> 0.54130105E-02</totfact>
</mgrwt>
</event>
<event>
 4    1  0.2731969E-009  0.5257929E+03  0.7818608E-02  0.1007258E+00
         -1   -1    0    0    0  501 -0.00000000000E+00  0.00000000000E+00  0.86894046994E+03  0.86894046995E+03  0.50400000000E-02 0.  1.
          1   -1    0    0  501    0  0.00000000000E+00 -0.00000000000E+00 -0.30231266200E+04  0.30231266200E+04  0.50400000000E-02 0. -1.
    8880022    1    1    2    0    0  0.96897933479E+02  0.49363680142E+03 -0.29178797973E+04  0.29648744772E+04  0.15294330000E+03 0.  0.
    8880022    1    1    2    0    0 -0.96897933479E+02 -0.49363680142E+03  0.76369364724E+03  0.92719261272E+03  0.15294330000E+03 0.  0.
<mgrwt>
<rscale>  0 0.52579288E+03</rscale>
<asrwt>0</asrwt>
<pdfrwt beam="1">  1        1 0.46509640E+00 0.52579288E+03</pdfrwt>
<pdfrwt beam="2">  1       -1 0.13368315E+00 0.52579288E+03</pdfrwt>
<totfact> 0.31598504E-01</totfact>
</mgrwt>
</event>
<event>
 4    1  0.2731969E-009  0.8889947E+03  0.7818608E-02  0.9439444E-01
         -1   -1    0    0    0  501 -0.00000000000E+00  0.00000000000E+00  0.10786465743E+04  0.10786465744E+04  0.50400000000E-02 0.  1.
          1   -1    0    0  501    0  0.00000000000E+00 -0.00000000000E+00 -0.10555352621E+04  0.10555352621E+04  0.50400000000E-02 0. -1.
    8880022    1    1    2    0    0  0.28553669919E+03 -0.82788204279E+03 -0.57859585051E+03  0.10607000964E+04  0.15294330000E+03 0.  0.
    8880022    1    1    2    0    0 -0.28553669919E+03  0.82788204279E+03  0.60170716278E+03  0.10734817400E+04  0.15294330000E+03 0.  0.
<mgrwt>
<rscale>  0 0.88899468E+03</rscale>
<asrwt>0</asrwt>
<pdfrwt beam="1">  1        1 0.16239004E+00 0.88899468E+03</pdfrwt>
<pdfrwt beam="2">  1       -1 0.16594563E+00 0.88899468E+03</pdfrwt>
<totfact> 0.36767675E+00</totfact>
</mgrwt>
</event>
<event>
 4    1  0.2731969E-009  0.5301765E+03  0.7818608E-02  0.1006189E+00
          1   -1    0    0  501    0  0.00000000000E+00  0.00000000000E+00  0.34357232689E+03  0.34357232693E+03  0.50400000000E-02 0. -1.
         -1   -1    0    0    0  501 -0.00000000000E+00 -0.00000000000E+00 -0.26395544734E+04  0.26395544734E+04  0.50400000000E-02 0.  1.
    8880022    1    1    2    0    0 -0.20706429681E+03  0.46348657043E+03 -0.23870212989E+04  0.24451907407E+04  0.15294330000E+03 0.  0.
    8880022    1    1    2    0    0  0.20706429681E+03 -0.46348657043E+03  0.91039152389E+02  0.53793605964E+03  0.15294330000E+03 0.  0.
<mgrwt>
<rscale>  0 0.53017646E+03</rscale>
<asrwt>0</asrwt>
<pdfrwt beam="1">  1        1 0.52857283E-01 0.53017646E+03</pdfrwt>
<pdfrwt beam="2">  1       -1 0.40608529E+00 0.53017646E+03</pdfrwt>
<totfact> 0.53784544E-01</totfact>
</mgrwt>
</event>
<event>
 4    1  0.2731969E-009  0.8945128E+03  0.7818608E-02  0.9432467E-01
          1   -1    0    0  501    0  0.00000000000E+00  0.00000000000E+00  0.23877480797E+04  0.23877480797E+04  0.50400000000E-02 0. -1.
         -1   -1    0    0    0  501 -0.00000000000E+00 -0.00000000000E+00 -0.44087746676E+03  0.44087746679E+03  0.50400000000E-02 0.  1.
    8880022    1    1    2    0    0 -0.13842539433E+03  0.87040212710E+03  0.16661700897E+04  0.18911044057E+04  0.15294330000E+03 0.  0.
    8880022    1    1    2    0    0  0.13842539433E+03 -0.87040212710E+03  0.28070052332E+03  0.93752114081E+03  0.15294330000E+03 0.  1.
<mgrwt>
<rscale>  0 0.89451278E+03</rscale>
<asrwt>0</asrwt>
<pdfrwt beam="1">  1        1 0.36734586E+00 0.89451278E+03</pdfrwt>
<pdfrwt beam="2">  1       -1 0.67827302E-01 0.89451278E+03</pdfrwt>
<totfact> 0.36820571E+00</totfact>
</mgrwt>
</event>
<event>
 4    1  0.2731969E-009  0.6580734E+03  0.7818608E-02  0.9791747E-01
          1   -1    0    0  501    0  0.00000000000E+00  0.00000000000E+00  0.32231706170E+04  0.32231706170E+04  0.50400000000E-02 0. -1.
         -1   -1    0    0    0  501 -0.00000000000E+00 -0.00000000000E+00 -0.17235066384E+03  0.17235066391E+03  0.50400000000E-02 0.  1.
    8880022    1    1    2    0    0 -0.64005268043E+03 -0.12190644538E+01  0.23225169982E+04  0.24139481725E+04  0.15294330000E+03 0.  0.
    8880022    1    1    2    0    0  0.64005268043E+03  0.12190644538E+01  0.72830295496E+03  0.98157310836E+03  0.15294330000E+03 0.  0.
<mgrwt>
<rscale>  0 0.65807338E+03</rscale>
<asrwt>0</asrwt>
<pdfrwt beam="1">  1        1 0.49587236E+00 0.65807338E+03</pdfrwt>
<pdfrwt beam="2">  1       -1 0.26515489E-01 0.65807338E+03</pdfrwt>
<totfact> 0.56368035E+00</totfact>
</mgrwt>
</event>
<event>
 4    1  0.2731969E-009  0.1174004E+04  0.7818608E-02  0.9135920E-01
         -1   -1    0    0    0  501 -0.00000000000E+00  0.00000000000E+00  0.22431472699E+04  0.22431472699E+04  0.50400000000E-02 0.  1.
          1   -1    0    0  501    0  0.00000000000E+00 -0.00000000000E+00 -0.86562268944E+03  0.86562268946E+03  0.50400000000E-02 0. -1.
    8880022    1    1    2    0    0 -0.76127194564E+03 -0.88054480140E+03 -0.14854847409E+03  0.11833648738E+04  0.15294330000E+03 0.  0.
    8880022    1    1    2    0    0  0.76127194564E+03  0.88054480140E+03  0.15260730545E+04  0.19254050855E+04  0.15294330000E+03 0.  0.
<mgrwt>
<rscale>  0 0.11740042E+04</rscale>
<asrwt>0</asrwt>
<pdfrwt beam="1">  1        1 0.13317272E+00 0.11740042E+04</pdfrwt>
<pdfrwt beam="2">  1       -1 0.34509958E+00 0.11740042E+04</pdfrwt>
<totfact> 0.32317625E-01</totfact>
</mgrwt>
</event>
<event>
 4    1  0.2731969E-009  0.6258077E+03  0.7818608E-02  0.9853264E-01
         -1   -1    0    0    0  501 -0.00000000000E+00  0.00000000000E+00  0.66467027997E+03  0.66467027999E+03  0.50400000000E-02 0.  1.
          1   -1    0    0  501    0  0.00000000000E+00 -0.00000000000E+00 -0.12626433707E+04  0.12626433707E+04  0.50400000000E-02 0. -1.
    8880022    1    1    2    0    0 -0.20884039433E+03 -0.56976245429E+03 -0.10027504976E+04  0.11820083664E+04  0.15294330000E+03 0.  0.
    8880022    1    1    2    0    0  0.20884039433E+03  0.56976245429E+03  0.40477740694E+03  0.74530528430E+03  0.15294330000E+03 0.  0.
<mgrwt>
<rscale>  0 0.62580765E+03</rscale>
<asrwt>0</asrwt>
<pdfrwt beam="1">  1        1 0.19425283E+00 0.62580765E+03</pdfrwt>
<pdfrwt beam="2">  1       -1 0.10225697E+00 0.62580765E+03</pdfrwt>
<totfact> 0.92067749E+00</totfact>
</mgrwt>
</event>
<event>
 4    1  0.2731969E-009  0.1636146E+04  0.7818608E-02  0.8798645E-01
          1   -1    0    0  501    0  0.00000000000E+00  0.00000000000E+00  0.19813442435E+04  0.19813442435E+04  0.50400000000E-02 0. -1.
         -1   -1    0    0    0  501 -0.00000000000E+00 -0.00000000000E+00 -0.16704323242E+04  0.16704323242E+04  0.50400000000E-02 0.  1.
    8880022    1    1    2    0    0 -0.72204546928E+03  0.14602163877E+04  0.95379690846E+03  0.18938589584E+04  0.15294330000E+03 0.  0.
    8880022    1    1    2    0    0  0.72204546928E+03 -0.14602163877E+04 -0.64288498923E+03  0.17579176093E+04  0.15294330000E+03 0.  0.
<mgrwt>
<rscale>  0 0.16361458E+04</rscale>
<asrwt>0</asrwt>
<pdfrwt beam="1">  1        1 0.30482219E+00 0.16361458E+04</pdfrwt>
<pdfrwt beam="2">  1       -1 0.25698959E+00 0.16361458E+04</pdfrwt>
<totfact> 0.17884000E-01</totfact>
</mgrwt>
</event>
<event>
 4    1  0.2731969E-009  0.5026521E+03  0.7818608E-02  0.1013089E+00
          1   -1    0    0  501    0  0.00000000000E+00  0.00000000000E+00  0.87546054566E+03  0.87546054567E+03  0.50400000000E-02 0. -1.
         -1   -1    0    0    0  501 -0.00000000000E+00 -0.00000000000E+00 -0.42963459026E+03  0.42963459029E+03  0.50400000000E-02 0.  1.
    8880022    1    1    2    0    0  0.37610411780E+03 -0.29633279169E+03  0.59678530194E+03  0.78026391720E+03  0.15294330000E+03 0.  0.
    8880022    1    1    2    0    0 -0.37610411780E+03  0.29633279169E+03 -0.15095934654E+03  0.52483121876E+03  0.15294330000E+03 0.  0.
<mgrwt>
<rscale>  0 0.50265205E+03</rscale>
<asrwt>0</asrwt>
<pdfrwt beam="1">  1        1 0.13468624E+00 0.50265205E+03</pdfrwt>
<pdfrwt beam="2">  1       -1 0.66097629E-01 0.50265205E+03</pdfrwt>
<totfact> 0.46630148E+01</totfact>
</mgrwt>
</event>
<event>
 4    1  0.2731969E-009  0.1120000E+04  0.7818608E-02  0.9185915E-01
         -1   -1    0    0    0  501 -0.00000000000E+00  0.00000000000E+00  0.27771846606E+04  0.27771846606E+04  0.50400000000E-02 0.  1.
          1   -1    0    0  501    0  0.00000000000E+00 -0.00000000000E+00 -0.57241568998E+03  0.57241569001E+03  0.50400000000E-02 0. -1.
    8880022    1    1    2    0    0  0.39090658222E+03 -0.10383639260E+04  0.33321020557E+03  0.11685154227E+04  0.15294330000E+03 0.  0.
    8880022    1    1    2    0    0 -0.39090658222E+03  0.10383639260E+04  0.18715587651E+04  0.21810849280E+04  0.15294330000E+03 0.  0.
<mgrwt>
<rscale>  0 0.11199997E+04</rscale>
<asrwt>0</asrwt>
<pdfrwt beam="1">  1        1 0.88063953E-01 0.11199997E+04</pdfrwt>
<pdfrwt beam="2">  1       -1 0.42725918E+00 0.11199997E+04</pdfrwt>
<totfact> 0.17165188E-01</totfact>
</mgrwt>
</event>
<event>
 4    1  0.2731969E-009  0.8769450E+03  0.7818608E-02  0.9454869E-01
          1   -1    0    0  501    0  0.00000000000E+00  0.00000000000E+00  0.15042773825E+04  0.15042773825E+04  0.50400000000E-02 0. -1.
         -1   -1    0    0    0  501 -0.00000000000E+00 -0.00000000000E+00 -0.64771602913E+03  0.64771602915E+03  0.50400000000E-02 0.  1.
    8880022    1    1    2    0    0 -0.82968194784E+03 -0.23930905587E+03 -0.65645203194E+02  0.87939860388E+03  0.15294330000E+03 0.  0.
    8880022    1    1    2    0    0  0.82968194784E+03  0.23930905587E+03  0.92220655657E+03  0.12725948078E+04  0.15294330000E+03 0.  0.
<mgrwt>
<rscale>  0 0.87694504E+03</rscale>
<asrwt>0</asrwt>
<pdfrwt beam="1">  1        1 0.23142729E+00 0.87694504E+03</pdfrwt>
<pdfrwt beam="2">  1       -1 0.99648621E-01 0.87694504E+03</pdfrwt>
<totfact> 0.63761565E+00</totfact>
</mgrwt>
</event>
<event>
 4    1  0.2731969E-009  0.1301848E+04  0.7818608E-02  0.9028101E-01
         -1   -1    0    0    0  501 -0.00000000000E+00  0.00000000000E+00  0.18628259697E+04  0.18628259697E+04  0.50400000000E-02 0.  1.
          1   -1    0    0  501    0  0.00000000000E+00 -0.00000000000E+00 -0.96971440473E+03  0.96971440474E+03  0.50400000000E-02 0. -1.
    8880022    1    1    2    0    0  0.12926505774E+04  0.21694609979E+02  0.94531375331E+02  0.13052754519E+04  0.15294330000E+03 0.  0.
    8880022    1    1    2    0    0 -0.12926505774E+04 -0.21694609979E+02  0.79858018967E+03  0.15272649226E+04  0.15294330000E+03 0.  0.
<mgrwt>
<rscale>  0 0.13018478E+04</rscale>
<asrwt>0</asrwt>
<pdfrwt beam="1">  1        1 0.14918683E+00 0.13018478E+04</pdfrwt>
<pdfrwt beam="2">  1       -1 0.28658861E+00 0.13018478E+04</pdfrwt>
<totfact> 0.62714132E-01</totfact>
</mgrwt>
</event>
<event>
 4    1  0.2731969E-009  0.1368325E+04  0.7818608E-02  0.8977071E-01
         -1   -1    0    0    0  501 -0.00000000000E+00  0.00000000000E+00  0.16143450153E+04  0.16143450153E+04  0.50400000000E-02 0.  1.
          1   -1    0    0  501    0  0.00000000000E+00 -0.00000000000E+00 -0.13123381722E+04  0.13123381722E+04  0.50400000000E-02 0. -1.
    8880022    1    1    2    0    0  0.57887133678E+03  0.12303782321E+04  0.64990493222E+03  0.15148236506E+04  0.15294330000E+03 0.  0.
    8880022    1    1    2    0    0 -0.57887133678E+03 -0.12303782321E+04 -0.34789808915E+03  0.14118595369E+04  0.15294330000E+03 0.  0.
<mgrwt>
<rscale>  0 0.13683254E+04</rscale>
<asrwt>0</asrwt>
<pdfrwt beam="1">  1        1 0.20189818E+00 0.13683254E+04</pdfrwt>
<pdfrwt beam="2">  1       -1 0.24836077E+00 0.13683254E+04</pdfrwt>
<totfact> 0.60881157E-01</totfact>
</mgrwt>
</event>
<event>
 4    1  0.2731969E-009  0.6637223E+03  0.7818608E-02  0.9781366E-01
          1   -1    0    0  501    0  0.00000000000E+00  0.00000000000E+00  0.90927275835E+03  0.90927275836E+03  0.50400000000E-02 0. -1.
         -1   -1    0    0    0  501 -0.00000000000E+00 -0.00000000000E+00 -0.62241216558E+03  0.62241216560E+03  0.50400000000E-02 0.  1.
    8880022    1    1    2    0    0  0.49170195672E+03  0.41876587729E+03  0.50394935560E+03  0.83336203432E+03  0.15294330000E+03 0.  0.
    8880022    1    1    2    0    0 -0.49170195672E+03 -0.41876587729E+03 -0.21708876283E+03  0.69832288964E+03  0.15294330000E+03 0.  0.
<mgrwt>
<rscale>  0 0.66372233E+03</rscale>
<asrwt>0</asrwt>
<pdfrwt beam="1">  1        1 0.13988812E+00 0.66372233E+03</pdfrwt>
<pdfrwt beam="2">  1       -1 0.95755718E-01 0.66372233E+03</pdfrwt>
<totfact> 0.19557201E+01</totfact>
</mgrwt>
</event>
<event>
 4    1  0.2731969E-009  0.2899494E+03  0.7818608E-02  0.1090376E+00
         -1   -1    0    0    0  501 -0.00000000000E+00  0.00000000000E+00  0.12347868700E+03  0.12347868710E+03  0.50400000000E-02 0.  1.
          1   -1    0    0  501    0  0.00000000000E+00 -0.00000000000E+00 -0.24953120047E+04  0.24953120047E+04  0.50400000000E-02 0. -1.
    8880022    1    1    2    0    0  0.11590376253E+03 -0.21735984601E+03 -0.69356478206E+02  0.29812909773E+03  0.15294330000E+03 0.  0.
    8880022    1    1    2    0    0 -0.11590376253E+03  0.21735984601E+03 -0.23024768394E+04  0.23206615940E+04  0.15294330000E+03 0.  0.
<mgrwt>
<rscale>  0 0.28994937E+03</rscale>
<asrwt>0</asrwt>
<pdfrwt beam="1">  1        1 0.38389412E+00 0.28994937E+03</pdfrwt>
<pdfrwt beam="2">  1       -1 0.18996723E-01 0.28994937E+03</pdfrwt>
<totfact> 0.35038164E+01</totfact>
</mgrwt>
</event>
<event>
 4    1  0.2731969E-009  0.1589582E+03  0.7818608E-02  0.1189878E+00
         -1   -1    0    0    0  501 -0.00000000000E+00  0.00000000000E+00  0.10178448462E+04  0.10178448462E+04  0.50400000000E-02 0.  1.
          1   -1    0    0  501    0  0.00000000000E+00 -0.00000000000E+00 -0.84765994742E+03  0.84765994743E+03  0.50400000000E-02 0. -1.
    8880022    1    1    2    0    0 -0.19594546476E+02  0.38627854264E+02  0.10040849795E+04  0.10165895712E+04  0.15294330000E+03 0.  1.
    8880022    1    1    2    0    0  0.19594546476E+02 -0.38627854264E+02 -0.83390008064E+03  0.84891522244E+03  0.15294330000E+03 0.  0.
<mgrwt>
<rscale>  0 0.15895820E+03</rscale>
<asrwt>0</asrwt>
<pdfrwt beam="1">  1        1 0.13040922E+00 0.15895820E+03</pdfrwt>
<pdfrwt beam="2">  1       -1 0.15659151E+00 0.15895820E+03</pdfrwt>
<totfact> 0.76961929E+00</totfact>
</mgrwt>
</event>
<event>
 4    1  0.2731969E-009  0.9322338E+03  0.7818608E-02  0.9386161E-01
          1   -1    0    0  501    0  0.00000000000E+00  0.00000000000E+00  0.48213908782E+03  0.48213908785E+03  0.50400000000E-02 0. -1.
         -1   -1    0    0    0  501 -0.00000000000E+00 -0.00000000000E+00 -0.20461968719E+04  0.20461968719E+04  0.50400000000E-02 0.  1.
    8880022    1    1    2    0    0 -0.88839454718E+03 -0.23753590454E+03 -0.12182919429E+04  0.15340453346E+04  0.15294330000E+03 0.  0.
    8880022    1    1    2    0    0  0.88839454718E+03  0.23753590454E+03 -0.34576584121E+03  0.99429062520E+03  0.15294330000E+03 0.  0.
<mgrwt>
<rscale>  0 0.93223379E+03</rscale>
<asrwt>0</asrwt>
<pdfrwt beam="1">  1        1 0.74175245E-01 0.93223379E+03</pdfrwt>
<pdfrwt beam="2">  1       -1 0.31479951E+00 0.93223379E+03</pdfrwt>
<totfact> 0.12651778E+00</totfact>
</mgrwt>
</event>
<event>
 4    1  0.2731969E-009  0.8092233E+03  0.7818608E-02  0.9546762E-01
          1   -1    0    0  501    0  0.00000000000E+00  0.00000000000E+00  0.10805292272E+04  0.10805292272E+04  0.50400000000E-02 0. -1.
         -1   -1    0    0    0  501 -0.00000000000E+00 -0.00000000000E+00 -0.95117424434E+03  0.95117424435E+03  0.50400000000E-02 0.  1.
    8880022    1    1    2    0    0 -0.79450267402E+03  0.14703170374E+02 -0.54724334616E+03  0.97689181344E+03  0.15294330000E+03 0.  0.
    8880022    1    1    2    0    0  0.79450267402E+03 -0.14703170374E+02  0.67659832900E+03  0.10548116581E+04  0.15294330000E+03 0.  0.
<mgrwt>
<rscale>  0 0.80922329E+03</rscale>
<asrwt>0</asrwt>
<pdfrwt beam="1">  1        1 0.16623527E+00 0.80922329E+03</pdfrwt>
<pdfrwt beam="2">  1       -1 0.14633450E+00 0.80922329E+03</pdfrwt>
<totfact> 0.50269817E+00</totfact>
</mgrwt>
</event>
<event>
 4    1  0.2731969E-009  0.4486855E+03  0.7818608E-02  0.1028115E+00
          1   -1    0    0  501    0  0.00000000000E+00  0.00000000000E+00  0.10712709221E+04  0.10712709221E+04  0.50400000000E-02 0. -1.
         -1   -1    0    0    0  501 -0.00000000000E+00 -0.00000000000E+00 -0.20451650426E+03  0.20451650432E+03  0.50400000000E-02 0.  1.
    8880022    1    1    2    0    0  0.16544387767E+03 -0.38801462863E+03  0.25168936171E+03  0.51445720570E+03  0.15294330000E+03 0.  0.
    8880022    1    1    2    0    0 -0.16544387767E+03  0.38801462863E+03  0.61506505609E+03  0.76133022068E+03  0.15294330000E+03 0.  1.
<mgrwt>
<rscale>  0 0.44868550E+03</rscale>
<asrwt>0</asrwt>
<pdfrwt beam="1">  1        1 0.16481091E+00 0.44868550E+03</pdfrwt>
<pdfrwt beam="2">  1       -1 0.31464078E-01 0.44868550E+03</pdfrwt>
<totfact> 0.13102235E+02</totfact>
</mgrwt>
</event>
<event>
 4    1  0.2731969E-009  0.1291350E+04  0.7818608E-02  0.9036453E-01
         -1   -1    0    0    0  501 -0.00000000000E+00  0.00000000000E+00  0.13214158242E+04  0.13214158242E+04  0.50400000000E-02 0.  1.
          1   -1    0    0  501    0  0.00000000000E+00 -0.00000000000E+00 -0.13938249645E+04  0.13938249645E+04  0.50400000000E-02 0. -1.
    8880022    1    1    2    0    0 -0.10741101599E+03 -0.12777538948E+04  0.38136287308E+03  0.13464848444E+04  0.15294330000E+03 0.  0.
    8880022    1    1    2    0    0  0.10741101599E+03  0.12777538948E+04 -0.45377201335E+03  0.13687559444E+04  0.15294330000E+03 0.  0.
<mgrwt>
<rscale>  0 0.12913496E+04</rscale>
<asrwt>0</asrwt>
<pdfrwt beam="1">  1        1 0.21443461E+00 0.12913496E+04</pdfrwt>
<pdfrwt beam="2">  1       -1 0.20329474E+00 0.12913496E+04</pdfrwt>
<totfact> 0.10745213E+00</totfact>
</mgrwt>
</event>
<event>
 4    1  0.2731969E-009  0.1585442E+04  0.7818608E-02  0.8829542E-01
          1   -1    0    0  501    0  0.00000000000E+00  0.00000000000E+00  0.33068318845E+04  0.33068318845E+04  0.50400000000E-02 0. -1.
         -1   -1    0    0    0  501 -0.00000000000E+00 -0.00000000000E+00 -0.83779727919E+03  0.83779727921E+03  0.50400000000E-02 0.  1.
    8880022    1    1    2    0    0 -0.15565846057E+04  0.25938144458E+03  0.60355711447E+03  0.16964395692E+04  0.15294330000E+03 0.  0.
    8880022    1    1    2    0    0  0.15565846057E+04 -0.25938144458E+03  0.18654774908E+04  0.24481895944E+04  0.15294330000E+03 0.  0.
<mgrwt>
<rscale>  0 0.15854419E+04</rscale>
<asrwt>0</asrwt>
<pdfrwt beam="1">  1        1 0.50874337E+00 0.15854419E+04</pdfrwt>
<pdfrwt beam="2">  1       -1 0.12889189E+00 0.15854419E+04</pdfrwt>
<totfact> 0.17317181E-01</totfact>
</mgrwt>
</event>
<event>
 4    1  0.2731969E-009  0.5018818E+03  0.7818608E-02  0.1013289E+00
         -1   -1    0    0    0  501 -0.00000000000E+00  0.00000000000E+00  0.30059123683E+03  0.30059123687E+03  0.50400000000E-02 0.  1.
          1   -1    0    0  501    0  0.00000000000E+00 -0.00000000000E+00 -0.12385464351E+04  0.12385464351E+04  0.50400000000E-02 0. -1.
    8880022    1    1    2    0    0  0.46695338199E+03  0.10221668874E+03 -0.90663669608E+03  0.10362796264E+04  0.15294330000E+03 0.  0.
    8880022    1    1    2    0    0 -0.46695338199E+03 -0.10221668874E+03 -0.31318502195E+02  0.50285804558E+03  0.15294330000E+03 0.  0.
<mgrwt>
<rscale>  0 0.50188182E+03</rscale>
<asrwt>0</asrwt>
<pdfrwt beam="1">  1        1 0.19054560E+00 0.50188182E+03</pdfrwt>
<pdfrwt beam="2">  1       -1 0.46244806E-01 0.50188182E+03</pdfrwt>
<totfact> 0.49364812E+01</totfact>
</mgrwt>
</event>
<event>
 4    1  0.2731969E-009  0.6323671E+03  0.7818608E-02  0.9840440E-01
          1   -1    0    0  501    0  0.00000000000E+00  0.00000000000E+00  0.39089861509E+03  0.39089861513E+03  0.50400000000E-02 0. -1.
         -1   -1    0    0    0  501 -0.00000000000E+00 -0.00000000000E+00 -0.12072989469E+04  0.12072989469E+04  0.50400000000E-02 0.  1.
    8880022    1    1    2    0    0  0.60592759145E+03 -0.96686526680E+02 -0.72041806630E+03  0.95858769749E+03  0.15294330000E+03 0.  1.
    8880022    1    1    2    0    0 -0.60592759145E+03  0.96686526680E+02 -0.95982265513E+02  0.63960986455E+03  0.15294330000E+03 0.  0.
<mgrwt>
<rscale>  0 0.63236713E+03</rscale>
<asrwt>0</asrwt>
<pdfrwt beam="1">  1        1 0.60138249E-01 0.63236713E+03</pdfrwt>
<pdfrwt beam="2">  1       -1 0.18573830E+00 0.63236713E+03</pdfrwt>
<totfact> 0.12245334E+01</totfact>
</mgrwt>
</event>
<event>
 4    1  0.2731969E-009  0.8201064E+03  0.7818608E-02  0.9531361E-01
         -1   -1    0    0    0  501 -0.00000000000E+00  0.00000000000E+00  0.11663555081E+04  0.11663555081E+04  0.50400000000E-02 0.  1.
          1   -1    0    0  501    0  0.00000000000E+00 -0.00000000000E+00 -0.66939725243E+03  0.66939725245E+03  0.50400000000E-02 0. -1.
    8880022    1    1    2    0    0  0.36091179134E+02  0.80491010155E+03  0.59014500109E+03  0.10103690514E+04  0.15294330000E+03 0.  0.
    8880022    1    1    2    0    0 -0.36091179134E+02 -0.80491010155E+03 -0.93186745395E+02  0.82538370915E+03  0.15294330000E+03 0.  0.
<mgrwt>
<rscale>  0 0.82010639E+03</rscale>
<asrwt>0</asrwt>
<pdfrwt beam="1">  1        1 0.10298419E+00 0.82010639E+03</pdfrwt>
<pdfrwt beam="2">  1       -1 0.17943931E+00 0.82010639E+03</pdfrwt>
<totfact> 0.62714344E+00</totfact>
</mgrwt>
</event>
<event>
 4    1  0.2731969E-009  0.1117984E+04  0.7818608E-02  0.9187838E-01
         -1   -1    0    0    0  501 -0.00000000000E+00  0.00000000000E+00  0.21826758130E+04  0.21826758131E+04  0.50400000000E-02 0.  1.
          1   -1    0    0  501    0  0.00000000000E+00 -0.00000000000E+00 -0.11668871706E+04  0.11668871706E+04  0.50400000000E-02 0. -1.
    8880022    1    1    2    0    0  0.90855480581E+03  0.63326569794E+03  0.17030570414E+04  0.20372265997E+04  0.15294330000E+03 0.  0.
    8880022    1    1    2    0    0 -0.90855480581E+03 -0.63326569794E+03 -0.68726839891E+03  0.13123363839E+04  0.15294330000E+03 0.  0.
<mgrwt>
<rscale>  0 0.11179843E+04</rscale>
<asrwt>0</asrwt>
<pdfrwt beam="1">  1        1 0.17952110E+00 0.11179843E+04</pdfrwt>
<pdfrwt beam="2">  1       -1 0.33579628E+00 0.11179843E+04</pdfrwt>
<totfact> 0.21786930E-01</totfact>
</mgrwt>
</event>
<event>
 4    1  0.2731969E-009  0.8219104E+03  0.7818608E-02  0.9528833E-01
          1   -1    0    0  501    0  0.00000000000E+00  0.00000000000E+00  0.10048121133E+04  0.10048121133E+04  0.50400000000E-02 0. -1.
         -1   -1    0    0    0  501 -0.00000000000E+00 -0.00000000000E+00 -0.12151754156E+04  0.12151754156E+04  0.50400000000E-02 0.  1.
    8880022    1    1    2    0    0 -0.68482144830E+03 -0.42797739248E+03 -0.84709046176E+03  0.11802961357E+04  0.15294330000E+03 0.  0.
    8880022    1    1    2    0    0  0.68482144830E+03  0.42797739248E+03  0.63672715943E+03  0.10396913932E+04  0.15294330000E+03 0.  0.
<mgrwt>
<rscale>  0 0.82191041E+03</rscale>
<asrwt>0</asrwt>
<pdfrwt beam="1">  1        1 0.15458648E+00 0.82191041E+03</pdfrwt>
<pdfrwt beam="2">  1       -1 0.18695007E+00 0.82191041E+03</pdfrwt>
<totfact> 0.28651652E+00</totfact>
</mgrwt>
</event>
<event>
 4    1  0.2731969E-009  0.3041519E+03  0.7818608E-02  0.1083183E+00
          1   -1    0    0  501    0  0.00000000000E+00  0.00000000000E+00  0.29119223930E+04  0.29119223930E+04  0.50400000000E-02 0. -1.
         -1   -1    0    0    0  501 -0.00000000000E+00 -0.00000000000E+00 -0.14573105019E+03  0.14573105027E+03  0.50400000000E-02 0.  1.
    8880022    1    1    2    0    0  0.25972622620E+03  0.40730753814E+02  0.31139310806E+02  0.30574174817E+03  0.15294330000E+03 0.  0.
    8880022    1    1    2    0    0 -0.25972622620E+03 -0.40730753814E+02  0.27350520320E+04  0.27519116951E+04  0.15294330000E+03 0. -1.
<mgrwt>
<rscale>  0 0.30415187E+03</rscale>
<asrwt>0</asrwt>
<pdfrwt beam="1">  1        1 0.44798806E+00 0.30415187E+03</pdfrwt>
<pdfrwt beam="2">  1       -1 0.22420162E-01 0.30415187E+03</pdfrwt>
<totfact> 0.13835888E+01</totfact>
</mgrwt>
</event>
<event>
 4    1  0.2731969E-009  0.5320635E+03  0.7818608E-02  0.1005733E+00
         -1   -1    0    0    0  501 -0.00000000000E+00  0.00000000000E+00  0.26712796484E+03  0.26712796489E+03  0.50400000000E-02 0.  1.
          1   -1    0    0  501    0  0.00000000000E+00 -0.00000000000E+00 -0.19667109121E+04  0.19667109121E+04  0.50400000000E-02 0. -1.
    8880022    1    1    2    0    0  0.49392755568E+03 -0.12544119714E+03 -0.91312691760E+02  0.53984218517E+03  0.15294330000E+03 0.  0.
    8880022    1    1    2    0    0 -0.49392755568E+03  0.12544119714E+03 -0.16082702555E+04  0.16939966919E+04  0.15294330000E+03 0.  0.
<mgrwt>
<rscale>  0 0.53206351E+03</rscale>
<asrwt>0</asrwt>
<pdfrwt beam="1">  1        1 0.30257090E+00 0.53206351E+03</pdfrwt>
<pdfrwt beam="2">  1       -1 0.41096611E-01 0.53206351E+03</pdfrwt>
<totfact> 0.19643303E+01</totfact>
</mgrwt>
</event>
<event>
 4    1  0.2731969E-009  0.1227842E+04  0.7818608E-02  0.9088829E-01
          1   -1    0    0  501    0  0.00000000000E+00  0.00000000000E+00  0.17187450290E+04  0.17187450290E+04  0.50400000000E-02 0. -1.
         -1   -1    0    0    0  501 -0.00000000000E+00 -0.00000000000E+00 -0.10478558660E+04  0.10478558660E+04  0.50400000000E-02 0.  1.
    8880022    1    1    2    0    0  0.11507082737E+04  0.40009420790E+03  0.89377390973E+03  0.15186929779E+04  0.15294330000E+03 0.  0.
    8880022    1    1    2    0    0 -0.11507082737E+04 -0.40009420790E+03 -0.22288474673E+03  0.12479079171E+04  0.15294330000E+03 0.  0.
<mgrwt>
<rscale>  0 0.12278422E+04</rscale>
<asrwt>0</asrwt>
<pdfrwt beam="1">  1        1 0.26442231E+00 0.12278422E+04</pdfrwt>
<pdfrwt beam="2">  1       -1 0.16120860E+00 0.12278422E+04</pdfrwt>
<totfact> 0.12947264E+00</totfact>
</mgrwt>
</event>
<event>
 4    1  0.2731969E-009  0.5615594E+03  0.7818608E-02  0.9988532E-01
         -1   -1    0    0    0  501 -0.00000000000E+00  0.00000000000E+00  0.58316476960E+03  0.58316476962E+03  0.50400000000E-02 0.  1.
          1   -1    0    0  501    0  0.00000000000E+00 -0.00000000000E+00 -0.11598167926E+04  0.11598167926E+04  0.50400000000E-02 0. -1.
    8880022    1    1    2    0    0 -0.38558773720E+03 -0.37852259655E+03 -0.92502669170E+03  0.10821382964E+04  0.15294330000E+03 0.  0.
    8880022    1    1    2    0    0  0.38558773720E+03  0.37852259655E+03  0.34837466870E+03  0.66084326582E+03  0.15294330000E+03 0.  0.
<mgrwt>
<rscale>  0 0.56155936E+03</rscale>
<asrwt>0</asrwt>
<pdfrwt beam="1">  1        1 0.17843335E+00 0.56155936E+03</pdfrwt>
<pdfrwt beam="2">  1       -1 0.89717657E-01 0.56155936E+03</pdfrwt>
<totfact> 0.14787952E+01</totfact>
</mgrwt>
</event>
<event>
 4    1  0.2731969E-009  0.8094504E+03  0.7818608E-02  0.9546438E-01
          1   -1    0    0  501    0  0.00000000000E+00  0.00000000000E+00  0.16517917897E+04  0.16517917898E+04  0.50400000000E-02 0. -1.
         -1   -1    0    0    0  501 -0.00000000000E+00 -0.00000000000E+00 -0.51365383674E+03  0.51365383677E+03  0.50400000000E-02 0.  1.
    8880022    1    1    2    0    0 -0.24958272466E+03 -0.75466999784E+03  0.52352895247E+02  0.81114167735E+03  0.15294330000E+03 0.  0.
    8880022    1    1    2    0    0  0.24958272466E+03  0.75466999784E+03  0.10857850578E+04  0.13543039492E+04  0.15294330000E+03 0.  0.
<mgrwt>
<rscale>  0 0.80945043E+03</rscale>
<asrwt>0</asrwt>
<pdfrwt beam="1">  1        1 0.25412181E+00 0.80945043E+03</pdfrwt>
<pdfrwt beam="2">  1       -1 0.79023668E-01 0.80945043E+03</pdfrwt>
<totfact> 0.84985056E+00</totfact>
</mgrwt>
</event>
<event>
 4    1  0.2731969E-009  0.6222038E+03  0.7818608E-02  0.9860382E-01
          1   -1    0    0  501    0  0.00000000000E+00  0.00000000000E+00  0.10009307405E+04  0.10009307405E+04  0.50400000000E-02 0. -1.
         -1   -1    0    0    0  501 -0.00000000000E+00 -0.00000000000E+00 -0.53111223172E+03  0.53111223174E+03  0.50400000000E-02 0.  1.
    8880022    1    1    2    0    0 -0.59823461912E+03 -0.76559224304E+02  0.63424024636E+03  0.88848090439E+03  0.15294330000E+03 0.  0.
    8880022    1    1    2    0    0  0.59823461912E+03  0.76559224304E+02 -0.16442173761E+03  0.64356206784E+03  0.15294330000E+03 0.  0.
<mgrwt>
<rscale>  0 0.62220385E+03</rscale>
<asrwt>0</asrwt>
<pdfrwt beam="1">  1        1 0.15398934E+00 0.62220385E+03</pdfrwt>
<pdfrwt beam="2">  1       -1 0.81709574E-01 0.62220385E+03</pdfrwt>
<totfact> 0.23545402E+01</totfact>
</mgrwt>
</event>
<event>
 4    1  0.2731969E-009  0.6414196E+03  0.7818608E-02  0.9823014E-01
          1   -1    0    0  501    0  0.00000000000E+00  0.00000000000E+00  0.57515819645E+03  0.57515819647E+03  0.50400000000E-02 0. -1.
         -1   -1    0    0    0  501 -0.00000000000E+00 -0.00000000000E+00 -0.10156707629E+04  0.10156707629E+04  0.50400000000E-02 0.  1.
    8880022    1    1    2    0    0  0.84000113061E+02  0.61722882434E+03 -0.65280521382E+03  0.91519054890E+03  0.15294330000E+03 0.  0.
    8880022    1    1    2    0    0 -0.84000113061E+02 -0.61722882434E+03  0.21229264736E+03  0.67563841049E+03  0.15294330000E+03 0.  0.
<mgrwt>
<rscale>  0 0.64141959E+03</rscale>
<asrwt>0</asrwt>
<pdfrwt beam="1">  1        1 0.88485877E-01 0.64141959E+03</pdfrwt>
<pdfrwt beam="2">  1       -1 0.15625704E+00 0.64141959E+03</pdfrwt>
<totfact> 0.11865045E+01</totfact>
</mgrwt>
</event>
<event>
 4    1  0.2731969E-009  0.2875300E+03  0.7818608E-02  0.1091646E+00
         -1   -1    0    0    0  501 -0.00000000000E+00  0.00000000000E+00  0.11500138343E+04  0.11500138343E+04  0.50400000000E-02 0.  1.
          1   -1    0    0  501    0  0.00000000000E+00 -0.00000000000E+00 -0.13752405206E+03  0.13752405216E+03  0.50400000000E-02 0. -1.
    8880022    1    1    2    0    0 -0.15983685209E+03  0.18366825555E+03  0.61502875225E+02  0.29403418859E+03  0.15294330000E+03 0.  0.
    8880022    1    1    2    0    0  0.15983685209E+03 -0.18366825555E+03  0.95098690701E+03  0.99350369788E+03  0.15294330000E+03 0.  0.
<mgrwt>
<rscale>  0 0.28753000E+03</rscale>
<asrwt>0</asrwt>
<pdfrwt beam="1">  1        1 0.21157547E-01 0.28753000E+03</pdfrwt>
<pdfrwt beam="2">  1       -1 0.17692521E+00 0.28753000E+03</pdfrwt>
<totfact> 0.57216639E+01</totfact>
</mgrwt>
</event>
<event>
 4    1  0.2731969E-009  0.3648238E+03  0.7818608E-02  0.1056690E+00
         -1   -1    0    0    0  501 -0.00000000000E+00  0.00000000000E+00  0.49605720166E+03  0.49605720168E+03  0.50400000000E-02 0.  1.
          1   -1    0    0  501    0  0.00000000000E+00 -0.00000000000E+00 -0.28502517048E+04  0.28502517048E+04  0.50400000000E-02 0. -1.
    8880022    1    1    2    0    0  0.27952359001E+03  0.17768321635E+03 -0.27695544202E+04  0.27934795690E+04  0.15294330000E+03 0.  0.
    8880022    1    1    2    0    0 -0.27952359001E+03 -0.17768321635E+03  0.41535991704E+03  0.55282933754E+03  0.15294330000E+03 0.  0.
<mgrwt>
<rscale>  0 0.36482381E+03</rscale>
<asrwt>0</asrwt>
<pdfrwt beam="1">  1        1 0.43850025E+00 0.36482381E+03</pdfrwt>
<pdfrwt beam="2">  1       -1 0.76316494E-01 0.36482381E+03</pdfrwt>
<totfact> 0.15998696E+00</totfact>
</mgrwt>
</event>
<event>
 4    1  0.2731969E-009  0.5709360E+03  0.7818608E-02  0.9967610E-01
         -1   -1    0    0    0  501 -0.00000000000E+00  0.00000000000E+00  0.24262940457E+03  0.24262940462E+03  0.50400000000E-02 0.  1.
          1   -1    0    0  501    0  0.00000000000E+00 -0.00000000000E+00 -0.23205056889E+04  0.23205056889E+04  0.50400000000E-02 0. -1.
    8880022    1    1    2    0    0  0.29421791655E+03 -0.46477094743E+03 -0.20735999684E+03  0.60742574632E+03  0.15294330000E+03 0.  0.
    8880022    1    1    2    0    0 -0.29421791655E+03  0.46477094743E+03 -0.18705162875E+04  0.19557093472E+04  0.15294330000E+03 0.  0.
<mgrwt>
<rscale>  0 0.57093596E+03</rscale>
<asrwt>0</asrwt>
<pdfrwt beam="1">  1        1 0.35700086E+00 0.57093596E+03</pdfrwt>
<pdfrwt beam="2">  1       -1 0.37327602E-01 0.57093596E+03</pdfrwt>
<totfact> 0.13477930E+01</totfact>
</mgrwt>
</event>
<event>
 4    1  0.2731969E-009  0.7158651E+03  0.7818608E-02  0.9690479E-01
          1   -1    0    0  501    0  0.00000000000E+00  0.00000000000E+00  0.92072776640E+03  0.92072776641E+03  0.50400000000E-02 0. -1.
         -1   -1    0    0    0  501 -0.00000000000E+00 -0.00000000000E+00 -0.95151983229E+03  0.95151983230E+03  0.50400000000E-02 0.  1.
    8880022    1    1    2    0    0  0.45773022223E+03 -0.52872889322E+03 -0.61849325752E+03  0.94604268481E+03  0.15294330000E+03 0.  0.
    8880022    1    1    2    0    0 -0.45773022223E+03  0.52872889322E+03  0.58770119164E+03  0.92620491390E+03  0.15294330000E+03 0.  0.
<mgrwt>
<rscale>  0 0.71586511E+03</rscale>
<asrwt>0</asrwt>
<pdfrwt beam="1">  1        1 0.14165042E+00 0.71586511E+03</pdfrwt>
<pdfrwt beam="2">  1       -1 0.14638767E+00 0.71586511E+03</pdfrwt>
<totfact> 0.67763867E+00</totfact>
</mgrwt>
</event>
<event>
 4    1  0.2731969E-009  0.8015496E+03  0.7818608E-02  0.9557777E-01
         -1   -1    0    0    0  501 -0.00000000000E+00  0.00000000000E+00  0.13814361114E+04  0.13814361114E+04  0.50400000000E-02 0.  1.
          1   -1    0    0  501    0  0.00000000000E+00 -0.00000000000E+00 -0.89874373529E+03  0.89874373531E+03  0.50400000000E-02 0. -1.
    8880022    1    1    2    0    0 -0.53330225391E+03  0.57851437570E+03 -0.55060140858E+03  0.97244215307E+03  0.15294330000E+03 0.  0.
    8880022    1    1    2    0    0  0.53330225391E+03 -0.57851437570E+03  0.10332937847E+04  0.13077376937E+04  0.15294330000E+03 0.  0.
<mgrwt>
<rscale>  0 0.80154964E+03</rscale>
<asrwt>0</asrwt>
<pdfrwt beam="1">  1        1 0.13826827E+00 0.80154964E+03</pdfrwt>
<pdfrwt beam="2">  1       -1 0.21252863E+00 0.80154964E+03</pdfrwt>
<totfact> 0.23303484E+00</totfact>
</mgrwt>
</event>
<event>
 4    1  0.2731969E-009  0.5825879E+03  0.7818608E-02  0.9942204E-01
          1   -1    0    0  501    0  0.00000000000E+00  0.00000000000E+00  0.37880585008E+03  0.37880585012E+03  0.50400000000E-02 0. -1.
         -1   -1    0    0    0  501 -0.00000000000E+00 -0.00000000000E+00 -0.20413174572E+04  0.20413174572E+04  0.50400000000E-02 0.  1.
    8880022    1    1    2    0    0 -0.56211307464E+03 -0.67747276775E+01 -0.17376473704E+04  0.18327102996E+04  0.15294330000E+03 0.  0.
    8880022    1    1    2    0    0  0.56211307464E+03  0.67747276775E+01  0.75135763285E+02  0.58741300765E+03  0.15294330000E+03 0.  0.
<mgrwt>
<rscale>  0 0.58258790E+03</rscale>
<asrwt>0</asrwt>
<pdfrwt beam="1">  1        1 0.58277825E-01 0.58258790E+03</pdfrwt>
<pdfrwt beam="2">  1       -1 0.31404883E+00 0.58258790E+03</pdfrwt>
<totfact> 0.18788365E+00</totfact>
</mgrwt>
</event>
<event>
 4    1  0.2731969E-009  0.2913325E+03  0.7818608E-02  0.1089655E+00
         -1   -1    0    0    0  501 -0.00000000000E+00  0.00000000000E+00  0.14513696149E+03  0.14513696158E+03  0.50400000000E-02 0.  1.
          1   -1    0    0  501    0  0.00000000000E+00 -0.00000000000E+00 -0.28622545438E+04  0.28622545438E+04  0.50400000000E-02 0. -1.
    8880022    1    1    2    0    0 -0.45122371192E+01 -0.24791659210E+03 -0.17241094588E+02  0.29184226096E+03  0.15294330000E+03 0.  0.
    8880022    1    1    2    0    0  0.45122371192E+01  0.24791659210E+03 -0.26998764877E+04  0.27155492444E+04  0.15294330000E+03 0. -1.
<mgrwt>
<rscale>  0 0.29133254E+03</rscale>
<asrwt>0</asrwt>
<pdfrwt beam="1">  1        1 0.44034681E+00 0.29133254E+03</pdfrwt>
<pdfrwt beam="2">  1       -1 0.22328765E-01 0.29133254E+03</pdfrwt>
<totfact> 0.15159074E+01</totfact>
</mgrwt>
</event>
<event>
 4    1  0.2731969E-009  0.2018452E+04  0.7818608E-02  0.8598042E-01
         -1   -1    0    0    0  501 -0.00000000000E+00  0.00000000000E+00  0.13883646657E+04  0.13883646657E+04  0.50400000000E-02 0.  1.
          1   -1    0    0  501    0  0.00000000000E+00 -0.00000000000E+00 -0.31612336818E+04  0.31612336818E+04  0.50400000000E-02 0. -1.
    8880022    1    1    2    0    0 -0.19961980100E+04  0.25680530031E+03 -0.14956612955E+04  0.25122001953E+04  0.15294330000E+03 0.  0.
    8880022    1    1    2    0    0  0.19961980100E+04 -0.25680530031E+03 -0.27720772064E+03  0.20373981522E+04  0.15294330000E+03 0.  0.
<mgrwt>
<rscale>  0 0.20184517E+04</rscale>
<asrwt>0</asrwt>
<pdfrwt beam="1">  1        1 0.48634364E+00 0.20184517E+04</pdfrwt>
<pdfrwt beam="2">  1       -1 0.21359456E+00 0.20184517E+04</pdfrwt>
<totfact> 0.49226304E-02</totfact>
</mgrwt>
</event>
<event>
 4    1  0.2731969E-009  0.1731495E+04  0.7818608E-02  0.8743603E-01
          1   -1    0    0  501    0  0.00000000000E+00  0.00000000000E+00  0.28727671500E+04  0.28727671500E+04  0.50400000000E-02 0. -1.
         -1   -1    0    0    0  501 -0.00000000000E+00 -0.00000000000E+00 -0.14773406344E+04  0.14773406344E+04  0.50400000000E-02 0.  1.
    8880022    1    1    2    0    0  0.16516747053E+04 -0.49664101007E+03  0.18762291284E+04  0.25530979261E+04  0.15294330000E+03 0.  0.
    8880022    1    1    2    0    0 -0.16516747053E+04  0.49664101007E+03 -0.48080261293E+03  0.17970098583E+04  0.15294330000E+03 0.  0.
<mgrwt>
<rscale>  0 0.17314945E+04</rscale>
<asrwt>0</asrwt>
<pdfrwt beam="1">  1        1 0.44196417E+00 0.17314945E+04</pdfrwt>
<pdfrwt beam="2">  1       -1 0.22728318E+00 0.17314945E+04</pdfrwt>
<totfact> 0.66788572E-02</totfact>
</mgrwt>
</event>
<event>
 4    1  0.2731969E-009  0.1389141E+04  0.7818608E-02  0.8961717E-01
          1   -1    0    0  501    0  0.00000000000E+00  0.00000000000E+00  0.10838415282E+04  0.10838415283E+04  0.50400000000E-02 0. -1.
         -1   -1    0    0    0  501 -0.00000000000E+00 -0.00000000000E+00 -0.31085321645E+04  0.31085321645E+04  0.50400000000E-02 0.  1.
    8880022    1    1    2    0    0  0.10933061877E+04 -0.84320943886E+03 -0.23824911854E+04  0.27578934859E+04  0.15294330000E+03 0.  0.
    8880022    1    1    2    0    0 -0.10933061877E+04  0.84320943886E+03  0.35780054916E+03  0.14344802069E+04  0.15294330000E+03 0.  0.
<mgrwt>
<rscale>  0 0.13891408E+04</rscale>
<asrwt>0</asrwt>
<pdfrwt beam="1">  1        1 0.16674485E+00 0.13891408E+04</pdfrwt>
<pdfrwt beam="2">  1       -1 0.47823571E+00 0.13891408E+04</pdfrwt>
<totfact> 0.26002373E-02</totfact>
</mgrwt>
</event>
<event>
 4    1  0.2731969E-009  0.1118520E+04  0.7818608E-02  0.9187327E-01
          1   -1    0    0  501    0  0.00000000000E+00  0.00000000000E+00  0.33368700338E+04  0.33368700338E+04  0.50400000000E-02 0. -1.
         -1   -1    0    0    0  501 -0.00000000000E+00 -0.00000000000E+00 -0.70129804906E+03  0.70129804908E+03  0.50400000000E-02 0.  1.
    8880022    1    1    2    0    0 -0.71792829078E+03  0.84396367556E+03 -0.59607281112E+02  0.11201073151E+04  0.15294330000E+03 0.  0.
    8880022    1    1    2    0    0  0.71792829078E+03 -0.84396367556E+03  0.26951792658E+04  0.29180607678E+04  0.15294330000E+03 0.  0.
<mgrwt>
<rscale>  0 0.11185202E+04</rscale>
<asrwt>0</asrwt>
<pdfrwt beam="1">  1        1 0.51336462E+00 0.11185202E+04</pdfrwt>
<pdfrwt beam="2">  1       -1 0.10789201E+00 0.11185202E+04</pdfrwt>
<totfact> 0.27108415E-01</totfact>
</mgrwt>
</event>
<event>
 4    1  0.2731969E-009  0.8176724E+03  0.7818608E-02  0.9534784E-01
          1   -1    0    0  501    0  0.00000000000E+00  0.00000000000E+00  0.18781342501E+04  0.18781342501E+04  0.50400000000E-02 0. -1.
         -1   -1    0    0    0  501 -0.00000000000E+00 -0.00000000000E+00 -0.62239361240E+03  0.62239361242E+03  0.50400000000E-02 0.  1.
    8880022    1    1    2    0    0  0.53015684686E+03 -0.60343201396E+03 -0.19011036476E+03  0.83948203170E+03  0.15294330000E+03 0.  0.
    8880022    1    1    2    0    0 -0.53015684686E+03  0.60343201396E+03  0.14458510024E+04  0.16610458308E+04  0.15294330000E+03 0.  0.
<mgrwt>
<rscale>  0 0.81767239E+03</rscale>
<asrwt>0</asrwt>
<pdfrwt beam="1">  1        1 0.28894374E+00 0.81767239E+03</pdfrwt>
<pdfrwt beam="2">  1       -1 0.95752862E-01 0.81767239E+03</pdfrwt>
<totfact> 0.39323848E+00</totfact>
</mgrwt>
</event>
<event>
 4    1  0.2731969E-009  0.1078316E+04  0.7818608E-02  0.9226588E-01
         -1   -1    0    0    0  501 -0.00000000000E+00  0.00000000000E+00  0.89550346198E+03  0.89550346200E+03  0.50400000000E-02 0.  1.
          1   -1    0    0  501    0  0.00000000000E+00 -0.00000000000E+00 -0.17424836645E+04  0.17424836645E+04  0.50400000000E-02 0. -1.
    8880022    1    1    2    0    0  0.87285495399E+03 -0.61440926010E+03  0.24234461492E+03  0.11052135880E+04  0.15294330000E+03 0.  0.
    8880022    1    1    2    0    0 -0.87285495399E+03  0.61440926010E+03 -0.10893248174E+04  0.15327735386E+04  0.15294330000E+03 0. -1.
<mgrwt>
<rscale>  0 0.10783164E+04</rscale>
<asrwt>0</asrwt>
<pdfrwt beam="1">  1        1 0.26807441E+00 0.10783164E+04</pdfrwt>
<pdfrwt beam="2">  1       -1 0.13776976E+00 0.10783164E+04</pdfrwt>
<totfact> 0.19431199E+00</totfact>
</mgrwt>
</event>
<event>
 4    1  0.2731969E-009  0.3133263E+03  0.7818608E-02  0.1078762E+00
         -1   -1    0    0    0  501 -0.00000000000E+00  0.00000000000E+00  0.10872684043E+03  0.10872684055E+03  0.50400000000E-02 0.  1.
          1   -1    0    0  501    0  0.00000000000E+00 -0.00000000000E+00 -0.10524350870E+04  0.10524350870E+04  0.50400000000E-02 0. -1.
    8880022    1    1    2    0    0  0.10073525362E+03  0.25423243377E+03 -0.25303541356E+03  0.40274097784E+03  0.15294330000E+03 0. -1.
    8880022    1    1    2    0    0 -0.10073525362E+03 -0.25423243377E+03 -0.69067283298E+03  0.75842094970E+03  0.15294330000E+03 0.  0.
<mgrwt>
<rscale>  0 0.31332631E+03</rscale>
<asrwt>0</asrwt>
<pdfrwt beam="1">  1        1 0.16191308E+00 0.31332631E+03</pdfrwt>
<pdfrwt beam="2">  1       -1 0.16727207E-01 0.31332631E+03</pdfrwt>
<totfact> 0.39464834E+02</totfact>
</mgrwt>
</event>
<event>
 4    1  0.2731969E-009  0.1080500E+04  0.7818608E-02  0.9224410E-01
         -1   -1    0    0    0  501 -0.00000000000E+00  0.00000000000E+00  0.60632427121E+03  0.60632427123E+03  0.50400000000E-02 0.  1.
          1   -1    0    0  501    0  0.00000000000E+00 -0.00000000000E+00 -0.22817523824E+04  0.22817523824E+04  0.50400000000E-02 0. -1.
    8880022    1    1    2    0    0  0.25737988687E+03 -0.10381922351E+04 -0.26712747805E+03  0.11130302178E+04  0.15294330000E+03 0.  0.
    8880022    1    1    2    0    0 -0.25737988687E+03  0.10381922351E+04 -0.14083006331E+04  0.17750464358E+04  0.15294330000E+03 0.  0.
<mgrwt>
<rscale>  0 0.10804995E+04</rscale>
<asrwt>0</asrwt>
<pdfrwt beam="1">  1        1 0.35103882E+00 0.10804995E+04</pdfrwt>
<pdfrwt beam="2">  1       -1 0.93280658E-01 0.10804995E+04</pdfrwt>
<totfact> 0.21450231E+00</totfact>
</mgrwt>
</event>
<event>
 4    1  0.2731969E-009  0.4055343E+03  0.7818608E-02  0.1041880E+00
          1   -1    0    0  501    0  0.00000000000E+00  0.00000000000E+00  0.19057346006E+04  0.19057346006E+04  0.50400000000E-02 0. -1.
         -1   -1    0    0    0  501 -0.00000000000E+00 -0.00000000000E+00 -0.24349154914E+03  0.24349154919E+03  0.50400000000E-02 0.  1.
    8880022    1    1    2    0    0  0.11534298142E+03 -0.35743864501E+03  0.16945567058E+04  0.17424065170E+04  0.15294330000E+03 0.  0.
    8880022    1    1    2    0    0 -0.11534298142E+03  0.35743864501E+03 -0.32313654383E+02  0.40681963274E+03  0.15294330000E+03 0.  0.
<mgrwt>
<rscale>  0 0.40553427E+03</rscale>
<asrwt>0</asrwt>
<pdfrwt beam="1">  1        1 0.29318994E+00 0.40553427E+03</pdfrwt>
<pdfrwt beam="2">  1       -1 0.37460238E-01 0.40553427E+03</pdfrwt>
<totfact> 0.26190011E+01</totfact>
</mgrwt>
</event>
<event>
 4    1  0.2731969E-009  0.1251768E+04  0.7818608E-02  0.9068713E-01
          1   -1    0    0  501    0  0.00000000000E+00  0.00000000000E+00  0.36909410685E+04  0.36909410685E+04  0.50400000000E-02 0. -1.
         -1   -1    0    0    0  501 -0.00000000000E+00 -0.00000000000E+00 -0.86138969985E+03  0.86138969987E+03  0.50400000000E-02 0.  1.
    8880022    1    1    2    0    0 -0.12321569968E+04  0.15912341478E+03  0.30357418488E+04  0.32836947713E+04  0.15294330000E+03 0.  0.
    8880022    1    1    2    0    0  0.12321569968E+04 -0.15912341478E+03 -0.20619048015E+03  0.12686359970E+04  0.15294330000E+03 0.  0.
<mgrwt>
<rscale>  0 0.12517679E+04</rscale>
<asrwt>0</asrwt>
<pdfrwt beam="1">  1        1 0.56783709E+00 0.12517679E+04</pdfrwt>
<pdfrwt beam="2">  1       -1 0.13252149E+00 0.12517679E+04</pdfrwt>
<totfact> 0.84490446E-02</totfact>
</mgrwt>
</event>
<event>
 4    1  0.2731969E-009  0.1070990E+04  0.7818608E-02  0.9233937E-01
         -1   -1    0    0    0  501 -0.00000000000E+00  0.00000000000E+00  0.13762615850E+04  0.13762615850E+04  0.50400000000E-02 0.  1.
          1   -1    0    0  501    0  0.00000000000E+00 -0.00000000000E+00 -0.19210323849E+04  0.19210323849E+04  0.50400000000E-02 0. -1.
    8880022    1    1    2    0    0 -0.88525708068E+03 -0.58305107393E+03  0.96810962240E+03  0.14436954484E+04  0.15294330000E+03 0.  0.
    8880022    1    1    2    0    0  0.88525708068E+03  0.58305107393E+03 -0.15128804223E+04  0.18535985215E+04  0.15294330000E+03 0.  0.
<mgrwt>
<rscale>  0 0.10709903E+04</rscale>
<asrwt>0</asrwt>
<pdfrwt beam="1">  1        1 0.29554344E+00 0.10709903E+04</pdfrwt>
<pdfrwt beam="2">  1       -1 0.21173255E+00 0.10709903E+04</pdfrwt>
<totfact> 0.42207607E-01</totfact>
</mgrwt>
</event>
<event>
 4    1  0.2731969E-009  0.3544393E+03  0.7818608E-02  0.1060808E+00
          1   -1    0    0  501    0  0.00000000000E+00  0.00000000000E+00  0.39929924923E+03  0.39929924926E+03  0.50400000000E-02 0. -1.
         -1   -1    0    0    0  501 -0.00000000000E+00 -0.00000000000E+00 -0.13373284478E+04  0.13373284478E+04  0.50400000000E-02 0.  1.
    8880022    1    1    2    0    0 -0.31842892197E+03 -0.28958657406E+02 -0.12283502043E+04  0.12784644929E+04  0.15294330000E+03 0.  0.
    8880022    1    1    2    0    0  0.31842892197E+03  0.28958657406E+02  0.29032100579E+03  0.45816320412E+03  0.15294330000E+03 0.  0.
<mgrwt>
<rscale>  0 0.35443933E+03</rscale>
<asrwt>0</asrwt>
<pdfrwt beam="1">  1        1 0.61430655E-01 0.35443933E+03</pdfrwt>
<pdfrwt beam="2">  1       -1 0.20574284E+00 0.35443933E+03</pdfrwt>
<totfact> 0.91735515E+00</totfact>
</mgrwt>
</event>
<event>
 4    1  0.2731969E-009  0.5257400E+03  0.7818608E-02  0.1007271E+00
         -1   -1    0    0    0  501 -0.00000000000E+00  0.00000000000E+00  0.46693127746E+03  0.46693127749E+03  0.50400000000E-02 0.  1.
          1   -1    0    0  501    0  0.00000000000E+00 -0.00000000000E+00 -0.17483157879E+04  0.17483157879E+04  0.50400000000E-02 0. -1.
    8880022    1    1    2    0    0  0.46604188089E+03 -0.18925082571E+03 -0.15414931498E+04  0.16286815814E+04  0.15294330000E+03 0.  0.
    8880022    1    1    2    0    0 -0.46604188089E+03  0.18925082571E+03  0.26010863932E+03  0.58656548401E+03  0.15294330000E+03 0.  0.
<mgrwt>
<rscale>  0 0.52574001E+03</rscale>
<asrwt>0</asrwt>
<pdfrwt beam="1">  1        1 0.26897166E+00 0.52574001E+03</pdfrwt>
<pdfrwt beam="2">  1       -1 0.71835582E-01 0.52574001E+03</pdfrwt>
<totfact> 0.93962210E+00</totfact>
</mgrwt>
</event>
<event>
 4    1  0.2731969E-009  0.6099648E+03  0.7818608E-02  0.9884945E-01
         -1   -1    0    0    0  501 -0.00000000000E+00  0.00000000000E+00  0.46818329500E+03  0.46818329503E+03  0.50400000000E-02 0.  1.
          1   -1    0    0  501    0  0.00000000000E+00 -0.00000000000E+00 -0.13131500498E+04  0.13131500498E+04  0.50400000000E-02 0. -1.
    8880022    1    1    2    0    0 -0.22162078498E+03 -0.54731129164E+03 -0.98213634492E+03  0.11561353188E+04  0.15294330000E+03 0.  0.
    8880022    1    1    2    0    0  0.22162078498E+03  0.54731129164E+03  0.13716959015E+03  0.62519802604E+03  0.15294330000E+03 0.  0.
<mgrwt>
<rscale>  0 0.60996481E+03</rscale>
<asrwt>0</asrwt>
<pdfrwt beam="1">  1        1 0.20202308E+00 0.60996481E+03</pdfrwt>
<pdfrwt beam="2">  1       -1 0.72028200E-01 0.60996481E+03</pdfrwt>
<totfact> 0.18152683E+01</totfact>
</mgrwt>
</event>
<event>
 4    1  0.2731969E-009  0.5060683E+03  0.7818608E-02  0.1012207E+00
          1   -1    0    0  501    0  0.00000000000E+00  0.00000000000E+00  0.16667173062E+04  0.16667173062E+04  0.50400000000E-02 0. -1.
         -1   -1    0    0    0  501 -0.00000000000E+00 -0.00000000000E+00 -0.84714437261E+03  0.84714437263E+03  0.50400000000E-02 0.  1.
    8880022    1    1    2    0    0 -0.19521410424E+03  0.44114046118E+03 -0.72745191551E+03  0.88616668600E+03  0.15294330000E+03 0.  1.
    8880022    1    1    2    0    0  0.19521410424E+03 -0.44114046118E+03  0.15470248491E+04  0.16276949929E+04  0.15294330000E+03 0.  0.
<mgrwt>
<rscale>  0 0.50606828E+03</rscale>
<asrwt>0</asrwt>
<pdfrwt beam="1">  1        1 0.25641805E+00 0.50606828E+03</pdfrwt>
<pdfrwt beam="2">  1       -1 0.13032990E+00 0.50606828E+03</pdfrwt>
<totfact> 0.28025055E+00</totfact>
</mgrwt>
</event>
<event>
 4    1  0.2731969E-009  0.3467081E+03  0.7818608E-02  0.1063974E+00
          1   -1    0    0  501    0  0.00000000000E+00  0.00000000000E+00  0.11933098975E+04  0.11933098975E+04  0.50400000000E-02 0. -1.
         -1   -1    0    0    0  501 -0.00000000000E+00 -0.00000000000E+00 -0.92776102130E+03  0.92776102131E+03  0.50400000000E-02 0.  1.
    8880022    1    1    2    0    0 -0.31105644764E+03  0.76652630423E+01 -0.86853212065E+03  0.93517622269E+03  0.15294330000E+03 0.  1.
    8880022    1    1    2    0    0  0.31105644764E+03 -0.76652630423E+01  0.11340809968E+04  0.11858946961E+04  0.15294330000E+03 0.  0.
<mgrwt>
<rscale>  0 0.34670812E+03</rscale>
<asrwt>0</asrwt>
<pdfrwt beam="1">  1        1 0.18358614E+00 0.34670812E+03</pdfrwt>
<pdfrwt beam="2">  1       -1 0.14273246E+00 0.34670812E+03</pdfrwt>
<totfact> 0.49254971E+00</totfact>
</mgrwt>
</event>
<event>
 4    1  0.2731969E-009  0.5176922E+03  0.7818608E-02  0.1009261E+00
         -1   -1    0    0    0  501 -0.00000000000E+00  0.00000000000E+00  0.16369046011E+04  0.16369046011E+04  0.50400000000E-02 0.  1.
          1   -1    0    0  501    0  0.00000000000E+00 -0.00000000000E+00 -0.76183035495E+03  0.76183035497E+03  0.50400000000E-02 0. -1.
    8880022    1    1    2    0    0 -0.26342316113E+03  0.41859507152E+03 -0.62516439830E+03  0.81168699240E+03  0.15294330000E+03 0.  0.
    8880022    1    1    2    0    0  0.26342316113E+03 -0.41859507152E+03  0.15002386444E+04  0.15870479637E+04  0.15294330000E+03 0.  0.
<mgrwt>
<rscale>  0 0.51769223E+03</rscale>
<asrwt>0</asrwt>
<pdfrwt beam="1">  1        1 0.11720467E+00 0.51769223E+03</pdfrwt>
<pdfrwt beam="2">  1       -1 0.25183147E+00 0.51769223E+03</pdfrwt>
<totfact> 0.17858041E+00</totfact>
</mgrwt>
</event>
<event>
 4    1  0.2731969E-009  0.1072119E+04  0.7818608E-02  0.9232801E-01
         -1   -1    0    0    0  501 -0.00000000000E+00  0.00000000000E+00  0.23667979251E+04  0.23667979251E+04  0.50400000000E-02 0.  1.
          1   -1    0    0  501    0  0.00000000000E+00 -0.00000000000E+00 -0.73739190314E+03  0.73739190315E+03  0.50400000000E-02 0. -1.
    8880022    1    1    2    0    0  0.44358116768E+03 -0.96399341935E+03  0.17215739023E+04  0.20281163475E+04  0.15294330000E+03 0.  0.
    8880022    1    1    2    0    0 -0.44358116768E+03  0.96399341935E+03 -0.92167880309E+02  0.10760734808E+04  0.15294330000E+03 0.  0.
<mgrwt>
<rscale>  0 0.10721190E+04</rscale>
<asrwt>0</asrwt>
<pdfrwt beam="1">  1        1 0.11344491E+00 0.10721190E+04</pdfrwt>
<pdfrwt beam="2">  1       -1 0.36412276E+00 0.10721190E+04</pdfrwt>
<totfact> 0.31796641E-01</totfact>
</mgrwt>
</event>
<event>
 4    1  0.2731969E-009  0.5675043E+03  0.7818608E-02  0.9975216E-01
         -1   -1    0    0    0  501 -0.00000000000E+00  0.00000000000E+00  0.64798699458E+03  0.64798699460E+03  0.50400000000E-02 0.  1.
          1   -1    0    0  501    0  0.00000000000E+00 -0.00000000000E+00 -0.31735813655E+04  0.31735813655E+04  0.50400000000E-02 0. -1.
    8880022    1    1    2    0    0  0.35259924989E+03  0.41754432724E+03  0.49199458637E+03  0.75107910520E+03  0.15294330000E+03 0.  0.
    8880022    1    1    2    0    0 -0.35259924989E+03 -0.41754432724E+03 -0.30175889573E+04  0.30704892549E+04  0.15294330000E+03 0.  0.
<mgrwt>
<rscale>  0 0.56750432E+03</rscale>
<asrwt>0</asrwt>
<pdfrwt beam="1">  1        1 0.48824328E+00 0.56750432E+03</pdfrwt>
<pdfrwt beam="2">  1       -1 0.99690309E-01 0.56750432E+03</pdfrwt>
<totfact> 0.48900693E-01</totfact>
</mgrwt>
</event>
<event>
 4    1  0.2731969E-009  0.1207092E+04  0.7818608E-02  0.9106672E-01
          1   -1    0    0  501    0  0.00000000000E+00  0.00000000000E+00  0.19189362094E+04  0.19189362094E+04  0.50400000000E-02 0. -1.
         -1   -1    0    0    0  501 -0.00000000000E+00 -0.00000000000E+00 -0.10180185083E+04  0.10180185083E+04  0.50400000000E-02 0.  1.
    8880022    1    1    2    0    0 -0.11948425421E+04  0.77654830434E+02  0.11907343673E+04  0.16955585981E+04  0.15294330000E+03 0.  0.
    8880022    1    1    2    0    0  0.11948425421E+04 -0.77654830434E+02 -0.28981666618E+03  0.12413961197E+04  0.15294330000E+03 0.  0.
<mgrwt>
<rscale>  0 0.12070918E+04</rscale>
<asrwt>0</asrwt>
<pdfrwt beam="1">  1        1 0.29522095E+00 0.12070918E+04</pdfrwt>
<pdfrwt beam="2">  1       -1 0.15661823E+00 0.12070918E+04</pdfrwt>
<totfact> 0.10292818E+00</totfact>
</mgrwt>
</event>
<event>
 4    1  0.2731969E-009  0.1073194E+04  0.7818608E-02  0.9231720E-01
         -1   -1    0    0    0  501 -0.00000000000E+00  0.00000000000E+00  0.73770279764E+03  0.73770279766E+03  0.50400000000E-02 0.  1.
          1   -1    0    0  501    0  0.00000000000E+00 -0.00000000000E+00 -0.16207099746E+04  0.16207099746E+04  0.50400000000E-02 0. -1.
    8880022    1    1    2    0    0  0.48695287710E+03  0.94405004065E+03 -0.21565564451E+03  0.10946472463E+04  0.15294330000E+03 0.  0.
    8880022    1    1    2    0    0 -0.48695287710E+03 -0.94405004065E+03 -0.66735153241E+03  0.12637655260E+04  0.15294330000E+03 0. -1.
<mgrwt>
<rscale>  0 0.10731939E+04</rscale>
<asrwt>0</asrwt>
<pdfrwt beam="1">  1        1 0.24933999E+00 0.10731939E+04</pdfrwt>
<pdfrwt beam="2">  1       -1 0.11349274E+00 0.10731939E+04</pdfrwt>
<totfact> 0.38165342E+00</totfact>
</mgrwt>
</event>
<event>
 4    1  0.2731969E-009  0.8680062E+03  0.7818608E-02  0.9466483E-01
          1   -1    0    0  501    0  0.00000000000E+00  0.00000000000E+00  0.29763386649E+04  0.29763386649E+04  0.50400000000E-02 0. -1.
         -1   -1    0    0    0  501 -0.00000000000E+00 -0.00000000000E+00 -0.51784185597E+03  0.51784185600E+03  0.50400000000E-02 0.  1.
    8880022    1    1    2    0    0  0.21348556593E+03 -0.82732520662E+03 -0.19842530973E+02  0.86823295458E+03  0.15294330000E+03 0.  0.
    8880022    1    1    2    0    0 -0.21348556593E+03  0.82732520662E+03  0.24783393399E+04  0.26259475663E+04  0.15294330000E+03 0.  0.
<mgrwt>
<rscale>  0 0.86800619E+03</rscale>
<asrwt>0</asrwt>
<pdfrwt beam="1">  1        1 0.45789826E+00 0.86800619E+03</pdfrwt>
<pdfrwt beam="2">  1       -1 0.79667978E-01 0.86800619E+03</pdfrwt>
<totfact> 0.10296278E+00</totfact>
</mgrwt>
</event>
<event>
 4    1  0.2731969E-009  0.1294301E+04  0.7818608E-02  0.9034097E-01
          1   -1    0    0  501    0  0.00000000000E+00  0.00000000000E+00  0.13158236641E+04  0.13158236641E+04  0.50400000000E-02 0. -1.
         -1   -1    0    0    0  501 -0.00000000000E+00 -0.00000000000E+00 -0.18970090431E+04  0.18970090431E+04  0.50400000000E-02 0.  1.
    8880022    1    1    2    0    0 -0.12383900296E+04  0.34382089219E+03  0.63064921152E+03  0.14397682981E+04  0.15294330000E+03 0.  0.
    8880022    1    1    2    0    0  0.12383900296E+04 -0.34382089219E+03 -0.12118345905E+04  0.17730644091E+04  0.15294330000E+03 0.  0.
<mgrwt>
<rscale>  0 0.12943007E+04</rscale>
<asrwt>0</asrwt>
<pdfrwt beam="1">  1        1 0.20243441E+00 0.12943007E+04</pdfrwt>
<pdfrwt beam="2">  1       -1 0.29184754E+00 0.12943007E+04</pdfrwt>
<totfact> 0.31917758E-01</totfact>
</mgrwt>
</event>
<event>
 4    1  0.2731969E-009  0.1736138E+04  0.7818608E-02  0.8741018E-01
          1   -1    0    0  501    0  0.00000000000E+00  0.00000000000E+00  0.23236647203E+04  0.23236647203E+04  0.50400000000E-02 0. -1.
         -1   -1    0    0    0  501 -0.00000000000E+00 -0.00000000000E+00 -0.16939882130E+04  0.16939882130E+04  0.50400000000E-02 0.  1.
    8880022    1    1    2    0    0 -0.11997635329E+04 -0.12455318148E+04  0.12871072497E+04  0.21612077091E+04  0.15294330000E+03 0.  0.
    8880022    1    1    2    0    0  0.11997635329E+04  0.12455318148E+04 -0.65743074243E+03  0.18564452243E+04  0.15294330000E+03 0.  0.
<mgrwt>
<rscale>  0 0.17361376E+04</rscale>
<asrwt>0</asrwt>
<pdfrwt beam="1">  1        1 0.35748688E+00 0.17361376E+04</pdfrwt>
<pdfrwt beam="2">  1       -1 0.26061357E+00 0.17361376E+04</pdfrwt>
<totfact> 0.97708561E-02</totfact>
</mgrwt>
</event>
<event>
 4    1  0.2731969E-009  0.8244069E+03  0.7818608E-02  0.9525346E-01
         -1   -1    0    0    0  501 -0.00000000000E+00  0.00000000000E+00  0.12196171993E+04  0.12196171993E+04  0.50400000000E-02 0.  1.
          1   -1    0    0  501    0  0.00000000000E+00 -0.00000000000E+00 -0.13457475286E+04  0.13457475287E+04  0.50400000000E-02 0. -1.
    8880022    1    1    2    0    0  0.37681098569E+03  0.71712523882E+03  0.91875983837E+03  0.12344093408E+04  0.15294330000E+03 0.  0.
    8880022    1    1    2    0    0 -0.37681098569E+03 -0.71712523882E+03 -0.10448901677E+04  0.13309553872E+04  0.15294330000E+03 0.  0.
<mgrwt>
<rscale>  0 0.82440693E+03</rscale>
<asrwt>0</asrwt>
<pdfrwt beam="1">  1        1 0.20703808E+00 0.82440693E+03</pdfrwt>
<pdfrwt beam="2">  1       -1 0.18763341E+00 0.82440693E+03</pdfrwt>
<totfact> 0.15922921E+00</totfact>
</mgrwt>
</event>
<event>
 4    1  0.2731969E-009  0.5833822E+03  0.7818608E-02  0.9940495E-01
          1   -1    0    0  501    0  0.00000000000E+00  0.00000000000E+00  0.54139583557E+03  0.54139583559E+03  0.50400000000E-02 0. -1.
         -1   -1    0    0    0  501 -0.00000000000E+00 -0.00000000000E+00 -0.17333142731E+04  0.17333142732E+04  0.50400000000E-02 0.  1.
    8880022    1    1    2    0    0 -0.11626158299E+03 -0.55084156121E+03 -0.15039418027E+04  0.16131260894E+04  0.15294330000E+03 0.  0.
    8880022    1    1    2    0    0  0.11626158299E+03  0.55084156121E+03  0.31202336516E+03  0.66158401935E+03  0.15294330000E+03 0.  0.
<mgrwt>
<rscale>  0 0.58338224E+03</rscale>
<asrwt>0</asrwt>
<pdfrwt beam="1">  1        1 0.83291668E-01 0.58338224E+03</pdfrwt>
<pdfrwt beam="2">  1       -1 0.26666373E+00 0.58338224E+03</pdfrwt>
<totfact> 0.23273364E+00</totfact>
</mgrwt>
</event>
<event>
 4    1  0.2731969E-009  0.9841953E+03  0.7818608E-02  0.9326051E-01
         -1   -1    0    0    0  501 -0.00000000000E+00  0.00000000000E+00  0.10287278589E+04  0.10287278589E+04  0.50400000000E-02 0.  1.
          1   -1    0    0  501    0  0.00000000000E+00 -0.00000000000E+00 -0.13270809102E+04  0.13270809102E+04  0.50400000000E-02 0. -1.
    8880022    1    1    2    0    0  0.10122423627E+03  0.96695524517E+03 -0.78402209142E+03  0.12583048458E+04  0.15294330000E+03 0.  0.
    8880022    1    1    2    0    0 -0.10122423627E+03 -0.96695524517E+03  0.48566904014E+03  0.10975039233E+04  0.15294330000E+03 0.  0.
<mgrwt>
<rscale>  0 0.98419533E+03</rscale>
<asrwt>0</asrwt>
<pdfrwt beam="1">  1        1 0.20416629E+00 0.98419533E+03</pdfrwt>
<pdfrwt beam="2">  1       -1 0.15826582E+00 0.98419533E+03</pdfrwt>
<totfact> 0.26231597E+00</totfact>
</mgrwt>
</event>
<event>
 4    1  0.2731969E-009  0.6034390E+03  0.7818608E-02  0.9898297E-01
          1   -1    0    0  501    0  0.00000000000E+00  0.00000000000E+00  0.13074907639E+04  0.13074907639E+04  0.50400000000E-02 0. -1.
         -1   -1    0    0    0  501 -0.00000000000E+00 -0.00000000000E+00 -0.46976021428E+03  0.46976021431E+03  0.50400000000E-02 0.  1.
    8880022    1    1    2    0    0 -0.94255237226E+02 -0.57607542802E+03  0.98587546582E+03  0.11558931766E+04  0.15294330000E+03 0.  0.
    8880022    1    1    2    0    0  0.94255237226E+02  0.57607542802E+03 -0.14814491617E+03  0.62135780168E+03  0.15294330000E+03 0.  0.
<mgrwt>
<rscale>  0 0.60343898E+03</rscale>
<asrwt>0</asrwt>
<pdfrwt beam="1">  1        1 0.20115243E+00 0.60343898E+03</pdfrwt>
<pdfrwt beam="2">  1       -1 0.72270802E-01 0.60343898E+03</pdfrwt>
<totfact> 0.18212482E+01</totfact>
</mgrwt>
</event>
<event>
 4    1  0.2731969E-009  0.9670200E+03  0.7818608E-02  0.9345475E-01
          1   -1    0    0  501    0  0.00000000000E+00  0.00000000000E+00  0.27724208291E+04  0.27724208291E+04  0.50400000000E-02 0. -1.
         -1   -1    0    0    0  501 -0.00000000000E+00 -0.00000000000E+00 -0.58331560731E+03  0.58331560733E+03  0.50400000000E-02 0.  1.
    8880022    1    1    2    0    0 -0.35087991245E+03 -0.88804235841E+03  0.48937697446E+01  0.96703233932E+03  0.15294330000E+03 0.  0.
    8880022    1    1    2    0    0  0.35087991245E+03  0.88804235841E+03  0.21842114520E+04  0.23887040971E+04  0.15294330000E+03 0.  0.
<mgrwt>
<rscale>  0 0.96701996E+03</rscale>
<asrwt>0</asrwt>
<pdfrwt beam="1">  1        1 0.42652628E+00 0.96701996E+03</pdfrwt>
<pdfrwt beam="2">  1       -1 0.89740864E-01 0.96701996E+03</pdfrwt>
<totfact> 0.10909571E+00</totfact>
</mgrwt>
</event>
<event>
 4    1  0.2731969E-009  0.1506132E+04  0.7818608E-02  0.8880385E-01
         -1   -1    0    0    0  501 -0.00000000000E+00  0.00000000000E+00  0.17515953833E+04  0.17515953833E+04  0.50400000000E-02 0.  1.
          1   -1    0    0  501    0  0.00000000000E+00 -0.00000000000E+00 -0.18035781893E+04  0.18035781893E+04  0.50400000000E-02 0. -1.
    8880022    1    1    2    0    0  0.32814854408E+03  0.14619713305E+04  0.91788168585E+03  0.17637857241E+04  0.15294330000E+03 0.  0.
    8880022    1    1    2    0    0 -0.32814854408E+03 -0.14619713305E+04 -0.96986449187E+03  0.17913878485E+04  0.15294330000E+03 0.  0.
<mgrwt>
<rscale>  0 0.15061319E+04</rscale>
<asrwt>0</asrwt>
<pdfrwt beam="1">  1        1 0.27747357E+00 0.15061319E+04</pdfrwt>
<pdfrwt beam="2">  1       -1 0.26947621E+00 0.15061319E+04</pdfrwt>
<totfact> 0.19896292E-01</totfact>
</mgrwt>
</event>
<event>
 4    1  0.2731969E-009  0.7663244E+03  0.7818608E-02  0.9610082E-01
         -1   -1    0    0    0  501 -0.00000000000E+00  0.00000000000E+00  0.11276025187E+04  0.11276025187E+04  0.50400000000E-02 0.  1.
          1   -1    0    0  501    0  0.00000000000E+00 -0.00000000000E+00 -0.25506129863E+04  0.25506129863E+04  0.50400000000E-02 0. -1.
    8880022    1    1    2    0    0 -0.71856639525E+03  0.21799953648E+03  0.92913410655E+03  0.12043850312E+04  0.15294330000E+03 0.  0.
    8880022    1    1    2    0    0  0.71856639525E+03 -0.21799953648E+03 -0.23521445742E+04  0.24738304738E+04  0.15294330000E+03 0.  0.
<mgrwt>
<rscale>  0 0.76632442E+03</rscale>
<asrwt>0</asrwt>
<pdfrwt beam="1">  1        1 0.39240200E+00 0.76632442E+03</pdfrwt>
<pdfrwt beam="2">  1       -1 0.17347731E+00 0.76632442E+03</pdfrwt>
<totfact> 0.31065859E-01</totfact>
</mgrwt>
</event>
<event>
 4    1  0.2731969E-009  0.6929913E+03  0.7818608E-02  0.9729294E-01
         -1   -1    0    0    0  501 -0.00000000000E+00  0.00000000000E+00  0.39072609093E+03  0.39072609097E+03  0.50400000000E-02 0.  1.
          1   -1    0    0  501    0  0.00000000000E+00 -0.00000000000E+00 -0.16666883750E+04  0.16666883750E+04  0.50400000000E-02 0. -1.
    8880022    1    1    2    0    0 -0.60952871096E+03 -0.29209583306E+03 -0.11086869712E+03  0.70180392289E+03  0.15294330000E+03 0.  0.
    8880022    1    1    2    0    0  0.60952871096E+03  0.29209583306E+03 -0.11650935870E+04  0.13556105431E+04  0.15294330000E+03 0.  0.
<mgrwt>
<rscale>  0 0.69299125E+03</rscale>
<asrwt>0</asrwt>
<pdfrwt beam="1">  1        1 0.25641359E+00 0.69299125E+03</pdfrwt>
<pdfrwt beam="2">  1       -1 0.60111707E-01 0.69299125E+03</pdfrwt>
<totfact> 0.14763249E+01</totfact>
</mgrwt>
</event>
<event>
 4    1  0.2731969E-009  0.4242894E+03  0.7818608E-02  0.1035679E+00
         -1   -1    0    0    0  501 -0.00000000000E+00  0.00000000000E+00  0.16438279562E+04  0.16438279562E+04  0.50400000000E-02 0.  1.
          1   -1    0    0  501    0  0.00000000000E+00 -0.00000000000E+00 -0.62844770485E+03  0.62844770487E+03  0.50400000000E-02 0. -1.
    8880022    1    1    2    0    0  0.32609408429E+03  0.22425983208E+03  0.15401009896E+04  0.15974769279E+04  0.15294330000E+03 0.  1.
    8880022    1    1    2    0    0 -0.32609408429E+03 -0.22425983208E+03 -0.52472073825E+03  0.67479873315E+03  0.15294330000E+03 0.  0.
<mgrwt>
<rscale>  0 0.42428938E+03</rscale>
<asrwt>0</asrwt>
<pdfrwt beam="1">  1        1 0.96684263E-01 0.42428938E+03</pdfrwt>
<pdfrwt beam="2">  1       -1 0.25289661E+00 0.42428938E+03</pdfrwt>
<totfact> 0.24037101E+00</totfact>
</mgrwt>
</event>
<event>
 4    1  0.2731969E-009  0.3842879E+03  0.7818608E-02  0.1049360E+00
         -1   -1    0    0    0  501 -0.00000000000E+00  0.00000000000E+00  0.32314942463E+03  0.32314942467E+03  0.50400000000E-02 0.  1.
          1   -1    0    0  501    0  0.00000000000E+00 -0.00000000000E+00 -0.11520193974E+04  0.11520193974E+04  0.50400000000E-02 0. -1.
    8880022    1    1    2    0    0  0.27820862907E+03  0.21653058545E+03  0.15846963421E+03  0.41567994142E+03  0.15294330000E+03 0.  0.
    8880022    1    1    2    0    0 -0.27820862907E+03 -0.21653058545E+03 -0.98733960702E+03  0.10594888807E+04  0.15294330000E+03 0. -1.
<mgrwt>
<rscale>  0 0.38428790E+03</rscale>
<asrwt>0</asrwt>
<pdfrwt beam="1">  1        1 0.17723375E+00 0.38428790E+03</pdfrwt>
<pdfrwt beam="2">  1       -1 0.49715297E-01 0.38428790E+03</pdfrwt>
<totfact> 0.50798092E+01</totfact>
</mgrwt>
</event>
<event>
 4    1  0.2731969E-009  0.1366418E+04  0.7818608E-02  0.8978492E-01
         -1   -1    0    0    0  501 -0.00000000000E+00  0.00000000000E+00  0.43884908511E+03  0.43884908514E+03  0.50400000000E-02 0.  1.
          1   -1    0    0  501    0  0.00000000000E+00 -0.00000000000E+00 -0.48724265476E+04  0.48724265476E+04  0.50400000000E-02 0. -1.
    8880022    1    1    2    0    0  0.13561529357E+04 -0.67486357489E+02 -0.12710876634E+04  0.18662156077E+04  0.15294330000E+03 0.  0.
    8880022    1    1    2    0    0 -0.13561529357E+04  0.67486357489E+02 -0.31624897991E+04  0.34450600250E+04  0.15294330000E+03 0.  0.
<mgrwt>
<rscale>  0 0.13664175E+04</rscale>
<asrwt>0</asrwt>
<pdfrwt beam="1">  1        1 0.74960404E+00 0.13664175E+04</pdfrwt>
<pdfrwt beam="2">  1       -1 0.67515247E-01 0.13664175E+04</pdfrwt>
<totfact> 0.28078931E-02</totfact>
</mgrwt>
</event>
<event>
 4    1  0.2731969E-009  0.1636329E+03  0.7818608E-02  0.1184655E+00
          1   -1    0    0  501    0  0.00000000000E+00  0.00000000000E+00  0.10661127240E+04  0.10661127240E+04  0.50400000000E-02 0. -1.
         -1   -1    0    0    0  501 -0.00000000000E+00 -0.00000000000E+00 -0.86984401144E+02  0.86984401290E+02  0.50400000000E-02 0.  1.
    8880022    1    1    2    0    0  0.31023993829E+02  0.49209474278E+02  0.97580585811E+03  0.98943053637E+03  0.15294330000E+03 0. -1.
    8880022    1    1    2    0    0 -0.31023993829E+02 -0.49209474278E+02  0.33224647581E+01  0.16366658895E+03  0.15294330000E+03 0.  0.
<mgrwt>
<rscale>  0 0.16363286E+03</rscale>
<asrwt>0</asrwt>
<pdfrwt beam="1">  1        1 0.16401734E+00 0.16363286E+03</pdfrwt>
<pdfrwt beam="2">  1       -1 0.13382216E-01 0.16363286E+03</pdfrwt>
<totfact> 0.55894839E+02</totfact>
</mgrwt>
</event>
<event>
 4    1  0.2731969E-009  0.1175192E+04  0.7818608E-02  0.9134852E-01
          1   -1    0    0  501    0  0.00000000000E+00  0.00000000000E+00  0.13635866874E+04  0.13635866874E+04  0.50400000000E-02 0. -1.
         -1   -1    0    0    0  501 -0.00000000000E+00 -0.00000000000E+00 -0.20689050954E+04  0.20689050954E+04  0.50400000000E-02 0.  1.
    8880022    1    1    2    0    0  0.46754121502E+03 -0.10672819194E+04 -0.15788478354E+04  0.19682067025E+04  0.15294330000E+03 0.  0.
    8880022    1    1    2    0    0 -0.46754121502E+03  0.10672819194E+04  0.87352942740E+03  0.14642850804E+04  0.15294330000E+03 0.  0.
<mgrwt>
<rscale>  0 0.11751924E+04</rscale>
<asrwt>0</asrwt>
<pdfrwt beam="1">  1        1 0.20978257E+00 0.11751924E+04</pdfrwt>
<pdfrwt beam="2">  1       -1 0.31829309E+00 0.11751924E+04</pdfrwt>
<totfact> 0.20245990E-01</totfact>
</mgrwt>
</event>
<event>
 4    1  0.2731969E-009  0.1419930E+04  0.7818608E-02  0.8939518E-01
          1   -1    0    0  501    0  0.00000000000E+00  0.00000000000E+00  0.24488320950E+04  0.24488320950E+04  0.50400000000E-02 0. -1.
         -1   -1    0    0    0  501 -0.00000000000E+00 -0.00000000000E+00 -0.11504875902E+04  0.11504875902E+04  0.50400000000E-02 0.  1.
    8880022    1    1    2    0    0 -0.13770059619E+04  0.31090633385E+03  0.16088538636E+04  0.21458356356E+04  0.15294330000E+03 0.  0.
    8880022    1    1    2    0    0  0.13770059619E+04 -0.31090633385E+03 -0.31050935880E+03  0.14534840496E+04  0.15294330000E+03 0.  0.
<mgrwt>
<rscale>  0 0.14199295E+04</rscale>
<asrwt>0</asrwt>
<pdfrwt beam="1">  1        1 0.37674340E+00 0.14199295E+04</pdfrwt>
<pdfrwt beam="2">  1       -1 0.17699809E+00 0.14199295E+04</pdfrwt>
<totfact> 0.30755523E-01</totfact>
</mgrwt>
</event>
<event>
 4    1  0.2731969E-009  0.1974592E+03  0.7818608E-02  0.1151901E+00
         -1   -1    0    0    0  501 -0.00000000000E+00  0.00000000000E+00  0.20506197730E+03  0.20506197736E+03  0.50400000000E-02 0.  1.
          1   -1    0    0  501    0  0.00000000000E+00 -0.00000000000E+00 -0.12141822884E+04  0.12141822884E+04  0.50400000000E-02 0. -1.
    8880022    1    1    2    0    0 -0.10645973275E+03 -0.65305407979E+02  0.14713504734E+03  0.24624956077E+03  0.15294330000E+03 0.  0.
    8880022    1    1    2    0    0  0.10645973275E+03  0.65305407979E+02 -0.11562553585E+04  0.11729947050E+04  0.15294330000E+03 0.  0.
<mgrwt>
<rscale>  0 0.19745917E+03</rscale>
<asrwt>0</asrwt>
<pdfrwt beam="1">  1        1 0.18679727E+00 0.19745917E+03</pdfrwt>
<pdfrwt beam="2">  1       -1 0.31547997E-01 0.19745917E+03</pdfrwt>
<totfact> 0.10826350E+02</totfact>
</mgrwt>
</event>
<event>
 4    1  0.2731969E-009  0.1663097E+04  0.7818608E-02  0.8782696E-01
         -1   -1    0    0    0  501 -0.00000000000E+00  0.00000000000E+00  0.27829481716E+04  0.27829481716E+04  0.50400000000E-02 0.  1.
          1   -1    0    0  501    0  0.00000000000E+00 -0.00000000000E+00 -0.14077364458E+04  0.14077364458E+04  0.50400000000E-02 0. -1.
    8880022    1    1    2    0    0 -0.14053876924E+04  0.87600464793E+03  0.18237255886E+04  0.24681704529E+04  0.15294330000E+03 0.  0.
    8880022    1    1    2    0    0  0.14053876924E+04 -0.87600464793E+03 -0.44851386280E+03  0.17225141646E+04  0.15294330000E+03 0.  0.
<mgrwt>
<rscale>  0 0.16630966E+04</rscale>
<asrwt>0</asrwt>
<pdfrwt beam="1">  1        1 0.21657484E+00 0.16630966E+04</pdfrwt>
<pdfrwt beam="2">  1       -1 0.42814587E+00 0.16630966E+04</pdfrwt>
<totfact> 0.32244765E-02</totfact>
</mgrwt>
</event>
<event>
 4    1  0.2731969E-009  0.9638290E+03  0.7818608E-02  0.9349131E-01
          1   -1    0    0  501    0  0.00000000000E+00  0.00000000000E+00  0.21163534680E+04  0.21163534680E+04  0.50400000000E-02 0. -1.
         -1   -1    0    0    0  501 -0.00000000000E+00 -0.00000000000E+00 -0.10553891283E+04  0.10553891284E+04  0.50400000000E-02 0.  1.
    8880022    1    1    2    0    0 -0.66643590664E+03 -0.67929218058E+03  0.17424968997E+04  0.19912965080E+04  0.15294330000E+03 0.  0.
    8880022    1    1    2    0    0  0.66643590664E+03  0.67929218058E+03 -0.68153256000E+03  0.11804460884E+04  0.15294330000E+03 0.  0.
<mgrwt>
<rscale>  0 0.96382900E+03</rscale>
<asrwt>0</asrwt>
<pdfrwt beam="1">  1        1 0.32559283E+00 0.96382900E+03</pdfrwt>
<pdfrwt beam="2">  1       -1 0.16236756E+00 0.96382900E+03</pdfrwt>
<totfact> 0.70991337E-01</totfact>
</mgrwt>
</event>
<event>
 4    1  0.2731969E-009  0.1819782E+04  0.7818608E-02  0.8695850E-01
         -1   -1    0    0    0  501 -0.00000000000E+00  0.00000000000E+00  0.18421905676E+04  0.18421905676E+04  0.50400000000E-02 0.  1.
          1   -1    0    0  501    0  0.00000000000E+00 -0.00000000000E+00 -0.20553292489E+04  0.20553292489E+04  0.50400000000E-02 0. -1.
    8880022    1    1    2    0    0 -0.78694359303E+03 -0.16336874252E+04 -0.79658785327E+03  0.19864940681E+04  0.15294330000E+03 0.  0.
    8880022    1    1    2    0    0  0.78694359303E+03  0.16336874252E+04  0.58344917200E+03  0.19110257484E+04  0.15294330000E+03 0.  0.
<mgrwt>
<rscale>  0 0.18197820E+04</rscale>
<asrwt>0</asrwt>
<pdfrwt beam="1">  1        1 0.31620450E+00 0.18197820E+04</pdfrwt>
<pdfrwt beam="2">  1       -1 0.28341393E+00 0.18197820E+04</pdfrwt>
<totfact> 0.10505921E-01</totfact>
</mgrwt>
</event>
<event>
 4    1  0.2731969E-009  0.4318682E+03  0.7818608E-02  0.1033271E+00
          1   -1    0    0  501    0  0.00000000000E+00  0.00000000000E+00  0.25934506834E+04  0.25934506834E+04  0.50400000000E-02 0. -1.
         -1   -1    0    0    0  501 -0.00000000000E+00 -0.00000000000E+00 -0.14627848444E+03  0.14627848453E+03  0.50400000000E-02 0.  1.
    8880022    1    1    2    0    0  0.40384029428E+03 -0.56137919083E+01  0.22002943631E+04  0.22422768418E+04  0.15294330000E+03 0.  0.
    8880022    1    1    2    0    0 -0.40384029428E+03  0.56137919083E+01  0.24687783590E+03  0.49745232618E+03  0.15294330000E+03 0.  0.
<mgrwt>
<rscale>  0 0.43186821E+03</rscale>
<asrwt>0</asrwt>
<pdfrwt beam="1">  1        1 0.39899240E+00 0.43186821E+03</pdfrwt>
<pdfrwt beam="2">  1       -1 0.22504383E-01 0.43186821E+03</pdfrwt>
<totfact> 0.21803151E+01</totfact>
</mgrwt>
</event>
<event>
 4    1  0.2731969E-009  0.3407381E+03  0.7818608E-02  0.1066482E+00
         -1   -1    0    0    0  501 -0.00000000000E+00  0.00000000000E+00  0.31755517258E+03  0.31755517262E+03  0.50400000000E-02 0.  1.
          1   -1    0    0  501    0  0.00000000000E+00 -0.00000000000E+00 -0.87938356126E+03  0.87938356128E+03  0.50400000000E-02 0. -1.
    8880022    1    1    2    0    0 -0.30441365693E+03  0.65689285292E+01  0.17652895064E+03  0.38375115475E+03  0.15294330000E+03 0.  0.
    8880022    1    1    2    0    0  0.30441365693E+03 -0.65689285292E+01 -0.73835733931E+03  0.81318757915E+03  0.15294330000E+03 0.  0.
<mgrwt>
<rscale>  0 0.34073814E+03</rscale>
<asrwt>0</asrwt>
<pdfrwt beam="1">  1        1 0.13528978E+00 0.34073814E+03</pdfrwt>
<pdfrwt beam="2">  1       -1 0.48854642E-01 0.34073814E+03</pdfrwt>
<totfact> 0.85050030E+01</totfact>
</mgrwt>
</event>
<event>
 4    1  0.2731969E-009  0.1586723E+04  0.7818608E-02  0.8828746E-01
          1   -1    0    0  501    0  0.00000000000E+00  0.00000000000E+00  0.28795751869E+04  0.28795751869E+04  0.50400000000E-02 0. -1.
         -1   -1    0    0    0  501 -0.00000000000E+00 -0.00000000000E+00 -0.11556801528E+04  0.11556801528E+04  0.50400000000E-02 0.  1.
    8880022    1    1    2    0    0 -0.11473322393E+04  0.10853230599E+04  0.18574639451E+04  0.24429206643E+04  0.15294330000E+03 0.  0.
    8880022    1    1    2    0    0  0.11473322393E+04 -0.10853230599E+04 -0.13356891106E+03  0.15923346754E+04  0.15294330000E+03 0.  0.
<mgrwt>
<rscale>  0 0.15867227E+04</rscale>
<asrwt>0</asrwt>
<pdfrwt beam="1">  1        1 0.44301157E+00 0.15867227E+04</pdfrwt>
<pdfrwt beam="2">  1       -1 0.17779695E+00 0.15867227E+04</pdfrwt>
<totfact> 0.14806408E-01</totfact>
</mgrwt>
</event>
<event>
 4    1  0.2731969E-009  0.3843762E+03  0.7818608E-02  0.1049328E+00
         -1   -1    0    0    0  501 -0.00000000000E+00  0.00000000000E+00  0.36990585500E+03  0.36990585504E+03  0.50400000000E-02 0.  1.
          1   -1    0    0  501    0  0.00000000000E+00 -0.00000000000E+00 -0.74611087777E+03  0.74611087779E+03  0.50400000000E-02 0. -1.
    8880022    1    1    2    0    0 -0.21470918747E+03  0.27973809349E+03 -0.56848000835E+03  0.68623218304E+03  0.15294330000E+03 0.  0.
    8880022    1    1    2    0    0  0.21470918747E+03 -0.27973809349E+03  0.19227498558E+03  0.42978454978E+03  0.15294330000E+03 0.  0.
<mgrwt>
<rscale>  0 0.38437623E+03</rscale>
<asrwt>0</asrwt>
<pdfrwt beam="1">  1        1 0.11478629E+00 0.38437623E+03</pdfrwt>
<pdfrwt beam="2">  1       -1 0.56908593E-01 0.38437623E+03</pdfrwt>
<totfact> 0.81935821E+01</totfact>
</mgrwt>
</event>
<event>
 4    1  0.2731969E-009  0.3957151E+03  0.7818608E-02  0.1045274E+00
          1   -1    0    0  501    0  0.00000000000E+00  0.00000000000E+00  0.11117198364E+04  0.11117198364E+04  0.50400000000E-02 0. -1.
         -1   -1    0    0    0  501 -0.00000000000E+00 -0.00000000000E+00 -0.10056575439E+04  0.10056575439E+04  0.50400000000E-02 0.  1.
    8880022    1    1    2    0    0  0.25191719296E+03  0.26407671825E+03  0.10347833595E+04  0.11078659843E+04  0.15294330000E+03 0. -1.
    8880022    1    1    2    0    0 -0.25191719296E+03 -0.26407671825E+03 -0.92872106697E+03  0.10095113959E+04  0.15294330000E+03 0.  0.
<mgrwt>
<rscale>  0 0.39571510E+03</rscale>
<asrwt>0</asrwt>
<pdfrwt beam="1">  1        1 0.17103382E+00 0.39571510E+03</pdfrwt>
<pdfrwt beam="2">  1       -1 0.15471654E+00 0.39571510E+03</pdfrwt>
<totfact> 0.44818737E+00</totfact>
</mgrwt>
</event>
<event>
 4    1  0.2731969E-009  0.1131268E+04  0.7818608E-02  0.9175241E-01
          1   -1    0    0  501    0  0.00000000000E+00  0.00000000000E+00  0.11748405218E+04  0.11748405218E+04  0.50400000000E-02 0. -1.
         -1   -1    0    0    0  501 -0.00000000000E+00 -0.00000000000E+00 -0.14109342164E+04  0.14109342164E+04  0.50400000000E-02 0.  1.
    8880022    1    1    2    0    0 -0.10873238268E+04 -0.27221835097E+03 -0.73532441820E+03  0.13492477860E+04  0.15294330000E+03 0.  0.
    8880022    1    1    2    0    0  0.10873238268E+04  0.27221835097E+03  0.49923072358E+03  0.12365269522E+04  0.15294330000E+03 0.  0.
<mgrwt>
<rscale>  0 0.11312681E+04</rscale>
<asrwt>0</asrwt>
<pdfrwt beam="1">  1        1 0.18074469E+00 0.11312681E+04</pdfrwt>
<pdfrwt beam="2">  1       -1 0.21706680E+00 0.11312681E+04</pdfrwt>
<totfact> 0.12694241E+00</totfact>
</mgrwt>
</event>
<event>
 4    1  0.2731969E-009  0.9006095E+03  0.7818608E-02  0.9424820E-01
         -1   -1    0    0    0  501 -0.00000000000E+00  0.00000000000E+00  0.19406339425E+04  0.19406339425E+04  0.50400000000E-02 0.  1.
          1   -1    0    0  501    0  0.00000000000E+00 -0.00000000000E+00 -0.11007952438E+04  0.11007952438E+04  0.50400000000E-02 0. -1.
    8880022    1    1    2    0    0 -0.23176338665E+03  0.85673301918E+03  0.16176358711E+04  0.18514435443E+04  0.15294330000E+03 0.  1.
    8880022    1    1    2    0    0  0.23176338665E+03 -0.85673301918E+03 -0.77779717236E+03  0.11899856419E+04  0.15294330000E+03 0.  0.
<mgrwt>
<rscale>  0 0.90060945E+03</rscale>
<asrwt>0</asrwt>
<pdfrwt beam="1">  1        1 0.16935312E+00 0.90060945E+03</pdfrwt>
<pdfrwt beam="2">  1       -1 0.29855907E+00 0.90060945E+03</pdfrwt>
<totfact> 0.44084125E-01</totfact>
</mgrwt>
</event>
<event>
 4    1  0.2731969E-009  0.3755042E+03  0.7818608E-02  0.1052608E+00
         -1   -1    0    0    0  501 -0.00000000000E+00  0.00000000000E+00  0.76528699114E+02  0.76528699280E+02  0.50400000000E-02 0.  1.
          1   -1    0    0  501    0  0.00000000000E+00 -0.00000000000E+00 -0.30737599786E+04  0.30737599786E+04  0.50400000000E-02 0. -1.
    8880022    1    1    2    0    0  0.31696583387E+03  0.13093674683E+03 -0.24955392563E+04  0.25236322244E+04  0.15294330000E+03 0.  0.
    8880022    1    1    2    0    0 -0.31696583387E+03 -0.13093674683E+03 -0.50169202325E+03  0.62665645350E+03  0.15294330000E+03 0.  0.
<mgrwt>
<rscale>  0 0.37550423E+03</rscale>
<asrwt>0</asrwt>
<pdfrwt beam="1">  1        1 0.47288606E+00 0.37550423E+03</pdfrwt>
<pdfrwt beam="2">  1       -1 0.11773648E-01 0.37550423E+03</pdfrwt>
<totfact> 0.29338000E+01</totfact>
</mgrwt>
</event>
<event>
 4    1  0.2731969E-009  0.7670037E+03  0.7818608E-02  0.9609045E-01
         -1   -1    0    0    0  501 -0.00000000000E+00  0.00000000000E+00  0.10435017675E+04  0.10435017675E+04  0.50400000000E-02 0.  1.
          1   -1    0    0  501    0  0.00000000000E+00 -0.00000000000E+00 -0.62154732579E+03  0.62154732581E+03  0.50400000000E-02 0. -1.
    8880022    1    1    2    0    0 -0.73909636918E+03  0.13652699448E+03  0.46480529591E+03  0.89684930689E+03  0.15294330000E+03 0.  0.
    8880022    1    1    2    0    0  0.73909636918E+03 -0.13652699448E+03 -0.42850854206E+02  0.76819978643E+03  0.15294330000E+03 0.  0.
<mgrwt>
<rscale>  0 0.76700373E+03</rscale>
<asrwt>0</asrwt>
<pdfrwt beam="1">  1        1 0.95622666E-01 0.76700373E+03</pdfrwt>
<pdfrwt beam="2">  1       -1 0.16053873E+00 0.76700373E+03</pdfrwt>
<totfact> 0.96878223E+00</totfact>
</mgrwt>
</event>
<event>
 4    1  0.2731969E-009  0.7360129E+03  0.7818608E-02  0.9657553E-01
         -1   -1    0    0    0  501 -0.00000000000E+00  0.00000000000E+00  0.85290357773E+03  0.85290357774E+03  0.50400000000E-02 0.  1.
          1   -1    0    0  501    0  0.00000000000E+00 -0.00000000000E+00 -0.18864972091E+04  0.18864972091E+04  0.50400000000E-02 0. -1.
    8880022    1    1    2    0    0  0.26227317112E+03 -0.67047454907E+03 -0.16323435735E+04  0.17906033989E+04  0.15294330000E+03 0.  0.
    8880022    1    1    2    0    0 -0.26227317112E+03  0.67047454907E+03  0.59874994209E+03  0.94879738797E+03  0.15294330000E+03 0.  0.
<mgrwt>
<rscale>  0 0.73601290E+03</rscale>
<asrwt>0</asrwt>
<pdfrwt beam="1">  1        1 0.29023034E+00 0.73601290E+03</pdfrwt>
<pdfrwt beam="2">  1       -1 0.13121593E+00 0.73601290E+03</pdfrwt>
<totfact> 0.18612384E+00</totfact>
</mgrwt>
</event>
<event>
 4    1  0.2731969E-009  0.2173826E+03  0.7818608E-02  0.1135850E+00
         -1   -1    0    0    0  501 -0.00000000000E+00  0.00000000000E+00  0.49942830297E+03  0.49942830299E+03  0.50400000000E-02 0.  1.
          1   -1    0    0  501    0  0.00000000000E+00 -0.00000000000E+00 -0.78082360410E+03  0.78082360412E+03  0.50400000000E-02 0. -1.
    8880022    1    1    2    0    0  0.54416126629E+02  0.14457664660E+03  0.45939171410E+03  0.50822821801E+03  0.15294330000E+03 0.  0.
    8880022    1    1    2    0    0 -0.54416126629E+02 -0.14457664660E+03 -0.74078701523E+03  0.77202368910E+03  0.15294330000E+03 0.  0.
<mgrwt>
<rscale>  0 0.21738255E+03</rscale>
<asrwt>0</asrwt>
<pdfrwt beam="1">  1        1 0.12012671E+00 0.21738255E+03</pdfrwt>
<pdfrwt beam="2">  1       -1 0.76835124E-01 0.21738255E+03</pdfrwt>
<totfact> 0.43836021E+01</totfact>
</mgrwt>
</event>
<event>
 4    1  0.2731969E-009  0.7656560E+03  0.7818608E-02  0.9611104E-01
          1   -1    0    0  501    0  0.00000000000E+00  0.00000000000E+00  0.18346544828E+04  0.18346544828E+04  0.50400000000E-02 0. -1.
         -1   -1    0    0    0  501 -0.00000000000E+00 -0.00000000000E+00 -0.38065118903E+03  0.38065118906E+03  0.50400000000E-02 0.  1.
    8880022    1    1    2    0    0  0.64541471201E+03 -0.38246225885E+03  0.11708473530E+04  0.13989684439E+04  0.15294330000E+03 0.  0.
    8880022    1    1    2    0    0 -0.64541471201E+03  0.38246225885E+03  0.28315594069E+03  0.81633722792E+03  0.15294330000E+03 0.  0.
<mgrwt>
<rscale>  0 0.76565605E+03</rscale>
<asrwt>0</asrwt>
<pdfrwt beam="1">  1        1 0.28225454E+00 0.76565605E+03</pdfrwt>
<pdfrwt beam="2">  1       -1 0.58561720E-01 0.76565605E+03</pdfrwt>
<totfact> 0.11857701E+01</totfact>
</mgrwt>
</event>
<event>
 4    1  0.2731969E-009  0.2133004E+04  0.7818608E-02  0.8546842E-01
         -1   -1    0    0    0  501 -0.00000000000E+00  0.00000000000E+00  0.25995688634E+04  0.25995688634E+04  0.50400000000E-02 0.  1.
          1   -1    0    0  501    0  0.00000000000E+00 -0.00000000000E+00 -0.32612372112E+04  0.32612372112E+04  0.50400000000E-02 0. -1.
    8880022    1    1    2    0    0 -0.13508810797E+04  0.16436046858E+04  0.16638628131E+04  0.27052074169E+04  0.15294330000E+03 0.  0.
    8880022    1    1    2    0    0  0.13508810797E+04 -0.16436046858E+04 -0.23255311610E+04  0.31555986577E+04  0.15294330000E+03 0.  0.
<mgrwt>
<rscale>  0 0.21330044E+04</rscale>
<asrwt>0</asrwt>
<pdfrwt beam="1">  1        1 0.50172880E+00 0.21330044E+04</pdfrwt>
<pdfrwt beam="2">  1       -1 0.39993367E+00 0.21330044E+04</pdfrwt>
<totfact> 0.23699322E-03</totfact>
</mgrwt>
</event>
<event>
 4    1  0.2731969E-009  0.1153766E+04  0.7818608E-02  0.9154316E-01
          1   -1    0    0  501    0  0.00000000000E+00  0.00000000000E+00  0.99805186433E+03  0.99805186434E+03  0.50400000000E-02 0. -1.
         -1   -1    0    0    0  501 -0.00000000000E+00 -0.00000000000E+00 -0.18540483290E+04  0.18540483290E+04  0.50400000000E-02 0.  1.
    8880022    1    1    2    0    0  0.62311660977E+03  0.95891136800E+03 -0.11834206919E+04  0.16527738830E+04  0.15294330000E+03 0.  0.
    8880022    1    1    2    0    0 -0.62311660977E+03 -0.95891136800E+03  0.32742422731E+03  0.11993263104E+04  0.15294330000E+03 0.  0.
<mgrwt>
<rscale>  0 0.11537664E+04</rscale>
<asrwt>0</asrwt>
<pdfrwt beam="1">  1        1 0.15354644E+00 0.11537664E+04</pdfrwt>
<pdfrwt beam="2">  1       -1 0.28523820E+00 0.11537664E+04</pdfrwt>
<totfact> 0.61892040E-01</totfact>
</mgrwt>
</event>
<event>
 4    1  0.2731969E-009  0.1439557E+04  0.7818608E-02  0.8925673E-01
          1   -1    0    0  501    0  0.00000000000E+00  0.00000000000E+00  0.29649572050E+04  0.29649572050E+04  0.50400000000E-02 0. -1.
         -1   -1    0    0    0  501 -0.00000000000E+00 -0.00000000000E+00 -0.10732727669E+04  0.10732727669E+04  0.50400000000E-02 0.  1.
    8880022    1    1    2    0    0 -0.13346533389E+04  0.51733296426E+03 -0.24659474204E+03  0.14605250942E+04  0.15294330000E+03 0.  0.
    8880022    1    1    2    0    0  0.13346533389E+04 -0.51733296426E+03  0.21382791801E+04  0.25777048776E+04  0.15294330000E+03 0.  0.
<mgrwt>
<rscale>  0 0.14395571E+04</rscale>
<asrwt>0</asrwt>
<pdfrwt beam="1">  1        1 0.45614725E+00 0.14395571E+04</pdfrwt>
<pdfrwt beam="2">  1       -1 0.16511889E+00 0.14395571E+04</pdfrwt>
<totfact> 0.16237588E-01</totfact>
</mgrwt>
</event>
<event>
 4    1  0.2731969E-009  0.9074430E+03  0.7818608E-02  0.9416325E-01
          1   -1    0    0  501    0  0.00000000000E+00  0.00000000000E+00  0.15099825552E+04  0.15099825552E+04  0.50400000000E-02 0. -1.
         -1   -1    0    0    0  501 -0.00000000000E+00 -0.00000000000E+00 -0.62948851938E+03  0.62948851940E+03  0.50400000000E-02 0.  1.
    8880022    1    1    2    0    0 -0.14684526844E+03  0.88232512607E+03  0.83136482509E+03  0.12306991047E+04  0.15294330000E+03 0.  0.
    8880022    1    1    2    0    0  0.14684526844E+03 -0.88232512607E+03  0.49129210771E+02  0.90877196992E+03  0.15294330000E+03 0.  0.
<mgrwt>
<rscale>  0 0.90744301E+03</rscale>
<asrwt>0</asrwt>
<pdfrwt beam="1">  1        1 0.23230501E+00 0.90744301E+03</pdfrwt>
<pdfrwt beam="2">  1       -1 0.96844389E-01 0.90744301E+03</pdfrwt>
<totfact> 0.67150830E+00</totfact>
</mgrwt>
</event>
<event>
 4    1  0.2731969E-009  0.1174826E+04  0.7818608E-02  0.9135181E-01
          1   -1    0    0  501    0  0.00000000000E+00  0.00000000000E+00  0.13486227567E+04  0.13486227567E+04  0.50400000000E-02 0. -1.
         -1   -1    0    0    0  501 -0.00000000000E+00 -0.00000000000E+00 -0.16466824749E+04  0.16466824749E+04  0.50400000000E-02 0.  1.
    8880022    1    1    2    0    0 -0.97520420773E+03  0.63702475135E+03 -0.10704115934E+04  0.15893383570E+04  0.15294330000E+03 0.  0.
    8880022    1    1    2    0    0  0.97520420773E+03 -0.63702475135E+03  0.77235187518E+03  0.14059668747E+04  0.15294330000E+03 0.  0.
<mgrwt>
<rscale>  0 0.11748257E+04</rscale>
<asrwt>0</asrwt>
<pdfrwt beam="1">  1        1 0.20748042E+00 0.11748257E+04</pdfrwt>
<pdfrwt beam="2">  1       -1 0.25333577E+00 0.11748257E+04</pdfrwt>
<totfact> 0.54524774E-01</totfact>
</mgrwt>
</event>
<event>
 4    1  0.2731969E-009  0.1360993E+04  0.7818608E-02  0.8982548E-01
         -1   -1    0    0    0  501 -0.00000000000E+00  0.00000000000E+00  0.16854438729E+04  0.16854438729E+04  0.50400000000E-02 0.  1.
          1   -1    0    0  501    0  0.00000000000E+00 -0.00000000000E+00 -0.27327360685E+04  0.27327360685E+04  0.50400000000E-02 0. -1.
    8880022    1    1    2    0    0 -0.37235200020E+03  0.13001017509E+04  0.11844234678E+04  0.18042065233E+04  0.15294330000E+03 0.  0.
    8880022    1    1    2    0    0  0.37235200020E+03 -0.13001017509E+04 -0.22317156635E+04  0.26139734181E+04  0.15294330000E+03 0.  0.
<mgrwt>
<rscale>  0 0.13609931E+04</rscale>
<asrwt>0</asrwt>
<pdfrwt beam="1">  1        1 0.42042093E+00 0.13609931E+04</pdfrwt>
<pdfrwt beam="2">  1       -1 0.25929906E+00 0.13609931E+04</pdfrwt>
<totfact> 0.54368822E-02</totfact>
</mgrwt>
</event>
<event>
 4    1  0.2731969E-009  0.5119003E+03  0.7818608E-02  0.1010719E+00
         -1   -1    0    0    0  501 -0.00000000000E+00  0.00000000000E+00  0.24135614526E+03  0.24135614531E+03  0.50400000000E-02 0.  1.
          1   -1    0    0  501    0  0.00000000000E+00 -0.00000000000E+00 -0.15029932303E+04  0.15029932303E+04  0.50400000000E-02 0. -1.
    8880022    1    1    2    0    0  0.16154712887E+03  0.46103451008E+03 -0.17125853441E+03  0.53978832236E+03  0.15294330000E+03 0.  1.
    8880022    1    1    2    0    0 -0.16154712887E+03 -0.46103451008E+03 -0.10903785506E+04  0.12045610533E+04  0.15294330000E+03 0.  0.
<mgrwt>
<rscale>  0 0.51190033E+03</rscale>
<asrwt>0</asrwt>
<pdfrwt beam="1">  1        1 0.23122972E+00 0.51190033E+03</pdfrwt>
<pdfrwt beam="2">  1       -1 0.37131715E-01 0.51190033E+03</pdfrwt>
<totfact> 0.48220477E+01</totfact>
</mgrwt>
</event>
<event>
 4    1  0.2731969E-009  0.6552377E+03  0.7818608E-02  0.9797000E-01
         -1   -1    0    0    0  501 -0.00000000000E+00  0.00000000000E+00  0.83185959581E+03  0.83185959583E+03  0.50400000000E-02 0.  1.
          1   -1    0    0  501    0  0.00000000000E+00 -0.00000000000E+00 -0.16811874068E+04  0.16811874068E+04  0.50400000000E-02 0. -1.
    8880022    1    1    2    0    0 -0.16537285835E+03 -0.61530205428E+03  0.62135307014E+03  0.90300392638E+03  0.15294330000E+03 0.  1.
    8880022    1    1    2    0    0  0.16537285835E+03  0.61530205428E+03 -0.14706808812E+04  0.16100430763E+04  0.15294330000E+03 0.  0.
<mgrwt>
<rscale>  0 0.65523771E+03</rscale>
<asrwt>0</asrwt>
<pdfrwt beam="1">  1        1 0.25864422E+00 0.65523771E+03</pdfrwt>
<pdfrwt beam="2">  1       -1 0.12797840E+00 0.65523771E+03</pdfrwt>
<totfact> 0.27654384E+00</totfact>
</mgrwt>
</event>
<event>
 4    1  0.2731969E-009  0.3379048E+03  0.7818608E-02  0.1067692E+00
          1   -1    0    0  501    0  0.00000000000E+00  0.00000000000E+00  0.16334891650E+04  0.16334891650E+04  0.50400000000E-02 0. -1.
         -1   -1    0    0    0  501 -0.00000000000E+00 -0.00000000000E+00 -0.30516492279E+03  0.30516492283E+03  0.50400000000E-02 0.  1.
    8880022    1    1    2    0    0  0.29297768500E+03 -0.70371191231E+02 -0.18694122503E+03  0.38616926741E+03  0.15294330000E+03 0.  0.
    8880022    1    1    2    0    0 -0.29297768500E+03  0.70371191231E+02  0.15152654672E+04  0.15524848204E+04  0.15294330000E+03 0.  0.
<mgrwt>
<rscale>  0 0.33790484E+03</rscale>
<asrwt>0</asrwt>
<pdfrwt beam="1">  1        1 0.25130603E+00 0.33790484E+03</pdfrwt>
<pdfrwt beam="2">  1       -1 0.46948448E-01 0.33790484E+03</pdfrwt>
<totfact> 0.26790294E+01</totfact>
</mgrwt>
</event>
<event>
 4    1  0.2731969E-009  0.6708692E+03  0.7818608E-02  0.9768389E-01
          1   -1    0    0  501    0  0.00000000000E+00  0.00000000000E+00  0.13782587881E+04  0.13782587881E+04  0.50400000000E-02 0. -1.
         -1   -1    0    0    0  501 -0.00000000000E+00 -0.00000000000E+00 -0.95631239756E+03  0.95631239757E+03  0.50400000000E-02 0.  1.
    8880022    1    1    2    0    0  0.52143353882E+03 -0.39342204298E+03 -0.73628162693E+03  0.99608038154E+03  0.15294330000E+03 0.  0.
    8880022    1    1    2    0    0 -0.52143353882E+03  0.39342204298E+03  0.11582280175E+04  0.13384908042E+04  0.15294330000E+03 0.  0.
<mgrwt>
<rscale>  0 0.67086921E+03</rscale>
<asrwt>0</asrwt>
<pdfrwt beam="1">  1        1 0.21203981E+00 0.67086921E+03</pdfrwt>
<pdfrwt beam="2">  1       -1 0.14712498E+00 0.67086921E+03</pdfrwt>
<totfact> 0.30967997E+00</totfact>
</mgrwt>
</event>
<event>
 4    1  0.2731969E-009  0.1362723E+04  0.7818608E-02  0.8981252E-01
         -1   -1    0    0    0  501 -0.00000000000E+00  0.00000000000E+00  0.48768009269E+03  0.48768009271E+03  0.50400000000E-02 0.  1.
          1   -1    0    0  501    0  0.00000000000E+00 -0.00000000000E+00 -0.54449945786E+04  0.54449945786E+04  0.50400000000E-02 0. -1.
    8880022    1    1    2    0    0 -0.13178729714E+04 -0.31118163477E+03 -0.85211729709E+03  0.16072083623E+04  0.15294330000E+03 0.  0.
    8880022    1    1    2    0    0  0.13178729714E+04  0.31118163477E+03 -0.41051971889E+04  0.43254663091E+04  0.15294330000E+03 0.  0.
<mgrwt>
<rscale>  0 0.13627233E+04</rscale>
<asrwt>0</asrwt>
<pdfrwt beam="1">  1        1 0.83769143E+00 0.13627233E+04</pdfrwt>
<pdfrwt beam="2">  1       -1 0.75027710E-01 0.13627233E+04</pdfrwt>
<totfact> 0.35269056E-03</totfact>
</mgrwt>
</event>
<event>
 4    1  0.2731969E-009  0.9029758E+03  0.7818608E-02  0.9421869E-01
         -1   -1    0    0    0  501 -0.00000000000E+00  0.00000000000E+00  0.59252201546E+03  0.59252201548E+03  0.50400000000E-02 0.  1.
          1   -1    0    0  501    0  0.00000000000E+00 -0.00000000000E+00 -0.28217591460E+04  0.28217591460E+04  0.50400000000E-02 0. -1.
    8880022    1    1    2    0    0  0.87545178624E+03 -0.15986789918E+03 -0.23365402273E+04  0.25049521876E+04  0.15294330000E+03 0.  0.
    8880022    1    1    2    0    0 -0.87545178624E+03  0.15986789918E+03  0.10730309676E+03  0.90932897392E+03  0.15294330000E+03 0.  0.
<mgrwt>
<rscale>  0 0.90297576E+03</rscale>
<asrwt>0</asrwt>
<pdfrwt beam="1">  1        1 0.43411678E+00 0.90297576E+03</pdfrwt>
<pdfrwt beam="2">  1       -1 0.91157235E-01 0.90297576E+03</pdfrwt>
<totfact> 0.98370677E-01</totfact>
</mgrwt>
</event>
<event>
 4    1  0.2731969E-009  0.1435211E+04  0.7818608E-02  0.8928718E-01
          1   -1    0    0  501    0  0.00000000000E+00  0.00000000000E+00  0.40348141356E+04  0.40348141356E+04  0.50400000000E-02 0. -1.
         -1   -1    0    0    0  501 -0.00000000000E+00 -0.00000000000E+00 -0.60071782880E+03  0.60071782882E+03  0.50400000000E-02 0.  1.
    8880022    1    1    2    0    0  0.13374374563E+04 -0.49769427521E+03  0.81890376866E+03  0.16524023652E+04  0.15294330000E+03 0.  0.
    8880022    1    1    2    0    0 -0.13374374563E+04  0.49769427521E+03  0.26151925381E+04  0.29831295992E+04  0.15294330000E+03 0.  0.
<mgrwt>
<rscale>  0 0.14352109E+04</rscale>
<asrwt>0</asrwt>
<pdfrwt beam="1">  1        1 0.62074064E+00 0.14352109E+04</pdfrwt>
<pdfrwt beam="2">  1       -1 0.92418128E-01 0.14352109E+04</pdfrwt>
<totfact> 0.99774627E-02</totfact>
</mgrwt>
</event>
<event>
 4    1  0.2731969E-009  0.2145677E+03  0.7818608E-02  0.1137999E+00
          1   -1    0    0  501    0  0.00000000000E+00  0.00000000000E+00  0.83000730706E+03  0.83000730707E+03  0.50400000000E-02 0. -1.
         -1   -1    0    0    0  501 -0.00000000000E+00 -0.00000000000E+00 -0.10402492739E+04  0.10402492739E+04  0.50400000000E-02 0.  1.
    8880022    1    1    2    0    0  0.88290375661E+02  0.12187058864E+03 -0.10149761375E+04  0.10374082338E+04  0.15294330000E+03 0.  1.
    8880022    1    1    2    0    0 -0.88290375661E+02 -0.12187058864E+03  0.80473417072E+03  0.83284834715E+03  0.15294330000E+03 0.  0.
<mgrwt>
<rscale>  0 0.21456767E+03</rscale>
<asrwt>0</asrwt>
<pdfrwt beam="1">  1        1 0.12769343E+00 0.21456767E+03</pdfrwt>
<pdfrwt beam="2">  1       -1 0.16003835E+00 0.21456767E+03</pdfrwt>
<totfact> 0.72432510E+00</totfact>
</mgrwt>
</event>
<event>
 4    1  0.2731969E-009  0.1970823E+03  0.7818608E-02  0.1152224E+00
          1   -1    0    0  501    0  0.00000000000E+00  0.00000000000E+00  0.93497074005E+03  0.93497074007E+03  0.50400000000E-02 0. -1.
         -1   -1    0    0    0  501 -0.00000000000E+00 -0.00000000000E+00 -0.18048155741E+03  0.18048155748E+03  0.50400000000E-02 0.  1.
    8880022    1    1    2    0    0  0.82587006519E+02 -0.92893317615E+02 -0.11210144537E+03  0.22673369659E+03  0.15294330000E+03 0.  0.
    8880022    1    1    2    0    0 -0.82587006519E+02  0.92893317615E+02  0.86659062801E+03  0.88871860095E+03  0.15294330000E+03 0.  0.
<mgrwt>
<rscale>  0 0.19708231E+03</rscale>
<asrwt>0</asrwt>
<pdfrwt beam="1">  1        1 0.14384165E+00 0.19708231E+03</pdfrwt>
<pdfrwt beam="2">  1       -1 0.27766394E-01 0.19708231E+03</pdfrwt>
<totfact> 0.21395287E+02</totfact>
</mgrwt>
</event>
<event>
 4    1  0.2731969E-009  0.9664811E+03  0.7818608E-02  0.9346091E-01
          1   -1    0    0  501    0  0.00000000000E+00  0.00000000000E+00  0.83894620907E+03  0.83894620908E+03  0.50400000000E-02 0. -1.
         -1   -1    0    0    0  501 -0.00000000000E+00 -0.00000000000E+00 -0.14999118000E+04  0.14999118001E+04  0.50400000000E-02 0.  1.
    8880022    1    1    2    0    0 -0.60343007386E+03 -0.73930119306E+03  0.26315334808E+03  0.10016663345E+04  0.15294330000E+03 0.  0.
    8880022    1    1    2    0    0  0.60343007386E+03  0.73930119306E+03 -0.92411893906E+03  0.13371916746E+04  0.15294330000E+03 0.  0.
<mgrwt>
<rscale>  0 0.96648112E+03</rscale>
<asrwt>0</asrwt>
<pdfrwt beam="1">  1        1 0.12906865E+00 0.96648112E+03</pdfrwt>
<pdfrwt beam="2">  1       -1 0.23075566E+00 0.96648112E+03</pdfrwt>
<totfact> 0.19299737E+00</totfact>
</mgrwt>
</event>
<event>
 4    1  0.2731969E-009  0.8632208E+03  0.7818608E-02  0.9472762E-01
          1   -1    0    0  501    0  0.00000000000E+00  0.00000000000E+00  0.11723145213E+04  0.11723145213E+04  0.50400000000E-02 0. -1.
         -1   -1    0    0    0  501 -0.00000000000E+00 -0.00000000000E+00 -0.88951309807E+03  0.88951309809E+03  0.50400000000E-02 0.  1.
    8880022    1    1    2    0    0  0.21117315983E+03  0.82289999539E+03  0.69216909601E+03  0.11064575077E+04  0.15294330000E+03 0.  0.
    8880022    1    1    2    0    0 -0.21117315983E+03 -0.82289999539E+03 -0.40936767277E+03  0.95537011172E+03  0.15294330000E+03 0.  0.
<mgrwt>
<rscale>  0 0.86322081E+03</rscale>
<asrwt>0</asrwt>
<pdfrwt beam="1">  1        1 0.18035608E+00 0.86322081E+03</pdfrwt>
<pdfrwt beam="2">  1       -1 0.13684817E+00 0.86322081E+03</pdfrwt>
<totfact> 0.50834933E+00</totfact>
</mgrwt>
</event>
<event>
 4    1  0.2731969E-009  0.7456757E+03  0.7818608E-02  0.9642159E-01
          1   -1    0    0  501    0  0.00000000000E+00  0.00000000000E+00  0.23133820440E+04  0.23133820440E+04  0.50400000000E-02 0. -1.
         -1   -1    0    0    0  501 -0.00000000000E+00 -0.00000000000E+00 -0.55544251053E+03  0.55544251056E+03  0.50400000000E-02 0.  1.
    8880022    1    1    2    0    0  0.58576063622E+03  0.43534476493E+03 -0.20139456969E+03  0.77239369043E+03  0.15294330000E+03 0.  0.
    8880022    1    1    2    0    0 -0.58576063622E+03 -0.43534476493E+03  0.19593341032E+04  0.20964308641E+04  0.15294330000E+03 0.  0.
<mgrwt>
<rscale>  0 0.74567569E+03</rscale>
<asrwt>0</asrwt>
<pdfrwt beam="1">  1        1 0.35590493E+00 0.74567569E+03</pdfrwt>
<pdfrwt beam="2">  1       -1 0.85452694E-01 0.74567569E+03</pdfrwt>
<totfact> 0.26138103E+00</totfact>
</mgrwt>
</event>
<event>
 4    1  0.2731969E-009  0.6900727E+03  0.7818608E-02  0.9734361E-01
          1   -1    0    0  501    0  0.00000000000E+00  0.00000000000E+00  0.12294703410E+04  0.12294703410E+04  0.50400000000E-02 0. -1.
         -1   -1    0    0    0  501 -0.00000000000E+00 -0.00000000000E+00 -0.70569637798E+03  0.70569637800E+03  0.50400000000E-02 0.  1.
    8880022    1    1    2    0    0 -0.42493079669E+03 -0.52176856045E+03  0.91179045711E+03  0.11434868182E+04  0.15294330000E+03 0.  0.
    8880022    1    1    2    0    0  0.42493079669E+03  0.52176856045E+03 -0.38801649410E+03  0.79167990082E+03  0.15294330000E+03 0.  0.
<mgrwt>
<rscale>  0 0.69007265E+03</rscale>
<asrwt>0</asrwt>
<pdfrwt beam="1">  1        1 0.18914928E+00 0.69007265E+03</pdfrwt>
<pdfrwt beam="2">  1       -1 0.10856867E+00 0.69007265E+03</pdfrwt>
<totfact> 0.83700050E+00</totfact>
</mgrwt>
</event>
<event>
 4    1  0.2731969E-009  0.3893825E+03  0.7818608E-02  0.1047519E+00
          1   -1    0    0  501    0  0.00000000000E+00  0.00000000000E+00  0.70707978184E+03  0.70707978186E+03  0.50400000000E-02 0. -1.
         -1   -1    0    0    0  501 -0.00000000000E+00 -0.00000000000E+00 -0.45986082017E+03  0.45986082020E+03  0.50400000000E-02 0.  1.
    8880022    1    1    2    0    0  0.33148899415E+03  0.13543299499E+03  0.54986559279E+03  0.67377360628E+03  0.15294330000E+03 0.  0.
    8880022    1    1    2    0    0 -0.33148899415E+03 -0.13543299499E+03 -0.30264663111E+03  0.49316699577E+03  0.15294330000E+03 0.  0.
<mgrwt>
<rscale>  0 0.38938246E+03</rscale>
<asrwt>0</asrwt>
<pdfrwt beam="1">  1        1 0.10878150E+00 0.38938246E+03</pdfrwt>
<pdfrwt beam="2">  1       -1 0.70747819E-01 0.38938246E+03</pdfrwt>
<totfact> 0.57776486E+01</totfact>
</mgrwt>
</event>
<event>
 4    1  0.2731969E-009  0.8381722E+03  0.7818608E-02  0.9506351E-01
         -1   -1    0    0    0  501 -0.00000000000E+00  0.00000000000E+00  0.38150376225E+03  0.38150376229E+03  0.50400000000E-02 0.  1.
          1   -1    0    0  501    0  0.00000000000E+00 -0.00000000000E+00 -0.33803694680E+04  0.33803694680E+04  0.50400000000E-02 0. -1.
    8880022    1    1    2    0    0  0.70358348005E+02  0.82109112282E+03 -0.23033413095E+03  0.86924472618E+03  0.15294330000E+03 0.  0.
    8880022    1    1    2    0    0 -0.70358348005E+02 -0.82109112282E+03 -0.27685315748E+04  0.28926285041E+04  0.15294330000E+03 0. -1.
<mgrwt>
<rscale>  0 0.83817217E+03</rscale>
<asrwt>0</asrwt>
<pdfrwt beam="1">  1        1 0.52005682E+00 0.83817217E+03</pdfrwt>
<pdfrwt beam="2">  1       -1 0.58692889E-01 0.83817217E+03</pdfrwt>
<totfact> 0.97349762E-01</totfact>
</mgrwt>
</event>
<event>
 4    1  0.2731969E-009  0.1090493E+04  0.7818608E-02  0.9214507E-01
          1   -1    0    0  501    0  0.00000000000E+00  0.00000000000E+00  0.10454603144E+04  0.10454603144E+04  0.50400000000E-02 0. -1.
         -1   -1    0    0    0  501 -0.00000000000E+00 -0.00000000000E+00 -0.30104972937E+04  0.30104972937E+04  0.50400000000E-02 0.  1.
    8880022    1    1    2    0    0 -0.10041861646E+04 -0.39672963514E+03 -0.25821382822E+04  0.28029652188E+04  0.15294330000E+03 0.  0.
    8880022    1    1    2    0    0  0.10041861646E+04  0.39672963514E+03  0.61710130292E+03  0.12529923893E+04  0.15294330000E+03 0.  0.
<mgrwt>
<rscale>  0 0.10904934E+04</rscale>
<asrwt>0</asrwt>
<pdfrwt beam="1">  1        1 0.16084005E+00 0.10904934E+04</pdfrwt>
<pdfrwt beam="2">  1       -1 0.46315343E+00 0.10904934E+04</pdfrwt>
<totfact> 0.36978762E-02</totfact>
</mgrwt>
</event>
<event>
 4    1  0.2731969E-009  0.7283663E+03  0.7818608E-02  0.9669915E-01
          1   -1    0    0  501    0  0.00000000000E+00  0.00000000000E+00  0.15804038787E+04  0.15804038787E+04  0.50400000000E-02 0. -1.
         -1   -1    0    0    0  501 -0.00000000000E+00 -0.00000000000E+00 -0.67961795065E+03  0.67961795067E+03  0.50400000000E-02 0.  1.
    8880022    1    1    2    0    0 -0.23941689848E+03 -0.67067532007E+03 -0.35347970816E+03  0.80960817271E+03  0.15294330000E+03 0.  0.
    8880022    1    1    2    0    0  0.23941689848E+03  0.67067532007E+03  0.12542656362E+04  0.14504136567E+04  0.15294330000E+03 0.  0.
<mgrwt>
<rscale>  0 0.72836632E+03</rscale>
<asrwt>0</asrwt>
<pdfrwt beam="1">  1        1 0.24313906E+00 0.72836632E+03</pdfrwt>
<pdfrwt beam="2">  1       -1 0.10455661E+00 0.72836632E+03</pdfrwt>
<totfact> 0.51803813E+00</totfact>
</mgrwt>
</event>
<event>
 4    1  0.2731969E-009  0.1151567E+04  0.7818608E-02  0.9156339E-01
         -1   -1    0    0    0  501 -0.00000000000E+00  0.00000000000E+00  0.60463756179E+03  0.60463756181E+03  0.50400000000E-02 0.  1.
          1   -1    0    0  501    0  0.00000000000E+00 -0.00000000000E+00 -0.32550668967E+04  0.32550668967E+04  0.50400000000E-02 0. -1.
    8880022    1    1    2    0    0 -0.98181916192E+03 -0.58201869586E+03 -0.22298016047E+03  0.11729562797E+04  0.15294330000E+03 0.  0.
    8880022    1    1    2    0    0  0.98181916192E+03  0.58201869586E+03 -0.24274491744E+04  0.26867481788E+04  0.15294330000E+03 0.  0.
<mgrwt>
<rscale>  0 0.11515669E+04</rscale>
<asrwt>0</asrwt>
<pdfrwt beam="1">  1        1 0.50077951E+00 0.11515669E+04</pdfrwt>
<pdfrwt beam="2">  1       -1 0.93021165E-01 0.11515669E+04</pdfrwt>
<totfact> 0.43711010E-01</totfact>
</mgrwt>
</event>
<event>
 4    1  0.2731969E-009  0.1623586E+04  0.7818608E-02  0.8806188E-01
         -1   -1    0    0    0  501 -0.00000000000E+00  0.00000000000E+00  0.29711534055E+04  0.29711534055E+04  0.50400000000E-02 0.  1.
          1   -1    0    0  501    0  0.00000000000E+00 -0.00000000000E+00 -0.15141988686E+04  0.15141988686E+04  0.50400000000E-02 0. -1.
    8880022    1    1    2    0    0  0.15520740413E+04 -0.45133633808E+03  0.21716085454E+04  0.27114412491E+04  0.15294330000E+03 0.  0.
    8880022    1    1    2    0    0 -0.15520740413E+04  0.45133633808E+03 -0.71465400857E+03  0.17739110250E+04  0.15294330000E+03 0.  0.
<mgrwt>
<rscale>  0 0.16235855E+04</rscale>
<asrwt>0</asrwt>
<pdfrwt beam="1">  1        1 0.23295367E+00 0.16235855E+04</pdfrwt>
<pdfrwt beam="2">  1       -1 0.45710052E+00 0.16235855E+04</pdfrwt>
<totfact> 0.17179564E-02</totfact>
</mgrwt>
</event>
<event>
 4    1  0.2731969E-009  0.7412416E+03  0.7818608E-02  0.9649192E-01
          1   -1    0    0  501    0  0.00000000000E+00  0.00000000000E+00  0.19781285917E+04  0.19781285917E+04  0.50400000000E-02 0. -1.
         -1   -1    0    0    0  501 -0.00000000000E+00 -0.00000000000E+00 -0.16664807105E+04  0.16664807105E+04  0.50400000000E-02 0.  1.
    8880022    1    1    2    0    0 -0.53214703451E+03  0.49281537535E+03 -0.15076988661E+04  0.16800580301E+04  0.15294330000E+03 0.  0.
    8880022    1    1    2    0    0  0.53214703451E+03 -0.49281537535E+03  0.18193467474E+04  0.19645512721E+04  0.15294330000E+03 0.  0.
<mgrwt>
<rscale>  0 0.74124160E+03</rscale>
<asrwt>0</asrwt>
<pdfrwt beam="1">  1        1 0.30432748E+00 0.74124160E+03</pdfrwt>
<pdfrwt beam="2">  1       -1 0.25638165E+00 0.74124160E+03</pdfrwt>
<totfact> 0.21034834E-01</totfact>
</mgrwt>
</event>
<event>
 4    1  0.2731969E-009  0.1772093E+04  0.7818608E-02  0.8721283E-01
         -1   -1    0    0    0  501 -0.00000000000E+00  0.00000000000E+00  0.24669933203E+04  0.24669933203E+04  0.50400000000E-02 0.  1.
          1   -1    0    0  501    0  0.00000000000E+00 -0.00000000000E+00 -0.15120805883E+04  0.15120805883E+04  0.50400000000E-02 0. -1.
    8880022    1    1    2    0    0 -0.15337459460E+04 -0.87438205632E+03  0.12686802076E+04  0.21794177501E+04  0.15294330000E+03 0.  0.
    8880022    1    1    2    0    0  0.15337459460E+04  0.87438205632E+03 -0.31376747556E+03  0.17996561585E+04  0.15294330000E+03 0.  0.
<mgrwt>
<rscale>  0 0.17720926E+04</rscale>
<asrwt>0</asrwt>
<pdfrwt beam="1">  1        1 0.23262779E+00 0.17720926E+04</pdfrwt>
<pdfrwt beam="2">  1       -1 0.37953743E+00 0.17720926E+04</pdfrwt>
<totfact> 0.57947702E-02</totfact>
</mgrwt>
</event>
<event>
 4    1  0.2731969E-009  0.8883483E+03  0.7818608E-02  0.9440265E-01
         -1   -1    0    0    0  501 -0.00000000000E+00  0.00000000000E+00  0.52492096980E+03  0.52492096982E+03  0.50400000000E-02 0.  1.
          1   -1    0    0  501    0  0.00000000000E+00 -0.00000000000E+00 -0.20955856740E+04  0.20955856740E+04  0.50400000000E-02 0. -1.
    8880022    1    1    2    0    0 -0.86823375470E+03  0.10927587608E+03 -0.88811814379E+02  0.89277671413E+03  0.15294330000E+03 0.  0.
    8880022    1    1    2    0    0  0.86823375470E+03 -0.10927587608E+03 -0.14818528898E+04  0.17277299297E+04  0.15294330000E+03 0.  0.
<mgrwt>
<rscale>  0 0.88834831E+03</rscale>
<asrwt>0</asrwt>
<pdfrwt beam="1">  1        1 0.32239779E+00 0.88834831E+03</pdfrwt>
<pdfrwt beam="2">  1       -1 0.80757073E-01 0.88834831E+03</pdfrwt>
<totfact> 0.40360198E+00</totfact>
</mgrwt>
</event>
<event>
 4    1  0.2731969E-009  0.1043785E+04  0.7818608E-02  0.9261784E-01
          1   -1    0    0  501    0  0.00000000000E+00  0.00000000000E+00  0.43544865955E+04  0.43544865955E+04  0.50400000000E-02 0. -1.
         -1   -1    0    0    0  501 -0.00000000000E+00 -0.00000000000E+00 -0.36641879663E+03  0.36641879666E+03  0.50400000000E-02 0.  1.
    8880022    1    1    2    0    0 -0.73340011832E+03  0.72678733323E+03  0.33234070542E+04  0.34834640320E+04  0.15294330000E+03 0.  0.
    8880022    1    1    2    0    0  0.73340011832E+03 -0.72678733323E+03  0.66466074464E+03  0.12374413601E+04  0.15294330000E+03 0.  0.
<mgrwt>
<rscale>  0 0.10437850E+04</rscale>
<asrwt>0</asrwt>
<pdfrwt beam="1">  1        1 0.66992100E+00 0.10437850E+04</pdfrwt>
<pdfrwt beam="2">  1       -1 0.56372124E-01 0.10437850E+04</pdfrwt>
<totfact> 0.15180145E-01</totfact>
</mgrwt>
</event>
<event>
 4    1  0.2731969E-009  0.7281843E+03  0.7818608E-02  0.9670211E-01
          1   -1    0    0  501    0  0.00000000000E+00  0.00000000000E+00  0.13496085107E+04  0.13496085107E+04  0.50400000000E-02 0. -1.
         -1   -1    0    0    0  501 -0.00000000000E+00 -0.00000000000E+00 -0.84288388578E+03  0.84288388580E+03  0.50400000000E-02 0.  1.
    8880022    1    1    2    0    0  0.16758798765E+03 -0.69193567440E+03  0.10543500346E+04  0.12813689397E+04  0.15294330000E+03 0.  0.
    8880022    1    1    2    0    0 -0.16758798765E+03  0.69193567440E+03 -0.54762540972E+03  0.91112345679E+03  0.15294330000E+03 0.  0.
<mgrwt>
<rscale>  0 0.72818429E+03</rscale>
<asrwt>0</asrwt>
<pdfrwt beam="1">  1        1 0.20763208E+00 0.72818429E+03</pdfrwt>
<pdfrwt beam="2">  1       -1 0.12967445E+00 0.72818429E+03</pdfrwt>
<totfact> 0.44449148E+00</totfact>
</mgrwt>
</event>
<event>
 4    1  0.2731969E-009  0.8664223E+03  0.7818608E-02  0.9468557E-01
         -1   -1    0    0    0  501 -0.00000000000E+00  0.00000000000E+00  0.65063580989E+03  0.65063580991E+03  0.50400000000E-02 0.  1.
          1   -1    0    0  501    0  0.00000000000E+00 -0.00000000000E+00 -0.17185775877E+04  0.17185775877E+04  0.50400000000E-02 0. -1.
    8880022    1    1    2    0    0  0.48452861409E+03  0.70180336353E+03 -0.12130772483E+04  0.14907192902E+04  0.15294330000E+03 0.  0.
    8880022    1    1    2    0    0 -0.48452861409E+03 -0.70180336353E+03  0.14513547047E+03  0.87849410740E+03  0.15294330000E+03 0.  0.
<mgrwt>
<rscale>  0 0.86642229E+03</rscale>
<asrwt>0</asrwt>
<pdfrwt beam="1">  1        1 0.26439655E+00 0.86642229E+03</pdfrwt>
<pdfrwt beam="2">  1       -1 0.10009782E+00 0.86642229E+03</pdfrwt>
<totfact> 0.45178474E+00</totfact>
</mgrwt>
</event>
<event>
 4    1  0.2731969E-009  0.7864690E+03  0.7818608E-02  0.9579812E-01
         -1   -1    0    0    0  501 -0.00000000000E+00  0.00000000000E+00  0.36925509723E+03  0.36925509727E+03  0.50400000000E-02 0.  1.
          1   -1    0    0  501    0  0.00000000000E+00 -0.00000000000E+00 -0.24153634035E+04  0.24153634035E+04  0.50400000000E-02 0. -1.
    8880022    1    1    2    0    0 -0.13081804383E+03 -0.76028182996E+03 -0.25225333598E+03  0.82593293922E+03  0.15294330000E+03 0.  1.
    8880022    1    1    2    0    0  0.13081804383E+03  0.76028182996E+03 -0.17938549703E+04  0.19586855615E+04  0.15294330000E+03 0.  0.
<mgrwt>
<rscale>  0 0.78646899E+03</rscale>
<asrwt>0</asrwt>
<pdfrwt beam="1">  1        1 0.37159436E+00 0.78646899E+03</pdfrwt>
<pdfrwt beam="2">  1       -1 0.56808478E-01 0.78646899E+03</pdfrwt>
<totfact> 0.51081169E+00</totfact>
</mgrwt>
</event>
<event>
 4    1  0.2731969E-009  0.1536266E+04  0.7818608E-02  0.8860688E-01
         -1   -1    0    0    0  501 -0.00000000000E+00  0.00000000000E+00  0.13712480646E+04  0.13712480646E+04  0.50400000000E-02 0.  1.
          1   -1    0    0  501    0  0.00000000000E+00 -0.00000000000E+00 -0.29022414589E+04  0.29022414589E+04  0.50400000000E-02 0. -1.
    8880022    1    1    2    0    0  0.11317324750E+04 -0.10275720105E+04 -0.21286003804E+04  0.26250816872E+04  0.15294330000E+03 0.  0.
    8880022    1    1    2    0    0 -0.11317324750E+04  0.10275720105E+04  0.59760698612E+03  0.16484078363E+04  0.15294330000E+03 0.  0.
<mgrwt>
<rscale>  0 0.15362663E+04</rscale>
<asrwt>0</asrwt>
<pdfrwt beam="1">  1        1 0.44649868E+00 0.15362663E+04</pdfrwt>
<pdfrwt beam="2">  1       -1 0.21096124E+00 0.15362663E+04</pdfrwt>
<totfact> 0.83952982E-02</totfact>
</mgrwt>
</event>
<event>
 4    1  0.2731969E-009  0.8292999E+03  0.7818608E-02  0.9518549E-01
         -1   -1    0    0    0  501 -0.00000000000E+00  0.00000000000E+00  0.11719500465E+04  0.11719500465E+04  0.50400000000E-02 0.  1.
          1   -1    0    0  501    0  0.00000000000E+00 -0.00000000000E+00 -0.77745987120E+03  0.77745987122E+03  0.50400000000E-02 0. -1.
    8880022    1    1    2    0    0  0.17594422339E+03 -0.79585821983E+03 -0.28539885446E+03  0.87703525297E+03  0.15294330000E+03 0.  0.
    8880022    1    1    2    0    0 -0.17594422339E+03  0.79585821983E+03  0.67988902978E+03  0.10723746648E+04  0.15294330000E+03 0.  0.
<mgrwt>
<rscale>  0 0.82929990E+03</rscale>
<asrwt>0</asrwt>
<pdfrwt beam="1">  1        1 0.11960921E+00 0.82929990E+03</pdfrwt>
<pdfrwt beam="2">  1       -1 0.18030001E+00 0.82929990E+03</pdfrwt>
<totfact> 0.49087981E+00</totfact>
</mgrwt>
</event>
<event>
 4    1  0.2731969E-009  0.3904521E+03  0.7818608E-02  0.1047137E+00
         -1   -1    0    0    0  501 -0.00000000000E+00  0.00000000000E+00  0.20396760004E+04  0.20396760004E+04  0.50400000000E-02 0.  1.
          1   -1    0    0  501    0  0.00000000000E+00 -0.00000000000E+00 -0.77835506702E+03  0.77835506704E+03  0.50400000000E-02 0. -1.
    8880022    1    1    2    0    0 -0.17713841333E+01 -0.35924647565E+03  0.19703166183E+04  0.20086314738E+04  0.15294330000E+03 0.  0.
    8880022    1    1    2    0    0  0.17713841333E+01  0.35924647565E+03 -0.70899568489E+03  0.80939959370E+03  0.15294330000E+03 0. -1.
<mgrwt>
<rscale>  0 0.39045207E+03</rscale>
<asrwt>0</asrwt>
<pdfrwt beam="1">  1        1 0.11974693E+00 0.39045207E+03</pdfrwt>
<pdfrwt beam="2">  1       -1 0.31379631E+00 0.39045207E+03</pdfrwt>
<totfact> 0.73018826E-01</totfact>
</mgrwt>
</event>
<event>
 4    1  0.2731969E-009  0.1655049E+03  0.7818608E-02  0.1182618E+00
         -1   -1    0    0    0  501 -0.00000000000E+00  0.00000000000E+00  0.59264260189E+03  0.59264260191E+03  0.50400000000E-02 0.  1.
          1   -1    0    0  501    0  0.00000000000E+00 -0.00000000000E+00 -0.48290488619E+03  0.48290488622E+03  0.50400000000E-02 0. -1.
    8880022    1    1    2    0    0 -0.62625633139E+02  0.88449539022E+01 -0.45652198438E+03  0.48559672401E+03  0.15294330000E+03 0.  0.
    8880022    1    1    2    0    0  0.62625633139E+02 -0.88449539022E+01  0.56625970008E+03  0.58995076412E+03  0.15294330000E+03 0.  1.
<mgrwt>
<rscale>  0 0.16550485E+03</rscale>
<asrwt>0</asrwt>
<pdfrwt beam="1">  1        1 0.74293060E-01 0.16550485E+03</pdfrwt>
<pdfrwt beam="2">  1       -1 0.91175784E-01 0.16550485E+03</pdfrwt>
<totfact> 0.61004444E+01</totfact>
</mgrwt>
</event>
<event>
 4    1  0.2731969E-009  0.5119400E+03  0.7818608E-02  0.1010709E+00
         -1   -1    0    0    0  501 -0.00000000000E+00  0.00000000000E+00  0.82688758439E+03  0.82688758440E+03  0.50400000000E-02 0.  1.
          1   -1    0    0  501    0  0.00000000000E+00 -0.00000000000E+00 -0.15879495004E+04  0.15879495004E+04  0.50400000000E-02 0. -1.
    8880022    1    1    2    0    0 -0.89721399964E+02  0.48025095313E+03 -0.14607506145E+04  0.15478614015E+04  0.15294330000E+03 0.  0.
    8880022    1    1    2    0    0  0.89721399964E+02 -0.48025095313E+03  0.69968869849E+03  0.86697568328E+03  0.15294330000E+03 0.  0.
<mgrwt>
<rscale>  0 0.51194000E+03</rscale>
<asrwt>0</asrwt>
<pdfrwt beam="1">  1        1 0.24429992E+00 0.51194000E+03</pdfrwt>
<pdfrwt beam="2">  1       -1 0.12721348E+00 0.51194000E+03</pdfrwt>
<totfact> 0.33551070E+00</totfact>
</mgrwt>
</event>
<event>
 4    1  0.2731969E-009  0.7972286E+03  0.7818608E-02  0.9564037E-01
          1   -1    0    0  501    0  0.00000000000E+00  0.00000000000E+00  0.38890721893E+03  0.38890721896E+03  0.50400000000E-02 0. -1.
         -1   -1    0    0    0  501 -0.00000000000E+00 -0.00000000000E+00 -0.20860315633E+04  0.20860315633E+04  0.50400000000E-02 0.  1.
    8880022    1    1    2    0    0 -0.25078562206E+03  0.74113985320E+03 -0.27267669252E+03  0.84257103077E+03  0.15294330000E+03 0.  0.
    8880022    1    1    2    0    0  0.25078562206E+03 -0.74113985320E+03 -0.14244476519E+04  0.16323677515E+04  0.15294330000E+03 0.  0.
<mgrwt>
<rscale>  0 0.79722855E+03</rscale>
<asrwt>0</asrwt>
<pdfrwt beam="1">  1        1 0.59831881E-01 0.79722855E+03</pdfrwt>
<pdfrwt beam="2">  1       -1 0.32092793E+00 0.79722855E+03</pdfrwt>
<totfact> 0.15746481E+00</totfact>
</mgrwt>
</event>
<event>
 4    1  0.2731969E-009  0.1054322E+04  0.7818608E-02  0.9250894E-01
         -1   -1    0    0    0  501 -0.00000000000E+00  0.00000000000E+00  0.14765007874E+04  0.14765007874E+04  0.50400000000E-02 0.  1.
          1   -1    0    0  501    0  0.00000000000E+00 -0.00000000000E+00 -0.10371231685E+04  0.10371231685E+04  0.50400000000E-02 0. -1.
    8880022    1    1    2    0    0 -0.55505829955E+03 -0.88323981203E+03 -0.43829883819E+03  0.11417967446E+04  0.15294330000E+03 0.  0.
    8880022    1    1    2    0    0  0.55505829955E+03  0.88323981203E+03  0.87767645706E+03  0.13718272113E+04  0.15294330000E+03 0.  0.
<mgrwt>
<rscale>  0 0.10543216E+04</rscale>
<asrwt>0</asrwt>
<pdfrwt beam="1">  1        1 0.15955741E+00 0.10543216E+04</pdfrwt>
<pdfrwt beam="2">  1       -1 0.22715397E+00 0.10543216E+04</pdfrwt>
<totfact> 0.13943156E+00</totfact>
</mgrwt>
</event>
<event>
 4    1  0.2731969E-009  0.1209935E+04  0.7818608E-02  0.9104205E-01
         -1   -1    0    0    0  501 -0.00000000000E+00  0.00000000000E+00  0.64252285175E+03  0.64252285177E+03  0.50400000000E-02 0.  1.
          1   -1    0    0  501    0  0.00000000000E+00 -0.00000000000E+00 -0.23536236130E+04  0.23536236130E+04  0.50400000000E-02 0. -1.
    8880022    1    1    2    0    0  0.82188767128E+03  0.87467193185E+03 -0.11233198802E+04  0.16509965290E+04  0.15294330000E+03 0.  0.
    8880022    1    1    2    0    0 -0.82188767128E+03 -0.87467193185E+03 -0.58778088109E+03  0.13451499358E+04  0.15294330000E+03 0.  0.
<mgrwt>
<rscale>  0 0.12099347E+04</rscale>
<asrwt>0</asrwt>
<pdfrwt beam="1">  1        1 0.36209594E+00 0.12099347E+04</pdfrwt>
<pdfrwt beam="2">  1       -1 0.98849671E-01 0.12099347E+04</pdfrwt>
<totfact> 0.16528263E+00</totfact>
</mgrwt>
</event>
<event>
 4    1  0.2731969E-009  0.9062458E+03  0.7818608E-02  0.9417807E-01
         -1   -1    0    0    0  501 -0.00000000000E+00  0.00000000000E+00  0.22984946271E+04  0.22984946271E+04  0.50400000000E-02 0.  1.
          1   -1    0    0  501    0  0.00000000000E+00 -0.00000000000E+00 -0.12812262934E+04  0.12812262934E+04  0.50400000000E-02 0. -1.
    8880022    1    1    2    0    0 -0.75925952738E+03 -0.47054735397E+03 -0.10112899758E+04  0.13579355325E+04  0.15294330000E+03 0.  1.
    8880022    1    1    2    0    0  0.75925952738E+03  0.47054735397E+03  0.20285583095E+04  0.22217853880E+04  0.15294330000E+03 0.  0.
<mgrwt>
<rscale>  0 0.90624582E+03</rscale>
<asrwt>0</asrwt>
<pdfrwt beam="1">  1        1 0.19711174E+00 0.90624582E+03</pdfrwt>
<pdfrwt beam="2">  1       -1 0.35361455E+00 0.90624582E+03</pdfrwt>
<totfact> 0.14287482E-01</totfact>
</mgrwt>
</event>
<event>
 4    1  0.2731969E-009  0.7792349E+03  0.7818608E-02  0.9590570E-01
          1   -1    0    0  501    0  0.00000000000E+00  0.00000000000E+00  0.36270361167E+04  0.36270361167E+04  0.50400000000E-02 0. -1.
         -1   -1    0    0    0  501 -0.00000000000E+00 -0.00000000000E+00 -0.30096578298E+03  0.30096578302E+03  0.50400000000E-02 0.  1.
    8880022    1    1    2    0    0 -0.67290755317E+03 -0.36195419500E+03  0.29713499882E+04  0.30718280909E+04  0.15294330000E+03 0.  0.
    8880022    1    1    2    0    0  0.67290755317E+03  0.36195419500E+03  0.35472034547E+03  0.85617380881E+03  0.15294330000E+03 0.  0.
<mgrwt>
<rscale>  0 0.77923492E+03</rscale>
<asrwt>0</asrwt>
<pdfrwt beam="1">  1        1 0.55800558E+00 0.77923492E+03</pdfrwt>
<pdfrwt beam="2">  1       -1 0.46302426E-01 0.77923492E+03</pdfrwt>
<totfact> 0.99892913E-01</totfact>
</mgrwt>
</event>
<event>
 4    1  0.2731969E-009  0.1018319E+04  0.7818608E-02  0.9288678E-01
         -1   -1    0    0    0  501 -0.00000000000E+00  0.00000000000E+00  0.67034826256E+03  0.67034826258E+03  0.50400000000E-02 0.  1.
          1   -1    0    0  501    0  0.00000000000E+00 -0.00000000000E+00 -0.17456824011E+04  0.17456824011E+04  0.50400000000E-02 0. -1.
    8880022    1    1    2    0    0 -0.48262448804E+03  0.88354681176E+03 -0.94529167879E+03  0.13894421096E+04  0.15294330000E+03 0.  1.
    8880022    1    1    2    0    0  0.48262448804E+03 -0.88354681176E+03 -0.13004245978E+03  0.10265885541E+04  0.15294330000E+03 0.  0.
<mgrwt>
<rscale>  0 0.10183187E+04</rscale>
<asrwt>0</asrwt>
<pdfrwt beam="1">  1        1 0.26856652E+00 0.10183187E+04</pdfrwt>
<pdfrwt beam="2">  1       -1 0.10313050E+00 0.10183187E+04</pdfrwt>
<totfact> 0.39601198E+00</totfact>
</mgrwt>
</event>
<event>
 4    1  0.2731969E-009  0.1153296E+04  0.7818608E-02  0.9154748E-01
          1   -1    0    0  501    0  0.00000000000E+00  0.00000000000E+00  0.19929084384E+04  0.19929084384E+04  0.50400000000E-02 0. -1.
         -1   -1    0    0    0  501 -0.00000000000E+00 -0.00000000000E+00 -0.14481860500E+04  0.14481860500E+04  0.50400000000E-02 0.  1.
    8880022    1    1    2    0    0 -0.41103425044E+03  0.10666539013E+04 -0.99096953323E+03  0.15205630434E+04  0.15294330000E+03 0.  0.
    8880022    1    1    2    0    0  0.41103425044E+03 -0.10666539013E+04  0.15356919216E+04  0.19205314450E+04  0.15294330000E+03 0.  0.
<mgrwt>
<rscale>  0 0.11532959E+04</rscale>
<asrwt>0</asrwt>
<pdfrwt beam="1">  1        1 0.30660130E+00 0.11532959E+04</pdfrwt>
<pdfrwt beam="2">  1       -1 0.22279786E+00 0.11532959E+04</pdfrwt>
<totfact> 0.31406558E-01</totfact>
</mgrwt>
</event>
<event>
 4    1  0.2731969E-009  0.3932113E+03  0.7818608E-02  0.1046156E+00
          1   -1    0    0  501    0  0.00000000000E+00  0.00000000000E+00  0.14578364075E+04  0.14578364075E+04  0.50400000000E-02 0. -1.
         -1   -1    0    0    0  501 -0.00000000000E+00 -0.00000000000E+00 -0.31264730865E+03  0.31264730869E+03  0.50400000000E-02 0.  1.
    8880022    1    1    2    0    0  0.34562483823E+03 -0.10847538502E+03 -0.14700122340E+03  0.41979096066E+03  0.15294330000E+03 0.  0.
    8880022    1    1    2    0    0 -0.34562483823E+03  0.10847538502E+03  0.12921903222E+04  0.13506927555E+04  0.15294330000E+03 0.  0.
<mgrwt>
<rscale>  0 0.39321125E+03</rscale>
<asrwt>0</asrwt>
<pdfrwt beam="1">  1        1 0.22428252E+00 0.39321125E+03</pdfrwt>
<pdfrwt beam="2">  1       -1 0.48099586E-01 0.39321125E+03</pdfrwt>
<totfact> 0.33069940E+01</totfact>
</mgrwt>
</event>
<event>
 4    1  0.2731969E-009  0.1147968E+04  0.7818608E-02  0.9159660E-01
          1   -1    0    0  501    0  0.00000000000E+00  0.00000000000E+00  0.11234470026E+04  0.11234470026E+04  0.50400000000E-02 0. -1.
         -1   -1    0    0    0  501 -0.00000000000E+00 -0.00000000000E+00 -0.22227346444E+04  0.22227346444E+04  0.50400000000E-02 0.  1.
    8880022    1    1    2    0    0 -0.58178285499E+03 -0.97773597651E+03  0.60012481028E+03  0.12953688166E+04  0.15294330000E+03 0.  0.
    8880022    1    1    2    0    0  0.58178285499E+03  0.97773597651E+03 -0.16994124521E+04  0.20508128304E+04  0.15294330000E+03 0.  1.
<mgrwt>
<rscale>  0 0.11479680E+04</rscale>
<asrwt>0</asrwt>
<pdfrwt beam="1">  1        1 0.17283800E+00 0.11479680E+04</pdfrwt>
<pdfrwt beam="2">  1       -1 0.34195918E+00 0.11479680E+04</pdfrwt>
<totfact> 0.21288612E-01</totfact>
</mgrwt>
</event>
<event>
 4    1  0.2731969E-009  0.1034770E+04  0.7818608E-02  0.9271211E-01
         -1   -1    0    0    0  501 -0.00000000000E+00  0.00000000000E+00  0.58518353932E+03  0.58518353934E+03  0.50400000000E-02 0.  1.
          1   -1    0    0  501    0  0.00000000000E+00 -0.00000000000E+00 -0.18706260033E+04  0.18706260033E+04  0.50400000000E-02 0. -1.
    8880022    1    1    2    0    0  0.96522917111E+03 -0.34013221298E+03 -0.46124466837E+03  0.11329146359E+04  0.15294330000E+03 0.  0.
    8880022    1    1    2    0    0 -0.96522917111E+03  0.34013221298E+03 -0.82419779563E+03  0.13228949068E+04  0.15294330000E+03 0.  0.
<mgrwt>
<rscale>  0 0.10347700E+04</rscale>
<asrwt>0</asrwt>
<pdfrwt beam="1">  1        1 0.28778861E+00 0.10347700E+04</pdfrwt>
<pdfrwt beam="2">  1       -1 0.90028238E-01 0.10347700E+04</pdfrwt>
<totfact> 0.44260529E+00</totfact>
</mgrwt>
</event>
<event>
 4    1  0.2731969E-009  0.4191172E+03  0.7818608E-02  0.1037354E+00
         -1   -1    0    0    0  501 -0.00000000000E+00  0.00000000000E+00  0.32310639721E+03  0.32310639725E+03  0.50400000000E-02 0.  1.
          1   -1    0    0  501    0  0.00000000000E+00 -0.00000000000E+00 -0.10150562582E+04  0.10150562582E+04  0.50400000000E-02 0. -1.
    8880022    1    1    2    0    0  0.19410340231E+03 -0.33851359549E+03  0.10998642831E+03  0.43330849581E+03  0.15294330000E+03 0.  0.
    8880022    1    1    2    0    0 -0.19410340231E+03  0.33851359549E+03 -0.80193628929E+03  0.90485415963E+03  0.15294330000E+03 0.  0.
<mgrwt>
<rscale>  0 0.41911721E+03</rscale>
<asrwt>0</asrwt>
<pdfrwt beam="1">  1        1 0.15616250E+00 0.41911721E+03</pdfrwt>
<pdfrwt beam="2">  1       -1 0.49708677E-01 0.41911721E+03</pdfrwt>
<totfact> 0.63690083E+01</totfact>
</mgrwt>
</event>
<event>
 4    1  0.2731969E-009  0.1590532E+04  0.7818608E-02  0.8826386E-01
          1   -1    0    0  501    0  0.00000000000E+00  0.00000000000E+00  0.26045748812E+04  0.26045748812E+04  0.50400000000E-02 0. -1.
         -1   -1    0    0    0  501 -0.00000000000E+00 -0.00000000000E+00 -0.13572017890E+04  0.13572017891E+04  0.50400000000E-02 0.  1.
    8880022    1    1    2    0    0  0.82650143316E+03  0.13502945491E+04  0.16799763297E+04  0.23134632285E+04  0.15294330000E+03 0. -1.
    8880022    1    1    2    0    0 -0.82650143316E+03 -0.13502945491E+04 -0.43260323750E+03  0.16483134418E+04  0.15294330000E+03 0.  0.
<mgrwt>
<rscale>  0 0.15905319E+04</rscale>
<asrwt>0</asrwt>
<pdfrwt beam="1">  1        1 0.40070382E+00 0.15905319E+04</pdfrwt>
<pdfrwt beam="2">  1       -1 0.20880028E+00 0.15905319E+04</pdfrwt>
<totfact> 0.14026268E-01</totfact>
</mgrwt>
</event>
<event>
 4    1  0.2731969E-009  0.1611462E+03  0.7818608E-02  0.1187409E+00
          1   -1    0    0  501    0  0.00000000000E+00  0.00000000000E+00  0.15970565627E+04  0.15970565627E+04  0.50400000000E-02 0. -1.
         -1   -1    0    0    0  501 -0.00000000000E+00 -0.00000000000E+00 -0.19452095961E+04  0.19452095961E+04  0.50400000000E-02 0.  1.
    8880022    1    1    2    0    0 -0.46855332244E+02 -0.19519762850E+02 -0.19377916267E+04  0.19444805180E+04  0.15294330000E+03 0.  0.
    8880022    1    1    2    0    0  0.46855332244E+02  0.19519762850E+02  0.15896385934E+04  0.15977856408E+04  0.15294330000E+03 0. -1.
<mgrwt>
<rscale>  0 0.16114620E+03</rscale>
<asrwt>0</asrwt>
<pdfrwt beam="1">  1        1 0.24570101E+00 0.16114620E+03</pdfrwt>
<pdfrwt beam="2">  1       -1 0.29926301E+00 0.16114620E+03</pdfrwt>
<totfact> 0.27475288E-01</totfact>
</mgrwt>
</event>
<event>
 4    1  0.2731969E-009  0.3541713E+03  0.7818608E-02  0.1060916E+00
          1   -1    0    0  501    0  0.00000000000E+00  0.00000000000E+00  0.46599628756E+03  0.46599628758E+03  0.50400000000E-02 0. -1.
         -1   -1    0    0    0  501 -0.00000000000E+00 -0.00000000000E+00 -0.49788042239E+03  0.49788042241E+03  0.50400000000E-02 0.  1.
    8880022    1    1    2    0    0  0.23127362436E+03  0.22035918709E+03 -0.34257620135E+03  0.49274310488E+03  0.15294330000E+03 0.  0.
    8880022    1    1    2    0    0 -0.23127362436E+03 -0.22035918709E+03  0.31069206652E+03  0.47113360512E+03  0.15294330000E+03 0.  0.
<mgrwt>
<rscale>  0 0.35417131E+03</rscale>
<asrwt>0</asrwt>
<pdfrwt beam="1">  1        1 0.71691737E-01 0.35417131E+03</pdfrwt>
<pdfrwt beam="2">  1       -1 0.76596988E-01 0.35417131E+03</pdfrwt>
<totfact> 0.88434351E+01</totfact>
</mgrwt>
</event>
<event>
 4    1  0.2731969E-009  0.4312799E+03  0.7818608E-02  0.1033456E+00
         -1   -1    0    0    0  501 -0.00000000000E+00  0.00000000000E+00  0.78474633886E+03  0.78474633887E+03  0.50400000000E-02 0.  1.
          1   -1    0    0  501    0  0.00000000000E+00 -0.00000000000E+00 -0.80910845409E+03  0.80910845410E+03  0.50400000000E-02 0. -1.
    8880022    1    1    2    0    0 -0.47528677273E+02  0.40043937831E+03 -0.68229111210E+03  0.80717004747E+03  0.15294330000E+03 0.  0.
    8880022    1    1    2    0    0  0.47528677273E+02 -0.40043937831E+03  0.65792899687E+03  0.78668474550E+03  0.15294330000E+03 0.  0.
<mgrwt>
<rscale>  0 0.43127987E+03</rscale>
<asrwt>0</asrwt>
<pdfrwt beam="1">  1        1 0.12447822E+00 0.43127987E+03</pdfrwt>
<pdfrwt beam="2">  1       -1 0.12073021E+00 0.43127987E+03</pdfrwt>
<totfact> 0.14368110E+01</totfact>
</mgrwt>
</event>
<event>
 4    1  0.2731969E-009  0.7548945E+03  0.7818608E-02  0.9627703E-01
          1   -1    0    0  501    0  0.00000000000E+00  0.00000000000E+00  0.14376661373E+04  0.14376661374E+04  0.50400000000E-02 0. -1.
         -1   -1    0    0    0  501 -0.00000000000E+00 -0.00000000000E+00 -0.52237918488E+03  0.52237918490E+03  0.50400000000E-02 0.  1.
    8880022    1    1    2    0    0  0.31758874720E+03  0.66754135199E+03  0.93895107301E+03  0.12047799963E+04  0.15294330000E+03 0.  0.
    8880022    1    1    2    0    0 -0.31758874720E+03 -0.66754135199E+03 -0.23664120541E+02  0.75526532595E+03  0.15294330000E+03 0.  0.
<mgrwt>
<rscale>  0 0.75489451E+03</rscale>
<asrwt>0</asrwt>
<pdfrwt beam="1">  1        1 0.22117941E+00 0.75489451E+03</pdfrwt>
<pdfrwt beam="2">  1       -1 0.80366029E-01 0.75489451E+03</pdfrwt>
<totfact> 0.11571400E+01</totfact>
</mgrwt>
</event>
<event>
 4    1  0.2731969E-009  0.5728104E+03  0.7818608E-02  0.9963479E-01
         -1   -1    0    0    0  501 -0.00000000000E+00  0.00000000000E+00  0.13685301863E+04  0.13685301864E+04  0.50400000000E-02 0.  1.
          1   -1    0    0  501    0  0.00000000000E+00 -0.00000000000E+00 -0.72212460564E+03  0.72212460566E+03  0.50400000000E-02 0. -1.
    8880022    1    1    2    0    0 -0.22416172749E+03  0.50445185908E+03  0.11775536791E+04  0.13094825231E+04  0.15294330000E+03 0.  0.
    8880022    1    1    2    0    0  0.22416172749E+03 -0.50445185908E+03 -0.53114809841E+03  0.78117226888E+03  0.15294330000E+03 0.  0.
<mgrwt>
<rscale>  0 0.57281045E+03</rscale>
<asrwt>0</asrwt>
<pdfrwt beam="1">  1        1 0.11109609E+00 0.57281045E+03</pdfrwt>
<pdfrwt beam="2">  1       -1 0.21054310E+00 0.57281045E+03</pdfrwt>
<totfact> 0.35548254E+00</totfact>
</mgrwt>
</event>
<event>
 4    1  0.2731969E-009  0.1277469E+04  0.7818608E-02  0.9047626E-01
         -1   -1    0    0    0  501 -0.00000000000E+00  0.00000000000E+00  0.11340652118E+04  0.11340652118E+04  0.50400000000E-02 0.  1.
          1   -1    0    0  501    0  0.00000000000E+00 -0.00000000000E+00 -0.22988539121E+04  0.22988539122E+04  0.50400000000E-02 0. -1.
    8880022    1    1    2    0    0 -0.89035968008E+03 -0.90321331153E+03 -0.16321513688E+04  0.20726418865E+04  0.15294330000E+03 0.  0.
    8880022    1    1    2    0    0  0.89035968008E+03  0.90321331153E+03  0.46736266845E+03  0.13602772375E+04  0.15294330000E+03 0.  0.
<mgrwt>
<rscale>  0 0.12774687E+04</rscale>
<asrwt>0</asrwt>
<pdfrwt beam="1">  1        1 0.35366983E+00 0.12774687E+04</pdfrwt>
<pdfrwt beam="2">  1       -1 0.17447157E+00 0.12774687E+04</pdfrwt>
<totfact> 0.41422258E-01</totfact>
</mgrwt>
</event>
<event>
 4    1  0.2731969E-009  0.8203952E+03  0.7818608E-02  0.9530956E-01
          1   -1    0    0  501    0  0.00000000000E+00  0.00000000000E+00  0.75473954570E+03  0.75473954572E+03  0.50400000000E-02 0. -1.
         -1   -1    0    0    0  501 -0.00000000000E+00 -0.00000000000E+00 -0.12503579323E+04  0.12503579323E+04  0.50400000000E-02 0.  1.
    8880022    1    1    2    0    0 -0.35803043993E+03 -0.72212935803E+03  0.28908762179E+03  0.86983901484E+03  0.15294330000E+03 0.  0.
    8880022    1    1    2    0    0  0.35803043993E+03  0.72212935803E+03 -0.78470600841E+03  0.11352584632E+04  0.15294330000E+03 0.  0.
<mgrwt>
<rscale>  0 0.82039518E+03</rscale>
<asrwt>0</asrwt>
<pdfrwt beam="1">  1        1 0.11611378E+00 0.82039518E+03</pdfrwt>
<pdfrwt beam="2">  1       -1 0.19236276E+00 0.82039518E+03</pdfrwt>
<totfact> 0.42344928E+00</totfact>
</mgrwt>
</event>
<event>
 4    1  0.2731969E-009  0.8932147E+03  0.7818608E-02  0.9434103E-01
         -1   -1    0    0    0  501 -0.00000000000E+00  0.00000000000E+00  0.83423386016E+03  0.83423386018E+03  0.50400000000E-02 0.  1.
          1   -1    0    0  501    0  0.00000000000E+00 -0.00000000000E+00 -0.20947846980E+04  0.20947846980E+04  0.50400000000E-02 0. -1.
    8880022    1    1    2    0    0  0.23947081219E+03 -0.84681439988E+03 -0.17099018823E+04  0.19291441102E+04  0.15294330000E+03 0.  0.
    8880022    1    1    2    0    0 -0.23947081219E+03  0.84681439988E+03  0.44935104441E+03  0.99987444805E+03  0.15294330000E+03 0.  0.
<mgrwt>
<rscale>  0 0.89321473E+03</rscale>
<asrwt>0</asrwt>
<pdfrwt beam="1">  1        1 0.32227457E+00 0.89321473E+03</pdfrwt>
<pdfrwt beam="2">  1       -1 0.12834367E+00 0.89321473E+03</pdfrwt>
<totfact> 0.13860329E+00</totfact>
</mgrwt>
</event>
<event>
 4    1  0.2731969E-009  0.5250229E+03  0.7818608E-02  0.1007446E+00
         -1   -1    0    0    0  501 -0.00000000000E+00  0.00000000000E+00  0.59606480919E+03  0.59606480921E+03  0.50400000000E-02 0.  1.
          1   -1    0    0  501    0  0.00000000000E+00 -0.00000000000E+00 -0.12461003814E+04  0.12461003814E+04  0.50400000000E-02 0. -1.
    8880022    1    1    2    0    0 -0.43776010681E+03  0.24621840503E+03 -0.10554564432E+04  0.11788288131E+04  0.15294330000E+03 0.  0.
    8880022    1    1    2    0    0  0.43776010681E+03 -0.24621840503E+03  0.40542087100E+03  0.66333637752E+03  0.15294330000E+03 0.  0.
<mgrwt>
<rscale>  0 0.52502292E+03</rscale>
<asrwt>0</asrwt>
<pdfrwt beam="1">  1        1 0.19170775E+00 0.52502292E+03</pdfrwt>
<pdfrwt beam="2">  1       -1 0.91702279E-01 0.52502292E+03</pdfrwt>
<totfact> 0.12310414E+01</totfact>
</mgrwt>
</event>
<event>
 4    1  0.2731969E-009  0.6368872E+03  0.7818608E-02  0.9831700E-01
          1   -1    0    0  501    0  0.00000000000E+00  0.00000000000E+00  0.15544229889E+04  0.15544229889E+04  0.50400000000E-02 0. -1.
         -1   -1    0    0    0  501 -0.00000000000E+00 -0.00000000000E+00 -0.87310529559E+03  0.87310529560E+03  0.50400000000E-02 0.  1.
    8880022    1    1    2    0    0  0.41799525992E+03  0.45553659465E+03  0.13569826955E+04  0.14990087776E+04  0.15294330000E+03 0. -1.
    8880022    1    1    2    0    0 -0.41799525992E+03 -0.45553659465E+03 -0.67566500224E+03  0.92851950687E+03  0.15294330000E+03 0.  0.
<mgrwt>
<rscale>  0 0.63688718E+03</rscale>
<asrwt>0</asrwt>
<pdfrwt beam="1">  1        1 0.23914200E+00 0.63688718E+03</pdfrwt>
<pdfrwt beam="2">  1       -1 0.13432389E+00 0.63688718E+03</pdfrwt>
<totfact> 0.29924163E+00</totfact>
</mgrwt>
</event>
<event>
 4    1  0.2731969E-009  0.7446943E+03  0.7818608E-02  0.9643711E-01
          1   -1    0    0  501    0  0.00000000000E+00  0.00000000000E+00  0.98274987756E+03  0.98274987757E+03  0.50400000000E-02 0. -1.
         -1   -1    0    0    0  501 -0.00000000000E+00 -0.00000000000E+00 -0.72052841207E+03  0.72052841208E+03  0.50400000000E-02 0.  1.
    8880022    1    1    2    0    0  0.18488893468E+03 -0.70497798878E+03  0.52766691327E+03  0.91268938156E+03  0.15294330000E+03 0. -1.
    8880022    1    1    2    0    0 -0.18488893468E+03  0.70497798878E+03 -0.26544544778E+03  0.79058890809E+03  0.15294330000E+03 0.  0.
<mgrwt>
<rscale>  0 0.74469426E+03</rscale>
<asrwt>0</asrwt>
<pdfrwt beam="1">  1        1 0.15119229E+00 0.74469426E+03</pdfrwt>
<pdfrwt beam="2">  1       -1 0.11085053E+00 0.74469426E+03</pdfrwt>
<totfact> 0.12075225E+01</totfact>
</mgrwt>
</event>
<event>
 4    1  0.2731969E-009  0.2253392E+03  0.7818608E-02  0.1129964E+00
         -1   -1    0    0    0  501 -0.00000000000E+00  0.00000000000E+00  0.63887677901E+03  0.63887677903E+03  0.50400000000E-02 0.  1.
          1   -1    0    0  501    0  0.00000000000E+00 -0.00000000000E+00 -0.12192268262E+04  0.12192268262E+04  0.50400000000E-02 0. -1.
    8880022    1    1    2    0    0  0.84046575520E+02 -0.14255619407E+03 -0.11884347414E+04  0.12096093927E+04  0.15294330000E+03 0.  0.
    8880022    1    1    2    0    0 -0.84046575520E+02  0.14255619407E+03  0.60808469422E+03  0.64849421253E+03  0.15294330000E+03 0.  0.
<mgrwt>
<rscale>  0 0.22533919E+03</rscale>
<asrwt>0</asrwt>
<pdfrwt beam="1">  1        1 0.18757336E+00 0.22533919E+03</pdfrwt>
<pdfrwt beam="2">  1       -1 0.98288735E-01 0.22533919E+03</pdfrwt>
<totfact> 0.12108649E+01</totfact>
</mgrwt>
</event>
<event>
 4    1  0.2731969E-009  0.9743574E+03  0.7818608E-02  0.9337125E-01
          1   -1    0    0  501    0  0.00000000000E+00  0.00000000000E+00  0.28758769106E+04  0.28758769106E+04  0.50400000000E-02 0. -1.
         -1   -1    0    0    0  501 -0.00000000000E+00 -0.00000000000E+00 -0.54649962061E+03  0.54649962064E+03  0.50400000000E-02 0.  1.
    8880022    1    1    2    0    0  0.94425777759E+02 -0.95763482707E+03  0.22414396254E+04  0.24440589062E+04  0.15294330000E+03 0.  0.
    8880022    1    1    2    0    0 -0.94425777759E+02  0.95763482707E+03  0.87937664506E+02  0.97831762499E+03  0.15294330000E+03 0.  0.
<mgrwt>
<rscale>  0 0.97435740E+03</rscale>
<asrwt>0</asrwt>
<pdfrwt beam="1">  1        1 0.44244260E+00 0.97435740E+03</pdfrwt>
<pdfrwt beam="2">  1       -1 0.84076866E-01 0.97435740E+03</pdfrwt>
<totfact> 0.10618054E+00</totfact>
</mgrwt>
</event>
<event>
 4    1  0.2731969E-009  0.1813840E+04  0.7818608E-02  0.8698974E-01
         -1   -1    0    0    0  501 -0.00000000000E+00  0.00000000000E+00  0.11899499431E+04  0.11899499431E+04  0.50400000000E-02 0.  1.
          1   -1    0    0  501    0  0.00000000000E+00 -0.00000000000E+00 -0.33740700613E+04  0.33740700613E+04  0.50400000000E-02 0. -1.
    8880022    1    1    2    0    0  0.14063410660E+04  0.11352657660E+04 -0.20617501402E+04  0.27460569635E+04  0.15294330000E+03 0.  0.
    8880022    1    1    2    0    0 -0.14063410660E+04 -0.11352657660E+04 -0.12236997807E+03  0.18179630409E+04  0.15294330000E+03 0.  0.
<mgrwt>
<rscale>  0 0.18138399E+04</rscale>
<asrwt>0</asrwt>
<pdfrwt beam="1">  1        1 0.51908770E+00 0.18138399E+04</pdfrwt>
<pdfrwt beam="2">  1       -1 0.18306922E+00 0.18138399E+04</pdfrwt>
<totfact> 0.56715941E-02</totfact>
</mgrwt>
</event>
<event>
 4    1  0.2731969E-009  0.4518706E+03  0.7818608E-02  0.1027166E+00
         -1   -1    0    0    0  501 -0.00000000000E+00  0.00000000000E+00  0.20155254694E+04  0.20155254694E+04  0.50400000000E-02 0.  1.
          1   -1    0    0  501    0  0.00000000000E+00 -0.00000000000E+00 -0.15116518000E+03  0.15116518009E+03  0.50400000000E-02 0. -1.
    8880022    1    1    2    0    0 -0.41985963814E+03  0.67180839917E+02  0.15543497911E+04  0.16187001906E+04  0.15294330000E+03 0.  0.
    8880022    1    1    2    0    0  0.41985963814E+03 -0.67180839917E+02  0.31001049838E+03  0.54799045896E+03  0.15294330000E+03 0.  0.
<mgrwt>
<rscale>  0 0.45187059E+03</rscale>
<asrwt>0</asrwt>
<pdfrwt beam="1">  1        1 0.23256183E-01 0.45187059E+03</pdfrwt>
<pdfrwt beam="2">  1       -1 0.31008082E+00 0.45187059E+03</pdfrwt>
<totfact> 0.67056588E+00</totfact>
</mgrwt>
</event>
<event>
 4    1  0.2731969E-009  0.2299131E+03  0.7818608E-02  0.1126701E+00
          1   -1    0    0  501    0  0.00000000000E+00  0.00000000000E+00  0.43264839785E+03  0.43264839788E+03  0.50400000000E-02 0. -1.
         -1   -1    0    0    0  501 -0.00000000000E+00 -0.00000000000E+00 -0.15079748028E+03  0.15079748036E+03  0.50400000000E-02 0.  1.
    8880022    1    1    2    0    0  0.17165409511E+03  0.18030309839E+01  0.13837069102E+02  0.23032910538E+03  0.15294330000E+03 0.  0.
    8880022    1    1    2    0    0 -0.17165409511E+03 -0.18030309839E+01  0.26801384847E+03  0.35311677286E+03  0.15294330000E+03 0.  0.
<mgrwt>
<rscale>  0 0.22991310E+03</rscale>
<asrwt>0</asrwt>
<pdfrwt beam="1">  1        1 0.66561290E-01 0.22991310E+03</pdfrwt>
<pdfrwt beam="2">  1       -1 0.23199613E-01 0.22991310E+03</pdfrwt>
<totfact> 0.86492705E+02</totfact>
</mgrwt>
</event>
<event>
 4    1  0.2731969E-009  0.3636607E+03  0.7818608E-02  0.1057144E+00
         -1   -1    0    0    0  501 -0.00000000000E+00  0.00000000000E+00  0.30647705989E+03  0.30647705993E+03  0.50400000000E-02 0.  1.
          1   -1    0    0  501    0  0.00000000000E+00 -0.00000000000E+00 -0.12204129900E+04  0.12204129900E+04  0.50400000000E-02 0. -1.
    8880022    1    1    2    0    0 -0.14154692884E+03 -0.29803005150E+03 -0.10707795747E+04  0.11308483520E+04  0.15294330000E+03 0.  0.
    8880022    1    1    2    0    0  0.14154692884E+03  0.29803005150E+03  0.15684364455E+03  0.39604169795E+03  0.15294330000E+03 0.  0.
<mgrwt>
<rscale>  0 0.36366069E+03</rscale>
<asrwt>0</asrwt>
<pdfrwt beam="1">  1        1 0.18775584E+00 0.36366069E+03</pdfrwt>
<pdfrwt beam="2">  1       -1 0.47150318E-01 0.36366069E+03</pdfrwt>
<totfact> 0.50325018E+01</totfact>
</mgrwt>
</event>
<event>
 4    1  0.2731969E-009  0.7239134E+03  0.7818608E-02  0.9677189E-01
          1   -1    0    0  501    0  0.00000000000E+00  0.00000000000E+00  0.28687364348E+04  0.28687364348E+04  0.50400000000E-02 0. -1.
         -1   -1    0    0    0  501 -0.00000000000E+00 -0.00000000000E+00 -0.74352385218E+03  0.74352385220E+03  0.50400000000E-02 0.  1.
    8880022    1    1    2    0    0 -0.55560516775E+02 -0.70538783480E+03 -0.50603607370E+03  0.88324579218E+03  0.15294330000E+03 0.  0.
    8880022    1    1    2    0    0  0.55560516775E+02  0.70538783480E+03  0.26312486563E+04  0.27290144948E+04  0.15294330000E+03 0.  0.
<mgrwt>
<rscale>  0 0.72391341E+03</rscale>
<asrwt>0</asrwt>
<pdfrwt beam="1">  1        1 0.44134408E+00 0.72391341E+03</pdfrwt>
<pdfrwt beam="2">  1       -1 0.11438828E+00 0.72391341E+03</pdfrwt>
<totfact> 0.56153960E-01</totfact>
</mgrwt>
</event>
<event>
 4    1  0.2731969E-009  0.9034097E+03  0.7818608E-02  0.9421329E-01
         -1   -1    0    0    0  501 -0.00000000000E+00  0.00000000000E+00  0.11765841413E+04  0.11765841413E+04  0.50400000000E-02 0.  1.
          1   -1    0    0  501    0  0.00000000000E+00 -0.00000000000E+00 -0.22356843579E+04  0.22356843579E+04  0.50400000000E-02 0. -1.
    8880022    1    1    2    0    0  0.43910991276E+02  0.88928581171E+03  0.88739689381E+03  0.12663421063E+04  0.15294330000E+03 0.  0.
    8880022    1    1    2    0    0 -0.43910991276E+02 -0.88928581171E+03 -0.19464971104E+04  0.21459263929E+04  0.15294330000E+03 0.  0.
<mgrwt>
<rscale>  0 0.90340970E+03</rscale>
<asrwt>0</asrwt>
<pdfrwt beam="1">  1        1 0.34395144E+00 0.90340970E+03</pdfrwt>
<pdfrwt beam="2">  1       -1 0.18101295E+00 0.90340970E+03</pdfrwt>
<totfact> 0.43560993E-01</totfact>
</mgrwt>
</event>
<event>
 4    1  0.2731969E-009  0.5384754E+03  0.7818608E-02  0.1004197E+00
         -1   -1    0    0    0  501 -0.00000000000E+00  0.00000000000E+00  0.80031874640E+03  0.80031874641E+03  0.50400000000E-02 0.  1.
          1   -1    0    0  501    0  0.00000000000E+00 -0.00000000000E+00 -0.10306269220E+04  0.10306269220E+04  0.50400000000E-02 0. -1.
    8880022    1    1    2    0    0  0.50326829331E+03  0.11526121943E+03 -0.85236045642E+03  0.10082034142E+04  0.15294330000E+03 0.  0.
    8880022    1    1    2    0    0 -0.50326829331E+03 -0.11526121943E+03  0.62205228083E+03  0.82274225420E+03  0.15294330000E+03 0.  1.
<mgrwt>
<rscale>  0 0.53847542E+03</rscale>
<asrwt>0</asrwt>
<pdfrwt beam="1">  1        1 0.15855799E+00 0.53847542E+03</pdfrwt>
<pdfrwt beam="2">  1       -1 0.12312596E+00 0.53847542E+03</pdfrwt>
<totfact> 0.89154256E+00</totfact>
</mgrwt>
</event>
<event>
 4    1  0.6006434E-009  0.2632684E+03  0.7818608E-02  0.1105195E+00
         -1   -1    0    0    0  501 -0.00000000000E+00  0.00000000000E+00  0.27102313311E+04  0.27102313311E+04  0.50400000000E-02 0.  1.
          1   -1    0    0  501    0  0.00000000000E+00 -0.00000000000E+00 -0.21661078045E+04  0.21661078045E+04  0.50400000000E-02 0. -1.
    8880022    1    1    2    0    0 -0.20683093180E+03 -0.56031793448E+02  0.26957958089E+04  0.27086205516E+04  0.15294330000E+03 0.  0.
    8880022    1    1    2    0    0  0.20683093180E+03  0.56031793448E+02 -0.21516722823E+04  0.21677185840E+04  0.15294330000E+03 0. -1.
<mgrwt>
<rscale>  0 0.26326840E+03</rscale>
<asrwt>0</asrwt>
<pdfrwt beam="1">  1        1 0.33324735E+00 0.26326840E+03</pdfrwt>
<pdfrwt beam="2">  1       -1 0.41695867E+00 0.26326840E+03</pdfrwt>
<totfact> 0.18283830E-02</totfact>
</mgrwt>
</event>
<event>
 4    1  0.2731969E-009  0.1047176E+04  0.7818608E-02  0.9258264E-01
          1   -1    0    0  501    0  0.00000000000E+00  0.00000000000E+00  0.21925407484E+04  0.21925407484E+04  0.50400000000E-02 0. -1.
         -1   -1    0    0    0  501 -0.00000000000E+00 -0.00000000000E+00 -0.69877860619E+03  0.69877860621E+03  0.50400000000E-02 0.  1.
    8880022    1    1    2    0    0 -0.10016992384E+04  0.26416896272E+03  0.15176560969E+04  0.18438704637E+04  0.15294330000E+03 0.  0.
    8880022    1    1    2    0    0  0.10016992384E+04 -0.26416896272E+03 -0.23893954704E+02  0.10474488910E+04  0.15294330000E+03 0.  0.
<mgrwt>
<rscale>  0 0.10471763E+04</rscale>
<asrwt>0</asrwt>
<pdfrwt beam="1">  1        1 0.33731396E+00 0.10471763E+04</pdfrwt>
<pdfrwt beam="2">  1       -1 0.10750440E+00 0.10471763E+04</pdfrwt>
<totfact> 0.17878423E+00</totfact>
</mgrwt>
</event>
<event>
 4    1  0.2731969E-009  0.1016574E+04  0.7818608E-02  0.9290551E-01
         -1   -1    0    0    0  501 -0.00000000000E+00  0.00000000000E+00  0.14965598155E+04  0.14965598155E+04  0.50400000000E-02 0.  1.
          1   -1    0    0  501    0  0.00000000000E+00 -0.00000000000E+00 -0.95145078542E+03  0.95145078543E+03  0.50400000000E-02 0. -1.
    8880022    1    1    2    0    0 -0.34136267632E+03  0.94525316539E+03 -0.36842200646E+03  0.10812763067E+04  0.15294330000E+03 0.  0.
    8880022    1    1    2    0    0  0.34136267632E+03 -0.94525316539E+03  0.91353103658E+03  0.13667342943E+04  0.15294330000E+03 0.  0.
<mgrwt>
<rscale>  0 0.10165745E+04</rscale>
<asrwt>0</asrwt>
<pdfrwt beam="1">  1        1 0.14637704E+00 0.10165745E+04</pdfrwt>
<pdfrwt beam="2">  1       -1 0.23023997E+00 0.10165745E+04</pdfrwt>
<totfact> 0.15609280E+00</totfact>
</mgrwt>
</event>
<event>
 4    1  0.2731969E-009  0.9699777E+03  0.7818608E-02  0.9342100E-01
         -1   -1    0    0    0  501 -0.00000000000E+00  0.00000000000E+00  0.11035984546E+04  0.11035984546E+04  0.50400000000E-02 0.  1.
          1   -1    0    0  501    0  0.00000000000E+00 -0.00000000000E+00 -0.13733863247E+04  0.13733863247E+04  0.50400000000E-02 0. -1.
    8880022    1    1    2    0    0  0.16364291634E+03 -0.94376167955E+03 -0.89759384838E+03  0.13215640285E+04  0.15294330000E+03 0.  0.
    8880022    1    1    2    0    0 -0.16364291634E+03  0.94376167955E+03  0.62780597827E+03  0.11554207507E+04  0.15294330000E+03 0.  0.
<mgrwt>
<rscale>  0 0.96997771E+03</rscale>
<asrwt>0</asrwt>
<pdfrwt beam="1">  1        1 0.21129020E+00 0.96997771E+03</pdfrwt>
<pdfrwt beam="2">  1       -1 0.16978438E+00 0.96997771E+03</pdfrwt>
<totfact> 0.19992785E+00</totfact>
</mgrwt>
</event>
<event>
 4    1  0.2731969E-009  0.9113647E+03  0.7818608E-02  0.9411485E-01
          1   -1    0    0  501    0  0.00000000000E+00  0.00000000000E+00  0.13591340642E+04  0.13591340642E+04  0.50400000000E-02 0. -1.
         -1   -1    0    0    0  501 -0.00000000000E+00 -0.00000000000E+00 -0.63362770731E+03  0.63362770733E+03  0.50400000000E-02 0.  1.
    8880022    1    1    2    0    0 -0.34637049014E+03  0.82898819117E+03  0.17493670185E+03  0.92800239235E+03  0.15294330000E+03 0.  0.
    8880022    1    1    2    0    0  0.34637049014E+03 -0.82898819117E+03  0.55056965508E+03  0.10647593792E+04  0.15294330000E+03 0.  0.
<mgrwt>
<rscale>  0 0.91136469E+03</rscale>
<asrwt>0</asrwt>
<pdfrwt beam="1">  1        1 0.20909755E+00 0.91136469E+03</pdfrwt>
<pdfrwt beam="2">  1       -1 0.97481186E-01 0.91136469E+03</pdfrwt>
<totfact> 0.84176208E+00</totfact>
</mgrwt>
</event>
<event>
 4    1  0.2731969E-009  0.4542237E+03  0.7818608E-02  0.1026470E+00
         -1   -1    0    0    0  501 -0.00000000000E+00  0.00000000000E+00  0.16243911456E+04  0.16243911456E+04  0.50400000000E-02 0.  1.
          1   -1    0    0  501    0  0.00000000000E+00 -0.00000000000E+00 -0.10865087082E+04  0.10865087082E+04  0.50400000000E-02 0. -1.
    8880022    1    1    2    0    0 -0.37782678357E+03 -0.20043573177E+03 -0.10048209098E+04  0.11027167699E+04  0.15294330000E+03 0.  0.
    8880022    1    1    2    0    0  0.37782678357E+03  0.20043573177E+03  0.15427033471E+04  0.16081830839E+04  0.15294330000E+03 0.  0.
<mgrwt>
<rscale>  0 0.45422375E+03</rscale>
<asrwt>0</asrwt>
<pdfrwt beam="1">  1        1 0.16715519E+00 0.45422375E+03</pdfrwt>
<pdfrwt beam="2">  1       -1 0.24990633E+00 0.45422375E+03</pdfrwt>
<totfact> 0.10309833E+00</totfact>
</mgrwt>
</event>
<event>
 4    1  0.2731969E-009  0.8010807E+03  0.7818608E-02  0.9558454E-01
          1   -1    0    0  501    0  0.00000000000E+00  0.00000000000E+00  0.14505889645E+04  0.14505889645E+04  0.50400000000E-02 0. -1.
         -1   -1    0    0    0  501 -0.00000000000E+00 -0.00000000000E+00 -0.11841642100E+04  0.11841642100E+04  0.50400000000E-02 0.  1.
    8880022    1    1    2    0    0 -0.65130110549E+02  0.78364322156E+03 -0.90943867617E+03  0.12119443010E+04  0.15294330000E+03 0.  0.
    8880022    1    1    2    0    0  0.65130110549E+02 -0.78364322156E+03  0.11758634307E+04  0.14228088735E+04  0.15294330000E+03 0.  0.
<mgrwt>
<rscale>  0 0.80108070E+03</rscale>
<asrwt>0</asrwt>
<pdfrwt beam="1">  1        1 0.22316753E+00 0.80108070E+03</pdfrwt>
<pdfrwt beam="2">  1       -1 0.18217911E+00 0.80108070E+03</pdfrwt>
<totfact> 0.14768944E+00</totfact>
</mgrwt>
</event>
<event>
 4    1  0.2731969E-009  0.1070081E+04  0.7818608E-02  0.9234854E-01
         -1   -1    0    0    0  501 -0.00000000000E+00  0.00000000000E+00  0.11368905241E+04  0.11368905242E+04  0.50400000000E-02 0.  1.
          1   -1    0    0  501    0  0.00000000000E+00 -0.00000000000E+00 -0.14928780823E+04  0.14928780823E+04  0.50400000000E-02 0. -1.
    8880022    1    1    2    0    0  0.91565488139E+03  0.53221950621E+03 -0.92797572591E+03  0.14164081564E+04  0.15294330000E+03 0. -1.
    8880022    1    1    2    0    0 -0.91565488139E+03 -0.53221950621E+03  0.57198816779E+03  0.12133604500E+04  0.15294330000E+03 0.  0.
<mgrwt>
<rscale>  0 0.10700809E+04</rscale>
<asrwt>0</asrwt>
<pdfrwt beam="1">  1        1 0.22967355E+00 0.10700809E+04</pdfrwt>
<pdfrwt beam="2">  1       -1 0.17490623E+00 0.10700809E+04</pdfrwt>
<totfact> 0.14933677E+00</totfact>
</mgrwt>
</event>
<event>
 4    1  0.2731969E-009  0.1416101E+04  0.7818608E-02  0.8942245E-01
         -1   -1    0    0    0  501 -0.00000000000E+00  0.00000000000E+00  0.85927028983E+03  0.85927028984E+03  0.50400000000E-02 0.  1.
          1   -1    0    0  501    0  0.00000000000E+00 -0.00000000000E+00 -0.30548995433E+04  0.30548995433E+04  0.50400000000E-02 0. -1.
    8880022    1    1    2    0    0  0.13930106321E+04 -0.20364815043E+03 -0.14695462534E+03  0.14237059054E+04  0.15294330000E+03 0.  0.
    8880022    1    1    2    0    0 -0.13930106321E+04  0.20364815043E+03 -0.20486746281E+04  0.24904639277E+04  0.15294330000E+03 0.  0.
<mgrwt>
<rscale>  0 0.14161013E+04</rscale>
<asrwt>0</asrwt>
<pdfrwt beam="1">  1        1 0.46998454E+00 0.14161013E+04</pdfrwt>
<pdfrwt beam="2">  1       -1 0.13219543E+00 0.14161013E+04</pdfrwt>
<totfact> 0.25547417E-01</totfact>
</mgrwt>
</event>
<event>
 4    1  0.2731969E-009  0.7362420E+03  0.7818608E-02  0.9657185E-01
          1   -1    0    0  501    0  0.00000000000E+00  0.00000000000E+00  0.15440364088E+04  0.15440364088E+04  0.50400000000E-02 0. -1.
         -1   -1    0    0    0  501 -0.00000000000E+00 -0.00000000000E+00 -0.50724956366E+03  0.50724956368E+03  0.50400000000E-02 0.  1.
    8880022    1    1    2    0    0 -0.70800814063E+03 -0.13185233790E+03  0.10875199911E+04  0.13132981194E+04  0.15294330000E+03 0.  0.
    8880022    1    1    2    0    0  0.70800814063E+03  0.13185233790E+03 -0.50733146014E+02  0.73798785310E+03  0.15294330000E+03 0.  0.
<mgrwt>
<rscale>  0 0.73624196E+03</rscale>
<asrwt>0</asrwt>
<pdfrwt beam="1">  1        1 0.23754406E+00 0.73624196E+03</pdfrwt>
<pdfrwt beam="2">  1       -1 0.78038395E-01 0.73624196E+03</pdfrwt>
<totfact> 0.10439046E+01</totfact>
</mgrwt>
</event>
<event>
 4    1  0.2731969E-009  0.5127885E+03  0.7818608E-02  0.1010494E+00
         -1   -1    0    0    0  501 -0.00000000000E+00  0.00000000000E+00  0.22782125742E+04  0.22782125742E+04  0.50400000000E-02 0.  1.
          1   -1    0    0  501    0  0.00000000000E+00 -0.00000000000E+00 -0.43363380293E+03  0.43363380296E+03  0.50400000000E-02 0. -1.
    8880022    1    1    2    0    0 -0.46018157247E+03 -0.16671322311E+03 -0.23924697575E+03  0.56585435124E+03  0.15294330000E+03 0.  0.
    8880022    1    1    2    0    0  0.46018157247E+03  0.16671322311E+03  0.20838257470E+04  0.21459920259E+04  0.15294330000E+03 0.  0.
<mgrwt>
<rscale>  0 0.51278849E+03</rscale>
<asrwt>0</asrwt>
<pdfrwt beam="1">  1        1 0.66712893E-01 0.51278849E+03</pdfrwt>
<pdfrwt beam="2">  1       -1 0.35049424E+00 0.51278849E+03</pdfrwt>
<totfact> 0.93217924E-01</totfact>
</mgrwt>
</event>
<event>
 4    1  0.2731969E-009  0.4888151E+03  0.7818608E-02  0.1016740E+00
          1   -1    0    0  501    0  0.00000000000E+00  0.00000000000E+00  0.85404545741E+03  0.85404545742E+03  0.50400000000E-02 0. -1.
         -1   -1    0    0    0  501 -0.00000000000E+00 -0.00000000000E+00 -0.72450809333E+03  0.72450809335E+03  0.50400000000E-02 0.  1.
    8880022    1    1    2    0    0 -0.13541693238E+03 -0.44408422049E+03 -0.55361445887E+03  0.73853176137E+03  0.15294330000E+03 0.  0.
    8880022    1    1    2    0    0  0.13541693238E+03  0.44408422049E+03  0.68315182295E+03  0.84002178940E+03  0.15294330000E+03 0.  0.
<mgrwt>
<rscale>  0 0.48881509E+03</rscale>
<asrwt>0</asrwt>
<pdfrwt beam="1">  1        1 0.13139161E+00 0.48881509E+03</pdfrwt>
<pdfrwt beam="2">  1       -1 0.11146278E+00 0.48881509E+03</pdfrwt>
<totfact> 0.15747367E+01</totfact>
</mgrwt>
</event>
<event>
 4    1  0.2731969E-009  0.3371430E+03  0.7818608E-02  0.1068019E+00
          1   -1    0    0  501    0  0.00000000000E+00  0.00000000000E+00  0.21507146802E+04  0.21507146802E+04  0.50400000000E-02 0. -1.
         -1   -1    0    0    0  501 -0.00000000000E+00 -0.00000000000E+00 -0.15064285024E+04  0.15064285024E+04  0.50400000000E-02 0.  1.
    8880022    1    1    2    0    0  0.75540236647E+02  0.29080476462E+03  0.21183524007E+04  0.21450133531E+04  0.15294330000E+03 0.  0.
    8880022    1    1    2    0    0 -0.75540236647E+02 -0.29080476462E+03 -0.14740662229E+04  0.15121298294E+04  0.15294330000E+03 0.  1.
<mgrwt>
<rscale>  0 0.33714298E+03</rscale>
<asrwt>0</asrwt>
<pdfrwt beam="1">  1        1 0.33087918E+00 0.33714298E+03</pdfrwt>
<pdfrwt beam="2">  1       -1 0.23175823E+00 0.33714298E+03</pdfrwt>
<totfact> 0.27220010E-01</totfact>
</mgrwt>
</event>
<event>
 4    1  0.2731969E-009  0.1074179E+04  0.7818608E-02  0.9230730E-01
         -1   -1    0    0    0  501 -0.00000000000E+00  0.00000000000E+00  0.14017066788E+04  0.14017066788E+04  0.50400000000E-02 0.  1.
          1   -1    0    0  501    0  0.00000000000E+00 -0.00000000000E+00 -0.14810263893E+04  0.14810263893E+04  0.50400000000E-02 0. -1.
    8880022    1    1    2    0    0 -0.52534311564E+02  0.10619368643E+04 -0.10002856014E+04  0.14677985880E+04  0.15294330000E+03 0.  0.
    8880022    1    1    2    0    0  0.52534311564E+02 -0.10619368643E+04  0.92096589096E+03  0.14149344801E+04  0.15294330000E+03 0.  0.
<mgrwt>
<rscale>  0 0.10741794E+04</rscale>
<asrwt>0</asrwt>
<pdfrwt beam="1">  1        1 0.22785021E+00 0.10741794E+04</pdfrwt>
<pdfrwt beam="2">  1       -1 0.21564718E+00 0.10741794E+04</pdfrwt>
<totfact> 0.79135334E-01</totfact>
</mgrwt>
</event>
<event>
 4    1  0.2731969E-009  0.1086938E+04  0.7818608E-02  0.9218017E-01
          1   -1    0    0  501    0  0.00000000000E+00  0.00000000000E+00  0.24126799839E+04  0.24126799840E+04  0.50400000000E-02 0. -1.
         -1   -1    0    0    0  501 -0.00000000000E+00 -0.00000000000E+00 -0.60871854263E+03  0.60871854265E+03  0.50400000000E-02 0.  1.
    8880022    1    1    2    0    0  0.37593949476E+03 -0.10083217316E+04  0.15700450567E+04  0.19095749138E+04  0.15294330000E+03 0.  0.
    8880022    1    1    2    0    0 -0.37593949476E+03  0.10083217316E+04  0.23391638459E+03  0.11118236128E+04  0.15294330000E+03 0.  0.
<mgrwt>
<rscale>  0 0.10869383E+04</rscale>
<asrwt>0</asrwt>
<pdfrwt beam="1">  1        1 0.37118154E+00 0.10869383E+04</pdfrwt>
<pdfrwt beam="2">  1       -1 0.93649005E-01 0.10869383E+04</pdfrwt>
<totfact> 0.17295704E+00</totfact>
</mgrwt>
</event>
<event>
 4    1  0.2731969E-009  0.7692049E+03  0.7818608E-02  0.9605694E-01
         -1   -1    0    0    0  501 -0.00000000000E+00  0.00000000000E+00  0.11858863662E+04  0.11858863662E+04  0.50400000000E-02 0.  1.
          1   -1    0    0  501    0  0.00000000000E+00 -0.00000000000E+00 -0.10218678724E+04  0.10218678724E+04  0.50400000000E-02 0. -1.
    8880022    1    1    2    0    0 -0.32901075252E+02 -0.75312812858E+03  0.87168311580E+03  0.11625435760E+04  0.15294330000E+03 0.  0.
    8880022    1    1    2    0    0  0.32901075252E+02  0.75312812858E+03 -0.70766462201E+03  0.10452106625E+04  0.15294330000E+03 0.  0.
<mgrwt>
<rscale>  0 0.76920486E+03</rscale>
<asrwt>0</asrwt>
<pdfrwt beam="1">  1        1 0.15721044E+00 0.76920486E+03</pdfrwt>
<pdfrwt beam="2">  1       -1 0.18244406E+00 0.76920486E+03</pdfrwt>
<totfact> 0.30160573E+00</totfact>
</mgrwt>
</event>
<event>
 4    1  0.2731969E-009  0.1074926E+04  0.7818608E-02  0.9229982E-01
          1   -1    0    0  501    0  0.00000000000E+00  0.00000000000E+00  0.18280698970E+04  0.18280698970E+04  0.50400000000E-02 0. -1.
         -1   -1    0    0    0  501 -0.00000000000E+00 -0.00000000000E+00 -0.14589333840E+04  0.14589333840E+04  0.50400000000E-02 0.  1.
    8880022    1    1    2    0    0  0.10262366199E+04 -0.28091250418E+03 -0.10527166912E+04  0.15045522656E+04  0.15294330000E+03 0.  0.
    8880022    1    1    2    0    0 -0.10262366199E+04  0.28091250418E+03  0.14218532041E+04  0.17824510154E+04  0.15294330000E+03 0.  0.
<mgrwt>
<rscale>  0 0.10749256E+04</rscale>
<asrwt>0</asrwt>
<pdfrwt beam="1">  1        1 0.28124152E+00 0.10749256E+04</pdfrwt>
<pdfrwt beam="2">  1       -1 0.22445129E+00 0.10749256E+04</pdfrwt>
<totfact> 0.40054013E-01</totfact>
</mgrwt>
</event>
<event>
 4    1  0.2731969E-009  0.1537749E+03  0.7818608E-02  0.1195910E+00
          1   -1    0    0  501    0  0.00000000000E+00  0.00000000000E+00  0.17921195336E+04  0.17921195337E+04  0.50400000000E-02 0. -1.
         -1   -1    0    0    0  501 -0.00000000000E+00 -0.00000000000E+00 -0.13595927917E+03  0.13595927926E+03  0.50400000000E-02 0.  1.
    8880022    1    1    2    0    0 -0.54207177918E+01 -0.15023090279E+02 -0.87985635740E+02  0.17716715986E+03  0.15294330000E+03 0.  1.
    8880022    1    1    2    0    0  0.54207177918E+01  0.15023090279E+02  0.17441458902E+04  0.17509116531E+04  0.15294330000E+03 0.  0.
<mgrwt>
<rscale>  0 0.15377493E+03</rscale>
<asrwt>0</asrwt>
<pdfrwt beam="1">  1        1 0.27571068E+00 0.15377493E+03</pdfrwt>
<pdfrwt beam="2">  1       -1 0.20916813E-01 0.15377493E+03</pdfrwt>
<totfact> 0.90855269E+01</totfact>
</mgrwt>
</event>
<event>
 4    1  0.2731969E-009  0.7834045E+03  0.7818608E-02  0.9584354E-01
          1   -1    0    0  501    0  0.00000000000E+00  0.00000000000E+00  0.14271982280E+04  0.14271982280E+04  0.50400000000E-02 0. -1.
         -1   -1    0    0    0  501 -0.00000000000E+00 -0.00000000000E+00 -0.67240407841E+03  0.67240407843E+03  0.50400000000E-02 0.  1.
    8880022    1    1    2    0    0 -0.37948024431E+03  0.66807606700E+03 -0.25289914137E+03  0.82321352992E+03  0.15294330000E+03 0.  0.
    8880022    1    1    2    0    0  0.37948024431E+03 -0.66807606700E+03  0.10076932909E+04  0.12763887765E+04  0.15294330000E+03 0. -1.
<mgrwt>
<rscale>  0 0.78340446E+03</rscale>
<asrwt>0</asrwt>
<pdfrwt beam="1">  1        1 0.21956896E+00 0.78340446E+03</pdfrwt>
<pdfrwt beam="2">  1       -1 0.10344678E+00 0.78340446E+03</pdfrwt>
<totfact> 0.67017007E+00</totfact>
</mgrwt>
</event>
<event>
 4    1  0.2731969E-009  0.5427924E+03  0.7818608E-02  0.1003176E+00
         -1   -1    0    0    0  501 -0.00000000000E+00  0.00000000000E+00  0.59335912094E+03  0.59335912096E+03  0.50400000000E-02 0.  1.
          1   -1    0    0  501    0  0.00000000000E+00 -0.00000000000E+00 -0.21320732615E+04  0.21320732615E+04  0.50400000000E-02 0. -1.
    8880022    1    1    2    0    0  0.48779574357E+03 -0.18244781323E+03 -0.19628908478E+04  0.20365569046E+04  0.15294330000E+03 0.  0.
    8880022    1    1    2    0    0 -0.48779574357E+03  0.18244781323E+03  0.42417670729E+03  0.68887547788E+03  0.15294330000E+03 0.  0.
<mgrwt>
<rscale>  0 0.54279236E+03</rscale>
<asrwt>0</asrwt>
<pdfrwt beam="1">  1        1 0.32801127E+00 0.54279236E+03</pdfrwt>
<pdfrwt beam="2">  1       -1 0.91286020E-01 0.54279236E+03</pdfrwt>
<totfact> 0.31350118E+00</totfact>
</mgrwt>
</event>
<event>
 4    1  0.2731969E-009  0.8723631E+03  0.7818608E-02  0.9460804E-01
          1   -1    0    0  501    0  0.00000000000E+00  0.00000000000E+00  0.18568421864E+04  0.18568421864E+04  0.50400000000E-02 0. -1.
         -1   -1    0    0    0  501 -0.00000000000E+00 -0.00000000000E+00 -0.51097241270E+03  0.51097241272E+03  0.50400000000E-02 0.  1.
    8880022    1    1    2    0    0 -0.15832821388E+03  0.84413147705E+03  0.14624680870E+03  0.88453691609E+03  0.15294330000E+03 0.  0.
    8880022    1    1    2    0    0  0.15832821388E+03 -0.84413147705E+03  0.11996229650E+04  0.14832776831E+04  0.15294330000E+03 0.  0.
<mgrwt>
<rscale>  0 0.87236313E+03</rscale>
<asrwt>0</asrwt>
<pdfrwt beam="1">  1        1 0.28566802E+00 0.87236313E+03</pdfrwt>
<pdfrwt beam="2">  1       -1 0.78611142E-01 0.87236313E+03</pdfrwt>
<totfact> 0.61959985E+00</totfact>
</mgrwt>
</event>
<event>
 4    1  0.2731969E-009  0.5443080E+03  0.7818608E-02  0.1002820E+00
         -1   -1    0    0    0  501 -0.00000000000E+00  0.00000000000E+00  0.12794438155E+04  0.12794438155E+04  0.50400000000E-02 0.  1.
          1   -1    0    0  501    0  0.00000000000E+00 -0.00000000000E+00 -0.79570450055E+03  0.79570450056E+03  0.50400000000E-02 0. -1.
    8880022    1    1    2    0    0 -0.51002194400E+03 -0.11294767330E+03 -0.63178028992E+03  0.83391699108E+03  0.15294330000E+03 0.  0.
    8880022    1    1    2    0    0  0.51002194400E+03  0.11294767330E+03  0.11155196049E+04  0.12412313250E+04  0.15294330000E+03 0.  0.
<mgrwt>
<rscale>  0 0.54430801E+03</rscale>
<asrwt>0</asrwt>
<pdfrwt beam="1">  1        1 0.12241608E+00 0.54430801E+03</pdfrwt>
<pdfrwt beam="2">  1       -1 0.19683751E+00 0.54430801E+03</pdfrwt>
<totfact> 0.38101574E+00</totfact>
</mgrwt>
</event>
<event>
 4    1  0.2731969E-009  0.5109674E+03  0.7818608E-02  0.1010955E+00
          1   -1    0    0  501    0  0.00000000000E+00  0.00000000000E+00  0.76044683887E+03  0.76044683888E+03  0.50400000000E-02 0. -1.
         -1   -1    0    0    0  501 -0.00000000000E+00 -0.00000000000E+00 -0.46298968021E+03  0.46298968024E+03  0.50400000000E-02 0.  1.
    8880022    1    1    2    0    0 -0.22243681287E+03 -0.43384081422E+03  0.45970791251E+03  0.68732743699E+03  0.15294330000E+03 0.  0.
    8880022    1    1    2    0    0  0.22243681287E+03  0.43384081422E+03 -0.16225075386E+03  0.53610908213E+03  0.15294330000E+03 0.  0.
<mgrwt>
<rscale>  0 0.51096736E+03</rscale>
<asrwt>0</asrwt>
<pdfrwt beam="1">  1        1 0.11699182E+00 0.51096736E+03</pdfrwt>
<pdfrwt beam="2">  1       -1 0.71229182E-01 0.51096736E+03</pdfrwt>
<totfact> 0.50107518E+01</totfact>
</mgrwt>
</event>
<event>
 4    1  0.2731969E-009  0.6109694E+03  0.7818608E-02  0.9882906E-01
          1   -1    0    0  501    0  0.00000000000E+00  0.00000000000E+00  0.18496451044E+04  0.18496451044E+04  0.50400000000E-02 0. -1.
         -1   -1    0    0    0  501 -0.00000000000E+00 -0.00000000000E+00 -0.28947526606E+03  0.28947526610E+03  0.50400000000E-02 0.  1.
    8880022    1    1    2    0    0  0.18930379888E+03 -0.56040700941E+03  0.19150657822E+03  0.64027991299E+03  0.15294330000E+03 0.  0.
    8880022    1    1    2    0    0 -0.18930379888E+03  0.56040700941E+03  0.13686632601E+04  0.14988404575E+04  0.15294330000E+03 0.  0.
<mgrwt>
<rscale>  0 0.61096939E+03</rscale>
<asrwt>0</asrwt>
<pdfrwt beam="1">  1        1 0.28456079E+00 0.61096939E+03</pdfrwt>
<pdfrwt beam="2">  1       -1 0.44534655E-01 0.61096939E+03</pdfrwt>
<totfact> 0.19981768E+01</totfact>
</mgrwt>
</event>
<event>
 4    1  0.2731969E-009  0.5539576E+03  0.7818608E-02  0.1000582E+00
         -1   -1    0    0    0  501 -0.00000000000E+00  0.00000000000E+00  0.24867215331E+03  0.24867215336E+03  0.50400000000E-02 0.  1.
          1   -1    0    0  501    0  0.00000000000E+00 -0.00000000000E+00 -0.24966270218E+04  0.24966270218E+04  0.50400000000E-02 0. -1.
    8880022    1    1    2    0    0 -0.50350708771E+03 -0.17308380602E+03 -0.14783064699E+03  0.57334365304E+03  0.15294330000E+03 0.  0.
    8880022    1    1    2    0    0  0.50350708771E+03  0.17308380602E+03 -0.21001242215E+04  0.21719555221E+04  0.15294330000E+03 0.  0.
<mgrwt>
<rscale>  0 0.55395762E+03</rscale>
<asrwt>0</asrwt>
<pdfrwt beam="1">  1        1 0.38409645E+00 0.55395762E+03</pdfrwt>
<pdfrwt beam="2">  1       -1 0.38257256E-01 0.55395762E+03</pdfrwt>
<totfact> 0.98493945E+00</totfact>
</mgrwt>
</event>
<event>
 4    1  0.2731969E-009  0.5056466E+03  0.7818608E-02  0.1012316E+00
          1   -1    0    0  501    0  0.00000000000E+00  0.00000000000E+00  0.25113735069E+04  0.25113735069E+04  0.50400000000E-02 0. -1.
         -1   -1    0    0    0  501 -0.00000000000E+00 -0.00000000000E+00 -0.28110477470E+03  0.28110477475E+03  0.50400000000E-02 0.  1.
    8880022    1    1    2    0    0  0.39100168821E+02  0.48037272827E+03  0.39837216856E-01  0.50564655232E+03  0.15294330000E+03 0.  0.
    8880022    1    1    2    0    0 -0.39100168821E+02 -0.48037272827E+03  0.22302288950E+04  0.22868317293E+04  0.15294330000E+03 0.  0.
<mgrwt>
<rscale>  0 0.50564655E+03</rscale>
<asrwt>0</asrwt>
<pdfrwt beam="1">  1        1 0.38636515E+00 0.50564655E+03</pdfrwt>
<pdfrwt beam="2">  1       -1 0.43246889E-01 0.50564655E+03</pdfrwt>
<totfact> 0.77983837E+00</totfact>
</mgrwt>
</event>
<event>
 4    1  0.2731969E-009  0.9152901E+03  0.7818608E-02  0.9406667E-01
         -1   -1    0    0    0  501 -0.00000000000E+00  0.00000000000E+00  0.37958702938E+04  0.37958702938E+04  0.50400000000E-02 0.  1.
          1   -1    0    0  501    0  0.00000000000E+00 -0.00000000000E+00 -0.40932675452E+03  0.40932675455E+03  0.50400000000E-02 0. -1.
    8880022    1    1    2    0    0  0.61590931908E+03  0.65956041072E+03  0.26595384330E+03  0.95314601426E+03  0.15294330000E+03 0.  0.
    8880022    1    1    2    0    0 -0.61590931908E+03 -0.65956041072E+03  0.31205896960E+04  0.32520510341E+04  0.15294330000E+03 0.  0.
<mgrwt>
<rscale>  0 0.91529005E+03</rscale>
<asrwt>0</asrwt>
<pdfrwt beam="1">  1        1 0.62973347E-01 0.91529005E+03</pdfrwt>
<pdfrwt beam="2">  1       -1 0.58398005E+00 0.91529005E+03</pdfrwt>
<totfact> 0.29993061E-02</totfact>
</mgrwt>
</event>
<event>
 4    1  0.2731969E-009  0.8596416E+03  0.7818608E-02  0.9477487E-01
         -1   -1    0    0    0  501 -0.00000000000E+00  0.00000000000E+00  0.24821738360E+04  0.24821738360E+04  0.50400000000E-02 0.  1.
          1   -1    0    0  501    0  0.00000000000E+00 -0.00000000000E+00 -0.85114433795E+03  0.85114433797E+03  0.50400000000E-02 0. -1.
    8880022    1    1    2    0    0  0.83103357228E+03  0.15803530324E+03 -0.52841245933E+03  0.10090606203E+04  0.15294330000E+03 0. -1.
    8880022    1    1    2    0    0 -0.83103357228E+03 -0.15803530324E+03  0.21594419574E+04  0.23242575537E+04  0.15294330000E+03 0.  0.
<mgrwt>
<rscale>  0 0.85964156E+03</rscale>
<asrwt>0</asrwt>
<pdfrwt beam="1">  1        1 0.13094528E+00 0.85964156E+03</pdfrwt>
<pdfrwt beam="2">  1       -1 0.38187289E+00 0.85964156E+03</pdfrwt>
<totfact> 0.19962534E-01</totfact>
</mgrwt>
</event>
<event>
 4    1  0.2731969E-009  0.1203968E+04  0.7818608E-02  0.9109390E-01
          1   -1    0    0  501    0  0.00000000000E+00  0.00000000000E+00  0.10231236363E+04  0.10231236363E+04  0.50400000000E-02 0. -1.
         -1   -1    0    0    0  501 -0.00000000000E+00 -0.00000000000E+00 -0.21717532752E+04  0.21717532752E+04  0.50400000000E-02 0.  1.
    8880022    1    1    2    0    0 -0.81850447582E+03 -0.86959666289E+03 -0.15161721213E+04  0.19360572015E+04  0.15294330000E+03 0.  0.
    8880022    1    1    2    0    0  0.81850447582E+03  0.86959666289E+03  0.36754248237E+03  0.12588197101E+04  0.15294330000E+03 0.  0.
<mgrwt>
<rscale>  0 0.12039683E+04</rscale>
<asrwt>0</asrwt>
<pdfrwt beam="1">  1        1 0.15740364E+00 0.12039683E+04</pdfrwt>
<pdfrwt beam="2">  1       -1 0.33411589E+00 0.12039683E+04</pdfrwt>
<totfact> 0.28348639E-01</totfact>
</mgrwt>
</event>
<event>
 4    1  0.2731969E-009  0.1339664E+04  0.7818608E-02  0.8998690E-01
         -1   -1    0    0    0  501 -0.00000000000E+00  0.00000000000E+00  0.45367336184E+04  0.45367336184E+04  0.50400000000E-02 0.  1.
          1   -1    0    0  501    0  0.00000000000E+00 -0.00000000000E+00 -0.69984240637E+03  0.69984240639E+03  0.50400000000E-02 0. -1.
    8880022    1    1    2    0    0 -0.13241994033E+04  0.13342691753E+03  0.36448097714E+04  0.38832121658E+04  0.15294330000E+03 0.  0.
    8880022    1    1    2    0    0  0.13241994033E+04 -0.13342691753E+03  0.19208144061E+03  0.13533638590E+04  0.15294330000E+03 0.  0.
<mgrwt>
<rscale>  0 0.13396636E+04</rscale>
<asrwt>0</asrwt>
<pdfrwt beam="1">  1        1 0.10766806E+00 0.13396636E+04</pdfrwt>
<pdfrwt beam="2">  1       -1 0.69795903E+00 0.13396636E+04</pdfrwt>
<totfact> 0.53146221E-03</totfact>
</mgrwt>
</event>
<event>
 4    1  0.2731969E-009  0.4549187E+03  0.7818608E-02  0.1026265E+00
          1   -1    0    0  501    0  0.00000000000E+00  0.00000000000E+00  0.81796082117E+03  0.81796082119E+03  0.50400000000E-02 0. -1.
         -1   -1    0    0    0  501 -0.00000000000E+00 -0.00000000000E+00 -0.13524878595E+04  0.13524878595E+04  0.50400000000E-02 0.  1.
    8880022    1    1    2    0    0  0.31402027848E+03 -0.29146295345E+03 -0.12457309590E+04  0.13261963142E+04  0.15294330000E+03 0.  0.
    8880022    1    1    2    0    0 -0.31402027848E+03  0.29146295345E+03  0.71120392068E+03  0.84425236650E+03  0.15294330000E+03 0.  0.
<mgrwt>
<rscale>  0 0.45491872E+03</rscale>
<asrwt>0</asrwt>
<pdfrwt beam="1">  1        1 0.12584013E+00 0.45491872E+03</pdfrwt>
<pdfrwt beam="2">  1       -1 0.20807506E+00 0.45491872E+03</pdfrwt>
<totfact> 0.31318164E+00</totfact>
</mgrwt>
</event>
<event>
 4    1  0.2731969E-009  0.5339817E+03  0.7818608E-02  0.1005271E+00
         -1   -1    0    0    0  501 -0.00000000000E+00  0.00000000000E+00  0.53348024131E+03  0.53348024134E+03  0.50400000000E-02 0.  1.
          1   -1    0    0  501    0  0.00000000000E+00 -0.00000000000E+00 -0.13003109269E+04  0.13003109269E+04  0.50400000000E-02 0. -1.
    8880022    1    1    2    0    0  0.47962223515E+03 -0.17806558129E+03  0.32024273337E+03  0.62264909940E+03  0.15294330000E+03 0.  0.
    8880022    1    1    2    0    0 -0.47962223515E+03  0.17806558129E+03 -0.10870734189E+04  0.12111420688E+04  0.15294330000E+03 0. -1.
<mgrwt>
<rscale>  0 0.53398173E+03</rscale>
<asrwt>0</asrwt>
<pdfrwt beam="1">  1        1 0.20004783E+00 0.53398173E+03</pdfrwt>
<pdfrwt beam="2">  1       -1 0.82073884E-01 0.53398173E+03</pdfrwt>
<totfact> 0.14302888E+01</totfact>
</mgrwt>
</event>
<event>
 4    1  0.2731969E-009  0.6646538E+03  0.7818608E-02  0.9779664E-01
          1   -1    0    0  501    0  0.00000000000E+00  0.00000000000E+00  0.16248170887E+04  0.16248170887E+04  0.50400000000E-02 0. -1.
         -1   -1    0    0    0  501 -0.00000000000E+00 -0.00000000000E+00 -0.14897682074E+04  0.14897682074E+04  0.50400000000E-02 0.  1.
    8880022    1    1    2    0    0  0.63041410574E+03  0.14474471902E+03 -0.13405109400E+04  0.14962400247E+04  0.15294330000E+03 0.  0.
    8880022    1    1    2    0    0 -0.63041410574E+03 -0.14474471902E+03  0.14755598212E+04  0.16183452714E+04  0.15294330000E+03 0.  0.
<mgrwt>
<rscale>  0 0.66465377E+03</rscale>
<asrwt>0</asrwt>
<pdfrwt beam="1">  1        1 0.24997186E+00 0.66465377E+03</pdfrwt>
<pdfrwt beam="2">  1       -1 0.22919511E+00 0.66465377E+03</pdfrwt>
<totfact> 0.55507235E-01</totfact>
</mgrwt>
</event>
<event>
 4    1  0.2731969E-009  0.6323659E+03  0.7818608E-02  0.9840443E-01
         -1   -1    0    0    0  501 -0.00000000000E+00  0.00000000000E+00  0.11564148046E+04  0.11564148046E+04  0.50400000000E-02 0.  1.
          1   -1    0    0  501    0  0.00000000000E+00 -0.00000000000E+00 -0.12689851393E+04  0.12689851393E+04  0.50400000000E-02 0. -1.
    8880022    1    1    2    0    0 -0.48508629722E+03  0.37574764047E+03  0.97807032185E+03  0.11646923253E+04  0.15294330000E+03 0.  0.
    8880022    1    1    2    0    0  0.48508629722E+03 -0.37574764047E+03 -0.10906406565E+04  0.12607076186E+04  0.15294330000E+03 0.  0.
<mgrwt>
<rscale>  0 0.63236592E+03</rscale>
<asrwt>0</asrwt>
<pdfrwt beam="1">  1        1 0.19522848E+00 0.63236592E+03</pdfrwt>
<pdfrwt beam="2">  1       -1 0.17790997E+00 0.63236592E+03</pdfrwt>
<totfact> 0.21942672E+00</totfact>
</mgrwt>
</event>
<event>
 4    1  0.2731969E-009  0.5824807E+03  0.7818608E-02  0.9942435E-01
         -1   -1    0    0    0  501 -0.00000000000E+00  0.00000000000E+00  0.22003190638E+03  0.22003190644E+03  0.50400000000E-02 0.  1.
          1   -1    0    0  501    0  0.00000000000E+00 -0.00000000000E+00 -0.30999167171E+04  0.30999167171E+04  0.50400000000E-02 0. -1.
    8880022    1    1    2    0    0 -0.45530236490E+03  0.32953279432E+03 -0.26167403996E+04  0.26807860932E+04  0.15294330000E+03 0.  0.
    8880022    1    1    2    0    0  0.45530236490E+03 -0.32953279432E+03 -0.26314441118E+03  0.63916253032E+03  0.15294330000E+03 0.  0.
<mgrwt>
<rscale>  0 0.58248069E+03</rscale>
<asrwt>0</asrwt>
<pdfrwt beam="1">  1        1 0.47691023E+00 0.58248069E+03</pdfrwt>
<pdfrwt beam="2">  1       -1 0.33851065E-01 0.58248069E+03</pdfrwt>
<totfact> 0.46143635E+00</totfact>
</mgrwt>
</event>
<event>
 4    1  0.2731969E-009  0.6233537E+03  0.7818608E-02  0.9858105E-01
          1   -1    0    0  501    0  0.00000000000E+00  0.00000000000E+00  0.32364579524E+04  0.32364579524E+04  0.50400000000E-02 0. -1.
         -1   -1    0    0    0  501 -0.00000000000E+00 -0.00000000000E+00 -0.59683285247E+03  0.59683285249E+03  0.50400000000E-02 0.  1.
    8880022    1    1    2    0    0 -0.42037655323E+03  0.43412178275E+03 -0.39324153557E+03  0.73702695139E+03  0.15294330000E+03 0.  0.
    8880022    1    1    2    0    0  0.42037655323E+03 -0.43412178275E+03  0.30328666355E+04  0.30962638535E+04  0.15294330000E+03 0.  0.
<mgrwt>
<rscale>  0 0.62335369E+03</rscale>
<asrwt>0</asrwt>
<pdfrwt beam="1">  1        1 0.49791660E+00 0.62335369E+03</pdfrwt>
<pdfrwt beam="2">  1       -1 0.91820440E-01 0.62335369E+03</pdfrwt>
<totfact> 0.51923582E-01</totfact>
</mgrwt>
</event>
<event>
 4    1  0.2731969E-009  0.7147785E+03  0.7818608E-02  0.9692287E-01
          1   -1    0    0  501    0  0.00000000000E+00  0.00000000000E+00  0.13774022582E+04  0.13774022582E+04  0.50400000000E-02 0. -1.
         -1   -1    0    0    0  501 -0.00000000000E+00 -0.00000000000E+00 -0.40974653327E+03  0.40974653330E+03  0.50400000000E-02 0.  1.
    8880022    1    1    2    0    0 -0.49802177106E+03  0.48937821533E+03  0.20876755689E+03  0.74464237585E+03  0.15294330000E+03 0.  0.
    8880022    1    1    2    0    0  0.49802177106E+03 -0.48937821533E+03  0.75888816805E+03  0.10425064157E+04  0.15294330000E+03 0.  0.
<mgrwt>
<rscale>  0 0.71477855E+03</rscale>
<asrwt>0</asrwt>
<pdfrwt beam="1">  1        1 0.21190804E+00 0.71477855E+03</pdfrwt>
<pdfrwt beam="2">  1       -1 0.63037929E-01 0.71477855E+03</pdfrwt>
<totfact> 0.21106548E+01</totfact>
</mgrwt>
</event>
<event>
 4    1  0.2731969E-009  0.1382716E+04  0.7818608E-02  0.8966425E-01
         -1   -1    0    0    0  501 -0.00000000000E+00  0.00000000000E+00  0.13161812645E+04  0.13161812645E+04  0.50400000000E-02 0.  1.
          1   -1    0    0  501    0  0.00000000000E+00 -0.00000000000E+00 -0.15723900420E+04  0.15723900420E+04  0.50400000000E-02 0. -1.
    8880022    1    1    2    0    0  0.10496519062E+04  0.88698588773E+03 -0.52672154838E+03  0.14796419607E+04  0.15294330000E+03 0.  0.
    8880022    1    1    2    0    0 -0.10496519062E+04 -0.88698588773E+03  0.27051277089E+03  0.14089293458E+04  0.15294330000E+03 0.  0.
<mgrwt>
<rscale>  0 0.13827164E+04</rscale>
<asrwt>0</asrwt>
<pdfrwt beam="1">  1        1 0.24190616E+00 0.13827164E+04</pdfrwt>
<pdfrwt beam="2">  1       -1 0.20248943E+00 0.13827164E+04</pdfrwt>
<totfact> 0.80880359E-01</totfact>
</mgrwt>
</event>
<event>
 4    1  0.2731969E-009  0.9920374E+03  0.7818608E-02  0.9317321E-01
          1   -1    0    0  501    0  0.00000000000E+00  0.00000000000E+00  0.28129933686E+04  0.28129933686E+04  0.50400000000E-02 0. -1.
         -1   -1    0    0    0  501 -0.00000000000E+00 -0.00000000000E+00 -0.40871976790E+03  0.40871976793E+03  0.50400000000E-02 0.  1.
    8880022    1    1    2    0    0  0.97354711212E+03  0.11380977109E+03  0.59080958011E+03  0.11546403148E+04  0.15294330000E+03 0.  0.
    8880022    1    1    2    0    0 -0.97354711212E+03 -0.11380977109E+03  0.18134640206E+04  0.20670728218E+04  0.15294330000E+03 0.  0.
<mgrwt>
<rscale>  0 0.99203745E+03</rscale>
<asrwt>0</asrwt>
<pdfrwt beam="1">  1        1 0.43276822E+00 0.99203745E+03</pdfrwt>
<pdfrwt beam="2">  1       -1 0.62879964E-01 0.99203745E+03</pdfrwt>
<totfact> 0.21464295E+00</totfact>
</mgrwt>
</event>
<event>
 4    1  0.2731969E-009  0.4733529E+03  0.7818608E-02  0.1020978E+00
          1   -1    0    0  501    0  0.00000000000E+00  0.00000000000E+00  0.24684697398E+04  0.24684697398E+04  0.50400000000E-02 0. -1.
         -1   -1    0    0    0  501 -0.00000000000E+00 -0.00000000000E+00 -0.40052916699E+03  0.40052916703E+03  0.50400000000E-02 0.  1.
    8880022    1    1    2    0    0 -0.37092902177E+03  0.25116320208E+03 -0.22755340808E+03  0.52520805384E+03  0.15294330000E+03 0.  0.
    8880022    1    1    2    0    0  0.37092902177E+03 -0.25116320208E+03  0.22954939809E+04  0.23437908530E+04  0.15294330000E+03 0.  0.
<mgrwt>
<rscale>  0 0.47335288E+03</rscale>
<asrwt>0</asrwt>
<pdfrwt beam="1">  1        1 0.37976457E+00 0.47335288E+03</pdfrwt>
<pdfrwt beam="2">  1       -1 0.61619873E-01 0.47335288E+03</pdfrwt>
<totfact> 0.43037042E+00</totfact>
</mgrwt>
</event>
<event>
 4    1  0.2731969E-009  0.6560708E+03  0.7818608E-02  0.9795454E-01
          1   -1    0    0  501    0  0.00000000000E+00  0.00000000000E+00  0.28476624934E+04  0.28476624934E+04  0.50400000000E-02 0. -1.
         -1   -1    0    0    0  501 -0.00000000000E+00 -0.00000000000E+00 -0.39530252049E+03  0.39530252053E+03  0.50400000000E-02 0.  1.
    8880022    1    1    2    0    0 -0.52462508253E+03 -0.36305067088E+03  0.25004944239E+04  0.25851308060E+04  0.15294330000E+03 0.  0.
    8880022    1    1    2    0    0  0.52462508253E+03  0.36305067088E+03 -0.48134450980E+02  0.65783420801E+03  0.15294330000E+03 0.  0.
<mgrwt>
<rscale>  0 0.65607082E+03</rscale>
<asrwt>0</asrwt>
<pdfrwt beam="1">  1        1 0.43810192E+00 0.65607082E+03</pdfrwt>
<pdfrwt beam="2">  1       -1 0.60815773E-01 0.65607082E+03</pdfrwt>
<totfact> 0.23088113E+00</totfact>
</mgrwt>
</event>
<event>
 4    1  0.2731969E-009  0.2034964E+03  0.7818608E-02  0.1146822E+00
          1   -1    0    0  501    0  0.00000000000E+00  0.00000000000E+00  0.10248084326E+04  0.10248084326E+04  0.50400000000E-02 0. -1.
         -1   -1    0    0    0  501 -0.00000000000E+00 -0.00000000000E+00 -0.54157512172E+03  0.54157512174E+03  0.50400000000E-02 0.  1.
    8880022    1    1    2    0    0 -0.77250251171E+02  0.10977955078E+03 -0.51179078749E+03  0.55076366461E+03  0.15294330000E+03 0.  0.
    8880022    1    1    2    0    0  0.77250251171E+02 -0.10977955078E+03  0.99502409840E+03  0.10156198898E+04  0.15294330000E+03 0.  0.
<mgrwt>
<rscale>  0 0.20349645E+03</rscale>
<asrwt>0</asrwt>
<pdfrwt beam="1">  1        1 0.15766284E+00 0.20349645E+03</pdfrwt>
<pdfrwt beam="2">  1       -1 0.83319249E-01 0.20349645E+03</pdfrwt>
<totfact> 0.24011120E+01</totfact>
</mgrwt>
</event>
<event>
 4    1  0.2731969E-009  0.8138872E+03  0.7818608E-02  0.9540131E-01
          1   -1    0    0  501    0  0.00000000000E+00  0.00000000000E+00  0.80939900400E+03  0.80939900402E+03  0.50400000000E-02 0. -1.
         -1   -1    0    0    0  501 -0.00000000000E+00 -0.00000000000E+00 -0.23197812519E+04  0.23197812519E+04  0.50400000000E-02 0.  1.
    8880022    1    1    2    0    0  0.46840839859E+03  0.64777647876E+03  0.50350967752E+03  0.95704463986E+03  0.15294330000E+03 0.  0.
    8880022    1    1    2    0    0 -0.46840839859E+03 -0.64777647876E+03 -0.20138919254E+04  0.21721356161E+04  0.15294330000E+03 0.  0.
<mgrwt>
<rscale>  0 0.81388724E+03</rscale>
<asrwt>0</asrwt>
<pdfrwt beam="1">  1        1 0.12452293E+00 0.81388724E+03</pdfrwt>
<pdfrwt beam="2">  1       -1 0.35688942E+00 0.81388724E+03</pdfrwt>
<totfact> 0.32061727E-01</totfact>
</mgrwt>
</event>
<event>
 4    1  0.2731969E-009  0.3594348E+03  0.7818608E-02  0.1058808E+00
          1   -1    0    0  501    0  0.00000000000E+00  0.00000000000E+00  0.92167900472E+02  0.92167900610E+02  0.50400000000E-02 0. -1.
         -1   -1    0    0    0  501 -0.00000000000E+00 -0.00000000000E+00 -0.17159713206E+04  0.17159713206E+04  0.50400000000E-02 0.  1.
    8880022    1    1    2    0    0 -0.19821374485E+03  0.25790120567E+03 -0.11987912906E+04  0.12515166527E+04  0.15294330000E+03 0.  0.
    8880022    1    1    2    0    0  0.19821374485E+03 -0.25790120567E+03 -0.42501212953E+03  0.55662256853E+03  0.15294330000E+03 0.  0.
<mgrwt>
<rscale>  0 0.35943480E+03</rscale>
<asrwt>0</asrwt>
<pdfrwt beam="1">  1        1 0.14179678E-01 0.35943480E+03</pdfrwt>
<pdfrwt beam="2">  1       -1 0.26399556E+00 0.35943480E+03</pdfrwt>
<totfact> 0.25606889E+01</totfact>
</mgrwt>
</event>
<event>
 4    1  0.2731969E-009  0.5686214E+03  0.7818608E-02  0.9972734E-01
          1   -1    0    0  501    0  0.00000000000E+00  0.00000000000E+00  0.14640839500E+04  0.14640839500E+04  0.50400000000E-02 0. -1.
         -1   -1    0    0    0  501 -0.00000000000E+00 -0.00000000000E+00 -0.44367196636E+03  0.44367196639E+03  0.50400000000E-02 0.  1.
    8880022    1    1    2    0    0 -0.30534478763E+03  0.45464625310E+03  0.11862099343E+04  0.13154559347E+04  0.15294330000E+03 0.  0.
    8880022    1    1    2    0    0  0.30534478763E+03 -0.45464625310E+03 -0.16579795074E+03  0.59229998166E+03  0.15294330000E+03 0.  0.
<mgrwt>
<rscale>  0 0.56862141E+03</rscale>
<asrwt>0</asrwt>
<pdfrwt beam="1">  1        1 0.22524368E+00 0.56862141E+03</pdfrwt>
<pdfrwt beam="2">  1       -1 0.68257227E-01 0.56862141E+03</pdfrwt>
<totfact> 0.16045031E+01</totfact>
</mgrwt>
</event>
<event>
 4    1  0.2731969E-009  0.6707947E+03  0.7818608E-02  0.9768523E-01
         -1   -1    0    0    0  501 -0.00000000000E+00  0.00000000000E+00  0.36557575394E+03  0.36557575398E+03  0.50400000000E-02 0.  1.
          1   -1    0    0  501    0  0.00000000000E+00 -0.00000000000E+00 -0.31007191017E+04  0.31007191017E+04  0.50400000000E-02 0. -1.
    8880022    1    1    2    0    0  0.24871055781E+03 -0.60391797763E+03 -0.21677302753E+02  0.67114486048E+03  0.15294330000E+03 0.  0.
    8880022    1    1    2    0    0 -0.24871055781E+03  0.60391797763E+03 -0.27134660450E+04  0.27951499952E+04  0.15294330000E+03 0.  0.
<mgrwt>
<rscale>  0 0.67079469E+03</rscale>
<asrwt>0</asrwt>
<pdfrwt beam="1">  1        1 0.47703369E+00 0.67079469E+03</pdfrwt>
<pdfrwt beam="2">  1       -1 0.56242426E-01 0.67079469E+03</pdfrwt>
<totfact> 0.17691626E+00</totfact>
</mgrwt>
</event>
<event>
 4    1  0.2731969E-009  0.4704638E+03  0.7818608E-02  0.1021789E+00
         -1   -1    0    0    0  501 -0.00000000000E+00  0.00000000000E+00  0.68992457597E+03  0.68992457599E+03  0.50400000000E-02 0.  1.
          1   -1    0    0  501    0  0.00000000000E+00 -0.00000000000E+00 -0.12686879550E+04  0.12686879550E+04  0.50400000000E-02 0. -1.
    8880022    1    1    2    0    0 -0.25082493151E+03 -0.36746621303E+03  0.55709856812E+03  0.72917421210E+03  0.15294330000E+03 0.  0.
    8880022    1    1    2    0    0  0.25082493151E+03  0.36746621303E+03 -0.11358619472E+04  0.12294383189E+04  0.15294330000E+03 0.  0.
<mgrwt>
<rscale>  0 0.47046383E+03</rscale>
<asrwt>0</asrwt>
<pdfrwt beam="1">  1        1 0.19518276E+00 0.47046383E+03</pdfrwt>
<pdfrwt beam="2">  1       -1 0.10614224E+00 0.47046383E+03</pdfrwt>
<totfact> 0.86414906E+00</totfact>
</mgrwt>
</event>
<event>
 4    1  0.2731969E-009  0.2509647E+03  0.7818608E-02  0.1112697E+00
         -1   -1    0    0    0  501 -0.00000000000E+00  0.00000000000E+00  0.69315944155E+03  0.69315944157E+03  0.50400000000E-02 0.  1.
          1   -1    0    0  501    0  0.00000000000E+00 -0.00000000000E+00 -0.55038385421E+03  0.55038385423E+03  0.50400000000E-02 0. -1.
    8880022    1    1    2    0    0  0.17195536928E+03 -0.10011485258E+03 -0.49674542208E+03  0.55654227162E+03  0.15294330000E+03 0.  0.
    8880022    1    1    2    0    0 -0.17195536928E+03  0.10011485258E+03  0.63952100942E+03  0.68700102418E+03  0.15294330000E+03 0.  1.
<mgrwt>
<rscale>  0 0.25096471E+03</rscale>
<asrwt>0</asrwt>
<pdfrwt beam="1">  1        1 0.84674438E-01 0.25096471E+03</pdfrwt>
<pdfrwt beam="2">  1       -1 0.10663991E+00 0.25096471E+03</pdfrwt>
<totfact> 0.35270822E+01</totfact>
</mgrwt>
</event>
<event>
 4    1  0.2731969E-009  0.2203013E+03  0.7818608E-02  0.1133659E+00
         -1   -1    0    0    0  501 -0.00000000000E+00  0.00000000000E+00  0.11731039607E+04  0.11731039607E+04  0.50400000000E-02 0.  1.
          1   -1    0    0  501    0  0.00000000000E+00 -0.00000000000E+00 -0.78082267336E+03  0.78082267337E+03  0.50400000000E-02 0. -1.
    8880022    1    1    2    0    0  0.15162438334E+03 -0.46379685702E+02  0.11468699860E+04  0.11678370806E+04  0.15294330000E+03 0.  0.
    8880022    1    1    2    0    0 -0.15162438334E+03  0.46379685702E+02 -0.75458869871E+03  0.78608955349E+03  0.15294330000E+03 0. -1.
<mgrwt>
<rscale>  0 0.22030134E+03</rscale>
<asrwt>0</asrwt>
<pdfrwt beam="1">  1        1 0.12012657E+00 0.22030134E+03</pdfrwt>
<pdfrwt beam="2">  1       -1 0.18047753E+00 0.22030134E+03</pdfrwt>
<totfact> 0.56721067E+00</totfact>
</mgrwt>
</event>
<event>
 4    1  0.2731969E-009  0.1325826E+04  0.7818608E-02  0.9009332E-01
         -1   -1    0    0    0  501 -0.00000000000E+00  0.00000000000E+00  0.71938634666E+03  0.71938634668E+03  0.50400000000E-02 0.  1.
          1   -1    0    0  501    0  0.00000000000E+00 -0.00000000000E+00 -0.35098732888E+04  0.35098732888E+04  0.50400000000E-02 0. -1.
    8880022    1    1    2    0    0  0.12040829198E+04  0.53348651053E+03 -0.22965625312E+03  0.13455694639E+04  0.15294330000E+03 0.  0.
    8880022    1    1    2    0    0 -0.12040829198E+04 -0.53348651053E+03 -0.25608306890E+04  0.28836901715E+04  0.15294330000E+03 0.  0.
<mgrwt>
<rscale>  0 0.13258262E+04</rscale>
<asrwt>0</asrwt>
<pdfrwt beam="1">  1        1 0.53998050E+00 0.13258262E+04</pdfrwt>
<pdfrwt beam="2">  1       -1 0.11067482E+00 0.13258262E+04</pdfrwt>
<totfact> 0.18176165E-01</totfact>
</mgrwt>
</event>
<event>
 4    1  0.2731969E-009  0.7901320E+03  0.7818608E-02  0.9574412E-01
         -1   -1    0    0    0  501 -0.00000000000E+00  0.00000000000E+00  0.18335113324E+04  0.18335113324E+04  0.50400000000E-02 0.  1.
          1   -1    0    0  501    0  0.00000000000E+00 -0.00000000000E+00 -0.67198661432E+03  0.67198661434E+03  0.50400000000E-02 0. -1.
    8880022    1    1    2    0    0 -0.33528694769E+03  0.69892739851E+03  0.14606303047E+04  0.16606472791E+04  0.15294330000E+03 0.  0.
    8880022    1    1    2    0    0  0.33528694769E+03 -0.69892739851E+03 -0.29910558658E+03  0.84485066765E+03  0.15294330000E+03 0. -1.
<mgrwt>
<rscale>  0 0.79013195E+03</rscale>
<asrwt>0</asrwt>
<pdfrwt beam="1">  1        1 0.10338256E+00 0.79013195E+03</pdfrwt>
<pdfrwt beam="2">  1       -1 0.28207866E+00 0.79013195E+03</pdfrwt>
<totfact> 0.13065779E+00</totfact>
</mgrwt>
</event>
<event>
 4    1  0.2731969E-009  0.7383313E+03  0.7818608E-02  0.9653837E-01
          1   -1    0    0  501    0  0.00000000000E+00  0.00000000000E+00  0.28292626191E+03  0.28292626195E+03  0.50400000000E-02 0. -1.
         -1   -1    0    0    0  501 -0.00000000000E+00 -0.00000000000E+00 -0.20562913100E+04  0.20562913100E+04  0.50400000000E-02 0.  1.
    8880022    1    1    2    0    0 -0.70727308131E+03  0.14664992744E+03 -0.11802266988E+04  0.13921451527E+04  0.15294330000E+03 0.  0.
    8880022    1    1    2    0    0  0.70727308131E+03 -0.14664992744E+03 -0.59313834926E+03  0.94707241916E+03  0.15294330000E+03 0.  0.
<mgrwt>
<rscale>  0 0.73833127E+03</rscale>
<asrwt>0</asrwt>
<pdfrwt beam="1">  1        1 0.43527118E-01 0.73833127E+03</pdfrwt>
<pdfrwt beam="2">  1       -1 0.31635250E+00 0.73833127E+03</pdfrwt>
<totfact> 0.25778177E+00</totfact>
</mgrwt>
</event>
<event>
 4    1  0.2731969E-009  0.2665023E+03  0.7818608E-02  0.1103298E+00
         -1   -1    0    0    0  501 -0.00000000000E+00  0.00000000000E+00  0.11564286756E+04  0.11564286757E+04  0.50400000000E-02 0.  1.
          1   -1    0    0  501    0  0.00000000000E+00 -0.00000000000E+00 -0.19119750211E+04  0.19119750211E+04  0.50400000000E-02 0. -1.
    8880022    1    1    2    0    0 -0.21574051714E+03 -0.32982627815E+02 -0.18871331825E+04  0.19058581075E+04  0.15294330000E+03 0.  0.
    8880022    1    1    2    0    0  0.21574051714E+03  0.32982627815E+02  0.11315868370E+04  0.11625455893E+04  0.15294330000E+03 0.  1.
<mgrwt>
<rscale>  0 0.26650230E+03</rscale>
<asrwt>0</asrwt>
<pdfrwt beam="1">  1        1 0.29415000E+00 0.26650230E+03</pdfrwt>
<pdfrwt beam="2">  1       -1 0.17791210E+00 0.26650230E+03</pdfrwt>
<totfact> 0.93251672E-01</totfact>
</mgrwt>
</event>
<event>
 4    1  0.2731969E-009  0.3754368E+03  0.7818608E-02  0.1052633E+00
          1   -1    0    0  501    0  0.00000000000E+00  0.00000000000E+00  0.13373871110E+04  0.13373871110E+04  0.50400000000E-02 0. -1.
         -1   -1    0    0    0  501 -0.00000000000E+00 -0.00000000000E+00 -0.44142804797E+03  0.44142804800E+03  0.50400000000E-02 0.  1.
    8880022    1    1    2    0    0 -0.34275639575E+03  0.88969524884E+01  0.12239807793E+04  0.12802662628E+04  0.15294330000E+03 0. -1.
    8880022    1    1    2    0    0  0.34275639575E+03 -0.88969524884E+01 -0.32802171624E+03  0.49854889623E+03  0.15294330000E+03 0.  0.
<mgrwt>
<rscale>  0 0.37543675E+03</rscale>
<asrwt>0</asrwt>
<pdfrwt beam="1">  1        1 0.20575186E+00 0.37543675E+03</pdfrwt>
<pdfrwt beam="2">  1       -1 0.67912007E-01 0.37543675E+03</pdfrwt>
<totfact> 0.20653162E+01</totfact>
</mgrwt>
</event>
<event>
 4    1  0.2731969E-009  0.8497162E+03  0.7818608E-02  0.9490718E-01
          1   -1    0    0  501    0  0.00000000000E+00  0.00000000000E+00  0.28641209768E+04  0.28641209768E+04  0.50400000000E-02 0. -1.
         -1   -1    0    0    0  501 -0.00000000000E+00 -0.00000000000E+00 -0.84845552886E+03  0.84845552887E+03  0.50400000000E-02 0.  1.
    8880022    1    1    2    0    0 -0.72255798466E+03  0.42016175383E+03  0.25641099801E+04  0.27012363065E+04  0.15294330000E+03 0.  0.
    8880022    1    1    2    0    0  0.72255798466E+03 -0.42016175383E+03 -0.54844453216E+03  0.10113401992E+04  0.15294330000E+03 0.  0.
<mgrwt>
<rscale>  0 0.84971618E+03</rscale>
<asrwt>0</asrwt>
<pdfrwt beam="1">  1        1 0.44063401E+00 0.84971618E+03</pdfrwt>
<pdfrwt beam="2">  1       -1 0.13053162E+00 0.84971618E+03</pdfrwt>
<totfact> 0.39733187E-01</totfact>
</mgrwt>
</event>
<event>
 4    1  0.2731969E-009  0.8353965E+03  0.7818608E-02  0.9510150E-01
         -1   -1    0    0    0  501 -0.00000000000E+00  0.00000000000E+00  0.51899331714E+03  0.51899331717E+03  0.50400000000E-02 0.  1.
          1   -1    0    0  501    0  0.00000000000E+00 -0.00000000000E+00 -0.21991278337E+04  0.21991278337E+04  0.50400000000E-02 0. -1.
    8880022    1    1    2    0    0 -0.38972943300E+03 -0.72291535715E+03  0.70679796759E+01  0.83542639047E+03  0.15294330000E+03 0.  0.
    8880022    1    1    2    0    0  0.38972943300E+03  0.72291535715E+03 -0.16872024963E+04  0.18826947604E+04  0.15294330000E+03 0.  0.
<mgrwt>
<rscale>  0 0.83539649E+03</rscale>
<asrwt>0</asrwt>
<pdfrwt beam="1">  1        1 0.33832735E+00 0.83539649E+03</pdfrwt>
<pdfrwt beam="2">  1       -1 0.79845127E-01 0.83539649E+03</pdfrwt>
<totfact> 0.35519442E+00</totfact>
</mgrwt>
</event>
<event>
 4    1  0.2731969E-009  0.5129338E+03  0.7818608E-02  0.1010457E+00
         -1   -1    0    0    0  501 -0.00000000000E+00  0.00000000000E+00  0.93276525425E+03  0.93276525427E+03  0.50400000000E-02 0.  1.
          1   -1    0    0  501    0  0.00000000000E+00 -0.00000000000E+00 -0.71980520015E+03  0.71980520017E+03  0.50400000000E-02 0. -1.
    8880022    1    1    2    0    0  0.23139322777E+03 -0.43147028135E+03  0.75084269075E+03  0.90932163111E+03  0.15294330000E+03 0.  0.
    8880022    1    1    2    0    0 -0.23139322777E+03  0.43147028135E+03 -0.53788263665E+03  0.74324882332E+03  0.15294330000E+03 0.  0.
<mgrwt>
<rscale>  0 0.51293380E+03</rscale>
<asrwt>0</asrwt>
<pdfrwt beam="1">  1        1 0.11073926E+00 0.51293380E+03</pdfrwt>
<pdfrwt beam="2">  1       -1 0.14350235E+00 0.51293380E+03</pdfrwt>
<totfact> 0.10964917E+01</totfact>
</mgrwt>
</event>
<event>
 4    1  0.2731969E-009  0.5413401E+03  0.7818608E-02  0.1003518E+00
         -1   -1    0    0    0  501 -0.00000000000E+00  0.00000000000E+00  0.10754099990E+04  0.10754099990E+04  0.50400000000E-02 0.  1.
          1   -1    0    0  501    0  0.00000000000E+00 -0.00000000000E+00 -0.43703637917E+03  0.43703637920E+03  0.50400000000E-02 0. -1.
    8880022    1    1    2    0    0  0.25582226508E+03 -0.45189869134E+03 -0.14481780791E+03  0.56037604254E+03  0.15294330000E+03 0.  0.
    8880022    1    1    2    0    0 -0.25582226508E+03  0.45189869134E+03  0.78319142770E+03  0.95207033563E+03  0.15294330000E+03 0.  0.
<mgrwt>
<rscale>  0 0.54134011E+03</rscale>
<asrwt>0</asrwt>
<pdfrwt beam="1">  1        1 0.67236367E-01 0.54134011E+03</pdfrwt>
<pdfrwt beam="2">  1       -1 0.16544769E+00 0.54134011E+03</pdfrwt>
<totfact> 0.14974542E+01</totfact>
</mgrwt>
</event>
<event>
 4    1  0.2731969E-009  0.1195071E+04  0.7818608E-02  0.9117182E-01
          1   -1    0    0  501    0  0.00000000000E+00  0.00000000000E+00  0.14038991380E+04  0.14038991380E+04  0.50400000000E-02 0. -1.
         -1   -1    0    0    0  501 -0.00000000000E+00 -0.00000000000E+00 -0.12088209229E+04  0.12088209229E+04  0.50400000000E-02 0.  1.
    8880022    1    1    2    0    0 -0.10536200641E+04 -0.54285154299E+03 -0.42243710152E+03  0.12675361119E+04  0.15294330000E+03 0.  0.
    8880022    1    1    2    0    0  0.10536200641E+04  0.54285154299E+03  0.61751531661E+03  0.13451839490E+04  0.15294330000E+03 0.  0.
<mgrwt>
<rscale>  0 0.11950710E+04</rscale>
<asrwt>0</asrwt>
<pdfrwt beam="1">  1        1 0.21598448E+00 0.11950710E+04</pdfrwt>
<pdfrwt beam="2">  1       -1 0.18597245E+00 0.11950710E+04</pdfrwt>
<totfact> 0.14121763E+00</totfact>
</mgrwt>
</event>
<event>
 4    1  0.2731969E-009  0.8583451E+03  0.7818608E-02  0.9479204E-01
         -1   -1    0    0    0  501 -0.00000000000E+00  0.00000000000E+00  0.64994990265E+03  0.64994990267E+03  0.50400000000E-02 0.  1.
          1   -1    0    0  501    0  0.00000000000E+00 -0.00000000000E+00 -0.22663816215E+04  0.22663816215E+04  0.50400000000E-02 0. -1.
    8880022    1    1    2    0    0  0.76748317339E+03  0.35261070294E+03 -0.18391273641E+04  0.20295678958E+04  0.15294330000E+03 0.  0.
    8880022    1    1    2    0    0 -0.76748317339E+03 -0.35261070294E+03  0.22269564520E+03  0.88676362841E+03  0.15294330000E+03 0.  0.
<mgrwt>
<rscale>  0 0.85834514E+03</rscale>
<asrwt>0</asrwt>
<pdfrwt beam="1">  1        1 0.34867409E+00 0.85834514E+03</pdfrwt>
<pdfrwt beam="2">  1       -1 0.99992294E-01 0.85834514E+03</pdfrwt>
<totfact> 0.19422321E+00</totfact>
</mgrwt>
</event>
<event>
 4    1  0.2731969E-009  0.2023759E+03  0.7818608E-02  0.1147750E+00
         -1   -1    0    0    0  501 -0.00000000000E+00  0.00000000000E+00  0.55541406630E+02  0.55541406859E+02  0.50400000000E-02 0.  1.
          1   -1    0    0  501    0  0.00000000000E+00 -0.00000000000E+00 -0.14758177918E+04  0.14758177918E+04  0.50400000000E-02 0. -1.
    8880022    1    1    2    0    0  0.38762649574E+02  0.12673516628E+03 -0.16853274341E+03  0.26336150818E+03  0.15294330000E+03 0.  0.
    8880022    1    1    2    0    0 -0.38762649574E+02 -0.12673516628E+03 -0.12517436418E+04  0.12679976905E+04  0.15294330000E+03 0. -1.
<mgrwt>
<rscale>  0 0.20237588E+03</rscale>
<asrwt>0</asrwt>
<pdfrwt beam="1">  1        1 0.22704886E+00 0.20237588E+03</pdfrwt>
<pdfrwt beam="2">  1       -1 0.85448329E-02 0.20237588E+03</pdfrwt>
<totfact> 0.58368474E+02</totfact>
</mgrwt>
</event>
<event>
 4    1  0.2731969E-009  0.9860881E+03  0.7818608E-02  0.9323936E-01
          1   -1    0    0  501    0  0.00000000000E+00  0.00000000000E+00  0.17800319818E+04  0.17800319818E+04  0.50400000000E-02 0. -1.
         -1   -1    0    0    0  501 -0.00000000000E+00 -0.00000000000E+00 -0.91996963604E+03  0.91996963606E+03  0.50400000000E-02 0.  1.
    8880022    1    1    2    0    0 -0.62616839452E+03 -0.74625139806E+03  0.12904528927E+04  0.16240807642E+04  0.15294330000E+03 0.  0.
    8880022    1    1    2    0    0  0.62616839452E+03  0.74625139806E+03 -0.43039054693E+03  0.10759208536E+04  0.15294330000E+03 0.  0.
<mgrwt>
<rscale>  0 0.98608806E+03</rscale>
<asrwt>0</asrwt>
<pdfrwt beam="1">  1        1 0.27385107E+00 0.98608806E+03</pdfrwt>
<pdfrwt beam="2">  1       -1 0.14153379E+00 0.98608806E+03</pdfrwt>
<totfact> 0.17299376E+00</totfact>
</mgrwt>
</event>
<event>
 4    1  0.2731969E-009  0.8009465E+03  0.7818608E-02  0.9558648E-01
         -1   -1    0    0    0  501 -0.00000000000E+00  0.00000000000E+00  0.56095619008E+03  0.56095619010E+03  0.50400000000E-02 0.  1.
          1   -1    0    0  501    0  0.00000000000E+00 -0.00000000000E+00 -0.16797379987E+04  0.16797379987E+04  0.50400000000E-02 0. -1.
    8880022    1    1    2    0    0  0.32364746478E+03 -0.71650259880E+03 -0.11923358242E+04  0.14363773968E+04  0.15294330000E+03 0.  0.
    8880022    1    1    2    0    0 -0.32364746478E+03  0.71650259880E+03  0.73554015603E+02  0.80431679192E+03  0.15294330000E+03 0.  0.
<mgrwt>
<rscale>  0 0.80094651E+03</rscale>
<asrwt>0</asrwt>
<pdfrwt beam="1">  1        1 0.25842123E+00 0.80094651E+03</pdfrwt>
<pdfrwt beam="2">  1       -1 0.86300953E-01 0.80094651E+03</pdfrwt>
<totfact> 0.67440381E+00</totfact>
</mgrwt>
</event>
<event>
 4    1  0.2731969E-009  0.1495975E+04  0.7818608E-02  0.8887134E-01
         -1   -1    0    0    0  501 -0.00000000000E+00  0.00000000000E+00  0.14599946949E+04  0.14599946949E+04  0.50400000000E-02 0.  1.
          1   -1    0    0  501    0  0.00000000000E+00 -0.00000000000E+00 -0.17389959905E+04  0.17389959905E+04  0.50400000000E-02 0. -1.
    8880022    1    1    2    0    0 -0.10929803608E+04 -0.10099222349E+04  0.41121822014E+03  0.15514641688E+04  0.15294330000E+03 0.  0.
    8880022    1    1    2    0    0  0.10929803608E+04  0.10099222349E+04 -0.69021951579E+03  0.16475265165E+04  0.15294330000E+03 0.  0.
<mgrwt>
<rscale>  0 0.14959748E+04</rscale>
<asrwt>0</asrwt>
<pdfrwt beam="1">  1        1 0.26753784E+00 0.14959748E+04</pdfrwt>
<pdfrwt beam="2">  1       -1 0.22461457E+00 0.14959748E+04</pdfrwt>
<totfact> 0.43445170E-01</totfact>
</mgrwt>
</event>
<event>
 4    1  0.2731969E-009  0.7590192E+03  0.7818608E-02  0.9621306E-01
          1   -1    0    0  501    0  0.00000000000E+00  0.00000000000E+00  0.30685534908E+03  0.30685534912E+03  0.50400000000E-02 0. -1.
         -1   -1    0    0    0  501 -0.00000000000E+00 -0.00000000000E+00 -0.23626935786E+04  0.23626935787E+04  0.50400000000E-02 0.  1.
    8880022    1    1    2    0    0 -0.53599753723E+03  0.51519433693E+03 -0.42302784454E+03  0.86894348205E+03  0.15294330000E+03 0.  0.
    8880022    1    1    2    0    0  0.53599753723E+03 -0.51519433693E+03 -0.16328103850E+04  0.18006054457E+04  0.15294330000E+03 0.  0.
<mgrwt>
<rscale>  0 0.75901925E+03</rscale>
<asrwt>0</asrwt>
<pdfrwt beam="1">  1        1 0.47208517E-01 0.75901925E+03</pdfrwt>
<pdfrwt beam="2">  1       -1 0.36349131E+00 0.75901925E+03</pdfrwt>
<totfact> 0.11408506E+00</totfact>
</mgrwt>
</event>
<event>
 4    1  0.2731969E-009  0.7434920E+03  0.7818608E-02  0.9645616E-01
          1   -1    0    0  501    0  0.00000000000E+00  0.00000000000E+00  0.34355109684E+04  0.34355109684E+04  0.50400000000E-02 0. -1.
         -1   -1    0    0    0  501 -0.00000000000E+00 -0.00000000000E+00 -0.32147046182E+03  0.32147046186E+03  0.50400000000E-02 0.  1.
    8880022    1    1    2    0    0 -0.59106019057E+03  0.42430720365E+03  0.22941576961E+03  0.77808225806E+03  0.15294330000E+03 0.  0.
    8880022    1    1    2    0    0  0.59106019057E+03 -0.42430720365E+03  0.28846247370E+04  0.29788991722E+04  0.15294330000E+03 0.  0.
<mgrwt>
<rscale>  0 0.74349203E+03</rscale>
<asrwt>0</asrwt>
<pdfrwt beam="1">  1        1 0.52854017E+00 0.74349203E+03</pdfrwt>
<pdfrwt beam="2">  1       -1 0.49456992E-01 0.74349203E+03</pdfrwt>
<totfact> 0.12538646E+00</totfact>
</mgrwt>
</event>
<event>
 4    1  0.2731969E-009  0.4188444E+03  0.7818608E-02  0.1037443E+00
         -1   -1    0    0    0  501 -0.00000000000E+00  0.00000000000E+00  0.45509548822E+03  0.45509548825E+03  0.50400000000E-02 0.  1.
          1   -1    0    0  501    0  0.00000000000E+00 -0.00000000000E+00 -0.52975201357E+03  0.52975201360E+03  0.50400000000E-02 0. -1.
    8880022    1    1    2    0    0  0.36377147369E+03 -0.14038983759E+03 -0.29430409968E+03  0.51190384612E+03  0.15294330000E+03 0.  0.
    8880022    1    1    2    0    0 -0.36377147369E+03  0.14038983759E+03  0.21964757433E+03  0.47294365573E+03  0.15294330000E+03 0.  0.
<mgrwt>
<rscale>  0 0.41884442E+03</rscale>
<asrwt>0</asrwt>
<pdfrwt beam="1">  1        1 0.81500310E-01 0.41884442E+03</pdfrwt>
<pdfrwt beam="2">  1       -1 0.70014690E-01 0.41884442E+03</pdfrwt>
<totfact> 0.88621440E+01</totfact>
</mgrwt>
</event>
<event>
 4    1  0.2731969E-009  0.2952795E+03  0.7818608E-02  0.1087624E+00
         -1   -1    0    0    0  501 -0.00000000000E+00  0.00000000000E+00  0.73592770924E+02  0.73592771096E+02  0.50400000000E-02 0.  1.
          1   -1    0    0  501    0  0.00000000000E+00 -0.00000000000E+00 -0.13022117086E+04  0.13022117086E+04  0.50400000000E-02 0. -1.
    8880022    1    1    2    0    0  0.10360820600E+03 -0.23035555786E+03 -0.82089977640E+03  0.87239121918E+03  0.15294330000E+03 0. -1.
    8880022    1    1    2    0    0 -0.10360820600E+03  0.23035555786E+03 -0.40771916126E+03  0.50341326052E+03  0.15294330000E+03 0.  1.
<mgrwt>
<rscale>  0 0.29527952E+03</rscale>
<asrwt>0</asrwt>
<pdfrwt beam="1">  1        1 0.20034025E+00 0.29527952E+03</pdfrwt>
<pdfrwt beam="2">  1       -1 0.11321966E-01 0.29527952E+03</pdfrwt>
<totfact> 0.48852322E+02</totfact>
</mgrwt>
</event>
<event>
 4    1  0.2731969E-009  0.5333698E+03  0.7818608E-02  0.1005418E+00
         -1   -1    0    0    0  501 -0.00000000000E+00  0.00000000000E+00  0.10912649380E+04  0.10912649381E+04  0.50400000000E-02 0.  1.
          1   -1    0    0  501    0  0.00000000000E+00 -0.00000000000E+00 -0.94463652135E+03  0.94463652136E+03  0.50400000000E-02 0. -1.
    8880022    1    1    2    0    0 -0.28195752663E+02  0.51019284699E+03  0.93948795637E+03  0.10803337516E+04  0.15294330000E+03 0.  0.
    8880022    1    1    2    0    0  0.28195752663E+02 -0.51019284699E+03 -0.79285953968E+03  0.95556770784E+03  0.15294330000E+03 0.  0.
<mgrwt>
<rscale>  0 0.53336985E+03</rscale>
<asrwt>0</asrwt>
<pdfrwt beam="1">  1        1 0.14532870E+00 0.53336985E+03</pdfrwt>
<pdfrwt beam="2">  1       -1 0.16788691E+00 0.53336985E+03</pdfrwt>
<totfact> 0.46120158E+00</totfact>
</mgrwt>
</event>
<event>
 4    1  0.2731969E-009  0.1289762E+04  0.7818608E-02  0.9037724E-01
         -1   -1    0    0    0  501 -0.00000000000E+00  0.00000000000E+00  0.95001008823E+03  0.95001008824E+03  0.50400000000E-02 0.  1.
          1   -1    0    0  501    0  0.00000000000E+00 -0.00000000000E+00 -0.25259514804E+04  0.25259514804E+04  0.50400000000E-02 0. -1.
    8880022    1    1    2    0    0  0.51761880647E+03 -0.11713943581E+04  0.17467046433E+03  0.13015357833E+04  0.15294330000E+03 0.  0.
    8880022    1    1    2    0    0 -0.51761880647E+03  0.11713943581E+04 -0.17506118565E+04  0.21744257854E+04  0.15294330000E+03 0.  0.
<mgrwt>
<rscale>  0 0.12897618E+04</rscale>
<asrwt>0</asrwt>
<pdfrwt beam="1">  1        1 0.38860792E+00 0.12897618E+04</pdfrwt>
<pdfrwt beam="2">  1       -1 0.14615540E+00 0.12897618E+04</pdfrwt>
<totfact> 0.47408043E-01</totfact>
</mgrwt>
</event>
<event>
 4    1  0.2731969E-009  0.1181559E+04  0.7818608E-02  0.9129153E-01
          1   -1    0    0  501    0  0.00000000000E+00  0.00000000000E+00  0.36368523475E+04  0.36368523475E+04  0.50400000000E-02 0. -1.
         -1   -1    0    0    0  501 -0.00000000000E+00 -0.00000000000E+00 -0.12025354514E+04  0.12025354514E+04  0.50400000000E-02 0.  1.
    8880022    1    1    2    0    0 -0.74726043573E+03  0.90238120094E+03  0.32136362616E+04  0.34239654884E+04  0.15294330000E+03 0.  0.
    8880022    1    1    2    0    0  0.74726043573E+03 -0.90238120094E+03 -0.77931936556E+03  0.14154223105E+04  0.15294330000E+03 0.  0.
<mgrwt>
<rscale>  0 0.11815590E+04</rscale>
<asrwt>0</asrwt>
<pdfrwt beam="1">  1        1 0.55951575E+00 0.11815590E+04</pdfrwt>
<pdfrwt beam="2">  1       -1 0.18500545E+00 0.11815590E+04</pdfrwt>
<totfact> 0.37449296E-02</totfact>
</mgrwt>
</event>
<event>
 4    1  0.2731969E-009  0.8571662E+03  0.7818608E-02  0.9480769E-01
         -1   -1    0    0    0  501 -0.00000000000E+00  0.00000000000E+00  0.22554387433E+04  0.22554387433E+04  0.50400000000E-02 0.  1.
          1   -1    0    0  501    0  0.00000000000E+00 -0.00000000000E+00 -0.38122721416E+03  0.38122721419E+03  0.50400000000E-02 0. -1.
    8880022    1    1    2    0    0 -0.56954508544E+03  0.62206165099E+03  0.14399662090E+04  0.16757794121E+04  0.15294330000E+03 0.  0.
    8880022    1    1    2    0    0  0.56954508544E+03 -0.62206165099E+03  0.43424532008E+03  0.96088654533E+03  0.15294330000E+03 0.  0.
<mgrwt>
<rscale>  0 0.85716624E+03</rscale>
<asrwt>0</asrwt>
<pdfrwt beam="1">  1        1 0.58650341E-01 0.85716624E+03</pdfrwt>
<pdfrwt beam="2">  1       -1 0.34699057E+00 0.85716624E+03</pdfrwt>
<totfact> 0.10843481E+00</totfact>
</mgrwt>
</event>
<event>
 4    1  0.2731969E-009  0.8359228E+03  0.7818608E-02  0.9509428E-01
          1   -1    0    0  501    0  0.00000000000E+00  0.00000000000E+00  0.15250710032E+04  0.15250710033E+04  0.50400000000E-02 0. -1.
         -1   -1    0    0    0  501 -0.00000000000E+00 -0.00000000000E+00 -0.52844094025E+03  0.52844094028E+03  0.50400000000E-02 0.  1.
    8880022    1    1    2    0    0  0.58085173004E+03  0.58136613747E+03  0.87268917464E+03  0.12084508127E+04  0.15294330000E+03 0.  0.
    8880022    1    1    2    0    0 -0.58085173004E+03 -0.58136613747E+03  0.12394088836E+03  0.84506113087E+03  0.15294330000E+03 0.  0.
<mgrwt>
<rscale>  0 0.83592283E+03</rscale>
<asrwt>0</asrwt>
<pdfrwt beam="1">  1        1 0.23462630E+00 0.83592283E+03</pdfrwt>
<pdfrwt beam="2">  1       -1 0.81298607E-01 0.83592283E+03</pdfrwt>
<totfact> 0.97216474E+00</totfact>
</mgrwt>
</event>
<event>
 4    1  0.2731969E-009  0.8469926E+03  0.7818608E-02  0.9494382E-01
         -1   -1    0    0    0  501 -0.00000000000E+00  0.00000000000E+00  0.65884689807E+03  0.65884689809E+03  0.50400000000E-02 0.  1.
          1   -1    0    0  501    0  0.00000000000E+00 -0.00000000000E+00 -0.16792384195E+04  0.16792384195E+04  0.50400000000E-02 0. -1.
    8880022    1    1    2    0    0 -0.43576090049E+03 -0.71001212091E+03  0.18296977620E+03  0.86653007233E+03  0.15294330000E+03 0.  0.
    8880022    1    1    2    0    0  0.43576090049E+03  0.71001212091E+03 -0.12033612976E+04  0.14715552452E+04  0.15294330000E+03 0.  0.
<mgrwt>
<rscale>  0 0.84699258E+03</rscale>
<asrwt>0</asrwt>
<pdfrwt beam="1">  1        1 0.25834437E+00 0.84699258E+03</pdfrwt>
<pdfrwt beam="2">  1       -1 0.10136106E+00 0.84699258E+03</pdfrwt>
<totfact> 0.46803238E+00</totfact>
</mgrwt>
</event>
<event>
 4    1  0.2731969E-009  0.9171021E+03  0.7818608E-02  0.9404452E-01
          1   -1    0    0  501    0  0.00000000000E+00  0.00000000000E+00  0.27086017101E+04  0.27086017101E+04  0.50400000000E-02 0. -1.
         -1   -1    0    0    0  501 -0.00000000000E+00 -0.00000000000E+00 -0.52247661884E+03  0.52247661886E+03  0.50400000000E-02 0.  1.
    8880022    1    1    2    0    0  0.75913641900E+03  0.49132120769E+03  0.64082228678E+02  0.91933824940E+03  0.15294330000E+03 0.  0.
    8880022    1    1    2    0    0 -0.75913641900E+03 -0.49132120769E+03  0.21220428625E+04  0.23117400795E+04  0.15294330000E+03 0.  0.
<mgrwt>
<rscale>  0 0.91710211E+03</rscale>
<asrwt>0</asrwt>
<pdfrwt beam="1">  1        1 0.41670796E+00 0.91710211E+03</pdfrwt>
<pdfrwt beam="2">  1       -1 0.80381017E-01 0.91710211E+03</pdfrwt>
<totfact> 0.15486758E+00</totfact>
</mgrwt>
</event>
<event>
 4    1  0.2731969E-009  0.4800135E+03  0.7818608E-02  0.1019131E+00
          1   -1    0    0  501    0  0.00000000000E+00  0.00000000000E+00  0.23082122968E+04  0.23082122968E+04  0.50400000000E-02 0. -1.
         -1   -1    0    0    0  501 -0.00000000000E+00 -0.00000000000E+00 -0.20050161610E+03  0.20050161617E+03  0.50400000000E-02 0.  1.
    8880022    1    1    2    0    0  0.21131499657E+03 -0.40294818808E+03  0.19427096692E+04  0.20011331245E+04  0.15294330000E+03 0.  0.
    8880022    1    1    2    0    0 -0.21131499657E+03  0.40294818808E+03  0.16500101151E+03  0.50758078851E+03  0.15294330000E+03 0.  0.
<mgrwt>
<rscale>  0 0.48001346E+03</rscale>
<asrwt>0</asrwt>
<pdfrwt beam="1">  1        1 0.35510956E+00 0.48001346E+03</pdfrwt>
<pdfrwt beam="2">  1       -1 0.30846405E-01 0.48001346E+03</pdfrwt>
<totfact> 0.19605037E+01</totfact>
</mgrwt>
</event>
<event>
 4    1  0.2731969E-009  0.1683691E+04  0.7818608E-02  0.8770721E-01
         -1   -1    0    0    0  501 -0.00000000000E+00  0.00000000000E+00  0.26345380412E+04  0.26345380412E+04  0.50400000000E-02 0.  1.
          1   -1    0    0  501    0  0.00000000000E+00 -0.00000000000E+00 -0.11766659265E+04  0.11766659265E+04  0.50400000000E-02 0. -1.
    8880022    1    1    2    0    0 -0.15347659183E+04  0.67521656825E+03  0.12862550156E+04  0.21187891486E+04  0.15294330000E+03 0.  0.
    8880022    1    1    2    0    0  0.15347659183E+04 -0.67521656825E+03  0.17161709904E+03  0.16924148191E+04  0.15294330000E+03 0.  0.
<mgrwt>
<rscale>  0 0.16836910E+04</rscale>
<asrwt>0</asrwt>
<pdfrwt beam="1">  1        1 0.18102553E+00 0.16836910E+04</pdfrwt>
<pdfrwt beam="2">  1       -1 0.40531354E+00 0.16836910E+04</pdfrwt>
<totfact> 0.68001527E-02</totfact>
</mgrwt>
</event>
<event>
 4    1  0.2731969E-009  0.5960016E+03  0.7818608E-02  0.9913736E-01
         -1   -1    0    0    0  501 -0.00000000000E+00  0.00000000000E+00  0.12695241560E+04  0.12695241560E+04  0.50400000000E-02 0.  1.
          1   -1    0    0  501    0  0.00000000000E+00 -0.00000000000E+00 -0.47785577974E+03  0.47785577977E+03  0.50400000000E-02 0. -1.
    8880022    1    1    2    0    0 -0.23944187706E+03  0.52392161789E+03 -0.16663444773E+03  0.61885779171E+03  0.15294330000E+03 0.  0.
    8880022    1    1    2    0    0  0.23944187706E+03 -0.52392161789E+03  0.95830282395E+03  0.11285221440E+04  0.15294330000E+03 0.  0.
<mgrwt>
<rscale>  0 0.59600162E+03</rscale>
<asrwt>0</asrwt>
<pdfrwt beam="1">  1        1 0.73516274E-01 0.59600162E+03</pdfrwt>
<pdfrwt beam="2">  1       -1 0.19531141E+00 0.59600162E+03</pdfrwt>
<totfact> 0.80836100E+00</totfact>
</mgrwt>
</event>
<event>
 4    1  0.2731969E-009  0.1120768E+04  0.7818608E-02  0.9185183E-01
         -1   -1    0    0    0  501 -0.00000000000E+00  0.00000000000E+00  0.56065351565E+03  0.56065351567E+03  0.50400000000E-02 0.  1.
          1   -1    0    0  501    0  0.00000000000E+00 -0.00000000000E+00 -0.27108786118E+04  0.27108786118E+04  0.50400000000E-02 0. -1.
    8880022    1    1    2    0    0  0.99395646009E+03 -0.49475266521E+03 -0.39370208132E+03  0.11879068255E+04  0.15294330000E+03 0.  0.
    8880022    1    1    2    0    0 -0.99395646009E+03  0.49475266521E+03 -0.17565230148E+04  0.20836253019E+04  0.15294330000E+03 0.  0.
<mgrwt>
<rscale>  0 0.11207682E+04</rscale>
<asrwt>0</asrwt>
<pdfrwt beam="1">  1        1 0.41705824E+00 0.11207682E+04</pdfrwt>
<pdfrwt beam="2">  1       -1 0.86254389E-01 0.11207682E+04</pdfrwt>
<totfact> 0.12841577E+00</totfact>
</mgrwt>
</event>
<event>
 4    1  0.2731969E-009  0.8624184E+03  0.7818608E-02  0.9473819E-01
         -1   -1    0    0    0  501 -0.00000000000E+00  0.00000000000E+00  0.35116467301E+04  0.35116467301E+04  0.50400000000E-02 0.  1.
          1   -1    0    0  501    0  0.00000000000E+00 -0.00000000000E+00 -0.57689725504E+03  0.57689725506E+03  0.50400000000E-02 0. -1.
    8880022    1    1    2    0    0  0.33162808303E+03 -0.78127886878E+03  0.30936495699E+04  0.32116091248E+04  0.15294330000E+03 0.  0.
    8880022    1    1    2    0    0 -0.33162808303E+03  0.78127886878E+03 -0.15890009477E+03  0.87693486041E+03  0.15294330000E+03 0.  0.
<mgrwt>
<rscale>  0 0.86241841E+03</rscale>
<asrwt>0</asrwt>
<pdfrwt beam="1">  1        1 0.88753425E-01 0.86241841E+03</pdfrwt>
<pdfrwt beam="2">  1       -1 0.54025334E+00 0.86241841E+03</pdfrwt>
<totfact> 0.31682201E-02</totfact>
</mgrwt>
</event>
<event>
 4    1  0.2731969E-009  0.8432653E+03  0.7818608E-02  0.9499421E-01
         -1   -1    0    0    0  501 -0.00000000000E+00  0.00000000000E+00  0.10202091786E+04  0.10202091786E+04  0.50400000000E-02 0.  1.
          1   -1    0    0  501    0  0.00000000000E+00 -0.00000000000E+00 -0.11063545157E+04  0.11063545157E+04  0.50400000000E-02 0. -1.
    8880022    1    1    2    0    0 -0.54544472454E+03  0.62465575110E+03 -0.68983619274E+03  0.10894817028E+04  0.15294330000E+03 0.  0.
    8880022    1    1    2    0    0  0.54544472454E+03 -0.62465575110E+03  0.60369085566E+03  0.10370819915E+04  0.15294330000E+03 0.  0.
<mgrwt>
<rscale>  0 0.84326532E+03</rscale>
<asrwt>0</asrwt>
<pdfrwt beam="1">  1        1 0.17020839E+00 0.84326532E+03</pdfrwt>
<pdfrwt beam="2">  1       -1 0.15695526E+00 0.84326532E+03</pdfrwt>
<totfact> 0.39585583E+00</totfact>
</mgrwt>
</event>
<event>
 4    1  0.2731969E-009  0.4310670E+03  0.7818608E-02  0.1033523E+00
         -1   -1    0    0    0  501 -0.00000000000E+00  0.00000000000E+00  0.34306433756E+03  0.34306433760E+03  0.50400000000E-02 0.  1.
          1   -1    0    0  501    0  0.00000000000E+00 -0.00000000000E+00 -0.12724066485E+04  0.12724066485E+04  0.50400000000E-02 0. -1.
    8880022    1    1    2    0    0 -0.25490093014E+02  0.40221561137E+03  0.14745977444E+03  0.45559102380E+03  0.15294330000E+03 0.  0.
    8880022    1    1    2    0    0  0.25490093014E+02 -0.40221561137E+03 -0.10768020854E+04  0.11598799623E+04  0.15294330000E+03 0.  0.
<mgrwt>
<rscale>  0 0.43106704E+03</rscale>
<asrwt>0</asrwt>
<pdfrwt beam="1">  1        1 0.19575487E+00 0.43106704E+03</pdfrwt>
<pdfrwt beam="2">  1       -1 0.52779130E-01 0.43106704E+03</pdfrwt>
<totfact> 0.36946444E+01</totfact>
</mgrwt>
</event>
<event>
 4    1  0.2731969E-009  0.1196483E+04  0.7818608E-02  0.9115940E-01
          1   -1    0    0  501    0  0.00000000000E+00  0.00000000000E+00  0.26507736744E+04  0.26507736744E+04  0.50400000000E-02 0. -1.
         -1   -1    0    0    0  501 -0.00000000000E+00 -0.00000000000E+00 -0.81957026442E+03  0.81957026443E+03  0.50400000000E-02 0.  1.
    8880022    1    1    2    0    0 -0.17696604202E+03 -0.11733981311E+04  0.19289290902E+04  0.22698764817E+04  0.15294330000E+03 0.  0.
    8880022    1    1    2    0    0  0.17696604202E+03  0.11733981311E+04 -0.97725680146E+02  0.12004674572E+04  0.15294330000E+03 0.  0.
<mgrwt>
<rscale>  0 0.11964831E+04</rscale>
<asrwt>0</asrwt>
<pdfrwt beam="1">  1        1 0.40781133E+00 0.11964831E+04</pdfrwt>
<pdfrwt beam="2">  1       -1 0.12608773E+00 0.11964831E+04</pdfrwt>
<totfact> 0.57650123E-01</totfact>
</mgrwt>
</event>
<event>
 4    1  0.2731969E-009  0.6313096E+03  0.7818608E-02  0.9842496E-01
         -1   -1    0    0    0  501 -0.00000000000E+00  0.00000000000E+00  0.15167181108E+04  0.15167181108E+04  0.50400000000E-02 0.  1.
          1   -1    0    0  501    0  0.00000000000E+00 -0.00000000000E+00 -0.13738547902E+04  0.13738547902E+04  0.50400000000E-02 0. -1.
    8880022    1    1    2    0    0 -0.28436923321E+03  0.54248903272E+03 -0.12283087465E+04  0.13810482400E+04  0.15294330000E+03 0.  0.
    8880022    1    1    2    0    0  0.28436923321E+03 -0.54248903272E+03  0.13711720672E+04  0.15095246610E+04  0.15294330000E+03 0.  0.
<mgrwt>
<rscale>  0 0.63130964E+03</rscale>
<asrwt>0</asrwt>
<pdfrwt beam="1">  1        1 0.21136227E+00 0.63130964E+03</pdfrwt>
<pdfrwt beam="2">  1       -1 0.23334125E+00 0.63130964E+03</pdfrwt>
<totfact> 0.78039018E-01</totfact>
</mgrwt>
</event>
<event>
 4    1  0.2731969E-009  0.6830087E+03  0.7818608E-02  0.9746739E-01
          1   -1    0    0  501    0  0.00000000000E+00  0.00000000000E+00  0.87402940827E+03  0.87402940828E+03  0.50400000000E-02 0. -1.
         -1   -1    0    0    0  501 -0.00000000000E+00 -0.00000000000E+00 -0.55345100660E+03  0.55345100663E+03  0.50400000000E-02 0.  1.
    8880022    1    1    2    0    0  0.37496425365E+03 -0.55001006542E+03  0.25579278454E+02  0.68348753908E+03  0.15294330000E+03 0.  0.
    8880022    1    1    2    0    0 -0.37496425365E+03  0.55001006542E+03  0.29499912321E+03  0.74399287583E+03  0.15294330000E+03 0.  0.
<mgrwt>
<rscale>  0 0.68300872E+03</rscale>
<asrwt>0</asrwt>
<pdfrwt beam="1">  1        1 0.13446606E+00 0.68300872E+03</pdfrwt>
<pdfrwt beam="2">  1       -1 0.85146309E-01 0.68300872E+03</pdfrwt>
<totfact> 0.26981158E+01</totfact>
</mgrwt>
</event>
<event>
 4    1  0.2731969E-009  0.4525552E+03  0.7818608E-02  0.1026963E+00
          1   -1    0    0  501    0  0.00000000000E+00  0.00000000000E+00  0.10972756135E+04  0.10972756136E+04  0.50400000000E-02 0. -1.
         -1   -1    0    0    0  501 -0.00000000000E+00 -0.00000000000E+00 -0.28651954485E+03  0.28651954490E+03  0.50400000000E-02 0.  1.
    8880022    1    1    2    0    0  0.95886803754E+02 -0.41499431129E+03  0.81386836458E+03  0.93122925503E+03  0.15294330000E+03 0.  0.
    8880022    1    1    2    0    0 -0.95886803754E+02  0.41499431129E+03 -0.31122958952E+01  0.45256590342E+03  0.15294330000E+03 0.  0.
<mgrwt>
<rscale>  0 0.45255520E+03</rscale>
<asrwt>0</asrwt>
<pdfrwt beam="1">  1        1 0.16881163E+00 0.45255520E+03</pdfrwt>
<pdfrwt beam="2">  1       -1 0.44079930E-01 0.45255520E+03</pdfrwt>
<totfact> 0.68708513E+01</totfact>
</mgrwt>
</event>
<event>
 4    1  0.2731969E-009  0.1844154E+04  0.7818608E-02  0.8683165E-01
         -1   -1    0    0    0  501 -0.00000000000E+00  0.00000000000E+00  0.11861419421E+04  0.11861419421E+04  0.50400000000E-02 0.  1.
          1   -1    0    0  501    0  0.00000000000E+00 -0.00000000000E+00 -0.43703917600E+04  0.43703917600E+04  0.50400000000E-02 0. -1.
    8880022    1    1    2    0    0 -0.16566889590E+04  0.79554750473E+03  0.37249957139E+02  0.18445306589E+04  0.15294330000E+03 0.  0.
    8880022    1    1    2    0    0  0.16566889590E+04 -0.79554750473E+03 -0.32214997750E+04  0.37120030432E+04  0.15294330000E+03 0.  0.
<mgrwt>
<rscale>  0 0.18441545E+04</rscale>
<asrwt>0</asrwt>
<pdfrwt beam="1">  1        1 0.67236795E+00 0.18441545E+04</pdfrwt>
<pdfrwt beam="2">  1       -1 0.18248338E+00 0.18441545E+04</pdfrwt>
<totfact> 0.79717702E-03</totfact>
</mgrwt>
</event>
<event>
 4    1  0.2731969E-009  0.1137610E+04  0.7818608E-02  0.9169290E-01
         -1   -1    0    0    0  501 -0.00000000000E+00  0.00000000000E+00  0.15497576837E+04  0.15497576837E+04  0.50400000000E-02 0.  1.
          1   -1    0    0  501    0  0.00000000000E+00 -0.00000000000E+00 -0.12115692303E+04  0.12115692303E+04  0.50400000000E-02 0. -1.
    8880022    1    1    2    0    0  0.10040792389E+04  0.51243537329E+03  0.93874821297E+03  0.14749254185E+04  0.15294330000E+03 0.  0.
    8880022    1    1    2    0    0 -0.10040792389E+04 -0.51243537329E+03 -0.60055975959E+03  0.12864014955E+04  0.15294330000E+03 0.  0.
<mgrwt>
<rscale>  0 0.11376101E+04</rscale>
<asrwt>0</asrwt>
<pdfrwt beam="1">  1        1 0.18639527E+00 0.11376101E+04</pdfrwt>
<pdfrwt beam="2">  1       -1 0.23842426E+00 0.11376101E+04</pdfrwt>
<totfact> 0.86030664E-01</totfact>
</mgrwt>
</event>
<event>
 4    1  0.2731969E-009  0.1173474E+04  0.7818608E-02  0.9136397E-01
          1   -1    0    0  501    0  0.00000000000E+00  0.00000000000E+00  0.83932120775E+03  0.83932120777E+03  0.50400000000E-02 0. -1.
         -1   -1    0    0    0  501 -0.00000000000E+00 -0.00000000000E+00 -0.16787282669E+04  0.16787282669E+04  0.50400000000E-02 0.  1.
    8880022    1    1    2    0    0  0.11613156558E+04  0.70683350518E+02 -0.60929468783E+03  0.13222260994E+04  0.15294330000E+03 0.  0.
    8880022    1    1    2    0    0 -0.11613156558E+04 -0.70683350518E+02 -0.23011237135E+03  0.11958233753E+04  0.15294330000E+03 0.  0.
<mgrwt>
<rscale>  0 0.11734743E+04</rscale>
<asrwt>0</asrwt>
<pdfrwt beam="1">  1        1 0.12912634E+00 0.11734743E+04</pdfrwt>
<pdfrwt beam="2">  1       -1 0.25826589E+00 0.11734743E+04</pdfrwt>
<totfact> 0.12428297E+00</totfact>
</mgrwt>
</event>
<event>
 4    1  0.2731969E-009  0.9920640E+03  0.7818608E-02  0.9317292E-01
          1   -1    0    0  501    0  0.00000000000E+00  0.00000000000E+00  0.14136948395E+04  0.14136948395E+04  0.50400000000E-02 0. -1.
         -1   -1    0    0    0  501 -0.00000000000E+00 -0.00000000000E+00 -0.16481051977E+04  0.16481051977E+04  0.50400000000E-02 0.  1.
    8880022    1    1    2    0    0 -0.41821306870E+03  0.88650845644E+03  0.10462642313E+04  0.14418252005E+04  0.15294330000E+03 0.  0.
    8880022    1    1    2    0    0  0.41821306870E+03 -0.88650845644E+03 -0.12806745896E+04  0.16199748367E+04  0.15294330000E+03 0.  0.
<mgrwt>
<rscale>  0 0.99206404E+03</rscale>
<asrwt>0</asrwt>
<pdfrwt beam="1">  1        1 0.21749151E+00 0.99206404E+03</pdfrwt>
<pdfrwt beam="2">  1       -1 0.25355465E+00 0.99206404E+03</pdfrwt>
<totfact> 0.50269245E-01</totfact>
</mgrwt>
</event>
<event>
 4    1  0.2731969E-009  0.1984270E+04  0.7818608E-02  0.8614010E-01
          1   -1    0    0  501    0  0.00000000000E+00  0.00000000000E+00  0.98509612232E+03  0.98509612233E+03  0.50400000000E-02 0. -1.
         -1   -1    0    0    0  501 -0.00000000000E+00 -0.00000000000E+00 -0.50546422246E+04  0.50546422246E+04  0.50400000000E-02 0.  1.
    8880022    1    1    2    0    0  0.15786569564E+04 -0.11923833294E+04 -0.65332831455E+03  0.20890584793E+04  0.15294330000E+03 0.  0.
    8880022    1    1    2    0    0 -0.15786569564E+04  0.11923833294E+04 -0.34162177877E+04  0.39506798676E+04  0.15294330000E+03 0.  0.
<mgrwt>
<rscale>  0 0.19842700E+04</rscale>
<asrwt>0</asrwt>
<pdfrwt beam="1">  1        1 0.15155325E+00 0.19842700E+04</pdfrwt>
<pdfrwt beam="2">  1       -1 0.77763725E+00 0.19842700E+04</pdfrwt>
<totfact> 0.13140232E-03</totfact>
</mgrwt>
</event>
<event>
 4    1  0.2731969E-009  0.5476244E+03  0.7818608E-02  0.1002045E+00
          1   -1    0    0  501    0  0.00000000000E+00  0.00000000000E+00  0.39915867703E+04  0.39915867703E+04  0.50400000000E-02 0. -1.
         -1   -1    0    0    0  501 -0.00000000000E+00 -0.00000000000E+00 -0.42652487268E+03  0.42652487271E+03  0.50400000000E-02 0.  1.
    8880022    1    1    2    0    0 -0.48186726207E+03  0.21048689864E+03  0.37876100848E+04  0.38269939378E+04  0.15294330000E+03 0.  0.
    8880022    1    1    2    0    0  0.48186726207E+03 -0.21048689864E+03 -0.22254818717E+03  0.59111770518E+03  0.15294330000E+03 0.  0.
<mgrwt>
<rscale>  0 0.54762437E+03</rscale>
<asrwt>0</asrwt>
<pdfrwt beam="1">  1        1 0.61409030E+00 0.54762437E+03</pdfrwt>
<pdfrwt beam="2">  1       -1 0.65619208E-01 0.54762437E+03</pdfrwt>
<totfact> 0.27304328E-01</totfact>
</mgrwt>
</event>
<event>
 4    1  0.2731969E-009  0.1075724E+04  0.7818608E-02  0.9229181E-01
          1   -1    0    0  501    0  0.00000000000E+00  0.00000000000E+00  0.11138537308E+04  0.11138537308E+04  0.50400000000E-02 0. -1.
         -1   -1    0    0    0  501 -0.00000000000E+00 -0.00000000000E+00 -0.14600529667E+04  0.14600529667E+04  0.50400000000E-02 0.  1.
    8880022    1    1    2    0    0  0.16772393351E+03 -0.10515034824E+04 -0.86429125618E+03  0.13799209832E+04  0.15294330000E+03 0.  0.
    8880022    1    1    2    0    0 -0.16772393351E+03  0.10515034824E+04  0.51809202020E+03  0.11939857143E+04  0.15294330000E+03 0.  0.
<mgrwt>
<rscale>  0 0.10757242E+04</rscale>
<asrwt>0</asrwt>
<pdfrwt beam="1">  1        1 0.17136211E+00 0.10757242E+04</pdfrwt>
<pdfrwt beam="2">  1       -1 0.22462353E+00 0.10757242E+04</pdfrwt>
<totfact> 0.12635182E+00</totfact>
</mgrwt>
</event>
<event>
 4    1  0.2731969E-009  0.5993347E+03  0.7818608E-02  0.9906787E-01
         -1   -1    0    0    0  501 -0.00000000000E+00  0.00000000000E+00  0.60958566947E+03  0.60958566949E+03  0.50400000000E-02 0.  1.
          1   -1    0    0  501    0  0.00000000000E+00 -0.00000000000E+00 -0.72065162920E+03  0.72065162922E+03  0.50400000000E-02 0. -1.
    8880022    1    1    2    0    0 -0.17394010686E+03 -0.55277052620E+03 -0.33953847868E+03  0.68883121803E+03  0.15294330000E+03 0.  0.
    8880022    1    1    2    0    0  0.17394010686E+03  0.55277052620E+03  0.22847251895E+03  0.64140608068E+03  0.15294330000E+03 0.  0.
<mgrwt>
<rscale>  0 0.59933469E+03</rscale>
<asrwt>0</asrwt>
<pdfrwt beam="1">  1        1 0.11086948E+00 0.59933469E+03</pdfrwt>
<pdfrwt beam="2">  1       -1 0.93782410E-01 0.59933469E+03</pdfrwt>
<totfact> 0.29961128E+01</totfact>
</mgrwt>
</event>
<event>
 4    1  0.2731969E-009  0.5440705E+03  0.7818608E-02  0.1002876E+00
         -1   -1    0    0    0  501 -0.00000000000E+00  0.00000000000E+00  0.32679782144E+03  0.32679782148E+03  0.50400000000E-02 0.  1.
          1   -1    0    0  501    0  0.00000000000E+00 -0.00000000000E+00 -0.18475002851E+04  0.18475002851E+04  0.50400000000E-02 0. -1.
    8880022    1    1    2    0    0 -0.40449779670E+03  0.33015542634E+03 -0.15365156126E+04  0.16299978386E+04  0.15294330000E+03 0.  0.
    8880022    1    1    2    0    0  0.40449779670E+03 -0.33015542634E+03  0.15813148902E+02  0.54430026802E+03  0.15294330000E+03 0.  0.
<mgrwt>
<rscale>  0 0.54407052E+03</rscale>
<asrwt>0</asrwt>
<pdfrwt beam="1">  1        1 0.28423081E+00 0.54407052E+03</pdfrwt>
<pdfrwt beam="2">  1       -1 0.50276589E-01 0.54407052E+03</pdfrwt>
<totfact> 0.16190295E+01</totfact>
</mgrwt>
</event>
<event>
 4    1  0.2731969E-009  0.9478155E+03  0.7818608E-02  0.9367708E-01
         -1   -1    0    0    0  501 -0.00000000000E+00  0.00000000000E+00  0.67779271899E+03  0.67779271901E+03  0.50400000000E-02 0.  1.
          1   -1    0    0  501    0  0.00000000000E+00 -0.00000000000E+00 -0.27430183482E+04  0.27430183482E+04  0.50400000000E-02 0. -1.
    8880022    1    1    2    0    0  0.86357870613E+02  0.93139941351E+03 -0.22622094098E+04  0.24527424684E+04  0.15294330000E+03 0.  0.
    8880022    1    1    2    0    0 -0.86357870613E+02 -0.93139941351E+03  0.19698378058E+03  0.96806859887E+03  0.15294330000E+03 0.  0.
<mgrwt>
<rscale>  0 0.94781549E+03</rscale>
<asrwt>0</asrwt>
<pdfrwt beam="1">  1        1 0.42200282E+00 0.94781549E+03</pdfrwt>
<pdfrwt beam="2">  1       -1 0.10427580E+00 0.94781549E+03</pdfrwt>
<totfact> 0.81701461E-01</totfact>
</mgrwt>
</event>
<event>
 4    1  0.2731969E-009  0.1185793E+04  0.7818608E-02  0.9125384E-01
          1   -1    0    0  501    0  0.00000000000E+00  0.00000000000E+00  0.11323350409E+04  0.11323350409E+04  0.50400000000E-02 0. -1.
         -1   -1    0    0    0  501 -0.00000000000E+00 -0.00000000000E+00 -0.16318027344E+04  0.16318027344E+04  0.50400000000E-02 0.  1.
    8880022    1    1    2    0    0 -0.73262058203E+02  0.11736039349E+04  0.42595023805E+03  0.12599757075E+04  0.15294330000E+03 0.  0.
    8880022    1    1    2    0    0  0.73262058203E+02 -0.11736039349E+04 -0.92541793160E+03  0.15041620678E+04  0.15294330000E+03 0.  0.
<mgrwt>
<rscale>  0 0.11857931E+04</rscale>
<asrwt>0</asrwt>
<pdfrwt beam="1">  1        1 0.17420539E+00 0.11857931E+04</pdfrwt>
<pdfrwt beam="2">  1       -1 0.25104658E+00 0.11857931E+04</pdfrwt>
<totfact> 0.80917737E-01</totfact>
</mgrwt>
</event>
<event>
 4    1  0.2731969E-009  0.1724933E+04  0.7818608E-02  0.8747271E-01
          1   -1    0    0  501    0  0.00000000000E+00  0.00000000000E+00  0.19922565894E+04  0.19922565895E+04  0.50400000000E-02 0. -1.
         -1   -1    0    0    0  501 -0.00000000000E+00 -0.00000000000E+00 -0.18325212893E+04  0.18325212893E+04  0.50400000000E-02 0.  1.
    8880022    1    1    2    0    0 -0.12703742210E+04 -0.11567850717E+04 -0.74271290643E+03  0.18780352707E+04  0.15294330000E+03 0.  0.
    8880022    1    1    2    0    0  0.12703742210E+04  0.11567850717E+04  0.90244820655E+03  0.19467426081E+04  0.15294330000E+03 0.  0.
<mgrwt>
<rscale>  0 0.17249330E+04</rscale>
<asrwt>0</asrwt>
<pdfrwt beam="1">  1        1 0.30650101E+00 0.17249330E+04</pdfrwt>
<pdfrwt beam="2">  1       -1 0.28192635E+00 0.17249330E+04</pdfrwt>
<totfact> 0.11983426E-01</totfact>
</mgrwt>
</event>
<event>
 4    1  0.2731969E-009  0.1315509E+04  0.7818608E-02  0.9017356E-01
         -1   -1    0    0    0  501 -0.00000000000E+00  0.00000000000E+00  0.13547304921E+04  0.13547304921E+04  0.50400000000E-02 0.  1.
          1   -1    0    0  501    0  0.00000000000E+00 -0.00000000000E+00 -0.35495770351E+04  0.35495770351E+04  0.50400000000E-02 0. -1.
    8880022    1    1    2    0    0  0.16605847809E+03 -0.12959925585E+04 -0.30593296940E+04  0.33301744638E+04  0.15294330000E+03 0.  0.
    8880022    1    1    2    0    0 -0.16605847809E+03  0.12959925585E+04  0.86448315107E+03  0.15741330634E+04  0.15294330000E+03 0.  0.
<mgrwt>
<rscale>  0 0.13155089E+04</rscale>
<asrwt>0</asrwt>
<pdfrwt beam="1">  1        1 0.54608877E+00 0.13155089E+04</pdfrwt>
<pdfrwt beam="2">  1       -1 0.20842008E+00 0.13155089E+04</pdfrwt>
<totfact> 0.29482281E-02</totfact>
</mgrwt>
</event>
<event>
 4    1  0.2731969E-009  0.1076046E+04  0.7818608E-02  0.9228859E-01
          1   -1    0    0  501    0  0.00000000000E+00  0.00000000000E+00  0.99188035119E+03  0.99188035120E+03  0.50400000000E-02 0. -1.
         -1   -1    0    0    0  501 -0.00000000000E+00 -0.00000000000E+00 -0.20836788844E+04  0.20836788844E+04  0.50400000000E-02 0.  1.
    8880022    1    1    2    0    0 -0.25361977767E+03 -0.10344854102E+04  0.47387402493E+03  0.11757683871E+04  0.15294330000E+03 0.  0.
    8880022    1    1    2    0    0  0.25361977767E+03  0.10344854102E+04 -0.15656725581E+04  0.18997908485E+04  0.15294330000E+03 0.  0.
<mgrwt>
<rscale>  0 0.10760459E+04</rscale>
<asrwt>0</asrwt>
<pdfrwt beam="1">  1        1 0.15259698E+00 0.10760459E+04</pdfrwt>
<pdfrwt beam="2">  1       -1 0.32056598E+00 0.10760459E+04</pdfrwt>
<totfact> 0.37433476E-01</totfact>
</mgrwt>
</event>
<event>
 4    1  0.2731969E-009  0.1826283E+03  0.7818608E-02  0.1165283E+00
         -1   -1    0    0    0  501 -0.00000000000E+00  0.00000000000E+00  0.25203533092E+04  0.25203533092E+04  0.50400000000E-02 0.  1.
          1   -1    0    0  501    0  0.00000000000E+00 -0.00000000000E+00 -0.88276469428E+02  0.88276469572E+02  0.50400000000E-02 0. -1.
    8880022    1    1    2    0    0  0.91149517751E+02 -0.40659626654E+02  0.13455634723E+02  0.18312331077E+03  0.15294330000E+03 0.  0.
    8880022    1    1    2    0    0 -0.91149517751E+02  0.40659626654E+02  0.24186212051E+04  0.24255064680E+04  0.15294330000E+03 0.  1.
<mgrwt>
<rscale>  0 0.18262829E+03</rscale>
<asrwt>0</asrwt>
<pdfrwt beam="1">  1        1 0.13580997E-01 0.18262829E+03</pdfrwt>
<pdfrwt beam="2">  1       -1 0.38774663E+00 0.18262829E+03</pdfrwt>
<totfact> 0.47156760E+00</totfact>
</mgrwt>
</event>
<event>
 4    1  0.2731969E-009  0.1351301E+04  0.7818608E-02  0.8989844E-01
          1   -1    0    0  501    0  0.00000000000E+00  0.00000000000E+00  0.10547887522E+04  0.10547887522E+04  0.50400000000E-02 0. -1.
         -1   -1    0    0    0  501 -0.00000000000E+00 -0.00000000000E+00 -0.27008885307E+04  0.27008885308E+04  0.50400000000E-02 0.  1.
    8880022    1    1    2    0    0 -0.76283375276E+03 -0.11048568439E+04 -0.19482465326E+04  0.23710082633E+04  0.15294330000E+03 0.  0.
    8880022    1    1    2    0    0  0.76283375276E+03  0.11048568439E+04  0.30214675399E+03  0.13846690196E+04  0.15294330000E+03 0.  0.
<mgrwt>
<rscale>  0 0.13513015E+04</rscale>
<asrwt>0</asrwt>
<pdfrwt beam="1">  1        1 0.16227519E+00 0.13513015E+04</pdfrwt>
<pdfrwt beam="2">  1       -1 0.41552131E+00 0.13513015E+04</pdfrwt>
<totfact> 0.74536885E-02</totfact>
</mgrwt>
</event>
<event>
 4    1  0.2731969E-009  0.6235204E+03  0.7818608E-02  0.9857775E-01
          1   -1    0    0  501    0  0.00000000000E+00  0.00000000000E+00  0.12183753345E+04  0.12183753345E+04  0.50400000000E-02 0. -1.
         -1   -1    0    0    0  501 -0.00000000000E+00 -0.00000000000E+00 -0.82076232654E+03  0.82076232656E+03  0.50400000000E-02 0.  1.
    8880022    1    1    2    0    0  0.39923332156E+02 -0.60315184109E+03  0.99591177936E+03  0.11749969962E+04  0.15294330000E+03 0.  0.
    8880022    1    1    2    0    0 -0.39923332156E+02  0.60315184109E+03 -0.59829877137E+03  0.86414066488E+03  0.15294330000E+03 0.  0.
<mgrwt>
<rscale>  0 0.62352038E+03</rscale>
<asrwt>0</asrwt>
<pdfrwt beam="1">  1        1 0.18744236E+00 0.62352038E+03</pdfrwt>
<pdfrwt beam="2">  1       -1 0.12627113E+00 0.62352038E+03</pdfrwt>
<totfact> 0.59950736E+00</totfact>
</mgrwt>
</event>
<event>
 4    1  0.2731969E-009  0.4818115E+03  0.7818608E-02  0.1018638E+00
         -1   -1    0    0    0  501 -0.00000000000E+00  0.00000000000E+00  0.70141664502E+03  0.70141664504E+03  0.50400000000E-02 0.  1.
          1   -1    0    0  501    0  0.00000000000E+00 -0.00000000000E+00 -0.66180243951E+03  0.66180243953E+03  0.50400000000E-02 0. -1.
    8880022    1    1    2    0    0  0.45291400194E+03  0.60163221748E+02  0.50173345806E+03  0.69561398948E+03  0.15294330000E+03 0.  0.
    8880022    1    1    2    0    0 -0.45291400194E+03 -0.60163221748E+02 -0.46211925255E+03  0.66760509510E+03  0.15294330000E+03 0.  0.
<mgrwt>
<rscale>  0 0.48181154E+03</rscale>
<asrwt>0</asrwt>
<pdfrwt beam="1">  1        1 0.10181576E+00 0.48181154E+03</pdfrwt>
<pdfrwt beam="2">  1       -1 0.10791025E+00 0.48181154E+03</pdfrwt>
<totfact> 0.25168044E+01</totfact>
</mgrwt>
</event>
<event>
 4    1  0.2731969E-009  0.1242807E+04  0.7818608E-02  0.9076191E-01
          1   -1    0    0  501    0  0.00000000000E+00  0.00000000000E+00  0.19557370974E+04  0.19557370974E+04  0.50400000000E-02 0. -1.
         -1   -1    0    0    0  501 -0.00000000000E+00 -0.00000000000E+00 -0.25114990286E+04  0.25114990286E+04  0.50400000000E-02 0.  1.
    8880022    1    1    2    0    0  0.88003714186E+03 -0.86412573492E+03  0.15714966298E+04  0.20035398592E+04  0.15294330000E+03 0.  0.
    8880022    1    1    2    0    0 -0.88003714186E+03  0.86412573492E+03 -0.21272585610E+04  0.24636962669E+04  0.15294330000E+03 0.  0.
<mgrwt>
<rscale>  0 0.12428074E+04</rscale>
<asrwt>0</asrwt>
<pdfrwt beam="1">  1        1 0.30088263E+00 0.12428074E+04</pdfrwt>
<pdfrwt beam="2">  1       -1 0.38638446E+00 0.12428074E+04</pdfrwt>
<totfact> 0.27834029E-02</totfact>
</mgrwt>
</event>
<event>
 4    1  0.2731969E-009  0.1907585E+04  0.7818608E-02  0.8651090E-01
          1   -1    0    0  501    0  0.00000000000E+00  0.00000000000E+00  0.22371541325E+04  0.22371541325E+04  0.50400000000E-02 0. -1.
         -1   -1    0    0    0  501 -0.00000000000E+00 -0.00000000000E+00 -0.17884026277E+04  0.17884026277E+04  0.50400000000E-02 0.  1.
    8880022    1    1    2    0    0  0.22419203022E+03  0.18881812155E+04  0.82985577156E+03  0.20802746510E+04  0.15294330000E+03 0.  0.
    8880022    1    1    2    0    0 -0.22419203022E+03 -0.18881812155E+04 -0.38110426680E+03  0.19452821092E+04  0.15294330000E+03 0.  0.
<mgrwt>
<rscale>  0 0.19075854E+04</rscale>
<asrwt>0</asrwt>
<pdfrwt beam="1">  1        1 0.34417756E+00 0.19075854E+04</pdfrwt>
<pdfrwt beam="2">  1       -1 0.27513887E+00 0.19075854E+04</pdfrwt>
<totfact> 0.88475153E-02</totfact>
</mgrwt>
</event>
<event>
 4    1  0.2731969E-009  0.9862398E+03  0.7818608E-02  0.9323767E-01
         -1   -1    0    0    0  501 -0.00000000000E+00  0.00000000000E+00  0.90921096318E+03  0.90921096320E+03  0.50400000000E-02 0.  1.
          1   -1    0    0  501    0  0.00000000000E+00 -0.00000000000E+00 -0.15752772924E+04  0.15752772924E+04  0.50400000000E-02 0. -1.
    8880022    1    1    2    0    0 -0.41482917767E+03  0.88158614473E+03 -0.10367234683E+04  0.14308964253E+04  0.15294330000E+03 0.  0.
    8880022    1    1    2    0    0  0.41482917767E+03 -0.88158614473E+03  0.37065713902E+03  0.10535918303E+04  0.15294330000E+03 0.  0.
<mgrwt>
<rscale>  0 0.98623984E+03</rscale>
<asrwt>0</asrwt>
<pdfrwt beam="1">  1        1 0.24235035E+00 0.98623984E+03</pdfrwt>
<pdfrwt beam="2">  1       -1 0.13987861E+00 0.98623984E+03</pdfrwt>
<totfact> 0.24575119E+00</totfact>
</mgrwt>
</event>
<event>
 4    1  0.2731969E-009  0.6467400E+03  0.7818608E-02  0.9812916E-01
         -1   -1    0    0    0  501 -0.00000000000E+00  0.00000000000E+00  0.36194525591E+03  0.36194525595E+03  0.50400000000E-02 0.  1.
          1   -1    0    0  501    0  0.00000000000E+00 -0.00000000000E+00 -0.15616949762E+04  0.15616949762E+04  0.50400000000E-02 0. -1.
    8880022    1    1    2    0    0  0.51576596825E+03  0.35897964065E+03 -0.10903271939E+04  0.12677089410E+04  0.15294330000E+03 0.  0.
    8880022    1    1    2    0    0 -0.51576596825E+03 -0.35897964065E+03 -0.10942252642E+03  0.65593129115E+03  0.15294330000E+03 0.  0.
<mgrwt>
<rscale>  0 0.64673996E+03</rscale>
<asrwt>0</asrwt>
<pdfrwt beam="1">  1        1 0.24026076E+00 0.64673996E+03</pdfrwt>
<pdfrwt beam="2">  1       -1 0.55683886E-01 0.64673996E+03</pdfrwt>
<totfact> 0.20322769E+01</totfact>
</mgrwt>
</event>
<event>
 4    1  0.2731969E-009  0.3864899E+03  0.7818608E-02  0.1048561E+00
          1   -1    0    0  501    0  0.00000000000E+00  0.00000000000E+00  0.75436433507E+03  0.75436433508E+03  0.50400000000E-02 0. -1.
         -1   -1    0    0    0  501 -0.00000000000E+00 -0.00000000000E+00 -0.75636089986E+03  0.75636089988E+03  0.50400000000E-02 0.  1.
    8880022    1    1    2    0    0 -0.32870364140E+03  0.13392801664E+03 -0.64999594993E+03  0.75622032864E+03  0.15294330000E+03 0.  1.
    8880022    1    1    2    0    0  0.32870364140E+03 -0.13392801664E+03  0.64799938513E+03  0.75450490632E+03  0.15294330000E+03 0.  0.
<mgrwt>
<rscale>  0 0.38648991E+03</rscale>
<asrwt>0</asrwt>
<pdfrwt beam="1">  1        1 0.11605605E+00 0.38648991E+03</pdfrwt>
<pdfrwt beam="2">  1       -1 0.11636322E+00 0.38648991E+03</pdfrwt>
<totfact> 0.17675590E+01</totfact>
</mgrwt>
</event>
<event>
 4    1  0.2731969E-009  0.5234573E+03  0.7818608E-02  0.1007831E+00
         -1   -1    0    0    0  501 -0.00000000000E+00  0.00000000000E+00  0.83970944528E+03  0.83970944530E+03  0.50400000000E-02 0.  1.
          1   -1    0    0  501    0  0.00000000000E+00 -0.00000000000E+00 -0.41415526156E+03  0.41415526159E+03  0.50400000000E-02 0. -1.
    8880022    1    1    2    0    0 -0.30748752953E+03 -0.39505361833E+03 -0.75953203828E+02  0.52893901762E+03  0.15294330000E+03 0.  0.
    8880022    1    1    2    0    0  0.30748752953E+03  0.39505361833E+03  0.50150738755E+03  0.72492568927E+03  0.15294330000E+03 0.  0.
<mgrwt>
<rscale>  0 0.52345735E+03</rscale>
<asrwt>0</asrwt>
<pdfrwt beam="1">  1        1 0.63716194E-01 0.52345735E+03</pdfrwt>
<pdfrwt beam="2">  1       -1 0.12918607E+00 0.52345735E+03</pdfrwt>
<totfact> 0.30977832E+01</totfact>
</mgrwt>
</event>
<event>
 4    1  0.2731969E-009  0.5168157E+03  0.7818608E-02  0.1009481E+00
          1   -1    0    0  501    0  0.00000000000E+00  0.00000000000E+00  0.93391226882E+03  0.93391226884E+03  0.50400000000E-02 0. -1.
         -1   -1    0    0    0  501 -0.00000000000E+00 -0.00000000000E+00 -0.40661402106E+03  0.40661402110E+03  0.50400000000E-02 0.  1.
    8880022    1    1    2    0    0 -0.42190450513E+03  0.25632675112E+03 -0.10140218792E+03  0.52666960376E+03  0.15294330000E+03 0.  0.
    8880022    1    1    2    0    0  0.42190450513E+03 -0.25632675112E+03  0.62870043568E+03  0.81385668617E+03  0.15294330000E+03 0.  0.
<mgrwt>
<rscale>  0 0.51681570E+03</rscale>
<asrwt>0</asrwt>
<pdfrwt beam="1">  1        1 0.14367881E+00 0.51681570E+03</pdfrwt>
<pdfrwt beam="2">  1       -1 0.62556004E-01 0.51681570E+03</pdfrwt>
<totfact> 0.46603448E+01</totfact>
</mgrwt>
</event>
<event>
 4    1  0.2731969E-009  0.6723568E+03  0.7818608E-02  0.9765710E-01
          1   -1    0    0  501    0  0.00000000000E+00  0.00000000000E+00  0.83310809767E+03  0.83310809768E+03  0.50400000000E-02 0. -1.
         -1   -1    0    0    0  501 -0.00000000000E+00 -0.00000000000E+00 -0.11886387601E+04  0.11886387601E+04  0.50400000000E-02 0.  1.
    8880022    1    1    2    0    0 -0.64842857378E+03 -0.90622470190E+02 -0.92300053019E+03  0.11419254263E+04  0.15294330000E+03 0.  0.
    8880022    1    1    2    0    0  0.64842857378E+03  0.90622470190E+02  0.56746986781E+03  0.87982143148E+03  0.15294330000E+03 0. -1.
<mgrwt>
<rscale>  0 0.67235683E+03</rscale>
<asrwt>0</asrwt>
<pdfrwt beam="1">  1        1 0.12817048E+00 0.67235683E+03</pdfrwt>
<pdfrwt beam="2">  1       -1 0.18286750E+00 0.67235683E+03</pdfrwt>
<totfact> 0.43167220E+00</totfact>
</mgrwt>
</event>
<event>
 4    1  0.2731969E-009  0.6311236E+03  0.7818608E-02  0.9842859E-01
         -1   -1    0    0    0  501 -0.00000000000E+00  0.00000000000E+00  0.11652839804E+04  0.11652839804E+04  0.50400000000E-02 0.  1.
          1   -1    0    0  501    0  0.00000000000E+00 -0.00000000000E+00 -0.83933177908E+03  0.83933177910E+03  0.50400000000E-02 0. -1.
    8880022    1    1    2    0    0 -0.23225059626E+03  0.56655534118E+03  0.93465416192E+03  0.11277833788E+04  0.15294330000E+03 0.  0.
    8880022    1    1    2    0    0  0.23225059626E+03 -0.56655534118E+03 -0.60870196058E+03  0.87683238074E+03  0.15294330000E+03 0.  0.
<mgrwt>
<rscale>  0 0.63112356E+03</rscale>
<asrwt>0</asrwt>
<pdfrwt beam="1">  1        1 0.12912797E+00 0.63112356E+03</pdfrwt>
<pdfrwt beam="2">  1       -1 0.17927446E+00 0.63112356E+03</pdfrwt>
<totfact> 0.45564544E+00</totfact>
</mgrwt>
</event>
<event>
 4    1  0.2731969E-009  0.9889847E+03  0.7818608E-02  0.9320709E-01
         -1   -1    0    0    0  501 -0.00000000000E+00  0.00000000000E+00  0.42725997696E+03  0.42725997699E+03  0.50400000000E-02 0.  1.
          1   -1    0    0  501    0  0.00000000000E+00 -0.00000000000E+00 -0.26102616771E+04  0.26102616771E+04  0.50400000000E-02 0. -1.
    8880022    1    1    2    0    0  0.45767187216E+03  0.86327030991E+03 -0.16241362992E+04  0.19015545067E+04  0.15294330000E+03 0. -1.
    8880022    1    1    2    0    0 -0.45767187216E+03 -0.86327030991E+03 -0.55886540092E+03  0.11359671474E+04  0.15294330000E+03 0. -1.
<mgrwt>
<rscale>  0 0.98898474E+03</rscale>
<asrwt>0</asrwt>
<pdfrwt beam="1">  1        1 0.40157871E+00 0.98898474E+03</pdfrwt>
<pdfrwt beam="2">  1       -1 0.65732306E-01 0.98898474E+03</pdfrwt>
<totfact> 0.27220344E+00</totfact>
</mgrwt>
</event>
<event>
 4    1  0.2731969E-009  0.3250236E+03  0.7818608E-02  0.1073360E+00
          1   -1    0    0  501    0  0.00000000000E+00  0.00000000000E+00  0.23031715487E+04  0.23031715487E+04  0.50400000000E-02 0. -1.
         -1   -1    0    0    0  501 -0.00000000000E+00 -0.00000000000E+00 -0.70058485683E+03  0.70058485685E+03  0.50400000000E-02 0.  1.
    8880022    1    1    2    0    0 -0.10908501580E+03  0.26523416070E+03  0.22531753475E+04  0.22764971997E+04  0.15294330000E+03 0.  0.
    8880022    1    1    2    0    0  0.10908501580E+03 -0.26523416070E+03 -0.65058865562E+03  0.72725920586E+03  0.15294330000E+03 0.  0.
<mgrwt>
<rscale>  0 0.32502362E+03</rscale>
<asrwt>0</asrwt>
<pdfrwt beam="1">  1        1 0.35433408E+00 0.32502362E+03</pdfrwt>
<pdfrwt beam="2">  1       -1 0.10778229E+00 0.32502362E+03</pdfrwt>
<totfact> 0.18002190E+00</totfact>
</mgrwt>
</event>
<event>
 4    1  0.2731969E-009  0.4912452E+03  0.7818608E-02  0.1016090E+00
         -1   -1    0    0    0  501 -0.00000000000E+00  0.00000000000E+00  0.71213986152E+03  0.71213986154E+03  0.50400000000E-02 0.  1.
          1   -1    0    0  501    0  0.00000000000E+00 -0.00000000000E+00 -0.14196198488E+04  0.14196198488E+04  0.50400000000E-02 0. -1.
    8880022    1    1    2    0    0 -0.19927976220E+03 -0.42215841187E+03  0.57626462656E+03  0.75723359749E+03  0.15294330000E+03 0.  0.
    8880022    1    1    2    0    0  0.19927976220E+03  0.42215841187E+03 -0.12837446138E+04  0.13745261128E+04  0.15294330000E+03 0.  0.
<mgrwt>
<rscale>  0 0.49124515E+03</rscale>
<asrwt>0</asrwt>
<pdfrwt beam="1">  1        1 0.21840305E+00 0.49124515E+03</pdfrwt>
<pdfrwt beam="2">  1       -1 0.10955998E+00 0.49124515E+03</pdfrwt>
<totfact> 0.62790696E+00</totfact>
</mgrwt>
</event>
<event>
 4    1  0.2731969E-009  0.3054947E+03  0.7818608E-02  0.1082526E+00
         -1   -1    0    0    0  501 -0.00000000000E+00  0.00000000000E+00  0.17491034006E+03  0.17491034013E+03  0.50400000000E-02 0.  1.
          1   -1    0    0  501    0  0.00000000000E+00 -0.00000000000E+00 -0.10277022837E+04  0.10277022837E+04  0.50400000000E-02 0. -1.
    8880022    1    1    2    0    0  0.26441919252E+03 -0.42242999336E+01 -0.94464569363E+01  0.30564070843E+03  0.15294330000E+03 0.  0.
    8880022    1    1    2    0    0 -0.26441919252E+03  0.42242999336E+01 -0.84334548668E+03  0.89697191540E+03  0.15294330000E+03 0.  0.
<mgrwt>
<rscale>  0 0.30549469E+03</rscale>
<asrwt>0</asrwt>
<pdfrwt beam="1">  1        1 0.15810804E+00 0.30549469E+03</pdfrwt>
<pdfrwt beam="2">  1       -1 0.26909284E-01 0.30549469E+03</pdfrwt>
<totfact> 0.18827231E+02</totfact>
</mgrwt>
</event>
<event>
 4    1  0.2731969E-009  0.3062045E+03  0.7818608E-02  0.1082180E+00
         -1   -1    0    0    0  501 -0.00000000000E+00  0.00000000000E+00  0.33293425755E+03  0.33293425759E+03  0.50400000000E-02 0.  1.
          1   -1    0    0  501    0  0.00000000000E+00 -0.00000000000E+00 -0.17163854652E+04  0.17163854652E+04  0.50400000000E-02 0. -1.
    8880022    1    1    2    0    0  0.11478794565E+03  0.23915109812E+03 -0.16285596468E+04  0.16570961639E+04  0.15294330000E+03 0. -1.
    8880022    1    1    2    0    0 -0.11478794565E+03 -0.23915109812E+03  0.24510843915E+03  0.39222355890E+03  0.15294330000E+03 0.  0.
<mgrwt>
<rscale>  0 0.30620446E+03</rscale>
<asrwt>0</asrwt>
<pdfrwt beam="1">  1        1 0.26405930E+00 0.30620446E+03</pdfrwt>
<pdfrwt beam="2">  1       -1 0.51220656E-01 0.30620446E+03</pdfrwt>
<totfact> 0.20311705E+01</totfact>
</mgrwt>
</event>
<event>
 4    1  0.2731969E-009  0.1194530E+04  0.7818608E-02  0.9117658E-01
         -1   -1    0    0    0  501 -0.00000000000E+00  0.00000000000E+00  0.19294143910E+04  0.19294143910E+04  0.50400000000E-02 0.  1.
          1   -1    0    0  501    0  0.00000000000E+00 -0.00000000000E+00 -0.96642446444E+03  0.96642446446E+03  0.50400000000E-02 0. -1.
    8880022    1    1    2    0    0  0.25411171451E+03  0.11571247828E+04  0.11830332500E+04  0.16812108286E+04  0.15294330000E+03 0.  1.
    8880022    1    1    2    0    0 -0.25411171451E+03 -0.11571247828E+04 -0.22004332345E+03  0.12146280269E+04  0.15294330000E+03 0.  0.
<mgrwt>
<rscale>  0 0.11945301E+04</rscale>
<asrwt>0</asrwt>
<pdfrwt beam="1">  1        1 0.14868069E+00 0.11945301E+04</pdfrwt>
<pdfrwt beam="2">  1       -1 0.29683298E+00 0.11945301E+04</pdfrwt>
<totfact> 0.54903021E-01</totfact>
</mgrwt>
</event>
<event>
 4    1  0.2731969E-009  0.1213156E+04  0.7818608E-02  0.9101419E-01
          1   -1    0    0  501    0  0.00000000000E+00  0.00000000000E+00  0.12748168334E+04  0.12748168334E+04  0.50400000000E-02 0. -1.
         -1   -1    0    0    0  501 -0.00000000000E+00 -0.00000000000E+00 -0.22016776536E+04  0.22016776537E+04  0.50400000000E-02 0.  1.
    8880022    1    1    2    0    0  0.73160590965E+03 -0.95556706620E+03 -0.16622381621E+04  0.20578588352E+04  0.15294330000E+03 0.  0.
    8880022    1    1    2    0    0 -0.73160590965E+03  0.95556706620E+03  0.73537734183E+03  0.14186356519E+04  0.15294330000E+03 0.  0.
<mgrwt>
<rscale>  0 0.12131559E+04</rscale>
<asrwt>0</asrwt>
<pdfrwt beam="1">  1        1 0.19612567E+00 0.12131559E+04</pdfrwt>
<pdfrwt beam="2">  1       -1 0.33871964E+00 0.12131559E+04</pdfrwt>
<totfact> 0.17140097E-01</totfact>
</mgrwt>
</event>
<event>
 4    1  0.2731969E-009  0.1074006E+04  0.7818608E-02  0.9230904E-01
         -1   -1    0    0    0  501 -0.00000000000E+00  0.00000000000E+00  0.13242256622E+04  0.13242256622E+04  0.50400000000E-02 0.  1.
          1   -1    0    0  501    0  0.00000000000E+00 -0.00000000000E+00 -0.89454176045E+03  0.89454176046E+03  0.50400000000E-02 0. -1.
    8880022    1    1    2    0    0  0.80920730549E+03  0.68940642813E+03  0.35128075618E+02  0.10745805326E+04  0.15294330000E+03 0.  0.
    8880022    1    1    2    0    0 -0.80920730549E+03 -0.68940642813E+03  0.39455582615E+03  0.11441868901E+04  0.15294330000E+03 0.  0.
<mgrwt>
<rscale>  0 0.10740062E+04</rscale>
<asrwt>0</asrwt>
<pdfrwt beam="1">  1        1 0.13762181E+00 0.10740062E+04</pdfrwt>
<pdfrwt beam="2">  1       -1 0.20372702E+00 0.10740062E+04</pdfrwt>
<totfact> 0.25964423E+00</totfact>
</mgrwt>
</event>
<event>
 4    1  0.2731969E-009  0.1760532E+04  0.7818608E-02  0.8727574E-01
          1   -1    0    0  501    0  0.00000000000E+00  0.00000000000E+00  0.21175996311E+04  0.21175996312E+04  0.50400000000E-02 0. -1.
         -1   -1    0    0    0  501 -0.00000000000E+00 -0.00000000000E+00 -0.18735655047E+04  0.18735655047E+04  0.50400000000E-02 0.  1.
    8880022    1    1    2    0    0  0.17504389777E+04 -0.10974343267E+03  0.10554231497E+04  0.20526543580E+04  0.15294330000E+03 0.  0.
    8880022    1    1    2    0    0 -0.17504389777E+04  0.10974343267E+03 -0.81138902316E+03  0.19385107778E+04  0.15294330000E+03 0.  0.
<mgrwt>
<rscale>  0 0.17605317E+04</rscale>
<asrwt>0</asrwt>
<pdfrwt beam="1">  1        1 0.32578456E+00 0.17605317E+04</pdfrwt>
<pdfrwt beam="2">  1       -1 0.28824085E+00 0.17605317E+04</pdfrwt>
<totfact> 0.89191484E-02</totfact>
</mgrwt>
</event>
<event>
 4    1  0.2731969E-009  0.3014271E+03  0.7818608E-02  0.1084529E+00
         -1   -1    0    0    0  501 -0.00000000000E+00  0.00000000000E+00  0.23291145086E+03  0.23291145092E+03  0.50400000000E-02 0.  1.
          1   -1    0    0  501    0  0.00000000000E+00 -0.00000000000E+00 -0.23645062227E+04  0.23645062227E+04  0.50400000000E-02 0. -1.
    8880022    1    1    2    0    0 -0.21581018727E+03  0.14454269587E+03 -0.22525495855E+04  0.22726279757E+04  0.15294330000E+03 0. -1.
    8880022    1    1    2    0    0  0.21581018727E+03 -0.14454269587E+03  0.12095481371E+03  0.32478969786E+03  0.15294330000E+03 0.  0.
<mgrwt>
<rscale>  0 0.30142707E+03</rscale>
<asrwt>0</asrwt>
<pdfrwt beam="1">  1        1 0.36377017E+00 0.30142707E+03</pdfrwt>
<pdfrwt beam="2">  1       -1 0.35832532E-01 0.30142707E+03</pdfrwt>
<totfact> 0.14626450E+01</totfact>
</mgrwt>
</event>
<event>
 4    1  0.2731969E-009  0.7510407E+03  0.7818608E-02  0.9633719E-01
         -1   -1    0    0    0  501 -0.00000000000E+00  0.00000000000E+00  0.65869367006E+03  0.65869367008E+03  0.50400000000E-02 0.  1.
          1   -1    0    0  501    0  0.00000000000E+00 -0.00000000000E+00 -0.12092683422E+04  0.12092683422E+04  0.50400000000E-02 0. -1.
    8880022    1    1    2    0    0  0.10058470403E+03  0.72839080362E+03 -0.77985959507E+03  0.10827017533E+04  0.15294330000E+03 0.  0.
    8880022    1    1    2    0    0 -0.10058470403E+03 -0.72839080362E+03  0.22928492294E+03  0.78526025901E+03  0.15294330000E+03 0.  0.
<mgrwt>
<rscale>  0 0.75104068E+03</rscale>
<asrwt>0</asrwt>
<pdfrwt beam="1">  1        1 0.18604128E+00 0.75104068E+03</pdfrwt>
<pdfrwt beam="2">  1       -1 0.10133749E+00 0.75104068E+03</pdfrwt>
<totfact> 0.10061278E+01</totfact>
</mgrwt>
</event>
<event>
 4    1  0.2731969E-009  0.1620058E+04  0.7818608E-02  0.8808320E-01
          1   -1    0    0  501    0  0.00000000000E+00  0.00000000000E+00  0.34699111669E+04  0.34699111669E+04  0.50400000000E-02 0. -1.
         -1   -1    0    0    0  501 -0.00000000000E+00 -0.00000000000E+00 -0.12984774698E+04  0.12984774698E+04  0.50400000000E-02 0.  1.
    8880022    1    1    2    0    0  0.11257714183E+04 -0.11549171339E+04  0.26262157200E+04  0.30857082709E+04  0.15294330000E+03 0.  0.
    8880022    1    1    2    0    0 -0.11257714183E+04  0.11549171339E+04 -0.45478202287E+03  0.16826803659E+04  0.15294330000E+03 0.  0.
<mgrwt>
<rscale>  0 0.16200576E+04</rscale>
<asrwt>0</asrwt>
<pdfrwt beam="1">  1        1 0.53383248E+00 0.16200576E+04</pdfrwt>
<pdfrwt beam="2">  1       -1 0.19976577E+00 0.16200576E+04</pdfrwt>
<totfact> 0.37304317E-02</totfact>
</mgrwt>
</event>
<event>
 4    1  0.2731969E-009  0.7089138E+03  0.7818608E-02  0.9702109E-01
          1   -1    0    0  501    0  0.00000000000E+00  0.00000000000E+00  0.29635728000E+04  0.29635728000E+04  0.50400000000E-02 0. -1.
         -1   -1    0    0    0  501 -0.00000000000E+00 -0.00000000000E+00 -0.23831468855E+03  0.23831468860E+03  0.50400000000E-02 0.  1.
    8880022    1    1    2    0    0 -0.61812068729E+03 -0.31159891291E+03  0.22224200019E+04  0.23327471754E+04  0.15294330000E+03 0.  0.
    8880022    1    1    2    0    0  0.61812068729E+03  0.31159891291E+03  0.50283810958E+03  0.86914031320E+03  0.15294330000E+03 0.  0.
<mgrwt>
<rscale>  0 0.70891376E+03</rscale>
<asrwt>0</asrwt>
<pdfrwt beam="1">  1        1 0.45593430E+00 0.70891376E+03</pdfrwt>
<pdfrwt beam="2">  1       -1 0.36663796E-01 0.70891376E+03</pdfrwt>
<totfact> 0.48781152E+00</totfact>
</mgrwt>
</event>
<event>
 4    1  0.2731969E-009  0.2601352E+03  0.7818608E-02  0.1107062E+00
          1   -1    0    0  501    0  0.00000000000E+00  0.00000000000E+00  0.15934423631E+04  0.15934423631E+04  0.50400000000E-02 0. -1.
         -1   -1    0    0    0  501 -0.00000000000E+00 -0.00000000000E+00 -0.15455316650E+04  0.15455316650E+04  0.50400000000E-02 0.  1.
    8880022    1    1    2    0    0  0.26874009095E+02  0.20870183519E+03  0.15717290397E+04  0.15931109489E+04  0.15294330000E+03 0.  0.
    8880022    1    1    2    0    0 -0.26874009095E+02 -0.20870183519E+03 -0.15238183416E+04  0.15458630792E+04  0.15294330000E+03 0.  0.
<mgrwt>
<rscale>  0 0.26013520E+03</rscale>
<asrwt>0</asrwt>
<pdfrwt beam="1">  1        1 0.24514498E+00 0.26013520E+03</pdfrwt>
<pdfrwt beam="2">  1       -1 0.23777410E+00 0.26013520E+03</pdfrwt>
<totfact> 0.60611160E-01</totfact>
</mgrwt>
</event>
<event>
 4    1  0.2731969E-009  0.6950210E+03  0.7818608E-02  0.9725785E-01
         -1   -1    0    0    0  501 -0.00000000000E+00  0.00000000000E+00  0.47923275110E+03  0.47923275112E+03  0.50400000000E-02 0.  1.
          1   -1    0    0  501    0  0.00000000000E+00 -0.00000000000E+00 -0.18113234442E+04  0.18113234442E+04  0.50400000000E-02 0. -1.
    8880022    1    1    2    0    0 -0.67009494591E+03 -0.10312732297E+03  0.96674786889E+02  0.70171229768E+03  0.15294330000E+03 0.  0.
    8880022    1    1    2    0    0  0.67009494591E+03  0.10312732297E+03 -0.14287654800E+04  0.15888438976E+04  0.15294330000E+03 0.  0.
<mgrwt>
<rscale>  0 0.69502096E+03</rscale>
<asrwt>0</asrwt>
<pdfrwt beam="1">  1        1 0.27866514E+00 0.69502096E+03</pdfrwt>
<pdfrwt beam="2">  1       -1 0.73728117E-01 0.69502096E+03</pdfrwt>
<totfact> 0.78175819E+00</totfact>
</mgrwt>
</event>
<event>
 4    1  0.2731969E-009  0.3980542E+03  0.7818608E-02  0.1044456E+00
         -1   -1    0    0    0  501 -0.00000000000E+00  0.00000000000E+00  0.24092581537E+03  0.24092581543E+03  0.50400000000E-02 0.  1.
          1   -1    0    0  501    0  0.00000000000E+00 -0.00000000000E+00 -0.12383228509E+04  0.12383228509E+04  0.50400000000E-02 0. -1.
    8880022    1    1    2    0    0 -0.19581656732E+03  0.31098452701E+03 -0.10051716905E+04  0.10811185339E+04  0.15294330000E+03 0. -1.
    8880022    1    1    2    0    0  0.19581656732E+03 -0.31098452701E+03  0.77746549118E+01  0.39813013243E+03  0.15294330000E+03 0.  0.
<mgrwt>
<rscale>  0 0.39805421E+03</rscale>
<asrwt>0</asrwt>
<pdfrwt beam="1">  1        1 0.19051120E+00 0.39805421E+03</pdfrwt>
<pdfrwt beam="2">  1       -1 0.37065511E-01 0.39805421E+03</pdfrwt>
<totfact> 0.75037895E+01</totfact>
</mgrwt>
</event>
<event>
 4    1  0.2731969E-009  0.1316301E+04  0.7818608E-02  0.9016737E-01
         -1   -1    0    0    0  501 -0.00000000000E+00  0.00000000000E+00  0.18613554189E+04  0.18613554189E+04  0.50400000000E-02 0.  1.
          1   -1    0    0  501    0  0.00000000000E+00 -0.00000000000E+00 -0.19541133486E+04  0.19541133487E+04  0.50400000000E-02 0. -1.
    8880022    1    1    2    0    0 -0.12680535283E+04 -0.31827241007E+03  0.13341198953E+04  0.18741730512E+04  0.15294330000E+03 0.  0.
    8880022    1    1    2    0    0  0.12680535283E+04  0.31827241007E+03 -0.14268778251E+04  0.19412957164E+04  0.15294330000E+03 0.  0.
<mgrwt>
<rscale>  0 0.13163012E+04</rscale>
<asrwt>0</asrwt>
<pdfrwt beam="1">  1        1 0.30063282E+00 0.13163012E+04</pdfrwt>
<pdfrwt beam="2">  1       -1 0.28636237E+00 0.13163012E+04</pdfrwt>
<totfact> 0.12534845E-01</totfact>
</mgrwt>
</event>
<event>
 4    1  0.2731969E-009  0.1050810E+04  0.7818608E-02  0.9254508E-01
         -1   -1    0    0    0  501 -0.00000000000E+00  0.00000000000E+00  0.62404020842E+03  0.62404020844E+03  0.50400000000E-02 0.  1.
          1   -1    0    0  501    0  0.00000000000E+00 -0.00000000000E+00 -0.21018364281E+04  0.21018364281E+04  0.50400000000E-02 0. -1.
    8880022    1    1    2    0    0 -0.59645697862E+03 -0.85149793609E+03 -0.12809056492E+04  0.16567801899E+04  0.15294330000E+03 0.  0.
    8880022    1    1    2    0    0  0.59645697862E+03  0.85149793609E+03 -0.19689057052E+03  0.10690964467E+04  0.15294330000E+03 0.  0.
<mgrwt>
<rscale>  0 0.10508098E+04</rscale>
<asrwt>0</asrwt>
<pdfrwt beam="1">  1        1 0.32335945E+00 0.10508098E+04</pdfrwt>
<pdfrwt beam="2">  1       -1 0.96006187E-01 0.10508098E+04</pdfrwt>
<totfact> 0.26717499E+00</totfact>
</mgrwt>
</event>
<event>
 4    1  0.2731969E-009  0.2529102E+03  0.7818608E-02  0.1111479E+00
          1   -1    0    0  501    0  0.00000000000E+00  0.00000000000E+00  0.21085137484E+04  0.21085137484E+04  0.50400000000E-02 0. -1.
         -1   -1    0    0    0  501 -0.00000000000E+00 -0.00000000000E+00 -0.74704455156E+03  0.74704455158E+03  0.50400000000E-02 0.  1.
    8880022    1    1    2    0    0 -0.11789238147E+03  0.16331957919E+03 -0.71775462365E+03  0.76100936351E+03  0.15294330000E+03 0.  0.
    8880022    1    1    2    0    0  0.11789238147E+03 -0.16331957919E+03  0.20792238205E+04  0.20945489365E+04  0.15294330000E+03 0.  0.
<mgrwt>
<rscale>  0 0.25291017E+03</rscale>
<asrwt>0</asrwt>
<pdfrwt beam="1">  1        1 0.32438673E+00 0.25291017E+03</pdfrwt>
<pdfrwt beam="2">  1       -1 0.11492993E+00 0.25291017E+03</pdfrwt>
<totfact> 0.21678900E+00</totfact>
</mgrwt>
</event>
<event>
 4    1  0.2731969E-009  0.1674733E+03  0.7818608E-02  0.1180509E+00
         -1   -1    0    0    0  501 -0.00000000000E+00  0.00000000000E+00  0.93838310845E+02  0.93838310981E+02  0.50400000000E-02 0.  1.
          1   -1    0    0  501    0  0.00000000000E+00 -0.00000000000E+00 -0.10022275964E+04  0.10022275964E+04  0.50400000000E-02 0. -1.
    8880022    1    1    2    0    0  0.45173091372E+02  0.51137395916E+02 -0.91329278751E+03  0.92852087224E+03  0.15294330000E+03 0.  0.
    8880022    1    1    2    0    0 -0.45173091372E+02 -0.51137395916E+02  0.49035019967E+01  0.16754503512E+03  0.15294330000E+03 0.  1.
<mgrwt>
<rscale>  0 0.16747326E+03</rscale>
<asrwt>0</asrwt>
<pdfrwt beam="1">  1        1 0.15418885E+00 0.16747326E+03</pdfrwt>
<pdfrwt beam="2">  1       -1 0.14436664E-01 0.16747326E+03</pdfrwt>
<totfact> 0.55214226E+02</totfact>
</mgrwt>
</event>
<event>
 4    1  0.2731969E-009  0.8057502E+03  0.7818608E-02  0.9551731E-01
          1   -1    0    0  501    0  0.00000000000E+00  0.00000000000E+00  0.20189933145E+04  0.20189933145E+04  0.50400000000E-02 0. -1.
         -1   -1    0    0    0  501 -0.00000000000E+00 -0.00000000000E+00 -0.62239760638E+03  0.62239760640E+03  0.50400000000E-02 0.  1.
    8880022    1    1    2    0    0 -0.78212979882E+03  0.11880530877E+03 -0.21989241541E+03  0.83521617020E+03  0.15294330000E+03 0.  0.
    8880022    1    1    2    0    0  0.78212979882E+03 -0.11880530877E+03  0.16164881236E+04  0.18061747507E+04  0.15294330000E+03 0.  0.
<mgrwt>
<rscale>  0 0.80575019E+03</rscale>
<asrwt>0</asrwt>
<pdfrwt beam="1">  1        1 0.31061436E+00 0.80575019E+03</pdfrwt>
<pdfrwt beam="2">  1       -1 0.95753478E-01 0.80575019E+03</pdfrwt>
<totfact> 0.31708404E+00</totfact>
</mgrwt>
</event>
<event>
 4    1  0.2731969E-009  0.2039390E+03  0.7818608E-02  0.1146458E+00
          1   -1    0    0  501    0  0.00000000000E+00  0.00000000000E+00  0.29124038971E+04  0.29124038971E+04  0.50400000000E-02 0. -1.
         -1   -1    0    0    0  501 -0.00000000000E+00 -0.00000000000E+00 -0.38072397630E+03  0.38072397633E+03  0.50400000000E-02 0.  1.
    8880022    1    1    2    0    0  0.12425745127E+03  0.52531302766E+02  0.28812280505E+04  0.28884366332E+04  0.15294330000E+03 0.  0.
    8880022    1    1    2    0    0 -0.12425745127E+03 -0.52531302766E+02 -0.34954812968E+03  0.40469124026E+03  0.15294330000E+03 0.  1.
<mgrwt>
<rscale>  0 0.20393897E+03</rscale>
<asrwt>0</asrwt>
<pdfrwt beam="1">  1        1 0.44806212E+00 0.20393897E+03</pdfrwt>
<pdfrwt beam="2">  1       -1 0.58572921E-01 0.20393897E+03</pdfrwt>
<totfact> 0.27044504E+00</totfact>
</mgrwt>
</event>
<event>
 4    1  0.2731969E-009  0.7545926E+03  0.7818608E-02  0.9628173E-01
         -1   -1    0    0    0  501 -0.00000000000E+00  0.00000000000E+00  0.13031646856E+04  0.13031646857E+04  0.50400000000E-02 0.  1.
          1   -1    0    0  501    0  0.00000000000E+00 -0.00000000000E+00 -0.11161322521E+04  0.11161322521E+04  0.50400000000E-02 0. -1.
    8880022    1    1    2    0    0  0.54654390750E+03 -0.49730076765E+03  0.10371347104E+04  0.12825982835E+04  0.15294330000E+03 0.  1.
    8880022    1    1    2    0    0 -0.54654390750E+03  0.49730076765E+03 -0.85010227692E+03  0.11366986542E+04  0.15294330000E+03 0.  0.
<mgrwt>
<rscale>  0 0.75459257E+03</rscale>
<asrwt>0</asrwt>
<pdfrwt beam="1">  1        1 0.17171265E+00 0.75459257E+03</pdfrwt>
<pdfrwt beam="2">  1       -1 0.20048687E+00 0.75459257E+03</pdfrwt>
<totfact> 0.19222925E+00</totfact>
</mgrwt>
</event>
<event>
 4    1  0.2731969E-009  0.6326670E+03  0.7818608E-02  0.9839858E-01
          1   -1    0    0  501    0  0.00000000000E+00  0.00000000000E+00  0.10623300478E+04  0.10623300478E+04  0.50400000000E-02 0. -1.
         -1   -1    0    0    0  501 -0.00000000000E+00 -0.00000000000E+00 -0.67942670887E+03  0.67942670888E+03  0.50400000000E-02 0.  1.
    8880022    1    1    2    0    0 -0.55490720612E+03  0.26259075406E+03 -0.38978399425E+03  0.74310102053E+03  0.15294330000E+03 0.  0.
    8880022    1    1    2    0    0  0.55490720612E+03 -0.26259075406E+03  0.77268733321E+03  0.99865573619E+03  0.15294330000E+03 0. -1.
<mgrwt>
<rscale>  0 0.63266703E+03</rscale>
<asrwt>0</asrwt>
<pdfrwt beam="1">  1        1 0.16343539E+00 0.63266703E+03</pdfrwt>
<pdfrwt beam="2">  1       -1 0.10452719E+00 0.63266703E+03</pdfrwt>
<totfact> 0.12236504E+01</totfact>
</mgrwt>
</event>
<event>
 4    1  0.2731969E-009  0.1855618E+03  0.7818608E-02  0.1162526E+00
          1   -1    0    0  501    0  0.00000000000E+00  0.00000000000E+00  0.10443233370E+04  0.10443233370E+04  0.50400000000E-02 0. -1.
         -1   -1    0    0    0  501 -0.00000000000E+00 -0.00000000000E+00 -0.38818123133E+03  0.38818123136E+03  0.50400000000E-02 0.  1.
    8880022    1    1    2    0    0 -0.34080115444E+01  0.10502340137E+03 -0.35708739947E+03  0.40242340047E+03  0.15294330000E+03 0.  0.
    8880022    1    1    2    0    0  0.34080115444E+01 -0.10502340137E+03  0.10132295052E+04  0.10300811679E+04  0.15294330000E+03 0. -1.
<mgrwt>
<rscale>  0 0.18556180E+03</rscale>
<asrwt>0</asrwt>
<pdfrwt beam="1">  1        1 0.16066513E+00 0.18556180E+03</pdfrwt>
<pdfrwt beam="2">  1       -1 0.59720189E-01 0.18556180E+03</pdfrwt>
<totfact> 0.45537037E+01</totfact>
</mgrwt>
</event>
<event>
 4    1  0.2731969E-009  0.1057859E+04  0.7818608E-02  0.9247267E-01
          1   -1    0    0  501    0  0.00000000000E+00  0.00000000000E+00  0.11888663661E+04  0.11888663661E+04  0.50400000000E-02 0. -1.
         -1   -1    0    0    0  501 -0.00000000000E+00 -0.00000000000E+00 -0.15097489294E+04  0.15097489294E+04  0.50400000000E-02 0.  1.
    8880022    1    1    2    0    0  0.48959019094E+03 -0.92518961160E+03 -0.98840023063E+03  0.14477572453E+04  0.15294330000E+03 0.  0.
    8880022    1    1    2    0    0 -0.48959019094E+03  0.92518961160E+03  0.66751766731E+03  0.12508580502E+04  0.15294330000E+03 0.  0.
<mgrwt>
<rscale>  0 0.10578592E+04</rscale>
<asrwt>0</asrwt>
<pdfrwt beam="1">  1        1 0.18290252E+00 0.10578592E+04</pdfrwt>
<pdfrwt beam="2">  1       -1 0.23226907E+00 0.10578592E+04</pdfrwt>
<totfact> 0.99175986E-01</totfact>
</mgrwt>
</event>
<event>
 4    1  0.2731969E-009  0.1289102E+04  0.7818608E-02  0.9038253E-01
          1   -1    0    0  501    0  0.00000000000E+00  0.00000000000E+00  0.12969453125E+04  0.12969453125E+04  0.50400000000E-02 0. -1.
         -1   -1    0    0    0  501 -0.00000000000E+00 -0.00000000000E+00 -0.25980230198E+04  0.25980230198E+04  0.50400000000E-02 0.  1.
    8880022    1    1    2    0    0  0.81478490218E+03 -0.98717630070E+03  0.73589370299E+03  0.14843593502E+04  0.15294330000E+03 0.  0.
    8880022    1    1    2    0    0 -0.81478490218E+03  0.98717630070E+03 -0.20369714103E+04  0.24106089821E+04  0.15294330000E+03 0.  0.
<mgrwt>
<rscale>  0 0.12891017E+04</rscale>
<asrwt>0</asrwt>
<pdfrwt beam="1">  1        1 0.19953005E+00 0.12891017E+04</pdfrwt>
<pdfrwt beam="2">  1       -1 0.39969585E+00 0.12891017E+04</pdfrwt>
<totfact> 0.63844379E-02</totfact>
</mgrwt>
</event>
<event>
 4    1  0.2731969E-009  0.1056094E+04  0.7818608E-02  0.9249075E-01
          1   -1    0    0  501    0  0.00000000000E+00  0.00000000000E+00  0.25586409712E+04  0.25586409712E+04  0.50400000000E-02 0. -1.
         -1   -1    0    0    0  501 -0.00000000000E+00 -0.00000000000E+00 -0.10543268191E+04  0.10543268191E+04  0.50400000000E-02 0.  1.
    8880022    1    1    2    0    0 -0.10442342020E+04 -0.38964472101E+02 -0.63136922672E+03  0.12304316528E+04  0.15294330000E+03 0.  0.
    8880022    1    1    2    0    0  0.10442342020E+04  0.38964472101E+02  0.21356833788E+04  0.23825361375E+04  0.15294330000E+03 0.  0.
<mgrwt>
<rscale>  0 0.10560942E+04</rscale>
<asrwt>0</asrwt>
<pdfrwt beam="1">  1        1 0.39363707E+00 0.10560942E+04</pdfrwt>
<pdfrwt beam="2">  1       -1 0.16220413E+00 0.10560942E+04</pdfrwt>
<totfact> 0.35019823E-01</totfact>
</mgrwt>
</event>
<event>
 4    1  0.2731969E-009  0.5268295E+03  0.7818608E-02  0.1007004E+00
          1   -1    0    0  501    0  0.00000000000E+00  0.00000000000E+00  0.23781348001E+04  0.23781348001E+04  0.50400000000E-02 0. -1.
         -1   -1    0    0    0  501 -0.00000000000E+00 -0.00000000000E+00 -0.25465281562E+03  0.25465281567E+03  0.50400000000E-02 0.  1.
    8880022    1    1    2    0    0  0.41811783761E+03 -0.28166486126E+03  0.92876561573E+02  0.53495357640E+03  0.15294330000E+03 0.  1.
    8880022    1    1    2    0    0 -0.41811783761E+03  0.28166486126E+03  0.20306054229E+04  0.20978340394E+04  0.15294330000E+03 0.  0.
<mgrwt>
<rscale>  0 0.52682945E+03</rscale>
<asrwt>0</asrwt>
<pdfrwt beam="1">  1        1 0.36586690E+00 0.52682945E+03</pdfrwt>
<pdfrwt beam="2">  1       -1 0.39177356E-01 0.52682945E+03</pdfrwt>
<totfact> 0.11414858E+01</totfact>
</mgrwt>
</event>
<event>
 4    1  0.2731969E-009  0.8312877E+03  0.7818608E-02  0.9515802E-01
          1   -1    0    0  501    0  0.00000000000E+00  0.00000000000E+00  0.19890324505E+04  0.19890324505E+04  0.50400000000E-02 0. -1.
         -1   -1    0    0    0  501 -0.00000000000E+00 -0.00000000000E+00 -0.77901136968E+03  0.77901136970E+03  0.50400000000E-02 0.  1.
    8880022    1    1    2    0    0 -0.38776426805E+03  0.71922625550E+03 -0.42515028733E+03  0.93369799937E+03  0.15294330000E+03 0.  0.
    8880022    1    1    2    0    0  0.38776426805E+03 -0.71922625550E+03  0.16351713682E+04  0.18343458209E+04  0.15294330000E+03 0.  0.
<mgrwt>
<rscale>  0 0.83128767E+03</rscale>
<asrwt>0</asrwt>
<pdfrwt beam="1">  1        1 0.30600499E+00 0.83128767E+03</pdfrwt>
<pdfrwt beam="2">  1       -1 0.11984790E+00 0.83128767E+03</pdfrwt>
<totfact> 0.19550853E+00</totfact>
</mgrwt>
</event>
<event>
 4    1  0.2731969E-009  0.8476621E+03  0.7818608E-02  0.9493480E-01
          1   -1    0    0  501    0  0.00000000000E+00  0.00000000000E+00  0.15542488107E+04  0.15542488108E+04  0.50400000000E-02 0. -1.
         -1   -1    0    0    0  501 -0.00000000000E+00 -0.00000000000E+00 -0.80963939810E+03  0.80963939812E+03  0.50400000000E-02 0.  1.
    8880022    1    1    2    0    0 -0.82568542018E+03 -0.11568459299E+03  0.11464588370E+04  0.14257976210E+04  0.15294330000E+03 0.  0.
    8880022    1    1    2    0    0  0.82568542018E+03  0.11568459299E+03 -0.40184942435E+03  0.93809058786E+03  0.15294330000E+03 0.  0.
<mgrwt>
<rscale>  0 0.84766207E+03</rscale>
<asrwt>0</asrwt>
<pdfrwt beam="1">  1        1 0.23911520E+00 0.84766207E+03</pdfrwt>
<pdfrwt beam="2">  1       -1 0.12455991E+00 0.84766207E+03</pdfrwt>
<totfact> 0.34815508E+00</totfact>
</mgrwt>
</event>
<event>
 4    1  0.2731969E-009  0.1284599E+04  0.7818608E-02  0.9041868E-01
         -1   -1    0    0    0  501 -0.00000000000E+00  0.00000000000E+00  0.19453226651E+04  0.19453226651E+04  0.50400000000E-02 0.  1.
          1   -1    0    0  501    0  0.00000000000E+00 -0.00000000000E+00 -0.15744576384E+04  0.15744576384E+04  0.50400000000E-02 0. -1.
    8880022    1    1    2    0    0  0.11837411090E+04  0.47493212326E+03 -0.10097628845E+04  0.16339572426E+04  0.15294330000E+03 0.  0.
    8880022    1    1    2    0    0 -0.11837411090E+04 -0.47493212326E+03  0.13806279112E+04  0.18858230609E+04  0.15294330000E+03 0.  0.
<mgrwt>
<rscale>  0 0.12845992E+04</rscale>
<asrwt>0</asrwt>
<pdfrwt beam="1">  1        1 0.24222425E+00 0.12845992E+04</pdfrwt>
<pdfrwt beam="2">  1       -1 0.29928041E+00 0.12845992E+04</pdfrwt>
<totfact> 0.18852377E-01</totfact>
</mgrwt>
</event>
<event>
 4    1  0.2731969E-009  0.1299751E+04  0.7818608E-02  0.9029762E-01
          1   -1    0    0  501    0  0.00000000000E+00  0.00000000000E+00  0.93639068568E+03  0.93639068569E+03  0.50400000000E-02 0. -1.
         -1   -1    0    0    0  501 -0.00000000000E+00 -0.00000000000E+00 -0.36471222238E+04  0.36471222238E+04  0.50400000000E-02 0.  1.
    8880022    1    1    2    0    0  0.12808966068E+04 -0.15895324312E+03  0.27376950614E+03  0.13282709235E+04  0.15294330000E+03 0.  0.
    8880022    1    1    2    0    0 -0.12808966068E+04  0.15895324312E+03 -0.29845010443E+04  0.32552419859E+04  0.15294330000E+03 0.  0.
<mgrwt>
<rscale>  0 0.12997515E+04</rscale>
<asrwt>0</asrwt>
<pdfrwt beam="1">  1        1 0.14406011E+00 0.12997515E+04</pdfrwt>
<pdfrwt beam="2">  1       -1 0.56109572E+00 0.12997515E+04</pdfrwt>
<totfact> 0.10652626E-02</totfact>
</mgrwt>
</event>
<event>
 4    1  0.2731969E-009  0.9161903E+03  0.7818608E-02  0.9405566E-01
         -1   -1    0    0    0  501 -0.00000000000E+00  0.00000000000E+00  0.10234930190E+04  0.10234930190E+04  0.50400000000E-02 0.  1.
          1   -1    0    0  501    0  0.00000000000E+00 -0.00000000000E+00 -0.16432566911E+04  0.16432566911E+04  0.50400000000E-02 0. -1.
    8880022    1    1    2    0    0  0.31096513762E+03  0.84812366569E+03  0.63381172774E+03  0.11140565642E+04  0.15294330000E+03 0.  0.
    8880022    1    1    2    0    0 -0.31096513762E+03 -0.84812366569E+03 -0.12535753999E+04  0.15526931459E+04  0.15294330000E+03 0.  0.
<mgrwt>
<rscale>  0 0.91619033E+03</rscale>
<asrwt>0</asrwt>
<pdfrwt beam="1">  1        1 0.25280872E+00 0.91619033E+03</pdfrwt>
<pdfrwt beam="2">  1       -1 0.15746046E+00 0.91619033E+03</pdfrwt>
<totfact> 0.16240102E+00</totfact>
</mgrwt>
</event>
<event>
 4    1  0.2731969E-009  0.2902314E+03  0.7818608E-02  0.1090228E+00
          1   -1    0    0  501    0  0.00000000000E+00  0.00000000000E+00  0.11361066732E+04  0.11361066732E+04  0.50400000000E-02 0. -1.
         -1   -1    0    0    0  501 -0.00000000000E+00 -0.00000000000E+00 -0.27555169871E+03  0.27555169876E+03  0.50400000000E-02 0.  1.
    8880022    1    1    2    0    0  0.20299365114E+03 -0.14012916454E+03 -0.17316692714E+03  0.33796603798E+03  0.15294330000E+03 0.  0.
    8880022    1    1    2    0    0 -0.20299365114E+03  0.14012916454E+03  0.10337219016E+04  0.10736923340E+04  0.15294330000E+03 0.  0.
<mgrwt>
<rscale>  0 0.29023139E+03</rscale>
<asrwt>0</asrwt>
<pdfrwt beam="1">  1        1 0.17478564E+00 0.29023139E+03</pdfrwt>
<pdfrwt beam="2">  1       -1 0.42392569E-01 0.29023139E+03</pdfrwt>
<totfact> 0.71331245E+01</totfact>
</mgrwt>
</event>
<event>
 4    1  0.2731969E-009  0.1057737E+04  0.7818608E-02  0.9247392E-01
         -1   -1    0    0    0  501 -0.00000000000E+00  0.00000000000E+00  0.17480536918E+04  0.17480536918E+04  0.50400000000E-02 0.  1.
          1   -1    0    0  501    0  0.00000000000E+00 -0.00000000000E+00 -0.10938225812E+04  0.10938225812E+04  0.50400000000E-02 0. -1.
    8880022    1    1    2    0    0  0.41474664360E+03  0.96093754667E+03  0.12423455836E+04  0.16316341346E+04  0.15294330000E+03 0.  0.
    8880022    1    1    2    0    0 -0.41474664360E+03 -0.96093754667E+03 -0.58811447306E+03  0.12102421383E+04  0.15294330000E+03 0.  0.
<mgrwt>
<rscale>  0 0.10577369E+04</rscale>
<asrwt>0</asrwt>
<pdfrwt beam="1">  1        1 0.16828040E+00 0.10577369E+04</pdfrwt>
<pdfrwt beam="2">  1       -1 0.26893134E+00 0.10577369E+04</pdfrwt>
<totfact> 0.67406363E-01</totfact>
</mgrwt>
</event>
<event>
 4    1  0.2731969E-009  0.6650778E+03  0.7818608E-02  0.9778891E-01
         -1   -1    0    0    0  501 -0.00000000000E+00  0.00000000000E+00  0.17631326247E+04  0.17631326247E+04  0.50400000000E-02 0.  1.
          1   -1    0    0  501    0  0.00000000000E+00 -0.00000000000E+00 -0.21961471897E+04  0.21961471897E+04  0.50400000000E-02 0. -1.
    8880022    1    1    2    0    0  0.63173405444E+03  0.14088638226E+03  0.16466327598E+04  0.17758738657E+04  0.15294330000E+03 0.  0.
    8880022    1    1    2    0    0 -0.63173405444E+03 -0.14088638226E+03 -0.20796473248E+04  0.21834059487E+04  0.15294330000E+03 0.  0.
<mgrwt>
<rscale>  0 0.66507785E+03</rscale>
<asrwt>0</asrwt>
<pdfrwt beam="1">  1        1 0.33786880E+00 0.66507785E+03</pdfrwt>
<pdfrwt beam="2">  1       -1 0.27125117E+00 0.66507785E+03</pdfrwt>
<totfact> 0.12345952E-01</totfact>
</mgrwt>
</event>
<event>
 4    1  0.2731969E-009  0.3899558E+03  0.7818608E-02  0.1047314E+00
         -1   -1    0    0    0  501 -0.00000000000E+00  0.00000000000E+00  0.77834101440E+03  0.77834101442E+03  0.50400000000E-02 0.  1.
          1   -1    0    0  501    0  0.00000000000E+00 -0.00000000000E+00 -0.97397094581E+03  0.97397094582E+03  0.50400000000E-02 0. -1.
    8880022    1    1    2    0    0  0.29209468672E+03 -0.20821754698E+03 -0.88118242274E+03  0.96361193851E+03  0.15294330000E+03 0.  0.
    8880022    1    1    2    0    0 -0.29209468672E+03  0.20821754698E+03  0.68555249134E+03  0.78870002173E+03  0.15294330000E+03 0.  0.
<mgrwt>
<rscale>  0 0.38995577E+03</rscale>
<asrwt>0</asrwt>
<pdfrwt beam="1">  1        1 0.14984168E+00 0.38995577E+03</pdfrwt>
<pdfrwt beam="2">  1       -1 0.11974477E+00 0.38995577E+03</pdfrwt>
<totfact> 0.10909527E+01</totfact>
</mgrwt>
</event>
<event>
 4    1  0.2731969E-009  0.3760788E+03  0.7818608E-02  0.1052393E+00
         -1   -1    0    0    0  501 -0.00000000000E+00  0.00000000000E+00  0.14931020526E+03  0.14931020534E+03  0.50400000000E-02 0.  1.
          1   -1    0    0  501    0  0.00000000000E+00 -0.00000000000E+00 -0.13646827354E+04  0.13646827354E+04  0.50400000000E-02 0. -1.
    8880022    1    1    2    0    0  0.22981886244E+03 -0.25539552678E+03 -0.10263518535E+04  0.10930843357E+04  0.15294330000E+03 0.  0.
    8880022    1    1    2    0    0 -0.22981886244E+03  0.25539552678E+03 -0.18902067662E+03  0.42090860509E+03  0.15294330000E+03 0.  0.
<mgrwt>
<rscale>  0 0.37607877E+03</rscale>
<asrwt>0</asrwt>
<pdfrwt beam="1">  1        1 0.20995118E+00 0.37607877E+03</pdfrwt>
<pdfrwt beam="2">  1       -1 0.22970802E-01 0.37607877E+03</pdfrwt>
<totfact> 0.13995961E+02</totfact>
</mgrwt>
</event>
<event>
 4    1  0.2731969E-009  0.7507204E+03  0.7818608E-02  0.9634221E-01
          1   -1    0    0  501    0  0.00000000000E+00  0.00000000000E+00  0.12774645767E+04  0.12774645768E+04  0.50400000000E-02 0. -1.
         -1   -1    0    0    0  501 -0.00000000000E+00 -0.00000000000E+00 -0.12446830704E+04  0.12446830704E+04  0.50400000000E-02 0.  1.
    8880022    1    1    2    0    0 -0.93212196088E+02  0.72904109327E+03  0.10296187050E+04  0.12742432106E+04  0.15294330000E+03 0.  0.
    8880022    1    1    2    0    0  0.93212196088E+02 -0.72904109327E+03 -0.99683719861E+03  0.12479044365E+04  0.15294330000E+03 0.  0.
<mgrwt>
<rscale>  0 0.75072038E+03</rscale>
<asrwt>0</asrwt>
<pdfrwt beam="1">  1        1 0.19653301E+00 0.75072038E+03</pdfrwt>
<pdfrwt beam="2">  1       -1 0.19148970E+00 0.75072038E+03</pdfrwt>
<totfact> 0.16949203E+00</totfact>
</mgrwt>
</event>
<event>
 4    1  0.2731969E-009  0.3571568E+03  0.7818608E-02  0.1059715E+00
         -1   -1    0    0    0  501 -0.00000000000E+00  0.00000000000E+00  0.92521322273E+03  0.92521322274E+03  0.50400000000E-02 0.  1.
          1   -1    0    0  501    0  0.00000000000E+00 -0.00000000000E+00 -0.81546204858E+03  0.81546204860E+03  0.50400000000E-02 0. -1.
    8880022    1    1    2    0    0 -0.25739808353E+03  0.19471920905E+03 -0.73848276256E+03  0.82031566326E+03  0.15294330000E+03 0.  0.
    8880022    1    1    2    0    0  0.25739808353E+03 -0.19471920905E+03  0.84823393671E+03  0.92035960808E+03  0.15294330000E+03 0.  1.
<mgrwt>
<rscale>  0 0.35715682E+03</rscale>
<asrwt>0</asrwt>
<pdfrwt beam="1">  1        1 0.12545570E+00 0.35715682E+03</pdfrwt>
<pdfrwt beam="2">  1       -1 0.14234050E+00 0.35715682E+03</pdfrwt>
<totfact> 0.95888690E+00</totfact>
</mgrwt>
</event>
<event>
 4    1  0.2731969E-009  0.1524667E+04  0.7818608E-02  0.8868214E-01
          1   -1    0    0  501    0  0.00000000000E+00  0.00000000000E+00  0.15989350604E+04  0.15989350604E+04  0.50400000000E-02 0. -1.
         -1   -1    0    0    0  501 -0.00000000000E+00 -0.00000000000E+00 -0.17996971518E+04  0.17996971519E+04  0.50400000000E-02 0.  1.
    8880022    1    1    2    0    0  0.35544466531E+03  0.14747460722E+04  0.64455298767E+03  0.16553117817E+04  0.15294330000E+03 0.  0.
    8880022    1    1    2    0    0 -0.35544466531E+03 -0.14747460722E+04 -0.84531507913E+03  0.17433204306E+04  0.15294330000E+03 0.  0.
<mgrwt>
<rscale>  0 0.15246667E+04</rscale>
<asrwt>0</asrwt>
<pdfrwt beam="1">  1        1 0.24599001E+00 0.15246667E+04</pdfrwt>
<pdfrwt beam="2">  1       -1 0.27687648E+00 0.15246667E+04</pdfrwt>
<totfact> 0.24554841E-01</totfact>
</mgrwt>
</event>
<event>
 4    1  0.2731969E-009  0.2018441E+03  0.7818608E-02  0.1148192E+00
          1   -1    0    0  501    0  0.00000000000E+00  0.00000000000E+00  0.12681662176E+04  0.12681662176E+04  0.50400000000E-02 0. -1.
         -1   -1    0    0    0  501 -0.00000000000E+00 -0.00000000000E+00 -0.49594485398E+03  0.49594485401E+03  0.50400000000E-02 0.  1.
    8880022    1    1    2    0    0 -0.11617517863E+03  0.62070235253E+02 -0.46689801772E+03  0.50865980596E+03  0.15294330000E+03 0.  0.
    8880022    1    1    2    0    0  0.11617517863E+03 -0.62070235253E+02  0.12391193813E+04  0.12554512656E+04  0.15294330000E+03 0.  0.
<mgrwt>
<rscale>  0 0.20184410E+03</rscale>
<asrwt>0</asrwt>
<pdfrwt beam="1">  1        1 0.19510250E+00 0.20184410E+03</pdfrwt>
<pdfrwt beam="2">  1       -1 0.76299208E-01 0.20184410E+03</pdfrwt>
<totfact> 0.19400356E+01</totfact>
</mgrwt>
</event>
<event>
 4    1  0.2731969E-009  0.6873418E+03  0.7818608E-02  0.9739128E-01
          1   -1    0    0  501    0  0.00000000000E+00  0.00000000000E+00  0.12811890612E+04  0.12811890612E+04  0.50400000000E-02 0. -1.
         -1   -1    0    0    0  501 -0.00000000000E+00 -0.00000000000E+00 -0.92919537743E+03  0.92919537745E+03  0.50400000000E-02 0.  1.
    8880022    1    1    2    0    0 -0.11858967660E+03  0.65953289430E+03 -0.68232634021E+03  0.96850815051E+03  0.15294330000E+03 0.  0.
    8880022    1    1    2    0    0  0.11858967660E+03 -0.65953289430E+03  0.10343200240E+04  0.12418762882E+04  0.15294330000E+03 0.  0.
<mgrwt>
<rscale>  0 0.68734184E+03</rscale>
<asrwt>0</asrwt>
<pdfrwt beam="1">  1        1 0.19710601E+00 0.68734184E+03</pdfrwt>
<pdfrwt beam="2">  1       -1 0.14295314E+00 0.68734184E+03</pdfrwt>
<totfact> 0.38954677E+00</totfact>
</mgrwt>
</event>
<event>
 4    1  0.2731969E-009  0.1023346E+04  0.7818608E-02  0.9283303E-01
          1   -1    0    0  501    0  0.00000000000E+00  0.00000000000E+00  0.15550407347E+04  0.15550407347E+04  0.50400000000E-02 0. -1.
         -1   -1    0    0    0  501 -0.00000000000E+00 -0.00000000000E+00 -0.14441271167E+04  0.14441271167E+04  0.50400000000E-02 0.  1.
    8880022    1    1    2    0    0 -0.64778421483E+03 -0.77731693695E+03 -0.10400248632E+04  0.14590714097E+04  0.15294330000E+03 0.  0.
    8880022    1    1    2    0    0  0.64778421483E+03  0.77731693695E+03  0.11509384811E+04  0.15400964417E+04  0.15294330000E+03 0.  0.
<mgrwt>
<rscale>  0 0.10233463E+04</rscale>
<asrwt>0</asrwt>
<pdfrwt beam="1">  1        1 0.23923703E+00 0.10233463E+04</pdfrwt>
<pdfrwt beam="2">  1       -1 0.22217340E+00 0.10233463E+04</pdfrwt>
<totfact> 0.64120584E-01</totfact>
</mgrwt>
</event>
<event>
 4    1  0.2731969E-009  0.8081389E+03  0.7818608E-02  0.9548311E-01
         -1   -1    0    0    0  501 -0.00000000000E+00  0.00000000000E+00  0.95084752005E+03  0.95084752006E+03  0.50400000000E-02 0.  1.
          1   -1    0    0  501    0  0.00000000000E+00 -0.00000000000E+00 -0.79231082460E+03  0.79231082462E+03  0.50400000000E-02 0. -1.
    8880022    1    1    2    0    0  0.73530344520E+03 -0.29837160045E+03 -0.23871708420E+03  0.84265904599E+03  0.15294330000E+03 0.  0.
    8880022    1    1    2    0    0 -0.73530344520E+03  0.29837160045E+03  0.39725377965E+03  0.90049929869E+03  0.15294330000E+03 0.  0.
<mgrwt>
<rscale>  0 0.80813886E+03</rscale>
<asrwt>0</asrwt>
<pdfrwt beam="1">  1        1 0.12189397E+00 0.80813886E+03</pdfrwt>
<pdfrwt beam="2">  1       -1 0.14628423E+00 0.80813886E+03</pdfrwt>
<totfact> 0.85829741E+00</totfact>
</mgrwt>
</event>
<event>
 4    1  0.2731969E-009  0.7274908E+03  0.7818608E-02  0.9671341E-01
          1   -1    0    0  501    0  0.00000000000E+00  0.00000000000E+00  0.42565400120E+03  0.42565400123E+03  0.50400000000E-02 0. -1.
         -1   -1    0    0    0  501 -0.00000000000E+00 -0.00000000000E+00 -0.19905330704E+04  0.19905330704E+04  0.50400000000E-02 0.  1.
    8880022    1    1    2    0    0 -0.64871516427E+03 -0.29158161759E+03 -0.15225990177E+04  0.16874687036E+04  0.15294330000E+03 0.  0.
    8880022    1    1    2    0    0  0.64871516427E+03  0.29158161759E+03 -0.42280051491E+02  0.72871836799E+03  0.15294330000E+03 0.  0.
<mgrwt>
<rscale>  0 0.72749080E+03</rscale>
<asrwt>0</asrwt>
<pdfrwt beam="1">  1        1 0.65485232E-01 0.72749080E+03</pdfrwt>
<pdfrwt beam="2">  1       -1 0.30623585E+00 0.72749080E+03</pdfrwt>
<totfact> 0.17558726E+00</totfact>
</mgrwt>
</event>
<event>
 4    1  0.2731969E-009  0.9891544E+03  0.7818608E-02  0.9320521E-01
         -1   -1    0    0    0  501 -0.00000000000E+00  0.00000000000E+00  0.14659714543E+04  0.14659714543E+04  0.50400000000E-02 0.  1.
          1   -1    0    0  501    0  0.00000000000E+00 -0.00000000000E+00 -0.67818084066E+03  0.67818084067E+03  0.50400000000E-02 0. -1.
    8880022    1    1    2    0    0  0.97216420735E+02  0.97241129895E+03  0.25888427851E+03  0.10224712658E+04  0.15294330000E+03 0.  0.
    8880022    1    1    2    0    0 -0.97216420735E+02 -0.97241129895E+03  0.52890633514E+03  0.11216810292E+04  0.15294330000E+03 0.  0.
<mgrwt>
<rscale>  0 0.98915440E+03</rscale>
<asrwt>0</asrwt>
<pdfrwt beam="1">  1        1 0.10433551E+00 0.98915440E+03</pdfrwt>
<pdfrwt beam="2">  1       -1 0.22553407E+00 0.98915440E+03</pdfrwt>
<totfact> 0.29096309E+00</totfact>
</mgrwt>
</event>
<event>
 4    1  0.2731969E-009  0.6799398E+03  0.7818608E-02  0.9752166E-01
          1   -1    0    0  501    0  0.00000000000E+00  0.00000000000E+00  0.15310717838E+04  0.15310717838E+04  0.50400000000E-02 0. -1.
         -1   -1    0    0    0  501 -0.00000000000E+00 -0.00000000000E+00 -0.59487146201E+03  0.59487146204E+03  0.50400000000E-02 0.  1.
    8880022    1    1    2    0    0  0.65265899463E+03 -0.11385402391E+03  0.12139997353E+04  0.13914429605E+04  0.15294330000E+03 0.  0.
    8880022    1    1    2    0    0 -0.65265899463E+03  0.11385402391E+03 -0.27779941349E+03  0.73450028535E+03  0.15294330000E+03 0.  0.
<mgrwt>
<rscale>  0 0.67993982E+03</rscale>
<asrwt>0</asrwt>
<pdfrwt beam="1">  1        1 0.23554950E+00 0.67993982E+03</pdfrwt>
<pdfrwt beam="2">  1       -1 0.91518689E-01 0.67993982E+03</pdfrwt>
<totfact> 0.76259931E+00</totfact>
</mgrwt>
</event>
<event>
 4    1  0.2871480E-008  0.1112509E+04  0.7818608E-02  0.9193085E-01
         -1   -1    0    0    0  501 -0.00000000000E+00  0.00000000000E+00  0.16829956067E+04  0.16829956067E+04  0.50400000000E-02 0.  1.
          1   -1    0    0  501    0  0.00000000000E+00 -0.00000000000E+00 -0.34503176005E+04  0.34503176005E+04  0.50400000000E-02 0. -1.
    8880022    1    1    2    0    0  0.74088531673E+03 -0.81570461270E+03  0.13930949215E+04  0.17828040221E+04  0.15294330000E+03 0.  0.
    8880022    1    1    2    0    0 -0.74088531673E+03  0.81570461270E+03 -0.31604169154E+04  0.33505091852E+04  0.15294330000E+03 0.  0.
<mgrwt>
<rscale>  0 0.11125092E+04</rscale>
<asrwt>0</asrwt>
<pdfrwt beam="1">  1        1 0.53081809E+00 0.11125092E+04</pdfrwt>
<pdfrwt beam="2">  1       -1 0.25892240E+00 0.11125092E+04</pdfrwt>
<totfact> 0.16981598E-02</totfact>
</mgrwt>
</event>
<event>
 4    1  0.2731969E-009  0.6369541E+03  0.7818608E-02  0.9831572E-01
          1   -1    0    0  501    0  0.00000000000E+00  0.00000000000E+00  0.27540542086E+04  0.27540542086E+04  0.50400000000E-02 0. -1.
         -1   -1    0    0    0  501 -0.00000000000E+00 -0.00000000000E+00 -0.27732323702E+03  0.27732323707E+03  0.50400000000E-02 0.  1.
    8880022    1    1    2    0    0  0.42859612875E+03 -0.44567272770E+03  0.20058821263E+03  0.66779196300E+03  0.15294330000E+03 0.  0.
    8880022    1    1    2    0    0 -0.42859612875E+03  0.44567272770E+03  0.22761427589E+04  0.23635854827E+04  0.15294330000E+03 0. -1.
<mgrwt>
<rscale>  0 0.63695406E+03</rscale>
<asrwt>0</asrwt>
<pdfrwt beam="1">  1        1 0.42370065E+00 0.63695406E+03</pdfrwt>
<pdfrwt beam="2">  1       -1 0.42665114E-01 0.63695406E+03</pdfrwt>
<totfact> 0.52831550E+00</totfact>
</mgrwt>
</event>
<event>
 4    1  0.2731969E-009  0.4723929E+03  0.7818608E-02  0.1021247E+00
          1   -1    0    0  501    0  0.00000000000E+00  0.00000000000E+00  0.15008160548E+04  0.15008160548E+04  0.50400000000E-02 0. -1.
         -1   -1    0    0    0  501 -0.00000000000E+00 -0.00000000000E+00 -0.42359650749E+03  0.42359650752E+03  0.50400000000E-02 0.  1.
    8880022    1    1    2    0    0 -0.23751380005E+03 -0.37861669253E+03 -0.23653921851E+03  0.52830470373E+03  0.15294330000E+03 0.  0.
    8880022    1    1    2    0    0  0.23751380005E+03  0.37861669253E+03  0.13137587658E+04  0.13961078586E+04  0.15294330000E+03 0.  0.
<mgrwt>
<rscale>  0 0.47239291E+03</rscale>
<asrwt>0</asrwt>
<pdfrwt beam="1">  1        1 0.23089478E+00 0.47239291E+03</pdfrwt>
<pdfrwt beam="2">  1       -1 0.65168694E-01 0.47239291E+03</pdfrwt>
<totfact> 0.16951703E+01</totfact>
</mgrwt>
</event>
<event>
 4    1  0.2731969E-009  0.6043924E+03  0.7818608E-02  0.9896335E-01
         -1   -1    0    0    0  501 -0.00000000000E+00  0.00000000000E+00  0.71223423663E+03  0.71223423665E+03  0.50400000000E-02 0.  1.
          1   -1    0    0  501    0  0.00000000000E+00 -0.00000000000E+00 -0.55129619674E+03  0.55129619677E+03  0.50400000000E-02 0. -1.
    8880022    1    1    2    0    0  0.49328414646E+03 -0.31395744648E+03 -0.86303496975E+02  0.61052311500E+03  0.15294330000E+03 0.  1.
    8880022    1    1    2    0    0 -0.49328414646E+03  0.31395744648E+03  0.24724153687E+03  0.65300731842E+03  0.15294330000E+03 0.  0.
<mgrwt>
<rscale>  0 0.60439241E+03</rscale>
<asrwt>0</asrwt>
<pdfrwt beam="1">  1        1 0.84814799E-01 0.60439241E+03</pdfrwt>
<pdfrwt beam="2">  1       -1 0.10957450E+00 0.60439241E+03</pdfrwt>
<totfact> 0.30981018E+01</totfact>
</mgrwt>
</event>
<event>
 4    1  0.2731969E-009  0.2951296E+03  0.7818608E-02  0.1087701E+00
         -1   -1    0    0    0  501 -0.00000000000E+00  0.00000000000E+00  0.94092927632E+02  0.94092927767E+02  0.50400000000E-02 0.  1.
          1   -1    0    0  501    0  0.00000000000E+00 -0.00000000000E+00 -0.19861103380E+04  0.19861103380E+04  0.50400000000E-02 0. -1.
    8880022    1    1    2    0    0  0.24239907177E+03 -0.70373934403E+02 -0.18601171400E+03  0.34885786705E+03  0.15294330000E+03 0.  0.
    8880022    1    1    2    0    0 -0.24239907177E+03  0.70373934403E+02 -0.17060056964E+04  0.17313453987E+04  0.15294330000E+03 0. -1.
<mgrwt>
<rscale>  0 0.29512955E+03</rscale>
<asrwt>0</asrwt>
<pdfrwt beam="1">  1        1 0.30555541E+00 0.29512955E+03</pdfrwt>
<pdfrwt beam="2">  1       -1 0.14475837E-01 0.29512955E+03</pdfrwt>
<totfact> 0.11702608E+02</totfact>
</mgrwt>
</event>
<event>
 4    1  0.2731969E-009  0.9433551E+03  0.7818608E-02  0.9372951E-01
          1   -1    0    0  501    0  0.00000000000E+00  0.00000000000E+00  0.28537899046E+04  0.28537899046E+04  0.50400000000E-02 0. -1.
         -1   -1    0    0    0  501 -0.00000000000E+00 -0.00000000000E+00 -0.53839199840E+03  0.53839199843E+03  0.50400000000E-02 0.  1.
    8880022    1    1    2    0    0  0.81221370693E+03 -0.45479228486E+03  0.22579357350E+04  0.24470783731E+04  0.15294330000E+03 0.  0.
    8880022    1    1    2    0    0 -0.81221370693E+03  0.45479228486E+03  0.57462171255E+02  0.94510352990E+03  0.15294330000E+03 0.  0.
<mgrwt>
<rscale>  0 0.94335507E+03</rscale>
<asrwt>0</asrwt>
<pdfrwt beam="1">  1        1 0.43904460E+00 0.94335507E+03</pdfrwt>
<pdfrwt beam="2">  1       -1 0.82829538E-01 0.94335507E+03</pdfrwt>
<totfact> 0.11429213E+00</totfact>
</mgrwt>
</event>
<event>
 4    1  0.2731969E-009  0.1730901E+04  0.7818608E-02  0.8743934E-01
          1   -1    0    0  501    0  0.00000000000E+00  0.00000000000E+00  0.13195699701E+04  0.13195699701E+04  0.50400000000E-02 0. -1.
         -1   -1    0    0    0  501 -0.00000000000E+00 -0.00000000000E+00 -0.28302983470E+04  0.28302983470E+04  0.50400000000E-02 0.  1.
    8880022    1    1    2    0    0 -0.16413497805E+04 -0.52782465846E+03  0.16746819841E+03  0.17389839627E+04  0.15294330000E+03 0.  0.
    8880022    1    1    2    0    0  0.16413497805E+04  0.52782465846E+03 -0.16781965753E+04  0.24108843544E+04  0.15294330000E+03 0.  0.
<mgrwt>
<rscale>  0 0.17309014E+04</rscale>
<asrwt>0</asrwt>
<pdfrwt beam="1">  1        1 0.20301077E+00 0.17309014E+04</pdfrwt>
<pdfrwt beam="2">  1       -1 0.43543051E+00 0.17309014E+04</pdfrwt>
<totfact> 0.32919893E-02</totfact>
</mgrwt>
</event>
<event>
 4    1  0.2731969E-009  0.3715755E+03  0.7818608E-02  0.1054092E+00
         -1   -1    0    0    0  501 -0.00000000000E+00  0.00000000000E+00  0.47125245962E+03  0.47125245964E+03  0.50400000000E-02 0.  1.
          1   -1    0    0  501    0  0.00000000000E+00 -0.00000000000E+00 -0.11848739259E+04  0.11848739259E+04  0.50400000000E-02 0. -1.
    8880022    1    1    2    0    0 -0.33308607590E+03  0.61076699952E+02  0.36161784044E+03  0.51849379242E+03  0.15294330000E+03 0.  0.
    8880022    1    1    2    0    0  0.33308607590E+03 -0.61076699952E+02 -0.10752393067E+04  0.11376325931E+04  0.15294330000E+03 0. -1.
<mgrwt>
<rscale>  0 0.37157550E+03</rscale>
<asrwt>0</asrwt>
<pdfrwt beam="1">  1        1 0.18228830E+00 0.37157550E+03</pdfrwt>
<pdfrwt beam="2">  1       -1 0.72500379E-01 0.37157550E+03</pdfrwt>
<totfact> 0.23153974E+01</totfact>
</mgrwt>
</event>
<event>
 4    1  0.2731969E-009  0.4629400E+03  0.7818608E-02  0.1023932E+00
         -1   -1    0    0    0  501 -0.00000000000E+00  0.00000000000E+00  0.94811030757E+03  0.94811030758E+03  0.50400000000E-02 0.  1.
          1   -1    0    0  501    0  0.00000000000E+00 -0.00000000000E+00 -0.98096130836E+03  0.98096130837E+03  0.50400000000E-02 0. -1.
    8880022    1    1    2    0    0  0.43681734021E+03 -0.10603339429E+02 -0.86256596334E+03  0.97894510247E+03  0.15294330000E+03 0.  0.
    8880022    1    1    2    0    0 -0.43681734021E+03  0.10603339429E+02  0.82971496255E+03  0.95012651348E+03  0.15294330000E+03 0.  0.
<mgrwt>
<rscale>  0 0.46294003E+03</rscale>
<asrwt>0</asrwt>
<pdfrwt beam="1">  1        1 0.15091712E+00 0.46294003E+03</pdfrwt>
<pdfrwt beam="2">  1       -1 0.14586312E+00 0.46294003E+03</pdfrwt>
<totfact> 0.64424324E+00</totfact>
</mgrwt>
</event>
<event>
 4    1  0.2731969E-009  0.5100080E+03  0.7818608E-02  0.1011199E+00
         -1   -1    0    0    0  501 -0.00000000000E+00  0.00000000000E+00  0.38461899644E+03  0.38461899647E+03  0.50400000000E-02 0.  1.
          1   -1    0    0  501    0  0.00000000000E+00 -0.00000000000E+00 -0.10622552875E+04  0.10622552875E+04  0.50400000000E-02 0. -1.
    8880022    1    1    2    0    0 -0.88580881617E+02  0.47840357866E+03 -0.77490090501E+03  0.92767430828E+03  0.15294330000E+03 0.  0.
    8880022    1    1    2    0    0  0.88580881617E+02 -0.47840357866E+03  0.97264613915E+02  0.51919997573E+03  0.15294330000E+03 0.  0.
<mgrwt>
<rscale>  0 0.51000805E+03</rscale>
<asrwt>0</asrwt>
<pdfrwt beam="1">  1        1 0.16342389E+00 0.51000805E+03</pdfrwt>
<pdfrwt beam="2">  1       -1 0.59172154E-01 0.51000805E+03</pdfrwt>
<totfact> 0.41469042E+01</totfact>
</mgrwt>
</event>
<event>
 4    1  0.2731969E-009  0.1055405E+04  0.7818608E-02  0.9249782E-01
         -1   -1    0    0    0  501 -0.00000000000E+00  0.00000000000E+00  0.13077055518E+04  0.13077055518E+04  0.50400000000E-02 0.  1.
          1   -1    0    0  501    0  0.00000000000E+00 -0.00000000000E+00 -0.19928960829E+04  0.19928960830E+04  0.50400000000E-02 0. -1.
    8880022    1    1    2    0    0  0.94023167820E+03  0.45436928768E+03  0.90618352916E+03  0.13910597758E+04  0.15294330000E+03 0.  0.
    8880022    1    1    2    0    0 -0.94023167820E+03 -0.45436928768E+03 -0.15913740603E+04  0.19095418590E+04  0.15294330000E+03 0.  0.
<mgrwt>
<rscale>  0 0.10554045E+04</rscale>
<asrwt>0</asrwt>
<pdfrwt beam="1">  1        1 0.30659940E+00 0.10554045E+04</pdfrwt>
<pdfrwt beam="2">  1       -1 0.20118547E+00 0.10554045E+04</pdfrwt>
<totfact> 0.44652887E-01</totfact>
</mgrwt>
</event>
<event>
 4    1  0.2731969E-009  0.4669843E+03  0.7818608E-02  0.1022775E+00
          1   -1    0    0  501    0  0.00000000000E+00  0.00000000000E+00  0.91038095846E+03  0.91038095847E+03  0.50400000000E-02 0. -1.
         -1   -1    0    0    0  501 -0.00000000000E+00 -0.00000000000E+00 -0.30931819298E+03  0.30931819302E+03  0.50400000000E-02 0.  1.
    8880022    1    1    2    0    0  0.29805985864E+03 -0.32533515388E+03  0.10880906188E+02  0.46711100267E+03  0.15294330000E+03 0.  0.
    8880022    1    1    2    0    0 -0.29805985864E+03  0.32533515388E+03  0.59018185930E+03  0.75258814882E+03  0.15294330000E+03 0.  0.
<mgrwt>
<rscale>  0 0.46698426E+03</rscale>
<asrwt>0</asrwt>
<pdfrwt beam="1">  1        1 0.14005861E+00 0.46698426E+03</pdfrwt>
<pdfrwt beam="2">  1       -1 0.47587414E-01 0.46698426E+03</pdfrwt>
<totfact> 0.82704779E+01</totfact>
</mgrwt>
</event>
<event>
 4    1  0.2731969E-009  0.8590171E+03  0.7818608E-02  0.9478314E-01
         -1   -1    0    0    0  501 -0.00000000000E+00  0.00000000000E+00  0.58887889822E+03  0.58887889824E+03  0.50400000000E-02 0.  1.
          1   -1    0    0  501    0  0.00000000000E+00 -0.00000000000E+00 -0.12730796653E+04  0.12730796653E+04  0.50400000000E-02 0. -1.
    8880022    1    1    2    0    0 -0.82381095300E+03  0.18935195807E+03 -0.45879791981E+03  0.97386130149E+03  0.15294330000E+03 0.  0.
    8880022    1    1    2    0    0  0.82381095300E+03 -0.18935195807E+03 -0.22540284726E+03  0.88809726206E+03  0.15294330000E+03 0.  0.
<mgrwt>
<rscale>  0 0.85901706E+03</rscale>
<asrwt>0</asrwt>
<pdfrwt beam="1">  1        1 0.19585841E+00 0.85901706E+03</pdfrwt>
<pdfrwt beam="2">  1       -1 0.90596753E-01 0.85901706E+03</pdfrwt>
<totfact> 0.11483578E+01</totfact>
</mgrwt>
</event>
<event>
 4    1  0.2731969E-009  0.1014026E+04  0.7818608E-02  0.9293294E-01
         -1   -1    0    0    0  501 -0.00000000000E+00  0.00000000000E+00  0.24058067038E+04  0.24058067038E+04  0.50400000000E-02 0.  1.
          1   -1    0    0  501    0  0.00000000000E+00 -0.00000000000E+00 -0.76069889356E+03  0.76069889357E+03  0.50400000000E-02 0. -1.
    8880022    1    1    2    0    0 -0.84498185781E+03  0.53931705574E+03  0.18705481238E+04  0.21277215897E+04  0.15294330000E+03 0.  0.
    8880022    1    1    2    0    0  0.84498185781E+03 -0.53931705574E+03 -0.22544031358E+03  0.10387840077E+04  0.15294330000E+03 0.  0.
<mgrwt>
<rscale>  0 0.10140261E+04</rscale>
<asrwt>0</asrwt>
<pdfrwt beam="1">  1        1 0.11703060E+00 0.10140261E+04</pdfrwt>
<pdfrwt beam="2">  1       -1 0.37012412E+00 0.10140261E+04</pdfrwt>
<totfact> 0.27874907E-01</totfact>
</mgrwt>
</event>
<event>
 4    1  0.2731969E-009  0.1677019E+03  0.7818608E-02  0.1180266E+00
          1   -1    0    0  501    0  0.00000000000E+00  0.00000000000E+00  0.13753559554E+04  0.13753559554E+04  0.50400000000E-02 0. -1.
         -1   -1    0    0    0  501 -0.00000000000E+00 -0.00000000000E+00 -0.47612616014E+03  0.47612616017E+03  0.50400000000E-02 0.  1.
    8880022    1    1    2    0    0 -0.10167387137E+02 -0.68035953165E+02  0.13552586358E+04  0.13655950680E+04  0.15294330000E+03 0.  0.
    8880022    1    1    2    0    0  0.10167387137E+02  0.68035953165E+02 -0.45602884051E+03  0.48588704765E+03  0.15294330000E+03 0.  1.
<mgrwt>
<rscale>  0 0.16770188E+03</rscale>
<asrwt>0</asrwt>
<pdfrwt beam="1">  1        1 0.21159323E+00 0.16770188E+03</pdfrwt>
<pdfrwt beam="2">  1       -1 0.73250177E-01 0.16770188E+03</pdfrwt>
<totfact> 0.18200252E+01</totfact>
</mgrwt>
</event>
<event>
 4    1  0.2731969E-009  0.9068901E+03  0.7818608E-02  0.9417009E-01
          1   -1    0    0  501    0  0.00000000000E+00  0.00000000000E+00  0.95275641888E+03  0.95275641889E+03  0.50400000000E-02 0. -1.
         -1   -1    0    0    0  501 -0.00000000000E+00 -0.00000000000E+00 -0.10807336324E+04  0.10807336324E+04  0.50400000000E-02 0.  1.
    8880022    1    1    2    0    0  0.69359662054E+03 -0.56389875171E+03 -0.52011383100E+03  0.10454511583E+04  0.15294330000E+03 0.  0.
    8880022    1    1    2    0    0 -0.69359662054E+03  0.56389875171E+03  0.39213661751E+03  0.98803889296E+03  0.15294330000E+03 0.  0.
<mgrwt>
<rscale>  0 0.90689014E+03</rscale>
<asrwt>0</asrwt>
<pdfrwt beam="1">  1        1 0.14657791E+00 0.90689014E+03</pdfrwt>
<pdfrwt beam="2">  1       -1 0.16626671E+00 0.90689014E+03</pdfrwt>
<totfact> 0.43859829E+00</totfact>
</mgrwt>
</event>
<event>
 4    1  0.2731969E-009  0.5797113E+03  0.7818608E-02  0.9948416E-01
         -1   -1    0    0    0  501 -0.00000000000E+00  0.00000000000E+00  0.13466149163E+04  0.13466149163E+04  0.50400000000E-02 0.  1.
          1   -1    0    0  501    0  0.00000000000E+00 -0.00000000000E+00 -0.46633012321E+03  0.46633012324E+03  0.50400000000E-02 0. -1.
    8880022    1    1    2    0    0  0.41503512836E+03 -0.37472578474E+03  0.10581653993E+04  0.12065567690E+04  0.15294330000E+03 0.  0.
    8880022    1    1    2    0    0 -0.41503512836E+03  0.37472578474E+03 -0.17788060624E+03  0.60638827052E+03  0.15294330000E+03 0.  0.
<mgrwt>
<rscale>  0 0.57971133E+03</rscale>
<asrwt>0</asrwt>
<pdfrwt beam="1">  1        1 0.71743096E-01 0.57971133E+03</pdfrwt>
<pdfrwt beam="2">  1       -1 0.20717152E+00 0.57971133E+03</pdfrwt>
<totfact> 0.69596525E+00</totfact>
</mgrwt>
</event>
<event>
 4    1  0.2731969E-009  0.7635204E+03  0.7818608E-02  0.9614375E-01
         -1   -1    0    0    0  501 -0.00000000000E+00  0.00000000000E+00  0.49581072321E+03  0.49581072323E+03  0.50400000000E-02 0.  1.
          1   -1    0    0  501    0  0.00000000000E+00 -0.00000000000E+00 -0.14823772698E+04  0.14823772698E+04  0.50400000000E-02 0. -1.
    8880022    1    1    2    0    0  0.67169991280E+03  0.32922784636E+03 -0.43458194728E+02  0.76475618035E+03  0.15294330000E+03 0.  0.
    8880022    1    1    2    0    0 -0.67169991280E+03 -0.32922784636E+03 -0.94310835189E+03  0.12134318127E+04  0.15294330000E+03 0.  0.
<mgrwt>
<rscale>  0 0.76352040E+03</rscale>
<asrwt>0</asrwt>
<pdfrwt beam="1">  1        1 0.22805804E+00 0.76352040E+03</pdfrwt>
<pdfrwt beam="2">  1       -1 0.76278574E-01 0.76352040E+03</pdfrwt>
<totfact> 0.12019986E+01</totfact>
</mgrwt>
</event>
<event>
 4    1  0.2731969E-009  0.3684479E+03  0.7818608E-02  0.1055288E+00
         -1   -1    0    0    0  501 -0.00000000000E+00  0.00000000000E+00  0.51558563835E+03  0.51558563837E+03  0.50400000000E-02 0.  1.
          1   -1    0    0  501    0  0.00000000000E+00 -0.00000000000E+00 -0.12722551716E+04  0.12722551717E+04  0.50400000000E-02 0. -1.
    8880022    1    1    2    0    0  0.33065944761E+03  0.55013754567E+02  0.41772855815E+03  0.55700178168E+03  0.15294330000E+03 0.  1.
    8880022    1    1    2    0    0 -0.33065944761E+03 -0.55013754567E+02 -0.11743980914E+04  0.12308390283E+04  0.15294330000E+03 0.  0.
<mgrwt>
<rscale>  0 0.36844787E+03</rscale>
<asrwt>0</asrwt>
<pdfrwt beam="1">  1        1 0.19573156E+00 0.36844787E+03</pdfrwt>
<pdfrwt beam="2">  1       -1 0.79320868E-01 0.36844787E+03</pdfrwt>
<totfact> 0.16710752E+01</totfact>
</mgrwt>
</event>
<event>
 4    1  0.2731969E-009  0.1465345E+04  0.7818608E-02  0.8907831E-01
          1   -1    0    0  501    0  0.00000000000E+00  0.00000000000E+00  0.30372699234E+04  0.30372699235E+04  0.50400000000E-02 0. -1.
         -1   -1    0    0    0  501 -0.00000000000E+00 -0.00000000000E+00 -0.89521827990E+03  0.89521827991E+03  0.50400000000E-02 0.  1.
    8880022    1    1    2    0    0  0.59110941671E+03  0.13320783369E+04  0.16935587397E+03  0.14750986757E+04  0.15294330000E+03 0.  0.
    8880022    1    1    2    0    0 -0.59110941671E+03 -0.13320783369E+04  0.19726957696E+04  0.24573895276E+04  0.15294330000E+03 0.  0.
<mgrwt>
<rscale>  0 0.14653446E+04</rscale>
<asrwt>0</asrwt>
<pdfrwt beam="1">  1        1 0.46727231E+00 0.14653446E+04</pdfrwt>
<pdfrwt beam="2">  1       -1 0.13772589E+00 0.14653446E+04</pdfrwt>
<totfact> 0.23522106E-01</totfact>
</mgrwt>
</event>
<event>
 4    1  0.2731969E-009  0.7259746E+03  0.7818608E-02  0.9673815E-01
         -1   -1    0    0    0  501 -0.00000000000E+00  0.00000000000E+00  0.55918844195E+03  0.55918844197E+03  0.50400000000E-02 0.  1.
          1   -1    0    0  501    0  0.00000000000E+00 -0.00000000000E+00 -0.12315092019E+04  0.12315092020E+04  0.50400000000E-02 0. -1.
    8880022    1    1    2    0    0 -0.60993300290E+03  0.36280733508E+03 -0.76989483969E+03  0.10581952313E+04  0.15294330000E+03 0.  0.
    8880022    1    1    2    0    0  0.60993300290E+03 -0.36280733508E+03  0.97574079699E+02  0.73250241259E+03  0.15294330000E+03 0.  0.
<mgrwt>
<rscale>  0 0.72597457E+03</rscale>
<asrwt>0</asrwt>
<pdfrwt beam="1">  1        1 0.18946295E+00 0.72597457E+03</pdfrwt>
<pdfrwt beam="2">  1       -1 0.86028991E-01 0.72597457E+03</pdfrwt>
<totfact> 0.14013481E+01</totfact>
</mgrwt>
</event>
<event>
 4    1  0.2731969E-009  0.1164093E+04  0.7818608E-02  0.9144879E-01
          1   -1    0    0  501    0  0.00000000000E+00  0.00000000000E+00  0.96428265308E+03  0.96428265310E+03  0.50400000000E-02 0. -1.
         -1   -1    0    0    0  501 -0.00000000000E+00 -0.00000000000E+00 -0.22682130064E+04  0.22682130064E+04  0.50400000000E-02 0.  1.
    8880022    1    1    2    0    0 -0.54167531467E+03 -0.10189747715E+04 -0.16488562899E+04  0.20183756958E+04  0.15294330000E+03 0.  0.
    8880022    1    1    2    0    0  0.54167531467E+03  0.10189747715E+04  0.34492593658E+03  0.12141199637E+04  0.15294330000E+03 0.  0.
<mgrwt>
<rscale>  0 0.11640934E+04</rscale>
<asrwt>0</asrwt>
<pdfrwt beam="1">  1        1 0.14835118E+00 0.11640934E+04</pdfrwt>
<pdfrwt beam="2">  1       -1 0.34895585E+00 0.11640934E+04</pdfrwt>
<totfact> 0.25347106E-01</totfact>
</mgrwt>
</event>
<event>
 4    1  0.2731969E-009  0.3342890E+03  0.7818608E-02  0.1069255E+00
          1   -1    0    0  501    0  0.00000000000E+00  0.00000000000E+00  0.11717758246E+04  0.11717758246E+04  0.50400000000E-02 0. -1.
         -1   -1    0    0    0  501 -0.00000000000E+00 -0.00000000000E+00 -0.13446875937E+04  0.13446875937E+04  0.50400000000E-02 0.  1.
    8880022    1    1    2    0    0  0.23436770308E+03  0.18283671500E+03  0.11263374963E+04  0.11748979926E+04  0.15294330000E+03 0.  0.
    8880022    1    1    2    0    0 -0.23436770308E+03 -0.18283671500E+03 -0.12992492654E+04  0.13415654256E+04  0.15294330000E+03 0.  1.
<mgrwt>
<rscale>  0 0.33428900E+03</rscale>
<asrwt>0</asrwt>
<pdfrwt beam="1">  1        1 0.18027320E+00 0.33428900E+03</pdfrwt>
<pdfrwt beam="2">  1       -1 0.20687501E+00 0.33428900E+03</pdfrwt>
<totfact> 0.17827396E+00</totfact>
</mgrwt>
</event>
<event>
 4    1  0.2731969E-009  0.9029486E+03  0.7818608E-02  0.9421903E-01
          1   -1    0    0  501    0  0.00000000000E+00  0.00000000000E+00  0.32993815297E+04  0.32993815297E+04  0.50400000000E-02 0. -1.
         -1   -1    0    0    0  501 -0.00000000000E+00 -0.00000000000E+00 -0.32543903922E+03  0.32543903926E+03  0.50400000000E-02 0.  1.
    8880022    1    1    2    0    0 -0.49097153786E+03  0.74220721806E+03  0.59781521713E+03  0.10829124121E+04  0.15294330000E+03 0.  0.
    8880022    1    1    2    0    0  0.49097153786E+03 -0.74220721806E+03  0.23761272734E+04  0.25419081568E+04  0.15294330000E+03 0.  0.
<mgrwt>
<rscale>  0 0.90294865E+03</rscale>
<asrwt>0</asrwt>
<pdfrwt beam="1">  1        1 0.50759716E+00 0.90294865E+03</pdfrwt>
<pdfrwt beam="2">  1       -1 0.50067545E-01 0.90294865E+03</pdfrwt>
<totfact> 0.15049122E+00</totfact>
</mgrwt>
</event>
<event>
 4    1  0.2731969E-009  0.6366460E+03  0.7818608E-02  0.9832165E-01
          1   -1    0    0  501    0  0.00000000000E+00  0.00000000000E+00  0.13539282381E+04  0.13539282381E+04  0.50400000000E-02 0. -1.
         -1   -1    0    0    0  501 -0.00000000000E+00 -0.00000000000E+00 -0.39475068669E+03  0.39475068672E+03  0.50400000000E-02 0.  1.
    8880022    1    1    2    0    0 -0.60337137065E+03 -0.13367663215E+03  0.49793850954E+02  0.63859027045E+03  0.15294330000E+03 0.  0.
    8880022    1    1    2    0    0  0.60337137065E+03  0.13367663215E+03  0.90938370050E+03  0.11100886544E+04  0.15294330000E+03 0. -1.
<mgrwt>
<rscale>  0 0.63664598E+03</rscale>
<asrwt>0</asrwt>
<pdfrwt beam="1">  1        1 0.20829665E+00 0.63664598E+03</pdfrwt>
<pdfrwt beam="2">  1       -1 0.60730876E-01 0.63664598E+03</pdfrwt>
<totfact> 0.23858881E+01</totfact>
</mgrwt>
</event>
<event>
 4    1  0.2731969E-009  0.8317478E+03  0.7818608E-02  0.9515167E-01
         -1   -1    0    0    0  501 -0.00000000000E+00  0.00000000000E+00  0.21924629643E+04  0.21924629643E+04  0.50400000000E-02 0.  1.
          1   -1    0    0  501    0  0.00000000000E+00 -0.00000000000E+00 -0.12688625001E+04  0.12688625001E+04  0.50400000000E-02 0. -1.
    8880022    1    1    2    0    0 -0.24019198026E+03  0.78148609467E+03 -0.10383185338E+04  0.13303795451E+04  0.15294330000E+03 0.  0.
    8880022    1    1    2    0    0  0.24019198026E+03 -0.78148609467E+03  0.19619189979E+04  0.21309459193E+04  0.15294330000E+03 0.  0.
<mgrwt>
<rscale>  0 0.83174777E+03</rscale>
<asrwt>0</asrwt>
<pdfrwt beam="1">  1        1 0.19520962E+00 0.83174777E+03</pdfrwt>
<pdfrwt beam="2">  1       -1 0.33730199E+00 0.83174777E+03</pdfrwt>
<totfact> 0.18946267E-01</totfact>
</mgrwt>
</event>
<event>
 4    1  0.2731969E-009  0.6791834E+03  0.7818608E-02  0.9753509E-01
          1   -1    0    0  501    0  0.00000000000E+00  0.00000000000E+00  0.86075196882E+03  0.86075196883E+03  0.50400000000E-02 0. -1.
         -1   -1    0    0    0  501 -0.00000000000E+00 -0.00000000000E+00 -0.62406139136E+03  0.62406139138E+03  0.50400000000E-02 0.  1.
    8880022    1    1    2    0    0  0.48421182264E+03  0.45104026026E+03 -0.16067128646E+03  0.69792930936E+03  0.15294330000E+03 0. -1.
    8880022    1    1    2    0    0 -0.48421182264E+03 -0.45104026026E+03  0.39736186393E+03  0.78688405085E+03  0.15294330000E+03 0.  0.
<mgrwt>
<rscale>  0 0.67918338E+03</rscale>
<asrwt>0</asrwt>
<pdfrwt beam="1">  1        1 0.13242338E+00 0.67918338E+03</pdfrwt>
<pdfrwt beam="2">  1       -1 0.96009445E-01 0.67918338E+03</pdfrwt>
<totfact> 0.21259171E+01</totfact>
</mgrwt>
</event>
<event>
 4    1  0.2731969E-009  0.1734173E+04  0.7818608E-02  0.8742111E-01
         -1   -1    0    0    0  501 -0.00000000000E+00  0.00000000000E+00  0.82862292603E+03  0.82862292604E+03  0.50400000000E-02 0.  1.
          1   -1    0    0  501    0  0.00000000000E+00 -0.00000000000E+00 -0.39278934322E+04  0.39278934322E+04  0.50400000000E-02 0. -1.
    8880022    1    1    2    0    0 -0.12984335188E+03 -0.17225287861E+04 -0.89396059818E+03  0.19510309888E+04  0.15294330000E+03 0.  0.
    8880022    1    1    2    0    0  0.12984335188E+03  0.17225287861E+04 -0.22053099080E+04  0.28054853695E+04  0.15294330000E+03 0.  0.
<mgrwt>
<rscale>  0 0.17341731E+04</rscale>
<asrwt>0</asrwt>
<pdfrwt beam="1">  1        1 0.60429129E+00 0.17341731E+04</pdfrwt>
<pdfrwt beam="2">  1       -1 0.12748045E+00 0.17341731E+04</pdfrwt>
<totfact> 0.55274599E-02</totfact>
</mgrwt>
</event>
<event>
 4    1  0.2731969E-009  0.6991736E+03  0.7818608E-02  0.9718647E-01
          1   -1    0    0  501    0  0.00000000000E+00  0.00000000000E+00  0.23769299580E+04  0.23769299580E+04  0.50400000000E-02 0. -1.
         -1   -1    0    0    0  501 -0.00000000000E+00 -0.00000000000E+00 -0.48029940188E+03  0.48029940190E+03  0.50400000000E-02 0.  1.
    8880022    1    1    2    0    0 -0.56019138322E+03  0.38940675413E+03 -0.13197158836E+03  0.71151961262E+03  0.15294330000E+03 0.  1.
    8880022    1    1    2    0    0  0.56019138322E+03 -0.38940675413E+03  0.20286021445E+04  0.21457097473E+04  0.15294330000E+03 0.  0.
<mgrwt>
<rscale>  0 0.69917355E+03</rscale>
<asrwt>0</asrwt>
<pdfrwt beam="1">  1        1 0.36568153E+00 0.69917355E+03</pdfrwt>
<pdfrwt beam="2">  1       -1 0.73892215E-01 0.69917355E+03</pdfrwt>
<totfact> 0.32514874E+00</totfact>
</mgrwt>
</event>
<event>
 4    1  0.2731969E-009  0.6059052E+03  0.7818608E-02  0.9893230E-01
          1   -1    0    0  501    0  0.00000000000E+00  0.00000000000E+00  0.12903362155E+04  0.12903362155E+04  0.50400000000E-02 0. -1.
         -1   -1    0    0    0  501 -0.00000000000E+00 -0.00000000000E+00 -0.52750744818E+03  0.52750744820E+03  0.50400000000E-02 0.  1.
    8880022    1    1    2    0    0  0.46832461420E+03  0.35270598666E+03 -0.23547580379E+03  0.65005381660E+03  0.15294330000E+03 0.  1.
    8880022    1    1    2    0    0 -0.46832461420E+03 -0.35270598666E+03  0.99830457110E+03  0.11677898471E+04  0.15294330000E+03 0.  0.
<mgrwt>
<rscale>  0 0.60590520E+03</rscale>
<asrwt>0</asrwt>
<pdfrwt beam="1">  1        1 0.19851326E+00 0.60590520E+03</pdfrwt>
<pdfrwt beam="2">  1       -1 0.81154994E-01 0.60590520E+03</pdfrwt>
<totfact> 0.14692734E+01</totfact>
</mgrwt>
</event>
<event>
 4    1  0.2731969E-009  0.4265333E+03  0.7818608E-02  0.1034961E+00
         -1   -1    0    0    0  501 -0.00000000000E+00  0.00000000000E+00  0.22830637464E+03  0.22830637470E+03  0.50400000000E-02 0.  1.
          1   -1    0    0  501    0  0.00000000000E+00 -0.00000000000E+00 -0.12590725888E+04  0.12590725888E+04  0.50400000000E-02 0. -1.
    8880022    1    1    2    0    0 -0.38584597258E+03  0.98295042920E+02 -0.96597364378E+03  0.10559525385E+04  0.15294330000E+03 0.  0.
    8880022    1    1    2    0    0  0.38584597258E+03 -0.98295042920E+02 -0.64792570369E+02  0.43142642502E+03  0.15294330000E+03 0.  0.
<mgrwt>
<rscale>  0 0.42653333E+03</rscale>
<asrwt>0</asrwt>
<pdfrwt beam="1">  1        1 0.19370347E+00 0.42653333E+03</pdfrwt>
<pdfrwt beam="2">  1       -1 0.35124058E-01 0.42653333E+03</pdfrwt>
<totfact> 0.79413308E+01</totfact>
</mgrwt>
</event>
<event>
 4    1  0.2731969E-009  0.1292281E+04  0.7818608E-02  0.9035708E-01
         -1   -1    0    0    0  501 -0.00000000000E+00  0.00000000000E+00  0.10097819183E+04  0.10097819183E+04  0.50400000000E-02 0.  1.
          1   -1    0    0  501    0  0.00000000000E+00 -0.00000000000E+00 -0.22315344170E+04  0.22315344171E+04  0.50400000000E-02 0. -1.
    8880022    1    1    2    0    0  0.10961373693E+04  0.66714517828E+03 -0.14354860371E+04  0.19314791319E+04  0.15294330000E+03 0.  0.
    8880022    1    1    2    0    0 -0.10961373693E+04 -0.66714517828E+03  0.21373353833E+03  0.13098372035E+04  0.15294330000E+03 0.  0.
<mgrwt>
<rscale>  0 0.12922815E+04</rscale>
<asrwt>0</asrwt>
<pdfrwt beam="1">  1        1 0.34331299E+00 0.12922815E+04</pdfrwt>
<pdfrwt beam="2">  1       -1 0.15535107E+00 0.12922815E+04</pdfrwt>
<totfact> 0.63929517E-01</totfact>
</mgrwt>
</event>
<event>
 4    1  0.2731969E-009  0.8450439E+03  0.7818608E-02  0.9497013E-01
          1   -1    0    0  501    0  0.00000000000E+00  0.00000000000E+00  0.16986415102E+04  0.16986415102E+04  0.50400000000E-02 0. -1.
         -1   -1    0    0    0  501 -0.00000000000E+00 -0.00000000000E+00 -0.13468448661E+04  0.13468448661E+04  0.50400000000E-02 0.  1.
    8880022    1    1    2    0    0 -0.81061693518E+03 -0.18332427614E+03 -0.10870308541E+04  0.13768570501E+04  0.15294330000E+03 0.  0.
    8880022    1    1    2    0    0  0.81061693518E+03  0.18332427614E+03  0.14388274982E+04  0.16686293262E+04  0.15294330000E+03 0.  0.
<mgrwt>
<rscale>  0 0.84504394E+03</rscale>
<asrwt>0</asrwt>
<pdfrwt beam="1">  1        1 0.26132946E+00 0.84504394E+03</pdfrwt>
<pdfrwt beam="2">  1       -1 0.20720690E+00 0.84504394E+03</pdfrwt>
<totfact> 0.66569631E-01</totfact>
</mgrwt>
</event>
<event>
 4    1  0.2731969E-009  0.3042186E+03  0.7818608E-02  0.1083151E+00
         -1   -1    0    0    0  501 -0.00000000000E+00  0.00000000000E+00  0.34904528244E+03  0.34904528248E+03  0.50400000000E-02 0.  1.
          1   -1    0    0  501    0  0.00000000000E+00 -0.00000000000E+00 -0.17076767731E+04  0.17076767731E+04  0.50400000000E-02 0. -1.
    8880022    1    1    2    0    0 -0.24559188787E+03  0.94031579915E+02 -0.16244747655E+04  0.16527151086E+04  0.15294330000E+03 0.  0.
    8880022    1    1    2    0    0  0.24559188787E+03 -0.94031579915E+02  0.26584327485E+03  0.40400694698E+03  0.15294330000E+03 0.  0.
<mgrwt>
<rscale>  0 0.30421862E+03</rscale>
<asrwt>0</asrwt>
<pdfrwt beam="1">  1        1 0.26271950E+00 0.30421862E+03</pdfrwt>
<pdfrwt beam="2">  1       -1 0.53699275E-01 0.30421862E+03</pdfrwt>
<totfact> 0.18845844E+01</totfact>
</mgrwt>
</event>
<event>
 4    1  0.2731969E-009  0.1037239E+04  0.7818608E-02  0.9268619E-01
          1   -1    0    0  501    0  0.00000000000E+00  0.00000000000E+00  0.11402332474E+04  0.11402332474E+04  0.50400000000E-02 0. -1.
         -1   -1    0    0    0  501 -0.00000000000E+00 -0.00000000000E+00 -0.11634876915E+04  0.11634876915E+04  0.50400000000E-02 0.  1.
    8880022    1    1    2    0    0 -0.23648955180E+02  0.10256281016E+04  0.48918110056E+03  0.11468051613E+04  0.15294330000E+03 0.  0.
    8880022    1    1    2    0    0  0.23648955180E+02 -0.10256281016E+04 -0.51243554465E+03  0.11569157775E+04  0.15294330000E+03 0.  0.
<mgrwt>
<rscale>  0 0.10372386E+04</rscale>
<asrwt>0</asrwt>
<pdfrwt beam="1">  1        1 0.17542050E+00 0.10372386E+04</pdfrwt>
<pdfrwt beam="2">  1       -1 0.17899811E+00 0.10372386E+04</pdfrwt>
<totfact> 0.25005166E+00</totfact>
</mgrwt>
</event>
<event>
 4    1  0.2731969E-009  0.6979545E+03  0.7818608E-02  0.9720737E-01
          1   -1    0    0  501    0  0.00000000000E+00  0.00000000000E+00  0.77339873052E+03  0.77339873054E+03  0.50400000000E-02 0. -1.
         -1   -1    0    0    0  501 -0.00000000000E+00 -0.00000000000E+00 -0.13013753378E+04  0.13013753378E+04  0.50400000000E-02 0.  1.
    8880022    1    1    2    0    0 -0.38850862950E+03 -0.55929405598E+03  0.48119712069E+03  0.84775652060E+03  0.15294330000E+03 0.  0.
    8880022    1    1    2    0    0  0.38850862950E+03  0.55929405598E+03 -0.10091737280E+04  0.12270175478E+04  0.15294330000E+03 0.  0.
<mgrwt>
<rscale>  0 0.69795448E+03</rscale>
<asrwt>0</asrwt>
<pdfrwt beam="1">  1        1 0.11898442E+00 0.69795448E+03</pdfrwt>
<pdfrwt beam="2">  1       -1 0.20021159E+00 0.69795448E+03</pdfrwt>
<totfact> 0.36670393E+00</totfact>
</mgrwt>
</event>
<event>
 4    1  0.2731969E-009  0.1482797E+04  0.7818608E-02  0.8895974E-01
         -1   -1    0    0    0  501 -0.00000000000E+00  0.00000000000E+00  0.10657848992E+04  0.10657848992E+04  0.50400000000E-02 0.  1.
          1   -1    0    0  501    0  0.00000000000E+00 -0.00000000000E+00 -0.23604483883E+04  0.23604483883E+04  0.50400000000E-02 0. -1.
    8880022    1    1    2    0    0  0.14590166748E+04 -0.21579227081E+03 -0.12554859745E+04  0.19429185899E+04  0.15294330000E+03 0.  0.
    8880022    1    1    2    0    0 -0.14590166748E+04  0.21579227081E+03 -0.39177514607E+02  0.14833146976E+04  0.15294330000E+03 0.  0.
<mgrwt>
<rscale>  0 0.14827972E+04</rscale>
<asrwt>0</asrwt>
<pdfrwt beam="1">  1        1 0.36314590E+00 0.14827972E+04</pdfrwt>
<pdfrwt beam="2">  1       -1 0.16396691E+00 0.14827972E+04</pdfrwt>
<totfact> 0.43841207E-01</totfact>
</mgrwt>
</event>
<event>
 4    1  0.2731969E-009  0.5096874E+03  0.7818608E-02  0.1011281E+00
          1   -1    0    0  501    0  0.00000000000E+00  0.00000000000E+00  0.19886272840E+04  0.19886272840E+04  0.50400000000E-02 0. -1.
         -1   -1    0    0    0  501 -0.00000000000E+00 -0.00000000000E+00 -0.84734922074E+03  0.84734922075E+03  0.50400000000E-02 0.  1.
    8880022    1    1    2    0    0 -0.35623542804E+03  0.33088651396E+03 -0.73347299441E+03  0.89317627144E+03  0.15294330000E+03 0.  0.
    8880022    1    1    2    0    0  0.35623542804E+03 -0.33088651396E+03  0.18747510576E+04  0.19428002333E+04  0.15294330000E+03 0.  0.
<mgrwt>
<rscale>  0 0.50968737E+03</rscale>
<asrwt>0</asrwt>
<pdfrwt beam="1">  1        1 0.30594266E+00 0.50968737E+03</pdfrwt>
<pdfrwt beam="2">  1       -1 0.13036142E+00 0.50968737E+03</pdfrwt>
<totfact> 0.17114885E+00</totfact>
</mgrwt>
</event>
<event>
 4    1  0.2731969E-009  0.2548552E+03  0.7818608E-02  0.1110274E+00
          1   -1    0    0  501    0  0.00000000000E+00  0.00000000000E+00  0.17688284554E+04  0.17688284554E+04  0.50400000000E-02 0. -1.
         -1   -1    0    0    0  501 -0.00000000000E+00 -0.00000000000E+00 -0.78864284090E+02  0.78864284251E+02  0.50400000000E-02 0.  1.
    8880022    1    1    2    0    0  0.19226665022E+03 -0.67772092344E+02  0.16963113370E+03  0.30614685336E+03  0.15294330000E+03 0.  0.
    8880022    1    1    2    0    0 -0.19226665022E+03  0.67772092344E+02  0.15203330376E+04  0.15415458862E+04  0.15294330000E+03 0.  0.
<mgrwt>
<rscale>  0 0.25485520E+03</rscale>
<asrwt>0</asrwt>
<pdfrwt beam="1">  1        1 0.27212744E+00 0.25485520E+03</pdfrwt>
<pdfrwt beam="2">  1       -1 0.12132968E-01 0.25485520E+03</pdfrwt>
<totfact> 0.21619369E+02</totfact>
</mgrwt>
</event>
<event>
 4    1  0.2731969E-009  0.4609002E+03  0.7818608E-02  0.1024520E+00
          1   -1    0    0  501    0  0.00000000000E+00  0.00000000000E+00  0.55012745572E+03  0.55012745574E+03  0.50400000000E-02 0. -1.
         -1   -1    0    0    0  501 -0.00000000000E+00 -0.00000000000E+00 -0.99806240627E+03  0.99806240629E+03  0.50400000000E-02 0.  1.
    8880022    1    1    2    0    0  0.10881111985E+03  0.42094831767E+03 -0.83009186156E+03  0.94946379478E+03  0.15294330000E+03 0.  1.
    8880022    1    1    2    0    0 -0.10881111985E+03 -0.42094831767E+03  0.38215691101E+03  0.59872606725E+03  0.15294330000E+03 0.  0.
<mgrwt>
<rscale>  0 0.46090021E+03</rscale>
<asrwt>0</asrwt>
<pdfrwt beam="1">  1        1 0.84634993E-01 0.46090021E+03</pdfrwt>
<pdfrwt beam="2">  1       -1 0.15354806E+00 0.46090021E+03</pdfrwt>
<totfact> 0.13648568E+01</totfact>
</mgrwt>
</event>
<event>
 4    1  0.2731969E-009  0.5740227E+03  0.7818608E-02  0.9960816E-01
          1   -1    0    0  501    0  0.00000000000E+00  0.00000000000E+00  0.62983857479E+03  0.62983857481E+03  0.50400000000E-02 0. -1.
         -1   -1    0    0    0  501 -0.00000000000E+00 -0.00000000000E+00 -0.11489288069E+04  0.11489288069E+04  0.50400000000E-02 0.  1.
    8880022    1    1    2    0    0 -0.41375431138E+03  0.36731158915E+03  0.39682969391E+03  0.69783658022E+03  0.15294330000E+03 0. -1.
    8880022    1    1    2    0    0  0.41375431138E+03 -0.36731158915E+03 -0.91591992599E+03  0.10809308015E+04  0.15294330000E+03 0.  0.
<mgrwt>
<rscale>  0 0.57402272E+03</rscale>
<asrwt>0</asrwt>
<pdfrwt beam="1">  1        1 0.96898243E-01 0.57402272E+03</pdfrwt>
<pdfrwt beam="2">  1       -1 0.17675828E+00 0.57402272E+03</pdfrwt>
<totfact> 0.74411372E+00</totfact>
</mgrwt>
</event>
<event>
 4    1  0.2731969E-009  0.1427994E+04  0.7818608E-02  0.8933801E-01
         -1   -1    0    0    0  501 -0.00000000000E+00  0.00000000000E+00  0.14014355703E+04  0.14014355703E+04  0.50400000000E-02 0.  1.
          1   -1    0    0  501    0  0.00000000000E+00 -0.00000000000E+00 -0.27237015018E+04  0.27237015018E+04  0.50400000000E-02 0. -1.
    8880022    1    1    2    0    0  0.49676643976E+03  0.13300365999E+04 -0.20687967505E+04  0.25137792069E+04  0.15294330000E+03 0.  0.
    8880022    1    1    2    0    0 -0.49676643976E+03 -0.13300365999E+04  0.74653081905E+03  0.16113578652E+04  0.15294330000E+03 0.  0.
<mgrwt>
<rscale>  0 0.14279937E+04</rscale>
<asrwt>0</asrwt>
<pdfrwt beam="1">  1        1 0.41903100E+00 0.14279937E+04</pdfrwt>
<pdfrwt beam="2">  1       -1 0.21560547E+00 0.14279937E+04</pdfrwt>
<totfact> 0.10618425E-01</totfact>
</mgrwt>
</event>
<event>
 4    1  0.2731969E-009  0.8082892E+03  0.7818608E-02  0.9548096E-01
         -1   -1    0    0    0  501 -0.00000000000E+00  0.00000000000E+00  0.92462155491E+03  0.92462155492E+03  0.50400000000E-02 0.  1.
          1   -1    0    0  501    0  0.00000000000E+00 -0.00000000000E+00 -0.81481562719E+03  0.81481562721E+03  0.50400000000E-02 0. -1.
    8880022    1    1    2    0    0  0.71578344210E+02 -0.79045325516E+03 -0.26205916245E+03  0.84970963605E+03  0.15294330000E+03 0.  0.
    8880022    1    1    2    0    0 -0.71578344210E+02  0.79045325516E+03  0.37186509016E+03  0.88972754608E+03  0.15294330000E+03 0.  0.
<mgrwt>
<rscale>  0 0.80828922E+03</rscale>
<asrwt>0</asrwt>
<pdfrwt beam="1">  1        1 0.12535625E+00 0.80828922E+03</pdfrwt>
<pdfrwt beam="2">  1       -1 0.14224947E+00 0.80828922E+03</pdfrwt>
<totfact> 0.88354423E+00</totfact>
</mgrwt>
</event>
<event>
 4    1  0.2731969E-009  0.4852898E+03  0.7818608E-02  0.1017691E+00
          1   -1    0    0  501    0  0.00000000000E+00  0.00000000000E+00  0.33946217592E+03  0.33946217596E+03  0.50400000000E-02 0. -1.
         -1   -1    0    0    0  501 -0.00000000000E+00 -0.00000000000E+00 -0.80631568772E+03  0.80631568773E+03  0.50400000000E-02 0.  1.
    8880022    1    1    2    0    0 -0.46029472313E+03 -0.15596906517E+02 -0.19385910030E+02  0.48567680834E+03  0.15294330000E+03 0.  0.
    8880022    1    1    2    0    0  0.46029472313E+03  0.15596906517E+02 -0.44746760177E+03  0.66010105535E+03  0.15294330000E+03 0.  0.
<mgrwt>
<rscale>  0 0.48528976E+03</rscale>
<asrwt>0</asrwt>
<pdfrwt beam="1">  1        1 0.52224951E-01 0.48528976E+03</pdfrwt>
<pdfrwt beam="2">  1       -1 0.12404857E+00 0.48528976E+03</pdfrwt>
<totfact> 0.44612521E+01</totfact>
</mgrwt>
</event>
<event>
 4    1  0.2731969E-009  0.8430094E+03  0.7818608E-02  0.9499768E-01
         -1   -1    0    0    0  501 -0.00000000000E+00  0.00000000000E+00  0.77714660656E+03  0.77714660657E+03  0.50400000000E-02 0.  1.
          1   -1    0    0  501    0  0.00000000000E+00 -0.00000000000E+00 -0.11319396293E+04  0.11319396293E+04  0.50400000000E-02 0. -1.
    8880022    1    1    2    0    0  0.14725357116E+03  0.81583670634E+03 -0.59580379146E+03  0.10323017759E+04  0.15294330000E+03 0.  0.
    8880022    1    1    2    0    0 -0.14725357116E+03 -0.81583670634E+03  0.24101076870E+03  0.87678445998E+03  0.15294330000E+03 0.  0.
<mgrwt>
<rscale>  0 0.84300937E+03</rscale>
<asrwt>0</asrwt>
<pdfrwt beam="1">  1        1 0.17414456E+00 0.84300937E+03</pdfrwt>
<pdfrwt beam="2">  1       -1 0.11956102E+00 0.84300937E+03</pdfrwt>
<totfact> 0.76589602E+00</totfact>
</mgrwt>
</event>
<event>
 4    1  0.2731969E-009  0.1352566E+04  0.7818608E-02  0.8988888E-01
          1   -1    0    0  501    0  0.00000000000E+00  0.00000000000E+00  0.36543288728E+04  0.36543288728E+04  0.50400000000E-02 0. -1.
         -1   -1    0    0    0  501 -0.00000000000E+00 -0.00000000000E+00 -0.10885311840E+04  0.10885311840E+04  0.50400000000E-02 0.  1.
    8880022    1    1    2    0    0 -0.10106392158E+04 -0.88580611484E+03  0.30256892853E+04  0.33142467322E+04  0.15294330000E+03 0.  0.
    8880022    1    1    2    0    0  0.10106392158E+04  0.88580611484E+03 -0.45989159654E+03  0.14286133246E+04  0.15294330000E+03 0.  0.
<mgrwt>
<rscale>  0 0.13525664E+04</rscale>
<asrwt>0</asrwt>
<pdfrwt beam="1">  1        1 0.56220445E+00 0.13525664E+04</pdfrwt>
<pdfrwt beam="2">  1       -1 0.16746633E+00 0.13525664E+04</pdfrwt>
<totfact> 0.47213596E-02</totfact>
</mgrwt>
</event>
<event>
 4    1  0.2731969E-009  0.7923996E+03  0.7818608E-02  0.9571084E-01
         -1   -1    0    0    0  501 -0.00000000000E+00  0.00000000000E+00  0.21669119098E+04  0.21669119098E+04  0.50400000000E-02 0.  1.
          1   -1    0    0  501    0  0.00000000000E+00 -0.00000000000E+00 -0.16401887146E+04  0.16401887146E+04  0.50400000000E-02 0. -1.
    8880022    1    1    2    0    0 -0.16182357996E+03  0.76047259754E+03 -0.14638770216E+04  0.16645819386E+04  0.15294330000E+03 0.  0.
    8880022    1    1    2    0    0  0.16182357996E+03 -0.76047259754E+03  0.19906002168E+04  0.21425186858E+04  0.15294330000E+03 0.  0.
<mgrwt>
<rscale>  0 0.79239958E+03</rscale>
<asrwt>0</asrwt>
<pdfrwt beam="1">  1        1 0.25233673E+00 0.79239958E+03</pdfrwt>
<pdfrwt beam="2">  1       -1 0.33337106E+00 0.79239958E+03</pdfrwt>
<totfact> 0.11225255E-01</totfact>
</mgrwt>
</event>
<event>
 4    1  0.2731969E-009  0.8875455E+03  0.7818608E-02  0.9441286E-01
          1   -1    0    0  501    0  0.00000000000E+00  0.00000000000E+00  0.22432793469E+04  0.22432793469E+04  0.50400000000E-02 0. -1.
         -1   -1    0    0    0  501 -0.00000000000E+00 -0.00000000000E+00 -0.43698812688E+03  0.43698812691E+03  0.50400000000E-02 0.  1.
    8880022    1    1    2    0    0  0.57211823914E+03 -0.66107941540E+03  0.14970859949E+04  0.17404032297E+04  0.15294330000E+03 0.  0.
    8880022    1    1    2    0    0 -0.57211823914E+03  0.66107941540E+03  0.30920522514E+03  0.93986424407E+03  0.15294330000E+03 0.  0.
<mgrwt>
<rscale>  0 0.88754545E+03</rscale>
<asrwt>0</asrwt>
<pdfrwt beam="1">  1        1 0.34511990E+00 0.88754545E+03</pdfrwt>
<pdfrwt beam="2">  1       -1 0.67228942E-01 0.88754545E+03</pdfrwt>
<totfact> 0.47019906E+00</totfact>
</mgrwt>
</event>
<event>
 4    1  0.2731969E-009  0.9406088E+03  0.7818608E-02  0.9376195E-01
         -1   -1    0    0    0  501 -0.00000000000E+00  0.00000000000E+00  0.15216090427E+04  0.15216090427E+04  0.50400000000E-02 0.  1.
          1   -1    0    0  501    0  0.00000000000E+00 -0.00000000000E+00 -0.10480522298E+04  0.10480522299E+04  0.50400000000E-02 0. -1.
    8880022    1    1    2    0    0  0.75865691993E+03  0.53459612889E+03  0.10940652686E+04  0.14428180094E+04  0.15294330000E+03 0.  0.
    8880022    1    1    2    0    0 -0.75865691993E+03 -0.53459612889E+03 -0.62050845573E+03  0.11268432632E+04  0.15294330000E+03 0.  0.
<mgrwt>
<rscale>  0 0.94060884E+03</rscale>
<asrwt>0</asrwt>
<pdfrwt beam="1">  1        1 0.16123880E+00 0.94060884E+03</pdfrwt>
<pdfrwt beam="2">  1       -1 0.23409370E+00 0.94060884E+03</pdfrwt>
<totfact> 0.12508379E+00</totfact>
</mgrwt>
</event>
<event>
 4    1  0.2731969E-009  0.1366046E+04  0.7818608E-02  0.8978770E-01
          1   -1    0    0  501    0  0.00000000000E+00  0.00000000000E+00  0.13032195746E+04  0.13032195746E+04  0.50400000000E-02 0. -1.
         -1   -1    0    0    0  501 -0.00000000000E+00 -0.00000000000E+00 -0.17689850686E+04  0.17689850686E+04  0.50400000000E-02 0.  1.
    8880022    1    1    2    0    0  0.52224033419E+03 -0.12529782999E+04 -0.90342671604E+03  0.16377609932E+04  0.15294330000E+03 0.  0.
    8880022    1    1    2    0    0 -0.52224033419E+03  0.12529782999E+04  0.43766122198E+03  0.14344436500E+04  0.15294330000E+03 0.  0.
<mgrwt>
<rscale>  0 0.13660458E+04</rscale>
<asrwt>0</asrwt>
<pdfrwt beam="1">  1        1 0.20049532E+00 0.13660458E+04</pdfrwt>
<pdfrwt beam="2">  1       -1 0.27215155E+00 0.13660458E+04</pdfrwt>
<totfact> 0.43301161E-01</totfact>
</mgrwt>
</event>
<event>
 4    1  0.2731969E-009  0.7762735E+03  0.7818608E-02  0.9595010E-01
         -1   -1    0    0    0  501 -0.00000000000E+00  0.00000000000E+00  0.17152183568E+04  0.17152183568E+04  0.50400000000E-02 0.  1.
          1   -1    0    0  501    0  0.00000000000E+00 -0.00000000000E+00 -0.10594067533E+04  0.10594067534E+04  0.50400000000E-02 0. -1.
    8880022    1    1    2    0    0 -0.63401633371E+03 -0.42098950040E+03  0.14620920915E+04  0.16553893221E+04  0.15294330000E+03 0.  0.
    8880022    1    1    2    0    0  0.63401633371E+03  0.42098950040E+03 -0.80628048800E+03  0.11192357880E+04  0.15294330000E+03 0.  0.
<mgrwt>
<rscale>  0 0.77627349E+03</rscale>
<asrwt>0</asrwt>
<pdfrwt beam="1">  1        1 0.16298566E+00 0.77627349E+03</pdfrwt>
<pdfrwt beam="2">  1       -1 0.26387975E+00 0.77627349E+03</pdfrwt>
<totfact> 0.80900879E-01</totfact>
</mgrwt>
</event>
<event>
 4    1  0.2731969E-009  0.7435712E+03  0.7818608E-02  0.9645490E-01
         -1   -1    0    0    0  501 -0.00000000000E+00  0.00000000000E+00  0.15502992947E+04  0.15502992947E+04  0.50400000000E-02 0.  1.
          1   -1    0    0  501    0  0.00000000000E+00 -0.00000000000E+00 -0.61165148057E+03  0.61165148059E+03  0.50400000000E-02 0. -1.
    8880022    1    1    2    0    0 -0.50935591188E+03  0.51967586159E+03  0.11673055629E+04  0.13840160318E+04  0.15294330000E+03 0.  0.
    8880022    1    1    2    0    0  0.50935591188E+03 -0.51967586159E+03 -0.22865774875E+03  0.77793474351E+03  0.15294330000E+03 0.  0.
<mgrwt>
<rscale>  0 0.74357118E+03</rscale>
<asrwt>0</asrwt>
<pdfrwt beam="1">  1        1 0.94100228E-01 0.74357118E+03</pdfrwt>
<pdfrwt beam="2">  1       -1 0.23850758E+00 0.74357118E+03</pdfrwt>
<totfact> 0.28821588E+00</totfact>
</mgrwt>
</event>
<event>
 4    1  0.2731969E-009  0.1279319E+04  0.7818608E-02  0.9046128E-01
          1   -1    0    0  501    0  0.00000000000E+00  0.00000000000E+00  0.14407763688E+04  0.14407763688E+04  0.50400000000E-02 0. -1.
         -1   -1    0    0    0  501 -0.00000000000E+00 -0.00000000000E+00 -0.12887527610E+04  0.12887527610E+04  0.50400000000E-02 0.  1.
    8880022    1    1    2    0    0 -0.93390679274E+03 -0.86086266028E+03 -0.39391529650E+03  0.13385915476E+04  0.15294330000E+03 0.  1.
    8880022    1    1    2    0    0  0.93390679274E+03  0.86086266028E+03  0.54593890435E+03  0.13909375822E+04  0.15294330000E+03 0.  0.
<mgrwt>
<rscale>  0 0.12793194E+04</rscale>
<asrwt>0</asrwt>
<pdfrwt beam="1">  1        1 0.22165790E+00 0.12793194E+04</pdfrwt>
<pdfrwt beam="2">  1       -1 0.19826966E+00 0.12793194E+04</pdfrwt>
<totfact> 0.10801903E+00</totfact>
</mgrwt>
</event>
<event>
 4    1  0.2731969E-009  0.6900847E+03  0.7818608E-02  0.9734341E-01
         -1   -1    0    0    0  501 -0.00000000000E+00  0.00000000000E+00  0.92642516535E+03  0.92642516536E+03  0.50400000000E-02 0.  1.
          1   -1    0    0  501    0  0.00000000000E+00 -0.00000000000E+00 -0.28202659518E+04  0.28202659518E+04  0.50400000000E-02 0. -1.
    8880022    1    1    2    0    0  0.53183979626E+03  0.41227616400E+03  0.74712119626E+03  0.10170579822E+04  0.15294330000E+03 0.  0.
    8880022    1    1    2    0    0 -0.53183979626E+03 -0.41227616400E+03 -0.26409619827E+04  0.27296331349E+04  0.15294330000E+03 0.  0.
<mgrwt>
<rscale>  0 0.69008467E+03</rscale>
<asrwt>0</asrwt>
<pdfrwt beam="1">  1        1 0.43388706E+00 0.69008467E+03</pdfrwt>
<pdfrwt beam="2">  1       -1 0.14252695E+00 0.69008467E+03</pdfrwt>
<totfact> 0.35373719E-01</totfact>
</mgrwt>
</event>
<event>
 4    1  0.2731969E-009  0.5866997E+03  0.7818608E-02  0.9933391E-01
         -1   -1    0    0    0  501 -0.00000000000E+00  0.00000000000E+00  0.33235804486E+03  0.33235804490E+03  0.50400000000E-02 0.  1.
          1   -1    0    0  501    0  0.00000000000E+00 -0.00000000000E+00 -0.14620394792E+04  0.14620394793E+04  0.50400000000E-02 0. -1.
    8880022    1    1    2    0    0 -0.20277582045E+03  0.52887319931E+03 -0.80336984577E+02  0.59217444931E+03  0.15294330000E+03 0.  0.
    8880022    1    1    2    0    0  0.20277582045E+03 -0.52887319931E+03 -0.10493444498E+04  0.12022230748E+04  0.15294330000E+03 0.  0.
<mgrwt>
<rscale>  0 0.58669971E+03</rscale>
<asrwt>0</asrwt>
<pdfrwt beam="1">  1        1 0.22492915E+00 0.58669971E+03</pdfrwt>
<pdfrwt beam="2">  1       -1 0.51132008E-01 0.58669971E+03</pdfrwt>
<totfact> 0.28227346E+01</totfact>
</mgrwt>
</event>
<event>
 4    1  0.2731969E-009  0.8983935E+03  0.7818608E-02  0.9427592E-01
          1   -1    0    0  501    0  0.00000000000E+00  0.00000000000E+00  0.22227399821E+04  0.22227399821E+04  0.50400000000E-02 0. -1.
         -1   -1    0    0    0  501 -0.00000000000E+00 -0.00000000000E+00 -0.56195493131E+03  0.56195493133E+03  0.50400000000E-02 0.  1.
    8880022    1    1    2    0    0  0.84701105495E+03 -0.25747122005E+03  0.21674035604E+01  0.89839607469E+03  0.15294330000E+03 0.  0.
    8880022    1    1    2    0    0 -0.84701105495E+03  0.25747122005E+03  0.16586176472E+04  0.18862988388E+04  0.15294330000E+03 0.  0.
<mgrwt>
<rscale>  0 0.89839346E+03</rscale>
<asrwt>0</asrwt>
<pdfrwt beam="1">  1        1 0.34196000E+00 0.89839346E+03</pdfrwt>
<pdfrwt beam="2">  1       -1 0.86454603E-01 0.89839346E+03</pdfrwt>
<totfact> 0.28562421E+00</totfact>
</mgrwt>
</event>
<event>
 4    1  0.2731969E-009  0.8058714E+03  0.7818608E-02  0.9551557E-01
         -1   -1    0    0    0  501 -0.00000000000E+00  0.00000000000E+00  0.10676495735E+04  0.10676495735E+04  0.50400000000E-02 0.  1.
          1   -1    0    0  501    0  0.00000000000E+00 -0.00000000000E+00 -0.10971037701E+04  0.10971037702E+04  0.50400000000E-02 0. -1.
    8880022    1    1    2    0    0 -0.30615395191E+02 -0.79063250354E+03  0.70776186170E+03  0.10725462992E+04  0.15294330000E+03 0.  0.
    8880022    1    1    2    0    0  0.30615395191E+02  0.79063250354E+03 -0.73721605839E+03  0.10922070444E+04  0.15294330000E+03 0.  0.
<mgrwt>
<rscale>  0 0.80587140E+03</rscale>
<asrwt>0</asrwt>
<pdfrwt beam="1">  1        1 0.16878520E+00 0.80587140E+03</pdfrwt>
<pdfrwt beam="2">  1       -1 0.16425378E+00 0.80587140E+03</pdfrwt>
<totfact> 0.35637699E+00</totfact>
</mgrwt>
</event>
<event>
 4    1  0.2731969E-009  0.6434325E+03  0.7818608E-02  0.9819181E-01
         -1   -1    0    0    0  501 -0.00000000000E+00  0.00000000000E+00  0.22669490645E+03  0.22669490650E+03  0.50400000000E-02 0.  1.
          1   -1    0    0  501    0  0.00000000000E+00 -0.00000000000E+00 -0.19178410694E+04  0.19178410694E+04  0.50400000000E-02 0. -1.
    8880022    1    1    2    0    0 -0.34536023649E+03 -0.52090313813E+03 -0.61126713768E+03  0.88749813459E+03  0.15294330000E+03 0.  0.
    8880022    1    1    2    0    0  0.34536023649E+03  0.52090313813E+03 -0.10798790252E+04  0.12570378413E+04  0.15294330000E+03 0.  0.
<mgrwt>
<rscale>  0 0.64343253E+03</rscale>
<asrwt>0</asrwt>
<pdfrwt beam="1">  1        1 0.29505246E+00 0.64343253E+03</pdfrwt>
<pdfrwt beam="2">  1       -1 0.34876141E-01 0.64343253E+03</pdfrwt>
<totfact> 0.27864362E+01</totfact>
</mgrwt>
</event>
<event>
 4    1  0.2731969E-009  0.9505869E+03  0.7818608E-02  0.9364465E-01
          1   -1    0    0  501    0  0.00000000000E+00  0.00000000000E+00  0.20280727484E+04  0.20280727484E+04  0.50400000000E-02 0. -1.
         -1   -1    0    0    0  501 -0.00000000000E+00 -0.00000000000E+00 -0.98131758185E+03  0.98131758186E+03  0.50400000000E-02 0.  1.
    8880022    1    1    2    0    0 -0.78772379283E+03 -0.50962239368E+03 -0.58843205092E+03  0.11179748161E+04  0.15294330000E+03 0.  0.
    8880022    1    1    2    0    0  0.78772379283E+03  0.50962239368E+03  0.16351872174E+04  0.18914155141E+04  0.15294330000E+03 0.  0.
<mgrwt>
<rscale>  0 0.95058688E+03</rscale>
<asrwt>0</asrwt>
<pdfrwt beam="1">  1        1 0.31201119E+00 0.95058688E+03</pdfrwt>
<pdfrwt beam="2">  1       -1 0.15097194E+00 0.95058688E+03</pdfrwt>
<totfact> 0.99701839E-01</totfact>
</mgrwt>
</event>
<event>
 4    1  0.2731969E-009  0.6606785E+03  0.7818608E-02  0.9786946E-01
          1   -1    0    0  501    0  0.00000000000E+00  0.00000000000E+00  0.29178932176E+04  0.29178932176E+04  0.50400000000E-02 0. -1.
         -1   -1    0    0    0  501 -0.00000000000E+00 -0.00000000000E+00 -0.19359717135E+03  0.19359717142E+03  0.50400000000E-02 0.  1.
    8880022    1    1    2    0    0 -0.60249105393E+03 -0.22385024797E+03  0.21038620104E+04  0.22051601791E+04  0.15294330000E+03 0.  0.
    8880022    1    1    2    0    0  0.60249105393E+03  0.22385024797E+03  0.62043403582E+03  0.90633020991E+03  0.15294330000E+03 0.  0.
<mgrwt>
<rscale>  0 0.66067848E+03</rscale>
<asrwt>0</asrwt>
<pdfrwt beam="1">  1        1 0.44890659E+00 0.66067848E+03</pdfrwt>
<pdfrwt beam="2">  1       -1 0.29784184E-01 0.66067848E+03</pdfrwt>
<totfact> 0.76575712E+00</totfact>
</mgrwt>
</event>
<event>
 4    1  0.2731969E-009  0.5916799E+03  0.7818608E-02  0.9922820E-01
         -1   -1    0    0    0  501 -0.00000000000E+00  0.00000000000E+00  0.10538313809E+04  0.10538313809E+04  0.50400000000E-02 0.  1.
          1   -1    0    0  501    0  0.00000000000E+00 -0.00000000000E+00 -0.67171449171E+03  0.67171449173E+03  0.50400000000E-02 0. -1.
    8880022    1    1    2    0    0 -0.22294134010E+03 -0.52629893375E+03  0.80444172070E+03  0.99860479861E+03  0.15294330000E+03 0.  0.
    8880022    1    1    2    0    0  0.22294134010E+03  0.52629893375E+03 -0.42232483150E+03  0.72694107403E+03  0.15294330000E+03 0.  0.
<mgrwt>
<rscale>  0 0.59167986E+03</rscale>
<asrwt>0</asrwt>
<pdfrwt beam="1">  1        1 0.10334069E+00 0.59167986E+03</pdfrwt>
<pdfrwt beam="2">  1       -1 0.16212790E+00 0.59167986E+03</pdfrwt>
<totfact> 0.86298588E+00</totfact>
</mgrwt>
</event>
<event>
 4    1  0.2731969E-009  0.8037781E+03  0.7818608E-02  0.9554565E-01
          1   -1    0    0  501    0  0.00000000000E+00  0.00000000000E+00  0.22644485672E+04  0.22644485672E+04  0.50400000000E-02 0. -1.
         -1   -1    0    0    0  501 -0.00000000000E+00 -0.00000000000E+00 -0.52850874927E+03  0.52850874930E+03  0.50400000000E-02 0.  1.
    8880022    1    1    2    0    0 -0.68764007185E+03  0.38706421827E+03 -0.79342129997E+02  0.80768459444E+03  0.15294330000E+03 0.  0.
    8880022    1    1    2    0    0  0.68764007185E+03 -0.38706421827E+03  0.18152819479E+04  0.19852727220E+04  0.15294330000E+03 0.  0.
<mgrwt>
<rscale>  0 0.80377810E+03</rscale>
<asrwt>0</asrwt>
<pdfrwt beam="1">  1        1 0.34837669E+00 0.80377810E+03</pdfrwt>
<pdfrwt beam="2">  1       -1 0.81309040E-01 0.80377810E+03</pdfrwt>
<totfact> 0.31046285E+00</totfact>
</mgrwt>
</event>
<event>
 4    1  0.2731969E-009  0.3416722E+03  0.7818608E-02  0.1066086E+00
          1   -1    0    0  501    0  0.00000000000E+00  0.00000000000E+00  0.11709420334E+04  0.11709420334E+04  0.50400000000E-02 0. -1.
         -1   -1    0    0    0  501 -0.00000000000E+00 -0.00000000000E+00 -0.39450714314E+03  0.39450714318E+03  0.50400000000E-02 0.  1.
    8880022    1    1    2    0    0  0.24545656093E+03 -0.18193226658E+03  0.10648492787E+04  0.11183219180E+04  0.15294330000E+03 0.  0.
    8880022    1    1    2    0    0 -0.24545656093E+03  0.18193226658E+03 -0.28841438842E+03  0.44712725861E+03  0.15294330000E+03 0.  0.
<mgrwt>
<rscale>  0 0.34167225E+03</rscale>
<asrwt>0</asrwt>
<pdfrwt beam="1">  1        1 0.18014493E+00 0.34167225E+03</pdfrwt>
<pdfrwt beam="2">  1       -1 0.60693406E-01 0.34167225E+03</pdfrwt>
<totfact> 0.33999759E+01</totfact>
</mgrwt>
</event>
<event>
 4    1  0.2731969E-009  0.9632340E+03  0.7818608E-02  0.9349814E-01
         -1   -1    0    0    0  501 -0.00000000000E+00  0.00000000000E+00  0.10167676671E+04  0.10167676671E+04  0.50400000000E-02 0.  1.
          1   -1    0    0  501    0  0.00000000000E+00 -0.00000000000E+00 -0.11957292654E+04  0.11957292654E+04  0.50400000000E-02 0. -1.
    8880022    1    1    2    0    0 -0.50189905331E+03 -0.80779041347E+03  0.44890160918E+03  0.10627004844E+04  0.15294330000E+03 0.  0.
    8880022    1    1    2    0    0  0.50189905331E+03  0.80779041347E+03 -0.62786320751E+03  0.11497964481E+04  0.15294330000E+03 0.  0.
<mgrwt>
<rscale>  0 0.96323396E+03</rscale>
<asrwt>0</asrwt>
<pdfrwt beam="1">  1        1 0.18395835E+00 0.96323396E+03</pdfrwt>
<pdfrwt beam="2">  1       -1 0.15642580E+00 0.96323396E+03</pdfrwt>
<totfact> 0.33766384E+00</totfact>
</mgrwt>
</event>
<event>
 4    1  0.2731969E-009  0.1019060E+04  0.7818608E-02  0.9287883E-01
          1   -1    0    0  501    0  0.00000000000E+00  0.00000000000E+00  0.17931095595E+04  0.17931095596E+04  0.50400000000E-02 0. -1.
         -1   -1    0    0    0  501 -0.00000000000E+00 -0.00000000000E+00 -0.64146828784E+03  0.64146828786E+03  0.50400000000E-02 0.  1.
    8880022    1    1    2    0    0 -0.18075254231E+03  0.99117149004E+03  0.95522715037E+03  0.13967615996E+04  0.15294330000E+03 0.  0.
    8880022    1    1    2    0    0  0.18075254231E+03 -0.99117149004E+03  0.19641412133E+03  0.10378162478E+04  0.15294330000E+03 0.  0.
<mgrwt>
<rscale>  0 0.10190604E+04</rscale>
<asrwt>0</asrwt>
<pdfrwt beam="1">  1        1 0.27586300E+00 0.10190604E+04</pdfrwt>
<pdfrwt beam="2">  1       -1 0.98687431E-01 0.10190604E+04</pdfrwt>
<totfact> 0.40702616E+00</totfact>
</mgrwt>
</event>
<event>
 4    1  0.2731969E-009  0.5425493E+03  0.7818608E-02  0.1003233E+00
         -1   -1    0    0    0  501 -0.00000000000E+00  0.00000000000E+00  0.64857356120E+03  0.64857356122E+03  0.50400000000E-02 0.  1.
          1   -1    0    0  501    0  0.00000000000E+00 -0.00000000000E+00 -0.15002974564E+04  0.15002974564E+04  0.50400000000E-02 0. -1.
    8880022    1    1    2    0    0 -0.36871268836E+03 -0.36744933663E+03  0.47146127359E+03  0.71877357148E+03  0.15294330000E+03 0.  0.
    8880022    1    1    2    0    0  0.36871268836E+03  0.36744933663E+03 -0.13231851687E+04  0.14300974461E+04  0.15294330000E+03 0.  0.
<mgrwt>
<rscale>  0 0.54254927E+03</rscale>
<asrwt>0</asrwt>
<pdfrwt beam="1">  1        1 0.23081499E+00 0.54254927E+03</pdfrwt>
<pdfrwt beam="2">  1       -1 0.99780548E-01 0.54254927E+03</pdfrwt>
<totfact> 0.67785111E+00</totfact>
</mgrwt>
</event>
<event>
 4    1  0.2731969E-009  0.1284218E+04  0.7818608E-02  0.9042175E-01
          1   -1    0    0  501    0  0.00000000000E+00  0.00000000000E+00  0.28460909565E+04  0.28460909565E+04  0.50400000000E-02 0. -1.
         -1   -1    0    0    0  501 -0.00000000000E+00 -0.00000000000E+00 -0.12193925646E+04  0.12193925646E+04  0.50400000000E-02 0.  1.
    8880022    1    1    2    0    0  0.11221683966E+04 -0.60544306218E+03 -0.65921853166E+03  0.14435317584E+04  0.15294330000E+03 0.  0.
    8880022    1    1    2    0    0 -0.11221683966E+04  0.60544306218E+03  0.22859169235E+04  0.26219517628E+04  0.15294330000E+03 0.  0.
<mgrwt>
<rscale>  0 0.12842176E+04</rscale>
<asrwt>0</asrwt>
<pdfrwt beam="1">  1        1 0.43786015E+00 0.12842176E+04</pdfrwt>
<pdfrwt beam="2">  1       -1 0.18759886E+00 0.12842176E+04</pdfrwt>
<totfact> 0.13858507E-01</totfact>
</mgrwt>
</event>
<event>
 4    1  0.2731969E-009  0.6774226E+03  0.7818608E-02  0.9756641E-01
         -1   -1    0    0    0  501 -0.00000000000E+00  0.00000000000E+00  0.19891995703E+04  0.19891995703E+04  0.50400000000E-02 0.  1.
          1   -1    0    0  501    0  0.00000000000E+00 -0.00000000000E+00 -0.10374128139E+04  0.10374128139E+04  0.50400000000E-02 0. -1.
    8880022    1    1    2    0    0  0.88911816288E+02  0.65391467378E+03 -0.85858464743E+03  0.10936493778E+04  0.15294330000E+03 0.  0.
    8880022    1    1    2    0    0 -0.88911816288E+02 -0.65391467378E+03  0.18103714038E+04  0.19329630065E+04  0.15294330000E+03 0.  0.
<mgrwt>
<rscale>  0 0.67742259E+03</rscale>
<asrwt>0</asrwt>
<pdfrwt beam="1">  1        1 0.15960197E+00 0.67742259E+03</pdfrwt>
<pdfrwt beam="2">  1       -1 0.30603070E+00 0.67742259E+03</pdfrwt>
<totfact> 0.46226525E-01</totfact>
</mgrwt>
</event>
<event>
 4    1  0.2731969E-009  0.1157004E+04  0.7818608E-02  0.9151346E-01
         -1   -1    0    0    0  501 -0.00000000000E+00  0.00000000000E+00  0.21236490179E+04  0.21236490179E+04  0.50400000000E-02 0.  1.
          1   -1    0    0  501    0  0.00000000000E+00 -0.00000000000E+00 -0.11465522304E+04  0.11465522304E+04  0.50400000000E-02 0. -1.
    8880022    1    1    2    0    0  0.44940643352E+03  0.10551308128E+04 -0.60857177515E+03  0.13072943177E+04  0.15294330000E+03 0.  0.
    8880022    1    1    2    0    0 -0.44940643352E+03 -0.10551308128E+04  0.15856685626E+04  0.19629069306E+04  0.15294330000E+03 0.  0.
<mgrwt>
<rscale>  0 0.11570042E+04</rscale>
<asrwt>0</asrwt>
<pdfrwt beam="1">  1        1 0.17639265E+00 0.11570042E+04</pdfrwt>
<pdfrwt beam="2">  1       -1 0.32671523E+00 0.11570042E+04</pdfrwt>
<totfact> 0.25699040E-01</totfact>
</mgrwt>
</event>
<event>
 4    1  0.2731969E-009  0.4850911E+03  0.7818608E-02  0.1017745E+00
          1   -1    0    0  501    0  0.00000000000E+00  0.00000000000E+00  0.27841853914E+04  0.27841853914E+04  0.50400000000E-02 0. -1.
         -1   -1    0    0    0  501 -0.00000000000E+00 -0.00000000000E+00 -0.49262083952E+03  0.49262083954E+03  0.50400000000E-02 0.  1.
    8880022    1    1    2    0    0 -0.12038196194E+03  0.44433085971E+03 -0.34546361326E+03  0.59553210724E+03  0.15294330000E+03 0.  0.
    8880022    1    1    2    0    0  0.12038196194E+03 -0.44433085971E+03  0.26370281652E+04  0.26812741237E+04  0.15294330000E+03 0. -1.
<mgrwt>
<rscale>  0 0.48509111E+03</rscale>
<asrwt>0</asrwt>
<pdfrwt beam="1">  1        1 0.42833621E+00 0.48509111E+03</pdfrwt>
<pdfrwt beam="2">  1       -1 0.75787823E-01 0.48509111E+03</pdfrwt>
<totfact> 0.17193408E+00</totfact>
</mgrwt>
</event>
<event>
 4    1  0.2731969E-009  0.7544735E+03  0.7818608E-02  0.9628358E-01
          1   -1    0    0  501    0  0.00000000000E+00  0.00000000000E+00  0.18880250121E+04  0.18880250121E+04  0.50400000000E-02 0. -1.
         -1   -1    0    0    0  501 -0.00000000000E+00 -0.00000000000E+00 -0.67974685805E+03  0.67974685806E+03  0.50400000000E-02 0.  1.
    8880022    1    1    2    0    0  0.63822584618E+03  0.37216451608E+03 -0.35359140047E+03  0.83322097265E+03  0.15294330000E+03 0.  0.
    8880022    1    1    2    0    0 -0.63822584618E+03 -0.37216451608E+03  0.15618695545E+04  0.17345508975E+04  0.15294330000E+03 0.  0.
<mgrwt>
<rscale>  0 0.75447353E+03</rscale>
<asrwt>0</asrwt>
<pdfrwt beam="1">  1        1 0.29046539E+00 0.75447353E+03</pdfrwt>
<pdfrwt beam="2">  1       -1 0.10457644E+00 0.75447353E+03</pdfrwt>
<totfact> 0.32015059E+00</totfact>
</mgrwt>
</event>
<event>
 4    1  0.2731969E-009  0.8798025E+03  0.7818608E-02  0.9451188E-01
         -1   -1    0    0    0  501 -0.00000000000E+00  0.00000000000E+00  0.59633793159E+03  0.59633793161E+03  0.50400000000E-02 0.  1.
          1   -1    0    0  501    0  0.00000000000E+00 -0.00000000000E+00 -0.15410109357E+04  0.15410109357E+04  0.50400000000E-02 0. -1.
    8880022    1    1    2    0    0  0.55247683771E+02 -0.86464351916E+03 -0.47964359207E+02  0.88110893455E+03  0.15294330000E+03 0.  0.
    8880022    1    1    2    0    0 -0.55247683771E+02  0.86464351916E+03 -0.89670864488E+03  0.12562399327E+04  0.15294330000E+03 0.  0.
<mgrwt>
<rscale>  0 0.87980246E+03</rscale>
<asrwt>0</asrwt>
<pdfrwt beam="1">  1        1 0.23707860E+00 0.87980246E+03</pdfrwt>
<pdfrwt beam="2">  1       -1 0.91744298E-01 0.87980246E+03</pdfrwt>
<totfact> 0.72437021E+00</totfact>
</mgrwt>
</event>
<event>
 4    1  0.2731969E-009  0.1394975E+04  0.7818608E-02  0.8957464E-01
         -1   -1    0    0    0  501 -0.00000000000E+00  0.00000000000E+00  0.15328180743E+04  0.15328180743E+04  0.50400000000E-02 0.  1.
          1   -1    0    0  501    0  0.00000000000E+00 -0.00000000000E+00 -0.14159127953E+04  0.14159127954E+04  0.50400000000E-02 0. -1.
    8880022    1    1    2    0    0  0.66008310047E+03  0.12193667424E+04  0.53251313743E+03  0.14931600204E+04  0.15294330000E+03 0.  0.
    8880022    1    1    2    0    0 -0.66008310047E+03 -0.12193667424E+04 -0.41560785848E+03  0.14555708492E+04  0.15294330000E+03 0.  0.
<mgrwt>
<rscale>  0 0.13949755E+04</rscale>
<asrwt>0</asrwt>
<pdfrwt beam="1">  1        1 0.21783274E+00 0.13949755E+04</pdfrwt>
<pdfrwt beam="2">  1       -1 0.23581817E+00 0.13949755E+04</pdfrwt>
<totfact> 0.61940359E-01</totfact>
</mgrwt>
</event>
<event>
 4    1  0.2731969E-009  0.4205616E+03  0.7818608E-02  0.1036884E+00
          1   -1    0    0  501    0  0.00000000000E+00  0.00000000000E+00  0.11169027591E+04  0.11169027591E+04  0.50400000000E-02 0. -1.
         -1   -1    0    0    0  501 -0.00000000000E+00 -0.00000000000E+00 -0.81925897584E+03  0.81925897586E+03  0.50400000000E-02 0.  1.
    8880022    1    1    2    0    0 -0.36578185259E+03 -0.14029986638E+03 -0.72067646225E+03  0.83441394550E+03  0.15294330000E+03 0.  0.
    8880022    1    1    2    0    0  0.36578185259E+03  0.14029986638E+03  0.10183202455E+04  0.11017477895E+04  0.15294330000E+03 0.  0.
<mgrwt>
<rscale>  0 0.42056161E+03</rscale>
<asrwt>0</asrwt>
<pdfrwt beam="1">  1        1 0.17183119E+00 0.42056161E+03</pdfrwt>
<pdfrwt beam="2">  1       -1 0.12603984E+00 0.42056161E+03</pdfrwt>
<totfact> 0.74671418E+00</totfact>
</mgrwt>
</event>
<event>
 4    1  0.2731969E-009  0.1091634E+04  0.7818608E-02  0.9213384E-01
         -1   -1    0    0    0  501 -0.00000000000E+00  0.00000000000E+00  0.12109289979E+04  0.12109289979E+04  0.50400000000E-02 0.  1.
          1   -1    0    0  501    0  0.00000000000E+00 -0.00000000000E+00 -0.14544155548E+04  0.14544155548E+04  0.50400000000E-02 0. -1.
    8880022    1    1    2    0    0 -0.66607412189E+03  0.85124563703E+03  0.63609664218E+03  0.12634415149E+04  0.15294330000E+03 0.  0.
    8880022    1    1    2    0    0  0.66607412189E+03 -0.85124563703E+03 -0.87958319907E+03  0.14019030378E+04  0.15294330000E+03 0.  0.
<mgrwt>
<rscale>  0 0.10916343E+04</rscale>
<asrwt>0</asrwt>
<pdfrwt beam="1">  1        1 0.22375624E+00 0.10916343E+04</pdfrwt>
<pdfrwt beam="2">  1       -1 0.18629677E+00 0.10916343E+04</pdfrwt>
<totfact> 0.13118852E+00</totfact>
</mgrwt>
</event>
<event>
 4    1  0.2731969E-009  0.3990777E+03  0.7818608E-02  0.1044099E+00
          1   -1    0    0  501    0  0.00000000000E+00  0.00000000000E+00  0.12885834223E+04  0.12885834224E+04  0.50400000000E-02 0. -1.
         -1   -1    0    0    0  501 -0.00000000000E+00 -0.00000000000E+00 -0.15911850048E+03  0.15911850056E+03  0.50400000000E-02 0.  1.
    8880022    1    1    2    0    0  0.18403253620E+03 -0.31937974304E+03  0.22271841275E+03  0.45701918892E+03  0.15294330000E+03 0.  1.
    8880022    1    1    2    0    0 -0.18403253620E+03  0.31937974304E+03  0.90674650911E+03  0.99068273400E+03  0.15294330000E+03 0.  0.
<mgrwt>
<rscale>  0 0.39907775E+03</rscale>
<asrwt>0</asrwt>
<pdfrwt beam="1">  1        1 0.19824360E+00 0.39907775E+03</pdfrwt>
<pdfrwt beam="2">  1       -1 0.24479769E-01 0.39907775E+03</pdfrwt>
<totfact> 0.14148249E+02</totfact>
</mgrwt>
</event>
<event>
 4    1  0.2731969E-009  0.1045550E+04  0.7818608E-02  0.9259950E-01
         -1   -1    0    0    0  501 -0.00000000000E+00  0.00000000000E+00  0.10813982538E+04  0.10813982538E+04  0.50400000000E-02 0.  1.
          1   -1    0    0  501    0  0.00000000000E+00 -0.00000000000E+00 -0.12981538625E+04  0.12981538625E+04  0.50400000000E-02 0. -1.
    8880022    1    1    2    0    0 -0.39534354578E+03 -0.95576505214E+03  0.45130557514E+03  0.11387939802E+04  0.15294330000E+03 0.  0.
    8880022    1    1    2    0    0  0.39534354578E+03  0.95576505214E+03 -0.66806118383E+03  0.12407581362E+04  0.15294330000E+03 0.  0.
<mgrwt>
<rscale>  0 0.10455501E+04</rscale>
<asrwt>0</asrwt>
<pdfrwt beam="1">  1        1 0.19971598E+00 0.10455501E+04</pdfrwt>
<pdfrwt beam="2">  1       -1 0.16636896E+00 0.10455501E+04</pdfrwt>
<totfact> 0.23711436E+00</totfact>
</mgrwt>
</event>
<event>
 4    1  0.2731969E-009  0.5634025E+03  0.7818608E-02  0.9984385E-01
          1   -1    0    0  501    0  0.00000000000E+00  0.00000000000E+00  0.72444395124E+03  0.72444395125E+03  0.50400000000E-02 0. -1.
         -1   -1    0    0    0  501 -0.00000000000E+00 -0.00000000000E+00 -0.17841842904E+04  0.17841842904E+04  0.50400000000E-02 0.  1.
    8880022    1    1    2    0    0  0.34947723474E+03  0.41460394157E+03  0.55959384977E+03  0.79408292746E+03  0.15294330000E+03 0.  0.
    8880022    1    1    2    0    0 -0.34947723474E+03 -0.41460394157E+03 -0.16193341889E+04  0.17145453142E+04  0.15294330000E+03 0.  1.
<mgrwt>
<rscale>  0 0.56340254E+03</rscale>
<asrwt>0</asrwt>
<pdfrwt beam="1">  1        1 0.11145292E+00 0.56340254E+03</pdfrwt>
<pdfrwt beam="2">  1       -1 0.27448989E+00 0.56340254E+03</pdfrwt>
<totfact> 0.13673056E+00</totfact>
</mgrwt>
</event>
<event>
 4    1  0.2731969E-009  0.4247776E+03  0.7818608E-02  0.1035523E+00
         -1   -1    0    0    0  501 -0.00000000000E+00  0.00000000000E+00  0.73960104414E+03  0.73960104416E+03  0.50400000000E-02 0.  1.
          1   -1    0    0  501    0  0.00000000000E+00 -0.00000000000E+00 -0.32295144233E+03  0.32295144237E+03  0.50400000000E-02 0. -1.
    8880022    1    1    2    0    0  0.18679154726E+03  0.34950429835E+03  0.47106767986E+03  0.63430335701E+03  0.15294330000E+03 0.  0.
    8880022    1    1    2    0    0 -0.18679154726E+03 -0.34950429835E+03 -0.54418078054E+02  0.42824912951E+03  0.15294330000E+03 0.  0.
<mgrwt>
<rscale>  0 0.42477758E+03</rscale>
<asrwt>0</asrwt>
<pdfrwt beam="1">  1        1 0.49684838E-01 0.42477758E+03</pdfrwt>
<pdfrwt beam="2">  1       -1 0.11378477E+00 0.42477758E+03</pdfrwt>
<totfact> 0.59008498E+01</totfact>
</mgrwt>
</event>
<event>
 4    1  0.2731969E-009  0.2491445E+03  0.7818608E-02  0.1113847E+00
          1   -1    0    0  501    0  0.00000000000E+00  0.00000000000E+00  0.92943377790E+03  0.92943377791E+03  0.50400000000E-02 0. -1.
         -1   -1    0    0    0  501 -0.00000000000E+00 -0.00000000000E+00 -0.71212401416E+03  0.71212401418E+03  0.50400000000E-02 0.  1.
    8880022    1    1    2    0    0 -0.19126534217E+03 -0.45813821503E+02  0.88999847036E+03  0.92421332366E+03  0.15294330000E+03 0.  0.
    8880022    1    1    2    0    0  0.19126534217E+03  0.45813821503E+02 -0.67268870663E+03  0.71734446844E+03  0.15294330000E+03 0.  1.
<mgrwt>
<rscale>  0 0.24914452E+03</rscale>
<asrwt>0</asrwt>
<pdfrwt beam="1">  1        1 0.14298981E+00 0.24914452E+03</pdfrwt>
<pdfrwt beam="2">  1       -1 0.10955754E+00 0.24914452E+03</pdfrwt>
<totfact> 0.15241880E+01</totfact>
</mgrwt>
</event>
<event>
 4    1  0.2731969E-009  0.9287715E+03  0.7818608E-02  0.9390313E-01
         -1   -1    0    0    0  501 -0.00000000000E+00  0.00000000000E+00  0.51417101570E+03  0.51417101573E+03  0.50400000000E-02 0.  1.
          1   -1    0    0  501    0  0.00000000000E+00 -0.00000000000E+00 -0.30620877601E+04  0.30620877601E+04  0.50400000000E-02 0. -1.
    8880022    1    1    2    0    0 -0.46956338679E+03  0.78659713503E+03 -0.71634386532E+02  0.93152990580E+03  0.15294330000E+03 0.  0.
    8880022    1    1    2    0    0  0.46956338679E+03 -0.78659713503E+03 -0.24762823579E+04  0.26447288701E+04  0.15294330000E+03 0.  0.
<mgrwt>
<rscale>  0 0.92877149E+03</rscale>
<asrwt>0</asrwt>
<pdfrwt beam="1">  1        1 0.47109041E+00 0.92877149E+03</pdfrwt>
<pdfrwt beam="2">  1       -1 0.79103235E-01 0.92877149E+03</pdfrwt>
<totfact> 0.89643482E-01</totfact>
</mgrwt>
</event>
<event>
 4    1  0.2731969E-009  0.6298736E+03  0.7818608E-02  0.9845295E-01
          1   -1    0    0  501    0  0.00000000000E+00  0.00000000000E+00  0.19500913901E+04  0.19500913901E+04  0.50400000000E-02 0. -1.
         -1   -1    0    0    0  501 -0.00000000000E+00 -0.00000000000E+00 -0.76359198218E+03  0.76359198220E+03  0.50400000000E-02 0.  1.
    8880022    1    1    2    0    0 -0.26963508983E+03 -0.54831198063E+03 -0.56886399253E+03  0.84873258732E+03  0.15294330000E+03 0.  0.
    8880022    1    1    2    0    0  0.26963508983E+03  0.54831198063E+03  0.17553634005E+04  0.18649507850E+04  0.15294330000E+03 0.  0.
<mgrwt>
<rscale>  0 0.62987361E+03</rscale>
<asrwt>0</asrwt>
<pdfrwt beam="1">  1        1 0.30001405E+00 0.62987361E+03</pdfrwt>
<pdfrwt beam="2">  1       -1 0.11747569E+00 0.62987361E+03</pdfrwt>
<totfact> 0.22697811E+00</totfact>
</mgrwt>
</event>
<event>
 4    1  0.2731969E-009  0.2434610E+03  0.7818608E-02  0.1117508E+00
          1   -1    0    0  501    0  0.00000000000E+00  0.00000000000E+00  0.39408305237E+04  0.39408305237E+04  0.50400000000E-02 0. -1.
         -1   -1    0    0    0  501 -0.00000000000E+00 -0.00000000000E+00 -0.67716384053E+03  0.67716384055E+03  0.50400000000E-02 0.  1.
    8880022    1    1    2    0    0 -0.40383568371E+02  0.18506965989E+03 -0.65137673158E+03  0.69538831674E+03  0.15294330000E+03 0.  0.
    8880022    1    1    2    0    0  0.40383568371E+02 -0.18506965989E+03  0.39150434148E+04  0.39226060475E+04  0.15294330000E+03 0. -1.
<mgrwt>
<rscale>  0 0.24346101E+03</rscale>
<asrwt>0</asrwt>
<pdfrwt beam="1">  1        1 0.60628161E+00 0.24346101E+03</pdfrwt>
<pdfrwt beam="2">  1       -1 0.10417905E+00 0.24346101E+03</pdfrwt>
<totfact> 0.13517572E-01</totfact>
</mgrwt>
</event>
<event>
 4    1  0.2731969E-009  0.1338337E+04  0.7818608E-02  0.8999704E-01
         -1   -1    0    0    0  501 -0.00000000000E+00  0.00000000000E+00  0.14441181375E+04  0.14441181375E+04  0.50400000000E-02 0.  1.
          1   -1    0    0  501    0  0.00000000000E+00 -0.00000000000E+00 -0.34799518315E+04  0.34799518315E+04  0.50400000000E-02 0. -1.
    8880022    1    1    2    0    0 -0.12749720244E+04  0.37709659312E+03  0.95722076591E+03  0.16454235781E+04  0.15294330000E+03 0.  0.
    8880022    1    1    2    0    0  0.12749720244E+04 -0.37709659312E+03 -0.29930544600E+04  0.32786463909E+04  0.15294330000E+03 0.  0.
<mgrwt>
<rscale>  0 0.13383375E+04</rscale>
<asrwt>0</asrwt>
<pdfrwt beam="1">  1        1 0.53537720E+00 0.13383375E+04</pdfrwt>
<pdfrwt beam="2">  1       -1 0.22217202E+00 0.13383375E+04</pdfrwt>
<totfact> 0.26893017E-02</totfact>
</mgrwt>
</event>
<event>
 4    1  0.2731969E-009  0.4470081E+03  0.7818608E-02  0.1028618E+00
          1   -1    0    0  501    0  0.00000000000E+00  0.00000000000E+00  0.81504458181E+03  0.81504458183E+03  0.50400000000E-02 0. -1.
         -1   -1    0    0    0  501 -0.00000000000E+00 -0.00000000000E+00 -0.35862635109E+03  0.35862635112E+03  0.50400000000E-02 0.  1.
    8880022    1    1    2    0    0 -0.41237966590E+03 -0.79797115019E+02  0.55829659621E+03  0.71520018930E+03  0.15294330000E+03 0.  0.
    8880022    1    1    2    0    0  0.41237966590E+03  0.79797115019E+02 -0.10187836549E+03  0.45847074365E+03  0.15294330000E+03 0.  0.
<mgrwt>
<rscale>  0 0.44700808E+03</rscale>
<asrwt>0</asrwt>
<pdfrwt beam="1">  1        1 0.12539147E+00 0.44700808E+03</pdfrwt>
<pdfrwt beam="2">  1       -1 0.55173285E-01 0.44700808E+03</pdfrwt>
<totfact> 0.75119586E+01</totfact>
</mgrwt>
</event>
<event>
 4    1  0.2731969E-009  0.5323971E+03  0.7818608E-02  0.1005652E+00
          1   -1    0    0  501    0  0.00000000000E+00  0.00000000000E+00  0.12469632426E+04  0.12469632427E+04  0.50400000000E-02 0. -1.
         -1   -1    0    0    0  501 -0.00000000000E+00 -0.00000000000E+00 -0.59652067196E+03  0.59652067198E+03  0.50400000000E-02 0.  1.
    8880022    1    1    2    0    0  0.47542617136E+03 -0.18445863404E+03  0.10503815191E+04  0.11776026583E+04  0.15294330000E+03 0.  0.
    8880022    1    1    2    0    0 -0.47542617136E+03  0.18445863404E+03 -0.39993894842E+03  0.66588125635E+03  0.15294330000E+03 0.  0.
<mgrwt>
<rscale>  0 0.53239711E+03</rscale>
<asrwt>0</asrwt>
<pdfrwt beam="1">  1        1 0.19184050E+00 0.53239711E+03</pdfrwt>
<pdfrwt beam="2">  1       -1 0.91772411E-01 0.53239711E+03</pdfrwt>
<totfact> 0.12254265E+01</totfact>
</mgrwt>
</event>
<event>
 4    1  0.2731969E-009  0.2998731E+03  0.7818608E-02  0.1085304E+00
         -1   -1    0    0    0  501 -0.00000000000E+00  0.00000000000E+00  0.27988923446E+03  0.27988923450E+03  0.50400000000E-02 0.  1.
          1   -1    0    0  501    0  0.00000000000E+00 -0.00000000000E+00 -0.41391284663E+03  0.41391284667E+03  0.50400000000E-02 0. -1.
    8880022    1    1    2    0    0 -0.16976255547E+03  0.19419809189E+03  0.97094301357E+02  0.31520022288E+03  0.15294330000E+03 0.  1.
    8880022    1    1    2    0    0  0.16976255547E+03 -0.19419809189E+03 -0.23111791353E+03  0.37860185829E+03  0.15294330000E+03 0.  1.
<mgrwt>
<rscale>  0 0.29987310E+03</rscale>
<asrwt>0</asrwt>
<pdfrwt beam="1">  1        1 0.63678899E-01 0.29987310E+03</pdfrwt>
<pdfrwt beam="2">  1       -1 0.43059882E-01 0.29987310E+03</pdfrwt>
<totfact> 0.31497189E+02</totfact>
</mgrwt>
</event>
<event>
 4    1  0.2731969E-009  0.1284830E+04  0.7818608E-02  0.9041682E-01
         -1   -1    0    0    0  501 -0.00000000000E+00  0.00000000000E+00  0.23046889631E+04  0.23046889631E+04  0.50400000000E-02 0.  1.
          1   -1    0    0  501    0  0.00000000000E+00 -0.00000000000E+00 -0.21531097604E+04  0.21531097604E+04  0.50400000000E-02 0. -1.
    8880022    1    1    2    0    0 -0.23049800437E+03  0.12546978559E+04  0.18965844274E+04  0.22908121230E+04  0.15294330000E+03 0.  0.
    8880022    1    1    2    0    0  0.23049800437E+03 -0.12546978559E+04 -0.17450052247E+04  0.21669866005E+04  0.15294330000E+03 0.  0.
<mgrwt>
<rscale>  0 0.12848298E+04</rscale>
<asrwt>0</asrwt>
<pdfrwt beam="1">  1        1 0.33124766E+00 0.12848298E+04</pdfrwt>
<pdfrwt beam="2">  1       -1 0.35456753E+00 0.12848298E+04</pdfrwt>
<totfact> 0.33171586E-02</totfact>
</mgrwt>
</event>
<event>
 4    1  0.2731969E-009  0.6773248E+03  0.7818608E-02  0.9756815E-01
         -1   -1    0    0    0  501 -0.00000000000E+00  0.00000000000E+00  0.11360398695E+04  0.11360398695E+04  0.50400000000E-02 0.  1.
          1   -1    0    0  501    0  0.00000000000E+00 -0.00000000000E+00 -0.11786279527E+04  0.11786279527E+04  0.50400000000E-02 0. -1.
    8880022    1    1    2    0    0 -0.57689404026E+03  0.32026623260E+03 -0.95964236452E+03  0.11745987886E+04  0.15294330000E+03 0.  0.
    8880022    1    1    2    0    0  0.57689404026E+03 -0.32026623260E+03  0.91705428130E+03  0.11400690336E+04  0.15294330000E+03 0.  0.
<mgrwt>
<rscale>  0 0.67732477E+03</rscale>
<asrwt>0</asrwt>
<pdfrwt beam="1">  1        1 0.18132738E+00 0.67732477E+03</pdfrwt>
<pdfrwt beam="2">  1       -1 0.17477536E+00 0.67732477E+03</pdfrwt>
<totfact> 0.26577838E+00</totfact>
</mgrwt>
</event>
<event>
 4    1  0.2731969E-009  0.1633618E+04  0.7818608E-02  0.8800157E-01
         -1   -1    0    0    0  501 -0.00000000000E+00  0.00000000000E+00  0.20329875381E+04  0.20329875381E+04  0.50400000000E-02 0.  1.
          1   -1    0    0  501    0  0.00000000000E+00 -0.00000000000E+00 -0.18753567933E+04  0.18753567933E+04  0.50400000000E-02 0. -1.
    8880022    1    1    2    0    0 -0.16106520615E+04 -0.22609015804E+03  0.11492041938E+04  0.19973429237E+04  0.15294330000E+03 0.  0.
    8880022    1    1    2    0    0  0.16106520615E+04  0.22609015804E+03 -0.99157344899E+03  0.19110014078E+04  0.15294330000E+03 0.  0.
<mgrwt>
<rscale>  0 0.16336182E+04</rscale>
<asrwt>0</asrwt>
<pdfrwt beam="1">  1        1 0.28851643E+00 0.16336182E+04</pdfrwt>
<pdfrwt beam="2">  1       -1 0.31276731E+00 0.16336182E+04</pdfrwt>
<totfact> 0.91712162E-02</totfact>
</mgrwt>
</event>
<event>
 4    1  0.2731969E-009  0.1423991E+04  0.7818608E-02  0.8936634E-01
         -1   -1    0    0    0  501 -0.00000000000E+00  0.00000000000E+00  0.17427617121E+04  0.17427617121E+04  0.50400000000E-02 0.  1.
          1   -1    0    0  501    0  0.00000000000E+00 -0.00000000000E+00 -0.13358803894E+04  0.13358803894E+04  0.50400000000E-02 0. -1.
    8880022    1    1    2    0    0 -0.11913257812E+04 -0.76491908119E+03 -0.34947078188E+03  0.14662468407E+04  0.15294330000E+03 0.  0.
    8880022    1    1    2    0    0  0.11913257812E+04  0.76491908119E+03  0.75635210458E+03  0.16123952607E+04  0.15294330000E+03 0.  0.
<mgrwt>
<rscale>  0 0.14239909E+04</rscale>
<asrwt>0</asrwt>
<pdfrwt beam="1">  1        1 0.20552006E+00 0.14239909E+04</pdfrwt>
<pdfrwt beam="2">  1       -1 0.26811718E+00 0.14239909E+04</pdfrwt>
<totfact> 0.43284007E-01</totfact>
</mgrwt>
</event>
<event>
 4    1  0.2731969E-009  0.7808336E+03  0.7818608E-02  0.9588182E-01
         -1   -1    0    0    0  501 -0.00000000000E+00  0.00000000000E+00  0.41982503955E+03  0.41982503958E+03  0.50400000000E-02 0.  1.
          1   -1    0    0  501    0  0.00000000000E+00 -0.00000000000E+00 -0.23142085103E+04  0.23142085104E+04  0.50400000000E-02 0. -1.
    8880022    1    1    2    0    0 -0.22294350745E+03  0.73253372389E+03 -0.11291591086E+03  0.78895571491E+03  0.15294330000E+03 0.  0.
    8880022    1    1    2    0    0  0.22294350745E+03 -0.73253372389E+03 -0.17814675599E+04  0.19450778350E+04  0.15294330000E+03 0.  0.
<mgrwt>
<rscale>  0 0.78083360E+03</rscale>
<asrwt>0</asrwt>
<pdfrwt beam="1">  1        1 0.35603207E+00 0.78083360E+03</pdfrwt>
<pdfrwt beam="2">  1       -1 0.64588469E-01 0.78083360E+03</pdfrwt>
<totfact> 0.46450709E+00</totfact>
</mgrwt>
</event>
<event>
 4    1  0.2731969E-009  0.9193416E+03  0.7818608E-02  0.9401721E-01
          1   -1    0    0  501    0  0.00000000000E+00  0.00000000000E+00  0.19946762826E+04  0.19946762826E+04  0.50400000000E-02 0. -1.
         -1   -1    0    0    0  501 -0.00000000000E+00 -0.00000000000E+00 -0.67765566698E+03  0.67765566700E+03  0.50400000000E-02 0.  1.
    8880022    1    1    2    0    0  0.68119194781E+03 -0.59814285013E+03 -0.15941883787E+03  0.93306128298E+03  0.15294330000E+03 0.  0.
    8880022    1    1    2    0    0 -0.68119194781E+03  0.59814285013E+03  0.14764394535E+04  0.17392706666E+04  0.15294330000E+03 0.  0.
<mgrwt>
<rscale>  0 0.91934161E+03</rscale>
<asrwt>0</asrwt>
<pdfrwt beam="1">  1        1 0.30687327E+00 0.91934161E+03</pdfrwt>
<pdfrwt beam="2">  1       -1 0.10425472E+00 0.91934161E+03</pdfrwt>
<totfact> 0.26609370E+00</totfact>
</mgrwt>
</event>
<event>
 4    1  0.2731969E-009  0.2551427E+03  0.7818608E-02  0.1110097E+00
          1   -1    0    0  501    0  0.00000000000E+00  0.00000000000E+00  0.44964081617E+04  0.44964081617E+04  0.50400000000E-02 0. -1.
         -1   -1    0    0    0  501 -0.00000000000E+00 -0.00000000000E+00 -0.34757416254E+02  0.34757416619E+02  0.50400000000E-02 0.  1.
    8880022    1    1    2    0    0 -0.17157095245E+03 -0.11076796183E+03  0.39613859432E+04  0.39695939814E+04  0.15294330000E+03 0.  0.
    8880022    1    1    2    0    0  0.17157095245E+03  0.11076796183E+03  0.50026480220E+03  0.56157159688E+03  0.15294330000E+03 0.  1.
<mgrwt>
<rscale>  0 0.25514268E+03</rscale>
<asrwt>0</asrwt>
<pdfrwt beam="1">  1        1 0.69175512E+00 0.25514268E+03</pdfrwt>
<pdfrwt beam="2">  1       -1 0.53472947E-02 0.25514268E+03</pdfrwt>
<totfact> 0.71475682E+00</totfact>
</mgrwt>
</event>
<event>
 4    1  0.2731969E-009  0.2785812E+03  0.7818608E-02  0.1096466E+00
         -1   -1    0    0    0  501 -0.00000000000E+00  0.00000000000E+00  0.33716324329E+03  0.33716324333E+03  0.50400000000E-02 0.  1.
          1   -1    0    0  501    0  0.00000000000E+00 -0.00000000000E+00 -0.13735549659E+04  0.13735549659E+04  0.50400000000E-02 0. -1.
    8880022    1    1    2    0    0  0.23074149935E+03  0.31211866110E+02 -0.12986011963E+04  0.13281462797E+04  0.15294330000E+03 0. -1.
    8880022    1    1    2    0    0 -0.23074149935E+03 -0.31211866110E+02  0.26220947377E+03  0.38257192952E+03  0.15294330000E+03 0.  0.
<mgrwt>
<rscale>  0 0.27858118E+03</rscale>
<asrwt>0</asrwt>
<pdfrwt beam="1">  1        1 0.21131615E+00 0.27858118E+03</pdfrwt>
<pdfrwt beam="2">  1       -1 0.51871269E-01 0.27858118E+03</pdfrwt>
<totfact> 0.33813728E+01</totfact>
</mgrwt>
</event>
<event>
 4    1  0.2731969E-009  0.1051683E+04  0.7818608E-02  0.9253608E-01
          1   -1    0    0  501    0  0.00000000000E+00  0.00000000000E+00  0.94385150904E+03  0.94385150905E+03  0.50400000000E-02 0. -1.
         -1   -1    0    0    0  501 -0.00000000000E+00 -0.00000000000E+00 -0.12231742203E+04  0.12231742203E+04  0.50400000000E-02 0.  1.
    8880022    1    1    2    0    0  0.51816081499E+03  0.90230565482E+03 -0.36164275592E+03  0.11121255598E+04  0.15294330000E+03 0.  0.
    8880022    1    1    2    0    0 -0.51816081499E+03 -0.90230565482E+03  0.82320044656E+02  0.10549001695E+04  0.15294330000E+03 0.  0.
<mgrwt>
<rscale>  0 0.10516833E+04</rscale>
<asrwt>0</asrwt>
<pdfrwt beam="1">  1        1 0.14520792E+00 0.10516833E+04</pdfrwt>
<pdfrwt beam="2">  1       -1 0.18818065E+00 0.10516833E+04</pdfrwt>
<totfact> 0.30427783E+00</totfact>
</mgrwt>
</event>
<event>
 4    1  0.2731969E-009  0.8675996E+03  0.7818608E-02  0.9467015E-01
          1   -1    0    0  501    0  0.00000000000E+00  0.00000000000E+00  0.15989141039E+04  0.15989141039E+04  0.50400000000E-02 0. -1.
         -1   -1    0    0    0  501 -0.00000000000E+00 -0.00000000000E+00 -0.90573576960E+03  0.90573576961E+03  0.50400000000E-02 0.  1.
    8880022    1    1    2    0    0 -0.56187858894E+03  0.64314063593E+03 -0.52125394681E+03  0.10121436441E+04  0.15294330000E+03 0.  0.
    8880022    1    1    2    0    0  0.56187858894E+03 -0.64314063593E+03  0.12144322811E+04  0.14925062293E+04  0.15294330000E+03 0. -1.
<mgrwt>
<rscale>  0 0.86759961E+03</rscale>
<asrwt>0</asrwt>
<pdfrwt beam="1">  1        1 0.24598678E+00 0.86759961E+03</pdfrwt>
<pdfrwt beam="2">  1       -1 0.13934397E+00 0.86759961E+03</pdfrwt>
<totfact> 0.24338863E+00</totfact>
</mgrwt>
</event>
<event>
 4    1  0.2731969E-009  0.1524455E+04  0.7818608E-02  0.8868351E-01
         -1   -1    0    0    0  501 -0.00000000000E+00  0.00000000000E+00  0.98863458902E+03  0.98863458903E+03  0.50400000000E-02 0.  1.
          1   -1    0    0  501    0  0.00000000000E+00 -0.00000000000E+00 -0.24152213080E+04  0.24152213080E+04  0.50400000000E-02 0. -1.
    8880022    1    1    2    0    0 -0.79794740528E+03  0.12899037308E+04 -0.99150947855E+03  0.18185308343E+04  0.15294330000E+03 0.  0.
    8880022    1    1    2    0    0  0.79794740528E+03 -0.12899037308E+04 -0.43507724041E+03  0.15853250627E+04  0.15294330000E+03 0.  0.
<mgrwt>
<rscale>  0 0.15244551E+04</rscale>
<asrwt>0</asrwt>
<pdfrwt beam="1">  1        1 0.37157251E+00 0.15244551E+04</pdfrwt>
<pdfrwt beam="2">  1       -1 0.15209763E+00 0.15244551E+04</pdfrwt>
<totfact> 0.49343550E-01</totfact>
</mgrwt>
</event>
<event>
 4    1  0.2731969E-009  0.8953521E+03  0.7818608E-02  0.9431410E-01
          1   -1    0    0  501    0  0.00000000000E+00  0.00000000000E+00  0.26314592897E+04  0.26314592897E+04  0.50400000000E-02 0. -1.
         -1   -1    0    0    0  501 -0.00000000000E+00 -0.00000000000E+00 -0.15041991360E+04  0.15041991360E+04  0.50400000000E-02 0.  1.
    8880022    1    1    2    0    0  0.59442016217E+03 -0.65186529475E+03  0.24102278541E+04  0.25711580374E+04  0.15294330000E+03 0.  0.
    8880022    1    1    2    0    0 -0.59442016217E+03  0.65186529475E+03 -0.12829677004E+04  0.15645003883E+04  0.15294330000E+03 0.  0.
<mgrwt>
<rscale>  0 0.89535208E+03</rscale>
<asrwt>0</asrwt>
<pdfrwt beam="1">  1        1 0.40483989E+00 0.89535208E+03</pdfrwt>
<pdfrwt beam="2">  1       -1 0.23141525E+00 0.89535208E+03</pdfrwt>
<totfact> 0.10620270E-01</totfact>
</mgrwt>
</event>
<event>
 4    1  0.2731969E-009  0.5411988E+03  0.7818608E-02  0.1003552E+00
          1   -1    0    0  501    0  0.00000000000E+00  0.00000000000E+00  0.14169181374E+04  0.14169181375E+04  0.50400000000E-02 0. -1.
         -1   -1    0    0    0  501 -0.00000000000E+00 -0.00000000000E+00 -0.72963336193E+03  0.72963336195E+03  0.50400000000E-02 0.  1.
    8880022    1    1    2    0    0  0.32861544218E+03  0.40189100314E+03  0.12522503416E+04  0.13641946556E+04  0.15294330000E+03 0.  0.
    8880022    1    1    2    0    0 -0.32861544218E+03 -0.40189100314E+03 -0.56496556607E+03  0.78235684384E+03  0.15294330000E+03 0.  0.
<mgrwt>
<rscale>  0 0.54119880E+03</rscale>
<asrwt>0</asrwt>
<pdfrwt beam="1">  1        1 0.21798741E+00 0.54119880E+03</pdfrwt>
<pdfrwt beam="2">  1       -1 0.11225129E+00 0.54119880E+03</pdfrwt>
<totfact> 0.58863472E+00</totfact>
</mgrwt>
</event>
<event>
 4    1  0.2731969E-009  0.1226572E+04  0.7818608E-02  0.9089911E-01
         -1   -1    0    0    0  501 -0.00000000000E+00  0.00000000000E+00  0.11403098065E+04  0.11403098065E+04  0.50400000000E-02 0.  1.
          1   -1    0    0  501    0  0.00000000000E+00 -0.00000000000E+00 -0.18715871778E+04  0.18715871778E+04  0.50400000000E-02 0. -1.
    8880022    1    1    2    0    0 -0.11369021511E+04  0.43421261918E+03 -0.11836590423E+04  0.17045607884E+04  0.15294330000E+03 0.  0.
    8880022    1    1    2    0    0  0.11369021511E+04 -0.43421261918E+03  0.45238167101E+03  0.13073361959E+04  0.15294330000E+03 0.  0.
<mgrwt>
<rscale>  0 0.12265720E+04</rscale>
<asrwt>0</asrwt>
<pdfrwt beam="1">  1        1 0.28793649E+00 0.12265720E+04</pdfrwt>
<pdfrwt beam="2">  1       -1 0.17543228E+00 0.12265720E+04</pdfrwt>
<totfact> 0.79981706E-01</totfact>
</mgrwt>
</event>
<event>
 4    1  0.2731969E-009  0.4552307E+03  0.7818608E-02  0.1026174E+00
         -1   -1    0    0    0  501 -0.00000000000E+00  0.00000000000E+00  0.10259607597E+04  0.10259607597E+04  0.50400000000E-02 0.  1.
          1   -1    0    0  501    0  0.00000000000E+00 -0.00000000000E+00 -0.98557776050E+03  0.98557776051E+03  0.50400000000E-02 0. -1.
    8880022    1    1    2    0    0  0.42798533505E+03 -0.25920077528E+02  0.91699320449E+03  0.10237731621E+04  0.15294330000E+03 0.  1.
    8880022    1    1    2    0    0 -0.42798533505E+03  0.25920077528E+02 -0.87661020533E+03  0.98776535804E+03  0.15294330000E+03 0.  0.
<mgrwt>
<rscale>  0 0.45523066E+03</rscale>
<asrwt>0</asrwt>
<pdfrwt beam="1">  1        1 0.15162735E+00 0.45523066E+03</pdfrwt>
<pdfrwt beam="2">  1       -1 0.15784012E+00 0.45523066E+03</pdfrwt>
<totfact> 0.51846094E+00</totfact>
</mgrwt>
</event>
<event>
 4    1  0.2731969E-009  0.6800867E+03  0.7818608E-02  0.9751906E-01
          1   -1    0    0  501    0  0.00000000000E+00  0.00000000000E+00  0.91573638684E+03  0.91573638685E+03  0.50400000000E-02 0. -1.
         -1   -1    0    0    0  501 -0.00000000000E+00 -0.00000000000E+00 -0.13672098128E+04  0.13672098128E+04  0.50400000000E-02 0.  1.
    8880022    1    1    2    0    0 -0.66057096973E+03  0.52651796573E+02 -0.11321683437E+04  0.13207282192E+04  0.15294330000E+03 0.  0.
    8880022    1    1    2    0    0  0.66057096973E+03 -0.52651796573E+02  0.68069491773E+03  0.96221798038E+03  0.15294330000E+03 0.  0.
<mgrwt>
<rscale>  0 0.68008666E+03</rscale>
<asrwt>0</asrwt>
<pdfrwt beam="1">  1        1 0.14088252E+00 0.68008666E+03</pdfrwt>
<pdfrwt beam="2">  1       -1 0.21033997E+00 0.68008666E+03</pdfrwt>
<totfact> 0.23857485E+00</totfact>
</mgrwt>
</event>
<event>
 4    1  0.2731969E-009  0.1310215E+04  0.7818608E-02  0.9021504E-01
         -1   -1    0    0    0  501 -0.00000000000E+00  0.00000000000E+00  0.11908611195E+04  0.11908611195E+04  0.50400000000E-02 0.  1.
          1   -1    0    0  501    0  0.00000000000E+00 -0.00000000000E+00 -0.26589300274E+04  0.26589300275E+04  0.50400000000E-02 0. -1.
    8880022    1    1    2    0    0  0.10286165583E+04  0.79700646592E+03 -0.20365119555E+04  0.24215788091E+04  0.15294330000E+03 0.  0.
    8880022    1    1    2    0    0 -0.10286165583E+04 -0.79700646592E+03  0.56844304748E+03  0.14282123379E+04  0.15294330000E+03 0.  0.
<mgrwt>
<rscale>  0 0.13102149E+04</rscale>
<asrwt>0</asrwt>
<pdfrwt beam="1">  1        1 0.40906616E+00 0.13102149E+04</pdfrwt>
<pdfrwt beam="2">  1       -1 0.18320940E+00 0.13102149E+04</pdfrwt>
<totfact> 0.20112419E-01</totfact>
</mgrwt>
</event>
<event>
 4    1  0.2731969E-009  0.4861602E+03  0.7818608E-02  0.1017456E+00
         -1   -1    0    0    0  501 -0.00000000000E+00  0.00000000000E+00  0.10338241745E+04  0.10338241745E+04  0.50400000000E-02 0.  1.
          1   -1    0    0  501    0  0.00000000000E+00 -0.00000000000E+00 -0.12222493532E+04  0.12222493532E+04  0.50400000000E-02 0. -1.
    8880022    1    1    2    0    0  0.24987031622E+03 -0.38797537440E+03  0.92286901225E+03  0.10430910472E+04  0.15294330000E+03 0.  0.
    8880022    1    1    2    0    0 -0.24987031622E+03  0.38797537440E+03 -0.11112941910E+04  0.12129824805E+04  0.15294330000E+03 0.  0.
<mgrwt>
<rscale>  0 0.48616018E+03</rscale>
<asrwt>0</asrwt>
<pdfrwt beam="1">  1        1 0.18803836E+00 0.48616018E+03</pdfrwt>
<pdfrwt beam="2">  1       -1 0.15904987E+00 0.48616018E+03</pdfrwt>
<totfact> 0.33707366E+00</totfact>
</mgrwt>
</event>
<event>
 4    1  0.2731969E-009  0.1490073E+04  0.7818608E-02  0.8891081E-01
         -1   -1    0    0    0  501 -0.00000000000E+00  0.00000000000E+00  0.13782683158E+04  0.13782683158E+04  0.50400000000E-02 0.  1.
          1   -1    0    0  501    0  0.00000000000E+00 -0.00000000000E+00 -0.24364294981E+04  0.24364294981E+04  0.50400000000E-02 0. -1.
    8880022    1    1    2    0    0 -0.12134626925E+02 -0.14821531597E+04 -0.16392959109E+04  0.22153121619E+04  0.15294330000E+03 0.  0.
    8880022    1    1    2    0    0  0.12134626925E+02  0.14821531597E+04  0.58113472856E+03  0.15993856520E+04  0.15294330000E+03 0.  0.
<mgrwt>
<rscale>  0 0.14900728E+04</rscale>
<asrwt>0</asrwt>
<pdfrwt beam="1">  1        1 0.37483531E+00 0.14900728E+04</pdfrwt>
<pdfrwt beam="2">  1       -1 0.21204128E+00 0.14900728E+04</pdfrwt>
<totfact> 0.17659597E-01</totfact>
</mgrwt>
</event>
<event>
 4    1  0.2731969E-009  0.6634697E+03  0.7818608E-02  0.9781827E-01
         -1   -1    0    0    0  501 -0.00000000000E+00  0.00000000000E+00  0.30933304981E+03  0.30933304985E+03  0.50400000000E-02 0.  1.
          1   -1    0    0  501    0  0.00000000000E+00 -0.00000000000E+00 -0.25182356826E+04  0.25182356826E+04  0.50400000000E-02 0. -1.
    8880022    1    1    2    0    0 -0.44788259707E+03 -0.46497485688E+03 -0.20368070083E+04  0.21421425911E+04  0.15294330000E+03 0.  0.
    8880022    1    1    2    0    0  0.44788259707E+03  0.46497485688E+03 -0.17209562444E+03  0.68542614136E+03  0.15294330000E+03 0.  0.
<mgrwt>
<rscale>  0 0.66346974E+03</rscale>
<asrwt>0</asrwt>
<pdfrwt beam="1">  1        1 0.38742086E+00 0.66346974E+03</pdfrwt>
<pdfrwt beam="2">  1       -1 0.47589702E-01 0.66346974E+03</pdfrwt>
<totfact> 0.62353457E+00</totfact>
</mgrwt>
</event>
<event>
 4    1  0.2731969E-009  0.4522430E+03  0.7818608E-02  0.1027055E+00
         -1   -1    0    0    0  501 -0.00000000000E+00  0.00000000000E+00  0.66382992303E+03  0.66382992305E+03  0.50400000000E-02 0.  1.
          1   -1    0    0  501    0  0.00000000000E+00 -0.00000000000E+00 -0.12918286139E+04  0.12918286139E+04  0.50400000000E-02 0. -1.
    8880022    1    1    2    0    0  0.33294429620E+03 -0.26510400073E+03  0.53929526561E+03  0.70382034078E+03  0.15294330000E+03 0.  0.
    8880022    1    1    2    0    0 -0.33294429620E+03  0.26510400073E+03 -0.11672939564E+04  0.12518381961E+04  0.15294330000E+03 0.  0.
<mgrwt>
<rscale>  0 0.45224295E+03</rscale>
<asrwt>0</asrwt>
<pdfrwt beam="1">  1        1 0.19874286E+00 0.45224295E+03</pdfrwt>
<pdfrwt beam="2">  1       -1 0.10212768E+00 0.45224295E+03</pdfrwt>
<totfact> 0.91362417E+00</totfact>
</mgrwt>
</event>
<event>
 4    1  0.2731969E-009  0.2821135E+03  0.7818608E-02  0.1094540E+00
          1   -1    0    0  501    0  0.00000000000E+00  0.00000000000E+00  0.32010058601E+04  0.32010058602E+04  0.50400000000E-02 0. -1.
         -1   -1    0    0    0  501 -0.00000000000E+00 -0.00000000000E+00 -0.11236289298E+03  0.11236289309E+03  0.50400000000E-02 0.  1.
    8880022    1    1    2    0    0 -0.10363760105E+03 -0.21320325399E+03  0.30062662917E+04  0.30194743002E+04  0.15294330000E+03 0. -1.
    8880022    1    1    2    0    0  0.10363760105E+03  0.21320325399E+03  0.82376675472E+02  0.29389445306E+03  0.15294330000E+03 0.  0.
<mgrwt>
<rscale>  0 0.28211351E+03</rscale>
<asrwt>0</asrwt>
<pdfrwt beam="1">  1        1 0.49246240E+00 0.28211351E+03</pdfrwt>
<pdfrwt beam="2">  1       -1 0.17286600E-01 0.28211351E+03</pdfrwt>
<totfact> 0.13341150E+01</totfact>
</mgrwt>
</event>
<event>
 4    1  0.2731969E-009  0.3119085E+03  0.7818608E-02  0.1079435E+00
          1   -1    0    0  501    0  0.00000000000E+00  0.00000000000E+00  0.33017725245E+03  0.33017725249E+03  0.50400000000E-02 0. -1.
         -1   -1    0    0    0  501 -0.00000000000E+00 -0.00000000000E+00 -0.13839341241E+04  0.13839341241E+04  0.50400000000E-02 0.  1.
    8880022    1    1    2    0    0  0.24490961791E+03 -0.11796002958E+03 -0.12872428615E+04  0.13244927810E+04  0.15294330000E+03 0.  0.
    8880022    1    1    2    0    0 -0.24490961791E+03  0.11796002958E+03  0.23348598986E+03  0.38961859555E+03  0.15294330000E+03 0.  0.
<mgrwt>
<rscale>  0 0.31190855E+03</rscale>
<asrwt>0</asrwt>
<pdfrwt beam="1">  1        1 0.50796501E-01 0.31190855E+03</pdfrwt>
<pdfrwt beam="2">  1       -1 0.21291294E+00 0.31190855E+03</pdfrwt>
<totfact> 0.10630233E+01</totfact>
</mgrwt>
</event>
<event>
 4    1  0.2731969E-009  0.1284547E+04  0.7818608E-02  0.9041910E-01
         -1   -1    0    0    0  501 -0.00000000000E+00  0.00000000000E+00  0.19566348037E+04  0.19566348037E+04  0.50400000000E-02 0.  1.
          1   -1    0    0  501    0  0.00000000000E+00 -0.00000000000E+00 -0.12890570174E+04  0.12890570174E+04  0.50400000000E-02 0. -1.
    8880022    1    1    2    0    0  0.23881262247E+03  0.12528521677E+04  0.12880834838E+04  0.18191263664E+04  0.15294330000E+03 0.  0.
    8880022    1    1    2    0    0 -0.23881262247E+03 -0.12528521677E+04 -0.62050569741E+03  0.14265654547E+04  0.15294330000E+03 0.  0.
<mgrwt>
<rscale>  0 0.12845473E+04</rscale>
<asrwt>0</asrwt>
<pdfrwt beam="1">  1        1 0.19831647E+00 0.12845473E+04</pdfrwt>
<pdfrwt beam="2">  1       -1 0.30102074E+00 0.12845473E+04</pdfrwt>
<totfact> 0.29142962E-01</totfact>
</mgrwt>
</event>
<event>
 4    1  0.2731969E-009  0.1089150E+04  0.7818608E-02  0.9215832E-01
          1   -1    0    0  501    0  0.00000000000E+00  0.00000000000E+00  0.82073306247E+03  0.82073306249E+03  0.50400000000E-02 0. -1.
         -1   -1    0    0    0  501 -0.00000000000E+00 -0.00000000000E+00 -0.15103137461E+04  0.15103137461E+04  0.50400000000E-02 0.  1.
    8880022    1    1    2    0    0 -0.53428686239E+01  0.10783450433E+04 -0.10306843095E+03  0.10940161484E+04  0.15294330000E+03 0.  0.
    8880022    1    1    2    0    0  0.53428686239E+01 -0.10783450433E+04 -0.58651225269E+03  0.12370306602E+04  0.15294330000E+03 0.  0.
<mgrwt>
<rscale>  0 0.10891502E+04</rscale>
<asrwt>0</asrwt>
<pdfrwt beam="1">  1        1 0.12626663E+00 0.10891502E+04</pdfrwt>
<pdfrwt beam="2">  1       -1 0.23235596E+00 0.10891502E+04</pdfrwt>
<totfact> 0.19225146E+00</totfact>
</mgrwt>
</event>
<event>
 4    1  0.2731969E-009  0.5948011E+03  0.7818608E-02  0.9916251E-01
          1   -1    0    0  501    0  0.00000000000E+00  0.00000000000E+00  0.22468828457E+04  0.22468828457E+04  0.50400000000E-02 0. -1.
         -1   -1    0    0    0  501 -0.00000000000E+00 -0.00000000000E+00 -0.88866109227E+03  0.88866109229E+03  0.50400000000E-02 0.  1.
    8880022    1    1    2    0    0  0.34838280706E+03  0.45719372300E+03  0.21012235270E+04  0.21837876829E+04  0.15294330000E+03 0.  0.
    8880022    1    1    2    0    0 -0.34838280706E+03 -0.45719372300E+03 -0.74300177355E+03  0.95175625510E+03  0.15294330000E+03 0.  0.
<mgrwt>
<rscale>  0 0.59480109E+03</rscale>
<asrwt>0</asrwt>
<pdfrwt beam="1">  1        1 0.34567428E+00 0.59480109E+03</pdfrwt>
<pdfrwt beam="2">  1       -1 0.13671709E+00 0.59480109E+03</pdfrwt>
<totfact> 0.99671850E-01</totfact>
</mgrwt>
</event>
<event>
 4    1  0.2731969E-009  0.4886590E+03  0.7818608E-02  0.1016782E+00
         -1   -1    0    0    0  501 -0.00000000000E+00  0.00000000000E+00  0.26418690332E+03  0.26418690337E+03  0.50400000000E-02 0.  1.
          1   -1    0    0  501    0  0.00000000000E+00 -0.00000000000E+00 -0.12762488353E+04  0.12762488353E+04  0.50400000000E-02 0. -1.
    8880022    1    1    2    0    0  0.40043822338E+03  0.23461719002E+03 -0.89981514553E+02  0.49687455416E+03  0.15294330000E+03 0.  0.
    8880022    1    1    2    0    0 -0.40043822338E+03 -0.23461719002E+03 -0.92208041741E+03  0.10435611845E+04  0.15294330000E+03 0.  0.
<mgrwt>
<rscale>  0 0.48865903E+03</rscale>
<asrwt>0</asrwt>
<pdfrwt beam="1">  1        1 0.19634597E+00 0.48865903E+03</pdfrwt>
<pdfrwt beam="2">  1       -1 0.40644140E-01 0.48865903E+03</pdfrwt>
<totfact> 0.58931270E+01</totfact>
</mgrwt>
</event>
<event>
 4    1  0.2731969E-009  0.4916166E+03  0.7818608E-02  0.1015991E+00
          1   -1    0    0  501    0  0.00000000000E+00  0.00000000000E+00  0.75053228225E+03  0.75053228226E+03  0.50400000000E-02 0. -1.
         -1   -1    0    0    0  501 -0.00000000000E+00 -0.00000000000E+00 -0.66932117988E+03  0.66932117990E+03  0.50400000000E-02 0.  1.
    8880022    1    1    2    0    0  0.46325894418E+03 -0.60715504726E+02  0.55199172679E+03  0.73917639393E+03  0.15294330000E+03 0.  0.
    8880022    1    1    2    0    0 -0.46325894418E+03  0.60715504726E+02 -0.47078062443E+03  0.68067706824E+03  0.15294330000E+03 0.  0.
<mgrwt>
<rscale>  0 0.49161659E+03</rscale>
<asrwt>0</asrwt>
<pdfrwt beam="1">  1        1 0.11546650E+00 0.49161659E+03</pdfrwt>
<pdfrwt beam="2">  1       -1 0.10297249E+00 0.49161659E+03</pdfrwt>
<totfact> 0.23184419E+01</totfact>
</mgrwt>
</event>
<event>
 4    1  0.2731969E-009  0.6191751E+03  0.7818608E-02  0.9866403E-01
          1   -1    0    0  501    0  0.00000000000E+00  0.00000000000E+00  0.23548720434E+03  0.23548720439E+03  0.50400000000E-02 0. -1.
         -1   -1    0    0    0  501 -0.00000000000E+00 -0.00000000000E+00 -0.23755344396E+04  0.23755344396E+04  0.50400000000E-02 0.  1.
    8880022    1    1    2    0    0 -0.58137473288E+03  0.14828894336E+03 -0.18023583749E+04  0.19057475057E+04  0.15294330000E+03 0.  0.
    8880022    1    1    2    0    0  0.58137473288E+03 -0.14828894336E+03 -0.33768886032E+03  0.70527413830E+03  0.15294330000E+03 0.  0.
<mgrwt>
<rscale>  0 0.61917513E+03</rscale>
<asrwt>0</asrwt>
<pdfrwt beam="1">  1        1 0.36228802E-01 0.61917513E+03</pdfrwt>
<pdfrwt beam="2">  1       -1 0.36546682E+00 0.61917513E+03</pdfrwt>
<totfact> 0.16007830E+00</totfact>
</mgrwt>
</event>
<event>
 4    1  0.2731969E-009  0.2719630E+03  0.7818608E-02  0.1100161E+00
         -1   -1    0    0    0  501 -0.00000000000E+00  0.00000000000E+00  0.43365545832E+03  0.43365545835E+03  0.50400000000E-02 0.  1.
          1   -1    0    0  501    0  0.00000000000E+00 -0.00000000000E+00 -0.21436022031E+03  0.21436022037E+03  0.50400000000E-02 0. -1.
    8880022    1    1    2    0    0 -0.16626168832E+03  0.15142422446E+03 -0.36814691368E+02  0.27444347191E+03  0.15294330000E+03 0.  0.
    8880022    1    1    2    0    0  0.16626168832E+03 -0.15142422446E+03  0.25610992938E+03  0.37357220680E+03  0.15294330000E+03 0.  0.
<mgrwt>
<rscale>  0 0.27196304E+03</rscale>
<asrwt>0</asrwt>
<pdfrwt beam="1">  1        1 0.32978496E-01 0.27196304E+03</pdfrwt>
<pdfrwt beam="2">  1       -1 0.66716223E-01 0.27196304E+03</pdfrwt>
<totfact> 0.31865398E+02</totfact>
</mgrwt>
</event>
<event>
 4    1  0.2731969E-009  0.9220980E+03  0.7818608E-02  0.9398372E-01
          1   -1    0    0  501    0  0.00000000000E+00  0.00000000000E+00  0.12154678106E+04  0.12154678106E+04  0.50400000000E-02 0. -1.
         -1   -1    0    0    0  501 -0.00000000000E+00 -0.00000000000E+00 -0.12484581787E+04  0.12484581787E+04  0.50400000000E-02 0.  1.
    8880022    1    1    2    0    0  0.66009422245E+03 -0.62541878214E+03 -0.83338910206E+03  0.12429006734E+04  0.15294330000E+03 0.  0.
    8880022    1    1    2    0    0 -0.66009422245E+03  0.62541878214E+03  0.80039873403E+03  0.12210253159E+04  0.15294330000E+03 0.  0.
<mgrwt>
<rscale>  0 0.92209798E+03</rscale>
<asrwt>0</asrwt>
<pdfrwt beam="1">  1        1 0.18699505E+00 0.92209798E+03</pdfrwt>
<pdfrwt beam="2">  1       -1 0.19207049E+00 0.92209798E+03</pdfrwt>
<totfact> 0.18076593E+00</totfact>
</mgrwt>
</event>
<event>
 4    1  0.2731969E-009  0.9799487E+03  0.7818608E-02  0.9330814E-01
         -1   -1    0    0    0  501 -0.00000000000E+00  0.00000000000E+00  0.61364527729E+03  0.61364527731E+03  0.50400000000E-02 0.  1.
          1   -1    0    0  501    0  0.00000000000E+00 -0.00000000000E+00 -0.17359328409E+04  0.17359328409E+04  0.50400000000E-02 0. -1.
    8880022    1    1    2    0    0  0.10131929550E+03  0.96262256637E+03 -0.19240327385E+03  0.99865833884E+03  0.15294330000E+03 0.  0.
    8880022    1    1    2    0    0 -0.10131929550E+03 -0.96262256637E+03 -0.92988428971E+03  0.13509197793E+04  0.15294330000E+03 0.  0.
<mgrwt>
<rscale>  0 0.97994870E+03</rscale>
<asrwt>0</asrwt>
<pdfrwt beam="1">  1        1 0.26706659E+00 0.97994870E+03</pdfrwt>
<pdfrwt beam="2">  1       -1 0.94406966E-01 0.97994870E+03</pdfrwt>
<totfact> 0.49433573E+00</totfact>
</mgrwt>
</event>
<event>
 4    1  0.2731969E-009  0.7841589E+03  0.7818608E-02  0.9583234E-01
          1   -1    0    0  501    0  0.00000000000E+00  0.00000000000E+00  0.89283719197E+03  0.89283719199E+03  0.50400000000E-02 0. -1.
         -1   -1    0    0    0  501 -0.00000000000E+00 -0.00000000000E+00 -0.11938400574E+04  0.11938400574E+04  0.50400000000E-02 0.  1.
    8880022    1    1    2    0    0 -0.30792980174E+03  0.70476429885E+03 -0.82916445752E+03  0.11412356594E+04  0.15294330000E+03 0.  0.
    8880022    1    1    2    0    0  0.30792980174E+03 -0.70476429885E+03  0.52816159207E+03  0.94544158999E+03  0.15294330000E+03 0.  0.
<mgrwt>
<rscale>  0 0.78415887E+03</rscale>
<asrwt>0</asrwt>
<pdfrwt beam="1">  1        1 0.13735957E+00 0.78415887E+03</pdfrwt>
<pdfrwt beam="2">  1       -1 0.18366770E+00 0.78415887E+03</pdfrwt>
<totfact> 0.37320094E+00</totfact>
</mgrwt>
</event>
<event>
 4    1  0.2731969E-009  0.1187554E+04  0.7818608E-02  0.9123821E-01
          1   -1    0    0  501    0  0.00000000000E+00  0.00000000000E+00  0.89520650160E+03  0.89520650161E+03  0.50400000000E-02 0. -1.
         -1   -1    0    0    0  501 -0.00000000000E+00 -0.00000000000E+00 -0.23636934177E+04  0.23636934177E+04  0.50400000000E-02 0.  1.
    8880022    1    1    2    0    0  0.83712881232E+03 -0.82831598803E+03 -0.16752594163E+04  0.20534794348E+04  0.15294330000E+03 0.  0.
    8880022    1    1    2    0    0 -0.83712881232E+03  0.82831598803E+03  0.20677250023E+03  0.12054204844E+04  0.15294330000E+03 0.  0.
<mgrwt>
<rscale>  0 0.11875537E+04</rscale>
<asrwt>0</asrwt>
<pdfrwt beam="1">  1        1 0.13772408E+00 0.11875537E+04</pdfrwt>
<pdfrwt beam="2">  1       -1 0.36364514E+00 0.11875537E+04</pdfrwt>
<totfact> 0.22973007E-01</totfact>
</mgrwt>
</event>
<event>
 4    1  0.2731969E-009  0.1303371E+04  0.7818608E-02  0.9026896E-01
          1   -1    0    0  501    0  0.00000000000E+00  0.00000000000E+00  0.32675056070E+04  0.32675056070E+04  0.50400000000E-02 0. -1.
         -1   -1    0    0    0  501 -0.00000000000E+00 -0.00000000000E+00 -0.14758972962E+04  0.14758972962E+04  0.50400000000E-02 0.  1.
    8880022    1    1    2    0    0 -0.12152111770E+04  0.44569809895E+03 -0.10129950648E+04  0.16507379121E+04  0.15294330000E+03 0.  0.
    8880022    1    1    2    0    0  0.12152111770E+04 -0.44569809895E+03  0.28046033755E+04  0.30926649911E+04  0.15294330000E+03 0.  0.
<mgrwt>
<rscale>  0 0.13033713E+04</rscale>
<asrwt>0</asrwt>
<pdfrwt beam="1">  1        1 0.50269317E+00 0.13033713E+04</pdfrwt>
<pdfrwt beam="2">  1       -1 0.22706112E+00 0.13033713E+04</pdfrwt>
<totfact> 0.36497986E-02</totfact>
</mgrwt>
</event>
<event>
 4    1  0.2731969E-009  0.1107691E+04  0.7818608E-02  0.9197728E-01
         -1   -1    0    0    0  501 -0.00000000000E+00  0.00000000000E+00  0.18192776102E+04  0.18192776102E+04  0.50400000000E-02 0.  1.
          1   -1    0    0  501    0  0.00000000000E+00 -0.00000000000E+00 -0.22803403765E+04  0.22803403765E+04  0.50400000000E-02 0. -1.
    8880022    1    1    2    0    0  0.10059475133E+04 -0.43778613428E+03  0.14896488729E+04  0.18563492442E+04  0.15294330000E+03 0.  0.
    8880022    1    1    2    0    0 -0.10059475133E+04  0.43778613428E+03 -0.19507116392E+04  0.22432687426E+04  0.15294330000E+03 0.  0.
<mgrwt>
<rscale>  0 0.11076907E+04</rscale>
<asrwt>0</asrwt>
<pdfrwt beam="1">  1        1 0.35082160E+00 0.11076907E+04</pdfrwt>
<pdfrwt beam="2">  1       -1 0.27988886E+00 0.11076907E+04</pdfrwt>
<totfact> 0.85824117E-02</totfact>
</mgrwt>
</event>
<event>
 4    1  0.2731969E-009  0.1596569E+04  0.7818608E-02  0.8822659E-01
          1   -1    0    0  501    0  0.00000000000E+00  0.00000000000E+00  0.18793184959E+04  0.18793184959E+04  0.50400000000E-02 0. -1.
         -1   -1    0    0    0  501 -0.00000000000E+00 -0.00000000000E+00 -0.16545061929E+04  0.16545061929E+04  0.50400000000E-02 0.  1.
    8880022    1    1    2    0    0  0.34850868703E+03 -0.15505427884E+04 -0.63765256361E+03  0.17191956516E+04  0.15294330000E+03 0.  0.
    8880022    1    1    2    0    0 -0.34850868703E+03  0.15505427884E+04  0.86246486665E+03  0.18146290372E+04  0.15294330000E+03 0.  0.
<mgrwt>
<rscale>  0 0.15965691E+04</rscale>
<asrwt>0</asrwt>
<pdfrwt beam="1">  1        1 0.28912592E+00 0.15965691E+04</pdfrwt>
<pdfrwt beam="2">  1       -1 0.25453942E+00 0.15965691E+04</pdfrwt>
<totfact> 0.21870836E-01</totfact>
</mgrwt>
</event>
<event>
 4    1  0.2731969E-009  0.6746932E+03  0.7818608E-02  0.9761517E-01
          1   -1    0    0  501    0  0.00000000000E+00  0.00000000000E+00  0.12644823244E+04  0.12644823244E+04  0.50400000000E-02 0. -1.
         -1   -1    0    0    0  501 -0.00000000000E+00 -0.00000000000E+00 -0.52243909738E+03  0.52243909741E+03  0.50400000000E-02 0.  1.
    8880022    1    1    2    0    0 -0.42725740817E+03 -0.49926979799E+03  0.86922402545E+03  0.11003459835E+04  0.15294330000E+03 0.  0.
    8880022    1    1    2    0    0  0.42725740817E+03  0.49926979799E+03 -0.12718079840E+03  0.68657543833E+03  0.15294330000E+03 0.  0.
<mgrwt>
<rscale>  0 0.67469317E+03</rscale>
<asrwt>0</asrwt>
<pdfrwt beam="1">  1        1 0.19453574E+00 0.67469317E+03</pdfrwt>
<pdfrwt beam="2">  1       -1 0.80375246E-01 0.67469317E+03</pdfrwt>
<totfact> 0.15471815E+01</totfact>
</mgrwt>
</event>
<event>
 4    1  0.2731969E-009  0.7438618E+03  0.7818608E-02  0.9645030E-01
          1   -1    0    0  501    0  0.00000000000E+00  0.00000000000E+00  0.23209578547E+04  0.23209578547E+04  0.50400000000E-02 0. -1.
         -1   -1    0    0    0  501 -0.00000000000E+00 -0.00000000000E+00 -0.25334483476E+03  0.25334483481E+03  0.50400000000E-02 0.  1.
    8880022    1    1    2    0    0  0.72553732141E+03 -0.59450067870E+02  0.72124795821E+03  0.10361124387E+04  0.15294330000E+03 0.  1.
    8880022    1    1    2    0    0 -0.72553732141E+03  0.59450067870E+02  0.13463650618E+04  0.15381902509E+04  0.15294330000E+03 0.  0.
<mgrwt>
<rscale>  0 0.74386179E+03</rscale>
<asrwt>0</asrwt>
<pdfrwt beam="1">  1        1 0.35707045E+00 0.74386179E+03</pdfrwt>
<pdfrwt beam="2">  1       -1 0.38976127E-01 0.74386179E+03</pdfrwt>
<totfact> 0.12078182E+01</totfact>
</mgrwt>
</event>
<event>
 4    1  0.2731969E-009  0.6373478E+03  0.7818608E-02  0.9830814E-01
          1   -1    0    0  501    0  0.00000000000E+00  0.00000000000E+00  0.36066697650E+04  0.36066697650E+04  0.50400000000E-02 0. -1.
         -1   -1    0    0    0  501 -0.00000000000E+00 -0.00000000000E+00 -0.34137572827E+03  0.34137572831E+03  0.50400000000E-02 0.  1.
    8880022    1    1    2    0    0  0.56874095174E+03 -0.24362740577E+03  0.16748189267E+02  0.63756783002E+03  0.15294330000E+03 0.  1.
    8880022    1    1    2    0    0 -0.56874095174E+03  0.24362740577E+03  0.32485458475E+04  0.33104776633E+04  0.15294330000E+03 0.  0.
<mgrwt>
<rscale>  0 0.63734781E+03</rscale>
<asrwt>0</asrwt>
<pdfrwt beam="1">  1        1 0.55487227E+00 0.63734781E+03</pdfrwt>
<pdfrwt beam="2">  1       -1 0.52519343E-01 0.63734781E+03</pdfrwt>
<totfact> 0.84634539E-01</totfact>
</mgrwt>
</event>
<event>
 4    1  0.2731969E-009  0.1890570E+03  0.7818608E-02  0.1159315E+00
          1   -1    0    0  501    0  0.00000000000E+00  0.00000000000E+00  0.50385852661E+03  0.50385852663E+03  0.50400000000E-02 0. -1.
         -1   -1    0    0    0  501 -0.00000000000E+00 -0.00000000000E+00 -0.85324486729E+03  0.85324486731E+03  0.50400000000E-02 0.  1.
    8880022    1    1    2    0    0  0.11103104850E+03  0.47942648705E+01  0.47503959994E+03  0.51127796083E+03  0.15294330000E+03 0.  0.
    8880022    1    1    2    0    0 -0.11103104850E+03 -0.47942648705E+01 -0.82442594062E+03  0.84582543311E+03  0.15294330000E+03 0.  1.
<mgrwt>
<rscale>  0 0.18905695E+03</rscale>
<asrwt>0</asrwt>
<pdfrwt beam="1">  1        1 0.77516696E-01 0.18905695E+03</pdfrwt>
<pdfrwt beam="2">  1       -1 0.13126844E+00 0.18905695E+03</pdfrwt>
<totfact> 0.24822736E+01</totfact>
</mgrwt>
</event>
<event>
 4    1  0.2731969E-009  0.1236813E+04  0.7818608E-02  0.9081231E-01
          1   -1    0    0  501    0  0.00000000000E+00  0.00000000000E+00  0.39902113700E+04  0.39902113700E+04  0.50400000000E-02 0. -1.
         -1   -1    0    0    0  501 -0.00000000000E+00 -0.00000000000E+00 -0.68053978731E+03  0.68053978733E+03  0.50400000000E-02 0.  1.
    8880022    1    1    2    0    0  0.12208853945E+04  0.12550846146E+03  0.31980860508E+04  0.34289152164E+04  0.15294330000E+03 0.  0.
    8880022    1    1    2    0    0 -0.12208853945E+04 -0.12550846146E+03  0.11158553198E+03  0.12418359410E+04  0.15294330000E+03 0.  0.
<mgrwt>
<rscale>  0 0.12368125E+04</rscale>
<asrwt>0</asrwt>
<pdfrwt beam="1">  1        1 0.61387869E+00 0.12368125E+04</pdfrwt>
<pdfrwt beam="2">  1       -1 0.10469843E+00 0.12368125E+04</pdfrwt>
<totfact> 0.84551827E-02</totfact>
</mgrwt>
</event>
<event>
 4    1  0.2731969E-009  0.1007229E+04  0.7818608E-02  0.9300651E-01
          1   -1    0    0  501    0  0.00000000000E+00  0.00000000000E+00  0.39877289031E+03  0.39877289034E+03  0.50400000000E-02 0. -1.
         -1   -1    0    0    0  501 -0.00000000000E+00 -0.00000000000E+00 -0.36683950023E+04  0.36683950023E+04  0.50400000000E-02 0.  1.
    8880022    1    1    2    0    0 -0.98352726181E+03  0.15425031222E+03 -0.50899407784E+03  0.11285325241E+04  0.15294330000E+03 0.  0.
    8880022    1    1    2    0    0  0.98352726181E+03 -0.15425031222E+03 -0.27606280341E+04  0.29386353686E+04  0.15294330000E+03 0.  0.
<mgrwt>
<rscale>  0 0.10072292E+04</rscale>
<asrwt>0</asrwt>
<pdfrwt beam="1">  1        1 0.61349678E-01 0.10072292E+04</pdfrwt>
<pdfrwt beam="2">  1       -1 0.56436844E+00 0.10072292E+04</pdfrwt>
<totfact> 0.38015781E-02</totfact>
</mgrwt>
</event>
<event>
 4    1  0.2731969E-009  0.1349237E+04  0.7818608E-02  0.8991406E-01
          1   -1    0    0  501    0  0.00000000000E+00  0.00000000000E+00  0.21239230462E+04  0.21239230462E+04  0.50400000000E-02 0. -1.
         -1   -1    0    0    0  501 -0.00000000000E+00 -0.00000000000E+00 -0.10347051928E+04  0.10347051929E+04  0.50400000000E-02 0.  1.
    8880022    1    1    2    0    0 -0.92042691598E+03 -0.97460912076E+03 -0.10968539152E+03  0.13536879936E+04  0.15294330000E+03 0.  0.
    8880022    1    1    2    0    0  0.92042691598E+03  0.97460912076E+03  0.11989032448E+04  0.18049402454E+04  0.15294330000E+03 0.  0.
<mgrwt>
<rscale>  0 0.13492369E+04</rscale>
<asrwt>0</asrwt>
<pdfrwt beam="1">  1        1 0.32675738E+00 0.13492369E+04</pdfrwt>
<pdfrwt beam="2">  1       -1 0.15918542E+00 0.13492369E+04</pdfrwt>
<totfact> 0.70213064E-01</totfact>
</mgrwt>
</event>
<event>
 4    1  0.2731969E-009  0.4046970E+03  0.7818608E-02  0.1042165E+00
          1   -1    0    0  501    0  0.00000000000E+00  0.00000000000E+00  0.71491303440E+03  0.71491303442E+03  0.50400000000E-02 0. -1.
         -1   -1    0    0    0  501 -0.00000000000E+00 -0.00000000000E+00 -0.66195168172E+03  0.66195168174E+03  0.50400000000E-02 0.  1.
    8880022    1    1    2    0    0 -0.37402838985E+03  0.22152708151E+02 -0.53022103661E+03  0.66701872505E+03  0.15294330000E+03 0.  0.
    8880022    1    1    2    0    0  0.37402838985E+03 -0.22152708151E+02  0.58318238929E+03  0.70984599110E+03  0.15294330000E+03 0. -1.
<mgrwt>
<rscale>  0 0.40469696E+03</rscale>
<asrwt>0</asrwt>
<pdfrwt beam="1">  1        1 0.10998662E+00 0.40469696E+03</pdfrwt>
<pdfrwt beam="2">  1       -1 0.10183872E+00 0.40469696E+03</pdfrwt>
<totfact> 0.26012528E+01</totfact>
</mgrwt>
</event>
<event>
 4    1  0.2731969E-009  0.1028300E+04  0.7818608E-02  0.9278039E-01
         -1   -1    0    0    0  501 -0.00000000000E+00  0.00000000000E+00  0.16112221537E+04  0.16112221537E+04  0.50400000000E-02 0.  1.
          1   -1    0    0  501    0  0.00000000000E+00 -0.00000000000E+00 -0.15619746196E+04  0.15619746196E+04  0.50400000000E-02 0. -1.
    8880022    1    1    2    0    0 -0.16189615758E+03  0.10038923180E+04 -0.11835309757E+04  0.15678480078E+04  0.15294330000E+03 0.  0.
    8880022    1    1    2    0    0  0.16189615758E+03 -0.10038923180E+04  0.12327785097E+04  0.16053487655E+04  0.15294330000E+03 0.  0.
<mgrwt>
<rscale>  0 0.10283004E+04</rscale>
<asrwt>0</asrwt>
<pdfrwt beam="1">  1        1 0.24030379E+00 0.10283004E+04</pdfrwt>
<pdfrwt beam="2">  1       -1 0.24788033E+00 0.10283004E+04</pdfrwt>
<totfact> 0.42949559E-01</totfact>
</mgrwt>
</event>
<event>
 4    1  0.2731969E-009  0.9383717E+03  0.7818608E-02  0.9378846E-01
          1   -1    0    0  501    0  0.00000000000E+00  0.00000000000E+00  0.39901015604E+04  0.39901015604E+04  0.50400000000E-02 0. -1.
         -1   -1    0    0    0  501 -0.00000000000E+00 -0.00000000000E+00 -0.32820353701E+03  0.32820353705E+03  0.50400000000E-02 0.  1.
    8880022    1    1    2    0    0  0.72474780374E+03 -0.57609933436E+03  0.30667840452E+04  0.32071335885E+04  0.15294330000E+03 0.  0.
    8880022    1    1    2    0    0 -0.72474780374E+03  0.57609933436E+03  0.59511397819E+03  0.11111715089E+04  0.15294330000E+03 0.  0.
<mgrwt>
<rscale>  0 0.93837171E+03</rscale>
<asrwt>0</asrwt>
<pdfrwt beam="1">  1        1 0.61386175E+00 0.93837171E+03</pdfrwt>
<pdfrwt beam="2">  1       -1 0.50492854E-01 0.93837171E+03</pdfrwt>
<totfact> 0.41126378E-01</totfact>
</mgrwt>
</event>
<event>
 4    1  0.2731969E-009  0.5286066E+03  0.7818608E-02  0.1006571E+00
         -1   -1    0    0    0  501 -0.00000000000E+00  0.00000000000E+00  0.57780696950E+03  0.57780696953E+03  0.50400000000E-02 0.  1.
          1   -1    0    0  501    0  0.00000000000E+00 -0.00000000000E+00 -0.22282046048E+04  0.22282046048E+04  0.50400000000E-02 0. -1.
    8880022    1    1    2    0    0 -0.48728395290E+03  0.13633644216E+03  0.41625617403E+03  0.67282548380E+03  0.15294330000E+03 0.  0.
    8880022    1    1    2    0    0  0.48728395290E+03 -0.13633644216E+03 -0.20666538093E+04  0.21331860905E+04  0.15294330000E+03 0.  0.
<mgrwt>
<rscale>  0 0.52860659E+03</rscale>
<asrwt>0</asrwt>
<pdfrwt beam="1">  1        1 0.34280070E+00 0.52860659E+03</pdfrwt>
<pdfrwt beam="2">  1       -1 0.88893381E-01 0.52860659E+03</pdfrwt>
<totfact> 0.28786778E+00</totfact>
</mgrwt>
</event>
<event>
 4    1  0.2731969E-009  0.4843119E+03  0.7818608E-02  0.1017957E+00
          1   -1    0    0  501    0  0.00000000000E+00  0.00000000000E+00  0.11158207843E+04  0.11158207843E+04  0.50400000000E-02 0. -1.
         -1   -1    0    0    0  501 -0.00000000000E+00 -0.00000000000E+00 -0.58386691789E+03  0.58386691791E+03  0.50400000000E-02 0.  1.
    8880022    1    1    2    0    0  0.37659835486E+03 -0.26332493897E+03 -0.41388078659E+03  0.63706773807E+03  0.15294330000E+03 0.  0.
    8880022    1    1    2    0    0 -0.37659835486E+03  0.26332493897E+03  0.94583465296E+03  0.10626199641E+04  0.15294330000E+03 0.  0.
<mgrwt>
<rscale>  0 0.48431188E+03</rscale>
<asrwt>0</asrwt>
<pdfrwt beam="1">  1        1 0.17166473E+00 0.48431188E+03</pdfrwt>
<pdfrwt beam="2">  1       -1 0.89825681E-01 0.48431188E+03</pdfrwt>
<totfact> 0.16117137E+01</totfact>
</mgrwt>
</event>
<event>
 4    1  0.2731969E-009  0.5060831E+03  0.7818608E-02  0.1012203E+00
          1   -1    0    0  501    0  0.00000000000E+00  0.00000000000E+00  0.20883396027E+04  0.20883396027E+04  0.50400000000E-02 0. -1.
         -1   -1    0    0    0  501 -0.00000000000E+00 -0.00000000000E+00 -0.44227424666E+03  0.44227424669E+03  0.50400000000E-02 0.  1.
    8880022    1    1    2    0    0  0.38417353170E+03  0.29178611460E+03 -0.25262658025E+03  0.56563263802E+03  0.15294330000E+03 0.  0.
    8880022    1    1    2    0    0 -0.38417353170E+03 -0.29178611460E+03  0.18986919363E+04  0.19649812114E+04  0.15294330000E+03 0.  0.
<mgrwt>
<rscale>  0 0.50608309E+03</rscale>
<asrwt>0</asrwt>
<pdfrwt beam="1">  1        1 0.32128301E+00 0.50608309E+03</pdfrwt>
<pdfrwt beam="2">  1       -1 0.68042193E-01 0.50608309E+03</pdfrwt>
<totfact> 0.62754193E+00</totfact>
</mgrwt>
</event>
<event>
 4    1  0.2731969E-009  0.7230134E+03  0.7818608E-02  0.9678666E-01
          1   -1    0    0  501    0  0.00000000000E+00  0.00000000000E+00  0.78383498831E+03  0.78383498833E+03  0.50400000000E-02 0. -1.
         -1   -1    0    0    0  501 -0.00000000000E+00 -0.00000000000E+00 -0.87998391646E+03  0.87998391647E+03  0.50400000000E-02 0.  1.
    8880022    1    1    2    0    0 -0.31758905874E+03 -0.63126371355E+03 -0.45743182523E+03  0.85556543526E+03  0.15294330000E+03 0.  0.
    8880022    1    1    2    0    0  0.31758905874E+03  0.63126371355E+03  0.36128289709E+03  0.80825346953E+03  0.15294330000E+03 0.  0.
<mgrwt>
<rscale>  0 0.72301337E+03</rscale>
<asrwt>0</asrwt>
<pdfrwt beam="1">  1        1 0.12059000E+00 0.72301337E+03</pdfrwt>
<pdfrwt beam="2">  1       -1 0.13538214E+00 0.72301337E+03</pdfrwt>
<totfact> 0.10805485E+01</totfact>
</mgrwt>
</event>
<event>
 4    1  0.2731969E-009  0.1685121E+04  0.7818608E-02  0.8769896E-01
          1   -1    0    0  501    0  0.00000000000E+00  0.00000000000E+00  0.17186594294E+04  0.17186594294E+04  0.50400000000E-02 0. -1.
         -1   -1    0    0    0  501 -0.00000000000E+00 -0.00000000000E+00 -0.21434500937E+04  0.21434500937E+04  0.50400000000E-02 0.  1.
    8880022    1    1    2    0    0  0.11572730662E+04 -0.12153022440E+04  0.71203249742E+03  0.18293776057E+04  0.15294330000E+03 0.  0.
    8880022    1    1    2    0    0 -0.11572730662E+04  0.12153022440E+04 -0.11368231617E+04  0.20327319174E+04  0.15294330000E+03 0.  0.
<mgrwt>
<rscale>  0 0.16851208E+04</rscale>
<asrwt>0</asrwt>
<pdfrwt beam="1">  1        1 0.26440914E+00 0.16851208E+04</pdfrwt>
<pdfrwt beam="2">  1       -1 0.32976155E+00 0.16851208E+04</pdfrwt>
<totfact> 0.90343355E-02</totfact>
</mgrwt>
</event>
<event>
 4    1  0.2731969E-009  0.7466851E+03  0.7818608E-02  0.9640565E-01
          1   -1    0    0  501    0  0.00000000000E+00  0.00000000000E+00  0.66079568068E+03  0.66079568070E+03  0.50400000000E-02 0. -1.
         -1   -1    0    0    0  501 -0.00000000000E+00 -0.00000000000E+00 -0.85244894689E+03  0.85244894691E+03  0.50400000000E-02 0.  1.
    8880022    1    1    2    0    0 -0.71854152420E+03 -0.13358527322E+03 -0.17231071671E+03  0.76630906515E+03  0.15294330000E+03 0.  0.
    8880022    1    1    2    0    0  0.71854152420E+03  0.13358527322E+03 -0.19342549502E+02  0.74693556246E+03  0.15294330000E+03 0.  0.
<mgrwt>
<rscale>  0 0.74668507E+03</rscale>
<asrwt>0</asrwt>
<pdfrwt beam="1">  1        1 0.10166087E+00 0.74668507E+03</pdfrwt>
<pdfrwt beam="2">  1       -1 0.13114599E+00 0.74668507E+03</pdfrwt>
<totfact> 0.15161123E+01</totfact>
</mgrwt>
</event>
<event>
 4    1  0.2731969E-009  0.1071976E+04  0.7818608E-02  0.9232945E-01
         -1   -1    0    0    0  501 -0.00000000000E+00  0.00000000000E+00  0.78458153676E+03  0.78458153677E+03  0.50400000000E-02 0.  1.
          1   -1    0    0  501    0  0.00000000000E+00 -0.00000000000E+00 -0.22415728398E+04  0.22415728398E+04  0.50400000000E-02 0. -1.
    8880022    1    1    2    0    0  0.75009903482E+03  0.75039436480E+03 -0.16192860652E+04  0.19419627388E+04  0.15294330000E+03 0.  0.
    8880022    1    1    2    0    0 -0.75009903482E+03 -0.75039436480E+03  0.16229476212E+03  0.10841916379E+04  0.15294330000E+03 0.  0.
<mgrwt>
<rscale>  0 0.10719757E+04</rscale>
<asrwt>0</asrwt>
<pdfrwt beam="1">  1        1 0.34485736E+00 0.10719757E+04</pdfrwt>
<pdfrwt beam="2">  1       -1 0.12070485E+00 0.10719757E+04</pdfrwt>
<totfact> 0.12496168E+00</totfact>
</mgrwt>
</event>
<event>
 4    1  0.2731969E-009  0.1349398E+04  0.7818608E-02  0.8991284E-01
          1   -1    0    0  501    0  0.00000000000E+00  0.00000000000E+00  0.17026801493E+04  0.17026801494E+04  0.50400000000E-02 0. -1.
         -1   -1    0    0    0  501 -0.00000000000E+00 -0.00000000000E+00 -0.13296481036E+04  0.13296481036E+04  0.50400000000E-02 0.  1.
    8880022    1    1    2    0    0  0.58623436403E+03 -0.12057417790E+04  0.85726065071E+03  0.15986780299E+04  0.15294330000E+03 0.  0.
    8880022    1    1    2    0    0 -0.58623436403E+03  0.12057417790E+04 -0.48422860500E+03  0.14336502231E+04  0.15294330000E+03 0.  0.
<mgrwt>
<rscale>  0 0.13493982E+04</rscale>
<asrwt>0</asrwt>
<pdfrwt beam="1">  1        1 0.26195079E+00 0.13493982E+04</pdfrwt>
<pdfrwt beam="2">  1       -1 0.20456125E+00 0.13493982E+04</pdfrwt>
<totfact> 0.63940085E-01</totfact>
</mgrwt>
</event>
<event>
 4    1  0.2731969E-009  0.1359279E+04  0.7818608E-02  0.8983833E-01
          1   -1    0    0  501    0  0.00000000000E+00  0.00000000000E+00  0.27753701435E+04  0.27753701435E+04  0.50400000000E-02 0. -1.
         -1   -1    0    0    0  501 -0.00000000000E+00 -0.00000000000E+00 -0.17640657832E+04  0.17640657832E+04  0.50400000000E-02 0.  1.
    8880022    1    1    2    0    0 -0.12855023024E+04 -0.41440575629E+03 -0.12852942141E+04  0.18707274441E+04  0.15294330000E+03 0.  0.
    8880022    1    1    2    0    0  0.12855023024E+04  0.41440575629E+03  0.22965985743E+04  0.26687084826E+04  0.15294330000E+03 0.  0.
<mgrwt>
<rscale>  0 0.13592792E+04</rscale>
<asrwt>0</asrwt>
<pdfrwt beam="1">  1        1 0.42698003E+00 0.13592792E+04</pdfrwt>
<pdfrwt beam="2">  1       -1 0.27139473E+00 0.13592792E+04</pdfrwt>
<totfact> 0.42354645E-02</totfact>
</mgrwt>
</event>
<event>
 4    1  0.2731969E-009  0.1156244E+04  0.7818608E-02  0.9152042E-01
          1   -1    0    0  501    0  0.00000000000E+00  0.00000000000E+00  0.22448899405E+04  0.22448899405E+04  0.50400000000E-02 0. -1.
         -1   -1    0    0    0  501 -0.00000000000E+00 -0.00000000000E+00 -0.92003590523E+03  0.92003590525E+03  0.50400000000E-02 0.  1.
    8880022    1    1    2    0    0 -0.98062773701E+03 -0.59319284262E+03 -0.27738761533E+03  0.11890517437E+04  0.15294330000E+03 0.  0.
    8880022    1    1    2    0    0  0.98062773701E+03  0.59319284262E+03  0.16022416506E+04  0.19758741020E+04  0.15294330000E+03 0.  0.
<mgrwt>
<rscale>  0 0.11562440E+04</rscale>
<asrwt>0</asrwt>
<pdfrwt beam="1">  1        1 0.34536768E+00 0.11562440E+04</pdfrwt>
<pdfrwt beam="2">  1       -1 0.14154399E+00 0.11562440E+04</pdfrwt>
<totfact> 0.81925112E-01</totfact>
</mgrwt>
</event>
<event>
 4    1  0.2731969E-009  0.2186764E+03  0.7818608E-02  0.1134874E+00
          1   -1    0    0  501    0  0.00000000000E+00  0.00000000000E+00  0.27294781630E+04  0.27294781630E+04  0.50400000000E-02 0. -1.
         -1   -1    0    0    0  501 -0.00000000000E+00 -0.00000000000E+00 -0.21358975774E+03  0.21358975780E+03  0.50400000000E-02 0.  1.
    8880022    1    1    2    0    0  0.42631579275E+02 -0.15036707636E+03  0.26678361440E+04  0.26767833408E+04  0.15294330000E+03 0.  0.
    8880022    1    1    2    0    0 -0.42631579275E+02  0.15036707636E+03 -0.15194773878E+03  0.26628457999E+03  0.15294330000E+03 0.  0.
<mgrwt>
<rscale>  0 0.21867639E+03</rscale>
<asrwt>0</asrwt>
<pdfrwt beam="1">  1        1 0.41991965E+00 0.21867639E+03</pdfrwt>
<pdfrwt beam="2">  1       -1 0.32859968E-01 0.21867639E+03</pdfrwt>
<totfact> 0.10116192E+01</totfact>
</mgrwt>
</event>
<event>
 4    1  0.2731969E-009  0.3564011E+03  0.7818608E-02  0.1060018E+00
          1   -1    0    0  501    0  0.00000000000E+00  0.00000000000E+00  0.17615914736E+04  0.17615914736E+04  0.50400000000E-02 0. -1.
         -1   -1    0    0    0  501 -0.00000000000E+00 -0.00000000000E+00 -0.12050833140E+03  0.12050833151E+03  0.50400000000E-02 0.  1.
    8880022    1    1    2    0    0  0.26269307089E+03  0.18607111342E+03  0.14169394906E+04  0.14610747010E+04  0.15294330000E+03 0.  0.
    8880022    1    1    2    0    0 -0.26269307089E+03 -0.18607111342E+03  0.22414365153E+03  0.42102510410E+03  0.15294330000E+03 0.  0.
<mgrwt>
<rscale>  0 0.35640112E+03</rscale>
<asrwt>0</asrwt>
<pdfrwt beam="1">  1        1 0.27101408E+00 0.35640112E+03</pdfrwt>
<pdfrwt beam="2">  1       -1 0.18539743E-01 0.35640112E+03</pdfrwt>
<totfact> 0.10864455E+02</totfact>
</mgrwt>
</event>
<event>
 4    1  0.2731969E-009  0.4605142E+03  0.7818608E-02  0.1024632E+00
         -1   -1    0    0    0  501 -0.00000000000E+00  0.00000000000E+00  0.76893330340E+03  0.76893330342E+03  0.50400000000E-02 0.  1.
          1   -1    0    0  501    0  0.00000000000E+00 -0.00000000000E+00 -0.10809408357E+04  0.10809408357E+04  0.50400000000E-02 0. -1.
    8880022    1    1    2    0    0 -0.53023834671E+02  0.43112661983E+03 -0.95426788988E+03  0.10595756453E+04  0.15294330000E+03 0. -1.
    8880022    1    1    2    0    0  0.53023834671E+02 -0.43112661983E+03  0.64226035761E+03  0.79029849383E+03  0.15294330000E+03 0.  0.
<mgrwt>
<rscale>  0 0.46051422E+03</rscale>
<asrwt>0</asrwt>
<pdfrwt beam="1">  1        1 0.16629859E+00 0.46051422E+03</pdfrwt>
<pdfrwt beam="2">  1       -1 0.11829743E+00 0.46051422E+03</pdfrwt>
<totfact> 0.91638408E+00</totfact>
</mgrwt>
</event>
<event>
 4    1  0.2731969E-009  0.1194804E+04  0.7818608E-02  0.9117417E-01
          1   -1    0    0  501    0  0.00000000000E+00  0.00000000000E+00  0.40150643298E+04  0.40150643298E+04  0.50400000000E-02 0. -1.
         -1   -1    0    0    0  501 -0.00000000000E+00 -0.00000000000E+00 -0.76225782637E+03  0.76225782638E+03  0.50400000000E-02 0.  1.
    8880022    1    1    2    0    0 -0.88108789107E+00  0.11849745802E+04 -0.11839296362E+03  0.12006556870E+04  0.15294330000E+03 0.  0.
    8880022    1    1    2    0    0  0.88108789107E+00 -0.11849745802E+04  0.33711994671E+04  0.35766664692E+04  0.15294330000E+03 0.  0.
<mgrwt>
<rscale>  0 0.11948042E+04</rscale>
<asrwt>0</asrwt>
<pdfrwt beam="1">  1        1 0.61770220E+00 0.11948042E+04</pdfrwt>
<pdfrwt beam="2">  1       -1 0.11727044E+00 0.11948042E+04</pdfrwt>
<totfact> 0.61845209E-02</totfact>
</mgrwt>
</event>
<event>
 4    1  0.2731969E-009  0.7658611E+03  0.7818608E-02  0.9610790E-01
         -1   -1    0    0    0  501 -0.00000000000E+00  0.00000000000E+00  0.63771421272E+03  0.63771421274E+03  0.50400000000E-02 0.  1.
          1   -1    0    0  501    0  0.00000000000E+00 -0.00000000000E+00 -0.21487651274E+04  0.21487651274E+04  0.50400000000E-02 0. -1.
    8880022    1    1    2    0    0 -0.74833946792E+03 -0.56031892224E+02  0.29815381791E+03  0.82185088936E+03  0.15294330000E+03 0.  0.
    8880022    1    1    2    0    0  0.74833946792E+03  0.56031892224E+02 -0.18092047326E+04  0.19646284508E+04  0.15294330000E+03 0.  0.
<mgrwt>
<rscale>  0 0.76586107E+03</rscale>
<asrwt>0</asrwt>
<pdfrwt beam="1">  1        1 0.33057925E+00 0.76586107E+03</pdfrwt>
<pdfrwt beam="2">  1       -1 0.98109880E-01 0.76586107E+03</pdfrwt>
<totfact> 0.24748266E+00</totfact>
</mgrwt>
</event>
<event>
 4    1  0.2731969E-009  0.4624078E+03  0.7818608E-02  0.1024085E+00
         -1   -1    0    0    0  501 -0.00000000000E+00  0.00000000000E+00  0.50438937290E+03  0.50438937293E+03  0.50400000000E-02 0.  1.
          1   -1    0    0  501    0  0.00000000000E+00 -0.00000000000E+00 -0.12789673883E+04  0.12789673883E+04  0.50400000000E-02 0. -1.
    8880022    1    1    2    0    0  0.31013882271E+03 -0.30699066412E+03  0.34178809564E+03  0.57501314119E+03  0.15294330000E+03 0.  0.
    8880022    1    1    2    0    0 -0.31013882271E+03  0.30699066412E+03 -0.11163661110E+04  0.12083436200E+04  0.15294330000E+03 0. -1.
<mgrwt>
<rscale>  0 0.46240784E+03</rscale>
<asrwt>0</asrwt>
<pdfrwt beam="1">  1        1 0.19676421E+00 0.46240784E+03</pdfrwt>
<pdfrwt beam="2">  1       -1 0.77598365E-01 0.46240784E+03</pdfrwt>
<totfact> 0.16906865E+01</totfact>
</mgrwt>
</event>
<event>
 4    1  0.2731969E-009  0.4788265E+03  0.7818608E-02  0.1019458E+00
          1   -1    0    0  501    0  0.00000000000E+00  0.00000000000E+00  0.93975195600E+03  0.93975195601E+03  0.50400000000E-02 0. -1.
         -1   -1    0    0    0  501 -0.00000000000E+00 -0.00000000000E+00 -0.84361754295E+03  0.84361754296E+03  0.50400000000E-02 0.  1.
    8880022    1    1    2    0    0 -0.39168806450E+03  0.22904934877E+03 -0.70370317908E+03  0.85115977426E+03  0.15294330000E+03 0.  0.
    8880022    1    1    2    0    0  0.39168806450E+03 -0.22904934877E+03  0.79983759214E+03  0.93220972471E+03  0.15294330000E+03 0.  0.
<mgrwt>
<rscale>  0 0.47882648E+03</rscale>
<asrwt>0</asrwt>
<pdfrwt beam="1">  1        1 0.14457722E+00 0.47882648E+03</pdfrwt>
<pdfrwt beam="2">  1       -1 0.12978731E+00 0.47882648E+03</pdfrwt>
<totfact> 0.93154719E+00</totfact>
</mgrwt>
</event>
<event>
 4    1  0.2731969E-009  0.9851090E+03  0.7818608E-02  0.9325029E-01
          1   -1    0    0  501    0  0.00000000000E+00  0.00000000000E+00  0.34143568649E+04  0.34143568649E+04  0.50400000000E-02 0. -1.
         -1   -1    0    0    0  501 -0.00000000000E+00 -0.00000000000E+00 -0.55136759465E+03  0.55136759467E+03  0.50400000000E-02 0.  1.
    8880022    1    1    2    0    0  0.89041842783E+03 -0.39268714693E+03  0.28117036551E+04  0.29792813343E+04  0.15294330000E+03 0.  0.
    8880022    1    1    2    0    0 -0.89041842783E+03  0.39268714693E+03  0.51285615150E+02  0.98644312524E+03  0.15294330000E+03 0.  0.
<mgrwt>
<rscale>  0 0.98510904E+03</rscale>
<asrwt>0</asrwt>
<pdfrwt beam="1">  1        1 0.52528567E+00 0.98510904E+03</pdfrwt>
<pdfrwt beam="2">  1       -1 0.84825785E-01 0.98510904E+03</pdfrwt>
<totfact> 0.41727964E-01</totfact>
</mgrwt>
</event>
<event>
 4    1  0.2731969E-009  0.1055456E+04  0.7818608E-02  0.9249729E-01
         -1   -1    0    0    0  501 -0.00000000000E+00  0.00000000000E+00  0.57714209423E+03  0.57714209426E+03  0.50400000000E-02 0.  1.
          1   -1    0    0  501    0  0.00000000000E+00 -0.00000000000E+00 -0.33469667130E+04  0.33469667130E+04  0.50400000000E-02 0. -1.
    8880022    1    1    2    0    0  0.10389488157E+04 -0.10573750775E+03 -0.26614626958E+04  0.28631050271E+04  0.15294330000E+03 0.  0.
    8880022    1    1    2    0    0 -0.10389488157E+04  0.10573750775E+03 -0.10836192298E+03  0.10610037802E+04  0.15294330000E+03 0.  0.
<mgrwt>
<rscale>  0 0.10554557E+04</rscale>
<asrwt>0</asrwt>
<pdfrwt beam="1">  1        1 0.51491794E+00 0.10554557E+04</pdfrwt>
<pdfrwt beam="2">  1       -1 0.88791093E-01 0.10554557E+04</pdfrwt>
<totfact> 0.41969359E-01</totfact>
</mgrwt>
</event>
<event>
 4    1  0.2731969E-009  0.6799601E+03  0.7818608E-02  0.9752130E-01
          1   -1    0    0  501    0  0.00000000000E+00  0.00000000000E+00  0.11892706903E+04  0.11892706903E+04  0.50400000000E-02 0. -1.
         -1   -1    0    0    0  501 -0.00000000000E+00 -0.00000000000E+00 -0.98290888223E+03  0.98290888224E+03  0.50400000000E-02 0.  1.
    8880022    1    1    2    0    0 -0.12304946312E+03 -0.65100913523E+03 -0.74123276197E+03  0.10058686420E+04  0.15294330000E+03 0.  0.
    8880022    1    1    2    0    0  0.12304946312E+03  0.65100913523E+03  0.94759457004E+03  0.11663109305E+04  0.15294330000E+03 0.  0.
<mgrwt>
<rscale>  0 0.67996009E+03</rscale>
<asrwt>0</asrwt>
<pdfrwt beam="1">  1        1 0.18296472E+00 0.67996009E+03</pdfrwt>
<pdfrwt beam="2">  1       -1 0.15121675E+00 0.67996009E+03</pdfrwt>
<totfact> 0.39097015E+00</totfact>
</mgrwt>
</event>
<event>
 4    1  0.2731969E-009  0.1652142E+04  0.7818608E-02  0.8789140E-01
          1   -1    0    0  501    0  0.00000000000E+00  0.00000000000E+00  0.46601423507E+04  0.46601423507E+04  0.50400000000E-02 0. -1.
         -1   -1    0    0    0  501 -0.00000000000E+00 -0.00000000000E+00 -0.64496542982E+03  0.64496542984E+03  0.50400000000E-02 0.  1.
    8880022    1    1    2    0    0  0.14278250419E+04 -0.81700540281E+03  0.28114767381E+04  0.32609776571E+04  0.15294330000E+03 0.  0.
    8880022    1    1    2    0    0 -0.14278250419E+04  0.81700540281E+03  0.12037001828E+04  0.20441301235E+04  0.15294330000E+03 0.  0.
<mgrwt>
<rscale>  0 0.16521422E+04</rscale>
<asrwt>0</asrwt>
<pdfrwt beam="1">  1        1 0.71694496E+00 0.16521422E+04</pdfrwt>
<pdfrwt beam="2">  1       -1 0.99225454E-01 0.16521422E+04</pdfrwt>
<totfact> 0.20315952E-02</totfact>
</mgrwt>
</event>
<event>
 4    1  0.2731969E-009  0.9825636E+03  0.7818608E-02  0.9327878E-01
         -1   -1    0    0    0  501 -0.00000000000E+00  0.00000000000E+00  0.83219971446E+03  0.83219971448E+03  0.50400000000E-02 0.  1.
          1   -1    0    0  501    0  0.00000000000E+00 -0.00000000000E+00 -0.23626107665E+04  0.23626107665E+04  0.50400000000E-02 0. -1.
    8880022    1    1    2    0    0  0.49588599813E+03  0.83434808091E+03 -0.19048365980E+04  0.21433230651E+04  0.15294330000E+03 0.  0.
    8880022    1    1    2    0    0 -0.49588599813E+03 -0.83434808091E+03  0.37442554597E+03  0.10514874159E+04  0.15294330000E+03 0.  0.
<mgrwt>
<rscale>  0 0.98256363E+03</rscale>
<asrwt>0</asrwt>
<pdfrwt beam="1">  1        1 0.36347858E+00 0.98256363E+03</pdfrwt>
<pdfrwt beam="2">  1       -1 0.12803073E+00 0.98256363E+03</pdfrwt>
<totfact> 0.90544212E-01</totfact>
</mgrwt>
</event>
<event>
 4    1  0.2731969E-009  0.1149234E+04  0.7818608E-02  0.9158491E-01
          1   -1    0    0  501    0  0.00000000000E+00  0.00000000000E+00  0.17517688993E+04  0.17517688993E+04  0.50400000000E-02 0. -1.
         -1   -1    0    0    0  501 -0.00000000000E+00 -0.00000000000E+00 -0.99566578702E+03  0.99566578703E+03  0.50400000000E-02 0.  1.
    8880022    1    1    2    0    0  0.10036647865E+04  0.53851985695E+03 -0.29880576764E+03  0.11874439691E+04  0.15294330000E+03 0.  0.
    8880022    1    1    2    0    0 -0.10036647865E+04 -0.53851985695E+03  0.10549088799E+04  0.15599907172E+04  0.15294330000E+03 0.  0.
<mgrwt>
<rscale>  0 0.11492338E+04</rscale>
<asrwt>0</asrwt>
<pdfrwt beam="1">  1        1 0.26950291E+00 0.11492338E+04</pdfrwt>
<pdfrwt beam="2">  1       -1 0.15317935E+00 0.11492338E+04</pdfrwt>
<totfact> 0.14304725E+00</totfact>
</mgrwt>
</event>
<event>
 4    1  0.2731969E-009  0.4796508E+03  0.7818608E-02  0.1019231E+00
         -1   -1    0    0    0  501 -0.00000000000E+00  0.00000000000E+00  0.52042868516E+03  0.52042868518E+03  0.50400000000E-02 0.  1.
          1   -1    0    0  501    0  0.00000000000E+00 -0.00000000000E+00 -0.80988535977E+03  0.80988535979E+03  0.50400000000E-02 0. -1.
    8880022    1    1    2    0    0  0.26989675838E+03  0.36582637369E+03 -0.59298684339E+03  0.76269144831E+03  0.15294330000E+03 0. -1.
    8880022    1    1    2    0    0 -0.26989675838E+03 -0.36582637369E+03  0.30353016878E+03  0.56762259666E+03  0.15294330000E+03 0.  0.
<mgrwt>
<rscale>  0 0.47965076E+03</rscale>
<asrwt>0</asrwt>
<pdfrwt beam="1">  1        1 0.12459775E+00 0.47965076E+03</pdfrwt>
<pdfrwt beam="2">  1       -1 0.80065952E-01 0.47965076E+03</pdfrwt>
<totfact> 0.35803631E+01</totfact>
</mgrwt>
</event>
<event>
 4    1  0.2731969E-009  0.5991611E+03  0.7818608E-02  0.9907148E-01
          1   -1    0    0  501    0  0.00000000000E+00  0.00000000000E+00  0.20575619187E+04  0.20575619188E+04  0.50400000000E-02 0. -1.
         -1   -1    0    0    0  501 -0.00000000000E+00 -0.00000000000E+00 -0.49866126089E+03  0.49866126091E+03  0.50400000000E-02 0.  1.
    8880022    1    1    2    0    0  0.18582831398E+03  0.54869860191E+03 -0.25108523010E+03  0.64964433639E+03  0.15294330000E+03 0.  1.
    8880022    1    1    2    0    0 -0.18582831398E+03 -0.54869860191E+03  0.18099858880E+04  0.19065788433E+04  0.15294330000E+03 0.  0.
<mgrwt>
<rscale>  0 0.59916106E+03</rscale>
<asrwt>0</asrwt>
<pdfrwt beam="1">  1        1 0.31654799E+00 0.59916106E+03</pdfrwt>
<pdfrwt beam="2">  1       -1 0.76717117E-01 0.59916106E+03</pdfrwt>
<totfact> 0.50277400E+00</totfact>
</mgrwt>
</event>
<event>
 4    1  0.2731969E-009  0.3592251E+03  0.7818608E-02  0.1058891E+00
          1   -1    0    0  501    0  0.00000000000E+00  0.00000000000E+00  0.27847588568E+03  0.27847588572E+03  0.50400000000E-02 0. -1.
         -1   -1    0    0    0  501 -0.00000000000E+00 -0.00000000000E+00 -0.15354896168E+04  0.15354896168E+04  0.50400000000E-02 0.  1.
    8880022    1    1    2    0    0  0.23293307133E+03 -0.22670074101E+03  0.12936072470E+03  0.38180740145E+03  0.15294330000E+03 0.  0.
    8880022    1    1    2    0    0 -0.23293307133E+03  0.22670074101E+03 -0.13863744558E+04  0.14321581011E+04  0.15294330000E+03 0.  0.
<mgrwt>
<rscale>  0 0.35922513E+03</rscale>
<asrwt>0</asrwt>
<pdfrwt beam="1">  1        1 0.42842445E-01 0.35922513E+03</pdfrwt>
<pdfrwt beam="2">  1       -1 0.23622917E+00 0.35922513E+03</pdfrwt>
<totfact> 0.91968015E+00</totfact>
</mgrwt>
</event>
<event>
 4    1  0.2731969E-009  0.1297399E+04  0.7818608E-02  0.9031631E-01
          1   -1    0    0  501    0  0.00000000000E+00  0.00000000000E+00  0.11308377761E+04  0.11308377761E+04  0.50400000000E-02 0. -1.
         -1   -1    0    0    0  501 -0.00000000000E+00 -0.00000000000E+00 -0.21303442478E+04  0.21303442478E+04  0.50400000000E-02 0.  1.
    8880022    1    1    2    0    0 -0.84562612820E+03 -0.97199195780E+03 -0.13947830628E+04  0.19049050790E+04  0.15294330000E+03 0.  1.
    8880022    1    1    2    0    0  0.84562612820E+03  0.97199195780E+03  0.39527659107E+03  0.13562769449E+04  0.15294330000E+03 0.  0.
<mgrwt>
<rscale>  0 0.12973988E+04</rscale>
<asrwt>0</asrwt>
<pdfrwt beam="1">  1        1 0.17397504E+00 0.12973988E+04</pdfrwt>
<pdfrwt beam="2">  1       -1 0.32774527E+00 0.12973988E+04</pdfrwt>
<totfact> 0.25491977E-01</totfact>
</mgrwt>
</event>
<event>
 4    1  0.2731969E-009  0.7709965E+03  0.7818608E-02  0.9602974E-01
          1   -1    0    0  501    0  0.00000000000E+00  0.00000000000E+00  0.30899296229E+04  0.30899296229E+04  0.50400000000E-02 0. -1.
         -1   -1    0    0    0  501 -0.00000000000E+00 -0.00000000000E+00 -0.28575123509E+03  0.28575123513E+03  0.50400000000E-02 0.  1.
    8880022    1    1    2    0    0  0.73635516202E+03 -0.16977928947E+03  0.43726607907E+03  0.88636178205E+03  0.15294330000E+03 0.  0.
    8880022    1    1    2    0    0 -0.73635516202E+03  0.16977928947E+03  0.23669123087E+04  0.24893190760E+04  0.15294330000E+03 0.  0.
<mgrwt>
<rscale>  0 0.77099649E+03</rscale>
<asrwt>0</asrwt>
<pdfrwt beam="1">  1        1 0.47537380E+00 0.77099649E+03</pdfrwt>
<pdfrwt beam="2">  1       -1 0.43961728E-01 0.77099649E+03</pdfrwt>
<totfact> 0.28094397E+00</totfact>
</mgrwt>
</event>
<event>
 4    1  0.2731969E-009  0.1521195E+04  0.7818608E-02  0.8870480E-01
         -1   -1    0    0    0  501 -0.00000000000E+00  0.00000000000E+00  0.25977009591E+04  0.25977009591E+04  0.50400000000E-02 0.  1.
          1   -1    0    0  501    0  0.00000000000E+00 -0.00000000000E+00 -0.12989079784E+04  0.12989079784E+04  0.50400000000E-02 0. -1.
    8880022    1    1    2    0    0  0.98221820159E+03 -0.11514730401E+04  0.17414770752E+04  0.23123098439E+04  0.15294330000E+03 0.  0.
    8880022    1    1    2    0    0 -0.98221820159E+03  0.11514730401E+04 -0.44268409442E+03  0.15842990937E+04  0.15294330000E+03 0.  0.
<mgrwt>
<rscale>  0 0.15211951E+04</rscale>
<asrwt>0</asrwt>
<pdfrwt beam="1">  1        1 0.19983200E+00 0.15211951E+04</pdfrwt>
<pdfrwt beam="2">  1       -1 0.39964630E+00 0.15211951E+04</pdfrwt>
<totfact> 0.61675827E-02</totfact>
</mgrwt>
</event>
<event>
 4    1  0.2731969E-009  0.3145141E+03  0.7818608E-02  0.1078202E+00
          1   -1    0    0  501    0  0.00000000000E+00  0.00000000000E+00  0.24709743595E+03  0.24709743601E+03  0.50400000000E-02 0. -1.
         -1   -1    0    0    0  501 -0.00000000000E+00 -0.00000000000E+00 -0.43671353961E+04  0.43671353961E+04  0.50400000000E-02 0.  1.
    8880022    1    1    2    0    0 -0.21053856728E+03  0.17663792151E+03 -0.42588504461E+04  0.42704480115E+04  0.15294330000E+03 0.  0.
    8880022    1    1    2    0    0  0.21053856728E+03 -0.17663792151E+03  0.13881248593E+03  0.34378482063E+03  0.15294330000E+03 0. -1.
<mgrwt>
<rscale>  0 0.31451406E+03</rscale>
<asrwt>0</asrwt>
<pdfrwt beam="1">  1        1 0.38014993E-01 0.31451406E+03</pdfrwt>
<pdfrwt beam="2">  1       -1 0.67186693E+00 0.31451406E+03</pdfrwt>
<totfact> 0.33051017E-02</totfact>
</mgrwt>
</event>
<event>
 4    1  0.2731969E-009  0.6743900E+03  0.7818608E-02  0.9762060E-01
          1   -1    0    0  501    0  0.00000000000E+00  0.00000000000E+00  0.10916094925E+04  0.10916094925E+04  0.50400000000E-02 0. -1.
         -1   -1    0    0    0  501 -0.00000000000E+00 -0.00000000000E+00 -0.52378012272E+03  0.52378012275E+03  0.50400000000E-02 0.  1.
    8880022    1    1    2    0    0 -0.21361762557E+03  0.62111002838E+03  0.64922394258E+03  0.93610551646E+03  0.15294330000E+03 0.  0.
    8880022    1    1    2    0    0  0.21361762557E+03 -0.62111002838E+03 -0.81394572847E+02  0.67928409875E+03  0.15294330000E+03 0.  0.
<mgrwt>
<rscale>  0 0.67438995E+03</rscale>
<asrwt>0</asrwt>
<pdfrwt beam="1">  1        1 0.16793992E+00 0.67438995E+03</pdfrwt>
<pdfrwt beam="2">  1       -1 0.80581558E-01 0.67438995E+03</pdfrwt>
<totfact> 0.20551947E+01</totfact>
</mgrwt>
</event>
<event>
 4    1  0.2731969E-009  0.5212801E+03  0.7818608E-02  0.1008369E+00
         -1   -1    0    0    0  501 -0.00000000000E+00  0.00000000000E+00  0.57349744361E+03  0.57349744363E+03  0.50400000000E-02 0.  1.
          1   -1    0    0  501    0  0.00000000000E+00 -0.00000000000E+00 -0.11875077229E+04  0.11875077229E+04  0.50400000000E-02 0. -1.
    8880022    1    1    2    0    0  0.18225388451E+03  0.46381546464E+03  0.37559661019E+03  0.64249959554E+03  0.15294330000E+03 0.  0.
    8880022    1    1    2    0    0 -0.18225388451E+03 -0.46381546464E+03 -0.98960688947E+03  0.11185055710E+04  0.15294330000E+03 0.  0.
<mgrwt>
<rscale>  0 0.52128008E+03</rscale>
<asrwt>0</asrwt>
<pdfrwt beam="1">  1        1 0.18269349E+00 0.52128008E+03</pdfrwt>
<pdfrwt beam="2">  1       -1 0.88230376E-01 0.52128008E+03</pdfrwt>
<totfact> 0.14757173E+01</totfact>
</mgrwt>
</event>
<event>
 4    1  0.2731969E-009  0.1332417E+04  0.7818608E-02  0.9004246E-01
          1   -1    0    0  501    0  0.00000000000E+00  0.00000000000E+00  0.18985860310E+04  0.18985860310E+04  0.50400000000E-02 0. -1.
         -1   -1    0    0    0  501 -0.00000000000E+00 -0.00000000000E+00 -0.10829996772E+04  0.10829996773E+04  0.50400000000E-02 0.  1.
    8880022    1    1    2    0    0  0.87115024348E+03  0.99651486649E+03  0.95874182845E+03  0.16414999764E+04  0.15294330000E+03 0.  0.
    8880022    1    1    2    0    0 -0.87115024348E+03 -0.99651486649E+03 -0.14315547468E+03  0.13400857319E+04  0.15294330000E+03 0.  0.
<mgrwt>
<rscale>  0 0.13324175E+04</rscale>
<asrwt>0</asrwt>
<pdfrwt beam="1">  1        1 0.29209016E+00 0.13324175E+04</pdfrwt>
<pdfrwt beam="2">  1       -1 0.16661534E+00 0.13324175E+04</pdfrwt>
<totfact> 0.87910571E-01</totfact>
</mgrwt>
</event>
<event>
 4    1  0.2731969E-009  0.7606655E+03  0.7818608E-02  0.9618765E-01
         -1   -1    0    0    0  501 -0.00000000000E+00  0.00000000000E+00  0.17946071071E+04  0.17946071071E+04  0.50400000000E-02 0.  1.
          1   -1    0    0  501    0  0.00000000000E+00 -0.00000000000E+00 -0.35027237349E+03  0.35027237353E+03  0.50400000000E-02 0. -1.
    8880022    1    1    2    0    0  0.54922234398E+03  0.50356254554E+03  0.41973836649E+03  0.86878787383E+03  0.15294330000E+03 0.  0.
    8880022    1    1    2    0    0 -0.54922234398E+03 -0.50356254554E+03  0.10245963671E+04  0.12760916068E+04  0.15294330000E+03 0.  0.
<mgrwt>
<rscale>  0 0.76066555E+03</rscale>
<asrwt>0</asrwt>
<pdfrwt beam="1">  1        1 0.53888056E-01 0.76066555E+03</pdfrwt>
<pdfrwt beam="2">  1       -1 0.27609341E+00 0.76066555E+03</pdfrwt>
<totfact> 0.35206654E+00</totfact>
</mgrwt>
</event>
<event>
 4    1  0.2731969E-009  0.1489496E+04  0.7818608E-02  0.8891468E-01
         -1   -1    0    0    0  501 -0.00000000000E+00  0.00000000000E+00  0.19050412840E+04  0.19050412840E+04  0.50400000000E-02 0.  1.
          1   -1    0    0  501    0  0.00000000000E+00 -0.00000000000E+00 -0.16281863072E+04  0.16281863072E+04  0.50400000000E-02 0. -1.
    8880022    1    1    2    0    0 -0.90916421396E+03  0.11698834399E+04  0.10810937534E+04  0.18404787930E+04  0.15294330000E+03 0.  0.
    8880022    1    1    2    0    0  0.90916421396E+03 -0.11698834399E+04 -0.80423877662E+03  0.16927487982E+04  0.15294330000E+03 0.  0.
<mgrwt>
<rscale>  0 0.14894961E+04</rscale>
<asrwt>0</asrwt>
<pdfrwt beam="1">  1        1 0.25049020E+00 0.14894961E+04</pdfrwt>
<pdfrwt beam="2">  1       -1 0.29308327E+00 0.14894961E+04</pdfrwt>
<totfact> 0.18485437E-01</totfact>
</mgrwt>
</event>
<event>
 4    1  0.2731969E-009  0.1773252E+03  0.7818608E-02  0.1170417E+00
         -1   -1    0    0    0  501 -0.00000000000E+00  0.00000000000E+00  0.57873170066E+03  0.57873170068E+03  0.50400000000E-02 0.  1.
          1   -1    0    0  501    0  0.00000000000E+00 -0.00000000000E+00 -0.64608833068E+03  0.64608833070E+03  0.50400000000E-02 0. -1.
    8880022    1    1    2    0    0 -0.65946131745E+02  0.60857904122E+02  0.55241588747E+03  0.58017888839E+03  0.15294330000E+03 0.  0.
    8880022    1    1    2    0    0  0.65946131745E+02 -0.60857904122E+02 -0.61977251749E+03  0.64464114299E+03  0.15294330000E+03 0. -1.
<mgrwt>
<rscale>  0 0.17732521E+03</rscale>
<asrwt>0</asrwt>
<pdfrwt beam="1">  1        1 0.99398205E-01 0.17732521E+03</pdfrwt>
<pdfrwt beam="2">  1       -1 0.89035646E-01 0.17732521E+03</pdfrwt>
<totfact> 0.43127713E+01</totfact>
</mgrwt>
</event>
<event>
 4    1  0.2731969E-009  0.6011001E+03  0.7818608E-02  0.9903126E-01
          1   -1    0    0  501    0  0.00000000000E+00  0.00000000000E+00  0.19080078517E+04  0.19080078517E+04  0.50400000000E-02 0. -1.
         -1   -1    0    0    0  501 -0.00000000000E+00 -0.00000000000E+00 -0.23220741963E+03  0.23220741968E+03  0.50400000000E-02 0.  1.
    8880022    1    1    2    0    0 -0.86715984463E+02 -0.57481307646E+03  0.12975170337E+04  0.14299901540E+04  0.15294330000E+03 0.  0.
    8880022    1    1    2    0    0  0.86715984463E+02  0.57481307646E+03  0.37828339837E+03  0.71022511736E+03  0.15294330000E+03 0.  0.
<mgrwt>
<rscale>  0 0.60110015E+03</rscale>
<asrwt>0</asrwt>
<pdfrwt beam="1">  1        1 0.29353965E+00 0.60110015E+03</pdfrwt>
<pdfrwt beam="2">  1       -1 0.35724221E-01 0.60110015E+03</pdfrwt>
<totfact> 0.27287370E+01</totfact>
</mgrwt>
</event>
<event>
 4    1  0.2731969E-009  0.9620513E+03  0.7818608E-02  0.9351174E-01
         -1   -1    0    0    0  501 -0.00000000000E+00  0.00000000000E+00  0.13700531404E+04  0.13700531405E+04  0.50400000000E-02 0.  1.
          1   -1    0    0  501    0  0.00000000000E+00 -0.00000000000E+00 -0.12110568687E+04  0.12110568687E+04  0.50400000000E-02 0. -1.
    8880022    1    1    2    0    0  0.92107814831E+03 -0.23187515536E+03 -0.77867674372E+03  0.12376914669E+04  0.15294330000E+03 0.  0.
    8880022    1    1    2    0    0 -0.92107814831E+03  0.23187515536E+03  0.93767301543E+03  0.13434185423E+04  0.15294330000E+03 0.  0.
<mgrwt>
<rscale>  0 0.96205130E+03</rscale>
<asrwt>0</asrwt>
<pdfrwt beam="1">  1        1 0.18631644E+00 0.96205130E+03</pdfrwt>
<pdfrwt beam="2">  1       -1 0.21077741E+00 0.96205130E+03</pdfrwt>
<totfact> 0.13473080E+00</totfact>
</mgrwt>
</event>
<event>
 4    1  0.2731969E-009  0.5916005E+03  0.7818608E-02  0.9922987E-01
         -1   -1    0    0    0  501 -0.00000000000E+00  0.00000000000E+00  0.36714260615E+03  0.36714260618E+03  0.50400000000E-02 0.  1.
          1   -1    0    0  501    0  0.00000000000E+00 -0.00000000000E+00 -0.13435731257E+04  0.13435731257E+04  0.50400000000E-02 0. -1.
    8880022    1    1    2    0    0 -0.47769564515E+03 -0.31369791706E+03 -0.27205165438E+02  0.59222570580E+03  0.15294330000E+03 0.  0.
    8880022    1    1    2    0    0  0.47769564515E+03  0.31369791706E+03 -0.94922535413E+03  0.11184900261E+04  0.15294330000E+03 0.  0.
<mgrwt>
<rscale>  0 0.59160051E+03</rscale>
<asrwt>0</asrwt>
<pdfrwt beam="1">  1        1 0.20670356E+00 0.59160051E+03</pdfrwt>
<pdfrwt beam="2">  1       -1 0.56483479E-01 0.59160051E+03</pdfrwt>
<totfact> 0.28137714E+01</totfact>
</mgrwt>
</event>
<event>
 4    1  0.2731969E-009  0.3694266E+03  0.7818608E-02  0.1054912E+00
          1   -1    0    0  501    0  0.00000000000E+00  0.00000000000E+00  0.22182403681E+04  0.22182403681E+04  0.50400000000E-02 0. -1.
         -1   -1    0    0    0  501 -0.00000000000E+00 -0.00000000000E+00 -0.29566621568E+03  0.29566621572E+03  0.50400000000E-02 0.  1.
    8880022    1    1    2    0    0 -0.23974710543E+03 -0.23580862163E+03 -0.15726891068E+03  0.40150908318E+03  0.15294330000E+03 0.  0.
    8880022    1    1    2    0    0  0.23974710543E+03  0.23580862163E+03  0.20798430631E+04  0.21123975006E+04  0.15294330000E+03 0.  0.
<mgrwt>
<rscale>  0 0.36942663E+03</rscale>
<asrwt>0</asrwt>
<pdfrwt beam="1">  1        1 0.34126775E+00 0.36942663E+03</pdfrwt>
<pdfrwt beam="2">  1       -1 0.45487110E-01 0.36942663E+03</pdfrwt>
<totfact> 0.11614554E+01</totfact>
</mgrwt>
</event>
<event>
 4    1  0.2731969E-009  0.5487792E+03  0.7818608E-02  0.1001777E+00
         -1   -1    0    0    0  501 -0.00000000000E+00  0.00000000000E+00  0.19019438883E+03  0.19019438890E+03  0.50400000000E-02 0.  1.
          1   -1    0    0  501    0  0.00000000000E+00 -0.00000000000E+00 -0.35871084404E+04  0.35871084404E+04  0.50400000000E-02 0. -1.
    8880022    1    1    2    0    0 -0.50499883174E+03  0.15080816361E+03 -0.28691408141E+03  0.61925621950E+03  0.15294330000E+03 0.  1.
    8880022    1    1    2    0    0  0.50499883174E+03 -0.15080816361E+03 -0.31099999701E+04  0.31580466098E+04  0.15294330000E+03 0.  0.
<mgrwt>
<rscale>  0 0.54877917E+03</rscale>
<asrwt>0</asrwt>
<pdfrwt beam="1">  1        1 0.55186279E+00 0.54877917E+03</pdfrwt>
<pdfrwt beam="2">  1       -1 0.29260678E-01 0.54877917E+03</pdfrwt>
<totfact> 0.25901467E+00</totfact>
</mgrwt>
</event>
<event>
 4    1  0.2731969E-009  0.5935646E+03  0.7818608E-02  0.9918848E-01
          1   -1    0    0  501    0  0.00000000000E+00  0.00000000000E+00  0.66958606613E+03  0.66958606615E+03  0.50400000000E-02 0. -1.
         -1   -1    0    0    0  501 -0.00000000000E+00 -0.00000000000E+00 -0.89296242821E+03  0.89296242822E+03  0.50400000000E-02 0.  1.
    8880022    1    1    2    0    0  0.52670816718E+02 -0.57109813241E+03  0.38903140795E+03  0.70969315987E+03  0.15294330000E+03 0.  0.
    8880022    1    1    2    0    0 -0.52670816718E+02  0.57109813241E+03 -0.61240777003E+03  0.85285533450E+03  0.15294330000E+03 0.  0.
<mgrwt>
<rscale>  0 0.59356461E+03</rscale>
<asrwt>0</asrwt>
<pdfrwt beam="1">  1        1 0.10301324E+00 0.59356461E+03</pdfrwt>
<pdfrwt beam="2">  1       -1 0.13737883E+00 0.59356461E+03</pdfrwt>
<totfact> 0.13488708E+01</totfact>
</mgrwt>
</event>
<event>
 4    1  0.2731969E-009  0.8241657E+03  0.7818608E-02  0.9525682E-01
         -1   -1    0    0    0  501 -0.00000000000E+00  0.00000000000E+00  0.12074465758E+04  0.12074465758E+04  0.50400000000E-02 0.  1.
          1   -1    0    0  501    0  0.00000000000E+00 -0.00000000000E+00 -0.19950879172E+04  0.19950879172E+04  0.50400000000E-02 0. -1.
    8880022    1    1    2    0    0 -0.52738398300E+03  0.61459219978E+03  0.96304189732E+03  0.12675562262E+04  0.15294330000E+03 0.  0.
    8880022    1    1    2    0    0  0.52738398300E+03 -0.61459219978E+03 -0.17506832388E+04  0.19349782668E+04  0.15294330000E+03 0.  0.
<mgrwt>
<rscale>  0 0.82416569E+03</rscale>
<asrwt>0</asrwt>
<pdfrwt beam="1">  1        1 0.30693660E+00 0.82416569E+03</pdfrwt>
<pdfrwt beam="2">  1       -1 0.18576101E+00 0.82416569E+03</pdfrwt>
<totfact> 0.59436900E-01</totfact>
</mgrwt>
</event>
<event>
 4    1  0.2731969E-009  0.4819618E+03  0.7818608E-02  0.1018597E+00
         -1   -1    0    0    0  501 -0.00000000000E+00  0.00000000000E+00  0.89570175669E+03  0.89570175670E+03  0.50400000000E-02 0.  1.
          1   -1    0    0  501    0  0.00000000000E+00 -0.00000000000E+00 -0.29907238762E+03  0.29907238766E+03  0.50400000000E-02 0. -1.
    8880022    1    1    2    0    0  0.26577006452E+03 -0.37183576704E+03  0.51606804212E+03  0.70612565593E+03  0.15294330000E+03 0.  0.
    8880022    1    1    2    0    0 -0.26577006452E+03  0.37183576704E+03  0.80561326946E+02  0.48864848844E+03  0.15294330000E+03 0.  0.
<mgrwt>
<rscale>  0 0.48196184E+03</rscale>
<asrwt>0</asrwt>
<pdfrwt beam="1">  1        1 0.46011138E-01 0.48196184E+03</pdfrwt>
<pdfrwt beam="2">  1       -1 0.13780027E+00 0.48196184E+03</pdfrwt>
<totfact> 0.40386567E+01</totfact>
</mgrwt>
</event>
<event>
 4    1  0.2731969E-009  0.1006225E+04  0.7818608E-02  0.9301743E-01
         -1   -1    0    0    0  501 -0.00000000000E+00  0.00000000000E+00  0.98450907413E+03  0.98450907415E+03  0.50400000000E-02 0.  1.
          1   -1    0    0  501    0  0.00000000000E+00 -0.00000000000E+00 -0.13170032565E+04  0.13170032566E+04  0.50400000000E-02 0. -1.
    8880022    1    1    2    0    0 -0.24960207356E+03 -0.96270288171E+03 -0.70491957310E+03  0.12285769374E+04  0.15294330000E+03 0.  0.
    8880022    1    1    2    0    0  0.24960207356E+03  0.96270288171E+03  0.37242539068E+03  0.10729353933E+04  0.15294330000E+03 0.  0.
<mgrwt>
<rscale>  0 0.10062255E+04</rscale>
<asrwt>0</asrwt>
<pdfrwt beam="1">  1        1 0.20261589E+00 0.10062255E+04</pdfrwt>
<pdfrwt beam="2">  1       -1 0.15146293E+00 0.10062255E+04</pdfrwt>
<totfact> 0.29993950E+00</totfact>
</mgrwt>
</event>
<event>
 4    1  0.2731969E-009  0.1216132E+04  0.7818608E-02  0.9098853E-01
          1   -1    0    0  501    0  0.00000000000E+00  0.00000000000E+00  0.24137357272E+04  0.24137357272E+04  0.50400000000E-02 0. -1.
         -1   -1    0    0    0  501 -0.00000000000E+00 -0.00000000000E+00 -0.10802764570E+04  0.10802764570E+04  0.50400000000E-02 0.  1.
    8880022    1    1    2    0    0 -0.11721796370E+04 -0.28562079597E+03 -0.48258216860E+03  0.13083812682E+04  0.15294330000E+03 0.  0.
    8880022    1    1    2    0    0  0.11721796370E+04  0.28562079597E+03  0.18160414388E+04  0.21856309160E+04  0.15294330000E+03 0.  0.
<mgrwt>
<rscale>  0 0.12161316E+04</rscale>
<asrwt>0</asrwt>
<pdfrwt beam="1">  1        1 0.37134395E+00 0.12161316E+04</pdfrwt>
<pdfrwt beam="2">  1       -1 0.16619638E+00 0.12161316E+04</pdfrwt>
<totfact> 0.40119481E-01</totfact>
</mgrwt>
</event>
<event>
 4    1  0.2731969E-009  0.1132646E+04  0.7818608E-02  0.9173944E-01
         -1   -1    0    0    0  501 -0.00000000000E+00  0.00000000000E+00  0.14140602378E+04  0.14140602378E+04  0.50400000000E-02 0.  1.
          1   -1    0    0  501    0  0.00000000000E+00 -0.00000000000E+00 -0.15196593304E+04  0.15196593304E+04  0.50400000000E-02 0. -1.
    8880022    1    1    2    0    0  0.19813308995E+03 -0.11046439078E+04  0.87839687649E+03  0.14333414143E+04  0.15294330000E+03 0.  0.
    8880022    1    1    2    0    0 -0.19813308995E+03  0.11046439078E+04 -0.98399596915E+03  0.15003781539E+04  0.15294330000E+03 0.  0.
<mgrwt>
<rscale>  0 0.11326458E+04</rscale>
<asrwt>0</asrwt>
<pdfrwt beam="1">  1        1 0.23379374E+00 0.11326458E+04</pdfrwt>
<pdfrwt beam="2">  1       -1 0.21754773E+00 0.11326458E+04</pdfrwt>
<totfact> 0.71664024E-01</totfact>
</mgrwt>
</event>
<event>
 4    1  0.2731969E-009  0.5049698E+03  0.7818608E-02  0.1012490E+00
          1   -1    0    0  501    0  0.00000000000E+00  0.00000000000E+00  0.48248046177E+03  0.48248046179E+03  0.50400000000E-02 0. -1.
         -1   -1    0    0    0  501 -0.00000000000E+00 -0.00000000000E+00 -0.12452589568E+04  0.12452589568E+04  0.50400000000E-02 0.  1.
    8880022    1    1    2    0    0 -0.42294741133E+03 -0.22960468782E+03 -0.10367836707E+04  0.11532193452E+04  0.15294330000E+03 0.  0.
    8880022    1    1    2    0    0  0.42294741133E+03  0.22960468782E+03  0.27400517565E+03  0.57452007337E+03  0.15294330000E+03 0.  0.
<mgrwt>
<rscale>  0 0.50496978E+03</rscale>
<asrwt>0</asrwt>
<pdfrwt beam="1">  1        1 0.74227764E-01 0.50496978E+03</pdfrwt>
<pdfrwt beam="2">  1       -1 0.19157830E+00 0.50496978E+03</pdfrwt>
<totfact> 0.86051154E+00</totfact>
</mgrwt>
</event>
<event>
 4    1  0.2731969E-009  0.8705935E+03  0.7818608E-02  0.9463106E-01
          1   -1    0    0  501    0  0.00000000000E+00  0.00000000000E+00  0.20229989743E+04  0.20229989743E+04  0.50400000000E-02 0. -1.
         -1   -1    0    0    0  501 -0.00000000000E+00 -0.00000000000E+00 -0.10748921239E+04  0.10748921240E+04  0.50400000000E-02 0.  1.
    8880022    1    1    2    0    0  0.72126460575E+03 -0.46294577049E+03  0.17242413417E+04  0.19315644632E+04  0.15294330000E+03 0.  0.
    8880022    1    1    2    0    0 -0.72126460575E+03  0.46294577049E+03 -0.77613449139E+03  0.11663266351E+04  0.15294330000E+03 0.  0.
<mgrwt>
<rscale>  0 0.87059352E+03</rscale>
<asrwt>0</asrwt>
<pdfrwt beam="1">  1        1 0.31123061E+00 0.87059352E+03</pdfrwt>
<pdfrwt beam="2">  1       -1 0.16536802E+00 0.87059352E+03</pdfrwt>
<totfact> 0.79208937E-01</totfact>
</mgrwt>
</event>
<event>
 4    1  0.2731969E-009  0.1189421E+04  0.7818608E-02  0.9122167E-01
         -1   -1    0    0    0  501 -0.00000000000E+00  0.00000000000E+00  0.21940288098E+04  0.21940288098E+04  0.50400000000E-02 0.  1.
          1   -1    0    0  501    0  0.00000000000E+00 -0.00000000000E+00 -0.12240497264E+04  0.12240497264E+04  0.50400000000E-02 0. -1.
    8880022    1    1    2    0    0  0.69267886979E+03 -0.95473931253E+03  0.16606534883E+04  0.20426680672E+04  0.15294330000E+03 0.  0.
    8880022    1    1    2    0    0 -0.69267886979E+03  0.95473931253E+03 -0.69067440489E+03  0.13754104690E+04  0.15294330000E+03 0.  0.
<mgrwt>
<rscale>  0 0.11894212E+04</rscale>
<asrwt>0</asrwt>
<pdfrwt beam="1">  1        1 0.18831535E+00 0.11894212E+04</pdfrwt>
<pdfrwt beam="2">  1       -1 0.33754289E+00 0.11894212E+04</pdfrwt>
<totfact> 0.19057210E-01</totfact>
</mgrwt>
</event>
<event>
 4    1  0.2731969E-009  0.3641825E+03  0.7818608E-02  0.1056940E+00
         -1   -1    0    0    0  501 -0.00000000000E+00  0.00000000000E+00  0.33232878189E+03  0.33232878192E+03  0.50400000000E-02 0.  1.
          1   -1    0    0  501    0  0.00000000000E+00 -0.00000000000E+00 -0.31209020140E+04  0.31209020141E+04  0.50400000000E-02 0. -1.
    8880022    1    1    2    0    0  0.13378424315E+03 -0.30222345854E+03  0.21815743296E+03  0.42452510076E+03  0.15294330000E+03 0.  0.
    8880022    1    1    2    0    0 -0.13378424315E+03  0.30222345854E+03 -0.30067306651E+04  0.30287056952E+04  0.15294330000E+03 0. -1.
<mgrwt>
<rscale>  0 0.36418250E+03</rscale>
<asrwt>0</asrwt>
<pdfrwt beam="1">  1        1 0.48013875E+00 0.36418250E+03</pdfrwt>
<pdfrwt beam="2">  1       -1 0.51127507E-01 0.36418250E+03</pdfrwt>
<totfact> 0.22659987E+00</totfact>
</mgrwt>
</event>
<event>
 4    1  0.2731969E-009  0.3700267E+03  0.7818608E-02  0.1054683E+00
          1   -1    0    0  501    0  0.00000000000E+00  0.00000000000E+00  0.18601114336E+04  0.18601114336E+04  0.50400000000E-02 0. -1.
         -1   -1    0    0    0  501 -0.00000000000E+00 -0.00000000000E+00 -0.10669986429E+03  0.10669986441E+03  0.50400000000E-02 0.  1.
    8880022    1    1    2    0    0  0.31218796493E+03  0.12675490156E+03  0.14243631204E+04  0.14716419681E+04  0.15294330000E+03 0.  0.
    8880022    1    1    2    0    0 -0.31218796493E+03 -0.12675490156E+03  0.32904844886E+03  0.49516932986E+03  0.15294330000E+03 0.  1.
<mgrwt>
<rscale>  0 0.37002673E+03</rscale>
<asrwt>0</asrwt>
<pdfrwt beam="1">  1        1 0.28617097E+00 0.37002673E+03</pdfrwt>
<pdfrwt beam="2">  1       -1 0.16415365E-01 0.37002673E+03</pdfrwt>
<totfact> 0.11374574E+02</totfact>
</mgrwt>
</event>
<event>
 4    1  0.2731969E-009  0.3354587E+03  0.7818608E-02  0.1068747E+00
         -1   -1    0    0    0  501 -0.00000000000E+00  0.00000000000E+00  0.19002849179E+04  0.19002849179E+04  0.50400000000E-02 0.  1.
          1   -1    0    0  501    0  0.00000000000E+00 -0.00000000000E+00 -0.14401586300E+03  0.14401586309E+03  0.50400000000E-02 0. -1.
    8880022    1    1    2    0    0  0.20320847911E+03 -0.21874003767E+03  0.93802218660E+02  0.34832656990E+03  0.15294330000E+03 0.  0.
    8880022    1    1    2    0    0 -0.20320847911E+03  0.21874003767E+03  0.16624668362E+04  0.16959742111E+04  0.15294330000E+03 0.  0.
<mgrwt>
<rscale>  0 0.33545871E+03</rscale>
<asrwt>0</asrwt>
<pdfrwt beam="1">  1        1 0.22156287E-01 0.33545871E+03</pdfrwt>
<pdfrwt beam="2">  1       -1 0.29235152E+00 0.33545871E+03</pdfrwt>
<totfact> 0.95067402E+00</totfact>
</mgrwt>
</event>
<event>
 4    1  0.2731969E-009  0.6264350E+03  0.7818608E-02  0.9852030E-01
          1   -1    0    0  501    0  0.00000000000E+00  0.00000000000E+00  0.18231198109E+04  0.18231198109E+04  0.50400000000E-02 0. -1.
         -1   -1    0    0    0  501 -0.00000000000E+00 -0.00000000000E+00 -0.10283058998E+04  0.10283058998E+04  0.50400000000E-02 0.  1.
    8880022    1    1    2    0    0 -0.50825215342E+03 -0.33272951772E+03 -0.87033814269E+03  0.10723382484E+04  0.15294330000E+03 0.  0.
    8880022    1    1    2    0    0  0.50825215342E+03  0.33272951772E+03  0.16651520537E+04  0.17790874623E+04  0.15294330000E+03 0.  0.
<mgrwt>
<rscale>  0 0.62643502E+03</rscale>
<asrwt>0</asrwt>
<pdfrwt beam="1">  1        1 0.28047997E+00 0.62643502E+03</pdfrwt>
<pdfrwt beam="2">  1       -1 0.15820091E+00 0.62643502E+03</pdfrwt>
<totfact> 0.12853777E+00</totfact>
</mgrwt>
</event>
<event>
 4    1  0.2731969E-009  0.5796795E+03  0.7818608E-02  0.9948485E-01
          1   -1    0    0  501    0  0.00000000000E+00  0.00000000000E+00  0.15243027671E+04  0.15243027671E+04  0.50400000000E-02 0. -1.
         -1   -1    0    0    0  501 -0.00000000000E+00 -0.00000000000E+00 -0.38875547471E+03  0.38875547475E+03  0.50400000000E-02 0.  1.
    8880022    1    1    2    0    0 -0.30198193693E+03 -0.47057792259E+03 -0.61605909088E+02  0.58294391884E+03  0.15294330000E+03 0.  0.
    8880022    1    1    2    0    0  0.30198193693E+03  0.47057792259E+03  0.11971532014E+04  0.13301143230E+04  0.15294330000E+03 0.  0.
<mgrwt>
<rscale>  0 0.57967950E+03</rscale>
<asrwt>0</asrwt>
<pdfrwt beam="1">  1        1 0.23450812E+00 0.57967950E+03</pdfrwt>
<pdfrwt beam="2">  1       -1 0.59808534E-01 0.57967950E+03</pdfrwt>
<totfact> 0.18955969E+01</totfact>
</mgrwt>
</event>
<event>
 4    1  0.2731969E-009  0.3605861E+03  0.7818608E-02  0.1058352E+00
          1   -1    0    0  501    0  0.00000000000E+00  0.00000000000E+00  0.56482565137E+03  0.56482565139E+03  0.50400000000E-02 0. -1.
         -1   -1    0    0    0  501 -0.00000000000E+00 -0.00000000000E+00 -0.37362496250E+03  0.37362496253E+03  0.50400000000E-02 0.  1.
    8880022    1    1    2    0    0 -0.28485452726E+01  0.32653113121E+03  0.38632190826E+03  0.52845715406E+03  0.15294330000E+03 0.  1.
    8880022    1    1    2    0    0  0.28485452726E+01 -0.32653113121E+03 -0.19512121938E+03  0.40999345986E+03  0.15294330000E+03 0. -1.
<mgrwt>
<rscale>  0 0.36058612E+03</rscale>
<asrwt>0</asrwt>
<pdfrwt beam="1">  1        1 0.86896254E-01 0.36058612E+03</pdfrwt>
<pdfrwt beam="2">  1       -1 0.57480764E-01 0.36058612E+03</pdfrwt>
<totfact> 0.12060976E+02</totfact>
</mgrwt>
</event>
<event>
 4    1  0.2731969E-009  0.8505183E+03  0.7818608E-02  0.9489642E-01
         -1   -1    0    0    0  501 -0.00000000000E+00  0.00000000000E+00  0.64229282294E+03  0.64229282296E+03  0.50400000000E-02 0.  1.
          1   -1    0    0  501    0  0.00000000000E+00 -0.00000000000E+00 -0.28732687707E+04  0.28732687707E+04  0.50400000000E-02 0. -1.
    8880022    1    1    2    0    0 -0.81952256495E+03  0.16844128142E+03  0.25515882682E+03  0.88796811861E+03  0.15294330000E+03 0.  0.
    8880022    1    1    2    0    0  0.81952256495E+03 -0.16844128142E+03 -0.24861347746E+04  0.26275934751E+04  0.15294330000E+03 0.  0.
<mgrwt>
<rscale>  0 0.85051828E+03</rscale>
<asrwt>0</asrwt>
<pdfrwt beam="1">  1        1 0.44204134E+00 0.85051828E+03</pdfrwt>
<pdfrwt beam="2">  1       -1 0.98814282E-01 0.85051828E+03</pdfrwt>
<totfact> 0.76239202E-01</totfact>
</mgrwt>
</event>
<event>
 4    1  0.2731969E-009  0.9145037E+03  0.7818608E-02  0.9407631E-01
         -1   -1    0    0    0  501 -0.00000000000E+00  0.00000000000E+00  0.63157354506E+03  0.63157354508E+03  0.50400000000E-02 0.  1.
          1   -1    0    0  501    0  0.00000000000E+00 -0.00000000000E+00 -0.24588258790E+04  0.24588258790E+04  0.50400000000E-02 0. -1.
    8880022    1    1    2    0    0 -0.44407230590E+03  0.78468156961E+03 -0.19632916317E+04  0.21658326488E+04  0.15294330000E+03 0.  0.
    8880022    1    1    2    0    0  0.44407230590E+03 -0.78468156961E+03  0.13603929769E+03  0.92456677535E+03  0.15294330000E+03 0.  0.
<mgrwt>
<rscale>  0 0.91450371E+03</rscale>
<asrwt>0</asrwt>
<pdfrwt beam="1">  1        1 0.37828090E+00 0.91450371E+03</pdfrwt>
<pdfrwt beam="2">  1       -1 0.97165162E-01 0.91450371E+03</pdfrwt>
<totfact> 0.15195531E+00</totfact>
</mgrwt>
</event>
<event>
 4    1  0.2731969E-009  0.2650868E+03  0.7818608E-02  0.1104125E+00
         -1   -1    0    0    0  501 -0.00000000000E+00  0.00000000000E+00  0.12638835232E+03  0.12638835242E+03  0.50400000000E-02 0.  1.
          1   -1    0    0  501    0  0.00000000000E+00 -0.00000000000E+00 -0.59595146613E+03  0.59595146615E+03  0.50400000000E-02 0. -1.
    8880022    1    1    2    0    0 -0.99774256356E+02  0.19215735426E+03 -0.14125993490E+03  0.30037538722E+03  0.15294330000E+03 0.  0.
    8880022    1    1    2    0    0  0.99774256356E+02 -0.19215735426E+03 -0.32830317891E+03  0.42196443135E+03  0.15294330000E+03 0.  0.
<mgrwt>
<rscale>  0 0.26508679E+03</rscale>
<asrwt>0</asrwt>
<pdfrwt beam="1">  1        1 0.91684839E-01 0.26508679E+03</pdfrwt>
<pdfrwt beam="2">  1       -1 0.19444362E-01 0.26508679E+03</pdfrwt>
<totfact> 0.75240736E+02</totfact>
</mgrwt>
</event>
<event>
 4    1  0.2731969E-009  0.1382972E+04  0.7818608E-02  0.8966237E-01
          1   -1    0    0  501    0  0.00000000000E+00  0.00000000000E+00  0.20650092547E+04  0.20650092547E+04  0.50400000000E-02 0. -1.
         -1   -1    0    0    0  501 -0.00000000000E+00 -0.00000000000E+00 -0.13732266554E+04  0.13732266554E+04  0.50400000000E-02 0.  1.
    8880022    1    1    2    0    0  0.10446018499E+04 -0.89332424349E+03  0.13267376168E+04  0.19164669540E+04  0.15294330000E+03 0.  0.
    8880022    1    1    2    0    0 -0.10446018499E+04  0.89332424349E+03 -0.63495501747E+03  0.15217689562E+04  0.15294330000E+03 0.  0.
<mgrwt>
<rscale>  0 0.13829725E+04</rscale>
<asrwt>0</asrwt>
<pdfrwt beam="1">  1        1 0.31769373E+00 0.13829725E+04</pdfrwt>
<pdfrwt beam="2">  1       -1 0.21126564E+00 0.13829725E+04</pdfrwt>
<totfact> 0.32508948E-01</totfact>
</mgrwt>
</event>
<event>
 4    1  0.2731969E-009  0.9343876E+03  0.7818608E-02  0.9383588E-01
          1   -1    0    0  501    0  0.00000000000E+00  0.00000000000E+00  0.88208010986E+03  0.88208010987E+03  0.50400000000E-02 0. -1.
         -1   -1    0    0    0  501 -0.00000000000E+00 -0.00000000000E+00 -0.14723434947E+04  0.14723434947E+04  0.50400000000E-02 0.  1.
    8880022    1    1    2    0    0 -0.51234254978E+03 -0.76628557480E+03 -0.96906928456E+03  0.13461706436E+04  0.15294330000E+03 0.  0.
    8880022    1    1    2    0    0  0.51234254978E+03  0.76628557480E+03  0.37880589977E+03  0.10082529609E+04  0.15294330000E+03 0. -1.
<mgrwt>
<rscale>  0 0.93438757E+03</rscale>
<asrwt>0</asrwt>
<pdfrwt beam="1">  1        1 0.13570463E+00 0.93438757E+03</pdfrwt>
<pdfrwt beam="2">  1       -1 0.22651438E+00 0.93438757E+03</pdfrwt>
<totfact> 0.19023790E+00</totfact>
</mgrwt>
</event>
<event>
 4    1  0.2731969E-009  0.1089091E+04  0.7818608E-02  0.9215891E-01
          1   -1    0    0  501    0  0.00000000000E+00  0.00000000000E+00  0.12769902856E+04  0.12769902857E+04  0.50400000000E-02 0. -1.
         -1   -1    0    0    0  501 -0.00000000000E+00 -0.00000000000E+00 -0.21170268144E+04  0.21170268144E+04  0.50400000000E-02 0.  1.
    8880022    1    1    2    0    0  0.64371432356E+03 -0.86507728648E+03 -0.16913631537E+04  0.20116728891E+04  0.15294330000E+03 0.  0.
    8880022    1    1    2    0    0 -0.64371432356E+03  0.86507728648E+03  0.85132662502E+03  0.13823442109E+04  0.15294330000E+03 0.  0.
<mgrwt>
<rscale>  0 0.10890907E+04</rscale>
<asrwt>0</asrwt>
<pdfrwt beam="1">  1        1 0.19646004E+00 0.10890907E+04</pdfrwt>
<pdfrwt beam="2">  1       -1 0.32569643E+00 0.10890907E+04</pdfrwt>
<totfact> 0.21176576E-01</totfact>
</mgrwt>
</event>
<event>
 4    1  0.2731969E-009  0.5391414E+03  0.7818608E-02  0.1004039E+00
          1   -1    0    0  501    0  0.00000000000E+00  0.00000000000E+00  0.11560894472E+04  0.11560894472E+04  0.50400000000E-02 0. -1.
         -1   -1    0    0    0  501 -0.00000000000E+00 -0.00000000000E+00 -0.38768544752E+03  0.38768544756E+03  0.50400000000E-02 0.  1.
    8880022    1    1    2    0    0  0.31289386886E+03  0.41155705702E+03  0.84181052373E+03  0.99965913952E+03  0.15294330000E+03 0.  0.
    8880022    1    1    2    0    0 -0.31289386886E+03 -0.41155705702E+03 -0.73406524024E+02  0.54411575527E+03  0.15294330000E+03 0.  0.
<mgrwt>
<rscale>  0 0.53914139E+03</rscale>
<asrwt>0</asrwt>
<pdfrwt beam="1">  1        1 0.17785991E+00 0.53914139E+03</pdfrwt>
<pdfrwt beam="2">  1       -1 0.59643917E-01 0.53914139E+03</pdfrwt>
<totfact> 0.34668064E+01</totfact>
</mgrwt>
</event>
<event>
 4    1  0.2731969E-009  0.4714002E+03  0.7818608E-02  0.1021526E+00
         -1   -1    0    0    0  501 -0.00000000000E+00  0.00000000000E+00  0.56066360046E+03  0.56066360048E+03  0.50400000000E-02 0.  1.
          1   -1    0    0  501    0  0.00000000000E+00 -0.00000000000E+00 -0.49381856151E+03  0.49381856154E+03  0.50400000000E-02 0. -1.
    8880022    1    1    2    0    0  0.31444326877E+03  0.31615167848E+03 -0.20081768522E+03  0.51239228018E+03  0.15294330000E+03 0.  0.
    8880022    1    1    2    0    0 -0.31444326877E+03 -0.31615167848E+03  0.26766272416E+03  0.54208988184E+03  0.15294330000E+03 0.  0.
<mgrwt>
<rscale>  0 0.47140015E+03</rscale>
<asrwt>0</asrwt>
<pdfrwt beam="1">  1        1 0.75972087E-01 0.47140015E+03</pdfrwt>
<pdfrwt beam="2">  1       -1 0.86255938E-01 0.47140015E+03</pdfrwt>
<totfact> 0.62705013E+01</totfact>
</mgrwt>
</event>
<event>
 4    1  0.2731969E-009  0.1703920E+03  0.7818608E-02  0.1177440E+00
         -1   -1    0    0    0  501 -0.00000000000E+00  0.00000000000E+00  0.63947198090E+03  0.63947198092E+03  0.50400000000E-02 0.  1.
          1   -1    0    0  501    0  0.00000000000E+00 -0.00000000000E+00 -0.32933909672E+03  0.32933909676E+03  0.50400000000E-02 0. -1.
    8880022    1    1    2    0    0  0.29741205442E+02  0.68972688066E+02 -0.29471173910E+03  0.34042390218E+03  0.15294330000E+03 0.  0.
    8880022    1    1    2    0    0 -0.29741205442E+02 -0.68972688066E+02  0.60484462328E+03  0.62838717549E+03  0.15294330000E+03 0.  1.
<mgrwt>
<rscale>  0 0.17039197E+03</rscale>
<asrwt>0</asrwt>
<pdfrwt beam="1">  1        1 0.50667553E-01 0.17039197E+03</pdfrwt>
<pdfrwt beam="2">  1       -1 0.98380305E-01 0.17039197E+03</pdfrwt>
<totfact> 0.84063742E+01</totfact>
</mgrwt>
</event>
<event>
 4    1  0.2731969E-009  0.4098548E+03  0.7818608E-02  0.1040420E+00
          1   -1    0    0  501    0  0.00000000000E+00  0.00000000000E+00  0.18582473864E+04  0.18582473864E+04  0.50400000000E-02 0. -1.
         -1   -1    0    0    0  501 -0.00000000000E+00 -0.00000000000E+00 -0.18117165916E+03  0.18117165923E+03  0.50400000000E-02 0.  1.
    8880022    1    1    2    0    0 -0.34865043682E+03 -0.15176352298E+03  0.11674526486E+03  0.42615772184E+03  0.15294330000E+03 0.  0.
    8880022    1    1    2    0    0  0.34865043682E+03  0.15176352298E+03  0.15603304624E+04  0.16132613238E+04  0.15294330000E+03 0.  0.
<mgrwt>
<rscale>  0 0.40985479E+03</rscale>
<asrwt>0</asrwt>
<pdfrwt beam="1">  1        1 0.28588422E+00 0.40985479E+03</pdfrwt>
<pdfrwt beam="2">  1       -1 0.27872562E-01 0.40985479E+03</pdfrwt>
<totfact> 0.47035602E+01</totfact>
</mgrwt>
</event>
<event>
 4    1  0.2731969E-009  0.1161346E+04  0.7818608E-02  0.9147380E-01
          1   -1    0    0  501    0  0.00000000000E+00  0.00000000000E+00  0.16845611431E+04  0.16845611431E+04  0.50400000000E-02 0. -1.
         -1   -1    0    0    0  501 -0.00000000000E+00 -0.00000000000E+00 -0.12225246584E+04  0.12225246584E+04  0.50400000000E-02 0.  1.
    8880022    1    1    2    0    0 -0.68332535313E+03 -0.92649801710E+03  0.10848983674E+04  0.15892539868E+04  0.15294330000E+03 0.  0.
    8880022    1    1    2    0    0  0.68332535313E+03  0.92649801710E+03 -0.62286188270E+03  0.13178318147E+04  0.15294330000E+03 0.  0.
<mgrwt>
<rscale>  0 0.11613457E+04</rscale>
<asrwt>0</asrwt>
<pdfrwt beam="1">  1        1 0.25916325E+00 0.11613457E+04</pdfrwt>
<pdfrwt beam="2">  1       -1 0.18808072E+00 0.11613457E+04</pdfrwt>
<totfact> 0.87702842E-01</totfact>
</mgrwt>
</event>
<event>
 4    1  0.2731969E-009  0.1810439E+04  0.7818608E-02  0.8700768E-01
          1   -1    0    0  501    0  0.00000000000E+00  0.00000000000E+00  0.16654667856E+04  0.16654667857E+04  0.50400000000E-02 0. -1.
         -1   -1    0    0    0  501 -0.00000000000E+00 -0.00000000000E+00 -0.19690497104E+04  0.19690497104E+04  0.50400000000E-02 0.  1.
    8880022    1    1    2    0    0  0.35789098854E+03 -0.17681101217E+04 -0.19311690052E+03  0.18207100682E+04  0.15294330000E+03 0.  0.
    8880022    1    1    2    0    0 -0.35789098854E+03  0.17681101217E+04 -0.11046602426E+03  0.18138064279E+04  0.15294330000E+03 0.  0.
<mgrwt>
<rscale>  0 0.18104395E+04</rscale>
<asrwt>0</asrwt>
<pdfrwt beam="1">  1        1 0.25622566E+00 0.18104395E+04</pdfrwt>
<pdfrwt beam="2">  1       -1 0.30293072E+00 0.18104395E+04</pdfrwt>
<totfact> 0.14518062E-01</totfact>
</mgrwt>
</event>
<event>
 4    1  0.2731969E-009  0.5485995E+03  0.7818608E-02  0.1001819E+00
          1   -1    0    0  501    0  0.00000000000E+00  0.00000000000E+00  0.20887188954E+04  0.20887188954E+04  0.50400000000E-02 0. -1.
         -1   -1    0    0    0  501 -0.00000000000E+00 -0.00000000000E+00 -0.18817101595E+04  0.18817101595E+04  0.50400000000E-02 0.  1.
    8880022    1    1    2    0    0  0.15384064341E+03 -0.50388769771E+03 -0.18041892575E+04  0.18857519151E+04  0.15294330000E+03 0.  0.
    8880022    1    1    2    0    0 -0.15384064341E+03  0.50388769771E+03  0.20111979934E+04  0.20846771398E+04  0.15294330000E+03 0.  0.
<mgrwt>
<rscale>  0 0.54859950E+03</rscale>
<asrwt>0</asrwt>
<pdfrwt beam="1">  1        1 0.32134137E+00 0.54859950E+03</pdfrwt>
<pdfrwt beam="2">  1       -1 0.28949387E+00 0.54859950E+03</pdfrwt>
<totfact> 0.11606897E-01</totfact>
</mgrwt>
</event>
<event>
 4    1  0.2731969E-009  0.1130950E+04  0.7818608E-02  0.9175540E-01
          1   -1    0    0  501    0  0.00000000000E+00  0.00000000000E+00  0.15990937632E+04  0.15990937632E+04  0.50400000000E-02 0. -1.
         -1   -1    0    0    0  501 -0.00000000000E+00 -0.00000000000E+00 -0.15581734826E+04  0.15581734826E+04  0.50400000000E-02 0.  1.
    8880022    1    1    2    0    0 -0.58493102944E+03 -0.95577863211E+03 -0.10808211454E+04  0.15643602860E+04  0.15294330000E+03 0.  0.
    8880022    1    1    2    0    0  0.58493102944E+03  0.95577863211E+03  0.11217414261E+04  0.15929069599E+04  0.15294330000E+03 0.  0.
<mgrwt>
<rscale>  0 0.11309504E+04</rscale>
<asrwt>0</asrwt>
<pdfrwt beam="1">  1        1 0.24601442E+00 0.11309504E+04</pdfrwt>
<pdfrwt beam="2">  1       -1 0.23971900E+00 0.11309504E+04</pdfrwt>
<totfact> 0.45066656E-01</totfact>
</mgrwt>
</event>
<event>
 4    1  0.2731969E-009  0.1021323E+04  0.7818608E-02  0.9285462E-01
         -1   -1    0    0    0  501 -0.00000000000E+00  0.00000000000E+00  0.12702567368E+04  0.12702567368E+04  0.50400000000E-02 0.  1.
          1   -1    0    0  501    0  0.00000000000E+00 -0.00000000000E+00 -0.99358740512E+03  0.99358740513E+03  0.50400000000E-02 0. -1.
    8880022    1    1    2    0    0  0.81738205373E+03 -0.59295518217E+03 -0.33318507428E+03  0.10742966148E+04  0.15294330000E+03 0.  0.
    8880022    1    1    2    0    0 -0.81738205373E+03  0.59295518217E+03  0.60985440594E+03  0.11895475271E+04  0.15294330000E+03 0.  0.
<mgrwt>
<rscale>  0 0.10213231E+04</rscale>
<asrwt>0</asrwt>
<pdfrwt beam="1">  1        1 0.15285960E+00 0.10213231E+04</pdfrwt>
<pdfrwt beam="2">  1       -1 0.19542411E+00 0.10213231E+04</pdfrwt>
<totfact> 0.24816801E+00</totfact>
</mgrwt>
</event>
<event>
 4    1  0.2731969E-009  0.1364552E+04  0.7818608E-02  0.8979885E-01
         -1   -1    0    0    0  501 -0.00000000000E+00  0.00000000000E+00  0.95015401261E+03  0.95015401262E+03  0.50400000000E-02 0.  1.
          1   -1    0    0  501    0  0.00000000000E+00 -0.00000000000E+00 -0.22603293721E+04  0.22603293721E+04  0.50400000000E-02 0. -1.
    8880022    1    1    2    0    0 -0.13476827757E+04 -0.14954038652E+03 -0.69649698258E+02  0.13663286298E+04  0.15294330000E+03 0.  0.
    8880022    1    1    2    0    0  0.13476827757E+04  0.14954038652E+03 -0.12405256613E+04  0.18441547550E+04  0.15294330000E+03 0.  0.
<mgrwt>
<rscale>  0 0.13645523E+04</rscale>
<asrwt>0</asrwt>
<pdfrwt beam="1">  1        1 0.34774298E+00 0.13645523E+04</pdfrwt>
<pdfrwt beam="2">  1       -1 0.14617754E+00 0.13645523E+04</pdfrwt>
<totfact> 0.71469434E-01</totfact>
</mgrwt>
</event>
<event>
 4    1  0.2731969E-009  0.1141554E+04  0.7818608E-02  0.9165611E-01
         -1   -1    0    0    0  501 -0.00000000000E+00  0.00000000000E+00  0.16361694717E+04  0.16361694717E+04  0.50400000000E-02 0.  1.
          1   -1    0    0  501    0  0.00000000000E+00 -0.00000000000E+00 -0.15363446120E+04  0.15363446121E+04  0.50400000000E-02 0. -1.
    8880022    1    1    2    0    0  0.93929080280E+03  0.63046477446E+03  0.11507190476E+04  0.16208945134E+04  0.15294330000E+03 0.  0.
    8880022    1    1    2    0    0 -0.93929080280E+03 -0.63046477446E+03 -0.10508941879E+04  0.15516195704E+04  0.15294330000E+03 0.  0.
<mgrwt>
<rscale>  0 0.11415536E+04</rscale>
<asrwt>0</asrwt>
<pdfrwt beam="1">  1        1 0.23636071E+00 0.11415536E+04</pdfrwt>
<pdfrwt beam="2">  1       -1 0.25171838E+00 0.11415536E+04</pdfrwt>
<totfact> 0.41496987E-01</totfact>
</mgrwt>
</event>
<event>
 4    1  0.2731969E-009  0.4036260E+03  0.7818608E-02  0.1042531E+00
          1   -1    0    0  501    0  0.00000000000E+00  0.00000000000E+00  0.16825221161E+04  0.16825221161E+04  0.50400000000E-02 0. -1.
         -1   -1    0    0    0  501 -0.00000000000E+00 -0.00000000000E+00 -0.58096160956E+03  0.58096160958E+03  0.50400000000E-02 0.  1.
    8880022    1    1    2    0    0 -0.28320178296E+03 -0.24355495819E+03  0.15839142068E+04  0.16345330021E+04  0.15294330000E+03 0. -1.
    8880022    1    1    2    0    0  0.28320178296E+03  0.24355495819E+03 -0.48235370025E+03  0.62895072357E+03  0.15294330000E+03 0.  0.
<mgrwt>
<rscale>  0 0.40362597E+03</rscale>
<asrwt>0</asrwt>
<pdfrwt beam="1">  1        1 0.25884956E+00 0.40362597E+03</pdfrwt>
<pdfrwt beam="2">  1       -1 0.89378709E-01 0.40362597E+03</pdfrwt>
<totfact> 0.67771334E+00</totfact>
</mgrwt>
</event>
<event>
 4    1  0.2731969E-009  0.1188349E+04  0.7818608E-02  0.9123116E-01
         -1   -1    0    0    0  501 -0.00000000000E+00  0.00000000000E+00  0.64010657534E+03  0.64010657536E+03  0.50400000000E-02 0.  1.
          1   -1    0    0  501    0  0.00000000000E+00 -0.00000000000E+00 -0.25344912463E+04  0.25344912464E+04  0.50400000000E-02 0. -1.
    8880022    1    1    2    0    0 -0.61774976717E+03  0.10035776459E+04 -0.37588140803E+03  0.12463792970E+04  0.15294330000E+03 0.  0.
    8880022    1    1    2    0    0  0.61774976717E+03 -0.10035776459E+04 -0.15185032630E+04  0.19282185247E+04  0.15294330000E+03 0.  0.
<mgrwt>
<rscale>  0 0.11883495E+04</rscale>
<asrwt>0</asrwt>
<pdfrwt beam="1">  1        1 0.38992173E+00 0.11883495E+04</pdfrwt>
<pdfrwt beam="2">  1       -1 0.98477936E-01 0.11883495E+04</pdfrwt>
<totfact> 0.12555214E+00</totfact>
</mgrwt>
</event>
<event>
 4    1  0.2731969E-009  0.5833834E+03  0.7818608E-02  0.9940493E-01
         -1   -1    0    0    0  501 -0.00000000000E+00  0.00000000000E+00  0.34290977980E+03  0.34290977984E+03  0.50400000000E-02 0.  1.
          1   -1    0    0  501    0  0.00000000000E+00 -0.00000000000E+00 -0.23576785723E+04  0.23576785723E+04  0.50400000000E-02 0. -1.
    8880022    1    1    2    0    0  0.40754006907E+03 -0.38840138604E+03  0.20115161640E+02  0.58373008944E+03  0.15294330000E+03 0.  0.
    8880022    1    1    2    0    0 -0.40754006907E+03  0.38840138604E+03 -0.20348839542E+04  0.21168582627E+04  0.15294330000E+03 0. -1.
<mgrwt>
<rscale>  0 0.58338341E+03</rscale>
<asrwt>0</asrwt>
<pdfrwt beam="1">  1        1 0.36271977E+00 0.58338341E+03</pdfrwt>
<pdfrwt beam="2">  1       -1 0.52755352E-01 0.58338341E+03</pdfrwt>
<totfact> 0.67046176E+00</totfact>
</mgrwt>
</event>
<event>
 4    1  0.2731969E-009  0.3429593E+03  0.7818608E-02  0.1065542E+00
         -1   -1    0    0    0  501 -0.00000000000E+00  0.00000000000E+00  0.88988311328E+03  0.88988311330E+03  0.50400000000E-02 0.  1.
          1   -1    0    0  501    0  0.00000000000E+00 -0.00000000000E+00 -0.14676342251E+04  0.14676342251E+04  0.50400000000E-02 0. -1.
    8880022    1    1    2    0    0  0.24468621763E+02 -0.30599135311E+03 -0.14133022806E+04  0.14543192260E+04  0.15294330000E+03 0.  0.
    8880022    1    1    2    0    0 -0.24468621763E+02  0.30599135311E+03  0.83555116879E+03  0.90319811244E+03  0.15294330000E+03 0.  1.
<mgrwt>
<rscale>  0 0.34295929E+03</rscale>
<asrwt>0</asrwt>
<pdfrwt beam="1">  1        1 0.22578988E+00 0.34295929E+03</pdfrwt>
<pdfrwt beam="2">  1       -1 0.13690509E+00 0.34295929E+03</pdfrwt>
<totfact> 0.35548292E+00</totfact>
</mgrwt>
</event>
<event>
 4    1  0.2731969E-009  0.9859194E+03  0.7818608E-02  0.9324124E-01
          1   -1    0    0  501    0  0.00000000000E+00  0.00000000000E+00  0.10958242715E+04  0.10958242715E+04  0.50400000000E-02 0. -1.
         -1   -1    0    0    0  501 -0.00000000000E+00 -0.00000000000E+00 -0.98493501449E+03  0.98493501450E+03  0.50400000000E-02 0.  1.
    8880022    1    1    2    0    0  0.70891380290E+03  0.66789714280E+03  0.38344496322E+03  0.10578596628E+04  0.15294330000E+03 0.  0.
    8880022    1    1    2    0    0 -0.70891380290E+03 -0.66789714280E+03 -0.27255570617E+03  0.10228996233E+04  0.15294330000E+03 0.  0.
<mgrwt>
<rscale>  0 0.98591938E+03</rscale>
<asrwt>0</asrwt>
<pdfrwt beam="1">  1        1 0.16858835E+00 0.98591938E+03</pdfrwt>
<pdfrwt beam="2">  1       -1 0.15152846E+00 0.98591938E+03</pdfrwt>
<totfact> 0.43553830E+00</totfact>
</mgrwt>
</event>
<event>
 4    1  0.2731969E-009  0.1290788E+04  0.7818608E-02  0.9036902E-01
          1   -1    0    0  501    0  0.00000000000E+00  0.00000000000E+00  0.13405972469E+04  0.13405972469E+04  0.50400000000E-02 0. -1.
         -1   -1    0    0    0  501 -0.00000000000E+00 -0.00000000000E+00 -0.22839913267E+04  0.22839913267E+04  0.50400000000E-02 0.  1.
    8880022    1    1    2    0    0 -0.12598638737E+04  0.23555202116E+03 -0.16953004525E+04  0.21307691128E+04  0.15294330000E+03 0.  0.
    8880022    1    1    2    0    0  0.12598638737E+04 -0.23555202116E+03  0.75190637268E+03  0.14938194607E+04  0.15294330000E+03 0.  0.
<mgrwt>
<rscale>  0 0.12907879E+04</rscale>
<asrwt>0</asrwt>
<pdfrwt beam="1">  1        1 0.20624573E+00 0.12907879E+04</pdfrwt>
<pdfrwt beam="2">  1       -1 0.35138328E+00 0.12907879E+04</pdfrwt>
<totfact> 0.12547121E-01</totfact>
</mgrwt>
</event>
<event>
 4    1  0.2731969E-009  0.1932368E+03  0.7818608E-02  0.1155574E+00
         -1   -1    0    0    0  501 -0.00000000000E+00  0.00000000000E+00  0.84827660052E+03  0.84827660053E+03  0.50400000000E-02 0.  1.
          1   -1    0    0  501    0  0.00000000000E+00 -0.00000000000E+00 -0.74861371459E+03  0.74861371461E+03  0.50400000000E-02 0. -1.
    8880022    1    1    2    0    0  0.22389350637E+01  0.11808379348E+03  0.82444632059E+03  0.84678933842E+03  0.15294330000E+03 0.  0.
    8880022    1    1    2    0    0 -0.22389350637E+01 -0.11808379348E+03 -0.72478343466E+03  0.75010097673E+03  0.15294330000E+03 0. -1.
<mgrwt>
<rscale>  0 0.19323677E+03</rscale>
<asrwt>0</asrwt>
<pdfrwt beam="1">  1        1 0.11517134E+00 0.19323677E+03</pdfrwt>
<pdfrwt beam="2">  1       -1 0.13050409E+00 0.19323677E+03</pdfrwt>
<totfact> 0.14479256E+01</totfact>
</mgrwt>
</event>
<event>
 4    1  0.2731969E-009  0.6787048E+03  0.7818608E-02  0.9754359E-01
         -1   -1    0    0    0  501 -0.00000000000E+00  0.00000000000E+00  0.57745832899E+03  0.57745832901E+03  0.50400000000E-02 0.  1.
          1   -1    0    0  501    0  0.00000000000E+00 -0.00000000000E+00 -0.11978899939E+04  0.11978899939E+04  0.50400000000E-02 0. -1.
    8880022    1    1    2    0    0 -0.58724360954E+03 -0.30396304212E+03 -0.82328580156E+03  0.10669769220E+04  0.15294330000E+03 0.  0.
    8880022    1    1    2    0    0  0.58724360954E+03  0.30396304212E+03  0.20285413665E+03  0.70837140096E+03  0.15294330000E+03 0.  0.
<mgrwt>
<rscale>  0 0.67870483E+03</rscale>
<asrwt>0</asrwt>
<pdfrwt beam="1">  1        1 0.18429077E+00 0.67870483E+03</pdfrwt>
<pdfrwt beam="2">  1       -1 0.88839743E-01 0.67870483E+03</pdfrwt>
<totfact> 0.13910235E+01</totfact>
</mgrwt>
</event>
<event>
 4    1  0.2731969E-009  0.1018028E+04  0.7818608E-02  0.9288990E-01
         -1   -1    0    0    0  501 -0.00000000000E+00  0.00000000000E+00  0.95864661971E+03  0.95864661972E+03  0.50400000000E-02 0.  1.
          1   -1    0    0  501    0  0.00000000000E+00 -0.00000000000E+00 -0.14625087515E+04  0.14625087515E+04  0.50400000000E-02 0. -1.
    8880022    1    1    2    0    0  0.54197266118E+03 -0.84808914019E+03  0.36629266914E+03  0.10819202963E+04  0.15294330000E+03 0.  0.
    8880022    1    1    2    0    0 -0.54197266118E+03  0.84808914019E+03 -0.87015480089E+03  0.13392350748E+04  0.15294330000E+03 0.  0.
<mgrwt>
<rscale>  0 0.10180281E+04</rscale>
<asrwt>0</asrwt>
<pdfrwt beam="1">  1        1 0.22500134E+00 0.10180281E+04</pdfrwt>
<pdfrwt beam="2">  1       -1 0.14748410E+00 0.10180281E+04</pdfrwt>
<totfact> 0.25434876E+00</totfact>
</mgrwt>
</event>
<event>
 4    1  0.2731969E-009  0.8522525E+03  0.7818608E-02  0.9487319E-01
          1   -1    0    0  501    0  0.00000000000E+00  0.00000000000E+00  0.15179497429E+04  0.15179497429E+04  0.50400000000E-02 0. -1.
         -1   -1    0    0    0  501 -0.00000000000E+00 -0.00000000000E+00 -0.63967896714E+03  0.63967896716E+03  0.50400000000E-02 0.  1.
    8880022    1    1    2    0    0 -0.36416979721E+03 -0.75519737500E+03 -0.10239637219E+03  0.85838184187E+03  0.15294330000E+03 0.  0.
    8880022    1    1    2    0    0  0.36416979721E+03  0.75519737500E+03  0.98066714790E+03  0.12992468681E+04  0.15294330000E+03 0.  0.
<mgrwt>
<rscale>  0 0.85225253E+03</rscale>
<asrwt>0</asrwt>
<pdfrwt beam="1">  1        1 0.23353072E+00 0.85225253E+03</pdfrwt>
<pdfrwt beam="2">  1       -1 0.98412151E-01 0.85225253E+03</pdfrwt>
<totfact> 0.64416201E+00</totfact>
</mgrwt>
</event>
<event>
 4    1  0.2731969E-009  0.2024851E+03  0.7818608E-02  0.1147659E+00
         -1   -1    0    0    0  501 -0.00000000000E+00  0.00000000000E+00  0.47780423771E+03  0.47780423774E+03  0.50400000000E-02 0.  1.
          1   -1    0    0  501    0  0.00000000000E+00 -0.00000000000E+00 -0.14771761057E+04  0.14771761057E+04  0.50400000000E-02 0. -1.
    8880022    1    1    2    0    0 -0.64304874890E+02  0.11607524981E+03  0.44898811488E+03  0.49253483214E+03  0.15294330000E+03 0.  0.
    8880022    1    1    2    0    0  0.64304874890E+02 -0.11607524981E+03 -0.14483599828E+04  0.14624455113E+04  0.15294330000E+03 0. -1.
<mgrwt>
<rscale>  0 0.20248514E+03</rscale>
<asrwt>0</asrwt>
<pdfrwt beam="1">  1        1 0.22725786E+00 0.20248514E+03</pdfrwt>
<pdfrwt beam="2">  1       -1 0.73508345E-01 0.20248514E+03</pdfrwt>
<totfact> 0.15152394E+01</totfact>
</mgrwt>
</event>
<event>
 4    1  0.2731969E-009  0.4985269E+03  0.7818608E-02  0.1014164E+00
         -1   -1    0    0    0  501 -0.00000000000E+00  0.00000000000E+00  0.23281763063E+03  0.23281763069E+03  0.50400000000E-02 0.  1.
          1   -1    0    0  501    0  0.00000000000E+00 -0.00000000000E+00 -0.14398255356E+04  0.14398255356E+04  0.50400000000E-02 0. -1.
    8880022    1    1    2    0    0  0.41541552549E+03  0.22927575795E+03 -0.17821006733E+03  0.52942224463E+03  0.15294330000E+03 0.  0.
    8880022    1    1    2    0    0 -0.41541552549E+03 -0.22927575795E+03 -0.10287978376E+04  0.11432209217E+04  0.15294330000E+03 0.  0.
<mgrwt>
<rscale>  0 0.49852692E+03</rscale>
<asrwt>0</asrwt>
<pdfrwt beam="1">  1        1 0.22151161E+00 0.49852692E+03</pdfrwt>
<pdfrwt beam="2">  1       -1 0.35818098E-01 0.49852692E+03</pdfrwt>
<totfact> 0.56872777E+01</totfact>
</mgrwt>
</event>
<event>
 4    1  0.2731969E-009  0.8897009E+03  0.7818608E-02  0.9438548E-01
          1   -1    0    0  501    0  0.00000000000E+00  0.00000000000E+00  0.13030858094E+04  0.13030858094E+04  0.50400000000E-02 0. -1.
         -1   -1    0    0    0  501 -0.00000000000E+00 -0.00000000000E+00 -0.63825183007E+03  0.63825183009E+03  0.50400000000E-02 0.  1.
    8880022    1    1    2    0    0  0.35589685216E+03  0.80094533163E+03  0.54563264576E+03  0.10436870368E+04  0.15294330000E+03 0.  0.
    8880022    1    1    2    0    0 -0.35589685216E+03 -0.80094533163E+03  0.11920133359E+03  0.89765060273E+03  0.15294330000E+03 0.  0.
<mgrwt>
<rscale>  0 0.88970087E+03</rscale>
<asrwt>0</asrwt>
<pdfrwt beam="1">  1        1 0.20047474E+00 0.88970087E+03</pdfrwt>
<pdfrwt beam="2">  1       -1 0.98192591E-01 0.88970087E+03</pdfrwt>
<totfact> 0.90942342E+00</totfact>
</mgrwt>
</event>
<event>
 4    1  0.2731969E-009  0.1284689E+04  0.7818608E-02  0.9041796E-01
          1   -1    0    0  501    0  0.00000000000E+00  0.00000000000E+00  0.22205050387E+04  0.22205050387E+04  0.50400000000E-02 0. -1.
         -1   -1    0    0    0  501 -0.00000000000E+00 -0.00000000000E+00 -0.14498803884E+04  0.14498803885E+04  0.50400000000E-02 0.  1.
    8880022    1    1    2    0    0 -0.52927192532E+03  0.11605627178E+04 -0.89585772799E+03  0.15662015562E+04  0.15294330000E+03 0.  0.
    8880022    1    1    2    0    0  0.52927192532E+03 -0.11605627178E+04  0.16664823782E+04  0.21041838710E+04  0.15294330000E+03 0.  0.
<mgrwt>
<rscale>  0 0.12846892E+04</rscale>
<asrwt>0</asrwt>
<pdfrwt beam="1">  1        1 0.34161616E+00 0.12846892E+04</pdfrwt>
<pdfrwt beam="2">  1       -1 0.22305852E+00 0.12846892E+04</pdfrwt>
<totfact> 0.21506292E-01</totfact>
</mgrwt>
</event>
<event>
 4    1  0.2731969E-009  0.7986645E+03  0.7818608E-02  0.9561952E-01
          1   -1    0    0  501    0  0.00000000000E+00  0.00000000000E+00  0.19801456317E+04  0.19801456317E+04  0.50400000000E-02 0. -1.
         -1   -1    0    0    0  501 -0.00000000000E+00 -0.00000000000E+00 -0.39945824383E+03  0.39945824386E+03  0.50400000000E-02 0.  1.
    8880022    1    1    2    0    0 -0.68415678679E+03 -0.38262612417E+03  0.13138322594E+04  0.15375370300E+04  0.15294330000E+03 0.  0.
    8880022    1    1    2    0    0  0.68415678679E+03  0.38262612417E+03  0.26685512852E+03  0.84206684559E+03  0.15294330000E+03 0.  0.
<mgrwt>
<rscale>  0 0.79866446E+03</rscale>
<asrwt>0</asrwt>
<pdfrwt beam="1">  1        1 0.30463779E+00 0.79866446E+03</pdfrwt>
<pdfrwt beam="2">  1       -1 0.61455114E-01 0.79866446E+03</pdfrwt>
<totfact> 0.85737075E+00</totfact>
</mgrwt>
</event>
<event>
 4    1  0.2731969E-009  0.3777716E+03  0.7818608E-02  0.1051760E+00
          1   -1    0    0  501    0  0.00000000000E+00  0.00000000000E+00  0.24256821254E+04  0.24256821254E+04  0.50400000000E-02 0. -1.
         -1   -1    0    0    0  501 -0.00000000000E+00 -0.00000000000E+00 -0.42384444953E+03  0.42384444956E+03  0.50400000000E-02 0.  1.
    8880022    1    1    2    0    0 -0.75871494926E+02 -0.33699147829E+03 -0.32126671129E+03  0.49590693984E+03  0.15294330000E+03 0.  0.
    8880022    1    1    2    0    0  0.75871494926E+02  0.33699147829E+03  0.23231043871E+04  0.23536196351E+04  0.15294330000E+03 0.  0.
<mgrwt>
<rscale>  0 0.37777162E+03</rscale>
<asrwt>0</asrwt>
<pdfrwt beam="1">  1        1 0.37318186E+00 0.37777162E+03</pdfrwt>
<pdfrwt beam="2">  1       -1 0.65206840E-01 0.37777162E+03</pdfrwt>
<totfact> 0.42488586E+00</totfact>
</mgrwt>
</event>
<event>
 4    1  0.2731969E-009  0.6505632E+03  0.7818608E-02  0.9805723E-01
          1   -1    0    0  501    0  0.00000000000E+00  0.00000000000E+00  0.19523957364E+04  0.19523957364E+04  0.50400000000E-02 0. -1.
         -1   -1    0    0    0  501 -0.00000000000E+00 -0.00000000000E+00 -0.23622297817E+03  0.23622297823E+03  0.50400000000E-02 0.  1.
    8880022    1    1    2    0    0  0.38308001765E+03 -0.50308104850E+03  0.11720688169E+04  0.13405140081E+04  0.15294330000E+03 0.  0.
    8880022    1    1    2    0    0 -0.38308001765E+03  0.50308104850E+03  0.54410394128E+03  0.84810470651E+03  0.15294330000E+03 0.  0.
<mgrwt>
<rscale>  0 0.65056321E+03</rscale>
<asrwt>0</asrwt>
<pdfrwt beam="1">  1        1 0.30036858E+00 0.65056321E+03</pdfrwt>
<pdfrwt beam="2">  1       -1 0.36341996E-01 0.65056321E+03</pdfrwt>
<totfact> 0.24531577E+01</totfact>
</mgrwt>
</event>
<event>
 4    1  0.2731969E-009  0.1658264E+04  0.7818608E-02  0.8785532E-01
          1   -1    0    0  501    0  0.00000000000E+00  0.00000000000E+00  0.18556550811E+04  0.18556550811E+04  0.50400000000E-02 0. -1.
         -1   -1    0    0    0  501 -0.00000000000E+00 -0.00000000000E+00 -0.24530910580E+04  0.24530910580E+04  0.50400000000E-02 0.  1.
    8880022    1    1    2    0    0  0.14291536682E+04 -0.82702393256E+03  0.10568553533E+04  0.19664139145E+04  0.15294330000E+03 0.  0.
    8880022    1    1    2    0    0 -0.14291536682E+04  0.82702393256E+03 -0.16542913302E+04  0.23423322246E+04  0.15294330000E+03 0.  0.
<mgrwt>
<rscale>  0 0.16582643E+04</rscale>
<asrwt>0</asrwt>
<pdfrwt beam="1">  1        1 0.28548540E+00 0.16582643E+04</pdfrwt>
<pdfrwt beam="2">  1       -1 0.37739863E+00 0.16582643E+04</pdfrwt>
<totfact> 0.35205202E-02</totfact>
</mgrwt>
</event>
<event>
 4    1  0.2731969E-009  0.7507103E+03  0.7818608E-02  0.9634237E-01
          1   -1    0    0  501    0  0.00000000000E+00  0.00000000000E+00  0.21035559317E+04  0.21035559317E+04  0.50400000000E-02 0. -1.
         -1   -1    0    0    0  501 -0.00000000000E+00 -0.00000000000E+00 -0.89107314252E+03  0.89107314254E+03  0.50400000000E-02 0.  1.
    8880022    1    1    2    0    0 -0.29587419421E+03 -0.67277983134E+03  0.18583928859E+04  0.20042928957E+04  0.15294330000E+03 0.  0.
    8880022    1    1    2    0    0  0.29587419421E+03  0.67277983134E+03 -0.64591009681E+03  0.99033617849E+03  0.15294330000E+03 0.  0.
<mgrwt>
<rscale>  0 0.75071026E+03</rscale>
<asrwt>0</asrwt>
<pdfrwt beam="1">  1        1 0.32362399E+00 0.75071026E+03</pdfrwt>
<pdfrwt beam="2">  1       -1 0.13708818E+00 0.75071026E+03</pdfrwt>
<totfact> 0.11883911E+00</totfact>
</mgrwt>
</event>
<event>
 4    1  0.2731969E-009  0.5022644E+03  0.7818608E-02  0.1013190E+00
         -1   -1    0    0    0  501 -0.00000000000E+00  0.00000000000E+00  0.36370340924E+03  0.36370340928E+03  0.50400000000E-02 0.  1.
          1   -1    0    0  501    0  0.00000000000E+00 -0.00000000000E+00 -0.10767739480E+04  0.10767739480E+04  0.50400000000E-02 0. -1.
    8880022    1    1    2    0    0 -0.47295816153E+03  0.72030627288E+02 -0.78617523661E+03  0.93292067696E+03  0.15294330000E+03 0.  0.
    8880022    1    1    2    0    0  0.47295816153E+03 -0.72030627288E+02  0.73104697903E+02  0.50755668028E+03  0.15294330000E+03 0.  0.
<mgrwt>
<rscale>  0 0.50226436E+03</rscale>
<asrwt>0</asrwt>
<pdfrwt beam="1">  1        1 0.16565753E+00 0.50226436E+03</pdfrwt>
<pdfrwt beam="2">  1       -1 0.55954371E-01 0.50226436E+03</pdfrwt>
<totfact> 0.45129334E+01</totfact>
</mgrwt>
</event>
<event>
 4    1  0.2731969E-009  0.6419955E+03  0.7818608E-02  0.9821916E-01
          1   -1    0    0  501    0  0.00000000000E+00  0.00000000000E+00  0.26642900620E+04  0.26642900620E+04  0.50400000000E-02 0. -1.
         -1   -1    0    0    0  501 -0.00000000000E+00 -0.00000000000E+00 -0.35359528410E+03  0.35359528413E+03  0.50400000000E-02 0.  1.
    8880022    1    1    2    0    0 -0.91077973067E+01 -0.62344491848E+03  0.22870565340E+04  0.23754548535E+04  0.15294330000E+03 0.  0.
    8880022    1    1    2    0    0  0.91077973067E+01  0.62344491848E+03  0.23638243976E+02  0.64243049270E+03  0.15294330000E+03 0.  0.
<mgrwt>
<rscale>  0 0.64199546E+03</rscale>
<asrwt>0</asrwt>
<pdfrwt beam="1">  1        1 0.40989077E+00 0.64199546E+03</pdfrwt>
<pdfrwt beam="2">  1       -1 0.54399275E-01 0.64199546E+03</pdfrwt>
<totfact> 0.38601836E+00</totfact>
</mgrwt>
</event>
<event>
 4    1  0.2731969E-009  0.1849420E+03  0.7818608E-02  0.1163104E+00
          1   -1    0    0  501    0  0.00000000000E+00  0.00000000000E+00  0.66819794697E+03  0.66819794699E+03  0.50400000000E-02 0. -1.
         -1   -1    0    0    0  501 -0.00000000000E+00 -0.00000000000E+00 -0.37972809999E+03  0.37972810003E+03  0.50400000000E-02 0.  1.
    8880022    1    1    2    0    0  0.10286105459E+03 -0.15215318458E+02 -0.34313488627E+03  0.38980136693E+03  0.15294330000E+03 0.  0.
    8880022    1    1    2    0    0 -0.10286105459E+03  0.15215318458E+02  0.63160473325E+03  0.65812468009E+03  0.15294330000E+03 0.  0.
<mgrwt>
<rscale>  0 0.18494203E+03</rscale>
<asrwt>0</asrwt>
<pdfrwt beam="1">  1        1 0.10279968E+00 0.18494203E+03</pdfrwt>
<pdfrwt beam="2">  1       -1 0.58419709E-01 0.18494203E+03</pdfrwt>
<totfact> 0.95530872E+01</totfact>
</mgrwt>
</event>
<event>
 4    1  0.2731969E-009  0.5370193E+03  0.7818608E-02  0.1004544E+00
          1   -1    0    0  501    0  0.00000000000E+00  0.00000000000E+00  0.64829625684E+03  0.64829625685E+03  0.50400000000E-02 0. -1.
         -1   -1    0    0    0  501 -0.00000000000E+00 -0.00000000000E+00 -0.12253303023E+04  0.12253303023E+04  0.50400000000E-02 0.  1.
    8880022    1    1    2    0    0 -0.47941505859E+03  0.18750807497E+03  0.45915221230E+03  0.70654828827E+03  0.15294330000E+03 0.  0.
    8880022    1    1    2    0    0  0.47941505859E+03 -0.18750807497E+03 -0.10361862577E+04  0.11670782709E+04  0.15294330000E+03 0.  0.
<mgrwt>
<rscale>  0 0.53701930E+03</rscale>
<asrwt>0</asrwt>
<pdfrwt beam="1">  1        1 0.99737886E-01 0.53701930E+03</pdfrwt>
<pdfrwt beam="2">  1       -1 0.18851235E+00 0.53701930E+03</pdfrwt>
<totfact> 0.59385407E+00</totfact>
</mgrwt>
</event>
<event>
 4    1  0.2731969E-009  0.6691904E+03  0.7818608E-02  0.9771422E-01
         -1   -1    0    0    0  501 -0.00000000000E+00  0.00000000000E+00  0.10096835961E+04  0.10096835961E+04  0.50400000000E-02 0.  1.
          1   -1    0    0  501    0  0.00000000000E+00 -0.00000000000E+00 -0.70904584339E+03  0.70904584341E+03  0.50400000000E-02 0. -1.
    8880022    1    1    2    0    0 -0.65147749222E+03  0.10927663108E+01 -0.37556884504E+03  0.76737717414E+03  0.15294330000E+03 0.  0.
    8880022    1    1    2    0    0  0.65147749222E+03 -0.10927663108E+01  0.67620659773E+03  0.95135226538E+03  0.15294330000E+03 0.  0.
<mgrwt>
<rscale>  0 0.66919038E+03</rscale>
<asrwt>0</asrwt>
<pdfrwt beam="1">  1        1 0.10908398E+00 0.66919038E+03</pdfrwt>
<pdfrwt beam="2">  1       -1 0.15533594E+00 0.66919038E+03</pdfrwt>
<totfact> 0.88439599E+00</totfact>
</mgrwt>
</event>
<event>
 4    1  0.2731969E-009  0.1016442E+04  0.7818608E-02  0.9290694E-01
         -1   -1    0    0    0  501 -0.00000000000E+00  0.00000000000E+00  0.19433036422E+04  0.19433036422E+04  0.50400000000E-02 0.  1.
          1   -1    0    0  501    0  0.00000000000E+00 -0.00000000000E+00 -0.11473621847E+04  0.11473621847E+04  0.50400000000E-02 0. -1.
    8880022    1    1    2    0    0  0.85798292080E+03  0.52309385112E+03  0.15300096607E+04  0.18368677373E+04  0.15294330000E+03 0.  0.
    8880022    1    1    2    0    0 -0.85798292080E+03 -0.52309385112E+03 -0.73406820321E+03  0.12537980896E+04  0.15294330000E+03 0.  0.
<mgrwt>
<rscale>  0 0.10164416E+04</rscale>
<asrwt>0</asrwt>
<pdfrwt beam="1">  1        1 0.17651726E+00 0.10164416E+04</pdfrwt>
<pdfrwt beam="2">  1       -1 0.29896979E+00 0.10164416E+04</pdfrwt>
<totfact> 0.39648713E-01</totfact>
</mgrwt>
</event>
<event>
 4    1  0.2731969E-009  0.6957540E+03  0.7818608E-02  0.9724521E-01
          1   -1    0    0  501    0  0.00000000000E+00  0.00000000000E+00  0.16264493692E+04  0.16264493692E+04  0.50400000000E-02 0. -1.
         -1   -1    0    0    0  501 -0.00000000000E+00 -0.00000000000E+00 -0.77662844636E+03  0.77662844637E+03  0.50400000000E-02 0.  1.
    8880022    1    1    2    0    0 -0.66383844228E+03 -0.14142291305E+03  0.13685368361E+04  0.15352415583E+04  0.15294330000E+03 0.  0.
    8880022    1    1    2    0    0  0.66383844228E+03  0.14142291305E+03 -0.51871591320E+03  0.86783625726E+03  0.15294330000E+03 0.  0.
<mgrwt>
<rscale>  0 0.69575396E+03</rscale>
<asrwt>0</asrwt>
<pdfrwt beam="1">  1        1 0.25022298E+00 0.69575396E+03</pdfrwt>
<pdfrwt beam="2">  1       -1 0.11948130E+00 0.69575396E+03</pdfrwt>
<totfact> 0.35363485E+00</totfact>
</mgrwt>
</event>
<event>
 4    1  0.2731969E-009  0.9701399E+03  0.7818608E-02  0.9341915E-01
         -1   -1    0    0    0  501 -0.00000000000E+00  0.00000000000E+00  0.20066922609E+04  0.20066922609E+04  0.50400000000E-02 0.  1.
          1   -1    0    0  501    0  0.00000000000E+00 -0.00000000000E+00 -0.74366034921E+03  0.74366034922E+03  0.50400000000E-02 0. -1.
    8880022    1    1    2    0    0 -0.60776356418E+03  0.74054255089E+03 -0.20419506144E+03  0.99139653810E+03  0.15294330000E+03 0.  0.
    8880022    1    1    2    0    0  0.60776356418E+03 -0.74054255089E+03  0.14672269732E+04  0.17589560720E+04  0.15294330000E+03 0.  0.
<mgrwt>
<rscale>  0 0.97013992E+03</rscale>
<asrwt>0</asrwt>
<pdfrwt beam="1">  1        1 0.11440929E+00 0.97013992E+03</pdfrwt>
<pdfrwt beam="2">  1       -1 0.30872188E+00 0.97013992E+03</pdfrwt>
<totfact> 0.73351980E-01</totfact>
</mgrwt>
</event>
<event>
 4    1  0.2731969E-009  0.8797831E+03  0.7818608E-02  0.9451212E-01
         -1   -1    0    0    0  501 -0.00000000000E+00  0.00000000000E+00  0.70599962825E+03  0.70599962827E+03  0.50400000000E-02 0.  1.
          1   -1    0    0  501    0  0.00000000000E+00 -0.00000000000E+00 -0.15841816174E+04  0.15841816174E+04  0.50400000000E-02 0. -1.
    8880022    1    1    2    0    0 -0.10050342402E+02  0.86632882404E+03  0.19634983870E+03  0.90142750841E+03  0.15294330000E+03 0.  0.
    8880022    1    1    2    0    0  0.10050342402E+02 -0.86632882404E+03 -0.10745318279E+04  0.13887537373E+04  0.15294330000E+03 0.  0.
<mgrwt>
<rscale>  0 0.87978309E+03</rscale>
<asrwt>0</asrwt>
<pdfrwt beam="1">  1        1 0.24372025E+00 0.87978309E+03</pdfrwt>
<pdfrwt beam="2">  1       -1 0.10861533E+00 0.87978309E+03</pdfrwt>
<totfact> 0.46009583E+00</totfact>
</mgrwt>
</event>
<event>
 4    1  0.2731969E-009  0.3401808E+03  0.7818608E-02  0.1066719E+00
          1   -1    0    0  501    0  0.00000000000E+00  0.00000000000E+00  0.70392733056E+03  0.70392733058E+03  0.50400000000E-02 0. -1.
         -1   -1    0    0    0  501 -0.00000000000E+00 -0.00000000000E+00 -0.15383214389E+04  0.15383214390E+04  0.50400000000E-02 0.  1.
    8880022    1    1    2    0    0  0.21805510389E+03 -0.21162069702E+03  0.64232938407E+03  0.72684939183E+03  0.15294330000E+03 0.  0.
    8880022    1    1    2    0    0 -0.21805510389E+03  0.21162069702E+03 -0.14767234925E+04  0.15153993777E+04  0.15294330000E+03 0.  0.
<mgrwt>
<rscale>  0 0.34018084E+03</rscale>
<asrwt>0</asrwt>
<pdfrwt beam="1">  1        1 0.10829651E+00 0.34018084E+03</pdfrwt>
<pdfrwt beam="2">  1       -1 0.23666484E+00 0.34018084E+03</pdfrwt>
<totfact> 0.26625644E+00</totfact>
</mgrwt>
</event>
<event>
 4    1  0.2731969E-009  0.1205475E+04  0.7818608E-02  0.9108078E-01
         -1   -1    0    0    0  501 -0.00000000000E+00  0.00000000000E+00  0.12602078920E+04  0.12602078920E+04  0.50400000000E-02 0.  1.
          1   -1    0    0  501    0  0.00000000000E+00 -0.00000000000E+00 -0.23092654093E+04  0.23092654093E+04  0.50400000000E-02 0. -1.
    8880022    1    1    2    0    0  0.62778228211E+03 -0.10176777011E+04  0.73829737851E+03  0.14135958295E+04  0.15294330000E+03 0.  0.
    8880022    1    1    2    0    0 -0.62778228211E+03  0.10176777011E+04 -0.17873548959E+04  0.21558774719E+04  0.15294330000E+03 0.  0.
<mgrwt>
<rscale>  0 0.12054751E+04</rscale>
<asrwt>0</asrwt>
<pdfrwt beam="1">  1        1 0.35527160E+00 0.12054751E+04</pdfrwt>
<pdfrwt beam="2">  1       -1 0.19387814E+00 0.12054751E+04</pdfrwt>
<totfact> 0.29930183E-01</totfact>
</mgrwt>
</event>
<event>
 4    1  0.2731969E-009  0.8503809E+03  0.7818608E-02  0.9489826E-01
         -1   -1    0    0    0  501 -0.00000000000E+00  0.00000000000E+00  0.74852247847E+03  0.74852247849E+03  0.50400000000E-02 0.  1.
          1   -1    0    0  501    0  0.00000000000E+00 -0.00000000000E+00 -0.27895747906E+04  0.27895747906E+04  0.50400000000E-02 0. -1.
    8880022    1    1    2    0    0 -0.81187001596E+03 -0.20155173945E+03  0.40975241406E+03  0.94395165148E+03  0.15294330000E+03 0.  0.
    8880022    1    1    2    0    0  0.81187001596E+03  0.20155173945E+03 -0.24508047262E+04  0.25941456176E+04  0.15294330000E+03 0.  0.
<mgrwt>
<rscale>  0 0.85038090E+03</rscale>
<asrwt>0</asrwt>
<pdfrwt beam="1">  1        1 0.42916535E+00 0.85038090E+03</pdfrwt>
<pdfrwt beam="2">  1       -1 0.11515731E+00 0.85038090E+03</pdfrwt>
<totfact> 0.61063448E-01</totfact>
</mgrwt>
</event>
<event>
 4    1  0.2731969E-009  0.7744890E+03  0.7818608E-02  0.9597695E-01
          1   -1    0    0  501    0  0.00000000000E+00  0.00000000000E+00  0.16089716774E+04  0.16089716774E+04  0.50400000000E-02 0. -1.
         -1   -1    0    0    0  501 -0.00000000000E+00 -0.00000000000E+00 -0.51209964711E+03  0.51209964714E+03  0.50400000000E-02 0.  1.
    8880022    1    1    2    0    0  0.52432590825E+03 -0.54911193664E+03 -0.46780795858E+01  0.77450314039E+03  0.15294330000E+03 0.  0.
    8880022    1    1    2    0    0 -0.52432590825E+03  0.54911193664E+03  0.11015501099E+04  0.13465681842E+04  0.15294330000E+03 0.  0.
<mgrwt>
<rscale>  0 0.77448901E+03</rscale>
<asrwt>0</asrwt>
<pdfrwt beam="1">  1        1 0.24753410E+00 0.77448901E+03</pdfrwt>
<pdfrwt beam="2">  1       -1 0.78784562E-01 0.77448901E+03</pdfrwt>
<totfact> 0.91905274E+00</totfact>
</mgrwt>
</event>
<event>
 4    1  0.2731969E-009  0.3767074E+03  0.7818608E-02  0.1052157E+00
          1   -1    0    0  501    0  0.00000000000E+00  0.00000000000E+00  0.21527977791E+04  0.21527977791E+04  0.50400000000E-02 0. -1.
         -1   -1    0    0    0  501 -0.00000000000E+00 -0.00000000000E+00 -0.18007931226E+03  0.18007931233E+03  0.50400000000E-02 0.  1.
    8880022    1    1    2    0    0 -0.14905387338E+03  0.31032203468E+03  0.19150884685E+04  0.19517869550E+04  0.15294330000E+03 0.  0.
    8880022    1    1    2    0    0  0.14905387338E+03 -0.31032203468E+03  0.57629998326E+02  0.38109013645E+03  0.15294330000E+03 0.  0.
<mgrwt>
<rscale>  0 0.37670741E+03</rscale>
<asrwt>0</asrwt>
<pdfrwt beam="1">  1        1 0.33119965E+00 0.37670741E+03</pdfrwt>
<pdfrwt beam="2">  1       -1 0.27704510E-01 0.37670741E+03</pdfrwt>
<totfact> 0.30679536E+01</totfact>
</mgrwt>
</event>
<event>
 4    1  0.2731969E-009  0.4966536E+03  0.7818608E-02  0.1014656E+00
         -1   -1    0    0    0  501 -0.00000000000E+00  0.00000000000E+00  0.84965755729E+03  0.84965755730E+03  0.50400000000E-02 0.  1.
          1   -1    0    0  501    0  0.00000000000E+00 -0.00000000000E+00 -0.12373437432E+04  0.12373437432E+04  0.50400000000E-02 0. -1.
    8880022    1    1    2    0    0 -0.14959737555E+03 -0.44821175701E+03  0.71907133896E+03  0.87391555508E+03  0.15294330000E+03 0.  0.
    8880022    1    1    2    0    0  0.14959737555E+03  0.44821175701E+03 -0.11067575249E+04  0.12130857454E+04  0.15294330000E+03 0.  0.
<mgrwt>
<rscale>  0 0.49665361E+03</rscale>
<asrwt>0</asrwt>
<pdfrwt beam="1">  1        1 0.19036058E+00 0.49665361E+03</pdfrwt>
<pdfrwt beam="2">  1       -1 0.13071655E+00 0.49665361E+03</pdfrwt>
<totfact> 0.54798499E+00</totfact>
</mgrwt>
</event>
<event>
 4    1  0.2731969E-009  0.1511477E+04  0.7818608E-02  0.8876856E-01
          1   -1    0    0  501    0  0.00000000000E+00  0.00000000000E+00  0.26858220041E+04  0.26858220041E+04  0.50400000000E-02 0. -1.
         -1   -1    0    0    0  501 -0.00000000000E+00 -0.00000000000E+00 -0.18048014650E+04  0.18048014650E+04  0.50400000000E-02 0.  1.
    8880022    1    1    2    0    0  0.14525843998E+04  0.38880635368E+03  0.20731174063E+04  0.25656147904E+04  0.15294330000E+03 0.  0.
    8880022    1    1    2    0    0 -0.14525843998E+04 -0.38880635368E+03 -0.11920968672E+04  0.19250086787E+04  0.15294330000E+03 0.  0.
<mgrwt>
<rscale>  0 0.15114772E+04</rscale>
<asrwt>0</asrwt>
<pdfrwt beam="1">  1        1 0.41320338E+00 0.15114772E+04</pdfrwt>
<pdfrwt beam="2">  1       -1 0.27766177E+00 0.15114772E+04</pdfrwt>
<totfact> 0.43609795E-02</totfact>
</mgrwt>
</event>
<event>
 4    1  0.2731969E-009  0.5341315E+03  0.7818608E-02  0.1005235E+00
          1   -1    0    0  501    0  0.00000000000E+00  0.00000000000E+00  0.49688738195E+03  0.49688738198E+03  0.50400000000E-02 0. -1.
         -1   -1    0    0    0  501 -0.00000000000E+00 -0.00000000000E+00 -0.11147540227E+04  0.11147540227E+04  0.50400000000E-02 0.  1.
    8880022    1    1    2    0    0 -0.45043474425E+03  0.24292660397E+03  0.25222010220E+03  0.59068724949E+03  0.15294330000E+03 0.  0.
    8880022    1    1    2    0    0  0.45043474425E+03 -0.24292660397E+03 -0.87008674295E+03  0.10209541552E+04  0.15294330000E+03 0.  0.
<mgrwt>
<rscale>  0 0.53413149E+03</rscale>
<asrwt>0</asrwt>
<pdfrwt beam="1">  1        1 0.76444213E-01 0.53413149E+03</pdfrwt>
<pdfrwt beam="2">  1       -1 0.17150062E+00 0.53413149E+03</pdfrwt>
<totfact> 0.11396925E+01</totfact>
</mgrwt>
</event>
<event>
 4    1  0.2731969E-009  0.1941428E+03  0.7818608E-02  0.1154777E+00
         -1   -1    0    0    0  501 -0.00000000000E+00  0.00000000000E+00  0.46148947600E+03  0.46148947603E+03  0.50400000000E-02 0.  1.
          1   -1    0    0  501    0  0.00000000000E+00 -0.00000000000E+00 -0.93179526903E+03  0.93179526904E+03  0.50400000000E-02 0. -1.
    8880022    1    1    2    0    0  0.75089835304E+02 -0.93066119074E+02 -0.90056426519E+03  0.92125318704E+03  0.15294330000E+03 0.  0.
    8880022    1    1    2    0    0 -0.75089835304E+02  0.93066119074E+02  0.43025847216E+03  0.47203155802E+03  0.15294330000E+03 0.  0.
<mgrwt>
<rscale>  0 0.19414283E+03</rscale>
<asrwt>0</asrwt>
<pdfrwt beam="1">  1        1 0.14335312E+00 0.19414283E+03</pdfrwt>
<pdfrwt beam="2">  1       -1 0.70998381E-01 0.19414283E+03</pdfrwt>
<totfact> 0.39257174E+01</totfact>
</mgrwt>
</event>
<event>
 4    1  0.2731969E-009  0.1320421E+04  0.7818608E-02  0.9013526E-01
          1   -1    0    0  501    0  0.00000000000E+00  0.00000000000E+00  0.26957821237E+04  0.26957821237E+04  0.50400000000E-02 0. -1.
         -1   -1    0    0    0  501 -0.00000000000E+00 -0.00000000000E+00 -0.10182401341E+04  0.10182401341E+04  0.50400000000E-02 0.  1.
    8880022    1    1    2    0    0  0.39458803879E+03  0.12507683039E+04  0.19604269153E+04  0.23636383847E+04  0.15294330000E+03 0.  0.
    8880022    1    1    2    0    0 -0.39458803879E+03 -0.12507683039E+04 -0.28288492572E+03  0.13503838730E+04  0.15294330000E+03 0.  0.
<mgrwt>
<rscale>  0 0.13204214E+04</rscale>
<asrwt>0</asrwt>
<pdfrwt beam="1">  1        1 0.41473571E+00 0.13204214E+04</pdfrwt>
<pdfrwt beam="2">  1       -1 0.15665233E+00 0.13204214E+04</pdfrwt>
<totfact> 0.29759770E-01</totfact>
</mgrwt>
</event>
<event>
 4    1  0.2731969E-009  0.4596604E+03  0.7818608E-02  0.1024880E+00
         -1   -1    0    0    0  501 -0.00000000000E+00  0.00000000000E+00  0.54506375499E+03  0.54506375501E+03  0.50400000000E-02 0.  1.
          1   -1    0    0  501    0  0.00000000000E+00 -0.00000000000E+00 -0.12117514588E+04  0.12117514588E+04  0.50400000000E-02 0. -1.
    8880022    1    1    2    0    0 -0.29545925947E+03 -0.31717481589E+03 -0.10577509328E+04  0.11533103341E+04  0.15294330000E+03 0.  0.
    8880022    1    1    2    0    0  0.29545925947E+03  0.31717481589E+03  0.39106322896E+03  0.60350487977E+03  0.15294330000E+03 0.  0.
<mgrwt>
<rscale>  0 0.45966041E+03</rscale>
<asrwt>0</asrwt>
<pdfrwt beam="1">  1        1 0.18642330E+00 0.45966041E+03</pdfrwt>
<pdfrwt beam="2">  1       -1 0.83855963E-01 0.45966041E+03</pdfrwt>
<totfact> 0.16023457E+01</totfact>
</mgrwt>
</event>
<event>
 4    1  0.2731969E-009  0.4108476E+03  0.7818608E-02  0.1040087E+00
          1   -1    0    0  501    0  0.00000000000E+00  0.00000000000E+00  0.18635547529E+04  0.18635547529E+04  0.50400000000E-02 0. -1.
         -1   -1    0    0    0  501 -0.00000000000E+00 -0.00000000000E+00 -0.20985043889E+03  0.20985043895E+03  0.50400000000E-02 0.  1.
    8880022    1    1    2    0    0  0.36936726091E+03 -0.94720371299E+02  0.45277349041E+02  0.41333498947E+03  0.15294330000E+03 0.  0.
    8880022    1    1    2    0    0 -0.36936726091E+03  0.94720371299E+02  0.16084269650E+04  0.16600702024E+04  0.15294330000E+03 0.  0.
<mgrwt>
<rscale>  0 0.41084763E+03</rscale>
<asrwt>0</asrwt>
<pdfrwt beam="1">  1        1 0.28670074E+00 0.41084763E+03</pdfrwt>
<pdfrwt beam="2">  1       -1 0.32284682E-01 0.41084763E+03</pdfrwt>
<totfact> 0.36212596E+01</totfact>
</mgrwt>
</event>
<event>
 4    1  0.2731969E-009  0.2303505E+03  0.7818608E-02  0.1126393E+00
         -1   -1    0    0    0  501 -0.00000000000E+00  0.00000000000E+00  0.65395567425E+02  0.65395567619E+02  0.50400000000E-02 0.  1.
          1   -1    0    0  501    0  0.00000000000E+00 -0.00000000000E+00 -0.10102318472E+04  0.10102318472E+04  0.50400000000E-02 0. -1.
    8880022    1    1    2    0    0 -0.16517043196E+03 -0.48871446508E+02 -0.23381581179E+03  0.32822427811E+03  0.15294330000E+03 0.  0.
    8880022    1    1    2    0    0  0.16517043196E+03  0.48871446508E+02 -0.71102046794E+03  0.74740313668E+03  0.15294330000E+03 0. -1.
<mgrwt>
<rscale>  0 0.23035048E+03</rscale>
<asrwt>0</asrwt>
<pdfrwt beam="1">  1        1 0.15542027E+00 0.23035048E+03</pdfrwt>
<pdfrwt beam="2">  1       -1 0.10060857E-01 0.23035048E+03</pdfrwt>
<totfact> 0.95176082E+02</totfact>
</mgrwt>
</event>
<event>
 4    1  0.2731969E-009  0.2004226E+04  0.7818608E-02  0.8604647E-01
         -1   -1    0    0    0  501 -0.00000000000E+00  0.00000000000E+00  0.28161596672E+04  0.28161596672E+04  0.50400000000E-02 0.  1.
          1   -1    0    0  501    0  0.00000000000E+00 -0.00000000000E+00 -0.28576516191E+04  0.28576516191E+04  0.50400000000E-02 0. -1.
    8880022    1    1    2    0    0  0.33811730597E+03  0.19695701290E+04 -0.20284554519E+04  0.28515877996E+04  0.15294330000E+03 0.  0.
    8880022    1    1    2    0    0 -0.33811730597E+03 -0.19695701290E+04  0.19869635000E+04  0.28222234867E+04  0.15294330000E+03 0.  0.
<mgrwt>
<rscale>  0 0.20042259E+04</rscale>
<asrwt>0</asrwt>
<pdfrwt beam="1">  1        1 0.43963871E+00 0.20042259E+04</pdfrwt>
<pdfrwt beam="2">  1       -1 0.43325533E+00 0.20042259E+04</pdfrwt>
<totfact> 0.28127425E-03</totfact>
</mgrwt>
</event>
<event>
 4    1  0.2731969E-009  0.1112087E+04  0.7818608E-02  0.9193490E-01
         -1   -1    0    0    0  501 -0.00000000000E+00  0.00000000000E+00  0.11601935908E+04  0.11601935908E+04  0.50400000000E-02 0.  1.
          1   -1    0    0  501    0  0.00000000000E+00 -0.00000000000E+00 -0.28074718281E+04  0.28074718281E+04  0.50400000000E-02 0. -1.
    8880022    1    1    2    0    0  0.10734426388E+04  0.24711717353E+03  0.73881997599E+03  0.13351376731E+04  0.15294330000E+03 0.  0.
    8880022    1    1    2    0    0 -0.10734426388E+04 -0.24711717353E+03 -0.23860982133E+04  0.26325277458E+04  0.15294330000E+03 0.  0.
<mgrwt>
<rscale>  0 0.11120871E+04</rscale>
<asrwt>0</asrwt>
<pdfrwt beam="1">  1        1 0.43191874E+00 0.11120871E+04</pdfrwt>
<pdfrwt beam="2">  1       -1 0.17849132E+00 0.11120871E+04</pdfrwt>
<totfact> 0.17634712E-01</totfact>
</mgrwt>
</event>
<event>
 4    1  0.2731969E-009  0.1231839E+04  0.7818608E-02  0.9085435E-01
         -1   -1    0    0    0  501 -0.00000000000E+00  0.00000000000E+00  0.11127294661E+04  0.11127294661E+04  0.50400000000E-02 0.  1.
          1   -1    0    0  501    0  0.00000000000E+00 -0.00000000000E+00 -0.15197300509E+04  0.15197300509E+04  0.50400000000E-02 0. -1.
    8880022    1    1    2    0    0 -0.40999095347E+03 -0.11514960516E+04 -0.62525004125E+03  0.13814358493E+04  0.15294330000E+03 0.  0.
    8880022    1    1    2    0    0  0.40999095347E+03  0.11514960516E+04  0.21824945644E+03  0.12510236676E+04  0.15294330000E+03 0.  0.
<mgrwt>
<rscale>  0 0.12318390E+04</rscale>
<asrwt>0</asrwt>
<pdfrwt beam="1">  1        1 0.23380462E+00 0.12318390E+04</pdfrwt>
<pdfrwt beam="2">  1       -1 0.17118915E+00 0.12318390E+04</pdfrwt>
<totfact> 0.14929620E+00</totfact>
</mgrwt>
</event>
<event>
 4    1  0.2731969E-009  0.5872622E+03  0.7818608E-02  0.9932191E-01
          1   -1    0    0  501    0  0.00000000000E+00  0.00000000000E+00  0.35930900986E+03  0.35930900990E+03  0.50400000000E-02 0. -1.
         -1   -1    0    0    0  501 -0.00000000000E+00 -0.00000000000E+00 -0.14490344770E+04  0.14490344770E+04  0.50400000000E-02 0.  1.
    8880022    1    1    2    0    0  0.37122324169E+03 -0.42857730920E+03 -0.10702205371E+04  0.12207574928E+04  0.15294330000E+03 0.  1.
    8880022    1    1    2    0    0 -0.37122324169E+03  0.42857730920E+03 -0.19504929987E+02  0.58758599408E+03  0.15294330000E+03 0.  0.
<mgrwt>
<rscale>  0 0.58726217E+03</rscale>
<asrwt>0</asrwt>
<pdfrwt beam="1">  1        1 0.55278310E-01 0.58726217E+03</pdfrwt>
<pdfrwt beam="2">  1       -1 0.22292838E+00 0.58726217E+03</pdfrwt>
<totfact> 0.77102896E+00</totfact>
</mgrwt>
</event>
<event>
 4    1  0.2731969E-009  0.1199763E+04  0.7818608E-02  0.9113064E-01
         -1   -1    0    0    0  501 -0.00000000000E+00  0.00000000000E+00  0.15222575822E+04  0.15222575822E+04  0.50400000000E-02 0.  1.
          1   -1    0    0  501    0  0.00000000000E+00 -0.00000000000E+00 -0.13111799381E+04  0.13111799381E+04  0.50400000000E-02 0. -1.
    8880022    1    1    2    0    0 -0.93304796781E+03 -0.73855321264E+03  0.85362188714E+03  0.14724473971E+04  0.15294330000E+03 0.  0.
    8880022    1    1    2    0    0  0.93304796781E+03  0.73855321264E+03 -0.64254424300E+03  0.13609901232E+04  0.15294330000E+03 0.  0.
<mgrwt>
<rscale>  0 0.11997629E+04</rscale>
<asrwt>0</asrwt>
<pdfrwt beam="1">  1        1 0.20171999E+00 0.11997629E+04</pdfrwt>
<pdfrwt beam="2">  1       -1 0.23419347E+00 0.11997629E+04</pdfrwt>
<totfact> 0.77099650E-01</totfact>
</mgrwt>
</event>
<event>
 4    1  0.2731969E-009  0.7982488E+03  0.7818608E-02  0.9562555E-01
          1   -1    0    0  501    0  0.00000000000E+00  0.00000000000E+00  0.20145566544E+04  0.20145566544E+04  0.50400000000E-02 0. -1.
         -1   -1    0    0    0  501 -0.00000000000E+00 -0.00000000000E+00 -0.64825177745E+03  0.64825177747E+03  0.50400000000E-02 0.  1.
    8880022    1    1    2    0    0  0.58118424811E+03 -0.52538977634E+03 -0.26959231436E+03  0.84254448922E+03  0.15294330000E+03 0.  0.
    8880022    1    1    2    0    0 -0.58118424811E+03  0.52538977634E+03  0.16358971913E+04  0.18202639427E+04  0.15294330000E+03 0.  0.
<mgrwt>
<rscale>  0 0.79824883E+03</rscale>
<asrwt>0</asrwt>
<pdfrwt beam="1">  1        1 0.30993180E+00 0.79824883E+03</pdfrwt>
<pdfrwt beam="2">  1       -1 0.99731041E-01 0.79824883E+03</pdfrwt>
<totfact> 0.29155352E+00</totfact>
</mgrwt>
</event>
<event>
 4    1  0.2731969E-009  0.4552946E+03  0.7818608E-02  0.1026155E+00
         -1   -1    0    0    0  501 -0.00000000000E+00  0.00000000000E+00  0.10733278759E+04  0.10733278759E+04  0.50400000000E-02 0.  1.
          1   -1    0    0  501    0  0.00000000000E+00 -0.00000000000E+00 -0.15882694985E+04  0.15882694985E+04  0.50400000000E-02 0. -1.
    8880022    1    1    2    0    0  0.32480352119E+03 -0.28000744365E+03  0.98979463033E+03  0.10894891276E+04  0.15294330000E+03 0.  0.
    8880022    1    1    2    0    0 -0.32480352119E+03  0.28000744365E+03 -0.15047362529E+04  0.15721082469E+04  0.15294330000E+03 0.  0.
<mgrwt>
<rscale>  0 0.45529457E+03</rscale>
<asrwt>0</asrwt>
<pdfrwt beam="1">  1        1 0.24434915E+00 0.45529457E+03</pdfrwt>
<pdfrwt beam="2">  1       -1 0.16512737E+00 0.45529457E+03</pdfrwt>
<totfact> 0.17203747E+00</totfact>
</mgrwt>
</event>
<event>
 4    1  0.2731969E-009  0.7417737E+03  0.7818608E-02  0.9648345E-01
         -1   -1    0    0    0  501 -0.00000000000E+00  0.00000000000E+00  0.31754146414E+03  0.31754146418E+03  0.50400000000E-02 0.  1.
          1   -1    0    0  501    0  0.00000000000E+00 -0.00000000000E+00 -0.23893931802E+04  0.23893931802E+04  0.50400000000E-02 0. -1.
    8880022    1    1    2    0    0 -0.19300274368E+03 -0.69970462760E+03 -0.17454383297E+04  0.18965187161E+04  0.15294330000E+03 0.  0.
    8880022    1    1    2    0    0  0.19300274368E+03  0.69970462760E+03 -0.32641338642E+03  0.81041592827E+03  0.15294330000E+03 0.  0.
<mgrwt>
<rscale>  0 0.74177374E+03</rscale>
<asrwt>0</asrwt>
<pdfrwt beam="1">  1        1 0.36759894E+00 0.74177374E+03</pdfrwt>
<pdfrwt beam="2">  1       -1 0.48852534E-01 0.74177374E+03</pdfrwt>
<totfact> 0.71563545E+00</totfact>
</mgrwt>
</event>
<event>
 4    1  0.2731969E-009  0.1064018E+04  0.7818608E-02  0.9240989E-01
         -1   -1    0    0    0  501 -0.00000000000E+00  0.00000000000E+00  0.97923694471E+03  0.97923694472E+03  0.50400000000E-02 0.  1.
          1   -1    0    0  501    0  0.00000000000E+00 -0.00000000000E+00 -0.13944110078E+04  0.13944110078E+04  0.50400000000E-02 0. -1.
    8880022    1    1    2    0    0 -0.85433426639E+03  0.61551318127E+03  0.28301162628E+03  0.11010135098E+04  0.15294330000E+03 0.  0.
    8880022    1    1    2    0    0  0.85433426639E+03 -0.61551318127E+03 -0.69818568934E+03  0.12726344427E+04  0.15294330000E+03 0.  0.
<mgrwt>
<rscale>  0 0.10640184E+04</rscale>
<asrwt>0</asrwt>
<pdfrwt beam="1">  1        1 0.21452477E+00 0.10640184E+04</pdfrwt>
<pdfrwt beam="2">  1       -1 0.15065184E+00 0.10640184E+04</pdfrwt>
<totfact> 0.26640321E+00</totfact>
</mgrwt>
</event>
<event>
 4    1  0.2731969E-009  0.5336151E+03  0.7818608E-02  0.1005359E+00
         -1   -1    0    0    0  501 -0.00000000000E+00  0.00000000000E+00  0.42026476346E+03  0.42026476349E+03  0.50400000000E-02 0.  1.
          1   -1    0    0  501    0  0.00000000000E+00 -0.00000000000E+00 -0.17692714533E+04  0.17692714533E+04  0.50400000000E-02 0. -1.
    8880022    1    1    2    0    0  0.46128578734E+03  0.22038341799E+03 -0.15344734164E+04  0.16246087982E+04  0.15294330000E+03 0. -1.
    8880022    1    1    2    0    0 -0.46128578734E+03 -0.22038341799E+03  0.18546672662E+03  0.56492741855E+03  0.15294330000E+03 0.  0.
<mgrwt>
<rscale>  0 0.53361511E+03</rscale>
<asrwt>0</asrwt>
<pdfrwt beam="1">  1        1 0.27219561E+00 0.53361511E+03</pdfrwt>
<pdfrwt beam="2">  1       -1 0.64656118E-01 0.53361511E+03</pdfrwt>
<totfact> 0.11235800E+01</totfact>
</mgrwt>
</event>
<event>
 4    1  0.2731969E-009  0.1547640E+04  0.7818608E-02  0.8853377E-01
          1   -1    0    0  501    0  0.00000000000E+00  0.00000000000E+00  0.30014433197E+04  0.30014433198E+04  0.50400000000E-02 0. -1.
         -1   -1    0    0    0  501 -0.00000000000E+00 -0.00000000000E+00 -0.82557870488E+03  0.82557870489E+03  0.50400000000E-02 0.  1.
    8880022    1    1    2    0    0  0.20830853033E+03  0.15259109715E+04  0.14375895837E+04  0.21123096839E+04  0.15294330000E+03 0.  0.
    8880022    1    1    2    0    0 -0.20830853033E+03 -0.15259109715E+04  0.73827503116E+03  0.17147123407E+04  0.15294330000E+03 0.  0.
<mgrwt>
<rscale>  0 0.15476396E+04</rscale>
<asrwt>0</asrwt>
<pdfrwt beam="1">  1        1 0.46176051E+00 0.15476396E+04</pdfrwt>
<pdfrwt beam="2">  1       -1 0.12701211E+00 0.15476396E+04</pdfrwt>
<totfact> 0.30448175E-01</totfact>
</mgrwt>
</event>
<event>
 4    1  0.2731969E-009  0.3574619E+03  0.7818608E-02  0.1059593E+00
          1   -1    0    0  501    0  0.00000000000E+00  0.00000000000E+00  0.84471978428E+03  0.84471978429E+03  0.50400000000E-02 0. -1.
         -1   -1    0    0    0  501 -0.00000000000E+00 -0.00000000000E+00 -0.83935891239E+03  0.83935891240E+03  0.50400000000E-02 0.  1.
    8880022    1    1    2    0    0 -0.23537854467E+03  0.22132389059E+03 -0.75971709323E+03  0.83961243356E+03  0.15294330000E+03 0.  0.
    8880022    1    1    2    0    0  0.23537854467E+03 -0.22132389059E+03  0.76507796512E+03  0.84446626313E+03  0.15294330000E+03 0.  0.
<mgrwt>
<rscale>  0 0.35746185E+03</rscale>
<asrwt>0</asrwt>
<pdfrwt beam="1">  1        1 0.12995689E+00 0.35746185E+03</pdfrwt>
<pdfrwt beam="2">  1       -1 0.12913214E+00 0.35746185E+03</pdfrwt>
<totfact> 0.11595916E+01</totfact>
</mgrwt>
</event>
<event>
 4    1  0.2731969E-009  0.6503811E+03  0.7818608E-02  0.9806064E-01
          1   -1    0    0  501    0  0.00000000000E+00  0.00000000000E+00  0.57781331108E+03  0.57781331110E+03  0.50400000000E-02 0. -1.
         -1   -1    0    0    0  501 -0.00000000000E+00 -0.00000000000E+00 -0.93538788735E+03  0.93538788736E+03  0.50400000000E-02 0.  1.
    8880022    1    1    2    0    0 -0.56070621324E+03  0.29191163770E+03  0.17396229360E+03  0.67324467647E+03  0.15294330000E+03 0.  0.
    8880022    1    1    2    0    0  0.56070621324E+03 -0.29191163770E+03 -0.53153686987E+03  0.83995652199E+03  0.15294330000E+03 0.  0.
<mgrwt>
<rscale>  0 0.65038105E+03</rscale>
<asrwt>0</asrwt>
<pdfrwt beam="1">  1        1 0.88894355E-01 0.65038105E+03</pdfrwt>
<pdfrwt beam="2">  1       -1 0.14390583E+00 0.65038105E+03</pdfrwt>
<totfact> 0.14676357E+01</totfact>
</mgrwt>
</event>
<event>
 4    1  0.2731969E-009  0.1287355E+04  0.7818608E-02  0.9039654E-01
          1   -1    0    0  501    0  0.00000000000E+00  0.00000000000E+00  0.15738943076E+04  0.15738943076E+04  0.50400000000E-02 0. -1.
         -1   -1    0    0    0  501 -0.00000000000E+00 -0.00000000000E+00 -0.11581158715E+04  0.11581158715E+04  0.50400000000E-02 0.  1.
    8880022    1    1    2    0    0  0.12619649355E+04 -0.20330998210E+03  0.61946328401E+03  0.14286416137E+04  0.15294330000E+03 0.  0.
    8880022    1    1    2    0    0 -0.12619649355E+04  0.20330998210E+03 -0.20368484789E+03  0.13033685655E+04  0.15294330000E+03 0.  0.
<mgrwt>
<rscale>  0 0.12873547E+04</rscale>
<asrwt>0</asrwt>
<pdfrwt beam="1">  1        1 0.24213759E+00 0.12873547E+04</pdfrwt>
<pdfrwt beam="2">  1       -1 0.17817167E+00 0.12873547E+04</pdfrwt>
<totfact> 0.12103608E+00</totfact>
</mgrwt>
</event>
<event>
 4    1  0.2731969E-009  0.4402546E+03  0.7818608E-02  0.1030669E+00
         -1   -1    0    0    0  501 -0.00000000000E+00  0.00000000000E+00  0.41184549503E+03  0.41184549506E+03  0.50400000000E-02 0.  1.
          1   -1    0    0  501    0  0.00000000000E+00 -0.00000000000E+00 -0.20529471129E+04  0.20529471129E+04  0.50400000000E-02 0. -1.
    8880022    1    1    2    0    0  0.34348453870E+03 -0.22902138622E+03  0.26140417440E+03  0.51201193256E+03  0.15294330000E+03 0.  0.
    8880022    1    1    2    0    0 -0.34348453870E+03  0.22902138622E+03 -0.19025057923E+04  0.19527806755E+04  0.15294330000E+03 0.  0.
<mgrwt>
<rscale>  0 0.44025456E+03</rscale>
<asrwt>0</asrwt>
<pdfrwt beam="1">  1        1 0.31583801E+00 0.44025456E+03</pdfrwt>
<pdfrwt beam="2">  1       -1 0.63360847E-01 0.44025456E+03</pdfrwt>
<totfact> 0.77757127E+00</totfact>
</mgrwt>
</event>
<event>
 4    1  0.2731969E-009  0.5149289E+03  0.7818608E-02  0.1009954E+00
          1   -1    0    0  501    0  0.00000000000E+00  0.00000000000E+00  0.28724510490E+03  0.28724510494E+03  0.50400000000E-02 0. -1.
         -1   -1    0    0    0  501 -0.00000000000E+00 -0.00000000000E+00 -0.15397199237E+04  0.15397199237E+04  0.50400000000E-02 0.  1.
    8880022    1    1    2    0    0  0.18449931805E+03  0.45576327919E+03 -0.12043244371E+04  0.13097897418E+04  0.15294330000E+03 0.  0.
    8880022    1    1    2    0    0 -0.18449931805E+03 -0.45576327919E+03 -0.48150381710E+02  0.51717528682E+03  0.15294330000E+03 0.  0.
<mgrwt>
<rscale>  0 0.51492894E+03</rscale>
<asrwt>0</asrwt>
<pdfrwt beam="1">  1        1 0.44191555E-01 0.51492894E+03</pdfrwt>
<pdfrwt beam="2">  1       -1 0.23687998E+00 0.51492894E+03</pdfrwt>
<totfact> 0.84594836E+00</totfact>
</mgrwt>
</event>
<event>
 4    1  0.2731969E-009  0.6018925E+03  0.7818608E-02  0.9901487E-01
         -1   -1    0    0    0  501 -0.00000000000E+00  0.00000000000E+00  0.91579838094E+03  0.91579838096E+03  0.50400000000E-02 0.  1.
          1   -1    0    0  501    0  0.00000000000E+00 -0.00000000000E+00 -0.74979343356E+03  0.74979343357E+03  0.50400000000E-02 0. -1.
    8880022    1    1    2    0    0  0.57813002188E+03  0.68180809857E+02  0.65540062396E+03  0.88984525392E+03  0.15294330000E+03 0.  0.
    8880022    1    1    2    0    0 -0.57813002188E+03 -0.68180809857E+02 -0.48939567657E+03  0.77574656061E+03  0.15294330000E+03 0. -1.
<mgrwt>
<rscale>  0 0.60189251E+03</rscale>
<asrwt>0</asrwt>
<pdfrwt beam="1">  1        1 0.11535284E+00 0.60189251E+03</pdfrwt>
<pdfrwt beam="2">  1       -1 0.14089206E+00 0.60189251E+03</pdfrwt>
<totfact> 0.10638322E+01</totfact>
</mgrwt>
</event>
<event>
 4    1  0.2731969E-009  0.2705910E+03  0.7818608E-02  0.1100942E+00
         -1   -1    0    0    0  501 -0.00000000000E+00  0.00000000000E+00  0.44051020994E+03  0.44051020997E+03  0.50400000000E-02 0.  1.
          1   -1    0    0  501    0  0.00000000000E+00 -0.00000000000E+00 -0.29745733910E+04  0.29745733910E+04  0.50400000000E-02 0. -1.
    8880022    1    1    2    0    0  0.80615666696E+01 -0.22307584963E+03  0.39211688346E+03  0.47641906643E+03  0.15294330000E+03 0.  0.
    8880022    1    1    2    0    0 -0.80615666696E+01  0.22307584963E+03 -0.29261800646E+04  0.29386645346E+04  0.15294330000E+03 0.  0.
<mgrwt>
<rscale>  0 0.27059098E+03</rscale>
<asrwt>0</asrwt>
<pdfrwt beam="1">  1        1 0.45762666E+00 0.27059098E+03</pdfrwt>
<pdfrwt beam="2">  1       -1 0.67770803E-01 0.27059098E+03</pdfrwt>
<totfact> 0.17559209E+00</totfact>
</mgrwt>
</event>
<event>
 4    1  0.2731969E-009  0.7164083E+03  0.7818608E-02  0.9689576E-01
         -1   -1    0    0    0  501 -0.00000000000E+00  0.00000000000E+00  0.51215740892E+03  0.51215740895E+03  0.50400000000E-02 0.  1.
          1   -1    0    0  501    0  0.00000000000E+00 -0.00000000000E+00 -0.17006817844E+04  0.17006817844E+04  0.50400000000E-02 0. -1.
    8880022    1    1    2    0    0  0.68692391788E+03 -0.13410713853E+03  0.11484544290E+03  0.72555518214E+03  0.15294330000E+03 0.  0.
    8880022    1    1    2    0    0 -0.68692391788E+03  0.13410713853E+03 -0.13033698184E+04  0.14872840113E+04  0.15294330000E+03 0.  0.
<mgrwt>
<rscale>  0 0.71640830E+03</rscale>
<asrwt>0</asrwt>
<pdfrwt beam="1">  1        1 0.26164335E+00 0.71640830E+03</pdfrwt>
<pdfrwt beam="2">  1       -1 0.78793448E-01 0.71640830E+03</pdfrwt>
<totfact> 0.80403032E+00</totfact>
</mgrwt>
</event>
<event>
 4    1  0.2731969E-009  0.1131972E+04  0.7818608E-02  0.9174578E-01
          1   -1    0    0  501    0  0.00000000000E+00  0.00000000000E+00  0.14291028083E+04  0.14291028084E+04  0.50400000000E-02 0. -1.
         -1   -1    0    0    0  501 -0.00000000000E+00 -0.00000000000E+00 -0.12838975300E+04  0.12838975300E+04  0.50400000000E-02 0.  1.
    8880022    1    1    2    0    0 -0.78201876654E+03  0.80399930070E+03 -0.67241527421E+03  0.13166253001E+04  0.15294330000E+03 0.  0.
    8880022    1    1    2    0    0  0.78201876654E+03 -0.80399930070E+03  0.81762055253E+03  0.13963750383E+04  0.15294330000E+03 0.  0.
<mgrwt>
<rscale>  0 0.11319717E+04</rscale>
<asrwt>0</asrwt>
<pdfrwt beam="1">  1        1 0.21986197E+00 0.11319717E+04</pdfrwt>
<pdfrwt beam="2">  1       -1 0.19752270E+00 0.11319717E+04</pdfrwt>
<totfact> 0.11341528E+00</totfact>
</mgrwt>
</event>
<event>
 4    1  0.2731969E-009  0.8727892E+03  0.7818608E-02  0.9460250E-01
          1   -1    0    0  501    0  0.00000000000E+00  0.00000000000E+00  0.24535902679E+04  0.24535902679E+04  0.50400000000E-02 0. -1.
         -1   -1    0    0    0  501 -0.00000000000E+00 -0.00000000000E+00 -0.19439625690E+04  0.19439625691E+04  0.50400000000E-02 0.  1.
    8880022    1    1    2    0    0 -0.85836589841E+03 -0.39714942932E+02  0.22703750336E+04  0.24323576502E+04  0.15294330000E+03 0.  0.
    8880022    1    1    2    0    0  0.85836589841E+03  0.39714942932E+02 -0.17607473347E+04  0.19651951868E+04  0.15294330000E+03 0.  0.
<mgrwt>
<rscale>  0 0.87278918E+03</rscale>
<asrwt>0</asrwt>
<pdfrwt beam="1">  1        1 0.37747543E+00 0.87278918E+03</pdfrwt>
<pdfrwt beam="2">  1       -1 0.29907116E+00 0.87278918E+03</pdfrwt>
<totfact> 0.51806506E-02</totfact>
</mgrwt>
</event>
<event>
 4    1  0.2731969E-009  0.1050213E+04  0.7818608E-02  0.9255124E-01
          1   -1    0    0  501    0  0.00000000000E+00  0.00000000000E+00  0.22311275802E+04  0.22311275802E+04  0.50400000000E-02 0. -1.
         -1   -1    0    0    0  501 -0.00000000000E+00 -0.00000000000E+00 -0.99506565704E+03  0.99506565705E+03  0.50400000000E-02 0.  1.
    8880022    1    1    2    0    0 -0.10384044878E+04 -0.35676714919E+02 -0.52624811203E+03  0.11746852501E+04  0.15294330000E+03 0.  0.
    8880022    1    1    2    0    0  0.10384044878E+04  0.35676714919E+02  0.17623100352E+04  0.20515079872E+04  0.15294330000E+03 0.  0.
<mgrwt>
<rscale>  0 0.10502135E+04</rscale>
<asrwt>0</asrwt>
<pdfrwt beam="1">  1        1 0.34325039E+00 0.10502135E+04</pdfrwt>
<pdfrwt beam="2">  1       -1 0.15308703E+00 0.10502135E+04</pdfrwt>
<totfact> 0.68903108E-01</totfact>
</mgrwt>
</event>
<event>
 4    1  0.2731969E-009  0.3036770E+03  0.7818608E-02  0.1083417E+00
          1   -1    0    0  501    0  0.00000000000E+00  0.00000000000E+00  0.11263944796E+04  0.11263944796E+04  0.50400000000E-02 0. -1.
         -1   -1    0    0    0  501 -0.00000000000E+00 -0.00000000000E+00 -0.14984578187E+03  0.14984578196E+03  0.50400000000E-02 0.  1.
    8880022    1    1    2    0    0  0.24947202329E+03  0.81189728396E+02  0.58488425337E+02  0.30925816289E+03  0.15294330000E+03 0.  0.
    8880022    1    1    2    0    0 -0.24947202329E+03 -0.81189728396E+02  0.91806027239E+03  0.96698209867E+03  0.15294330000E+03 0.  0.
<mgrwt>
<rscale>  0 0.30367699E+03</rscale>
<asrwt>0</asrwt>
<pdfrwt beam="1">  1        1 0.17329146E+00 0.30367699E+03</pdfrwt>
<pdfrwt beam="2">  1       -1 0.23053197E-01 0.30367699E+03</pdfrwt>
<totfact> 0.20660393E+02</totfact>
</mgrwt>
</event>
<event>
 4    1  0.2731969E-009  0.1620696E+04  0.7818608E-02  0.8807933E-01
         -1   -1    0    0    0  501 -0.00000000000E+00  0.00000000000E+00  0.80898415217E+03  0.80898415219E+03  0.50400000000E-02 0.  1.
          1   -1    0    0  501    0  0.00000000000E+00 -0.00000000000E+00 -0.40970292066E+04  0.40970292066E+04  0.50400000000E-02 0. -1.
    8880022    1    1    2    0    0 -0.12246632316E+04  0.10504592216E+04 -0.27614453188E+04  0.32019113837E+04  0.15294330000E+03 0.  0.
    8880022    1    1    2    0    0  0.12246632316E+04 -0.10504592216E+04 -0.52659973563E+03  0.17041019751E+04  0.15294330000E+03 0.  0.
<mgrwt>
<rscale>  0 0.16206962E+04</rscale>
<asrwt>0</asrwt>
<pdfrwt beam="1">  1        1 0.63031217E+00 0.16206962E+04</pdfrwt>
<pdfrwt beam="2">  1       -1 0.12445910E+00 0.16206962E+04</pdfrwt>
<totfact> 0.42304386E-02</totfact>
</mgrwt>
</event>
<event>
 4    1  0.2731969E-009  0.1028350E+04  0.7818608E-02  0.9277986E-01
         -1   -1    0    0    0  501 -0.00000000000E+00  0.00000000000E+00  0.12846565124E+04  0.12846565124E+04  0.50400000000E-02 0.  1.
          1   -1    0    0  501    0  0.00000000000E+00 -0.00000000000E+00 -0.13000246876E+04  0.13000246877E+04  0.50400000000E-02 0. -1.
    8880022    1    1    2    0    0 -0.98241259525E+03  0.26263453066E+03 -0.79037418075E+03  0.12969943726E+04  0.15294330000E+03 0.  0.
    8880022    1    1    2    0    0  0.98241259525E+03 -0.26263453066E+03  0.77500600552E+03  0.12876868275E+04  0.15294330000E+03 0.  0.
<mgrwt>
<rscale>  0 0.10283497E+04</rscale>
<asrwt>0</asrwt>
<pdfrwt beam="1">  1        1 0.20000380E+00 0.10283497E+04</pdfrwt>
<pdfrwt beam="2">  1       -1 0.19763946E+00 0.10283497E+04</pdfrwt>
<totfact> 0.14157018E+00</totfact>
</mgrwt>
</event>
<event>
 4    1  0.2731969E-009  0.1345353E+04  0.7818608E-02  0.8994353E-01
         -1   -1    0    0    0  501 -0.00000000000E+00  0.00000000000E+00  0.30833003601E+04  0.30833003601E+04  0.50400000000E-02 0.  1.
          1   -1    0    0  501    0  0.00000000000E+00 -0.00000000000E+00 -0.80587539788E+03  0.80587539789E+03  0.50400000000E-02 0. -1.
    8880022    1    1    2    0    0 -0.82281349720E+03 -0.10533572895E+04  0.12534489299E+03  0.13511797163E+04  0.15294330000E+03 0.  0.
    8880022    1    1    2    0    0  0.82281349720E+03  0.10533572895E+04  0.21520800693E+04  0.25379960418E+04  0.15294330000E+03 0.  0.
<mgrwt>
<rscale>  0 0.13453532E+04</rscale>
<asrwt>0</asrwt>
<pdfrwt beam="1">  1        1 0.12398083E+00 0.13453532E+04</pdfrwt>
<pdfrwt beam="2">  1       -1 0.47435390E+00 0.13453532E+04</pdfrwt>
<totfact> 0.46761446E-02</totfact>
</mgrwt>
</event>
<event>
 4    1  0.2731969E-009  0.6564906E+03  0.7818608E-02  0.9794676E-01
          1   -1    0    0  501    0  0.00000000000E+00  0.00000000000E+00  0.43970148807E+04  0.43970148807E+04  0.50400000000E-02 0. -1.
         -1   -1    0    0    0  501 -0.00000000000E+00 -0.00000000000E+00 -0.74216685274E+03  0.74216685275E+03  0.50400000000E-02 0.  1.
    8880022    1    1    2    0    0 -0.57210249462E+03  0.28334970645E+03  0.42213285649E+04  0.42720714912E+04  0.15294330000E+03 0.  0.
    8880022    1    1    2    0    0  0.57210249462E+03 -0.28334970645E+03 -0.56648053690E+03  0.86711024224E+03  0.15294330000E+03 0.  0.
<mgrwt>
<rscale>  0 0.65649065E+03</rscale>
<asrwt>0</asrwt>
<pdfrwt beam="1">  1        1 0.67646382E+00 0.65649065E+03</pdfrwt>
<pdfrwt beam="2">  1       -1 0.11417952E+00 0.65649065E+03</pdfrwt>
<totfact> 0.33745997E-02</totfact>
</mgrwt>
</event>
<event>
 4    1  0.2731969E-009  0.1418654E+04  0.7818608E-02  0.8940425E-01
         -1   -1    0    0    0  501 -0.00000000000E+00  0.00000000000E+00  0.10631274644E+04  0.10631274644E+04  0.50400000000E-02 0.  1.
          1   -1    0    0  501    0  0.00000000000E+00 -0.00000000000E+00 -0.26957782941E+04  0.26957782941E+04  0.50400000000E-02 0. -1.
    8880022    1    1    2    0    0  0.42552858287E+03  0.13446609742E+04 -0.18418995195E+04  0.23249028374E+04  0.15294330000E+03 0.  0.
    8880022    1    1    2    0    0 -0.42552858287E+03 -0.13446609742E+04  0.20924868989E+03  0.14340029211E+04  0.15294330000E+03 0.  0.
<mgrwt>
<rscale>  0 0.14186541E+04</rscale>
<asrwt>0</asrwt>
<pdfrwt beam="1">  1        1 0.41473512E+00 0.14186541E+04</pdfrwt>
<pdfrwt beam="2">  1       -1 0.16355807E+00 0.14186541E+04</pdfrwt>
<totfact> 0.26027474E-01</totfact>
</mgrwt>
</event>
<event>
 4    1  0.2731969E-009  0.8603446E+03  0.7818608E-02  0.9476557E-01
         -1   -1    0    0    0  501 -0.00000000000E+00  0.00000000000E+00  0.11713941929E+04  0.11713941929E+04  0.50400000000E-02 0.  1.
          1   -1    0    0  501    0  0.00000000000E+00 -0.00000000000E+00 -0.90053701935E+03  0.90053701936E+03  0.50400000000E-02 0. -1.
    8880022    1    1    2    0    0  0.40621365644E+03 -0.74282678382E+03 -0.43040039879E+03  0.96199652896E+03  0.15294330000E+03 0.  0.
    8880022    1    1    2    0    0 -0.40621365644E+03  0.74282678382E+03  0.70125757235E+03  0.11099346833E+04  0.15294330000E+03 0.  0.
<mgrwt>
<rscale>  0 0.86034459E+03</rscale>
<asrwt>0</asrwt>
<pdfrwt beam="1">  1        1 0.13854416E+00 0.86034459E+03</pdfrwt>
<pdfrwt beam="2">  1       -1 0.18021449E+00 0.86034459E+03</pdfrwt>
<totfact> 0.38492709E+00</totfact>
</mgrwt>
</event>
<event>
 4    1  0.2731969E-009  0.2780397E+04  0.7818608E-02  0.8309380E-01
          1   -1    0    0  501    0  0.00000000000E+00  0.00000000000E+00  0.33528885343E+04  0.33528885343E+04  0.50400000000E-02 0. -1.
         -1   -1    0    0    0  501 -0.00000000000E+00 -0.00000000000E+00 -0.24882874890E+04  0.24882874890E+04  0.50400000000E-02 0.  1.
    8880022    1    1    2    0    0  0.24747758792E+04 -0.12580549163E+04 -0.35893754263E+03  0.28034702847E+04  0.15294330000E+03 0.  0.
    8880022    1    1    2    0    0 -0.24747758792E+04  0.12580549163E+04  0.12235385879E+04  0.30377057386E+04  0.15294330000E+03 0.  0.
<mgrwt>
<rscale>  0 0.27803974E+04</rscale>
<asrwt>0</asrwt>
<pdfrwt beam="1">  1        1 0.51582900E+00 0.27803974E+04</pdfrwt>
<pdfrwt beam="2">  1       -1 0.38281346E+00 0.27803974E+04</pdfrwt>
<totfact> 0.24698570E-03</totfact>
</mgrwt>
</event>
<event>
 4    1  0.2731969E-009  0.2765620E+03  0.7818608E-02  0.1097582E+00
          1   -1    0    0  501    0  0.00000000000E+00  0.00000000000E+00  0.19780447737E+03  0.19780447744E+03  0.50400000000E-02 0. -1.
         -1   -1    0    0    0  501 -0.00000000000E+00 -0.00000000000E+00 -0.24887197865E+04  0.24887197865E+04  0.50400000000E-02 0.  1.
    8880022    1    1    2    0    0 -0.16679324633E+03 -0.15898077497E+03  0.89049191992E+02  0.29054480797E+03  0.15294330000E+03 0.  0.
    8880022    1    1    2    0    0  0.16679324633E+03  0.15898077497E+03 -0.23799645011E+04  0.23959794560E+04  0.15294330000E+03 0.  0.
<mgrwt>
<rscale>  0 0.27656198E+03</rscale>
<asrwt>0</asrwt>
<pdfrwt beam="1">  1        1 0.30431460E-01 0.27656198E+03</pdfrwt>
<pdfrwt beam="2">  1       -1 0.38287995E+00 0.27656198E+03</pdfrwt>
<totfact> 0.17062565E+00</totfact>
</mgrwt>
</event>
<event>
 4    1  0.2731969E-009  0.7801265E+03  0.7818608E-02  0.9589237E-01
         -1   -1    0    0    0  501 -0.00000000000E+00  0.00000000000E+00  0.35367126831E+03  0.35367126835E+03  0.50400000000E-02 0.  1.
          1   -1    0    0  501    0  0.00000000000E+00 -0.00000000000E+00 -0.22360916485E+04  0.22360916485E+04  0.50400000000E-02 0. -1.
    8880022    1    1    2    0    0 -0.60839626618E+03 -0.46374534363E+03 -0.15628114550E+04  0.17467046279E+04  0.15294330000E+03 0.  0.
    8880022    1    1    2    0    0  0.60839626618E+03  0.46374534363E+03 -0.31960892524E+03  0.84305828894E+03  0.15294330000E+03 0.  0.
<mgrwt>
<rscale>  0 0.78012654E+03</rscale>
<asrwt>0</asrwt>
<pdfrwt beam="1">  1        1 0.34401409E+00 0.78012654E+03</pdfrwt>
<pdfrwt beam="2">  1       -1 0.54410966E-01 0.78012654E+03</pdfrwt>
<totfact> 0.73484070E+00</totfact>
</mgrwt>
</event>
<event>
 4    1  0.2731969E-009  0.6323637E+03  0.7818608E-02  0.9840447E-01
         -1   -1    0    0    0  501 -0.00000000000E+00  0.00000000000E+00  0.10447183279E+04  0.10447183279E+04  0.50400000000E-02 0.  1.
          1   -1    0    0  501    0  0.00000000000E+00 -0.00000000000E+00 -0.83977188683E+03  0.83977188684E+03  0.50400000000E-02 0. -1.
    8880022    1    1    2    0    0 -0.43885957901E+03  0.42882924550E+03  0.79756724372E+03  0.10178395812E+04  0.15294330000E+03 0.  0.
    8880022    1    1    2    0    0  0.43885957901E+03 -0.42882924550E+03 -0.59262080263E+03  0.86665063353E+03  0.15294330000E+03 0.  0.
<mgrwt>
<rscale>  0 0.63236374E+03</rscale>
<asrwt>0</asrwt>
<pdfrwt beam="1">  1        1 0.12919567E+00 0.63236374E+03</pdfrwt>
<pdfrwt beam="2">  1       -1 0.16072590E+00 0.63236374E+03</pdfrwt>
<totfact> 0.62150241E+00</totfact>
</mgrwt>
</event>
<event>
 4    1  0.2731969E-009  0.1047074E+04  0.7818608E-02  0.9258370E-01
         -1   -1    0    0    0  501 -0.00000000000E+00  0.00000000000E+00  0.15022201403E+04  0.15022201403E+04  0.50400000000E-02 0.  1.
          1   -1    0    0  501    0  0.00000000000E+00 -0.00000000000E+00 -0.11583644968E+04  0.11583644968E+04  0.50400000000E-02 0. -1.
    8880022    1    1    2    0    0  0.10299480359E+04 -0.11036360933E+03  0.98105643059E+03  0.14348646124E+04  0.15294330000E+03 0.  0.
    8880022    1    1    2    0    0 -0.10299480359E+04  0.11036360933E+03 -0.63720078710E+03  0.12257200247E+04  0.15294330000E+03 0.  0.
<mgrwt>
<rscale>  0 0.10470744E+04</rscale>
<asrwt>0</asrwt>
<pdfrwt beam="1">  1        1 0.17820992E+00 0.10470744E+04</pdfrwt>
<pdfrwt beam="2">  1       -1 0.23111079E+00 0.10470744E+04</pdfrwt>
<totfact> 0.10645227E+00</totfact>
</mgrwt>
</event>
<event>
 4    1  0.2731969E-009  0.9178591E+03  0.7818608E-02  0.9403528E-01
         -1   -1    0    0    0  501 -0.00000000000E+00  0.00000000000E+00  0.52347582290E+03  0.52347582292E+03  0.50400000000E-02 0.  1.
          1   -1    0    0  501    0  0.00000000000E+00 -0.00000000000E+00 -0.20797866893E+04  0.20797866893E+04  0.50400000000E-02 0. -1.
    8880022    1    1    2    0    0 -0.43112260761E+03 -0.79574300271E+03 -0.15911243392E+03  0.93154819994E+03  0.15294330000E+03 0.  0.
    8880022    1    1    2    0    0  0.43112260761E+03  0.79574300271E+03 -0.13971984325E+04  0.16717143123E+04  0.15294330000E+03 0.  1.
<mgrwt>
<rscale>  0 0.91785908E+03</rscale>
<asrwt>0</asrwt>
<pdfrwt beam="1">  1        1 0.31996718E+00 0.91785908E+03</pdfrwt>
<pdfrwt beam="2">  1       -1 0.80534743E-01 0.91785908E+03</pdfrwt>
<totfact> 0.41423802E+00</totfact>
</mgrwt>
</event>
<event>
 4    1  0.2731969E-009  0.1617625E+04  0.7818608E-02  0.8809793E-01
          1   -1    0    0  501    0  0.00000000000E+00  0.00000000000E+00  0.21818956322E+04  0.21818956322E+04  0.50400000000E-02 0. -1.
         -1   -1    0    0    0  501 -0.00000000000E+00 -0.00000000000E+00 -0.15267167195E+04  0.15267167195E+04  0.50400000000E-02 0.  1.
    8880022    1    1    2    0    0  0.15284577073E+04  0.50708683105E+03  0.11863330501E+04  0.20060153977E+04  0.15294330000E+03 0.  0.
    8880022    1    1    2    0    0 -0.15284577073E+04 -0.50708683105E+03 -0.53115413738E+03  0.17025969540E+04  0.15294330000E+03 0.  0.
<mgrwt>
<rscale>  0 0.16176253E+04</rscale>
<asrwt>0</asrwt>
<pdfrwt beam="1">  1        1 0.33567625E+00 0.16176253E+04</pdfrwt>
<pdfrwt beam="2">  1       -1 0.23487950E+00 0.16176253E+04</pdfrwt>
<totfact> 0.18278964E-01</totfact>
</mgrwt>
</event>
<event>
 4    1  0.2731969E-009  0.1002152E+04  0.7818608E-02  0.9306188E-01
          1   -1    0    0  501    0  0.00000000000E+00  0.00000000000E+00  0.11306623724E+04  0.11306623724E+04  0.50400000000E-02 0. -1.
         -1   -1    0    0    0  501 -0.00000000000E+00 -0.00000000000E+00 -0.21880286510E+04  0.21880286510E+04  0.50400000000E-02 0.  1.
    8880022    1    1    2    0    0 -0.48386219412E+03 -0.86417277421E+03 -0.18076088458E+04  0.20668233110E+04  0.15294330000E+03 0.  0.
    8880022    1    1    2    0    0  0.48386219412E+03  0.86417277421E+03  0.75024256723E+03  0.12518677124E+04  0.15294330000E+03 0.  0.
<mgrwt>
<rscale>  0 0.10021521E+04</rscale>
<asrwt>0</asrwt>
<pdfrwt beam="1">  1        1 0.17394806E+00 0.10021521E+04</pdfrwt>
<pdfrwt beam="2">  1       -1 0.33661979E+00 0.10021521E+04</pdfrwt>
<totfact> 0.23336998E-01</totfact>
</mgrwt>
</event>
<event>
 4    1  0.2731969E-009  0.7461084E+03  0.7818608E-02  0.9641476E-01
          1   -1    0    0  501    0  0.00000000000E+00  0.00000000000E+00  0.40321493164E+04  0.40321493164E+04  0.50400000000E-02 0. -1.
         -1   -1    0    0    0  501 -0.00000000000E+00 -0.00000000000E+00 -0.42496490073E+03  0.42496490076E+03  0.50400000000E-02 0.  1.
    8880022    1    1    2    0    0 -0.26535594660E+03 -0.68034717440E+03 -0.27525974957E+02  0.74661595779E+03  0.15294330000E+03 0.  0.
    8880022    1    1    2    0    0  0.26535594660E+03  0.68034717440E+03  0.36347103907E+04  0.37104982594E+04  0.15294330000E+03 0.  0.
<mgrwt>
<rscale>  0 0.74610838E+03</rscale>
<asrwt>0</asrwt>
<pdfrwt beam="1">  1        1 0.62033066E+00 0.74610838E+03</pdfrwt>
<pdfrwt beam="2">  1       -1 0.65379216E-01 0.74610838E+03</pdfrwt>
<totfact> 0.23841083E-01</totfact>
</mgrwt>
</event>
<event>
 4    1  0.2731969E-009  0.5246567E+03  0.7818608E-02  0.1007536E+00
         -1   -1    0    0    0  501 -0.00000000000E+00  0.00000000000E+00  0.63969504627E+03  0.63969504629E+03  0.50400000000E-02 0.  1.
          1   -1    0    0  501    0  0.00000000000E+00 -0.00000000000E+00 -0.11410653320E+04  0.11410653320E+04  0.50400000000E-02 0. -1.
    8880022    1    1    2    0    0 -0.49599626563E+03  0.76555251042E+02  0.45203353982E+03  0.69253084849E+03  0.15294330000E+03 0.  0.
    8880022    1    1    2    0    0  0.49599626563E+03 -0.76555251042E+02 -0.95340382555E+03  0.10882295298E+04  0.15294330000E+03 0.  0.
<mgrwt>
<rscale>  0 0.52465670E+03</rscale>
<asrwt>0</asrwt>
<pdfrwt beam="1">  1        1 0.17554851E+00 0.52465670E+03</pdfrwt>
<pdfrwt beam="2">  1       -1 0.98414622E-01 0.52465670E+03</pdfrwt>
<totfact> 0.12516721E+01</totfact>
</mgrwt>
</event>
<event>
 4    1  0.2731969E-009  0.6837117E+03  0.7818608E-02  0.9745500E-01
          1   -1    0    0  501    0  0.00000000000E+00  0.00000000000E+00  0.11688959013E+04  0.11688959013E+04  0.50400000000E-02 0. -1.
         -1   -1    0    0    0  501 -0.00000000000E+00 -0.00000000000E+00 -0.15573836065E+04  0.15573836065E+04  0.50400000000E-02 0.  1.
    8880022    1    1    2    0    0  0.42589778012E+02 -0.66502345844E+03  0.98091548288E+03  0.11956826197E+04  0.15294330000E+03 0.  0.
    8880022    1    1    2    0    0 -0.42589778012E+02  0.66502345844E+03 -0.13694031881E+04  0.15305968881E+04  0.15294330000E+03 0.  0.
<mgrwt>
<rscale>  0 0.68371174E+03</rscale>
<asrwt>0</asrwt>
<pdfrwt beam="1">  1        1 0.17983014E+00 0.68371174E+03</pdfrwt>
<pdfrwt beam="2">  1       -1 0.23959748E+00 0.68371174E+03</pdfrwt>
<totfact> 0.98087010E-01</totfact>
</mgrwt>
</event>
<event>
 4    1  0.2731969E-009  0.1274167E+04  0.7818608E-02  0.9050306E-01
         -1   -1    0    0    0  501 -0.00000000000E+00  0.00000000000E+00  0.20972177131E+04  0.20972177131E+04  0.50400000000E-02 0.  1.
          1   -1    0    0  501    0  0.00000000000E+00 -0.00000000000E+00 -0.19654590146E+04  0.19654590146E+04  0.50400000000E-02 0. -1.
    8880022    1    1    2    0    0  0.26358071272E+03  0.12371880100E+04  0.16473740637E+04  0.20826286090E+04  0.15294330000E+03 0.  0.
    8880022    1    1    2    0    0 -0.26358071272E+03 -0.12371880100E+04 -0.15156153652E+04  0.19800481187E+04  0.15294330000E+03 0.  0.
<mgrwt>
<rscale>  0 0.12741666E+04</rscale>
<asrwt>0</asrwt>
<pdfrwt beam="1">  1        1 0.30237831E+00 0.12741666E+04</pdfrwt>
<pdfrwt beam="2">  1       -1 0.32264888E+00 0.12741666E+04</pdfrwt>
<totfact> 0.72150147E-02</totfact>
</mgrwt>
</event>
<event>
 4    1  0.2731969E-009  0.4278387E+03  0.7818608E-02  0.1034545E+00
          1   -1    0    0  501    0  0.00000000000E+00  0.00000000000E+00  0.43553710305E+03  0.43553710308E+03  0.50400000000E-02 0. -1.
         -1   -1    0    0    0  501 -0.00000000000E+00 -0.00000000000E+00 -0.53626397381E+03  0.53626397383E+03  0.50400000000E-02 0.  1.
    8880022    1    1    2    0    0 -0.29090940347E+03  0.27390881395E+03 -0.27634019291E+03  0.50932295709E+03  0.15294330000E+03 0.  0.
    8880022    1    1    2    0    0  0.29090940347E+03 -0.27390881395E+03  0.17561332215E+03  0.46247811983E+03  0.15294330000E+03 0.  0.
<mgrwt>
<rscale>  0 0.42783872E+03</rscale>
<asrwt>0</asrwt>
<pdfrwt beam="1">  1        1 0.67005708E-01 0.42783872E+03</pdfrwt>
<pdfrwt beam="2">  1       -1 0.82502150E-01 0.42783872E+03</pdfrwt>
<totfact> 0.81997836E+01</totfact>
</mgrwt>
</event>
<event>
 4    1  0.2731969E-009  0.1711792E+04  0.7818608E-02  0.8754667E-01
          1   -1    0    0  501    0  0.00000000000E+00  0.00000000000E+00  0.25351090359E+04  0.25351090359E+04  0.50400000000E-02 0. -1.
         -1   -1    0    0    0  501 -0.00000000000E+00 -0.00000000000E+00 -0.14399757029E+04  0.14399757029E+04  0.50400000000E-02 0.  1.
    8880022    1    1    2    0    0  0.14704964151E+04  0.86283370502E+03  0.14304143042E+04  0.22307663356E+04  0.15294330000E+03 0.  0.
    8880022    1    1    2    0    0 -0.14704964151E+04 -0.86283370502E+03 -0.33528097118E+03  0.17443184032E+04  0.15294330000E+03 0.  0.
<mgrwt>
<rscale>  0 0.17117924E+04</rscale>
<asrwt>0</asrwt>
<pdfrwt beam="1">  1        1 0.39001677E+00 0.17117924E+04</pdfrwt>
<pdfrwt beam="2">  1       -1 0.22153473E+00 0.17117924E+04</pdfrwt>
<totfact> 0.12677287E-01</totfact>
</mgrwt>
</event>
<event>
 4    1  0.2731969E-009  0.7546731E+03  0.7818608E-02  0.9628047E-01
         -1   -1    0    0    0  501 -0.00000000000E+00  0.00000000000E+00  0.24043563564E+04  0.24043563564E+04  0.50400000000E-02 0.  1.
          1   -1    0    0  501    0  0.00000000000E+00 -0.00000000000E+00 -0.99889194832E+03  0.99889194834E+03  0.50400000000E-02 0. -1.
    8880022    1    1    2    0    0  0.30014870232E+03  0.67531517808E+03 -0.78350028514E+03  0.10878438229E+04  0.15294330000E+03 0.  0.
    8880022    1    1    2    0    0 -0.30014870232E+03 -0.67531517808E+03  0.21889646932E+04  0.23154044818E+04  0.15294330000E+03 0.  0.
<mgrwt>
<rscale>  0 0.75467310E+03</rscale>
<asrwt>0</asrwt>
<pdfrwt beam="1">  1        1 0.15367569E+00 0.75467310E+03</pdfrwt>
<pdfrwt beam="2">  1       -1 0.36990097E+00 0.75467310E+03</pdfrwt>
<totfact> 0.18671921E-01</totfact>
</mgrwt>
</event>
<event>
 4    1  0.2731969E-009  0.7878866E+03  0.7818608E-02  0.9577718E-01
          1   -1    0    0  501    0  0.00000000000E+00  0.00000000000E+00  0.90159413680E+03  0.90159413681E+03  0.50400000000E-02 0. -1.
         -1   -1    0    0    0  501 -0.00000000000E+00 -0.00000000000E+00 -0.10971487006E+04  0.10971487006E+04  0.50400000000E-02 0.  1.
    8880022    1    1    2    0    0 -0.29477139083E+03  0.71448130938E+03 -0.70767743979E+03  0.10590433070E+04  0.15294330000E+03 0.  0.
    8880022    1    1    2    0    0  0.29477139083E+03 -0.71448130938E+03  0.51212287600E+03  0.93969953041E+03  0.15294330000E+03 0. -1.
<mgrwt>
<rscale>  0 0.78788665E+03</rscale>
<asrwt>0</asrwt>
<pdfrwt beam="1">  1        1 0.13870679E+00 0.78788665E+03</pdfrwt>
<pdfrwt beam="2">  1       -1 0.16879211E+00 0.78788665E+03</pdfrwt>
<totfact> 0.46961625E+00</totfact>
</mgrwt>
</event>
<event>
 4    1  0.2731969E-009  0.8391896E+03  0.7818608E-02  0.9504962E-01
          1   -1    0    0  501    0  0.00000000000E+00  0.00000000000E+00  0.31199897048E+04  0.31199897048E+04  0.50400000000E-02 0. -1.
         -1   -1    0    0    0  501 -0.00000000000E+00 -0.00000000000E+00 -0.38968072860E+03  0.38968072863E+03  0.50400000000E-02 0.  1.
    8880022    1    1    2    0    0 -0.12126922155E+02 -0.82504578476E+03  0.22686207730E+03  0.86931332920E+03  0.15294330000E+03 0.  1.
    8880022    1    1    2    0    0  0.12126922155E+02  0.82504578476E+03  0.25034468989E+04  0.26403571042E+04  0.15294330000E+03 0.  0.
<mgrwt>
<rscale>  0 0.83918965E+03</rscale>
<asrwt>0</asrwt>
<pdfrwt beam="1">  1        1 0.47999841E+00 0.83918965E+03</pdfrwt>
<pdfrwt beam="2">  1       -1 0.59950882E-01 0.83918965E+03</pdfrwt>
<totfact> 0.14584177E+00</totfact>
</mgrwt>
</event>
<event>
 4    1  0.2731969E-009  0.5834265E+03  0.7818608E-02  0.9940400E-01
          1   -1    0    0  501    0  0.00000000000E+00  0.00000000000E+00  0.23933622505E+04  0.23933622505E+04  0.50400000000E-02 0. -1.
         -1   -1    0    0    0  501 -0.00000000000E+00 -0.00000000000E+00 -0.22206179081E+03  0.22206179086E+03  0.50400000000E-02 0.  1.
    8880022    1    1    2    0    0  0.36463554658E+03  0.42899393498E+03  0.18697790780E+04  0.19586884213E+04  0.15294330000E+03 0. -1.
    8880022    1    1    2    0    0 -0.36463554658E+03 -0.42899393498E+03  0.30152138170E+03  0.65673562010E+03  0.15294330000E+03 0.  1.
<mgrwt>
<rscale>  0 0.58342654E+03</rscale>
<asrwt>0</asrwt>
<pdfrwt beam="1">  1        1 0.36820958E+00 0.58342654E+03</pdfrwt>
<pdfrwt beam="2">  1       -1 0.34163353E-01 0.58342654E+03</pdfrwt>
<totfact> 0.14057922E+01</totfact>
</mgrwt>
</event>
<event>
 4    1  0.2731969E-009  0.5742640E+03  0.7818608E-02  0.9960287E-01
          1   -1    0    0  501    0  0.00000000000E+00  0.00000000000E+00  0.22129768284E+04  0.22129768284E+04  0.50400000000E-02 0. -1.
         -1   -1    0    0    0  501 -0.00000000000E+00 -0.00000000000E+00 -0.20301040716E+03  0.20301040722E+03  0.50400000000E-02 0.  1.
    8880022    1    1    2    0    0  0.44040581174E+03 -0.33530606362E+03  0.16279450747E+04  0.17262630897E+04  0.15294330000E+03 0.  0.
    8880022    1    1    2    0    0 -0.44040581174E+03  0.33530606362E+03  0.38202134645E+03  0.68972414593E+03  0.15294330000E+03 0.  0.
<mgrwt>
<rscale>  0 0.57426395E+03</rscale>
<asrwt>0</asrwt>
<pdfrwt beam="1">  1        1 0.34045795E+00 0.57426395E+03</pdfrwt>
<pdfrwt beam="2">  1       -1 0.31232372E-01 0.57426395E+03</pdfrwt>
<totfact> 0.21775783E+01</totfact>
</mgrwt>
</event>
<event>
 4    1  0.2731969E-009  0.1001327E+04  0.7818608E-02  0.9307090E-01
         -1   -1    0    0    0  501 -0.00000000000E+00  0.00000000000E+00  0.92531694853E+03  0.92531694855E+03  0.50400000000E-02 0.  1.
          1   -1    0    0  501    0  0.00000000000E+00 -0.00000000000E+00 -0.15917594243E+04  0.15917594243E+04  0.50400000000E-02 0. -1.
    8880022    1    1    2    0    0  0.66640565244E+03  0.73155208443E+03 -0.10443290576E+04  0.14468171203E+04  0.15294330000E+03 0.  0.
    8880022    1    1    2    0    0 -0.66640565244E+03 -0.73155208443E+03  0.37788658192E+03  0.10702592525E+04  0.15294330000E+03 0.  0.
<mgrwt>
<rscale>  0 0.10013274E+04</rscale>
<asrwt>0</asrwt>
<pdfrwt beam="1">  1        1 0.24488607E+00 0.10013274E+04</pdfrwt>
<pdfrwt beam="2">  1       -1 0.14235645E+00 0.10013274E+04</pdfrwt>
<totfact> 0.22818266E+00</totfact>
</mgrwt>
</event>
<event>
 4    1  0.2731969E-009  0.5935265E+03  0.7818608E-02  0.9918928E-01
          1   -1    0    0  501    0  0.00000000000E+00  0.00000000000E+00  0.70244051908E+03  0.70244051909E+03  0.50400000000E-02 0. -1.
         -1   -1    0    0    0  501 -0.00000000000E+00 -0.00000000000E+00 -0.10612541619E+04  0.10612541619E+04  0.50400000000E-02 0.  1.
    8880022    1    1    2    0    0  0.43136222881E+03 -0.37790043094E+03 -0.81985273637E+03  0.10121424161E+04  0.15294330000E+03 0.  0.
    8880022    1    1    2    0    0 -0.43136222881E+03  0.37790043094E+03  0.46103909351E+03  0.75155226492E+03  0.15294330000E+03 0.  0.
<mgrwt>
<rscale>  0 0.59352655E+03</rscale>
<asrwt>0</asrwt>
<pdfrwt beam="1">  1        1 0.10806777E+00 0.59352655E+03</pdfrwt>
<pdfrwt beam="2">  1       -1 0.16326987E+00 0.59352655E+03</pdfrwt>
<totfact> 0.79138864E+00</totfact>
</mgrwt>
</event>
<event>
 4    1  0.2731969E-009  0.1666512E+04  0.7818608E-02  0.8780697E-01
         -1   -1    0    0    0  501 -0.00000000000E+00  0.00000000000E+00  0.20101342698E+04  0.20101342698E+04  0.50400000000E-02 0.  1.
          1   -1    0    0  501    0  0.00000000000E+00 -0.00000000000E+00 -0.26199854615E+04  0.26199854616E+04  0.50400000000E-02 0. -1.
    8880022    1    1    2    0    0  0.16257335467E+04 -0.33296046579E+03 -0.18965304901E+04  0.25246963757E+04  0.15294330000E+03 0.  0.
    8880022    1    1    2    0    0 -0.16257335467E+04  0.33296046579E+03  0.12866792983E+04  0.21054233556E+04  0.15294330000E+03 0.  0.
<mgrwt>
<rscale>  0 0.16665125E+04</rscale>
<asrwt>0</asrwt>
<pdfrwt beam="1">  1        1 0.40307469E+00 0.16665125E+04</pdfrwt>
<pdfrwt beam="2">  1       -1 0.30925143E+00 0.16665125E+04</pdfrwt>
<totfact> 0.29637080E-02</totfact>
</mgrwt>
</event>
<event>
 4    1  0.2731969E-009  0.1881657E+04  0.7818608E-02  0.8664041E-01
         -1   -1    0    0    0  501 -0.00000000000E+00  0.00000000000E+00  0.11319973423E+04  0.11319973423E+04  0.50400000000E-02 0.  1.
          1   -1    0    0  501    0  0.00000000000E+00 -0.00000000000E+00 -0.34857714874E+04  0.34857714874E+04  0.50400000000E-02 0. -1.
    8880022    1    1    2    0    0 -0.17743297142E+04 -0.60745036455E+03 -0.43695504506E+03  0.19317254578E+04  0.15294330000E+03 0.  0.
    8880022    1    1    2    0    0  0.17743297142E+04  0.60745036455E+03 -0.19168191001E+04  0.26860433719E+04  0.15294330000E+03 0.  0.
<mgrwt>
<rscale>  0 0.18816571E+04</rscale>
<asrwt>0</asrwt>
<pdfrwt beam="1">  1        1 0.53627253E+00 0.18816571E+04</pdfrwt>
<pdfrwt beam="2">  1       -1 0.17415344E+00 0.18816571E+04</pdfrwt>
<totfact> 0.53512639E-02</totfact>
</mgrwt>
</event>
<event>
 4    1  0.2731969E-009  0.8783776E+03  0.7818608E-02  0.9453022E-01
         -1   -1    0    0    0  501 -0.00000000000E+00  0.00000000000E+00  0.14408007607E+04  0.14408007607E+04  0.50400000000E-02 0.  1.
          1   -1    0    0  501    0  0.00000000000E+00 -0.00000000000E+00 -0.10109629120E+04  0.10109629120E+04  0.50400000000E-02 0. -1.
    8880022    1    1    2    0    0 -0.24368610510E+03 -0.82992324721E+03  0.10556165897E+04  0.13732711137E+04  0.15294330000E+03 0.  0.
    8880022    1    1    2    0    0  0.24368610510E+03  0.82992324721E+03 -0.62577874104E+03  0.10784925590E+04  0.15294330000E+03 0.  0.
<mgrwt>
<rscale>  0 0.87837758E+03</rscale>
<asrwt>0</asrwt>
<pdfrwt beam="1">  1        1 0.15553275E+00 0.87837758E+03</pdfrwt>
<pdfrwt beam="2">  1       -1 0.22166166E+00 0.87837758E+03</pdfrwt>
<totfact> 0.16290867E+00</totfact>
</mgrwt>
</event>
<event>
 4    1  0.2731969E-009  0.4183547E+03  0.7818608E-02  0.1037603E+00
          1   -1    0    0  501    0  0.00000000000E+00  0.00000000000E+00  0.23620133904E+04  0.23620133904E+04  0.50400000000E-02 0. -1.
         -1   -1    0    0    0  501 -0.00000000000E+00 -0.00000000000E+00 -0.25510741414E+03  0.25510741419E+03  0.50400000000E-02 0.  1.
    8880022    1    1    2    0    0 -0.38788775963E+03  0.34235264449E+02  0.21557096643E+04  0.21959291376E+04  0.15294330000E+03 0.  0.
    8880022    1    1    2    0    0  0.38788775963E+03 -0.34235264449E+02 -0.48803688025E+02  0.42119166704E+03  0.15294330000E+03 0.  0.
<mgrwt>
<rscale>  0 0.41835466E+03</rscale>
<asrwt>0</asrwt>
<pdfrwt beam="1">  1        1 0.36338667E+00 0.41835466E+03</pdfrwt>
<pdfrwt beam="2">  1       -1 0.39247295E-01 0.41835466E+03</pdfrwt>
<totfact> 0.11999370E+01</totfact>
</mgrwt>
</event>
<event>
 4    1  0.1317890E-008  0.1474535E+04  0.7818608E-02  0.8901566E-01
          1   -1    0    0  501    0  0.00000000000E+00  0.00000000000E+00  0.37135557093E+04  0.37135557093E+04  0.50400000000E-02 0. -1.
         -1   -1    0    0    0  501 -0.00000000000E+00 -0.00000000000E+00 -0.18106099072E+04  0.18106099073E+04  0.50400000000E-02 0.  1.
    8880022    1    1    2    0    0  0.39102891904E+03 -0.14134916454E+04  0.32234991684E+04  0.35447426972E+04  0.15294330000E+03 0.  0.
    8880022    1    1    2    0    0 -0.39102891904E+03  0.14134916454E+04 -0.13205533664E+04  0.19794229194E+04  0.15294330000E+03 0.  0.
<mgrwt>
<rscale>  0 0.14745351E+04</rscale>
<asrwt>0</asrwt>
<pdfrwt beam="1">  1        1 0.57131626E+00 0.14745351E+04</pdfrwt>
<pdfrwt beam="2">  1       -1 0.27855537E+00 0.14745351E+04</pdfrwt>
<totfact> 0.73099319E-03</totfact>
</mgrwt>
</event>
<event>
 4    1  0.2731969E-009  0.7271276E+03  0.7818608E-02  0.9671933E-01
         -1   -1    0    0    0  501 -0.00000000000E+00  0.00000000000E+00  0.65549308305E+03  0.65549308307E+03  0.50400000000E-02 0.  1.
          1   -1    0    0  501    0  0.00000000000E+00 -0.00000000000E+00 -0.19501286917E+04  0.19501286917E+04  0.50400000000E-02 0. -1.
    8880022    1    1    2    0    0  0.63205842637E+03  0.32530753314E+03  0.35032500964E+03  0.80711963850E+03  0.15294330000E+03 0.  0.
    8880022    1    1    2    0    0 -0.63205842637E+03 -0.32530753314E+03 -0.16449606183E+04  0.17985021363E+04  0.15294330000E+03 0.  0.
<mgrwt>
<rscale>  0 0.72712757E+03</rscale>
<asrwt>0</asrwt>
<pdfrwt beam="1">  1        1 0.30001980E+00 0.72712757E+03</pdfrwt>
<pdfrwt beam="2">  1       -1 0.10084509E+00 0.72712757E+03</pdfrwt>
<totfact> 0.31798880E+00</totfact>
</mgrwt>
</event>
<event>
 4    1  0.2731969E-009  0.7126987E+03  0.7818608E-02  0.9695759E-01
         -1   -1    0    0    0  501 -0.00000000000E+00  0.00000000000E+00  0.80099773859E+03  0.80099773860E+03  0.50400000000E-02 0.  1.
          1   -1    0    0  501    0  0.00000000000E+00 -0.00000000000E+00 -0.10108641644E+04  0.10108641644E+04  0.50400000000E-02 0. -1.
    8880022    1    1    2    0    0 -0.22049205131E+03 -0.66025072327E+03  0.44811659227E+03  0.84187166216E+03  0.15294330000E+03 0.  0.
    8880022    1    1    2    0    0  0.22049205131E+03  0.66025072327E+03 -0.65798301809E+03  0.96999024087E+03  0.15294330000E+03 0.  0.
<mgrwt>
<rscale>  0 0.71269868E+03</rscale>
<asrwt>0</asrwt>
<pdfrwt beam="1">  1        1 0.15551756E+00 0.71269868E+03</pdfrwt>
<pdfrwt beam="2">  1       -1 0.12323042E+00 0.71269868E+03</pdfrwt>
<totfact> 0.89380079E+00</totfact>
</mgrwt>
</event>
<event>
 4    1  0.2731969E-009  0.9765024E+03  0.7818608E-02  0.9334699E-01
          1   -1    0    0  501    0  0.00000000000E+00  0.00000000000E+00  0.23365634069E+04  0.23365634069E+04  0.50400000000E-02 0. -1.
         -1   -1    0    0    0  501 -0.00000000000E+00 -0.00000000000E+00 -0.10468446399E+04  0.10468446399E+04  0.50400000000E-02 0.  1.
    8880022    1    1    2    0    0 -0.88568571973E+03 -0.38174086143E+03  0.19662953196E+04  0.21954211934E+04  0.15294330000E+03 0.  0.
    8880022    1    1    2    0    0  0.88568571973E+03  0.38174086143E+03 -0.67657655265E+03  0.11879868535E+04  0.15294330000E+03 0.  0.
<mgrwt>
<rscale>  0 0.97650240E+03</rscale>
<asrwt>0</asrwt>
<pdfrwt beam="1">  1        1 0.35947129E+00 0.97650240E+03</pdfrwt>
<pdfrwt beam="2">  1       -1 0.16105302E+00 0.97650240E+03</pdfrwt>
<totfact> 0.51426241E-01</totfact>
</mgrwt>
</event>
<event>
 4    1  0.2731969E-009  0.1460363E+04  0.7818608E-02  0.8911248E-01
          1   -1    0    0  501    0  0.00000000000E+00  0.00000000000E+00  0.22017583938E+04  0.22017583938E+04  0.50400000000E-02 0. -1.
         -1   -1    0    0    0  501 -0.00000000000E+00 -0.00000000000E+00 -0.13517818790E+04  0.13517818790E+04  0.50400000000E-02 0.  1.
    8880022    1    1    2    0    0 -0.50815043352E+03  0.13605334102E+04  0.13709444478E+04  0.20030347863E+04  0.15294330000E+03 0.  0.
    8880022    1    1    2    0    0  0.50815043352E+03 -0.13605334102E+04 -0.52096793299E+03  0.15505054865E+04  0.15294330000E+03 0.  0.
<mgrwt>
<rscale>  0 0.14603629E+04</rscale>
<asrwt>0</asrwt>
<pdfrwt beam="1">  1        1 0.33873206E+00 0.14603629E+04</pdfrwt>
<pdfrwt beam="2">  1       -1 0.20796644E+00 0.14603629E+04</pdfrwt>
<totfact> 0.27370941E-01</totfact>
</mgrwt>
</event>
<event>
 4    1  0.2731969E-009  0.5608701E+03  0.7818608E-02  0.9990088E-01
          1   -1    0    0  501    0  0.00000000000E+00  0.00000000000E+00  0.13489995781E+04  0.13489995781E+04  0.50400000000E-02 0. -1.
         -1   -1    0    0    0  501 -0.00000000000E+00 -0.00000000000E+00 -0.38483497375E+03  0.38483497379E+03  0.50400000000E-02 0.  1.
    8880022    1    1    2    0    0 -0.53946040222E+03 -0.12889108204E+02 -0.62109726538E+02  0.56429861405E+03  0.15294330000E+03 0.  0.
    8880022    1    1    2    0    0  0.53946040222E+03  0.12889108204E+02  0.10262743309E+04  0.11695359379E+04  0.15294330000E+03 0.  0.
<mgrwt>
<rscale>  0 0.56087013E+03</rscale>
<asrwt>0</asrwt>
<pdfrwt beam="1">  1        1 0.20753839E+00 0.56087013E+03</pdfrwt>
<pdfrwt beam="2">  1       -1 0.59205381E-01 0.56087013E+03</pdfrwt>
<totfact> 0.25581789E+01</totfact>
</mgrwt>
</event>
<event>
 4    1  0.2731969E-009  0.1051490E+04  0.7818608E-02  0.9253807E-01
          1   -1    0    0  501    0  0.00000000000E+00  0.00000000000E+00  0.35740313492E+04  0.35740313492E+04  0.50400000000E-02 0. -1.
         -1   -1    0    0    0  501 -0.00000000000E+00 -0.00000000000E+00 -0.84523649564E+03  0.84523649565E+03  0.50400000000E-02 0.  1.
    8880022    1    1    2    0    0 -0.21041880974E+03 -0.10188054294E+04  0.31238071024E+04  0.32960283743E+04  0.15294330000E+03 0.  0.
    8880022    1    1    2    0    0  0.21041880974E+03  0.10188054294E+04 -0.39501224881E+03  0.11232394705E+04  0.15294330000E+03 0.  0.
<mgrwt>
<rscale>  0 0.10514905E+04</rscale>
<asrwt>0</asrwt>
<pdfrwt beam="1">  1        1 0.54985098E+00 0.10514905E+04</pdfrwt>
<pdfrwt beam="2">  1       -1 0.13003638E+00 0.10514905E+04</pdfrwt>
<totfact> 0.11398700E-01</totfact>
</mgrwt>
</event>
<event>
 4    1  0.2731969E-009  0.8342800E+03  0.7818608E-02  0.9511682E-01
          1   -1    0    0  501    0  0.00000000000E+00  0.00000000000E+00  0.24662312997E+04  0.24662312997E+04  0.50400000000E-02 0. -1.
         -1   -1    0    0    0  501 -0.00000000000E+00 -0.00000000000E+00 -0.34075438996E+03  0.34075439000E+03  0.50400000000E-02 0.  1.
    8880022    1    1    2    0    0 -0.21391519913E+01  0.82013830832E+03  0.48105047027E+03  0.96303303615E+03  0.15294330000E+03 0.  0.
    8880022    1    1    2    0    0  0.21391519913E+01 -0.82013830832E+03  0.16444264395E+04  0.18439526536E+04  0.15294330000E+03 0.  0.
<mgrwt>
<rscale>  0 0.83427997E+03</rscale>
<asrwt>0</asrwt>
<pdfrwt beam="1">  1        1 0.37942021E+00 0.83427997E+03</pdfrwt>
<pdfrwt beam="2">  1       -1 0.52423751E-01 0.83427997E+03</pdfrwt>
<totfact> 0.54645908E+00</totfact>
</mgrwt>
</event>
<event>
 4    1  0.2731969E-009  0.1532033E+04  0.7818608E-02  0.8863426E-01
         -1   -1    0    0    0  501 -0.00000000000E+00  0.00000000000E+00  0.12906398307E+04  0.12906398307E+04  0.50400000000E-02 0.  1.
          1   -1    0    0  501    0  0.00000000000E+00 -0.00000000000E+00 -0.19237843713E+04  0.19237843713E+04  0.50400000000E-02 0. -1.
    8880022    1    1    2    0    0  0.37050872705E+03  0.14786676805E+04 -0.69242730538E+03  0.16812441978E+04  0.15294330000E+03 0.  0.
    8880022    1    1    2    0    0 -0.37050872705E+03 -0.14786676805E+04  0.59282764696E+02  0.15331800043E+04  0.15294330000E+03 0.  0.
<mgrwt>
<rscale>  0 0.15320334E+04</rscale>
<asrwt>0</asrwt>
<pdfrwt beam="1">  1        1 0.29596683E+00 0.15320334E+04</pdfrwt>
<pdfrwt beam="2">  1       -1 0.19855997E+00 0.15320334E+04</pdfrwt>
<totfact> 0.48719219E-01</totfact>
</mgrwt>
</event>
<event>
 4    1  0.2731969E-009  0.1417385E+04  0.7818608E-02  0.8941329E-01
         -1   -1    0    0    0  501 -0.00000000000E+00  0.00000000000E+00  0.11404953112E+04  0.11404953112E+04  0.50400000000E-02 0.  1.
          1   -1    0    0  501    0  0.00000000000E+00 -0.00000000000E+00 -0.25318455116E+04  0.25318455116E+04  0.50400000000E-02 0. -1.
    8880022    1    1    2    0    0 -0.73691741952E+02  0.14071812334E+04 -0.17085072847E+04  0.22199050185E+04  0.15294330000E+03 0.  0.
    8880022    1    1    2    0    0  0.73691741952E+02 -0.14071812334E+04  0.31715708423E+03  0.14524358043E+04  0.15294330000E+03 0.  0.
<mgrwt>
<rscale>  0 0.14173853E+04</rscale>
<asrwt>0</asrwt>
<pdfrwt beam="1">  1        1 0.38951469E+00 0.14173853E+04</pdfrwt>
<pdfrwt beam="2">  1       -1 0.17546082E+00 0.14173853E+04</pdfrwt>
<totfact> 0.27657995E-01</totfact>
</mgrwt>
</event>
<event>
 4    1  0.2731969E-009  0.1002124E+04  0.7818608E-02  0.9306219E-01
          1   -1    0    0  501    0  0.00000000000E+00  0.00000000000E+00  0.18285874806E+04  0.18285874806E+04  0.50400000000E-02 0. -1.
         -1   -1    0    0    0  501 -0.00000000000E+00 -0.00000000000E+00 -0.97077089290E+03  0.97077089291E+03  0.50400000000E-02 0.  1.
    8880022    1    1    2    0    0  0.75258687002E+03 -0.64379588162E+03 -0.49346734192E+03  0.11170325889E+04  0.15294330000E+03 0.  0.
    8880022    1    1    2    0    0 -0.75258687002E+03  0.64379588162E+03  0.13512839296E+04  0.16823257846E+04  0.15294330000E+03 0.  0.
<mgrwt>
<rscale>  0 0.10021236E+04</rscale>
<asrwt>0</asrwt>
<pdfrwt beam="1">  1        1 0.28132115E+00 0.10021236E+04</pdfrwt>
<pdfrwt beam="2">  1       -1 0.14934937E+00 0.10021236E+04</pdfrwt>
<totfact> 0.13870839E+00</totfact>
</mgrwt>
</event>
<event>
 4    1  0.2731969E-009  0.4484414E+03  0.7818608E-02  0.1028188E+00
         -1   -1    0    0    0  501 -0.00000000000E+00  0.00000000000E+00  0.15660746300E+04  0.15660746300E+04  0.50400000000E-02 0.  1.
          1   -1    0    0  501    0  0.00000000000E+00 -0.00000000000E+00 -0.15694826721E+04  0.15694826721E+04  0.50400000000E-02 0. -1.
    8880022    1    1    2    0    0  0.34851902485E+03  0.23715498928E+03  0.15005709233E+04  0.15661458261E+04  0.15294330000E+03 0.  0.
    8880022    1    1    2    0    0 -0.34851902485E+03 -0.23715498928E+03 -0.15039789654E+04  0.15694114760E+04  0.15294330000E+03 0.  0.
<mgrwt>
<rscale>  0 0.44844136E+03</rscale>
<asrwt>0</asrwt>
<pdfrwt beam="1">  1        1 0.24145887E+00 0.44844136E+03</pdfrwt>
<pdfrwt beam="2">  1       -1 0.24093456E+00 0.44844136E+03</pdfrwt>
<totfact> 0.54357607E-01</totfact>
</mgrwt>
</event>
<event>
 4    1  0.2731969E-009  0.2634774E+03  0.7818608E-02  0.1105072E+00
          1   -1    0    0  501    0  0.00000000000E+00  0.00000000000E+00  0.30629340366E+03  0.30629340370E+03  0.50400000000E-02 0. -1.
         -1   -1    0    0    0  501 -0.00000000000E+00 -0.00000000000E+00 -0.39387636298E+03  0.39387636302E+03  0.50400000000E-02 0.  1.
    8880022    1    1    2    0    0  0.19781971679E+02 -0.21362896641E+03  0.18432169668E+03  0.32155062210E+03  0.15294330000E+03 0.  0.
    8880022    1    1    2    0    0 -0.19781971679E+02  0.21362896641E+03 -0.27190465601E+03  0.37861914461E+03  0.15294330000E+03 0.  0.
<mgrwt>
<rscale>  0 0.26347735E+03</rscale>
<asrwt>0</asrwt>
<pdfrwt beam="1">  1        1 0.47122062E-01 0.26347735E+03</pdfrwt>
<pdfrwt beam="2">  1       -1 0.60596364E-01 0.26347735E+03</pdfrwt>
<totfact> 0.24532821E+02</totfact>
</mgrwt>
</event>
<event>
 4    1  0.2731969E-009  0.1208111E+04  0.7818608E-02  0.9105787E-01
          1   -1    0    0  501    0  0.00000000000E+00  0.00000000000E+00  0.22494028583E+04  0.22494028583E+04  0.50400000000E-02 0. -1.
         -1   -1    0    0    0  501 -0.00000000000E+00 -0.00000000000E+00 -0.82861669979E+03  0.82861669980E+03  0.50400000000E-02 0.  1.
    8880022    1    1    2    0    0  0.81406365372E+03  0.87945465802E+03 -0.64358829964E+01  0.12081279739E+04  0.15294330000E+03 0.  0.
    8880022    1    1    2    0    0 -0.81406365372E+03 -0.87945465802E+03  0.14272220415E+04  0.18698915842E+04  0.15294330000E+03 0.  0.
<mgrwt>
<rscale>  0 0.12081108E+04</rscale>
<asrwt>0</asrwt>
<pdfrwt beam="1">  1        1 0.34606198E+00 0.12081108E+04</pdfrwt>
<pdfrwt beam="2">  1       -1 0.12747949E+00 0.12081108E+04</pdfrwt>
<totfact> 0.10576657E+00</totfact>
</mgrwt>
</event>
<event>
 4    1  0.2731969E-009  0.8548766E+03  0.7818608E-02  0.9483815E-01
         -1   -1    0    0    0  501 -0.00000000000E+00  0.00000000000E+00  0.63661810323E+03  0.63661810325E+03  0.50400000000E-02 0.  1.
          1   -1    0    0  501    0  0.00000000000E+00 -0.00000000000E+00 -0.26040217198E+04  0.26040217198E+04  0.50400000000E-02 0. -1.
    8880022    1    1    2    0    0 -0.83732640844E+03 -0.79415614743E+02 -0.21953259479E+04  0.23559011067E+04  0.15294330000E+03 0.  0.
    8880022    1    1    2    0    0  0.83732640844E+03  0.79415614743E+02  0.22792233129E+03  0.88473871638E+03  0.15294330000E+03 0.  0.
<mgrwt>
<rscale>  0 0.85487660E+03</rscale>
<asrwt>0</asrwt>
<pdfrwt beam="1">  1        1 0.40061872E+00 0.85487660E+03</pdfrwt>
<pdfrwt beam="2">  1       -1 0.97941248E-01 0.85487660E+03</pdfrwt>
<totfact> 0.11987927E+00</totfact>
</mgrwt>
</event>
<event>
 4    1  0.2731969E-009  0.3895460E+03  0.7818608E-02  0.1047461E+00
          1   -1    0    0  501    0  0.00000000000E+00  0.00000000000E+00  0.21283180897E+04  0.21283180897E+04  0.50400000000E-02 0. -1.
         -1   -1    0    0    0  501 -0.00000000000E+00 -0.00000000000E+00 -0.16889031381E+04  0.16889031381E+04  0.50400000000E-02 0.  1.
    8880022    1    1    2    0    0 -0.60974464380E+02  0.35303899378E+03 -0.16481818641E+04  0.16935907199E+04  0.15294330000E+03 0.  1.
    8880022    1    1    2    0    0  0.60974464380E+02 -0.35303899378E+03  0.20875968156E+04  0.21236305079E+04  0.15294330000E+03 0.  0.
<mgrwt>
<rscale>  0 0.38954598E+03</rscale>
<asrwt>0</asrwt>
<pdfrwt beam="1">  1        1 0.32743355E+00 0.38954598E+03</pdfrwt>
<pdfrwt beam="2">  1       -1 0.25983125E+00 0.38954598E+03</pdfrwt>
<totfact> 0.18103011E-01</totfact>
</mgrwt>
</event>
<event>
 4    1  0.2731969E-009  0.1133435E+04  0.7818608E-02  0.9173203E-01
          1   -1    0    0  501    0  0.00000000000E+00  0.00000000000E+00  0.14959401873E+04  0.14959401873E+04  0.50400000000E-02 0. -1.
         -1   -1    0    0    0  501 -0.00000000000E+00 -0.00000000000E+00 -0.22361837831E+04  0.22361837831E+04  0.50400000000E-02 0.  1.
    8880022    1    1    2    0    0  0.34902870478E+03  0.10674558518E+04  0.10944271292E+04  0.15755778072E+04  0.15294330000E+03 0.  0.
    8880022    1    1    2    0    0 -0.34902870478E+03 -0.10674558518E+04 -0.18346707250E+04  0.21565461633E+04  0.15294330000E+03 0.  0.
<mgrwt>
<rscale>  0 0.11334349E+04</rscale>
<asrwt>0</asrwt>
<pdfrwt beam="1">  1        1 0.23014464E+00 0.11334349E+04</pdfrwt>
<pdfrwt beam="2">  1       -1 0.34402827E+00 0.11334349E+04</pdfrwt>
<totfact> 0.11187444E-01</totfact>
</mgrwt>
</event>
<event>
 4    1  0.2731969E-009  0.2438612E+03  0.7818608E-02  0.1117247E+00
          1   -1    0    0  501    0  0.00000000000E+00  0.00000000000E+00  0.70570382881E+02  0.70570383061E+02  0.50400000000E-02 0. -1.
         -1   -1    0    0    0  501 -0.00000000000E+00 -0.00000000000E+00 -0.84844158704E+03  0.84844158706E+03  0.50400000000E-02 0.  1.
    8880022    1    1    2    0    0 -0.12658298133E+03  0.14161003511E+03 -0.35107204476E+03  0.42745746786E+03  0.15294330000E+03 0. -1.
    8880022    1    1    2    0    0  0.12658298133E+03 -0.14161003511E+03 -0.42679915940E+03  0.49155450226E+03  0.15294330000E+03 0.  1.
<mgrwt>
<rscale>  0 0.24386124E+03</rscale>
<asrwt>0</asrwt>
<pdfrwt beam="1">  1        1 0.10856983E-01 0.24386124E+03</pdfrwt>
<pdfrwt beam="2">  1       -1 0.13052947E+00 0.24386124E+03</pdfrwt>
<totfact> 0.31022400E+02</totfact>
</mgrwt>
</event>
<event>
 4    1  0.2731969E-009  0.4575218E+03  0.7818608E-02  0.1025502E+00
         -1   -1    0    0    0  501 -0.00000000000E+00  0.00000000000E+00  0.14248216669E+04  0.14248216669E+04  0.50400000000E-02 0.  1.
          1   -1    0    0  501    0  0.00000000000E+00 -0.00000000000E+00 -0.45733756538E+03  0.45733756540E+03  0.50400000000E-02 0. -1.
    8880022    1    1    2    0    0 -0.84222308113E+02  0.42289618408E+03  0.12590697128E+04  0.13396203845E+04  0.15294330000E+03 0.  0.
    8880022    1    1    2    0    0  0.84222308113E+02 -0.42289618408E+03 -0.29158561130E+03  0.54253884785E+03  0.15294330000E+03 0.  0.
<mgrwt>
<rscale>  0 0.45752184E+03</rscale>
<asrwt>0</asrwt>
<pdfrwt beam="1">  1        1 0.70359626E-01 0.45752184E+03</pdfrwt>
<pdfrwt beam="2">  1       -1 0.21920333E+00 0.45752184E+03</pdfrwt>
<totfact> 0.60906997E+00</totfact>
</mgrwt>
</event>
<event>
 4    1  0.2731969E-009  0.8506244E+03  0.7818608E-02  0.9489499E-01
         -1   -1    0    0    0  501 -0.00000000000E+00  0.00000000000E+00  0.33015051061E+03  0.33015051065E+03  0.50400000000E-02 0.  1.
          1   -1    0    0  501    0  0.00000000000E+00 -0.00000000000E+00 -0.44751976122E+04  0.44751976122E+04  0.50400000000E-02 0. -1.
    8880022    1    1    2    0    0 -0.83560571407E+03 -0.43970003955E+02 -0.35620707832E+03  0.92219596957E+03  0.15294330000E+03 0.  0.
    8880022    1    1    2    0    0  0.83560571407E+03  0.43970003955E+02 -0.37888400232E+04  0.38831521532E+04  0.15294330000E+03 0.  0.
<mgrwt>
<rscale>  0 0.85062443E+03</rscale>
<asrwt>0</asrwt>
<pdfrwt beam="1">  1        1 0.68849189E+00 0.85062443E+03</pdfrwt>
<pdfrwt beam="2">  1       -1 0.50792390E-01 0.85062443E+03</pdfrwt>
<totfact> 0.14745329E-01</totfact>
</mgrwt>
</event>
<event>
 4    1  0.2731969E-009  0.7587470E+03  0.7818608E-02  0.9621727E-01
         -1   -1    0    0    0  501 -0.00000000000E+00  0.00000000000E+00  0.11259172966E+04  0.11259172966E+04  0.50400000000E-02 0.  1.
          1   -1    0    0  501    0  0.00000000000E+00 -0.00000000000E+00 -0.53083962717E+03  0.53083962719E+03  0.50400000000E-02 0. -1.
    8880022    1    1    2    0    0  0.74297462875E+03 -0.17148326738E+02  0.45641260078E+03  0.88544309769E+03  0.15294330000E+03 0.  0.
    8880022    1    1    2    0    0 -0.74297462875E+03  0.17148326738E+02  0.13866506866E+03  0.77131382612E+03  0.15294330000E+03 0.  0.
<mgrwt>
<rscale>  0 0.75874700E+03</rscale>
<asrwt>0</asrwt>
<pdfrwt beam="1">  1        1 0.81667635E-01 0.75874700E+03</pdfrwt>
<pdfrwt beam="2">  1       -1 0.17321804E+00 0.75874700E+03</pdfrwt>
<totfact> 0.97854268E+00</totfact>
</mgrwt>
</event>
<event>
 4    1  0.2731969E-009  0.8714949E+03  0.7818608E-02  0.9461933E-01
          1   -1    0    0  501    0  0.00000000000E+00  0.00000000000E+00  0.10540033361E+04  0.10540033361E+04  0.50400000000E-02 0. -1.
         -1   -1    0    0    0  501 -0.00000000000E+00 -0.00000000000E+00 -0.19221651333E+04  0.19221651333E+04  0.50400000000E-02 0.  1.
    8880022    1    1    2    0    0 -0.85104238240E+03 -0.10880545043E+03  0.74246203416E+03  0.11448813423E+04  0.15294330000E+03 0.  0.
    8880022    1    1    2    0    0  0.85104238240E+03  0.10880545043E+03 -0.16106238314E+04  0.18312871271E+04  0.15294330000E+03 0.  0.
<mgrwt>
<rscale>  0 0.87149493E+03</rscale>
<asrwt>0</asrwt>
<pdfrwt beam="1">  1        1 0.16215436E+00 0.87149493E+03</pdfrwt>
<pdfrwt beam="2">  1       -1 0.29571771E+00 0.87149493E+03</pdfrwt>
<totfact> 0.50138993E-01</totfact>
</mgrwt>
</event>
<event>
 4    1  0.2731969E-009  0.6333430E+03  0.7818608E-02  0.9838547E-01
         -1   -1    0    0    0  501 -0.00000000000E+00  0.00000000000E+00  0.68122950759E+03  0.68122950761E+03  0.50400000000E-02 0.  1.
          1   -1    0    0  501    0  0.00000000000E+00 -0.00000000000E+00 -0.15083601158E+04  0.15083601158E+04  0.50400000000E-02 0. -1.
    8880022    1    1    2    0    0  0.55481651361E+03  0.26440566188E+03  0.44123550102E+03  0.77188868251E+03  0.15294330000E+03 0.  1.
    8880022    1    1    2    0    0 -0.55481651361E+03 -0.26440566188E+03 -0.12683661093E+04  0.14177009409E+04  0.15294330000E+03 0.  0.
<mgrwt>
<rscale>  0 0.63334301E+03</rscale>
<asrwt>0</asrwt>
<pdfrwt beam="1">  1        1 0.23205540E+00 0.63334301E+03</pdfrwt>
<pdfrwt beam="2">  1       -1 0.10480454E+00 0.63334301E+03</pdfrwt>
<totfact> 0.58685014E+00</totfact>
</mgrwt>
</event>
<event>
 4    1  0.2731969E-009  0.4920982E+03  0.7818608E-02  0.1015862E+00
         -1   -1    0    0    0  501 -0.00000000000E+00  0.00000000000E+00  0.11263811843E+04  0.11263811843E+04  0.50400000000E-02 0.  1.
          1   -1    0    0  501    0  0.00000000000E+00 -0.00000000000E+00 -0.43571307152E+03  0.43571307155E+03  0.50400000000E-02 0. -1.
    8880022    1    1    2    0    0 -0.12773372744E+02  0.46755306015E+03 -0.21057125506E+03  0.53525781599E+03  0.15294330000E+03 0.  0.
    8880022    1    1    2    0    0  0.12773372744E+02 -0.46755306015E+03  0.90123936785E+03  0.10268364399E+04  0.15294330000E+03 0.  0.
<mgrwt>
<rscale>  0 0.49209824E+03</rscale>
<asrwt>0</asrwt>
<pdfrwt beam="1">  1        1 0.67032780E-01 0.49209824E+03</pdfrwt>
<pdfrwt beam="2">  1       -1 0.17328941E+00 0.49209824E+03</pdfrwt>
<totfact> 0.13295711E+01</totfact>
</mgrwt>
</event>
<event>
 4    1  0.2731969E-009  0.4506537E+03  0.7818608E-02  0.1027527E+00
          1   -1    0    0  501    0  0.00000000000E+00  0.00000000000E+00  0.11601682225E+04  0.11601682225E+04  0.50400000000E-02 0. -1.
         -1   -1    0    0    0  501 -0.00000000000E+00 -0.00000000000E+00 -0.24974508186E+03  0.24974508191E+03  0.50400000000E-02 0.  1.
    8880022    1    1    2    0    0  0.20973832887E+03 -0.36838426930E+03  0.84074015276E+03  0.95390397522E+03  0.15294330000E+03 0.  0.
    8880022    1    1    2    0    0 -0.20973832887E+03  0.36838426930E+03  0.69682987834E+02  0.45600932916E+03  0.15294330000E+03 0.  0.
<mgrwt>
<rscale>  0 0.45065374E+03</rscale>
<asrwt>0</asrwt>
<pdfrwt beam="1">  1        1 0.17848742E+00 0.45065374E+03</pdfrwt>
<pdfrwt beam="2">  1       -1 0.38422320E-01 0.45065374E+03</pdfrwt>
<totfact> 0.79312437E+01</totfact>
</mgrwt>
</event>
<event>
 4    1  0.2731969E-009  0.5391171E+03  0.7818608E-02  0.1004045E+00
          1   -1    0    0  501    0  0.00000000000E+00  0.00000000000E+00  0.18610934610E+04  0.18610934610E+04  0.50400000000E-02 0. -1.
         -1   -1    0    0    0  501 -0.00000000000E+00 -0.00000000000E+00 -0.87891123286E+03  0.87891123287E+03  0.50400000000E-02 0.  1.
    8880022    1    1    2    0    0 -0.43838997503E+03  0.27398876721E+03  0.17334302629E+04  0.18153313042E+04  0.15294330000E+03 0.  0.
    8880022    1    1    2    0    0  0.43838997503E+03 -0.27398876721E+03 -0.75124803476E+03  0.92467338965E+03  0.15294330000E+03 0.  0.
<mgrwt>
<rscale>  0 0.53911712E+03</rscale>
<asrwt>0</asrwt>
<pdfrwt beam="1">  1        1 0.28632207E+00 0.53911712E+03</pdfrwt>
<pdfrwt beam="2">  1       -1 0.13521711E+00 0.53911712E+03</pdfrwt>
<totfact> 0.18795603E+00</totfact>
</mgrwt>
</event>
<event>
 4    1  0.2731969E-009  0.1067586E+04  0.7818608E-02  0.9237374E-01
         -1   -1    0    0    0  501 -0.00000000000E+00  0.00000000000E+00  0.17879712723E+04  0.17879712723E+04  0.50400000000E-02 0.  1.
          1   -1    0    0  501    0  0.00000000000E+00 -0.00000000000E+00 -0.68576301762E+03  0.68576301764E+03  0.50400000000E-02 0. -1.
    8880022    1    1    2    0    0  0.10565333038E+04  0.92454648181E+01  0.87940684281E+03  0.13831471899E+04  0.15294330000E+03 0.  0.
    8880022    1    1    2    0    0 -0.10565333038E+04 -0.92454648181E+01  0.22280141186E+03  0.10905871001E+04  0.15294330000E+03 0.  0.
<mgrwt>
<rscale>  0 0.10675859E+04</rscale>
<asrwt>0</asrwt>
<pdfrwt beam="1">  1        1 0.10550200E+00 0.10675859E+04</pdfrwt>
<pdfrwt beam="2">  1       -1 0.27507250E+00 0.10675859E+04</pdfrwt>
<totfact> 0.13490218E+00</totfact>
</mgrwt>
</event>
<event>
 4    1  0.2731969E-009  0.1439401E+04  0.7818608E-02  0.8925782E-01
          1   -1    0    0  501    0  0.00000000000E+00  0.00000000000E+00  0.25614142680E+04  0.25614142680E+04  0.50400000000E-02 0. -1.
         -1   -1    0    0    0  501 -0.00000000000E+00 -0.00000000000E+00 -0.85526986737E+03  0.85526986738E+03  0.50400000000E-02 0.  1.
    8880022    1    1    2    0    0  0.13722513190E+04  0.40670636398E+03  0.45520574869E+03  0.15096647561E+04  0.15294330000E+03 0.  0.
    8880022    1    1    2    0    0 -0.13722513190E+04 -0.40670636398E+03  0.12509386520E+04  0.19070193793E+04  0.15294330000E+03 0.  0.
<mgrwt>
<rscale>  0 0.14394011E+04</rscale>
<asrwt>0</asrwt>
<pdfrwt beam="1">  1        1 0.39406373E+00 0.14394011E+04</pdfrwt>
<pdfrwt beam="2">  1       -1 0.13157998E+00 0.14394011E+04</pdfrwt>
<totfact> 0.57906613E-01</totfact>
</mgrwt>
</event>
<event>
 4    1  0.2731969E-009  0.1624209E+04  0.7818608E-02  0.8805812E-01
          1   -1    0    0  501    0  0.00000000000E+00  0.00000000000E+00  0.30476770803E+04  0.30476770803E+04  0.50400000000E-02 0. -1.
         -1   -1    0    0    0  501 -0.00000000000E+00 -0.00000000000E+00 -0.97506250660E+03  0.97506250662E+03  0.50400000000E-02 0.  1.
    8880022    1    1    2    0    0  0.58632844498E+02 -0.16159290316E+04  0.36237390344E+03  0.16641427056E+04  0.15294330000E+03 0.  0.
    8880022    1    1    2    0    0 -0.58632844498E+02  0.16159290316E+04  0.17102406702E+04  0.23585968813E+04  0.15294330000E+03 0.  0.
<mgrwt>
<rscale>  0 0.16242094E+04</rscale>
<asrwt>0</asrwt>
<pdfrwt beam="1">  1        1 0.46887339E+00 0.16242094E+04</pdfrwt>
<pdfrwt beam="2">  1       -1 0.15000962E+00 0.16242094E+04</pdfrwt>
<totfact> 0.18053794E-01</totfact>
</mgrwt>
</event>
<event>
 4    1  0.2731969E-009  0.3671697E+03  0.7818608E-02  0.1055780E+00
          1   -1    0    0  501    0  0.00000000000E+00  0.00000000000E+00  0.29238878024E+03  0.29238878028E+03  0.50400000000E-02 0. -1.
         -1   -1    0    0    0  501 -0.00000000000E+00 -0.00000000000E+00 -0.16419507925E+04  0.16419507925E+04  0.50400000000E-02 0.  1.
    8880022    1    1    2    0    0 -0.32821094462E+03 -0.60823452919E+02 -0.14949899535E+04  0.15394182443E+04  0.15294330000E+03 0.  0.
    8880022    1    1    2    0    0  0.32821094462E+03  0.60823452919E+02  0.14542794128E+03  0.39492132851E+03  0.15294330000E+03 0.  0.
<mgrwt>
<rscale>  0 0.36716967E+03</rscale>
<asrwt>0</asrwt>
<pdfrwt beam="1">  1        1 0.44982890E-01 0.36716967E+03</pdfrwt>
<pdfrwt beam="2">  1       -1 0.25260781E+00 0.36716967E+03</pdfrwt>
<totfact> 0.67820036E+00</totfact>
</mgrwt>
</event>
<event>
 4    1  0.2731969E-009  0.6743683E+03  0.7818608E-02  0.9762098E-01
         -1   -1    0    0    0  501 -0.00000000000E+00  0.00000000000E+00  0.49691018219E+03  0.49691018222E+03  0.50400000000E-02 0.  1.
          1   -1    0    0  501    0  0.00000000000E+00 -0.00000000000E+00 -0.10905079430E+04  0.10905079430E+04  0.50400000000E-02 0. -1.
    8880022    1    1    2    0    0 -0.55124105757E+03  0.35709137046E+03  0.21435217153E+02  0.67470887941E+03  0.15294330000E+03 0.  0.
    8880022    1    1    2    0    0  0.55124105757E+03 -0.35709137046E+03 -0.61503297794E+03  0.91270924580E+03  0.15294330000E+03 0.  0.
<mgrwt>
<rscale>  0 0.67436830E+03</rscale>
<asrwt>0</asrwt>
<pdfrwt beam="1">  1        1 0.16777045E+00 0.67436830E+03</pdfrwt>
<pdfrwt beam="2">  1       -1 0.76447720E-01 0.67436830E+03</pdfrwt>
<totfact> 0.23007001E+01</totfact>
</mgrwt>
</event>
<event>
 4    1  0.2731969E-009  0.9933332E+03  0.7818608E-02  0.9315887E-01
         -1   -1    0    0    0  501 -0.00000000000E+00  0.00000000000E+00  0.14055975403E+04  0.14055975404E+04  0.50400000000E-02 0.  1.
          1   -1    0    0  501    0  0.00000000000E+00 -0.00000000000E+00 -0.15154246438E+04  0.15154246438E+04  0.50400000000E-02 0. -1.
    8880022    1    1    2    0    0 -0.71180083355E+02  0.97890378310E+03  0.10151261269E+04  0.14202788203E+04  0.15294330000E+03 0.  0.
    8880022    1    1    2    0    0  0.71180083355E+02 -0.97890378310E+03 -0.11249532303E+04  0.15007433639E+04  0.15294330000E+03 0.  0.
<mgrwt>
<rscale>  0 0.99333321E+03</rscale>
<asrwt>0</asrwt>
<pdfrwt beam="1">  1        1 0.23314225E+00 0.99333321E+03</pdfrwt>
<pdfrwt beam="2">  1       -1 0.21624578E+00 0.99333321E+03</pdfrwt>
<totfact> 0.75148116E-01</totfact>
</mgrwt>
</event>
<event>
 4    1  0.2731969E-009  0.8046330E+03  0.7818608E-02  0.9553335E-01
         -1   -1    0    0    0  501 -0.00000000000E+00  0.00000000000E+00  0.15011939124E+04  0.15011939124E+04  0.50400000000E-02 0.  1.
          1   -1    0    0  501    0  0.00000000000E+00 -0.00000000000E+00 -0.14201409393E+04  0.14201409393E+04  0.50400000000E-02 0. -1.
    8880022    1    1    2    0    0 -0.67225523108E+03 -0.41486811595E+03 -0.11783320987E+04  0.14268499701E+04  0.15294330000E+03 0. -1.
    8880022    1    1    2    0    0  0.67225523108E+03  0.41486811595E+03  0.12593850718E+04  0.14944848816E+04  0.15294330000E+03 0.  0.
<mgrwt>
<rscale>  0 0.80463302E+03</rscale>
<asrwt>0</asrwt>
<pdfrwt beam="1">  1        1 0.21848322E+00 0.80463302E+03</pdfrwt>
<pdfrwt beam="2">  1       -1 0.23095291E+00 0.80463302E+03</pdfrwt>
<totfact> 0.72249372E-01</totfact>
</mgrwt>
</event>
<event>
 4    1  0.2731969E-009  0.1021711E+04  0.7818608E-02  0.9285048E-01
          1   -1    0    0  501    0  0.00000000000E+00  0.00000000000E+00  0.95837896442E+03  0.95837896443E+03  0.50400000000E-02 0. -1.
         -1   -1    0    0    0  501 -0.00000000000E+00 -0.00000000000E+00 -0.17637110556E+04  0.17637110556E+04  0.50400000000E-02 0.  1.
    8880022    1    1    2    0    0 -0.42675346101E+03 -0.91563297635E+03 -0.12443403156E+04  0.16100548866E+04  0.15294330000E+03 0.  0.
    8880022    1    1    2    0    0  0.42675346101E+03  0.91563297635E+03  0.43900822441E+03  0.11120351334E+04  0.15294330000E+03 0.  0.
<mgrwt>
<rscale>  0 0.10217113E+04</rscale>
<asrwt>0</asrwt>
<pdfrwt beam="1">  1        1 0.14744292E+00 0.10217113E+04</pdfrwt>
<pdfrwt beam="2">  1       -1 0.27134016E+00 0.10217113E+04</pdfrwt>
<totfact> 0.83256092E-01</totfact>
</mgrwt>
</event>
<event>
 4    1  0.2731969E-009  0.1677456E+04  0.7818608E-02  0.8774327E-01
         -1   -1    0    0    0  501 -0.00000000000E+00  0.00000000000E+00  0.68847969407E+03  0.68847969409E+03  0.50400000000E-02 0.  1.
          1   -1    0    0  501    0  0.00000000000E+00 -0.00000000000E+00 -0.51685572945E+04  0.51685572945E+04  0.50400000000E-02 0. -1.
    8880022    1    1    2    0    0  0.13349589411E+04  0.10041675886E+04 -0.35796399465E+04  0.39531862744E+04  0.15294330000E+03 0.  0.
    8880022    1    1    2    0    0 -0.13349589411E+04 -0.10041675886E+04 -0.90043765390E+03  0.19038507142E+04  0.15294330000E+03 0.  0.
<mgrwt>
<rscale>  0 0.16774563E+04</rscale>
<asrwt>0</asrwt>
<pdfrwt beam="1">  1        1 0.79516264E+00 0.16774563E+04</pdfrwt>
<pdfrwt beam="2">  1       -1 0.10591996E+00 0.16774563E+04</pdfrwt>
<totfact> 0.41410390E-03</totfact>
</mgrwt>
</event>
<event>
 4    1  0.2731969E-009  0.7902251E+03  0.7818608E-02  0.9574275E-01
         -1   -1    0    0    0  501 -0.00000000000E+00  0.00000000000E+00  0.22979703457E+04  0.22979703457E+04  0.50400000000E-02 0.  1.
          1   -1    0    0  501    0  0.00000000000E+00 -0.00000000000E+00 -0.10883856857E+04  0.10883856857E+04  0.50400000000E-02 0. -1.
    8880022    1    1    2    0    0  0.77014639748E+03  0.89098645115E+02  0.20714455522E+04  0.22170571420E+04  0.15294330000E+03 0.  0.
    8880022    1    1    2    0    0 -0.77014639748E+03 -0.89098645115E+02 -0.86186089219E+03  0.11692988893E+04  0.15294330000E+03 0.  0.
<mgrwt>
<rscale>  0 0.79022509E+03</rscale>
<asrwt>0</asrwt>
<pdfrwt beam="1">  1        1 0.16744395E+00 0.79022509E+03</pdfrwt>
<pdfrwt beam="2">  1       -1 0.35353390E+00 0.79022509E+03</pdfrwt>
<totfact> 0.20295370E-01</totfact>
</mgrwt>
</event>
<event>
 4    1  0.2731969E-009  0.7878379E+03  0.7818608E-02  0.9577790E-01
          1   -1    0    0  501    0  0.00000000000E+00  0.00000000000E+00  0.98828051556E+03  0.98828051557E+03  0.50400000000E-02 0. -1.
         -1   -1    0    0    0  501 -0.00000000000E+00 -0.00000000000E+00 -0.66068997814E+03  0.66068997816E+03  0.50400000000E-02 0.  1.
    8880022    1    1    2    0    0 -0.35981836048E+03 -0.68397925036E+03  0.34705459113E+03  0.86089221724E+03  0.15294330000E+03 0.  0.
    8880022    1    1    2    0    0  0.35981836048E+03  0.68397925036E+03 -0.19464053710E+02  0.78807827649E+03  0.15294330000E+03 0.  0.
<mgrwt>
<rscale>  0 0.78783788E+03</rscale>
<asrwt>0</asrwt>
<pdfrwt beam="1">  1        1 0.15204316E+00 0.78783788E+03</pdfrwt>
<pdfrwt beam="2">  1       -1 0.10164461E+00 0.78783788E+03</pdfrwt>
<totfact> 0.14552769E+01</totfact>
</mgrwt>
</event>
<event>
 4    1  0.2731969E-009  0.5134107E+03  0.7818608E-02  0.1010337E+00
         -1   -1    0    0    0  501 -0.00000000000E+00  0.00000000000E+00  0.45921849726E+03  0.45921849729E+03  0.50400000000E-02 0.  1.
          1   -1    0    0  501    0  0.00000000000E+00 -0.00000000000E+00 -0.17802144986E+04  0.17802144986E+04  0.50400000000E-02 0. -1.
    8880022    1    1    2    0    0 -0.34945782456E+03  0.34362492373E+03  0.26119128137E+03  0.57603072646E+03  0.15294330000E+03 0.  0.
    8880022    1    1    2    0    0  0.34945782456E+03 -0.34362492373E+03 -0.15821872827E+04  0.16634022694E+04  0.15294330000E+03 0.  0.
<mgrwt>
<rscale>  0 0.51341067E+03</rscale>
<asrwt>0</asrwt>
<pdfrwt beam="1">  1        1 0.27387915E+00 0.51341067E+03</pdfrwt>
<pdfrwt beam="2">  1       -1 0.70649001E-01 0.51341067E+03</pdfrwt>
<totfact> 0.92846005E+00</totfact>
</mgrwt>
</event>
<event>
 4    1  0.2731969E-009  0.1471826E+04  0.7818608E-02  0.8903407E-01
         -1   -1    0    0    0  501 -0.00000000000E+00  0.00000000000E+00  0.11412014239E+04  0.11412014239E+04  0.50400000000E-02 0.  1.
          1   -1    0    0  501    0  0.00000000000E+00 -0.00000000000E+00 -0.20989068112E+04  0.20989068113E+04  0.50400000000E-02 0. -1.
    8880022    1    1    2    0    0  0.44026857835E+03 -0.13960815952E+04 -0.97977791200E+03  0.17681166962E+04  0.15294330000E+03 0.  0.
    8880022    1    1    2    0    0 -0.44026857835E+03  0.13960815952E+04  0.22072524677E+02  0.14719915390E+04  0.15294330000E+03 0.  0.
<mgrwt>
<rscale>  0 0.14718260E+04</rscale>
<asrwt>0</asrwt>
<pdfrwt beam="1">  1        1 0.32290874E+00 0.14718260E+04</pdfrwt>
<pdfrwt beam="2">  1       -1 0.17556945E+00 0.14718260E+04</pdfrwt>
<totfact> 0.54339705E-01</totfact>
</mgrwt>
</event>
<event>
 4    1  0.2731969E-009  0.1213116E+04  0.7818608E-02  0.9101453E-01
         -1   -1    0    0    0  501 -0.00000000000E+00  0.00000000000E+00  0.11856513203E+04  0.11856513203E+04  0.50400000000E-02 0.  1.
          1   -1    0    0  501    0  0.00000000000E+00 -0.00000000000E+00 -0.30865149559E+04  0.30865149559E+04  0.50400000000E-02 0. -1.
    8880022    1    1    2    0    0  0.10147525890E+04 -0.64694310268E+03  0.70121536683E+03  0.14011969307E+04  0.15294330000E+03 0.  0.
    8880022    1    1    2    0    0 -0.10147525890E+04  0.64694310268E+03 -0.26020790024E+04  0.28709693455E+04  0.15294330000E+03 0.  0.
<mgrwt>
<rscale>  0 0.12131158E+04</rscale>
<asrwt>0</asrwt>
<pdfrwt beam="1">  1        1 0.47484845E+00 0.12131158E+04</pdfrwt>
<pdfrwt beam="2">  1       -1 0.18240790E+00 0.12131158E+04</pdfrwt>
<totfact> 0.10232456E-01</totfact>
</mgrwt>
</event>
<event>
 4    1  0.2731969E-009  0.1032433E+04  0.7818608E-02  0.9273672E-01
          1   -1    0    0  501    0  0.00000000000E+00  0.00000000000E+00  0.18902773507E+04  0.18902773507E+04  0.50400000000E-02 0. -1.
         -1   -1    0    0    0  501 -0.00000000000E+00 -0.00000000000E+00 -0.80491461987E+03  0.80491461989E+03  0.50400000000E-02 0.  1.
    8880022    1    1    2    0    0 -0.85189451771E+03 -0.56285090936E+03 -0.19473270125E+03  0.10506368989E+04  0.15294330000E+03 0.  0.
    8880022    1    1    2    0    0  0.85189451771E+03  0.56285090936E+03  0.12800954321E+04  0.16445550717E+04  0.15294330000E+03 0.  0.
<mgrwt>
<rscale>  0 0.10324326E+04</rscale>
<asrwt>0</asrwt>
<pdfrwt beam="1">  1        1 0.29081190E+00 0.10324326E+04</pdfrwt>
<pdfrwt beam="2">  1       -1 0.12383302E+00 0.10324326E+04</pdfrwt>
<totfact> 0.20363907E+00</totfact>
</mgrwt>
</event>
<event>
 4    1  0.2731969E-009  0.1771539E+03  0.7818608E-02  0.1170586E+00
          1   -1    0    0  501    0  0.00000000000E+00  0.00000000000E+00  0.69596601232E+03  0.69596601233E+03  0.50400000000E-02 0. -1.
         -1   -1    0    0    0  501 -0.00000000000E+00 -0.00000000000E+00 -0.47626456942E+03  0.47626456945E+03  0.50400000000E-02 0.  1.
    8880022    1    1    2    0    0  0.55414313583E+02 -0.70150598601E+02 -0.44782758163E+03  0.48159427791E+03  0.15294330000E+03 0.  1.
    8880022    1    1    2    0    0 -0.55414313583E+02  0.70150598601E+02  0.66752902452E+03  0.69063630387E+03  0.15294330000E+03 0.  0.
<mgrwt>
<rscale>  0 0.17715390E+03</rscale>
<asrwt>0</asrwt>
<pdfrwt beam="1">  1        1 0.10707169E+00 0.17715390E+03</pdfrwt>
<pdfrwt beam="2">  1       -1 0.73271472E-01 0.17715390E+03</pdfrwt>
<totfact> 0.58039764E+01</totfact>
</mgrwt>
</event>
<event>
 4    1  0.2731969E-009  0.4273826E+03  0.7818608E-02  0.1034690E+00
         -1   -1    0    0    0  501 -0.00000000000E+00  0.00000000000E+00  0.32638767907E+03  0.32638767911E+03  0.50400000000E-02 0.  1.
          1   -1    0    0  501    0  0.00000000000E+00 -0.00000000000E+00 -0.21034478608E+04  0.21034478608E+04  0.50400000000E-02 0. -1.
    8880022    1    1    2    0    0 -0.39907915223E+03  0.19840831757E+00  0.15229857242E+03  0.45370774436E+03  0.15294330000E+03 0.  0.
    8880022    1    1    2    0    0  0.39907915223E+03 -0.19840831757E+00 -0.19293587542E+04  0.19761277956E+04  0.15294330000E+03 0.  0.
<mgrwt>
<rscale>  0 0.42738257E+03</rscale>
<asrwt>0</asrwt>
<pdfrwt beam="1">  1        1 0.32360735E+00 0.42738257E+03</pdfrwt>
<pdfrwt beam="2">  1       -1 0.50213490E-01 0.42738257E+03</pdfrwt>
<totfact> 0.11305432E+01</totfact>
</mgrwt>
</event>
<event>
 4    1  0.2731969E-009  0.1064661E+04  0.7818608E-02  0.9240337E-01
         -1   -1    0    0    0  501 -0.00000000000E+00  0.00000000000E+00  0.12575933060E+04  0.12575933060E+04  0.50400000000E-02 0.  1.
          1   -1    0    0  501    0  0.00000000000E+00 -0.00000000000E+00 -0.29464506486E+04  0.29464506486E+04  0.50400000000E-02 0. -1.
    8880022    1    1    2    0    0 -0.88855418784E+03  0.56619970853E+03 -0.25956760322E+04  0.28055367350E+04  0.15294330000E+03 0.  0.
    8880022    1    1    2    0    0  0.88855418784E+03 -0.56619970853E+03  0.90681868953E+03  0.13985072196E+04  0.15294330000E+03 0.  0.
<mgrwt>
<rscale>  0 0.10646607E+04</rscale>
<asrwt>0</asrwt>
<pdfrwt beam="1">  1        1 0.45330010E+00 0.10646607E+04</pdfrwt>
<pdfrwt beam="2">  1       -1 0.19347589E+00 0.10646607E+04</pdfrwt>
<totfact> 0.11088098E-01</totfact>
</mgrwt>
</event>
<event>
 4    1  0.2731969E-009  0.1415595E+04  0.7818608E-02  0.8942607E-01
          1   -1    0    0  501    0  0.00000000000E+00  0.00000000000E+00  0.27362919913E+04  0.27362919913E+04  0.50400000000E-02 0. -1.
         -1   -1    0    0    0  501 -0.00000000000E+00 -0.00000000000E+00 -0.17110896663E+04  0.17110896663E+04  0.50400000000E-02 0.  1.
    8880022    1    1    2    0    0 -0.47740846819E+03 -0.13238571635E+04 -0.11691930130E+04  0.18360066965E+04  0.15294330000E+03 0.  0.
    8880022    1    1    2    0    0  0.47740846819E+03  0.13238571635E+04  0.21943953381E+04  0.26113749611E+04  0.15294330000E+03 0.  0.
<mgrwt>
<rscale>  0 0.14155947E+04</rscale>
<asrwt>0</asrwt>
<pdfrwt beam="1">  1        1 0.42096800E+00 0.14155947E+04</pdfrwt>
<pdfrwt beam="2">  1       -1 0.26324456E+00 0.14155947E+04</pdfrwt>
<totfact> 0.50536631E-02</totfact>
</mgrwt>
</event>
<event>
 4    1  0.2731969E-009  0.3965412E+03  0.7818608E-02  0.1044984E+00
          1   -1    0    0  501    0  0.00000000000E+00  0.00000000000E+00  0.28434718631E+03  0.28434718635E+03  0.50400000000E-02 0. -1.
         -1   -1    0    0    0  501 -0.00000000000E+00 -0.00000000000E+00 -0.57051259141E+03  0.57051259143E+03  0.50400000000E-02 0.  1.
    8880022    1    1    2    0    0  0.31492202857E+03 -0.18621860866E+03 -0.21796301552E+03  0.45249616953E+03  0.15294330000E+03 0. -1.
    8880022    1    1    2    0    0 -0.31492202857E+03  0.18621860866E+03 -0.68202389579E+02  0.40236360825E+03  0.15294330000E+03 0.  1.
<mgrwt>
<rscale>  0 0.39654118E+03</rscale>
<asrwt>0</asrwt>
<pdfrwt beam="1">  1        1 0.43745721E-01 0.39654118E+03</pdfrwt>
<pdfrwt beam="2">  1       -1 0.87771167E-01 0.39654118E+03</pdfrwt>
<totfact> 0.12508201E+02</totfact>
</mgrwt>
</event>
<event>
 4    1  0.2731969E-009  0.6101939E+03  0.7818608E-02  0.9884480E-01
          1   -1    0    0  501    0  0.00000000000E+00  0.00000000000E+00  0.21210885659E+04  0.21210885659E+04  0.50400000000E-02 0. -1.
         -1   -1    0    0    0  501 -0.00000000000E+00 -0.00000000000E+00 -0.64227060497E+03  0.64227060499E+03  0.50400000000E-02 0.  1.
    8880022    1    1    2    0    0 -0.55545359777E+03  0.20103799841E+03  0.19172354091E+04  0.20119960842E+04  0.15294330000E+03 0.  0.
    8880022    1    1    2    0    0  0.55545359777E+03 -0.20103799841E+03 -0.43841744818E+03  0.75136308664E+03  0.15294330000E+03 0.  0.
<mgrwt>
<rscale>  0 0.61019393E+03</rscale>
<asrwt>0</asrwt>
<pdfrwt beam="1">  1        1 0.32632132E+00 0.61019393E+03</pdfrwt>
<pdfrwt beam="2">  1       -1 0.98810861E-01 0.61019393E+03</pdfrwt>
<totfact> 0.26270316E+00</totfact>
</mgrwt>
</event>
<event>
 4    1  0.2731969E-009  0.6588759E+03  0.7818608E-02  0.9790265E-01
          1   -1    0    0  501    0  0.00000000000E+00  0.00000000000E+00  0.67116534456E+03  0.67116534458E+03  0.50400000000E-02 0. -1.
         -1   -1    0    0    0  501 -0.00000000000E+00 -0.00000000000E+00 -0.15660732720E+04  0.15660732720E+04  0.50400000000E-02 0.  1.
    8880022    1    1    2    0    0 -0.42038709181E+03  0.48373595899E+03 -0.13044836816E+04  0.14614359765E+04  0.15294330000E+03 0.  1.
    8880022    1    1    2    0    0  0.42038709181E+03 -0.48373595899E+03  0.40957575411E+03  0.77580264008E+03  0.15294330000E+03 0.  0.
<mgrwt>
<rscale>  0 0.65887589E+03</rscale>
<asrwt>0</asrwt>
<pdfrwt beam="1">  1        1 0.10325621E+00 0.65887589E+03</pdfrwt>
<pdfrwt beam="2">  1       -1 0.24093435E+00 0.65887589E+03</pdfrwt>
<totfact> 0.24626758E+00</totfact>
</mgrwt>
</event>
<event>
 4    1  0.2731969E-009  0.7582192E+03  0.7818608E-02  0.9622543E-01
         -1   -1    0    0    0  501 -0.00000000000E+00  0.00000000000E+00  0.83298081638E+03  0.83298081639E+03  0.50400000000E-02 0.  1.
          1   -1    0    0  501    0  0.00000000000E+00 -0.00000000000E+00 -0.75437292960E+03  0.75437292962E+03  0.50400000000E-02 0. -1.
    8880022    1    1    2    0    0 -0.80123757920E+02 -0.73829862177E+03  0.27084947594E+03  0.80514331837E+03  0.15294330000E+03 0.  0.
    8880022    1    1    2    0    0  0.80123757920E+02  0.73829862177E+03 -0.19224158917E+03  0.78221042764E+03  0.15294330000E+03 0.  0.
<mgrwt>
<rscale>  0 0.75821918E+03</rscale>
<asrwt>0</asrwt>
<pdfrwt beam="1">  1        1 0.11605737E+00 0.75821918E+03</pdfrwt>
<pdfrwt beam="2">  1       -1 0.12815089E+00 0.75821918E+03</pdfrwt>
<totfact> 0.13123550E+01</totfact>
</mgrwt>
</event>
<event>
 4    1  0.2731969E-009  0.1692998E+04  0.7818608E-02  0.8765368E-01
          1   -1    0    0  501    0  0.00000000000E+00  0.00000000000E+00  0.16237657964E+04  0.16237657964E+04  0.50400000000E-02 0. -1.
         -1   -1    0    0    0  501 -0.00000000000E+00 -0.00000000000E+00 -0.17901937650E+04  0.17901937650E+04  0.50400000000E-02 0.  1.
    8880022    1    1    2    0    0  0.62228453501E+03  0.15670391492E+04 -0.28498306643E+03  0.17168158721E+04  0.15294330000E+03 0.  0.
    8880022    1    1    2    0    0 -0.62228453501E+03 -0.15670391492E+04  0.11855509783E+03  0.16971436892E+04  0.15294330000E+03 0.  0.
<mgrwt>
<rscale>  0 0.16929978E+04</rscale>
<asrwt>0</asrwt>
<pdfrwt beam="1">  1        1 0.24981012E+00 0.16929978E+04</pdfrwt>
<pdfrwt beam="2">  1       -1 0.27541443E+00 0.16929978E+04</pdfrwt>
<totfact> 0.23693595E-01</totfact>
</mgrwt>
</event>
<event>
 4    1  0.2731969E-009  0.1649729E+04  0.7818608E-02  0.8790567E-01
          1   -1    0    0  501    0  0.00000000000E+00  0.00000000000E+00  0.26371644209E+04  0.26371644209E+04  0.50400000000E-02 0. -1.
         -1   -1    0    0    0  501 -0.00000000000E+00 -0.00000000000E+00 -0.21400323938E+04  0.21400323938E+04  0.50400000000E-02 0.  1.
    8880022    1    1    2    0    0 -0.78011255572E+03  0.14455580499E+04 -0.14701548757E+04  0.22097422218E+04  0.15294330000E+03 0.  0.
    8880022    1    1    2    0    0  0.78011255572E+03 -0.14455580499E+04  0.19672869029E+04  0.25674545929E+04  0.15294330000E+03 0.  0.
<mgrwt>
<rscale>  0 0.16497289E+04</rscale>
<asrwt>0</asrwt>
<pdfrwt beam="1">  1        1 0.40571760E+00 0.16497289E+04</pdfrwt>
<pdfrwt beam="2">  1       -1 0.32923576E+00 0.16497289E+04</pdfrwt>
<totfact> 0.21390348E-02</totfact>
</mgrwt>
</event>
<event>
 4    1  0.2731969E-009  0.1210960E+04  0.7818608E-02  0.9103317E-01
          1   -1    0    0  501    0  0.00000000000E+00  0.00000000000E+00  0.23925087457E+04  0.23925087457E+04  0.50400000000E-02 0. -1.
         -1   -1    0    0    0  501 -0.00000000000E+00 -0.00000000000E+00 -0.95337923804E+03  0.95337923806E+03  0.50400000000E-02 0.  1.
    8880022    1    1    2    0    0 -0.11903080117E+04  0.16186281177E+03 -0.28015668435E+03  0.12429449518E+04  0.15294330000E+03 0.  0.
    8880022    1    1    2    0    0  0.11903080117E+04 -0.16186281177E+03  0.17192861920E+04  0.21029430319E+04  0.15294330000E+03 0.  0.
<mgrwt>
<rscale>  0 0.12109601E+04</rscale>
<asrwt>0</asrwt>
<pdfrwt beam="1">  1        1 0.36807827E+00 0.12109601E+04</pdfrwt>
<pdfrwt beam="2">  1       -1 0.14667373E+00 0.12109601E+04</pdfrwt>
<totfact> 0.58651883E-01</totfact>
</mgrwt>
</event>
<event>
 4    1  0.9506700E-009  0.1942015E+04  0.7818608E-02  0.8634221E-01
          1   -1    0    0  501    0  0.00000000000E+00  0.00000000000E+00  0.22301215552E+04  0.22301215552E+04  0.50400000000E-02 0. -1.
         -1   -1    0    0    0  501 -0.00000000000E+00 -0.00000000000E+00 -0.34628734944E+04  0.34628734944E+04  0.50400000000E-02 0.  1.
    8880022    1    1    2    0    0 -0.10442675684E+02 -0.19359544630E+04 -0.26524482905E+04  0.32873853317E+04  0.15294330000E+03 0.  0.
    8880022    1    1    2    0    0  0.10442675684E+02  0.19359544630E+04  0.14196963513E+04  0.24056097180E+04  0.15294330000E+03 0.  0.
<mgrwt>
<rscale>  0 0.19420145E+04</rscale>
<asrwt>0</asrwt>
<pdfrwt beam="1">  1        1 0.34309562E+00 0.19420145E+04</pdfrwt>
<pdfrwt beam="2">  1       -1 0.53274977E+00 0.19420145E+04</pdfrwt>
<totfact> 0.17037890E-03</totfact>
</mgrwt>
</event>
<event>
 4    1  0.2731969E-009  0.1464477E+04  0.7818608E-02  0.8908425E-01
         -1   -1    0    0    0  501 -0.00000000000E+00  0.00000000000E+00  0.18525827530E+04  0.18525827530E+04  0.50400000000E-02 0.  1.
          1   -1    0    0  501    0  0.00000000000E+00 -0.00000000000E+00 -0.12679886784E+04  0.12679886784E+04  0.50400000000E-02 0. -1.
    8880022    1    1    2    0    0 -0.14400322725E+04  0.21819616064E+03 -0.16791223430E+03  0.14740721426E+04  0.15294330000E+03 0.  0.
    8880022    1    1    2    0    0  0.14400322725E+04 -0.21819616064E+03  0.75250630890E+03  0.16464992889E+04  0.15294330000E+03 0.  0.
<mgrwt>
<rscale>  0 0.14644774E+04</rscale>
<asrwt>0</asrwt>
<pdfrwt beam="1">  1        1 0.19507518E+00 0.14644774E+04</pdfrwt>
<pdfrwt beam="2">  1       -1 0.28501273E+00 0.14644774E+04</pdfrwt>
<totfact> 0.37480548E-01</totfact>
</mgrwt>
</event>
<event>
 4    1  0.2731969E-009  0.6836065E+03  0.7818608E-02  0.9745685E-01
         -1   -1    0    0    0  501 -0.00000000000E+00  0.00000000000E+00  0.10236718926E+04  0.10236718926E+04  0.50400000000E-02 0.  1.
          1   -1    0    0  501    0  0.00000000000E+00 -0.00000000000E+00 -0.12902616641E+04  0.12902616641E+04  0.50400000000E-02 0. -1.
    8880022    1    1    2    0    0 -0.30241775870E+03 -0.59369160612E+03  0.79674160106E+03  0.10498166772E+04  0.15294330000E+03 0.  0.
    8880022    1    1    2    0    0  0.30241775870E+03  0.59369160612E+03 -0.10633313726E+04  0.12641168794E+04  0.15294330000E+03 0.  0.
<mgrwt>
<rscale>  0 0.68360652E+03</rscale>
<asrwt>0</asrwt>
<pdfrwt beam="1">  1        1 0.19850179E+00 0.68360652E+03</pdfrwt>
<pdfrwt beam="2">  1       -1 0.15748798E+00 0.68360652E+03</pdfrwt>
<totfact> 0.29626715E+00</totfact>
</mgrwt>
</event>
<event>
 4    1  0.2731969E-009  0.7637551E+03  0.7818608E-02  0.9614015E-01
         -1   -1    0    0    0  501 -0.00000000000E+00  0.00000000000E+00  0.34390070319E+03  0.34390070323E+03  0.50400000000E-02 0.  1.
          1   -1    0    0  501    0  0.00000000000E+00 -0.00000000000E+00 -0.22799214536E+04  0.22799214536E+04  0.50400000000E-02 0. -1.
    8880022    1    1    2    0    0  0.67032893780E+03 -0.33254974927E+03 -0.30419090263E+03  0.82210338696E+03  0.15294330000E+03 0.  0.
    8880022    1    1    2    0    0 -0.67032893780E+03  0.33254974927E+03 -0.16318298478E+04  0.18017187699E+04  0.15294330000E+03 0.  0.
<mgrwt>
<rscale>  0 0.76375511E+03</rscale>
<asrwt>0</asrwt>
<pdfrwt beam="1">  1        1 0.35075714E+00 0.76375511E+03</pdfrwt>
<pdfrwt beam="2">  1       -1 0.52907802E-01 0.76375511E+03</pdfrwt>
<totfact> 0.72648181E+00</totfact>
</mgrwt>
</event>
<event>
 4    1  0.2731969E-009  0.1198436E+04  0.7818608E-02  0.9114227E-01
          1   -1    0    0  501    0  0.00000000000E+00  0.00000000000E+00  0.15277265043E+04  0.15277265043E+04  0.50400000000E-02 0. -1.
         -1   -1    0    0    0  501 -0.00000000000E+00 -0.00000000000E+00 -0.17735651842E+04  0.17735651842E+04  0.50400000000E-02 0.  1.
    8880022    1    1    2    0    0  0.49971115547E+03  0.10784921133E+04 -0.12544557264E+04  0.17349084414E+04  0.15294330000E+03 0.  0.
    8880022    1    1    2    0    0 -0.49971115547E+03 -0.10784921133E+04  0.10086170465E+04  0.15663832471E+04  0.15294330000E+03 0.  0.
<mgrwt>
<rscale>  0 0.11984357E+04</rscale>
<asrwt>0</asrwt>
<pdfrwt beam="1">  1        1 0.23503485E+00 0.11984357E+04</pdfrwt>
<pdfrwt beam="2">  1       -1 0.27285618E+00 0.11984357E+04</pdfrwt>
<totfact> 0.30444911E-01</totfact>
</mgrwt>
</event>
<event>
 4    1  0.2731969E-009  0.5803348E+03  0.7818608E-02  0.9947067E-01
         -1   -1    0    0    0  501 -0.00000000000E+00  0.00000000000E+00  0.19630662184E+03  0.19630662191E+03  0.50400000000E-02 0.  1.
          1   -1    0    0  501    0  0.00000000000E+00 -0.00000000000E+00 -0.19617989015E+04  0.19617989015E+04  0.50400000000E-02 0. -1.
    8880022    1    1    2    0    0 -0.50315137473E+03 -0.24542914317E+03 -0.50050537372E+03  0.76635112863E+03  0.15294330000E+03 0.  0.
    8880022    1    1    2    0    0  0.50315137473E+03  0.24542914317E+03 -0.12649869060E+04  0.13917543948E+04  0.15294330000E+03 0.  0.
<mgrwt>
<rscale>  0 0.58033475E+03</rscale>
<asrwt>0</asrwt>
<pdfrwt beam="1">  1        1 0.30181520E+00 0.58033475E+03</pdfrwt>
<pdfrwt beam="2">  1       -1 0.30201020E-01 0.58033475E+03</pdfrwt>
<totfact> 0.33877816E+01</totfact>
</mgrwt>
</event>
<event>
 4    1  0.2731969E-009  0.9941028E+03  0.7818608E-02  0.9315036E-01
         -1   -1    0    0    0  501 -0.00000000000E+00  0.00000000000E+00  0.77438990679E+03  0.77438990681E+03  0.50400000000E-02 0.  1.
          1   -1    0    0  501    0  0.00000000000E+00 -0.00000000000E+00 -0.15218755017E+04  0.15218755017E+04  0.50400000000E-02 0. -1.
    8880022    1    1    2    0    0 -0.71173860549E+03  0.67696150970E+03  0.87600862976E+02  0.99795505528E+03  0.15294330000E+03 0.  0.
    8880022    1    1    2    0    0  0.71173860549E+03 -0.67696150970E+03 -0.83508645791E+03  0.12983103533E+04  0.15294330000E+03 0.  0.
<mgrwt>
<rscale>  0 0.99410280E+03</rscale>
<asrwt>0</asrwt>
<pdfrwt beam="1">  1        1 0.23413469E+00 0.99410280E+03</pdfrwt>
<pdfrwt beam="2">  1       -1 0.11913691E+00 0.99410280E+03</pdfrwt>
<totfact> 0.40061358E+00</totfact>
</mgrwt>
</event>
<event>
 4    1  0.2731969E-009  0.7026962E+03  0.7818608E-02  0.9712632E-01
          1   -1    0    0  501    0  0.00000000000E+00  0.00000000000E+00  0.15969207084E+04  0.15969207084E+04  0.50400000000E-02 0. -1.
         -1   -1    0    0    0  501 -0.00000000000E+00 -0.00000000000E+00 -0.69098154491E+03  0.69098154493E+03  0.50400000000E-02 0.  1.
    8880022    1    1    2    0    0  0.55682723576E+03  0.40041694554E+03  0.13032784336E+04  0.14806473683E+04  0.15294330000E+03 0.  0.
    8880022    1    1    2    0    0 -0.55682723576E+03 -0.40041694554E+03 -0.39733927015E+03  0.80725488501E+03  0.15294330000E+03 0.  0.
<mgrwt>
<rscale>  0 0.70269620E+03</rscale>
<asrwt>0</asrwt>
<pdfrwt beam="1">  1        1 0.24568011E+00 0.70269620E+03</pdfrwt>
<pdfrwt beam="2">  1       -1 0.10630485E+00 0.70269620E+03</pdfrwt>
<totfact> 0.48800159E+00</totfact>
</mgrwt>
</event>
<event>
 4    1  0.2731969E-009  0.6865457E+03  0.7818608E-02  0.9740522E-01
          1   -1    0    0  501    0  0.00000000000E+00  0.00000000000E+00  0.10663319121E+04  0.10663319121E+04  0.50400000000E-02 0. -1.
         -1   -1    0    0    0  501 -0.00000000000E+00 -0.00000000000E+00 -0.21126527753E+04  0.21126527753E+04  0.50400000000E-02 0.  1.
    8880022    1    1    2    0    0 -0.47623585041E+03 -0.47026882672E+03 -0.19366228644E+04  0.20547148528E+04  0.15294330000E+03 0.  0.
    8880022    1    1    2    0    0  0.47623585041E+03  0.47026882672E+03  0.89030200118E+03  0.11242698346E+04  0.15294330000E+03 0.  0.
<mgrwt>
<rscale>  0 0.68654571E+03</rscale>
<asrwt>0</asrwt>
<pdfrwt beam="1">  1        1 0.16405106E+00 0.68654571E+03</pdfrwt>
<pdfrwt beam="2">  1       -1 0.32502350E+00 0.68654571E+03</pdfrwt>
<totfact> 0.33127618E-01</totfact>
</mgrwt>
</event>
<event>
 4    1  0.2731969E-009  0.6994760E+03  0.7818608E-02  0.9718129E-01
          1   -1    0    0  501    0  0.00000000000E+00  0.00000000000E+00  0.25269977493E+04  0.25269977493E+04  0.50400000000E-02 0. -1.
         -1   -1    0    0    0  501 -0.00000000000E+00 -0.00000000000E+00 -0.28409623135E+03  0.28409623139E+03  0.50400000000E-02 0.  1.
    8880022    1    1    2    0    0  0.14478702216E+03 -0.66701700936E+03  0.19146641300E+04  0.20384320828E+04  0.15294330000E+03 0.  0.
    8880022    1    1    2    0    0 -0.14478702216E+03  0.66701700936E+03  0.32823738796E+03  0.77266189788E+03  0.15294330000E+03 0.  0.
<mgrwt>
<rscale>  0 0.69947596E+03</rscale>
<asrwt>0</asrwt>
<pdfrwt beam="1">  1        1 0.38876889E+00 0.69947596E+03</pdfrwt>
<pdfrwt beam="2">  1       -1 0.43707112E-01 0.69947596E+03</pdfrwt>
<totfact> 0.71537223E+00</totfact>
</mgrwt>
</event>
<event>
 4    1  0.2731969E-009  0.6411880E+03  0.7818608E-02  0.9823456E-01
         -1   -1    0    0    0  501 -0.00000000000E+00  0.00000000000E+00  0.28345123003E+04  0.28345123003E+04  0.50400000000E-02 0.  1.
          1   -1    0    0  501    0  0.00000000000E+00 -0.00000000000E+00 -0.20617180518E+03  0.20617180525E+03  0.50400000000E-02 0. -1.
    8880022    1    1    2    0    0 -0.61816971118E+03  0.74810103058E+02  0.21420263465E+04  0.22359335557E+04  0.15294330000E+03 0.  0.
    8880022    1    1    2    0    0  0.61816971118E+03 -0.74810103058E+02  0.48631414860E+03  0.80475054985E+03  0.15294330000E+03 0.  0.
<mgrwt>
<rscale>  0 0.64118796E+03</rscale>
<asrwt>0</asrwt>
<pdfrwt beam="1">  1        1 0.31718741E-01 0.64118796E+03</pdfrwt>
<pdfrwt beam="2">  1       -1 0.43607879E+00 0.64118796E+03</pdfrwt>
<totfact> 0.63018317E-01</totfact>
</mgrwt>
</event>
<event>
 4    1  0.2731969E-009  0.6890192E+03  0.7818608E-02  0.9736197E-01
         -1   -1    0    0    0  501 -0.00000000000E+00  0.00000000000E+00  0.16772592249E+04  0.16772592249E+04  0.50400000000E-02 0.  1.
          1   -1    0    0  501    0  0.00000000000E+00 -0.00000000000E+00 -0.81974466667E+03  0.81974466668E+03  0.50400000000E-02 0. -1.
    8880022    1    1    2    0    0  0.48476488218E+03 -0.46514386940E+03  0.14389721258E+04  0.15954272914E+04  0.15294330000E+03 0.  0.
    8880022    1    1    2    0    0 -0.48476488218E+03  0.46514386940E+03 -0.58145756754E+03  0.90157660024E+03  0.15294330000E+03 0.  0.
<mgrwt>
<rscale>  0 0.68901920E+03</rscale>
<asrwt>0</asrwt>
<pdfrwt beam="1">  1        1 0.12611457E+00 0.68901920E+03</pdfrwt>
<pdfrwt beam="2">  1       -1 0.25803988E+00 0.68901920E+03</pdfrwt>
<totfact> 0.13951973E+00</totfact>
</mgrwt>
</event>
<event>
 4    1  0.2731969E-009  0.2640026E+03  0.7818608E-02  0.1104762E+00
         -1   -1    0    0    0  501 -0.00000000000E+00  0.00000000000E+00  0.45098894916E+03  0.45098894919E+03  0.50400000000E-02 0.  1.
          1   -1    0    0  501    0  0.00000000000E+00 -0.00000000000E+00 -0.75355453390E+03  0.75355453391E+03  0.50400000000E-02 0. -1.
    8880022    1    1    2    0    0 -0.21417667002E+03 -0.20833815669E+02 -0.68825598568E+03  0.73715239177E+03  0.15294330000E+03 0. -1.
    8880022    1    1    2    0    0  0.21417667002E+03  0.20833815669E+02  0.38569040094E+03  0.46739109132E+03  0.15294330000E+03 0.  0.
<mgrwt>
<rscale>  0 0.26400255E+03</rscale>
<asrwt>0</asrwt>
<pdfrwt beam="1">  1        1 0.11593147E+00 0.26400255E+03</pdfrwt>
<pdfrwt beam="2">  1       -1 0.69382915E-01 0.26400255E+03</pdfrwt>
<totfact> 0.56069200E+01</totfact>
</mgrwt>
</event>
<event>
 4    1  0.2731969E-009  0.1011814E+04  0.7818608E-02  0.9295682E-01
          1   -1    0    0  501    0  0.00000000000E+00  0.00000000000E+00  0.11104534122E+04  0.11104534122E+04  0.50400000000E-02 0. -1.
         -1   -1    0    0    0  501 -0.00000000000E+00 -0.00000000000E+00 -0.15713856880E+04  0.15713856880E+04  0.50400000000E-02 0.  1.
    8880022    1    1    2    0    0  0.58045589016E+03  0.81452224857E+03 -0.10925192402E+04  0.14890820921E+04  0.15294330000E+03 0.  0.
    8880022    1    1    2    0    0 -0.58045589016E+03 -0.81452224857E+03  0.63158696434E+03  0.11927570081E+04  0.15294330000E+03 0.  0.
<mgrwt>
<rscale>  0 0.10118138E+04</rscale>
<asrwt>0</asrwt>
<pdfrwt beam="1">  1        1 0.17083899E+00 0.10118138E+04</pdfrwt>
<pdfrwt beam="2">  1       -1 0.24175164E+00 0.10118138E+04</pdfrwt>
<totfact> 0.98903493E-01</totfact>
</mgrwt>
</event>
<event>
 4    1  0.2731969E-009  0.6898779E+03  0.7818608E-02  0.9734701E-01
         -1   -1    0    0    0  501 -0.00000000000E+00  0.00000000000E+00  0.87362669932E+03  0.87362669934E+03  0.50400000000E-02 0.  1.
          1   -1    0    0  501    0  0.00000000000E+00 -0.00000000000E+00 -0.10029378463E+04  0.10029378463E+04  0.50400000000E-02 0. -1.
    8880022    1    1    2    0    0 -0.65700882110E+03  0.14449661420E+03 -0.69882544431E+03  0.98198193321E+03  0.15294330000E+03 0. -1.
    8880022    1    1    2    0    0  0.65700882110E+03 -0.14449661420E+03  0.56951429736E+03  0.89458261241E+03  0.15294330000E+03 0.  0.
<mgrwt>
<rscale>  0 0.68987790E+03</rscale>
<asrwt>0</asrwt>
<pdfrwt beam="1">  1        1 0.15429813E+00 0.68987790E+03</pdfrwt>
<pdfrwt beam="2">  1       -1 0.13440411E+00 0.68987790E+03</pdfrwt>
<totfact> 0.73200278E+00</totfact>
</mgrwt>
</event>
<event>
 4    1  0.2731969E-009  0.4113429E+03  0.7818608E-02  0.1039921E+00
         -1   -1    0    0    0  501 -0.00000000000E+00  0.00000000000E+00  0.10361679709E+03  0.10361679721E+03  0.50400000000E-02 0.  1.
          1   -1    0    0  501    0  0.00000000000E+00 -0.00000000000E+00 -0.20330233929E+04  0.20330233929E+04  0.50400000000E-02 0. -1.
    8880022    1    1    2    0    0 -0.32954512913E+03 -0.19290249700E+03 -0.14386065913E+04  0.14962593168E+04  0.15294330000E+03 0.  0.
    8880022    1    1    2    0    0  0.32954512913E+03  0.19290249700E+03 -0.49080000444E+03  0.64038087327E+03  0.15294330000E+03 0.  0.
<mgrwt>
<rscale>  0 0.41134295E+03</rscale>
<asrwt>0</asrwt>
<pdfrwt beam="1">  1        1 0.31277280E+00 0.41134295E+03</pdfrwt>
<pdfrwt beam="2">  1       -1 0.15941047E-01 0.41134295E+03</pdfrwt>
<totfact> 0.91088584E+01</totfact>
</mgrwt>
</event>
<event>
 4    1  0.2731969E-009  0.5587930E+03  0.7818608E-02  0.9994790E-01
          1   -1    0    0  501    0  0.00000000000E+00  0.00000000000E+00  0.13990579397E+04  0.13990579397E+04  0.50400000000E-02 0. -1.
         -1   -1    0    0    0  501 -0.00000000000E+00 -0.00000000000E+00 -0.56919369133E+03  0.56919369135E+03  0.50400000000E-02 0.  1.
    8880022    1    1    2    0    0  0.41906900316E+03  0.33651014785E+03 -0.35236527020E+03  0.66061399142E+03  0.15294330000E+03 0.  0.
    8880022    1    1    2    0    0 -0.41906900316E+03 -0.33651014785E+03  0.11822295185E+04  0.13076376396E+04  0.15294330000E+03 0. -1.
<mgrwt>
<rscale>  0 0.55879295E+03</rscale>
<asrwt>0</asrwt>
<pdfrwt beam="1">  1        1 0.21523968E+00 0.55879295E+03</pdfrwt>
<pdfrwt beam="2">  1       -1 0.87568261E-01 0.55879295E+03</pdfrwt>
<totfact> 0.10576677E+01</totfact>
</mgrwt>
</event>
<event>
 4    1  0.2731969E-009  0.1368293E+04  0.7818608E-02  0.8977095E-01
         -1   -1    0    0    0  501 -0.00000000000E+00  0.00000000000E+00  0.12937006219E+04  0.12937006220E+04  0.50400000000E-02 0.  1.
          1   -1    0    0  501    0  0.00000000000E+00 -0.00000000000E+00 -0.34640815231E+04  0.34640815231E+04  0.50400000000E-02 0. -1.
    8880022    1    1    2    0    0  0.13379131946E+04  0.24253107452E+03 -0.29003811881E+04  0.32069355664E+04  0.15294330000E+03 0.  0.
    8880022    1    1    2    0    0 -0.13379131946E+04 -0.24253107452E+03  0.73000028696E+03  0.15508465786E+04  0.15294330000E+03 0.  0.
<mgrwt>
<rscale>  0 0.13682926E+04</rscale>
<asrwt>0</asrwt>
<pdfrwt beam="1">  1        1 0.53293561E+00 0.13682926E+04</pdfrwt>
<pdfrwt beam="2">  1       -1 0.19903087E+00 0.13682926E+04</pdfrwt>
<totfact> 0.39566716E-02</totfact>
</mgrwt>
</event>
<event>
 4    1  0.2731969E-009  0.1402319E+04  0.7818608E-02  0.8952142E-01
         -1   -1    0    0    0  501 -0.00000000000E+00  0.00000000000E+00  0.19940586326E+04  0.19940586326E+04  0.50400000000E-02 0.  1.
          1   -1    0    0  501    0  0.00000000000E+00 -0.00000000000E+00 -0.23996216127E+04  0.23996216127E+04  0.50400000000E-02 0. -1.
    8880022    1    1    2    0    0  0.13743747326E+04 -0.23281205113E+03  0.14832517771E+04  0.20412091622E+04  0.15294330000E+03 0.  0.
    8880022    1    1    2    0    0 -0.13743747326E+04  0.23281205113E+03 -0.18888147572E+04  0.23524710831E+04  0.15294330000E+03 0.  0.
<mgrwt>
<rscale>  0 0.14023192E+04</rscale>
<asrwt>0</asrwt>
<pdfrwt beam="1">  1        1 0.36917256E+00 0.14023192E+04</pdfrwt>
<pdfrwt beam="2">  1       -1 0.30677825E+00 0.14023192E+04</pdfrwt>
<totfact> 0.45398773E-02</totfact>
</mgrwt>
</event>
<event>
 4    1  0.2731969E-009  0.6772113E+03  0.7818608E-02  0.9757018E-01
          1   -1    0    0  501    0  0.00000000000E+00  0.00000000000E+00  0.11367893332E+04  0.11367893332E+04  0.50400000000E-02 0. -1.
         -1   -1    0    0    0  501 -0.00000000000E+00 -0.00000000000E+00 -0.46869692766E+03  0.46869692769E+03  0.50400000000E-02 0.  1.
    8880022    1    1    2    0    0 -0.50154751309E+03 -0.42857149676E+03  0.34491158358E+02  0.67808902715E+03  0.15294330000E+03 0.  0.
    8880022    1    1    2    0    0  0.50154751309E+03  0.42857149676E+03  0.63360124720E+03  0.92739723376E+03  0.15294330000E+03 0.  0.
<mgrwt>
<rscale>  0 0.67721126E+03</rscale>
<asrwt>0</asrwt>
<pdfrwt beam="1">  1        1 0.17489066E+00 0.67721126E+03</pdfrwt>
<pdfrwt beam="2">  1       -1 0.72107221E-01 0.67721126E+03</pdfrwt>
<totfact> 0.23992983E+01</totfact>
</mgrwt>
</event>
<event>
 4    1  0.2731969E-009  0.1694497E+04  0.7818608E-02  0.8764509E-01
         -1   -1    0    0    0  501 -0.00000000000E+00  0.00000000000E+00  0.21583555149E+04  0.21583555149E+04  0.50400000000E-02 0.  1.
          1   -1    0    0  501    0  0.00000000000E+00 -0.00000000000E+00 -0.15896378010E+04  0.15896378010E+04  0.50400000000E-02 0. -1.
    8880022    1    1    2    0    0 -0.73569977373E+03  0.15187743609E+04 -0.47252450186E+03  0.17591477409E+04  0.15294330000E+03 0.  0.
    8880022    1    1    2    0    0  0.73569977373E+03 -0.15187743609E+04  0.10412422157E+04  0.19888455750E+04  0.15294330000E+03 0.  0.
<mgrwt>
<rscale>  0 0.16944974E+04</rscale>
<asrwt>0</asrwt>
<pdfrwt beam="1">  1        1 0.24455966E+00 0.16944974E+04</pdfrwt>
<pdfrwt beam="2">  1       -1 0.33205469E+00 0.16944974E+04</pdfrwt>
<totfact> 0.10698668E-01</totfact>
</mgrwt>
</event>
<event>
 4    1  0.2731969E-009  0.1127184E+04  0.7818608E-02  0.9179094E-01
         -1   -1    0    0    0  501 -0.00000000000E+00  0.00000000000E+00  0.39532758091E+03  0.39532758095E+03  0.50400000000E-02 0.  1.
          1   -1    0    0  501    0  0.00000000000E+00 -0.00000000000E+00 -0.37776357272E+04  0.37776357272E+04  0.50400000000E-02 0. -1.
    8880022    1    1    2    0    0  0.97722056897E+03  0.54054804357E+03 -0.24971665372E+04  0.27397782018E+04  0.15294330000E+03 0.  0.
    8880022    1    1    2    0    0 -0.97722056897E+03 -0.54054804357E+03 -0.88514160916E+03  0.14331851064E+04  0.15294330000E+03 0.  0.
<mgrwt>
<rscale>  0 0.11271840E+04</rscale>
<asrwt>0</asrwt>
<pdfrwt beam="1">  1        1 0.58117470E+00 0.11271840E+04</pdfrwt>
<pdfrwt beam="2">  1       -1 0.60819630E-01 0.11271840E+04</pdfrwt>
<totfact> 0.41818370E-01</totfact>
</mgrwt>
</event>
<event>
 4    1  0.2731969E-009  0.2346773E+03  0.7818608E-02  0.1123390E+00
          1   -1    0    0  501    0  0.00000000000E+00  0.00000000000E+00  0.31944738635E+03  0.31944738639E+03  0.50400000000E-02 0. -1.
         -1   -1    0    0    0  501 -0.00000000000E+00 -0.00000000000E+00 -0.12301070210E+04  0.12301070211E+04  0.50400000000E-02 0.  1.
    8880022    1    1    2    0    0 -0.10893611939E+03  0.14076468771E+03  0.26310542747E+03  0.35255906511E+03  0.15294330000E+03 0. -1.
    8880022    1    1    2    0    0  0.10893611939E+03 -0.14076468771E+03 -0.11737650622E+04  0.11969953423E+04  0.15294330000E+03 0.  0.
<mgrwt>
<rscale>  0 0.23467729E+03</rscale>
<asrwt>0</asrwt>
<pdfrwt beam="1">  1        1 0.49145753E-01 0.23467729E+03</pdfrwt>
<pdfrwt beam="2">  1       -1 0.18924723E+00 0.23467729E+03</pdfrwt>
<totfact> 0.16362090E+01</totfact>
</mgrwt>
</event>
<event>
 4    1  0.2731969E-009  0.3143274E+03  0.7818608E-02  0.1078290E+00
         -1   -1    0    0    0  501 -0.00000000000E+00  0.00000000000E+00  0.12265927015E+03  0.12265927026E+03  0.50400000000E-02 0.  1.
          1   -1    0    0  501    0  0.00000000000E+00 -0.00000000000E+00 -0.17259824671E+04  0.17259824671E+04  0.50400000000E-02 0. -1.
    8880022    1    1    2    0    0 -0.18841807971E+03 -0.19977152889E+03 -0.14766759508E+04  0.15097594355E+04  0.15294330000E+03 0.  0.
    8880022    1    1    2    0    0  0.18841807971E+03  0.19977152889E+03 -0.12664724614E+03  0.33888230182E+03  0.15294330000E+03 0.  0.
<mgrwt>
<rscale>  0 0.31432736E+03</rscale>
<asrwt>0</asrwt>
<pdfrwt beam="1">  1        1 0.26553575E+00 0.31432736E+03</pdfrwt>
<pdfrwt beam="2">  1       -1 0.18870658E-01 0.31432736E+03</pdfrwt>
<totfact> 0.11239508E+02</totfact>
</mgrwt>
</event>
<event>
 4    1  0.2731969E-009  0.1187028E+04  0.7818608E-02  0.9124287E-01
         -1   -1    0    0    0  501 -0.00000000000E+00  0.00000000000E+00  0.44066394653E+03  0.44066394656E+03  0.50400000000E-02 0.  1.
          1   -1    0    0  501    0  0.00000000000E+00 -0.00000000000E+00 -0.33675028440E+04  0.33675028440E+04  0.50400000000E-02 0. -1.
    8880022    1    1    2    0    0 -0.34766928598E+03  0.11246199769E+04 -0.18912021641E+04  0.22328639240E+04  0.15294330000E+03 0.  0.
    8880022    1    1    2    0    0  0.34766928598E+03 -0.11246199769E+04 -0.10356367334E+04  0.15753028666E+04  0.15294330000E+03 0.  0.
<mgrwt>
<rscale>  0 0.11870281E+04</rscale>
<asrwt>0</asrwt>
<pdfrwt beam="1">  1        1 0.51807735E+00 0.11870281E+04</pdfrwt>
<pdfrwt beam="2">  1       -1 0.67794455E-01 0.11870281E+04</pdfrwt>
<totfact> 0.70310459E-01</totfact>
</mgrwt>
</event>
<event>
 4    1  0.2731969E-009  0.1250103E+04  0.7818608E-02  0.9070098E-01
         -1   -1    0    0    0  501 -0.00000000000E+00  0.00000000000E+00  0.13626048356E+04  0.13626048356E+04  0.50400000000E-02 0.  1.
          1   -1    0    0  501    0  0.00000000000E+00 -0.00000000000E+00 -0.13866740887E+04  0.13866740887E+04  0.50400000000E-02 0. -1.
    8880022    1    1    2    0    0  0.11935135979E+04  0.33895569816E+03 -0.58366084740E+03  0.13796439075E+04  0.15294330000E+03 0.  0.
    8880022    1    1    2    0    0 -0.11935135979E+04 -0.33895569816E+03  0.55959159438E+03  0.13696350168E+04  0.15294330000E+03 0.  0.
<mgrwt>
<rscale>  0 0.12501029E+04</rscale>
<asrwt>0</asrwt>
<pdfrwt beam="1">  1        1 0.21333448E+00 0.12501029E+04</pdfrwt>
<pdfrwt beam="2">  1       -1 0.20963151E+00 0.12501029E+04</pdfrwt>
<totfact> 0.98862716E-01</totfact>
</mgrwt>
</event>
<event>
 4    1  0.2731969E-009  0.5821221E+03  0.7818608E-02  0.9943207E-01
         -1   -1    0    0    0  501 -0.00000000000E+00  0.00000000000E+00  0.14194140466E+04  0.14194140466E+04  0.50400000000E-02 0.  1.
          1   -1    0    0  501    0  0.00000000000E+00 -0.00000000000E+00 -0.40176431693E+03  0.40176431696E+03  0.50400000000E-02 0. -1.
    8880022    1    1    2    0    0 -0.80828760214E+02 -0.55582476957E+03 -0.71227896148E+02  0.58646357870E+03  0.15294330000E+03 0.  0.
    8880022    1    1    2    0    0  0.80828760214E+02  0.55582476957E+03  0.10888776258E+04  0.12347147848E+04  0.15294330000E+03 0.  0.
<mgrwt>
<rscale>  0 0.58212208E+03</rscale>
<asrwt>0</asrwt>
<pdfrwt beam="1">  1        1 0.61809895E-01 0.58212208E+03</pdfrwt>
<pdfrwt beam="2">  1       -1 0.21837139E+00 0.58212208E+03</pdfrwt>
<totfact> 0.71438389E+00</totfact>
</mgrwt>
</event>
<event>
 4    1  0.2731969E-009  0.1102310E+04  0.7818608E-02  0.9202944E-01
         -1   -1    0    0    0  501 -0.00000000000E+00  0.00000000000E+00  0.14810910429E+04  0.14810910429E+04  0.50400000000E-02 0.  1.
          1   -1    0    0  501    0  0.00000000000E+00 -0.00000000000E+00 -0.14603688160E+04  0.14603688160E+04  0.50400000000E-02 0. -1.
    8880022    1    1    2    0    0  0.69389870801E+03  0.84273337151E+03 -0.96324024840E+03  0.14638710263E+04  0.15294330000E+03 0.  0.
    8880022    1    1    2    0    0 -0.69389870801E+03 -0.84273337151E+03  0.98396247536E+03  0.14775888326E+04  0.15294330000E+03 0.  0.
<mgrwt>
<rscale>  0 0.11023097E+04</rscale>
<asrwt>0</asrwt>
<pdfrwt beam="1">  1        1 0.22467213E+00 0.11023097E+04</pdfrwt>
<pdfrwt beam="2">  1       -1 0.22786016E+00 0.11023097E+04</pdfrwt>
<totfact> 0.67533986E-01</totfact>
</mgrwt>
</event>
<event>
 4    1  0.2731969E-009  0.1364828E+04  0.7818608E-02  0.8979679E-01
          1   -1    0    0  501    0  0.00000000000E+00  0.00000000000E+00  0.26467809168E+04  0.26467809168E+04  0.50400000000E-02 0. -1.
         -1   -1    0    0    0  501 -0.00000000000E+00 -0.00000000000E+00 -0.11838735254E+04  0.11838735254E+04  0.50400000000E-02 0.  1.
    8880022    1    1    2    0    0 -0.84766220184E+03 -0.10586936828E+04  0.19511525577E+04  0.23811239949E+04  0.15294330000E+03 0.  0.
    8880022    1    1    2    0    0  0.84766220184E+03  0.10586936828E+04 -0.48824516629E+03  0.14495304474E+04  0.15294330000E+03 0.  0.
<mgrwt>
<rscale>  0 0.13648279E+04</rscale>
<asrwt>0</asrwt>
<pdfrwt beam="1">  1        1 0.40719706E+00 0.13648279E+04</pdfrwt>
<pdfrwt beam="2">  1       -1 0.18213439E+00 0.13648279E+04</pdfrwt>
<totfact> 0.20720161E-01</totfact>
</mgrwt>
</event>
<event>
 4    1  0.2731969E-009  0.2801196E+03  0.7818608E-02  0.1095624E+00
         -1   -1    0    0    0  501 -0.00000000000E+00  0.00000000000E+00  0.16249119742E+03  0.16249119750E+03  0.50400000000E-02 0.  1.
          1   -1    0    0  501    0  0.00000000000E+00 -0.00000000000E+00 -0.19155868606E+04  0.19155868606E+04  0.50400000000E-02 0. -1.
    8880022    1    1    2    0    0  0.22311149981E+03  0.72777786369E+02  0.22031808411E+02  0.28098469911E+03  0.15294330000E+03 0.  1.
    8880022    1    1    2    0    0 -0.22311149981E+03 -0.72777786369E+02 -0.17751274716E+04  0.17970933590E+04  0.15294330000E+03 0.  0.
<mgrwt>
<rscale>  0 0.28011962E+03</rscale>
<asrwt>0</asrwt>
<pdfrwt beam="1">  1        1 0.29470566E+00 0.28011962E+03</pdfrwt>
<pdfrwt beam="2">  1       -1 0.24998647E-01 0.28011962E+03</pdfrwt>
<totfact> 0.53655603E+01</totfact>
</mgrwt>
</event>
<event>
 4    1  0.2731969E-009  0.9870125E+03  0.7818608E-02  0.9322905E-01
          1   -1    0    0  501    0  0.00000000000E+00  0.00000000000E+00  0.15336022197E+04  0.15336022197E+04  0.50400000000E-02 0. -1.
         -1   -1    0    0    0  501 -0.00000000000E+00 -0.00000000000E+00 -0.75757311697E+03  0.75757311699E+03  0.50400000000E-02 0.  1.
    8880022    1    1    2    0    0  0.86992287400E+03  0.44049538381E+03  0.84837898779E+03  0.13015147136E+04  0.15294330000E+03 0.  0.
    8880022    1    1    2    0    0 -0.86992287400E+03 -0.44049538381E+03 -0.72349885098E+02  0.98966062302E+03  0.15294330000E+03 0.  0.
<mgrwt>
<rscale>  0 0.98701248E+03</rscale>
<asrwt>0</asrwt>
<pdfrwt beam="1">  1        1 0.23593880E+00 0.98701248E+03</pdfrwt>
<pdfrwt beam="2">  1       -1 0.11654971E+00 0.98701248E+03</pdfrwt>
<totfact> 0.41515183E+00</totfact>
</mgrwt>
</event>
<event>
 4    1  0.2731969E-009  0.7960261E+03  0.7818608E-02  0.9565787E-01
          1   -1    0    0  501    0  0.00000000000E+00  0.00000000000E+00  0.21626404547E+04  0.21626404547E+04  0.50400000000E-02 0. -1.
         -1   -1    0    0    0  501 -0.00000000000E+00 -0.00000000000E+00 -0.87413061924E+03  0.87413061925E+03  0.50400000000E-02 0.  1.
    8880022    1    1    2    0    0  0.74790128226E+03  0.22563137760E+03  0.18822818900E+04  0.20436835893E+04  0.15294330000E+03 0.  0.
    8880022    1    1    2    0    0 -0.74790128226E+03 -0.22563137760E+03 -0.59377205451E+03  0.99308748472E+03  0.15294330000E+03 0.  0.
<mgrwt>
<rscale>  0 0.79602607E+03</rscale>
<asrwt>0</asrwt>
<pdfrwt beam="1">  1        1 0.33271391E+00 0.79602607E+03</pdfrwt>
<pdfrwt beam="2">  1       -1 0.13448163E+00 0.79602607E+03</pdfrwt>
<totfact> 0.11289402E+00</totfact>
</mgrwt>
</event>
<event>
 4    1  0.2731969E-009  0.1117968E+04  0.7818608E-02  0.9187854E-01
          1   -1    0    0  501    0  0.00000000000E+00  0.00000000000E+00  0.46613434916E+04  0.46613434916E+04  0.50400000000E-02 0. -1.
         -1   -1    0    0    0  501 -0.00000000000E+00 -0.00000000000E+00 -0.66184056416E+03  0.66184056418E+03  0.50400000000E-02 0.  1.
    8880022    1    1    2    0    0  0.10961037252E+04  0.15816675082E+03 -0.53076965380E+02  0.11192269273E+04  0.15294330000E+03 0.  0.
    8880022    1    1    2    0    0 -0.10961037252E+04 -0.15816675082E+03  0.40525798928E+04  0.42039571285E+04  0.15294330000E+03 0.  0.
<mgrwt>
<rscale>  0 0.11179677E+04</rscale>
<asrwt>0</asrwt>
<pdfrwt beam="1">  1        1 0.71712974E+00 0.11179677E+04</pdfrwt>
<pdfrwt beam="2">  1       -1 0.10182163E+00 0.11179677E+04</pdfrwt>
<totfact> 0.20904292E-02</totfact>
</mgrwt>
</event>
<event>
 4    1  0.2731969E-009  0.7533415E+03  0.7818608E-02  0.9630123E-01
         -1   -1    0    0    0  501 -0.00000000000E+00  0.00000000000E+00  0.52502232662E+03  0.52502232665E+03  0.50400000000E-02 0.  1.
          1   -1    0    0  501    0  0.00000000000E+00 -0.00000000000E+00 -0.22498984603E+04  0.22498984604E+04  0.50400000000E-02 0. -1.
    8880022    1    1    2    0    0  0.72736894082E+03 -0.12274434202E+03  0.13764628839E+03  0.76581323003E+03  0.15294330000E+03 0.  0.
    8880022    1    1    2    0    0 -0.72736894082E+03  0.12274434202E+03 -0.18625224221E+04  0.20091075570E+04  0.15294330000E+03 0. -1.
<mgrwt>
<rscale>  0 0.75334149E+03</rscale>
<asrwt>0</asrwt>
<pdfrwt beam="1">  1        1 0.34613822E+00 0.75334149E+03</pdfrwt>
<pdfrwt beam="2">  1       -1 0.80772667E-01 0.75334149E+03</pdfrwt>
<totfact> 0.32502245E+00</totfact>
</mgrwt>
</event>
<event>
 4    1  0.2731969E-009  0.1041413E+04  0.7818608E-02  0.9264255E-01
          1   -1    0    0  501    0  0.00000000000E+00  0.00000000000E+00  0.30178647640E+04  0.30178647640E+04  0.50400000000E-02 0. -1.
         -1   -1    0    0    0  501 -0.00000000000E+00 -0.00000000000E+00 -0.59078169255E+03  0.59078169258E+03  0.50400000000E-02 0.  1.
    8880022    1    1    2    0    0  0.99513150813E+03 -0.26620007968E+03  0.84291484255E+02  0.10448186006E+04  0.15294330000E+03 0.  0.
    8880022    1    1    2    0    0 -0.99513150813E+03  0.26620007968E+03  0.23427915872E+04  0.25638278560E+04  0.15294330000E+03 0.  0.
<mgrwt>
<rscale>  0 0.10414129E+04</rscale>
<asrwt>0</asrwt>
<pdfrwt beam="1">  1        1 0.46428689E+00 0.10414129E+04</pdfrwt>
<pdfrwt beam="2">  1       -1 0.90889490E-01 0.10414129E+04</pdfrwt>
<totfact> 0.70015281E-01</totfact>
</mgrwt>
</event>
<event>
 4    1  0.2731969E-009  0.5250814E+03  0.7818608E-02  0.1007432E+00
          1   -1    0    0  501    0  0.00000000000E+00  0.00000000000E+00  0.18793550355E+04  0.18793550355E+04  0.50400000000E-02 0. -1.
         -1   -1    0    0    0  501 -0.00000000000E+00 -0.00000000000E+00 -0.56495577195E+03  0.56495577198E+03  0.50400000000E-02 0.  1.
    8880022    1    1    2    0    0 -0.17015906288E+03  0.47261473036E+03 -0.39436912951E+03  0.65668672391E+03  0.15294330000E+03 0.  0.
    8880022    1    1    2    0    0  0.17015906288E+03 -0.47261473036E+03  0.17087683930E+04  0.17876240835E+04  0.15294330000E+03 0.  0.
<mgrwt>
<rscale>  0 0.52508137E+03</rscale>
<asrwt>0</asrwt>
<pdfrwt beam="1">  1        1 0.28913154E+00 0.52508137E+03</pdfrwt>
<pdfrwt beam="2">  1       -1 0.86916275E-01 0.52508137E+03</pdfrwt>
<totfact> 0.51540640E+00</totfact>
</mgrwt>
</event>
<event>
 4    1  0.2731969E-009  0.7877505E+03  0.7818608E-02  0.9577919E-01
          1   -1    0    0  501    0  0.00000000000E+00  0.00000000000E+00  0.20937154960E+04  0.20937154960E+04  0.50400000000E-02 0. -1.
         -1   -1    0    0    0  501 -0.00000000000E+00 -0.00000000000E+00 -0.40319878428E+03  0.40319878431E+03  0.50400000000E-02 0.  1.
    8880022    1    1    2    0    0 -0.22512438121E+03 -0.73924168635E+03  0.14878318161E+04  0.16835065856E+04  0.15294330000E+03 0.  0.
    8880022    1    1    2    0    0  0.22512438121E+03  0.73924168635E+03  0.20268489563E+03  0.81340769469E+03  0.15294330000E+03 0.  0.
<mgrwt>
<rscale>  0 0.78775054E+03</rscale>
<asrwt>0</asrwt>
<pdfrwt beam="1">  1        1 0.32211007E+00 0.78775054E+03</pdfrwt>
<pdfrwt beam="2">  1       -1 0.62030583E-01 0.78775054E+03</pdfrwt>
<totfact> 0.70763777E+00</totfact>
</mgrwt>
</event>
<event>
 4    1  0.2731969E-009  0.1026101E+04  0.7818608E-02  0.9280372E-01
         -1   -1    0    0    0  501 -0.00000000000E+00  0.00000000000E+00  0.14187665989E+04  0.14187665989E+04  0.50400000000E-02 0.  1.
          1   -1    0    0  501    0  0.00000000000E+00 -0.00000000000E+00 -0.17373232037E+04  0.17373232037E+04  0.50400000000E-02 0. -1.
    8880022    1    1    2    0    0  0.93795216511E+03  0.38696037457E+03  0.10350853906E+04  0.14574930581E+04  0.15294330000E+03 0.  0.
    8880022    1    1    2    0    0 -0.93795216511E+03 -0.38696037457E+03 -0.13536419955E+04  0.16985967445E+04  0.15294330000E+03 0.  0.
<mgrwt>
<rscale>  0 0.10261015E+04</rscale>
<asrwt>0</asrwt>
<pdfrwt beam="1">  1        1 0.26728049E+00 0.10261015E+04</pdfrwt>
<pdfrwt beam="2">  1       -1 0.21827179E+00 0.10261015E+04</pdfrwt>
<totfact> 0.51126808E-01</totfact>
</mgrwt>
</event>
<event>
 4    1  0.2731969E-009  0.4754389E+03  0.7818608E-02  0.1020396E+00
          1   -1    0    0  501    0  0.00000000000E+00  0.00000000000E+00  0.81457209923E+03  0.81457209924E+03  0.50400000000E-02 0. -1.
         -1   -1    0    0    0  501 -0.00000000000E+00 -0.00000000000E+00 -0.82439450862E+03  0.82439450864E+03  0.50400000000E-02 0.  1.
    8880022    1    1    2    0    0  0.41211808470E+03  0.18113299032E+03  0.66254863494E+03  0.81548318352E+03  0.15294330000E+03 0.  0.
    8880022    1    1    2    0    0 -0.41211808470E+03 -0.18113299032E+03 -0.67237104434E+03  0.82348342436E+03  0.15294330000E+03 0.  0.
<mgrwt>
<rscale>  0 0.47543888E+03</rscale>
<asrwt>0</asrwt>
<pdfrwt beam="1">  1        1 0.12531878E+00 0.47543888E+03</pdfrwt>
<pdfrwt beam="2">  1       -1 0.12682992E+00 0.47543888E+03</pdfrwt>
<totfact> 0.12482408E+01</totfact>
</mgrwt>
</event>
<event>
 4    1  0.2731969E-009  0.3435230E+03  0.7818608E-02  0.1065305E+00
         -1   -1    0    0    0  501 -0.00000000000E+00  0.00000000000E+00  0.58192527614E+03  0.58192527616E+03  0.50400000000E-02 0.  1.
          1   -1    0    0  501    0  0.00000000000E+00 -0.00000000000E+00 -0.81158388806E+03  0.81158388808E+03  0.50400000000E-02 0. -1.
    8880022    1    1    2    0    0  0.18044035812E+03  0.24911373719E+03  0.48863089471E+03  0.59730074601E+03  0.15294330000E+03 0.  0.
    8880022    1    1    2    0    0 -0.18044035812E+03 -0.24911373719E+03 -0.71828950664E+03  0.79620841823E+03  0.15294330000E+03 0.  0.
<mgrwt>
<rscale>  0 0.34352297E+03</rscale>
<asrwt>0</asrwt>
<pdfrwt beam="1">  1        1 0.12485906E+00 0.34352297E+03</pdfrwt>
<pdfrwt beam="2">  1       -1 0.89526965E-01 0.34352297E+03</pdfrwt>
<totfact> 0.28883252E+01</totfact>
</mgrwt>
</event>
<event>
 4    1  0.2731969E-009  0.9045467E+03  0.7818608E-02  0.9419916E-01
         -1   -1    0    0    0  501 -0.00000000000E+00  0.00000000000E+00  0.47114306532E+03  0.47114306535E+03  0.50400000000E-02 0.  1.
          1   -1    0    0  501    0  0.00000000000E+00 -0.00000000000E+00 -0.27780347295E+04  0.27780347295E+04  0.50400000000E-02 0. -1.
    8880022    1    1    2    0    0  0.61621371955E+03 -0.64427771664E+03 -0.15876711171E+03  0.91837452768E+03  0.15294330000E+03 0.  0.
    8880022    1    1    2    0    0 -0.61621371955E+03  0.64427771664E+03 -0.21481245525E+04  0.23308032672E+04  0.15294330000E+03 0.  0.
<mgrwt>
<rscale>  0 0.90454672E+03</rscale>
<asrwt>0</asrwt>
<pdfrwt beam="1">  1        1 0.42738995E+00 0.90454672E+03</pdfrwt>
<pdfrwt beam="2">  1       -1 0.72483550E-01 0.90454672E+03</pdfrwt>
<totfact> 0.17246366E+00</totfact>
</mgrwt>
</event>
<event>
 4    1  0.2731969E-009  0.9744600E+03  0.7818608E-02  0.9337009E-01
         -1   -1    0    0    0  501 -0.00000000000E+00  0.00000000000E+00  0.57591447389E+03  0.57591447391E+03  0.50400000000E-02 0.  1.
          1   -1    0    0  501    0  0.00000000000E+00 -0.00000000000E+00 -0.24292726727E+04  0.24292726727E+04  0.50400000000E-02 0. -1.
    8880022    1    1    2    0    0 -0.20823552832E+03 -0.93958430991E+03 -0.74992070346E+02  0.97734138064E+03  0.15294330000E+03 0.  0.
    8880022    1    1    2    0    0  0.20823552832E+03  0.93958430991E+03 -0.17783661284E+04  0.20278457659E+04  0.15294330000E+03 0.  0.
<mgrwt>
<rscale>  0 0.97446004E+03</rscale>
<asrwt>0</asrwt>
<pdfrwt beam="1">  1        1 0.37373425E+00 0.97446004E+03</pdfrwt>
<pdfrwt beam="2">  1       -1 0.88602228E-01 0.97446004E+03</pdfrwt>
<totfact> 0.19369980E+00</totfact>
</mgrwt>
</event>
<event>
 4    1  0.2731969E-009  0.8348749E+03  0.7818608E-02  0.9510865E-01
         -1   -1    0    0    0  501 -0.00000000000E+00  0.00000000000E+00  0.17158155622E+04  0.17158155622E+04  0.50400000000E-02 0.  1.
          1   -1    0    0  501    0  0.00000000000E+00 -0.00000000000E+00 -0.12897676129E+04  0.12897676129E+04  0.50400000000E-02 0. -1.
    8880022    1    1    2    0    0  0.72026539412E+03  0.39349998204E+03  0.14568381149E+04  0.16791049461E+04  0.15294330000E+03 0.  0.
    8880022    1    1    2    0    0 -0.72026539412E+03 -0.39349998204E+03 -0.10307901656E+04  0.13264782291E+04  0.15294330000E+03 0.  0.
<mgrwt>
<rscale>  0 0.83487492E+03</rscale>
<asrwt>0</asrwt>
<pdfrwt beam="1">  1        1 0.19842579E+00 0.83487492E+03</pdfrwt>
<pdfrwt beam="2">  1       -1 0.26397162E+00 0.83487492E+03</pdfrwt>
<totfact> 0.54164924E-01</totfact>
</mgrwt>
</event>
<event>
 4    1  0.2731969E-009  0.4773742E+03  0.7818608E-02  0.1019859E+00
         -1   -1    0    0    0  501 -0.00000000000E+00  0.00000000000E+00  0.30123078937E+03  0.30123078942E+03  0.50400000000E-02 0.  1.
          1   -1    0    0  501    0  0.00000000000E+00 -0.00000000000E+00 -0.18803866776E+04  0.18803866776E+04  0.50400000000E-02 0. -1.
    8880022    1    1    2    0    0  0.38875150367E+03 -0.23101234638E+03  0.53723958886E+02  0.48038771067E+03  0.15294330000E+03 0.  0.
    8880022    1    1    2    0    0 -0.38875150367E+03  0.23101234638E+03 -0.16328798471E+04  0.17012297564E+04  0.15294330000E+03 0.  0.
<mgrwt>
<rscale>  0 0.47737416E+03</rscale>
<asrwt>0</asrwt>
<pdfrwt beam="1">  1        1 0.28929025E+00 0.47737416E+03</pdfrwt>
<pdfrwt beam="2">  1       -1 0.46343200E-01 0.47737416E+03</pdfrwt>
<totfact> 0.18186966E+01</totfact>
</mgrwt>
</event>
<event>
 4    1  0.2731969E-009  0.4828950E+03  0.7818608E-02  0.1018343E+00
         -1   -1    0    0    0  501 -0.00000000000E+00  0.00000000000E+00  0.37943140959E+03  0.37943140962E+03  0.50400000000E-02 0.  1.
          1   -1    0    0  501    0  0.00000000000E+00 -0.00000000000E+00 -0.74556539703E+03  0.74556539705E+03  0.50400000000E-02 0. -1.
    8880022    1    1    2    0    0 -0.33814149293E+01 -0.45802240404E+03 -0.41884564662E+03  0.63923335745E+03  0.15294330000E+03 0.  0.
    8880022    1    1    2    0    0  0.33814149293E+01  0.45802240404E+03  0.52711659169E+02  0.48576344922E+03  0.15294330000E+03 0.  1.
<mgrwt>
<rscale>  0 0.48289503E+03</rscale>
<asrwt>0</asrwt>
<pdfrwt beam="1">  1        1 0.11470237E+00 0.48289503E+03</pdfrwt>
<pdfrwt beam="2">  1       -1 0.58374063E-01 0.48289503E+03</pdfrwt>
<totfact> 0.77031396E+01</totfact>
</mgrwt>
</event>
<event>
 4    1  0.2731969E-009  0.5605221E+03  0.7818608E-02  0.9990874E-01
         -1   -1    0    0    0  501 -0.00000000000E+00  0.00000000000E+00  0.92583348617E+03  0.92583348618E+03  0.50400000000E-02 0.  1.
          1   -1    0    0  501    0  0.00000000000E+00 -0.00000000000E+00 -0.12489964441E+04  0.12489964441E+04  0.50400000000E-02 0. -1.
    8880022    1    1    2    0    0 -0.20163906267E+03  0.50013509759E+03 -0.10895860567E+04  0.12253092897E+04  0.15294330000E+03 0.  0.
    8880022    1    1    2    0    0  0.20163906267E+03 -0.50013509759E+03  0.76642309881E+03  0.94952064056E+03  0.15294330000E+03 0.  0.
<mgrwt>
<rscale>  0 0.56052215E+03</rscale>
<asrwt>0</asrwt>
<pdfrwt beam="1">  1        1 0.19215330E+00 0.56052215E+03</pdfrwt>
<pdfrwt beam="2">  1       -1 0.14243592E+00 0.56052215E+03</pdfrwt>
<totfact> 0.42534998E+00</totfact>
</mgrwt>
</event>
<event>
 4    1  0.2731969E-009  0.6777917E+03  0.7818608E-02  0.9755984E-01
         -1   -1    0    0    0  501 -0.00000000000E+00  0.00000000000E+00  0.20688873244E+04  0.20688873244E+04  0.50400000000E-02 0.  1.
          1   -1    0    0  501    0  0.00000000000E+00 -0.00000000000E+00 -0.50698921365E+03  0.50698921367E+03  0.50400000000E-02 0. -1.
    8880022    1    1    2    0    0 -0.14153969693E+03  0.64496233740E+03  0.17464882562E+04  0.18733987254E+04  0.15294330000E+03 0.  0.
    8880022    1    1    2    0    0  0.14153969693E+03 -0.64496233740E+03 -0.18459014542E+03  0.70247781266E+03  0.15294330000E+03 0.  0.
<mgrwt>
<rscale>  0 0.67779168E+03</rscale>
<asrwt>0</asrwt>
<pdfrwt beam="1">  1        1 0.77998340E-01 0.67779168E+03</pdfrwt>
<pdfrwt beam="2">  1       -1 0.31829036E+00 0.67779168E+03</pdfrwt>
<totfact> 0.11710015E+00</totfact>
</mgrwt>
</event>
<event>
 4    1  0.2731969E-009  0.9055038E+03  0.7818608E-02  0.9418727E-01
         -1   -1    0    0    0  501 -0.00000000000E+00  0.00000000000E+00  0.10332002658E+04  0.10332002658E+04  0.50400000000E-02 0.  1.
          1   -1    0    0  501    0  0.00000000000E+00 -0.00000000000E+00 -0.19818668227E+04  0.19818668227E+04  0.50400000000E-02 0. -1.
    8880022    1    1    2    0    0  0.54578157069E+02  0.89082363894E+03  0.69298316126E+03  0.11402468354E+04  0.15294330000E+03 0.  0.
    8880022    1    1    2    0    0 -0.54578157069E+02 -0.89082363894E+03 -0.16416497182E+04  0.18748202530E+04  0.15294330000E+03 0.  0.
<mgrwt>
<rscale>  0 0.90550383E+03</rscale>
<asrwt>0</asrwt>
<pdfrwt beam="1">  1        1 0.30490259E+00 0.90550383E+03</pdfrwt>
<pdfrwt beam="2">  1       -1 0.15895389E+00 0.90550383E+03</pdfrwt>
<totfact> 0.93714170E-01</totfact>
</mgrwt>
</event>
<event>
 4    1  0.2731969E-009  0.1687843E+03  0.7818608E-02  0.1179122E+00
          1   -1    0    0  501    0  0.00000000000E+00  0.00000000000E+00  0.10196915504E+04  0.10196915504E+04  0.50400000000E-02 0. -1.
         -1   -1    0    0    0  501 -0.00000000000E+00 -0.00000000000E+00 -0.86816024448E+03  0.86816024450E+03  0.50400000000E-02 0.  1.
    8880022    1    1    2    0    0 -0.19200356116E+02  0.68759134725E+02 -0.85284796074E+03  0.86938930832E+03  0.15294330000E+03 0.  0.
    8880022    1    1    2    0    0  0.19200356116E+02 -0.68759134725E+02  0.10043792666E+04  0.10184624866E+04  0.15294330000E+03 0.  0.
<mgrwt>
<rscale>  0 0.16878426E+03</rscale>
<asrwt>0</asrwt>
<pdfrwt beam="1">  1        1 0.15687562E+00 0.16878426E+03</pdfrwt>
<pdfrwt beam="2">  1       -1 0.13356311E+00 0.16878426E+03</pdfrwt>
<totfact> 0.84888569E+00</totfact>
</mgrwt>
</event>
<event>
 4    1  0.2731969E-009  0.1167460E+04  0.7818608E-02  0.9141825E-01
         -1   -1    0    0    0  501 -0.00000000000E+00  0.00000000000E+00  0.12562603726E+04  0.12562603726E+04  0.50400000000E-02 0.  1.
          1   -1    0    0  501    0  0.00000000000E+00 -0.00000000000E+00 -0.30271426189E+04  0.30271426189E+04  0.50400000000E-02 0. -1.
    8880022    1    1    2    0    0  0.49395494352E+03  0.10466998797E+04  0.83005627883E+03  0.14324654283E+04  0.15294330000E+03 0.  0.
    8880022    1    1    2    0    0 -0.49395494352E+03 -0.10466998797E+04 -0.26009385251E+04  0.28509375631E+04  0.15294330000E+03 0.  0.
<mgrwt>
<rscale>  0 0.11674604E+04</rscale>
<asrwt>0</asrwt>
<pdfrwt beam="1">  1        1 0.46571425E+00 0.11674604E+04</pdfrwt>
<pdfrwt beam="2">  1       -1 0.19327083E+00 0.11674604E+04</pdfrwt>
<totfact> 0.95482794E-02</totfact>
</mgrwt>
</event>
<event>
 4    1  0.2731969E-009  0.2238601E+03  0.7818608E-02  0.1131037E+00
         -1   -1    0    0    0  501 -0.00000000000E+00  0.00000000000E+00  0.50403476940E+03  0.50403476942E+03  0.50400000000E-02 0.  1.
          1   -1    0    0  501    0  0.00000000000E+00 -0.00000000000E+00 -0.12929163186E+04  0.12929163186E+04  0.50400000000E-02 0. -1.
    8880022    1    1    2    0    0 -0.16002745386E+03 -0.33360471492E+02 -0.12576792543E+04  0.12774468548E+04  0.15294330000E+03 0.  0.
    8880022    1    1    2    0    0  0.16002745386E+03  0.33360471492E+02  0.46879770510E+03  0.51950423326E+03  0.15294330000E+03 0.  1.
<mgrwt>
<rscale>  0 0.22386014E+03</rscale>
<asrwt>0</asrwt>
<pdfrwt beam="1">  1        1 0.19891020E+00 0.22386014E+03</pdfrwt>
<pdfrwt beam="2">  1       -1 0.77543811E-01 0.22386014E+03</pdfrwt>
<totfact> 0.17857408E+01</totfact>
</mgrwt>
</event>
<event>
 4    1  0.2731969E-009  0.8766263E+03  0.7818608E-02  0.9455281E-01
          1   -1    0    0  501    0  0.00000000000E+00  0.00000000000E+00  0.21617518618E+04  0.21617518618E+04  0.50400000000E-02 0. -1.
         -1   -1    0    0    0  501 -0.00000000000E+00 -0.00000000000E+00 -0.66259239214E+03  0.66259239216E+03  0.50400000000E-02 0.  1.
    8880022    1    1    2    0    0 -0.74795960746E+03  0.43085787876E+03  0.17109893091E+04  0.19224874915E+04  0.15294330000E+03 0.  0.
    8880022    1    1    2    0    0  0.74795960746E+03 -0.43085787876E+03 -0.21182983945E+03  0.90185676245E+03  0.15294330000E+03 0.  0.
<mgrwt>
<rscale>  0 0.87662634E+03</rscale>
<asrwt>0</asrwt>
<pdfrwt beam="1">  1        1 0.33257721E+00 0.87662634E+03</pdfrwt>
<pdfrwt beam="2">  1       -1 0.10193729E+00 0.87662634E+03</pdfrwt>
<totfact> 0.21790150E+00</totfact>
</mgrwt>
</event>
<event>
 4    1  0.2731969E-009  0.4658522E+03  0.7818608E-02  0.1023097E+00
          1   -1    0    0  501    0  0.00000000000E+00  0.00000000000E+00  0.12242118142E+04  0.12242118142E+04  0.50400000000E-02 0. -1.
         -1   -1    0    0    0  501 -0.00000000000E+00 -0.00000000000E+00 -0.24359119719E+03  0.24359119724E+03  0.50400000000E-02 0.  1.
    8880022    1    1    2    0    0  0.91354721298E+02  0.43044272061E+03  0.87324715509E+03  0.98973676688E+03  0.15294330000E+03 0.  0.
    8880022    1    1    2    0    0 -0.91354721298E+02 -0.43044272061E+03  0.10737346189E+03  0.47806624453E+03  0.15294330000E+03 0.  0.
<mgrwt>
<rscale>  0 0.46585220E+03</rscale>
<asrwt>0</asrwt>
<pdfrwt beam="1">  1        1 0.18834028E+00 0.46585220E+03</pdfrwt>
<pdfrwt beam="2">  1       -1 0.37475568E-01 0.46585220E+03</pdfrwt>
<totfact> 0.74454944E+01</totfact>
</mgrwt>
</event>
<event>
 4    1  0.2731969E-009  0.9228942E+03  0.7818608E-02  0.9397407E-01
          1   -1    0    0  501    0  0.00000000000E+00  0.00000000000E+00  0.17123660827E+04  0.17123660827E+04  0.50400000000E-02 0. -1.
         -1   -1    0    0    0  501 -0.00000000000E+00 -0.00000000000E+00 -0.13848721652E+04  0.13848721652E+04  0.50400000000E-02 0.  1.
    8880022    1    1    2    0    0 -0.27663879772E+03 -0.86707152731E+03 -0.10759534433E+04  0.14175364274E+04  0.15294330000E+03 0.  0.
    8880022    1    1    2    0    0  0.27663879772E+03  0.86707152731E+03  0.14034473609E+04  0.16797018205E+04  0.15294330000E+03 0.  0.
<mgrwt>
<rscale>  0 0.92289420E+03</rscale>
<asrwt>0</asrwt>
<pdfrwt beam="1">  1        1 0.26344093E+00 0.92289420E+03</pdfrwt>
<pdfrwt beam="2">  1       -1 0.21305726E+00 0.92289420E+03</pdfrwt>
<totfact> 0.58643444E-01</totfact>
</mgrwt>
</event>
<event>
 4    1  0.2731969E-009  0.1388604E+04  0.7818608E-02  0.8962109E-01
          1   -1    0    0  501    0  0.00000000000E+00  0.00000000000E+00  0.22304545089E+04  0.22304545089E+04  0.50400000000E-02 0. -1.
         -1   -1    0    0    0  501 -0.00000000000E+00 -0.00000000000E+00 -0.13153399992E+04  0.13153399992E+04  0.50400000000E-02 0.  1.
    8880022    1    1    2    0    0  0.13793950461E+04 -0.45797265610E+02 -0.58039539503E+03  0.15050177907E+04  0.15294330000E+03 0.  0.
    8880022    1    1    2    0    0 -0.13793950461E+04  0.45797265610E+02  0.14955099047E+04  0.20407767175E+04  0.15294330000E+03 0.  0.
<mgrwt>
<rscale>  0 0.13886035E+04</rscale>
<asrwt>0</asrwt>
<pdfrwt beam="1">  1        1 0.34314684E+00 0.13886035E+04</pdfrwt>
<pdfrwt beam="2">  1       -1 0.20236000E+00 0.13886035E+04</pdfrwt>
<totfact> 0.28845375E-01</totfact>
</mgrwt>
</event>
<event>
 4    1  0.2731969E-009  0.4807893E+03  0.7818608E-02  0.1018918E+00
         -1   -1    0    0    0  501 -0.00000000000E+00  0.00000000000E+00  0.47737783775E+03  0.47737783777E+03  0.50400000000E-02 0.  1.
          1   -1    0    0  501    0  0.00000000000E+00 -0.00000000000E+00 -0.23724241352E+04  0.23724241352E+04  0.50400000000E-02 0. -1.
    8880022    1    1    2    0    0 -0.57337768718E+02  0.45219361347E+03  0.32367252076E+03  0.57958798943E+03  0.15294330000E+03 0.  0.
    8880022    1    1    2    0    0  0.57337768718E+02 -0.45219361347E+03 -0.22187188182E+04  0.22702139835E+04  0.15294330000E+03 0.  0.
<mgrwt>
<rscale>  0 0.48078929E+03</rscale>
<asrwt>0</asrwt>
<pdfrwt beam="1">  1        1 0.36498832E+00 0.48078929E+03</pdfrwt>
<pdfrwt beam="2">  1       -1 0.73442745E-01 0.48078929E+03</pdfrwt>
<totfact> 0.35011437E+00</totfact>
</mgrwt>
</event>
<event>
 4    1  0.2731969E-009  0.6977241E+03  0.7818608E-02  0.9721132E-01
         -1   -1    0    0    0  501 -0.00000000000E+00  0.00000000000E+00  0.88112366490E+03  0.88112366492E+03  0.50400000000E-02 0.  1.
          1   -1    0    0  501    0  0.00000000000E+00 -0.00000000000E+00 -0.98786350749E+03  0.98786350750E+03  0.50400000000E-02 0. -1.
    8880022    1    1    2    0    0  0.42240827327E+03 -0.53385252994E+03 -0.67374585270E+03  0.96992391459E+03  0.15294330000E+03 0.  0.
    8880022    1    1    2    0    0 -0.42240827327E+03  0.53385252994E+03  0.56700601011E+03  0.89906325783E+03  0.15294330000E+03 0.  1.
<mgrwt>
<rscale>  0 0.69772410E+03</rscale>
<asrwt>0</asrwt>
<pdfrwt beam="1">  1        1 0.15197900E+00 0.69772410E+03</pdfrwt>
<pdfrwt beam="2">  1       -1 0.13555749E+00 0.69772410E+03</pdfrwt>
<totfact> 0.73483533E+00</totfact>
</mgrwt>
</event>
<event>
 4    1  0.2731969E-009  0.1316924E+04  0.7818608E-02  0.9016251E-01
          1   -1    0    0  501    0  0.00000000000E+00  0.00000000000E+00  0.12984576649E+04  0.12984576649E+04  0.50400000000E-02 0. -1.
         -1   -1    0    0    0  501 -0.00000000000E+00 -0.00000000000E+00 -0.15557570156E+04  0.15557570156E+04  0.50400000000E-02 0.  1.
    8880022    1    1    2    0    0  0.10194918731E+04  0.81947178961E+03  0.40813410079E+03  0.13787178067E+04  0.15294330000E+03 0.  0.
    8880022    1    1    2    0    0 -0.10194918731E+04 -0.81947178961E+03 -0.66543345145E+03  0.14754968738E+04  0.15294330000E+03 0.  0.
<mgrwt>
<rscale>  0 0.13169242E+04</rscale>
<asrwt>0</asrwt>
<pdfrwt beam="1">  1        1 0.19976272E+00 0.13169242E+04</pdfrwt>
<pdfrwt beam="2">  1       -1 0.23934723E+00 0.13169242E+04</pdfrwt>
<totfact> 0.71789679E-01</totfact>
</mgrwt>
</event>
<event>
 4    1  0.2731969E-009  0.1643070E+04  0.7818608E-02  0.8794517E-01
          1   -1    0    0  501    0  0.00000000000E+00  0.00000000000E+00  0.23201829306E+04  0.23201829306E+04  0.50400000000E-02 0. -1.
         -1   -1    0    0    0  501 -0.00000000000E+00 -0.00000000000E+00 -0.22031784298E+04  0.22031784298E+04  0.50400000000E-02 0.  1.
    8880022    1    1    2    0    0  0.13372799841E+04  0.94232176464E+03  0.16121148959E+04  0.23018675363E+04  0.15294330000E+03 0.  0.
    8880022    1    1    2    0    0 -0.13372799841E+04 -0.94232176464E+03 -0.14951103952E+04  0.22214938242E+04  0.15294330000E+03 0.  0.
<mgrwt>
<rscale>  0 0.16430702E+04</rscale>
<asrwt>0</asrwt>
<pdfrwt beam="1">  1        1 0.35695122E+00 0.16430702E+04</pdfrwt>
<pdfrwt beam="2">  1       -1 0.33895053E+00 0.16430702E+04</pdfrwt>
<totfact> 0.30670922E-02</totfact>
</mgrwt>
</event>
<event>
 4    1  0.2731969E-009  0.9655881E+03  0.7818608E-02  0.9347114E-01
         -1   -1    0    0    0  501 -0.00000000000E+00  0.00000000000E+00  0.13912916931E+04  0.13912916931E+04  0.50400000000E-02 0.  1.
          1   -1    0    0  501    0  0.00000000000E+00 -0.00000000000E+00 -0.19041712072E+04  0.19041712072E+04  0.50400000000E-02 0. -1.
    8880022    1    1    2    0    0  0.31493017338E+03 -0.89988200708E+03 -0.15829068961E+04  0.18541721968E+04  0.15294330000E+03 0.  0.
    8880022    1    1    2    0    0 -0.31493017338E+03  0.89988200708E+03  0.10700273820E+04  0.14412907035E+04  0.15294330000E+03 0.  0.
<mgrwt>
<rscale>  0 0.96558806E+03</rscale>
<asrwt>0</asrwt>
<pdfrwt beam="1">  1        1 0.29294942E+00 0.96558806E+03</pdfrwt>
<pdfrwt beam="2">  1       -1 0.21404487E+00 0.96558806E+03</pdfrwt>
<totfact> 0.42554778E-01</totfact>
</mgrwt>
</event>
<event>
 4    1  0.2731969E-009  0.1306480E+04  0.7818608E-02  0.9024442E-01
         -1   -1    0    0    0  501 -0.00000000000E+00  0.00000000000E+00  0.16738927477E+04  0.16738927477E+04  0.50400000000E-02 0.  1.
          1   -1    0    0  501    0  0.00000000000E+00 -0.00000000000E+00 -0.11575376959E+04  0.11575376959E+04  0.50400000000E-02 0. -1.
    8880022    1    1    2    0    0  0.10550645581E+04  0.75520602481E+03  0.74668696859E+03  0.15048024601E+04  0.15294330000E+03 0.  0.
    8880022    1    1    2    0    0 -0.10550645581E+04 -0.75520602481E+03 -0.23033191679E+03  0.13266279835E+04  0.15294330000E+03 0.  0.
<mgrwt>
<rscale>  0 0.13064796E+04</rscale>
<asrwt>0</asrwt>
<pdfrwt beam="1">  1        1 0.17808272E+00 0.13064796E+04</pdfrwt>
<pdfrwt beam="2">  1       -1 0.25752196E+00 0.13064796E+04</pdfrwt>
<totfact> 0.69307021E-01</totfact>
</mgrwt>
</event>
<event>
 4    1  0.2731969E-009  0.4573357E+03  0.7818608E-02  0.1025557E+00
         -1   -1    0    0    0  501 -0.00000000000E+00  0.00000000000E+00  0.66983199733E+03  0.66983199735E+03  0.50400000000E-02 0.  1.
          1   -1    0    0  501    0  0.00000000000E+00 -0.00000000000E+00 -0.46369049152E+03  0.46369049155E+03  0.50400000000E-02 0. -1.
    8880022    1    1    2    0    0  0.33445578909E+03  0.27185217148E+03  0.42696642911E+03  0.62566465667E+03  0.15294330000E+03 0.  0.
    8880022    1    1    2    0    0 -0.33445578909E+03 -0.27185217148E+03 -0.22082492330E+03  0.50785783223E+03  0.15294330000E+03 0.  0.
<mgrwt>
<rscale>  0 0.45733569E+03</rscale>
<asrwt>0</asrwt>
<pdfrwt beam="1">  1        1 0.71336999E-01 0.45733569E+03</pdfrwt>
<pdfrwt beam="2">  1       -1 0.10305108E+00 0.45733569E+03</pdfrwt>
<totfact> 0.46109129E+01</totfact>
</mgrwt>
</event>
<event>
 4    1  0.2731969E-009  0.6019428E+03  0.7818608E-02  0.9901384E-01
          1   -1    0    0  501    0  0.00000000000E+00  0.00000000000E+00  0.23265142628E+04  0.23265142628E+04  0.50400000000E-02 0. -1.
         -1   -1    0    0    0  501 -0.00000000000E+00 -0.00000000000E+00 -0.99872932745E+03  0.99872932746E+03  0.50400000000E-02 0.  1.
    8880022    1    1    2    0    0  0.57068697385E+03  0.11515152846E+03 -0.86360388957E+03  0.10526855313E+04  0.15294330000E+03 0.  0.
    8880022    1    1    2    0    0 -0.57068697385E+03 -0.11515152846E+03  0.21913888249E+04  0.22725580590E+04  0.15294330000E+03 0.  0.
<mgrwt>
<rscale>  0 0.60194281E+03</rscale>
<asrwt>0</asrwt>
<pdfrwt beam="1">  1        1 0.35792527E+00 0.60194281E+03</pdfrwt>
<pdfrwt beam="2">  1       -1 0.15365066E+00 0.60194281E+03</pdfrwt>
<totfact> 0.64688056E-01</totfact>
</mgrwt>
</event>
<event>
 4    1  0.2731969E-009  0.7023650E+03  0.7818608E-02  0.9713196E-01
         -1   -1    0    0    0  501 -0.00000000000E+00  0.00000000000E+00  0.23334713647E+04  0.23334713647E+04  0.50400000000E-02 0.  1.
          1   -1    0    0  501    0  0.00000000000E+00 -0.00000000000E+00 -0.11163218887E+04  0.11163218887E+04  0.50400000000E-02 0. -1.
    8880022    1    1    2    0    0 -0.20792524684E+03  0.65321673059E+03  0.21615758228E+04  0.22728235075E+04  0.15294330000E+03 0.  0.
    8880022    1    1    2    0    0  0.20792524684E+03 -0.65321673059E+03 -0.94442634675E+03  0.11769697459E+04  0.15294330000E+03 0.  0.
<mgrwt>
<rscale>  0 0.70236505E+03</rscale>
<asrwt>0</asrwt>
<pdfrwt beam="1">  1        1 0.17174183E+00 0.70236505E+03</pdfrwt>
<pdfrwt beam="2">  1       -1 0.35899559E+00 0.70236505E+03</pdfrwt>
<totfact> 0.18199529E-01</totfact>
</mgrwt>
</event>
<event>
 4    1  0.2731969E-009  0.3860220E+03  0.7818608E-02  0.1048730E+00
          1   -1    0    0  501    0  0.00000000000E+00  0.00000000000E+00  0.45515821438E+03  0.45515821441E+03  0.50400000000E-02 0. -1.
         -1   -1    0    0    0  501 -0.00000000000E+00 -0.00000000000E+00 -0.11348349548E+04  0.11348349548E+04  0.50400000000E-02 0.  1.
    8880022    1    1    2    0    0  0.27299261436E+03 -0.22604500485E+03  0.33075017623E+03  0.50833910316E+03  0.15294330000E+03 0.  0.
    8880022    1    1    2    0    0 -0.27299261436E+03  0.22604500485E+03 -0.10104269166E+04  0.10816540660E+04  0.15294330000E+03 0.  0.
<mgrwt>
<rscale>  0 0.38602197E+03</rscale>
<asrwt>0</asrwt>
<pdfrwt beam="1">  1        1 0.70024341E-01 0.38602197E+03</pdfrwt>
<pdfrwt beam="2">  1       -1 0.17458999E+00 0.38602197E+03</pdfrwt>
<totfact> 0.12552773E+01</totfact>
</mgrwt>
</event>
<event>
 4    1  0.2731969E-009  0.4095525E+03  0.7818608E-02  0.1040521E+00
         -1   -1    0    0    0  501 -0.00000000000E+00  0.00000000000E+00  0.40457320430E+03  0.40457320433E+03  0.50400000000E-02 0.  1.
          1   -1    0    0  501    0  0.00000000000E+00 -0.00000000000E+00 -0.91591625389E+03  0.91591625390E+03  0.50400000000E-02 0. -1.
    8880022    1    1    2    0    0  0.28919625217E+03 -0.24638816776E+03 -0.74413933158E+03  0.84939778626E+03  0.15294330000E+03 0.  0.
    8880022    1    1    2    0    0 -0.28919625217E+03  0.24638816776E+03  0.23279628199E+03  0.47109167198E+03  0.15294330000E+03 0.  0.
<mgrwt>
<rscale>  0 0.40955251E+03</rscale>
<asrwt>0</asrwt>
<pdfrwt beam="1">  1        1 0.14091019E+00 0.40955251E+03</pdfrwt>
<pdfrwt beam="2">  1       -1 0.62242032E-01 0.40955251E+03</pdfrwt>
<totfact> 0.49482350E+01</totfact>
</mgrwt>
</event>
<event>
 4    1  0.2731969E-009  0.3050936E+03  0.7818608E-02  0.1082722E+00
         -1   -1    0    0    0  501 -0.00000000000E+00  0.00000000000E+00  0.60092633225E+03  0.60092633227E+03  0.50400000000E-02 0.  1.
          1   -1    0    0  501    0  0.00000000000E+00 -0.00000000000E+00 -0.16976914109E+04  0.16976914109E+04  0.50400000000E-02 0. -1.
    8880022    1    1    2    0    0 -0.29900408164E+02 -0.26229069634E+03  0.54724090196E+03  0.62654185941E+03  0.15294330000E+03 0.  1.
    8880022    1    1    2    0    0  0.29900408164E+02  0.26229069634E+03 -0.16440059806E+04  0.16720758837E+04  0.15294330000E+03 0.  0.
<mgrwt>
<rscale>  0 0.30509359E+03</rscale>
<asrwt>0</asrwt>
<pdfrwt beam="1">  1        1 0.26118329E+00 0.30509359E+03</pdfrwt>
<pdfrwt beam="2">  1       -1 0.92450206E-01 0.30509359E+03</pdfrwt>
<totfact> 0.63827869E+00</totfact>
</mgrwt>
</event>
<event>
 4    1  0.2731969E-009  0.1248648E+04  0.7818608E-02  0.9071309E-01
         -1   -1    0    0    0  501 -0.00000000000E+00  0.00000000000E+00  0.10093528676E+04  0.10093528676E+04  0.50400000000E-02 0.  1.
          1   -1    0    0  501    0  0.00000000000E+00 -0.00000000000E+00 -0.20094007620E+04  0.20094007620E+04  0.50400000000E-02 0. -1.
    8880022    1    1    2    0    0 -0.11886153950E+04 -0.35060549200E+03 -0.12259002819E+04  0.17498439709E+04  0.15294330000E+03 0.  0.
    8880022    1    1    2    0    0  0.11886153950E+04  0.35060549200E+03  0.22585238751E+03  0.12689096588E+04  0.15294330000E+03 0.  0.
<mgrwt>
<rscale>  0 0.12486482E+04</rscale>
<asrwt>0</asrwt>
<pdfrwt beam="1">  1        1 0.30913858E+00 0.12486482E+04</pdfrwt>
<pdfrwt beam="2">  1       -1 0.15528506E+00 0.12486482E+04</pdfrwt>
<totfact> 0.91054623E-01</totfact>
</mgrwt>
</event>
<event>
 4    1  0.2731969E-009  0.1149098E+04  0.7818608E-02  0.9158616E-01
         -1   -1    0    0    0  501 -0.00000000000E+00  0.00000000000E+00  0.15750047549E+04  0.15750047550E+04  0.50400000000E-02 0.  1.
          1   -1    0    0  501    0  0.00000000000E+00 -0.00000000000E+00 -0.86513793258E+03  0.86513793260E+03  0.50400000000E-02 0. -1.
    8880022    1    1    2    0    0  0.16526251838E+03 -0.11268193718E+04  0.14029417220E+03  0.11576302106E+04  0.15294330000E+03 0.  0.
    8880022    1    1    2    0    0 -0.16526251838E+03  0.11268193718E+04  0.56957265016E+03  0.12825124770E+04  0.15294330000E+03 0.  0.
<mgrwt>
<rscale>  0 0.11490976E+04</rscale>
<asrwt>0</asrwt>
<pdfrwt beam="1">  1        1 0.13309814E+00 0.11490976E+04</pdfrwt>
<pdfrwt beam="2">  1       -1 0.24230842E+00 0.11490976E+04</pdfrwt>
<totfact> 0.15054387E+00</totfact>
</mgrwt>
</event>
<event>
 4    1  0.2731969E-009  0.8228614E+03  0.7818608E-02  0.9527503E-01
          1   -1    0    0  501    0  0.00000000000E+00  0.00000000000E+00  0.11407258273E+04  0.11407258274E+04  0.50400000000E-02 0. -1.
         -1   -1    0    0    0  501 -0.00000000000E+00 -0.00000000000E+00 -0.73055185980E+03  0.73055185982E+03  0.50400000000E-02 0.  1.
    8880022    1    1    2    0    0 -0.69124413359E+03 -0.41939334953E+03 -0.20006119356E+03  0.84683255018E+03  0.15294330000E+03 0.  0.
    8880022    1    1    2    0    0  0.69124413359E+03  0.41939334953E+03  0.61023516110E+03  0.10244451370E+04  0.15294330000E+03 0.  0.
<mgrwt>
<rscale>  0 0.82286140E+03</rscale>
<asrwt>0</asrwt>
<pdfrwt beam="1">  1        1 0.17549628E+00 0.82286140E+03</pdfrwt>
<pdfrwt beam="2">  1       -1 0.11239259E+00 0.82286140E+03</pdfrwt>
<totfact> 0.87781981E+00</totfact>
</mgrwt>
</event>
<event>
 4    1  0.2731969E-009  0.8491034E+03  0.7818608E-02  0.9491541E-01
          1   -1    0    0  501    0  0.00000000000E+00  0.00000000000E+00  0.17725388858E+04  0.17725388858E+04  0.50400000000E-02 0. -1.
         -1   -1    0    0    0  501 -0.00000000000E+00 -0.00000000000E+00 -0.17674533096E+04  0.17674533096E+04  0.50400000000E-02 0.  1.
    8880022    1    1    2    0    0 -0.69954481458E+03 -0.45631345584E+03 -0.15504891264E+04  0.17677650018E+04  0.15294330000E+03 0.  0.
    8880022    1    1    2    0    0  0.69954481458E+03  0.45631345584E+03  0.15555747025E+04  0.17722271936E+04  0.15294330000E+03 0.  0.
<mgrwt>
<rscale>  0 0.84910339E+03</rscale>
<asrwt>0</asrwt>
<pdfrwt beam="1">  1        1 0.27269829E+00 0.84910339E+03</pdfrwt>
<pdfrwt beam="2">  1       -1 0.27191589E+00 0.84910339E+03</pdfrwt>
<totfact> 0.22375512E-01</totfact>
</mgrwt>
</event>
<event>
 4    1  0.2731969E-009  0.1531537E+04  0.7818608E-02  0.8863748E-01
          1   -1    0    0  501    0  0.00000000000E+00  0.00000000000E+00  0.92643191761E+03  0.92643191762E+03  0.50400000000E-02 0. -1.
         -1   -1    0    0    0  501 -0.00000000000E+00 -0.00000000000E+00 -0.31592780141E+04  0.31592780141E+04  0.50400000000E-02 0.  1.
    8880022    1    1    2    0    0 -0.35188825694E+03 -0.14826968509E+04 -0.20605295661E+03  0.15453364588E+04  0.15294330000E+03 0.  0.
    8880022    1    1    2    0    0  0.35188825694E+03  0.14826968509E+04 -0.20267931398E+04  0.25403734729E+04  0.15294330000E+03 0.  0.
<mgrwt>
<rscale>  0 0.15315374E+04</rscale>
<asrwt>0</asrwt>
<pdfrwt beam="1">  1        1 0.14252799E+00 0.15315374E+04</pdfrwt>
<pdfrwt beam="2">  1       -1 0.48604277E+00 0.15315374E+04</pdfrwt>
<totfact> 0.30092720E-02</totfact>
</mgrwt>
</event>
<event>
 4    1  0.2731969E-009  0.9875917E+03  0.7818608E-02  0.9322260E-01
         -1   -1    0    0    0  501 -0.00000000000E+00  0.00000000000E+00  0.57687177809E+03  0.57687177811E+03  0.50400000000E-02 0.  1.
          1   -1    0    0  501    0  0.00000000000E+00 -0.00000000000E+00 -0.18603693748E+04  0.18603693748E+04  0.50400000000E-02 0. -1.
    8880022    1    1    2    0    0 -0.97538603647E+03 -0.23828768541E+02 -0.10097300355E+04  0.14124065024E+04  0.15294330000E+03 0.  0.
    8880022    1    1    2    0    0  0.97538603647E+03  0.23828768541E+02 -0.27376756122E+03  0.10248346505E+04  0.15294330000E+03 0.  0.
<mgrwt>
<rscale>  0 0.98759171E+03</rscale>
<asrwt>0</asrwt>
<pdfrwt beam="1">  1        1 0.28621067E+00 0.98759171E+03</pdfrwt>
<pdfrwt beam="2">  1       -1 0.88749505E-01 0.98759171E+03</pdfrwt>
<totfact> 0.46693958E+00</totfact>
</mgrwt>
</event>
<event>
 4    1  0.2731969E-009  0.2636593E+03  0.7818608E-02  0.1104964E+00
          1   -1    0    0  501    0  0.00000000000E+00  0.00000000000E+00  0.51186356154E+03  0.51186356157E+03  0.50400000000E-02 0. -1.
         -1   -1    0    0    0  501 -0.00000000000E+00 -0.00000000000E+00 -0.22372227796E+03  0.22372227802E+03  0.50400000000E-02 0.  1.
    8880022    1    1    2    0    0 -0.19462046380E+03  0.90815567196E+02 -0.86483670759E+02  0.27748093718E+03  0.15294330000E+03 0.  0.
    8880022    1    1    2    0    0  0.19462046380E+03 -0.90815567196E+02  0.37462495434E+03  0.45810490240E+03  0.15294330000E+03 0.  0.
<mgrwt>
<rscale>  0 0.26365934E+03</rscale>
<asrwt>0</asrwt>
<pdfrwt beam="1">  1        1 0.78748240E-01 0.26365934E+03</pdfrwt>
<pdfrwt beam="2">  1       -1 0.34418812E-01 0.26365934E+03</pdfrwt>
<totfact> 0.35513322E+02</totfact>
</mgrwt>
</event>
<event>
 4    1  0.2731969E-009  0.6262188E+03  0.7818608E-02  0.9852455E-01
         -1   -1    0    0    0  501 -0.00000000000E+00  0.00000000000E+00  0.30820167245E+03  0.30820167249E+03  0.50400000000E-02 0.  1.
          1   -1    0    0  501    0  0.00000000000E+00 -0.00000000000E+00 -0.21860218139E+04  0.21860218139E+04  0.50400000000E-02 0. -1.
    8880022    1    1    2    0    0  0.54150760364E+03  0.27482338525E+03 -0.17451527947E+04  0.18541057974E+04  0.15294330000E+03 0. -1.
    8880022    1    1    2    0    0 -0.54150760364E+03 -0.27482338525E+03 -0.13266734670E+03  0.64011768900E+03  0.15294330000E+03 0.  0.
<mgrwt>
<rscale>  0 0.62621884E+03</rscale>
<asrwt>0</asrwt>
<pdfrwt beam="1">  1        1 0.33631104E+00 0.62621884E+03</pdfrwt>
<pdfrwt beam="2">  1       -1 0.47415643E-01 0.62621884E+03</pdfrwt>
<totfact> 0.10591210E+01</totfact>
</mgrwt>
</event>
<event>
 4    1  0.2731969E-009  0.1232563E+04  0.7818608E-02  0.9084822E-01
          1   -1    0    0  501    0  0.00000000000E+00  0.00000000000E+00  0.14190635649E+04  0.14190635649E+04  0.50400000000E-02 0. -1.
         -1   -1    0    0    0  501 -0.00000000000E+00 -0.00000000000E+00 -0.20954010005E+04  0.20954010005E+04  0.50400000000E-02 0.  1.
    8880022    1    1    2    0    0  0.85443922006E+03  0.87507351329E+03 -0.15670813518E+04  0.19937290816E+04  0.15294330000E+03 0.  0.
    8880022    1    1    2    0    0 -0.85443922006E+03 -0.87507351329E+03  0.89074391629E+03  0.15207354839E+04  0.15294330000E+03 0.  0.
<mgrwt>
<rscale>  0 0.12325631E+04</rscale>
<asrwt>0</asrwt>
<pdfrwt beam="1">  1        1 0.21831747E+00 0.12325631E+04</pdfrwt>
<pdfrwt beam="2">  1       -1 0.32236939E+00 0.12325631E+04</pdfrwt>
<totfact> 0.17258885E-01</totfact>
</mgrwt>
</event>
<event>
 4    1  0.2731969E-009  0.1201093E+04  0.7818608E-02  0.9111900E-01
         -1   -1    0    0    0  501 -0.00000000000E+00  0.00000000000E+00  0.82250582789E+03  0.82250582790E+03  0.50400000000E-02 0.  1.
          1   -1    0    0  501    0  0.00000000000E+00 -0.00000000000E+00 -0.25812389755E+04  0.25812389755E+04  0.50400000000E-02 0. -1.
    8880022    1    1    2    0    0 -0.94645328855E+03  0.72350444158E+03 -0.18428509553E+04  0.21997099356E+04  0.15294330000E+03 0.  0.
    8880022    1    1    2    0    0  0.94645328855E+03 -0.72350444158E+03  0.84117807637E+02  0.12040348678E+04  0.15294330000E+03 0.  0.
<mgrwt>
<rscale>  0 0.12010929E+04</rscale>
<asrwt>0</asrwt>
<pdfrwt beam="1">  1        1 0.39711368E+00 0.12010929E+04</pdfrwt>
<pdfrwt beam="2">  1       -1 0.12653936E+00 0.12010929E+04</pdfrwt>
<totfact> 0.63830494E-01</totfact>
</mgrwt>
</event>
<event>
 4    1  0.2731969E-009  0.3348193E+03  0.7818608E-02  0.1069024E+00
          1   -1    0    0  501    0  0.00000000000E+00  0.00000000000E+00  0.19491975744E+04  0.19491975744E+04  0.50400000000E-02 0. -1.
         -1   -1    0    0    0  501 -0.00000000000E+00 -0.00000000000E+00 -0.28992201660E+03  0.28992201664E+03  0.50400000000E-02 0.  1.
    8880022    1    1    2    0    0 -0.63659360768E+02 -0.29096359943E+03 -0.17274428293E+03  0.37675531941E+03  0.15294330000E+03 0.  0.
    8880022    1    1    2    0    0  0.63659360768E+02  0.29096359943E+03  0.18320198407E+04  0.18623642716E+04  0.15294330000E+03 0.  0.
<mgrwt>
<rscale>  0 0.33481933E+03</rscale>
<asrwt>0</asrwt>
<pdfrwt beam="1">  1        1 0.29987654E+00 0.33481933E+03</pdfrwt>
<pdfrwt beam="2">  1       -1 0.44603389E-01 0.33481933E+03</pdfrwt>
<totfact> 0.18286603E+01</totfact>
</mgrwt>
</event>
<event>
 4    1  0.2731969E-009  0.6842031E+03  0.7818608E-02  0.9744635E-01
         -1   -1    0    0    0  501 -0.00000000000E+00  0.00000000000E+00  0.87951023013E+03  0.87951023014E+03  0.50400000000E-02 0.  1.
          1   -1    0    0  501    0  0.00000000000E+00 -0.00000000000E+00 -0.79608995393E+03  0.79608995395E+03  0.50400000000E-02 0. -1.
    8880022    1    1    2    0    0  0.46221849096E+03  0.48072473895E+03 -0.44058846674E+03  0.81378870603E+03  0.15294330000E+03 0.  1.
    8880022    1    1    2    0    0 -0.46221849096E+03 -0.48072473895E+03  0.52400874294E+03  0.86181147806E+03  0.15294330000E+03 0.  0.
<mgrwt>
<rscale>  0 0.68420308E+03</rscale>
<asrwt>0</asrwt>
<pdfrwt beam="1">  1        1 0.12247538E+00 0.68420308E+03</pdfrwt>
<pdfrwt beam="2">  1       -1 0.13530927E+00 0.68420308E+03</pdfrwt>
<totfact> 0.10615502E+01</totfact>
</mgrwt>
</event>
<event>
 4    1  0.2731969E-009  0.2862204E+03  0.7818608E-02  0.1092339E+00
          1   -1    0    0  501    0  0.00000000000E+00  0.00000000000E+00  0.96666468984E+03  0.96666468986E+03  0.50400000000E-02 0. -1.
         -1   -1    0    0    0  501 -0.00000000000E+00 -0.00000000000E+00 -0.14970766692E+03  0.14970766700E+03  0.50400000000E-02 0.  1.
    8880022    1    1    2    0    0  0.47415482018E+02 -0.23723874976E+03  0.40788614298E+02  0.28911211734E+03  0.15294330000E+03 0.  0.
    8880022    1    1    2    0    0 -0.47415482018E+02  0.23723874976E+03  0.77616840863E+03  0.82726023952E+03  0.15294330000E+03 0.  0.
<mgrwt>
<rscale>  0 0.28622038E+03</rscale>
<asrwt>0</asrwt>
<pdfrwt beam="1">  1        1 0.14871764E+00 0.28622038E+03</pdfrwt>
<pdfrwt beam="2">  1       -1 0.23031949E-01 0.28622038E+03</pdfrwt>
<totfact> 0.27229562E+02</totfact>
</mgrwt>
</event>
<event>
 4    1  0.2731969E-009  0.8696419E+03  0.7818608E-02  0.9464347E-01
          1   -1    0    0  501    0  0.00000000000E+00  0.00000000000E+00  0.16522772207E+04  0.16522772207E+04  0.50400000000E-02 0. -1.
         -1   -1    0    0    0  501 -0.00000000000E+00 -0.00000000000E+00 -0.47453185879E+03  0.47453185882E+03  0.50400000000E-02 0.  1.
    8880022    1    1    2    0    0  0.10280228545E+03 -0.84989235237E+03  0.38870225091E+03  0.95255782680E+03  0.15294330000E+03 0.  0.
    8880022    1    1    2    0    0 -0.10280228545E+03  0.84989235237E+03  0.78904311102E+03  0.11742512527E+04  0.15294330000E+03 0.  0.
<mgrwt>
<rscale>  0 0.86964187E+03</rscale>
<asrwt>0</asrwt>
<pdfrwt beam="1">  1        1 0.25419650E+00 0.86964187E+03</pdfrwt>
<pdfrwt beam="2">  1       -1 0.73004901E-01 0.86964187E+03</pdfrwt>
<totfact> 0.99434474E+00</totfact>
</mgrwt>
</event>
<event>
 4    1  0.2731969E-009  0.5109511E+03  0.7818608E-02  0.1010959E+00
          1   -1    0    0  501    0  0.00000000000E+00  0.00000000000E+00  0.90017859564E+03  0.90017859565E+03  0.50400000000E-02 0. -1.
         -1   -1    0    0    0  501 -0.00000000000E+00 -0.00000000000E+00 -0.15640661761E+04  0.15640661761E+04  0.50400000000E-02 0.  1.
    8880022    1    1    2    0    0  0.37085767184E+03  0.31645527292E+03  0.78009168361E+03  0.93253098629E+03  0.15294330000E+03 0.  0.
    8880022    1    1    2    0    0 -0.37085767184E+03 -0.31645527292E+03 -0.14439792641E+04  0.15317137855E+04  0.15294330000E+03 0.  0.
<mgrwt>
<rscale>  0 0.51095108E+03</rscale>
<asrwt>0</asrwt>
<pdfrwt beam="1">  1        1 0.13848901E+00 0.51095108E+03</pdfrwt>
<pdfrwt beam="2">  1       -1 0.24062557E+00 0.51095108E+03</pdfrwt>
<totfact> 0.16154755E+00</totfact>
</mgrwt>
</event>
<event>
 4    1  0.2731969E-009  0.8313648E+03  0.7818608E-02  0.9515696E-01
         -1   -1    0    0    0  501 -0.00000000000E+00  0.00000000000E+00  0.17802632698E+04  0.17802632699E+04  0.50400000000E-02 0.  1.
          1   -1    0    0  501    0  0.00000000000E+00 -0.00000000000E+00 -0.83764350077E+03  0.83764350079E+03  0.50400000000E-02 0. -1.
    8880022    1    1    2    0    0  0.63330477992E+03  0.51643079303E+03  0.14300774887E+04  0.16541732028E+04  0.15294330000E+03 0.  0.
    8880022    1    1    2    0    0 -0.63330477992E+03 -0.51643079303E+03 -0.48745771964E+03  0.96373356780E+03  0.15294330000E+03 0.  0.
<mgrwt>
<rscale>  0 0.83136476E+03</rscale>
<asrwt>0</asrwt>
<pdfrwt beam="1">  1        1 0.12886823E+00 0.83136476E+03</pdfrwt>
<pdfrwt beam="2">  1       -1 0.27388666E+00 0.83136476E+03</pdfrwt>
<totfact> 0.10381498E+00</totfact>
</mgrwt>
</event>
<event>
 4    1  0.2731969E-009  0.4249370E+03  0.7818608E-02  0.1035471E+00
          1   -1    0    0  501    0  0.00000000000E+00  0.00000000000E+00  0.29528294658E+04  0.29528294659E+04  0.50400000000E-02 0. -1.
         -1   -1    0    0    0  501 -0.00000000000E+00 -0.00000000000E+00 -0.99571924421E+03  0.99571924422E+03  0.50400000000E-02 0.  1.
    8880022    1    1    2    0    0  0.35577747376E+03 -0.17493469840E+03 -0.93413376794E+03  0.10262442735E+04  0.15294330000E+03 0.  0.
    8880022    1    1    2    0    0 -0.35577747376E+03  0.17493469840E+03  0.28912439896E+04  0.29223044365E+04  0.15294330000E+03 0.  0.
<mgrwt>
<rscale>  0 0.42493695E+03</rscale>
<asrwt>0</asrwt>
<pdfrwt beam="1">  1        1 0.45428145E+00 0.42493695E+03</pdfrwt>
<pdfrwt beam="2">  1       -1 0.15318758E+00 0.42493695E+03</pdfrwt>
<totfact> 0.25945953E-01</totfact>
</mgrwt>
</event>
<event>
 4    1  0.2731969E-009  0.1738951E+04  0.7818608E-02  0.8739456E-01
         -1   -1    0    0    0  501 -0.00000000000E+00  0.00000000000E+00  0.22420988967E+04  0.22420988967E+04  0.50400000000E-02 0.  1.
          1   -1    0    0  501    0  0.00000000000E+00 -0.00000000000E+00 -0.17654499574E+04  0.17654499574E+04  0.50400000000E-02 0. -1.
    8880022    1    1    2    0    0  0.56292216040E+03  0.16381930511E+04 -0.73521098104E+03  0.18879842878E+04  0.15294330000E+03 0.  0.
    8880022    1    1    2    0    0 -0.56292216040E+03 -0.16381930511E+04  0.12118599203E+04  0.21195645663E+04  0.15294330000E+03 0.  0.
<mgrwt>
<rscale>  0 0.17389507E+04</rscale>
<asrwt>0</asrwt>
<pdfrwt beam="1">  1        1 0.27160768E+00 0.17389507E+04</pdfrwt>
<pdfrwt beam="2">  1       -1 0.34493829E+00 0.17389507E+04</pdfrwt>
<totfact> 0.66239883E-02</totfact>
</mgrwt>
</event>
<event>
 4    1  0.2731969E-009  0.6453677E+03  0.7818608E-02  0.9815510E-01
          1   -1    0    0  501    0  0.00000000000E+00  0.00000000000E+00  0.18196908856E+04  0.18196908856E+04  0.50400000000E-02 0. -1.
         -1   -1    0    0    0  501 -0.00000000000E+00 -0.00000000000E+00 -0.52605505598E+03  0.52605505600E+03  0.50400000000E-02 0.  1.
    8880022    1    1    2    0    0  0.15121720326E+02  0.62680070586E+03  0.15283499593E+04  0.16590217124E+04  0.15294330000E+03 0.  0.
    8880022    1    1    2    0    0 -0.15121720326E+02 -0.62680070586E+03 -0.23471412964E+03  0.68672422920E+03  0.15294330000E+03 0.  0.
<mgrwt>
<rscale>  0 0.64536768E+03</rscale>
<asrwt>0</asrwt>
<pdfrwt beam="1">  1        1 0.27995245E+00 0.64536768E+03</pdfrwt>
<pdfrwt beam="2">  1       -1 0.80931546E-01 0.64536768E+03</pdfrwt>
<totfact> 0.64058100E+00</totfact>
</mgrwt>
</event>
<event>
 4    1  0.2731969E-009  0.3861124E+03  0.7818608E-02  0.1048697E+00
          1   -1    0    0  501    0  0.00000000000E+00  0.00000000000E+00  0.24068473059E+04  0.24068473059E+04  0.50400000000E-02 0. -1.
         -1   -1    0    0    0  501 -0.00000000000E+00 -0.00000000000E+00 -0.76971629090E+02  0.76971629255E+02  0.50400000000E-02 0.  1.
    8880022    1    1    2    0    0  0.19337374533E+03  0.29714927715E+03  0.61614069253E+03  0.72712592053E+03  0.15294330000E+03 0.  0.
    8880022    1    1    2    0    0 -0.19337374533E+03 -0.29714927715E+03  0.17137349842E+04  0.17566930146E+04  0.15294330000E+03 0.  0.
<mgrwt>
<rscale>  0 0.38611236E+03</rscale>
<asrwt>0</asrwt>
<pdfrwt beam="1">  1        1 0.37028415E+00 0.38611236E+03</pdfrwt>
<pdfrwt beam="2">  1       -1 0.11841791E-01 0.38611236E+03</pdfrwt>
<totfact> 0.83279489E+01</totfact>
</mgrwt>
</event>
<event>
 4    1  0.2731969E-009  0.6773176E+03  0.7818608E-02  0.9756828E-01
          1   -1    0    0  501    0  0.00000000000E+00  0.00000000000E+00  0.10285905937E+04  0.10285905937E+04  0.50400000000E-02 0. -1.
         -1   -1    0    0    0  501 -0.00000000000E+00 -0.00000000000E+00 -0.11082841185E+04  0.11082841185E+04  0.50400000000E-02 0.  1.
    8880022    1    1    2    0    0 -0.40798126850E+03 -0.51857375878E+03 -0.86577672743E+03  0.10992399436E+04  0.15294330000E+03 0.  0.
    8880022    1    1    2    0    0  0.40798126850E+03  0.51857375878E+03  0.78608320264E+03  0.10376347687E+04  0.15294330000E+03 0.  0.
<mgrwt>
<rscale>  0 0.67731759E+03</rscale>
<asrwt>0</asrwt>
<pdfrwt beam="1">  1        1 0.15824471E+00 0.67731759E+03</pdfrwt>
<pdfrwt beam="2">  1       -1 0.17050525E+00 0.67731759E+03</pdfrwt>
<totfact> 0.36901643E+00</totfact>
</mgrwt>
</event>
<event>
 4    1  0.2731969E-009  0.5882727E+03  0.7818608E-02  0.9930040E-01
         -1   -1    0    0    0  501 -0.00000000000E+00  0.00000000000E+00  0.12623581936E+04  0.12623581936E+04  0.50400000000E-02 0.  1.
          1   -1    0    0  501    0  0.00000000000E+00 -0.00000000000E+00 -0.13231490010E+04  0.13231490010E+04  0.50400000000E-02 0. -1.
    8880022    1    1    2    0    0  0.44785245186E+03 -0.34942996946E+03 -0.11814625914E+04  0.13198176503E+04  0.15294330000E+03 0.  0.
    8880022    1    1    2    0    0 -0.44785245186E+03  0.34942996946E+03  0.11206717840E+04  0.12656895444E+04  0.15294330000E+03 0.  0.
<mgrwt>
<rscale>  0 0.58827270E+03</rscale>
<asrwt>0</asrwt>
<pdfrwt beam="1">  1        1 0.20356139E+00 0.58827270E+03</pdfrwt>
<pdfrwt beam="2">  1       -1 0.19420895E+00 0.58827270E+03</pdfrwt>
<totfact> 0.15612779E+00</totfact>
</mgrwt>
</event>
<event>
 4    1  0.2731969E-009  0.1291555E+04  0.7818608E-02  0.9036289E-01
          1   -1    0    0  501    0  0.00000000000E+00  0.00000000000E+00  0.14052912712E+04  0.14052912712E+04  0.50400000000E-02 0. -1.
         -1   -1    0    0    0  501 -0.00000000000E+00 -0.00000000000E+00 -0.13462815064E+04  0.13462815064E+04  0.50400000000E-02 0.  1.
    8880022    1    1    2    0    0 -0.89240953357E+03  0.92104760019E+03  0.50269144018E+03  0.13859342677E+04  0.15294330000E+03 0.  0.
    8880022    1    1    2    0    0  0.89240953357E+03 -0.92104760019E+03 -0.44368167538E+03  0.13656385098E+04  0.15294330000E+03 0.  0.
<mgrwt>
<rscale>  0 0.12915553E+04</rscale>
<asrwt>0</asrwt>
<pdfrwt beam="1">  1        1 0.21619866E+00 0.12915553E+04</pdfrwt>
<pdfrwt beam="2">  1       -1 0.20712023E+00 0.12915553E+04</pdfrwt>
<totfact> 0.99294439E-01</totfact>
</mgrwt>
</event>
<event>
 4    1  0.2731969E-009  0.3164469E+03  0.7818608E-02  0.1077296E+00
          1   -1    0    0  501    0  0.00000000000E+00  0.00000000000E+00  0.19326080045E+04  0.19326080045E+04  0.50400000000E-02 0. -1.
         -1   -1    0    0    0  501 -0.00000000000E+00 -0.00000000000E+00 -0.73596011989E+03  0.73596011991E+03  0.50400000000E-02 0.  1.
    8880022    1    1    2    0    0  0.20288939371E+03  0.18863430126E+03 -0.68813277803E+03  0.75740701008E+03  0.15294330000E+03 0.  1.
    8880022    1    1    2    0    0 -0.20288939371E+03 -0.18863430126E+03  0.18847806626E+04  0.19111611143E+04  0.15294330000E+03 0.  0.
<mgrwt>
<rscale>  0 0.31644693E+03</rscale>
<asrwt>0</asrwt>
<pdfrwt beam="1">  1        1 0.29732431E+00 0.31644693E+03</pdfrwt>
<pdfrwt beam="2">  1       -1 0.11322463E+00 0.31644693E+03</pdfrwt>
<totfact> 0.28205394E+00</totfact>
</mgrwt>
</event>
<event>
 4    1  0.2731969E-009  0.4034502E+03  0.7818608E-02  0.1042592E+00
         -1   -1    0    0    0  501 -0.00000000000E+00  0.00000000000E+00  0.52787692539E+03  0.52787692541E+03  0.50400000000E-02 0.  1.
          1   -1    0    0  501    0  0.00000000000E+00 -0.00000000000E+00 -0.89612740000E+03  0.89612740002E+03  0.50400000000E-02 0. -1.
    8880022    1    1    2    0    0 -0.30787208495E+03  0.21117572659E+03  0.39251112943E+03  0.56288280125E+03  0.15294330000E+03 0.  1.
    8880022    1    1    2    0    0  0.30787208495E+03 -0.21117572659E+03 -0.76076160405E+03  0.86112152418E+03  0.15294330000E+03 0.  0.
<mgrwt>
<rscale>  0 0.40345020E+03</rscale>
<asrwt>0</asrwt>
<pdfrwt beam="1">  1        1 0.13786575E+00 0.40345020E+03</pdfrwt>
<pdfrwt beam="2">  1       -1 0.81211835E-01 0.40345020E+03</pdfrwt>
<totfact> 0.29919879E+01</totfact>
</mgrwt>
</event>
<event>
 4    1  0.2731969E-009  0.5300793E+03  0.7818608E-02  0.1006213E+00
         -1   -1    0    0    0  501 -0.00000000000E+00  0.00000000000E+00  0.31454079302E+04  0.31454079302E+04  0.50400000000E-02 0.  1.
          1   -1    0    0  501    0  0.00000000000E+00 -0.00000000000E+00 -0.23408743402E+03  0.23408743408E+03  0.50400000000E-02 0. -1.
    8880022    1    1    2    0    0  0.50460256583E+03 -0.54485366384E+02  0.12688670188E+03  0.54505439428E+03  0.15294330000E+03 0.  0.
    8880022    1    1    2    0    0 -0.50460256583E+03  0.54485366384E+02  0.27844337943E+04  0.28344409700E+04  0.15294330000E+03 0.  0.
<mgrwt>
<rscale>  0 0.53007929E+03</rscale>
<asrwt>0</asrwt>
<pdfrwt beam="1">  1        1 0.36013452E-01 0.53007929E+03</pdfrwt>
<pdfrwt beam="2">  1       -1 0.48390890E+00 0.53007929E+03</pdfrwt>
<totfact> 0.25809217E-01</totfact>
</mgrwt>
</event>
<event>
 4    1  0.2731969E-009  0.5293769E+03  0.7818608E-02  0.1006383E+00
         -1   -1    0    0    0  501 -0.00000000000E+00  0.00000000000E+00  0.24067735253E+03  0.24067735258E+03  0.50400000000E-02 0.  1.
          1   -1    0    0  501    0  0.00000000000E+00 -0.00000000000E+00 -0.21874797952E+04  0.21874797952E+04  0.50400000000E-02 0. -1.
    8880022    1    1    2    0    0 -0.50648458719E+03 -0.17934886697E+02 -0.18036987025E+04  0.18797789656E+04  0.15294330000E+03 0.  0.
    8880022    1    1    2    0    0  0.50648458719E+03  0.17934886697E+02 -0.14310374021E+03  0.54837818219E+03  0.15294330000E+03 0.  0.
<mgrwt>
<rscale>  0 0.52937695E+03</rscale>
<asrwt>0</asrwt>
<pdfrwt beam="1">  1        1 0.33653534E+00 0.52937695E+03</pdfrwt>
<pdfrwt beam="2">  1       -1 0.37027286E-01 0.52937695E+03</pdfrwt>
<totfact> 0.16924287E+01</totfact>
</mgrwt>
</event>
<event>
 4    1  0.2731969E-009  0.8571333E+03  0.7818608E-02  0.9480813E-01
         -1   -1    0    0    0  501 -0.00000000000E+00  0.00000000000E+00  0.10915975858E+04  0.10915975858E+04  0.50400000000E-02 0.  1.
          1   -1    0    0  501    0  0.00000000000E+00 -0.00000000000E+00 -0.22596184011E+04  0.22596184011E+04  0.50400000000E-02 0. -1.
    8880022    1    1    2    0    0 -0.29021403017E+03  0.79187227770E+03  0.82005408811E+03  0.11862403837E+04  0.15294330000E+03 0.  0.
    8880022    1    1    2    0    0  0.29021403017E+03 -0.79187227770E+03 -0.19880749035E+04  0.21649756032E+04  0.15294330000E+03 0.  0.
<mgrwt>
<rscale>  0 0.85713333E+03</rscale>
<asrwt>0</asrwt>
<pdfrwt beam="1">  1        1 0.34763360E+00 0.85713333E+03</pdfrwt>
<pdfrwt beam="2">  1       -1 0.16793809E+00 0.85713333E+03</pdfrwt>
<totfact> 0.52691654E-01</totfact>
</mgrwt>
</event>
<event>
 4    1  0.2731969E-009  0.7011444E+03  0.7818608E-02  0.9715277E-01
         -1   -1    0    0    0  501 -0.00000000000E+00  0.00000000000E+00  0.37208171000E+03  0.37208171003E+03  0.50400000000E-02 0.  1.
          1   -1    0    0  501    0  0.00000000000E+00 -0.00000000000E+00 -0.21925550587E+04  0.21925550587E+04  0.50400000000E-02 0. -1.
    8880022    1    1    2    0    0  0.68275584448E+03  0.45345537046E+02 -0.17186102820E+04  0.18561316535E+04  0.15294330000E+03 0.  0.
    8880022    1    1    2    0    0 -0.68275584448E+03 -0.45345537046E+02 -0.10186306673E+03  0.70850511521E+03  0.15294330000E+03 0.  1.
<mgrwt>
<rscale>  0 0.70114436E+03</rscale>
<asrwt>0</asrwt>
<pdfrwt beam="1">  1        1 0.33731616E+00 0.70114436E+03</pdfrwt>
<pdfrwt beam="2">  1       -1 0.57243341E-01 0.70114436E+03</pdfrwt>
<totfact> 0.72206106E+00</totfact>
</mgrwt>
</event>
<event>
 4    1  0.2731969E-009  0.4012879E+03  0.7818608E-02  0.1043335E+00
         -1   -1    0    0    0  501 -0.00000000000E+00  0.00000000000E+00  0.37256550700E+03  0.37256550703E+03  0.50400000000E-02 0.  1.
          1   -1    0    0  501    0  0.00000000000E+00 -0.00000000000E+00 -0.16188493013E+04  0.16188493013E+04  0.50400000000E-02 0. -1.
    8880022    1    1    2    0    0 -0.22007713630E+02 -0.37034581156E+03  0.22934006891E+03  0.46220004308E+03  0.15294330000E+03 0.  0.
    8880022    1    1    2    0    0  0.22007713630E+02  0.37034581156E+03 -0.14756238632E+04  0.15292147652E+04  0.15294330000E+03 0.  0.
<mgrwt>
<rscale>  0 0.40128794E+03</rscale>
<asrwt>0</asrwt>
<pdfrwt beam="1">  1        1 0.24905373E+00 0.40128794E+03</pdfrwt>
<pdfrwt beam="2">  1       -1 0.57317771E-01 0.40128794E+03</pdfrwt>
<totfact> 0.18486143E+01</totfact>
</mgrwt>
</event>
<event>
 4    1  0.2731969E-009  0.3080757E+03  0.7818608E-02  0.1081272E+00
         -1   -1    0    0    0  501 -0.00000000000E+00  0.00000000000E+00  0.64508871139E+03  0.64508871141E+03  0.50400000000E-02 0.  1.
          1   -1    0    0  501    0  0.00000000000E+00 -0.00000000000E+00 -0.45582333312E+03  0.45582333315E+03  0.50400000000E-02 0. -1.
    8880022    1    1    2    0    0  0.25683544759E+03 -0.74528766121E+02 -0.35835808362E+03  0.47257925603E+03  0.15294330000E+03 0. -1.
    8880022    1    1    2    0    0 -0.25683544759E+03  0.74528766121E+02  0.54762346189E+03  0.62833278854E+03  0.15294330000E+03 0.  0.
<mgrwt>
<rscale>  0 0.30807570E+03</rscale>
<asrwt>0</asrwt>
<pdfrwt beam="1">  1        1 0.70126668E-01 0.30807570E+03</pdfrwt>
<pdfrwt beam="2">  1       -1 0.99244416E-01 0.30807570E+03</pdfrwt>
<totfact> 0.52653387E+01</totfact>
</mgrwt>
</event>
<event>
 4    1  0.2731969E-009  0.1012746E+04  0.7818608E-02  0.9294674E-01
         -1   -1    0    0    0  501 -0.00000000000E+00  0.00000000000E+00  0.87397660995E+03  0.87397660997E+03  0.50400000000E-02 0.  1.
          1   -1    0    0  501    0  0.00000000000E+00 -0.00000000000E+00 -0.16288690053E+04  0.16288690053E+04  0.50400000000E-02 0. -1.
    8880022    1    1    2    0    0 -0.83363653806E+03  0.55435893982E+03  0.28418932347E+03  0.10518645047E+04  0.15294330000E+03 0.  0.
    8880022    1    1    2    0    0  0.83363653806E+03 -0.55435893982E+03 -0.10390817189E+04  0.14509811106E+04  0.15294330000E+03 0.  0.
<mgrwt>
<rscale>  0 0.10127464E+04</rscale>
<asrwt>0</asrwt>
<pdfrwt beam="1">  1        1 0.25059523E+00 0.10127464E+04</pdfrwt>
<pdfrwt beam="2">  1       -1 0.13445794E+00 0.10127464E+04</pdfrwt>
<totfact> 0.24933504E+00</totfact>
</mgrwt>
</event>
<event>
 4    1  0.2731969E-009  0.1825327E+03  0.7818608E-02  0.1165374E+00
         -1   -1    0    0    0  501 -0.00000000000E+00  0.00000000000E+00  0.19437113109E+03  0.19437113116E+03  0.50400000000E-02 0.  1.
          1   -1    0    0  501    0  0.00000000000E+00 -0.00000000000E+00 -0.36271525421E+03  0.36271525425E+03  0.50400000000E-02 0. -1.
    8880022    1    1    2    0    0 -0.80645999365E+02  0.58504262346E+02  0.11811453702E+03  0.21741486333E+03  0.15294330000E+03 0.  1.
    8880022    1    1    2    0    0  0.80645999365E+02 -0.58504262346E+02 -0.28645866014E+03  0.33967152208E+03  0.15294330000E+03 0.  0.
<mgrwt>
<rscale>  0 0.18253268E+03</rscale>
<asrwt>0</asrwt>
<pdfrwt beam="1">  1        1 0.55802347E-01 0.18253268E+03</pdfrwt>
<pdfrwt beam="2">  1       -1 0.29903251E-01 0.18253268E+03</pdfrwt>
<totfact> 0.70869355E+02</totfact>
</mgrwt>
</event>
<event>
 4    1  0.2731969E-009  0.5305803E+03  0.7818608E-02  0.1006091E+00
         -1   -1    0    0    0  501 -0.00000000000E+00  0.00000000000E+00  0.14128686825E+03  0.14128686834E+03  0.50400000000E-02 0.  1.
          1   -1    0    0  501    0  0.00000000000E+00 -0.00000000000E+00 -0.29359484045E+04  0.29359484045E+04  0.50400000000E-02 0. -1.
    8880022    1    1    2    0    0  0.11997537031E+03  0.49368986923E+03 -0.22695253485E+04  0.23307210767E+04  0.15294330000E+03 0.  0.
    8880022    1    1    2    0    0 -0.11997537031E+03 -0.49368986923E+03 -0.52513618773E+03  0.74651419621E+03  0.15294330000E+03 0.  0.
<mgrwt>
<rscale>  0 0.53058028E+03</rscale>
<asrwt>0</asrwt>
<pdfrwt beam="1">  1        1 0.45168433E+00 0.53058028E+03</pdfrwt>
<pdfrwt beam="2">  1       -1 0.21736443E-01 0.53058028E+03</pdfrwt>
<totfact> 0.13069338E+01</totfact>
</mgrwt>
</event>
<event>
 4    1  0.2731969E-009  0.6056058E+03  0.7818608E-02  0.9893844E-01
         -1   -1    0    0    0  501 -0.00000000000E+00  0.00000000000E+00  0.75218979243E+03  0.75218979245E+03  0.50400000000E-02 0.  1.
          1   -1    0    0  501    0  0.00000000000E+00 -0.00000000000E+00 -0.10323617675E+04  0.10323617675E+04  0.50400000000E-02 0. -1.
    8880022    1    1    2    0    0 -0.47693559711E+03 -0.34043967009E+03 -0.78825970505E+03  0.99403810208E+03  0.15294330000E+03 0.  0.
    8880022    1    1    2    0    0  0.47693559711E+03  0.34043967009E+03  0.50808772996E+03  0.79051345790E+03  0.15294330000E+03 0.  0.
<mgrwt>
<rscale>  0 0.60560580E+03</rscale>
<asrwt>0</asrwt>
<pdfrwt beam="1">  1        1 0.15882489E+00 0.60560580E+03</pdfrwt>
<pdfrwt beam="2">  1       -1 0.11572151E+00 0.60560580E+03</pdfrwt>
<totfact> 0.10198147E+01</totfact>
</mgrwt>
</event>
<event>
 4    1  0.2731969E-009  0.7952230E+03  0.7818608E-02  0.9566958E-01
          1   -1    0    0  501    0  0.00000000000E+00  0.00000000000E+00  0.10015486955E+04  0.10015486955E+04  0.50400000000E-02 0. -1.
         -1   -1    0    0    0  501 -0.00000000000E+00 -0.00000000000E+00 -0.12980372162E+04  0.12980372162E+04  0.50400000000E-02 0.  1.
    8880022    1    1    2    0    0 -0.55993020469E+02 -0.77836538972E+03  0.67574261568E+03  0.10435552855E+04  0.15294330000E+03 0.  0.
    8880022    1    1    2    0    0  0.55993020469E+02  0.77836538972E+03 -0.97223113642E+03  0.12560306262E+04  0.15294330000E+03 0.  0.
<mgrwt>
<rscale>  0 0.79522296E+03</rscale>
<asrwt>0</asrwt>
<pdfrwt beam="1">  1        1 0.15408441E+00 0.79522296E+03</pdfrwt>
<pdfrwt beam="2">  1       -1 0.19969803E+00 0.79522296E+03</pdfrwt>
<totfact> 0.23608911E+00</totfact>
</mgrwt>
</event>
<event>
 4    1  0.3066786E-009  0.1518885E+04  0.7818608E-02  0.8871991E-01
          1   -1    0    0  501    0  0.00000000000E+00  0.00000000000E+00  0.19555111561E+04  0.19555111561E+04  0.50400000000E-02 0. -1.
         -1   -1    0    0    0  501 -0.00000000000E+00 -0.00000000000E+00 -0.28433309631E+04  0.28433309631E+04  0.50400000000E-02 0.  1.
    8880022    1    1    2    0    0 -0.14406411134E+04 -0.45626020250E+03 -0.22792429868E+04  0.27389706891E+04  0.15294330000E+03 0.  0.
    8880022    1    1    2    0    0  0.14406411134E+04  0.45626020250E+03  0.13914231797E+04  0.20598714300E+04  0.15294330000E+03 0.  0.
<mgrwt>
<rscale>  0 0.15188851E+04</rscale>
<asrwt>0</asrwt>
<pdfrwt beam="1">  1        1 0.30084787E+00 0.15188851E+04</pdfrwt>
<pdfrwt beam="2">  1       -1 0.43743553E+00 0.15188851E+04</pdfrwt>
<totfact> 0.11877398E-02</totfact>
</mgrwt>
</event>
<event>
 4    1  0.2731969E-009  0.2196920E+04  0.7818608E-02  0.8519711E-01
         -1   -1    0    0    0  501 -0.00000000000E+00  0.00000000000E+00  0.17751781430E+04  0.17751781430E+04  0.50400000000E-02 0.  1.
          1   -1    0    0  501    0  0.00000000000E+00 -0.00000000000E+00 -0.36008661868E+04  0.36008661868E+04  0.50400000000E-02 0. -1.
    8880022    1    1    2    0    0  0.20834313017E+04 -0.67998430963E+03  0.41750562882E+03  0.22362395339E+04  0.15294330000E+03 0.  0.
    8880022    1    1    2    0    0 -0.20834313017E+04  0.67998430963E+03 -0.22431936726E+04  0.31398047958E+04  0.15294330000E+03 0.  0.
<mgrwt>
<rscale>  0 0.21969197E+04</rscale>
<asrwt>0</asrwt>
<pdfrwt beam="1">  1        1 0.55397941E+00 0.21969197E+04</pdfrwt>
<pdfrwt beam="2">  1       -1 0.27310433E+00 0.21969197E+04</pdfrwt>
<totfact> 0.88881101E-03</totfact>
</mgrwt>
</event>
<event>
 4    1  0.2731969E-009  0.1002223E+04  0.7818608E-02  0.9306110E-01
         -1   -1    0    0    0  501 -0.00000000000E+00  0.00000000000E+00  0.89746011193E+03  0.89746011195E+03  0.50400000000E-02 0.  1.
          1   -1    0    0  501    0  0.00000000000E+00 -0.00000000000E+00 -0.14076517606E+04  0.14076517606E+04  0.50400000000E-02 0. -1.
    8880022    1    1    2    0    0  0.72227754444E+03  0.67777110600E+03  0.26662748689E+03  0.10370826356E+04  0.15294330000E+03 0.  0.
    8880022    1    1    2    0    0 -0.72227754444E+03 -0.67777110600E+03 -0.77681913554E+03  0.12680292369E+04  0.15294330000E+03 0.  0.
<mgrwt>
<rscale>  0 0.10022226E+04</rscale>
<asrwt>0</asrwt>
<pdfrwt beam="1">  1        1 0.21656181E+00 0.10022226E+04</pdfrwt>
<pdfrwt beam="2">  1       -1 0.13807079E+00 0.10022226E+04</pdfrwt>
<totfact> 0.33125340E+00</totfact>
</mgrwt>
</event>
<event>
 4    1  0.2731969E-009  0.9143625E+03  0.7818608E-02  0.9407804E-01
         -1   -1    0    0    0  501 -0.00000000000E+00  0.00000000000E+00  0.96618475591E+03  0.96618475592E+03  0.50400000000E-02 0.  1.
          1   -1    0    0  501    0  0.00000000000E+00 -0.00000000000E+00 -0.16374693331E+04  0.16374693331E+04  0.50400000000E-02 0. -1.
    8880022    1    1    2    0    0  0.76449567875E+03  0.47771702467E+03 -0.12296008612E+04  0.15323110420E+04  0.15294330000E+03 0.  0.
    8880022    1    1    2    0    0 -0.76449567875E+03 -0.47771702467E+03  0.55831628399E+03  0.10713430471E+04  0.15294330000E+03 0.  0.
<mgrwt>
<rscale>  0 0.91436254E+03</rscale>
<asrwt>0</asrwt>
<pdfrwt beam="1">  1        1 0.25191836E+00 0.91436254E+03</pdfrwt>
<pdfrwt beam="2">  1       -1 0.14864381E+00 0.91436254E+03</pdfrwt>
<totfact> 0.19174626E+00</totfact>
</mgrwt>
</event>
<event>
 4    1  0.2731969E-009  0.6292362E+03  0.7818608E-02  0.9846540E-01
          1   -1    0    0  501    0  0.00000000000E+00  0.00000000000E+00  0.19525493550E+04  0.19525493550E+04  0.50400000000E-02 0. -1.
         -1   -1    0    0    0  501 -0.00000000000E+00 -0.00000000000E+00 -0.80426993080E+03  0.80426993082E+03  0.50400000000E-02 0.  1.
    8880022    1    1    2    0    0 -0.55146808950E+03 -0.26159027774E+03  0.17661816265E+04  0.18749228566E+04  0.15294330000E+03 0.  0.
    8880022    1    1    2    0    0  0.55146808950E+03  0.26159027774E+03 -0.61790220238E+03  0.88189642922E+03  0.15294330000E+03 0.  0.
<mgrwt>
<rscale>  0 0.62923619E+03</rscale>
<asrwt>0</asrwt>
<pdfrwt beam="1">  1        1 0.30039220E+00 0.62923619E+03</pdfrwt>
<pdfrwt beam="2">  1       -1 0.12373384E+00 0.62923619E+03</pdfrwt>
<totfact> 0.19930018E+00</totfact>
</mgrwt>
</event>
<event>
 4    1  0.2731969E-009  0.7601617E+03  0.7818608E-02  0.9619542E-01
          1   -1    0    0  501    0  0.00000000000E+00  0.00000000000E+00  0.12077946556E+04  0.12077946556E+04  0.50400000000E-02 0. -1.
         -1   -1    0    0    0  501 -0.00000000000E+00 -0.00000000000E+00 -0.89227787394E+03  0.89227787396E+03  0.50400000000E-02 0.  1.
    8880022    1    1    2    0    0 -0.74673914704E+01 -0.74457931293E+03  0.87287086308E+03  0.11574754044E+04  0.15294330000E+03 0.  0.
    8880022    1    1    2    0    0  0.74673914704E+01  0.74457931293E+03 -0.55735408146E+03  0.94259712513E+03  0.15294330000E+03 0.  0.
<mgrwt>
<rscale>  0 0.76016167E+03</rscale>
<asrwt>0</asrwt>
<pdfrwt beam="1">  1        1 0.18581456E+00 0.76016167E+03</pdfrwt>
<pdfrwt beam="2">  1       -1 0.13727352E+00 0.76016167E+03</pdfrwt>
<totfact> 0.48247302E+00</totfact>
</mgrwt>
</event>
<event>
 4    1  0.2731969E-009  0.6820225E+03  0.7818608E-02  0.9748480E-01
          1   -1    0    0  501    0  0.00000000000E+00  0.00000000000E+00  0.38874436661E+03  0.38874436665E+03  0.50400000000E-02 0. -1.
         -1   -1    0    0    0  501 -0.00000000000E+00 -0.00000000000E+00 -0.18267004646E+04  0.18267004646E+04  0.50400000000E-02 0.  1.
    8880022    1    1    2    0    0  0.82915686544E+02  0.65946043725E+03 -0.68373573420E+02  0.68544122865E+03  0.15294330000E+03 0.  0.
    8880022    1    1    2    0    0 -0.82915686544E+02 -0.65946043725E+03 -0.13695825246E+04  0.15300036026E+04  0.15294330000E+03 0.  0.
<mgrwt>
<rscale>  0 0.68202253E+03</rscale>
<asrwt>0</asrwt>
<pdfrwt beam="1">  1        1 0.59806827E-01 0.68202253E+03</pdfrwt>
<pdfrwt beam="2">  1       -1 0.28103084E+00 0.68202253E+03</pdfrwt>
<totfact> 0.28914376E+00</totfact>
</mgrwt>
</event>
<event>
 4    1  0.2731969E-009  0.4794308E+03  0.7818608E-02  0.1019292E+00
         -1   -1    0    0    0  501 -0.00000000000E+00  0.00000000000E+00  0.29060527715E+03  0.29060527720E+03  0.50400000000E-02 0.  1.
          1   -1    0    0  501    0  0.00000000000E+00 -0.00000000000E+00 -0.15490613676E+04  0.15490613676E+04  0.50400000000E-02 0. -1.
    8880022    1    1    2    0    0 -0.17615036854E+03  0.41884758892E+03 -0.12727178380E+04  0.13600237510E+04  0.15294330000E+03 0.  0.
    8880022    1    1    2    0    0  0.17615036854E+03 -0.41884758892E+03  0.14261747612E+02  0.47964289376E+03  0.15294330000E+03 0.  0.
<mgrwt>
<rscale>  0 0.47943082E+03</rscale>
<asrwt>0</asrwt>
<pdfrwt beam="1">  1        1 0.23831713E+00 0.47943082E+03</pdfrwt>
<pdfrwt beam="2">  1       -1 0.44708505E-01 0.47943082E+03</pdfrwt>
<totfact> 0.32258830E+01</totfact>
</mgrwt>
</event>
<event>
 4    1  0.2731969E-009  0.4383033E+03  0.7818608E-02  0.1031269E+00
         -1   -1    0    0    0  501 -0.00000000000E+00  0.00000000000E+00  0.73280882754E+03  0.73280882756E+03  0.50400000000E-02 0.  1.
          1   -1    0    0  501    0  0.00000000000E+00 -0.00000000000E+00 -0.55381390651E+03  0.55381390654E+03  0.50400000000E-02 0. -1.
    8880022    1    1    2    0    0  0.56517566788E+02 -0.40684633032E+03 -0.37735170467E+03  0.57836332343E+03  0.15294330000E+03 0.  0.
    8880022    1    1    2    0    0 -0.56517566788E+02  0.40684633032E+03  0.55634662570E+03  0.70825941066E+03  0.15294330000E+03 0.  0.
<mgrwt>
<rscale>  0 0.43830335E+03</rscale>
<asrwt>0</asrwt>
<pdfrwt beam="1">  1        1 0.85202139E-01 0.43830335E+03</pdfrwt>
<pdfrwt beam="2">  1       -1 0.11273982E+00 0.43830335E+03</pdfrwt>
<totfact> 0.29493400E+01</totfact>
</mgrwt>
</event>
<event>
 4    1  0.2731969E-009  0.1102448E+04  0.7818608E-02  0.9202809E-01
         -1   -1    0    0    0  501 -0.00000000000E+00  0.00000000000E+00  0.75917222599E+03  0.75917222601E+03  0.50400000000E-02 0.  1.
          1   -1    0    0  501    0  0.00000000000E+00 -0.00000000000E+00 -0.19035436854E+04  0.19035436854E+04  0.50400000000E-02 0. -1.
    8880022    1    1    2    0    0 -0.90304969040E+03 -0.61359749022E+03 -0.11030061197E+04  0.15594918328E+04  0.15294330000E+03 0.  0.
    8880022    1    1    2    0    0  0.90304969040E+03  0.61359749022E+03 -0.41365339683E+02  0.11032240786E+04  0.15294330000E+03 0.  0.
<mgrwt>
<rscale>  0 0.11024483E+04</rscale>
<asrwt>0</asrwt>
<pdfrwt beam="1">  1        1 0.29285287E+00 0.11024483E+04</pdfrwt>
<pdfrwt beam="2">  1       -1 0.11679573E+00 0.11024483E+04</pdfrwt>
<totfact> 0.22820535E+00</totfact>
</mgrwt>
</event>
<event>
 4    1  0.2731969E-009  0.5099125E+03  0.7818608E-02  0.1011224E+00
         -1   -1    0    0    0  501 -0.00000000000E+00  0.00000000000E+00  0.48106822781E+03  0.48106822784E+03  0.50400000000E-02 0.  1.
          1   -1    0    0  501    0  0.00000000000E+00 -0.00000000000E+00 -0.80801791132E+03  0.80801791133E+03  0.50400000000E-02 0. -1.
    8880022    1    1    2    0    0  0.51697740980E+02 -0.48368014277E+03  0.20740138508E+03  0.55047808720E+03  0.15294330000E+03 0.  0.
    8880022    1    1    2    0    0 -0.51697740980E+02  0.48368014277E+03 -0.53435106858E+03  0.73860805198E+03  0.15294330000E+03 0.  0.
<mgrwt>
<rscale>  0 0.50991253E+03</rscale>
<asrwt>0</asrwt>
<pdfrwt beam="1">  1        1 0.12431045E+00 0.50991253E+03</pdfrwt>
<pdfrwt beam="2">  1       -1 0.74010497E-01 0.50991253E+03</pdfrwt>
<totfact> 0.42134817E+01</totfact>
</mgrwt>
</event>
<event>
 4    1  0.2731969E-009  0.1262921E+04  0.7818608E-02  0.9059497E-01
         -1   -1    0    0    0  501 -0.00000000000E+00  0.00000000000E+00  0.18728677028E+04  0.18728677028E+04  0.50400000000E-02 0.  1.
          1   -1    0    0  501    0  0.00000000000E+00 -0.00000000000E+00 -0.10486181666E+04  0.10486181666E+04  0.50400000000E-02 0. -1.
    8880022    1    1    2    0    0  0.67223936053E+02  0.12518223205E+04  0.10452610973E+04  0.16393720122E+04  0.15294330000E+03 0.  0.
    8880022    1    1    2    0    0 -0.67223936053E+02 -0.12518223205E+04 -0.22101156111E+03  0.12821138573E+04  0.15294330000E+03 0.  0.
<mgrwt>
<rscale>  0 0.12629212E+04</rscale>
<asrwt>0</asrwt>
<pdfrwt beam="1">  1        1 0.16132587E+00 0.12629212E+04</pdfrwt>
<pdfrwt beam="2">  1       -1 0.28813349E+00 0.12629212E+04</pdfrwt>
<totfact> 0.53394803E-01</totfact>
</mgrwt>
</event>
<event>
 4    1  0.2731969E-009  0.5763582E+03  0.7818608E-02  0.9955707E-01
         -1   -1    0    0    0  501 -0.00000000000E+00  0.00000000000E+00  0.28241868596E+03  0.28241868600E+03  0.50400000000E-02 0.  1.
          1   -1    0    0  501    0  0.00000000000E+00 -0.00000000000E+00 -0.18359282910E+04  0.18359282910E+04  0.50400000000E-02 0. -1.
    8880022    1    1    2    0    0 -0.25929933426E+03 -0.49148854740E+03 -0.14184423635E+03  0.59355587552E+03  0.15294330000E+03 0.  0.
    8880022    1    1    2    0    0  0.25929933426E+03  0.49148854740E+03 -0.14116653687E+04  0.15247911015E+04  0.15294330000E+03 0. -1.
<mgrwt>
<rscale>  0 0.57635821E+03</rscale>
<asrwt>0</asrwt>
<pdfrwt beam="1">  1        1 0.28245050E+00 0.57635821E+03</pdfrwt>
<pdfrwt beam="2">  1       -1 0.43449030E-01 0.57635821E+03</pdfrwt>
<totfact> 0.21485155E+01</totfact>
</mgrwt>
</event>
<event>
 4    1  0.2731969E-009  0.1331916E+04  0.7818608E-02  0.9004632E-01
         -1   -1    0    0    0  501 -0.00000000000E+00  0.00000000000E+00  0.12724485574E+04  0.12724485574E+04  0.50400000000E-02 0.  1.
          1   -1    0    0  501    0  0.00000000000E+00 -0.00000000000E+00 -0.18981551506E+04  0.18981551506E+04  0.50400000000E-02 0. -1.
    8880022    1    1    2    0    0  0.57936258986E+03 -0.11895151296E+04 -0.11297339422E+04  0.17465101452E+04  0.15294330000E+03 0.  0.
    8880022    1    1    2    0    0 -0.57936258986E+03  0.11895151296E+04  0.50402734895E+03  0.14240935628E+04  0.15294330000E+03 0.  0.
<mgrwt>
<rscale>  0 0.13319155E+04</rscale>
<asrwt>0</asrwt>
<pdfrwt beam="1">  1        1 0.29202387E+00 0.13319155E+04</pdfrwt>
<pdfrwt beam="2">  1       -1 0.19576132E+00 0.13319155E+04</pdfrwt>
<totfact> 0.54271877E-01</totfact>
</mgrwt>
</event>
<event>
 4    1  0.2731969E-009  0.7377838E+03  0.7818608E-02  0.9654713E-01
         -1   -1    0    0    0  501 -0.00000000000E+00  0.00000000000E+00  0.52241843474E+03  0.52241843476E+03  0.50400000000E-02 0.  1.
          1   -1    0    0  501    0  0.00000000000E+00 -0.00000000000E+00 -0.19445978563E+04  0.19445978563E+04  0.50400000000E-02 0. -1.
    8880022    1    1    2    0    0  0.13668624527E+03 -0.70869612320E+03 -0.15514981426E+04  0.17179847101E+04  0.15294330000E+03 0.  0.
    8880022    1    1    2    0    0 -0.13668624527E+03  0.70869612320E+03  0.12931872101E+03  0.74903158098E+03  0.15294330000E+03 0.  0.
<mgrwt>
<rscale>  0 0.73778383E+03</rscale>
<asrwt>0</asrwt>
<pdfrwt beam="1">  1        1 0.29916890E+00 0.73778383E+03</pdfrwt>
<pdfrwt beam="2">  1       -1 0.80372068E-01 0.73778383E+03</pdfrwt>
<totfact> 0.52743066E+00</totfact>
</mgrwt>
</event>
<event>
 4    1  0.2731969E-009  0.8389033E+03  0.7818608E-02  0.9505353E-01
         -1   -1    0    0    0  501 -0.00000000000E+00  0.00000000000E+00  0.11844870772E+04  0.11844870772E+04  0.50400000000E-02 0.  1.
          1   -1    0    0  501    0  0.00000000000E+00 -0.00000000000E+00 -0.28885188958E+04  0.28885188958E+04  0.50400000000E-02 0. -1.
    8880022    1    1    2    0    0 -0.40781776247E+03  0.71697407409E+03 -0.26670275015E+04  0.27958530893E+04  0.15294330000E+03 0.  0.
    8880022    1    1    2    0    0  0.40781776247E+03 -0.71697407409E+03  0.96299568282E+03  0.12771528837E+04  0.15294330000E+03 0.  0.
<mgrwt>
<rscale>  0 0.83890333E+03</rscale>
<asrwt>0</asrwt>
<pdfrwt beam="1">  1        1 0.44438752E+00 0.83890333E+03</pdfrwt>
<pdfrwt beam="2">  1       -1 0.18222878E+00 0.83890333E+03</pdfrwt>
<totfact> 0.15356469E-01</totfact>
</mgrwt>
</event>
<event>
 4    1  0.2731969E-009  0.1771464E+04  0.7818608E-02  0.8721624E-01
         -1   -1    0    0    0  501 -0.00000000000E+00  0.00000000000E+00  0.12931873811E+04  0.12931873812E+04  0.50400000000E-02 0.  1.
          1   -1    0    0  501    0  0.00000000000E+00 -0.00000000000E+00 -0.26204098693E+04  0.26204098693E+04  0.50400000000E-02 0. -1.
    8880022    1    1    2    0    0  0.17215346700E+04  0.38860162387E+03 -0.11957418970E+04  0.21372606718E+04  0.15294330000E+03 0.  0.
    8880022    1    1    2    0    0 -0.17215346700E+04 -0.38860162387E+03 -0.13148059123E+03  0.17763365787E+04  0.15294330000E+03 0.  0.
<mgrwt>
<rscale>  0 0.17714639E+04</rscale>
<asrwt>0</asrwt>
<pdfrwt beam="1">  1        1 0.40313998E+00 0.17714639E+04</pdfrwt>
<pdfrwt beam="2">  1       -1 0.19895190E+00 0.17714639E+04</pdfrwt>
<totfact> 0.15667591E-01</totfact>
</mgrwt>
</event>
<event>
 4    1  0.2731969E-009  0.7840210E+03  0.7818608E-02  0.9583438E-01
          1   -1    0    0  501    0  0.00000000000E+00  0.00000000000E+00  0.52796479017E+03  0.52796479019E+03  0.50400000000E-02 0. -1.
         -1   -1    0    0    0  501 -0.00000000000E+00 -0.00000000000E+00 -0.13202170956E+04  0.13202170956E+04  0.50400000000E-02 0.  1.
    8880022    1    1    2    0    0  0.71955640768E+03 -0.27117487325E+03 -0.71373531265E+03  0.10602391170E+04  0.15294330000E+03 0.  0.
    8880022    1    1    2    0    0 -0.71955640768E+03  0.27117487325E+03 -0.78516992793E+02  0.78794276879E+03  0.15294330000E+03 0.  0.
<mgrwt>
<rscale>  0 0.78402097E+03</rscale>
<asrwt>0</asrwt>
<pdfrwt beam="1">  1        1 0.81225353E-01 0.78402097E+03</pdfrwt>
<pdfrwt beam="2">  1       -1 0.20311032E+00 0.78402097E+03</pdfrwt>
<totfact> 0.60642532E+00</totfact>
</mgrwt>
</event>
<event>
 4    1  0.2731969E-009  0.1355062E+04  0.7818608E-02  0.8987005E-01
         -1   -1    0    0    0  501 -0.00000000000E+00  0.00000000000E+00  0.20889942702E+04  0.20889942702E+04  0.50400000000E-02 0.  1.
          1   -1    0    0  501    0  0.00000000000E+00 -0.00000000000E+00 -0.11238783734E+04  0.11238783734E+04  0.50400000000E-02 0. -1.
    8880022    1    1    2    0    0  0.49338625681E+03 -0.12527452059E+04  0.12324407697E+04  0.18316938754E+04  0.15294330000E+03 0.  0.
    8880022    1    1    2    0    0 -0.49338625681E+03  0.12527452059E+04 -0.26732487285E+03  0.13811787683E+04  0.15294330000E+03 0.  0.
<mgrwt>
<rscale>  0 0.13550617E+04</rscale>
<asrwt>0</asrwt>
<pdfrwt beam="1">  1        1 0.17290437E+00 0.13550617E+04</pdfrwt>
<pdfrwt beam="2">  1       -1 0.32138373E+00 0.13550617E+04</pdfrwt>
<totfact> 0.28180857E-01</totfact>
</mgrwt>
</event>
<event>
 4    1  0.2731969E-009  0.1126245E+04  0.7818608E-02  0.9179983E-01
          1   -1    0    0  501    0  0.00000000000E+00  0.00000000000E+00  0.14171587826E+04  0.14171587826E+04  0.50400000000E-02 0. -1.
         -1   -1    0    0    0  501 -0.00000000000E+00 -0.00000000000E+00 -0.25217432643E+04  0.25217432643E+04  0.50400000000E-02 0.  1.
    8880022    1    1    2    0    0  0.77600783871E+03 -0.80177761504E+03 -0.21340779973E+04  0.24130304725E+04  0.15294330000E+03 0.  0.
    8880022    1    1    2    0    0 -0.77600783871E+03  0.80177761504E+03  0.10294935156E+04  0.15258715744E+04  0.15294330000E+03 0.  0.
<mgrwt>
<rscale>  0 0.11262447E+04</rscale>
<asrwt>0</asrwt>
<pdfrwt beam="1">  1        1 0.21802443E+00 0.11262447E+04</pdfrwt>
<pdfrwt beam="2">  1       -1 0.38796050E+00 0.11262447E+04</pdfrwt>
<totfact> 0.64758623E-02</totfact>
</mgrwt>
</event>
<event>
 4    1  0.2731969E-009  0.6958380E+03  0.7818608E-02  0.9724376E-01
         -1   -1    0    0    0  501 -0.00000000000E+00  0.00000000000E+00  0.62017655097E+03  0.62017655099E+03  0.50400000000E-02 0.  1.
          1   -1    0    0  501    0  0.00000000000E+00 -0.00000000000E+00 -0.15553929495E+04  0.15553929495E+04  0.50400000000E-02 0. -1.
    8880022    1    1    2    0    0 -0.66931495076E+03 -0.11320940840E+03  0.30007008553E+03  0.75778135548E+03  0.15294330000E+03 0.  0.
    8880022    1    1    2    0    0  0.66931495076E+03  0.11320940840E+03 -0.12352864841E+04  0.14177881450E+04  0.15294330000E+03 0.  0.
<mgrwt>
<rscale>  0 0.69583800E+03</rscale>
<asrwt>0</asrwt>
<pdfrwt beam="1">  1        1 0.23929122E+00 0.69583800E+03</pdfrwt>
<pdfrwt beam="2">  1       -1 0.95411778E-01 0.69583800E+03</pdfrwt>
<totfact> 0.66732134E+00</totfact>
</mgrwt>
</event>
<event>
 4    1  0.2731969E-009  0.8047059E+03  0.7818608E-02  0.9553230E-01
          1   -1    0    0  501    0  0.00000000000E+00  0.00000000000E+00  0.24785819712E+04  0.24785819712E+04  0.50400000000E-02 0. -1.
         -1   -1    0    0    0  501 -0.00000000000E+00 -0.00000000000E+00 -0.35653321105E+03  0.35653321109E+03  0.50400000000E-02 0.  1.
    8880022    1    1    2    0    0  0.57974123421E+03  0.53671220046E+03  0.17938129421E+04  0.19660407954E+04  0.15294330000E+03 0.  0.
    8880022    1    1    2    0    0 -0.57974123421E+03 -0.53671220046E+03  0.32823581804E+03  0.86907438693E+03  0.15294330000E+03 0.  0.
<mgrwt>
<rscale>  0 0.80470587E+03</rscale>
<asrwt>0</asrwt>
<pdfrwt beam="1">  1        1 0.38132029E+00 0.80470587E+03</pdfrwt>
<pdfrwt beam="2">  1       -1 0.54851265E-01 0.80470587E+03</pdfrwt>
<totfact> 0.49362872E+00</totfact>
</mgrwt>
</event>
<event>
 4    1  0.2731969E-009  0.4712272E+03  0.7818608E-02  0.1021574E+00
         -1   -1    0    0    0  501 -0.00000000000E+00  0.00000000000E+00  0.14221075915E+03  0.14221075924E+03  0.50400000000E-02 0.  1.
          1   -1    0    0  501    0  0.00000000000E+00 -0.00000000000E+00 -0.22449223896E+04  0.22449223896E+04  0.50400000000E-02 0. -1.
    8880022    1    1    2    0    0  0.26625516188E+03  0.35745148685E+03 -0.17099325446E+04  0.17736753753E+04  0.15294330000E+03 0.  0.
    8880022    1    1    2    0    0 -0.26625516188E+03 -0.35745148685E+03 -0.39277908581E+03  0.61345777356E+03  0.15294330000E+03 0.  0.
<mgrwt>
<rscale>  0 0.47122715E+03</rscale>
<asrwt>0</asrwt>
<pdfrwt beam="1">  1        1 0.34537265E+00 0.47122715E+03</pdfrwt>
<pdfrwt beam="2">  1       -1 0.21878580E-01 0.47122715E+03</pdfrwt>
<totfact> 0.38794556E+01</totfact>
</mgrwt>
</event>
<event>
 4    1  0.2731969E-009  0.1417462E+04  0.7818608E-02  0.8941275E-01
          1   -1    0    0  501    0  0.00000000000E+00  0.00000000000E+00  0.92988296170E+03  0.92988296171E+03  0.50400000000E-02 0. -1.
         -1   -1    0    0    0  501 -0.00000000000E+00 -0.00000000000E+00 -0.47131786690E+04  0.47131786690E+04  0.50400000000E-02 0.  1.
    8880022    1    1    2    0    0 -0.95547757652E+03 -0.10357937195E+04 -0.39680379387E+04  0.42136116058E+04  0.15294330000E+03 0.  0.
    8880022    1    1    2    0    0  0.95547757652E+03  0.10357937195E+04  0.18474223138E+03  0.14294500249E+04  0.15294330000E+03 0.  0.
<mgrwt>
<rscale>  0 0.14174617E+04</rscale>
<asrwt>0</asrwt>
<pdfrwt beam="1">  1        1 0.14305892E+00 0.14174617E+04</pdfrwt>
<pdfrwt beam="2">  1       -1 0.72510440E+00 0.14174617E+04</pdfrwt>
<totfact> 0.26573278E-03</totfact>
</mgrwt>
</event>
<event>
 4    1  0.1146702E-008  0.1821873E+04  0.7818608E-02  0.8694753E-01
          1   -1    0    0  501    0  0.00000000000E+00  0.00000000000E+00  0.21592129732E+04  0.21592129732E+04  0.50400000000E-02 0. -1.
         -1   -1    0    0    0  501 -0.00000000000E+00 -0.00000000000E+00 -0.42587915314E+04  0.42587915314E+04  0.50400000000E-02 0.  1.
    8880022    1    1    2    0    0 -0.14387557641E+04  0.11071635118E+04 -0.36150729504E+04  0.40482061805E+04  0.15294330000E+03 0.  0.
    8880022    1    1    2    0    0  0.14387557641E+04 -0.11071635118E+04  0.15154943923E+04  0.23697983240E+04  0.15294330000E+03 0.  0.
<mgrwt>
<rscale>  0 0.18218729E+04</rscale>
<asrwt>0</asrwt>
<pdfrwt beam="1">  1        1 0.33218661E+00 0.18218729E+04</pdfrwt>
<pdfrwt beam="2">  1       -1 0.65519870E+00 0.18218729E+04</pdfrwt>
<totfact> 0.57240779E-04</totfact>
</mgrwt>
</event>
<event>
 4    1  0.2731969E-009  0.1616535E+04  0.7818608E-02  0.8810454E-01
         -1   -1    0    0    0  501 -0.00000000000E+00  0.00000000000E+00  0.22709001241E+04  0.22709001241E+04  0.50400000000E-02 0.  1.
          1   -1    0    0  501    0  0.00000000000E+00 -0.00000000000E+00 -0.16614295481E+04  0.16614295481E+04  0.50400000000E-02 0. -1.
    8880022    1    1    2    0    0 -0.92446974698E+03  0.13172503989E+04  0.13948275438E+04  0.21351179022E+04  0.15294330000E+03 0.  0.
    8880022    1    1    2    0    0  0.92446974698E+03 -0.13172503989E+04 -0.78535696773E+03  0.17972117700E+04  0.15294330000E+03 0.  0.
<mgrwt>
<rscale>  0 0.16165347E+04</rscale>
<asrwt>0</asrwt>
<pdfrwt beam="1">  1        1 0.25560455E+00 0.16165347E+04</pdfrwt>
<pdfrwt beam="2">  1       -1 0.34936925E+00 0.16165347E+04</pdfrwt>
<totfact> 0.74026399E-02</totfact>
</mgrwt>
</event>
<event>
 4    1  0.2731969E-009  0.1000014E+04  0.7818608E-02  0.9308529E-01
         -1   -1    0    0    0  501 -0.00000000000E+00  0.00000000000E+00  0.20832897442E+04  0.20832897443E+04  0.50400000000E-02 0.  1.
          1   -1    0    0  501    0  0.00000000000E+00 -0.00000000000E+00 -0.51157021636E+03  0.51157021638E+03  0.50400000000E-02 0. -1.
    8880022    1    1    2    0    0  0.94465552979E+02 -0.98372398534E+03  0.11080464545E+04  0.14925800542E+04  0.15294330000E+03 0.  0.
    8880022    1    1    2    0    0 -0.94465552979E+02  0.98372398534E+03  0.46367307343E+03  0.11022799064E+04  0.15294330000E+03 0.  0.
<mgrwt>
<rscale>  0 0.10000141E+04</rscale>
<asrwt>0</asrwt>
<pdfrwt beam="1">  1        1 0.78703111E-01 0.10000141E+04</pdfrwt>
<pdfrwt beam="2">  1       -1 0.32050611E+00 0.10000141E+04</pdfrwt>
<totfact> 0.10607299E+00</totfact>
</mgrwt>
</event>
<event>
 4    1  0.2731969E-009  0.2776855E+03  0.7818608E-02  0.1096960E+00
         -1   -1    0    0    0  501 -0.00000000000E+00  0.00000000000E+00  0.30604884840E+03  0.30604884844E+03  0.50400000000E-02 0.  1.
          1   -1    0    0  501    0  0.00000000000E+00 -0.00000000000E+00 -0.91132871482E+03  0.91132871483E+03  0.50400000000E-02 0. -1.
    8880022    1    1    2    0    0  0.23068522655E+03  0.22403783489E+02  0.21511585691E+03  0.35126071253E+03  0.15294330000E+03 0.  0.
    8880022    1    1    2    0    0 -0.23068522655E+03 -0.22403783489E+02 -0.82039572333E+03  0.86611685074E+03  0.15294330000E+03 0.  0.
<mgrwt>
<rscale>  0 0.27768553E+03</rscale>
<asrwt>0</asrwt>
<pdfrwt beam="1">  1        1 0.14020442E+00 0.27768553E+03</pdfrwt>
<pdfrwt beam="2">  1       -1 0.47084439E-01 0.27768553E+03</pdfrwt>
<totfact> 0.86977943E+01</totfact>
</mgrwt>
</event>
<event>
 4    1  0.2731969E-009  0.5027870E+03  0.7818608E-02  0.1013054E+00
          1   -1    0    0  501    0  0.00000000000E+00  0.00000000000E+00  0.13427918470E+04  0.13427918470E+04  0.50400000000E-02 0. -1.
         -1   -1    0    0    0  501 -0.00000000000E+00 -0.00000000000E+00 -0.58972733513E+03  0.58972733516E+03  0.50400000000E-02 0.  1.
    8880022    1    1    2    0    0 -0.21953114967E+03 -0.42568671877E+03 -0.42071491465E+03  0.65558813338E+03  0.15294330000E+03 0.  0.
    8880022    1    1    2    0    0  0.21953114967E+03  0.42568671877E+03  0.11737794265E+04  0.12769310488E+04  0.15294330000E+03 0.  0.
<mgrwt>
<rscale>  0 0.50278699E+03</rscale>
<asrwt>0</asrwt>
<pdfrwt beam="1">  1        1 0.20658336E+00 0.50278699E+03</pdfrwt>
<pdfrwt beam="2">  1       -1 0.90727283E-01 0.50278699E+03</pdfrwt>
<totfact> 0.10833758E+01</totfact>
</mgrwt>
</event>
<event>
 4    1  0.2731969E-009  0.6292335E+03  0.7818608E-02  0.9846546E-01
         -1   -1    0    0    0  501 -0.00000000000E+00  0.00000000000E+00  0.10857810161E+04  0.10857810162E+04  0.50400000000E-02 0.  1.
          1   -1    0    0  501    0  0.00000000000E+00 -0.00000000000E+00 -0.66409910432E+03  0.66409910434E+03  0.50400000000E-02 0. -1.
    8880022    1    1    2    0    0 -0.48346257119E+03  0.37256829872E+03 -0.37667566533E+03  0.73336171486E+03  0.15294330000E+03 0.  0.
    8880022    1    1    2    0    0  0.48346257119E+03 -0.37256829872E+03  0.79835757716E+03  0.10165184056E+04  0.15294330000E+03 0.  0.
<mgrwt>
<rscale>  0 0.62923354E+03</rscale>
<asrwt>0</asrwt>
<pdfrwt beam="1">  1        1 0.10216909E+00 0.62923354E+03</pdfrwt>
<pdfrwt beam="2">  1       -1 0.16704323E+00 0.62923354E+03</pdfrwt>
<totfact> 0.80216886E+00</totfact>
</mgrwt>
</event>
<event>
 4    1  0.2731969E-009  0.2218784E+03  0.7818608E-02  0.1132490E+00
         -1   -1    0    0    0  501 -0.00000000000E+00  0.00000000000E+00  0.42126936336E+03  0.42126936339E+03  0.50400000000E-02 0.  1.
          1   -1    0    0  501    0  0.00000000000E+00 -0.00000000000E+00 -0.41579196605E+03  0.41579196608E+03  0.50400000000E-02 0. -1.
    8880022    1    1    2    0    0 -0.12578544683E+03  0.10008186019E+03 -0.35213564372E+03  0.41620850780E+03  0.15294330000E+03 0. -1.
    8880022    1    1    2    0    0  0.12578544683E+03 -0.10008186019E+03  0.35761304104E+03  0.42085282167E+03  0.15294330000E+03 0.  0.
<mgrwt>
<rscale>  0 0.22187837E+03</rscale>
<asrwt>0</asrwt>
<pdfrwt beam="1">  1        1 0.63967995E-01 0.22187837E+03</pdfrwt>
<pdfrwt beam="2">  1       -1 0.64810671E-01 0.22187837E+03</pdfrwt>
<totfact> 0.14664080E+02</totfact>
</mgrwt>
</event>
<event>
 4    1  0.2731969E-009  0.1130058E+04  0.7818608E-02  0.9176381E-01
         -1   -1    0    0    0  501 -0.00000000000E+00  0.00000000000E+00  0.80363690347E+03  0.80363690349E+03  0.50400000000E-02 0.  1.
          1   -1    0    0  501    0  0.00000000000E+00 -0.00000000000E+00 -0.27384667803E+04  0.27384667803E+04  0.50400000000E-02 0. -1.
    8880022    1    1    2    0    0 -0.82521194447E+03 -0.75674536924E+03 -0.21148121168E+04  0.23978032133E+04  0.15294330000E+03 0.  0.
    8880022    1    1    2    0    0  0.82521194447E+03  0.75674536924E+03  0.17998223997E+03  0.11443004705E+04  0.15294330000E+03 0.  0.
<mgrwt>
<rscale>  0 0.11300575E+04</rscale>
<asrwt>0</asrwt>
<pdfrwt beam="1">  1        1 0.42130258E+00 0.11300575E+04</pdfrwt>
<pdfrwt beam="2">  1       -1 0.12363645E+00 0.11300575E+04</pdfrwt>
<totfact> 0.53077524E-01</totfact>
</mgrwt>
</event>
<event>
 4    1  0.2731969E-009  0.5479435E+03  0.7818608E-02  0.1001971E+00
          1   -1    0    0  501    0  0.00000000000E+00  0.00000000000E+00  0.18834043749E+04  0.18834043749E+04  0.50400000000E-02 0. -1.
         -1   -1    0    0    0  501 -0.00000000000E+00 -0.00000000000E+00 -0.61195430251E+03  0.61195430253E+03  0.50400000000E-02 0.  1.
    8880022    1    1    2    0    0 -0.19822242860E+03 -0.48739957410E+03  0.17086561442E+04  0.17943656116E+04  0.15294330000E+03 0.  0.
    8880022    1    1    2    0    0  0.19822242860E+03  0.48739957410E+03 -0.43720607183E+03  0.70099306580E+03  0.15294330000E+03 0.  0.
<mgrwt>
<rscale>  0 0.54794355E+03</rscale>
<asrwt>0</asrwt>
<pdfrwt beam="1">  1        1 0.28975451E+00 0.54794355E+03</pdfrwt>
<pdfrwt beam="2">  1       -1 0.94146819E-01 0.54794355E+03</pdfrwt>
<totfact> 0.42755338E+00</totfact>
</mgrwt>
</event>
<event>
 4    1  0.2731969E-009  0.4507112E+03  0.7818608E-02  0.1027510E+00
         -1   -1    0    0    0  501 -0.00000000000E+00  0.00000000000E+00  0.11436466642E+04  0.11436466642E+04  0.50400000000E-02 0.  1.
          1   -1    0    0  501    0  0.00000000000E+00 -0.00000000000E+00 -0.38148554785E+03  0.38148554788E+03  0.50400000000E-02 0. -1.
    8880022    1    1    2    0    0  0.36669091630E+03 -0.21280671807E+03 -0.17636791278E+03  0.48398989765E+03  0.15294330000E+03 0.  0.
    8880022    1    1    2    0    0 -0.36669091630E+03  0.21280671807E+03  0.93852902913E+03  0.10411423144E+04  0.15294330000E+03 0.  0.
<mgrwt>
<rscale>  0 0.45071119E+03</rscale>
<asrwt>0</asrwt>
<pdfrwt beam="1">  1        1 0.58690085E-01 0.45071119E+03</pdfrwt>
<pdfrwt beam="2">  1       -1 0.17594564E+00 0.45071119E+03</pdfrwt>
<totfact> 0.15268821E+01</totfact>
</mgrwt>
</event>
<event>
 4    1  0.2731969E-009  0.1489309E+04  0.7818608E-02  0.8891593E-01
          1   -1    0    0  501    0  0.00000000000E+00  0.00000000000E+00  0.27072885547E+04  0.27072885547E+04  0.50400000000E-02 0. -1.
         -1   -1    0    0    0  501 -0.00000000000E+00 -0.00000000000E+00 -0.10383401355E+04  0.10383401355E+04  0.50400000000E-02 0.  1.
    8880022    1    1    2    0    0 -0.14792067579E+04  0.81227612603E+02  0.16946775951E+04  0.22560971526E+04  0.15294330000E+03 0.  0.
    8880022    1    1    2    0    0  0.14792067579E+04 -0.81227612603E+02 -0.25729175877E+02  0.14895315375E+04  0.15294330000E+03 0.  0.
<mgrwt>
<rscale>  0 0.14893093E+04</rscale>
<asrwt>0</asrwt>
<pdfrwt beam="1">  1        1 0.41650593E+00 0.14893093E+04</pdfrwt>
<pdfrwt beam="2">  1       -1 0.15974464E+00 0.14893093E+04</pdfrwt>
<totfact> 0.27066162E-01</totfact>
</mgrwt>
</event>
<event>
 4    1  0.2731969E-009  0.4743879E+03  0.7818608E-02  0.1020689E+00
          1   -1    0    0  501    0  0.00000000000E+00  0.00000000000E+00  0.19253996156E+04  0.19253996156E+04  0.50400000000E-02 0. -1.
         -1   -1    0    0    0  501 -0.00000000000E+00 -0.00000000000E+00 -0.82750469920E+03  0.82750469921E+03  0.50400000000E-02 0.  1.
    8880022    1    1    2    0    0 -0.44900375108E+03  0.69176667319E+01 -0.72659680166E+03  0.86774811310E+03  0.15294330000E+03 0.  1.
    8880022    1    1    2    0    0  0.44900375108E+03 -0.69176667319E+01  0.18244917180E+04  0.18851562017E+04  0.15294330000E+03 0.  0.
<mgrwt>
<rscale>  0 0.47438790E+03</rscale>
<asrwt>0</asrwt>
<pdfrwt beam="1">  1        1 0.29621533E+00 0.47438790E+03</pdfrwt>
<pdfrwt beam="2">  1       -1 0.12730841E+00 0.47438790E+03</pdfrwt>
<totfact> 0.20211541E+00</totfact>
</mgrwt>
</event>
<event>
 4    1  0.2731969E-009  0.1525443E+04  0.7818608E-02  0.8867708E-01
         -1   -1    0    0    0  501 -0.00000000000E+00  0.00000000000E+00  0.25703393717E+04  0.25703393717E+04  0.50400000000E-02 0.  1.
          1   -1    0    0  501    0  0.00000000000E+00 -0.00000000000E+00 -0.12796134454E+04  0.12796134454E+04  0.50400000000E-02 0. -1.
    8880022    1    1    2    0    0 -0.17860361493E+03  0.15072109157E+04  0.16864643521E+04  0.22740135575E+04  0.15294330000E+03 0.  0.
    8880022    1    1    2    0    0  0.17860361493E+03 -0.15072109157E+04 -0.39573842576E+03  0.15759392597E+04  0.15294330000E+03 0.  0.
<mgrwt>
<rscale>  0 0.15254428E+04</rscale>
<asrwt>0</asrwt>
<pdfrwt beam="1">  1        1 0.19686361E+00 0.15254428E+04</pdfrwt>
<pdfrwt beam="2">  1       -1 0.39543682E+00 0.15254428E+04</pdfrwt>
<totfact> 0.68012925E-02</totfact>
</mgrwt>
</event>
<event>
 4    1  0.2731969E-009  0.3394338E+03  0.7818608E-02  0.1067037E+00
          1   -1    0    0  501    0  0.00000000000E+00  0.00000000000E+00  0.88770892233E+03  0.88770892234E+03  0.50400000000E-02 0. -1.
         -1   -1    0    0    0  501 -0.00000000000E+00 -0.00000000000E+00 -0.94470490991E+03  0.94470490992E+03  0.50400000000E-02 0.  1.
    8880022    1    1    2    0    0  0.28166713098E+03 -0.11174641521E+03  0.82244750968E+03  0.88973883425E+03  0.15294330000E+03 0.  0.
    8880022    1    1    2    0    0 -0.28166713098E+03  0.11174641521E+03 -0.87944349726E+03  0.94267499801E+03  0.15294330000E+03 0.  1.
<mgrwt>
<rscale>  0 0.33943377E+03</rscale>
<asrwt>0</asrwt>
<pdfrwt beam="1">  1        1 0.13657060E+00 0.33943377E+03</pdfrwt>
<pdfrwt beam="2">  1       -1 0.14533922E+00 0.33943377E+03</pdfrwt>
<totfact> 0.79722178E+00</totfact>
</mgrwt>
</event>
<event>
 4    1  0.2731969E-009  0.8025855E+03  0.7818608E-02  0.9556282E-01
         -1   -1    0    0    0  501 -0.00000000000E+00  0.00000000000E+00  0.14108911532E+04  0.14108911532E+04  0.50400000000E-02 0.  1.
          1   -1    0    0  501    0  0.00000000000E+00 -0.00000000000E+00 -0.89850133967E+03  0.89850133968E+03  0.50400000000E-02 0. -1.
    8880022    1    1    2    0    0 -0.37454196970E+03  0.69315953266E+03 -0.55363763888E+03  0.97501698086E+03  0.15294330000E+03 0.  0.
    8880022    1    1    2    0    0  0.37454196970E+03 -0.69315953266E+03  0.10660274524E+04  0.13343755120E+04  0.15294330000E+03 0.  0.
<mgrwt>
<rscale>  0 0.80258550E+03</rscale>
<asrwt>0</asrwt>
<pdfrwt beam="1">  1        1 0.13823098E+00 0.80258550E+03</pdfrwt>
<pdfrwt beam="2">  1       -1 0.21706018E+00 0.80258550E+03</pdfrwt>
<totfact> 0.21737885E+00</totfact>
</mgrwt>
</event>
<event>
 4    1  0.2731969E-009  0.7516449E+03  0.7818608E-02  0.9632773E-01
         -1   -1    0    0    0  501 -0.00000000000E+00  0.00000000000E+00  0.55949313050E+03  0.55949313053E+03  0.50400000000E-02 0.  1.
          1   -1    0    0  501    0  0.00000000000E+00 -0.00000000000E+00 -0.21684592717E+04  0.21684592717E+04  0.50400000000E-02 0. -1.
    8880022    1    1    2    0    0 -0.69819968282E+03  0.23258476757E+03  0.19255341556E+03  0.77591683965E+03  0.15294330000E+03 0.  0.
    8880022    1    1    2    0    0  0.69819968282E+03 -0.23258476757E+03 -0.18015195567E+04  0.19520355626E+04  0.15294330000E+03 0.  0.
<mgrwt>
<rscale>  0 0.75164495E+03</rscale>
<asrwt>0</asrwt>
<pdfrwt beam="1">  1        1 0.33360911E+00 0.75164495E+03</pdfrwt>
<pdfrwt beam="2">  1       -1 0.86075867E-01 0.75164495E+03</pdfrwt>
<totfact> 0.32166762E+00</totfact>
</mgrwt>
</event>
<event>
 4    1  0.2731969E-009  0.7755436E+03  0.7818608E-02  0.9596107E-01
         -1   -1    0    0    0  501 -0.00000000000E+00  0.00000000000E+00  0.44474785998E+03  0.44474786001E+03  0.50400000000E-02 0.  1.
          1   -1    0    0  501    0  0.00000000000E+00 -0.00000000000E+00 -0.20671231615E+04  0.20671231615E+04  0.50400000000E-02 0. -1.
    8880022    1    1    2    0    0 -0.74364096137E+03 -0.15834890999E+03 -0.72672677025E+02  0.77894109387E+03  0.15294330000E+03 0.  0.
    8880022    1    1    2    0    0  0.74364096137E+03  0.15834890999E+03 -0.15497026245E+04  0.17329299276E+04  0.15294330000E+03 0.  0.
<mgrwt>
<rscale>  0 0.77554362E+03</rscale>
<asrwt>0</asrwt>
<pdfrwt beam="1">  1        1 0.31801894E+00 0.77554362E+03</pdfrwt>
<pdfrwt beam="2">  1       -1 0.68422749E-01 0.77554362E+03</pdfrwt>
<totfact> 0.60644978E+00</totfact>
</mgrwt>
</event>
<event>
 4    1  0.2731969E-009  0.4735712E+03  0.7818608E-02  0.1020917E+00
         -1   -1    0    0    0  501 -0.00000000000E+00  0.00000000000E+00  0.27150571511E+03  0.27150571516E+03  0.50400000000E-02 0.  1.
          1   -1    0    0  501    0  0.00000000000E+00 -0.00000000000E+00 -0.15048795950E+04  0.15048795950E+04  0.50400000000E-02 0. -1.
    8880022    1    1    2    0    0  0.42931350894E+03  0.12871632732E+03 -0.12132353750E+04  0.13023861601E+04  0.15294330000E+03 0.  0.
    8880022    1    1    2    0    0 -0.42931350894E+03 -0.12871632732E+03 -0.20138504906E+02  0.47399915007E+03  0.15294330000E+03 0.  1.
<mgrwt>
<rscale>  0 0.47357115E+03</rscale>
<asrwt>0</asrwt>
<pdfrwt beam="1">  1        1 0.23151993E+00 0.47357115E+03</pdfrwt>
<pdfrwt beam="2">  1       -1 0.41770111E-01 0.47357115E+03</pdfrwt>
<totfact> 0.39162070E+01</totfact>
</mgrwt>
</event>
<event>
 4    1  0.2731969E-009  0.7478301E+03  0.7818608E-02  0.9638761E-01
          1   -1    0    0  501    0  0.00000000000E+00  0.00000000000E+00  0.22948604129E+04  0.22948604129E+04  0.50400000000E-02 0. -1.
         -1   -1    0    0    0  501 -0.00000000000E+00 -0.00000000000E+00 -0.28404414695E+03  0.28404414700E+03  0.50400000000E-02 0.  1.
    8880022    1    1    2    0    0  0.30788233291E+03 -0.66412855514E+03  0.14913903227E+04  0.16683809566E+04  0.15294330000E+03 0.  0.
    8880022    1    1    2    0    0 -0.30788233291E+03  0.66412855514E+03  0.51942594327E+03  0.91052360333E+03  0.15294330000E+03 0.  0.
<mgrwt>
<rscale>  0 0.74783014E+03</rscale>
<asrwt>0</asrwt>
<pdfrwt beam="1">  1        1 0.35305544E+00 0.74783014E+03</pdfrwt>
<pdfrwt beam="2">  1       -1 0.43699100E-01 0.74783014E+03</pdfrwt>
<totfact> 0.10197075E+01</totfact>
</mgrwt>
</event>
<event>
 4    1  0.2731969E-009  0.1625848E+04  0.7818608E-02  0.8804824E-01
         -1   -1    0    0    0  501 -0.00000000000E+00  0.00000000000E+00  0.20583142321E+04  0.20583142321E+04  0.50400000000E-02 0.  1.
          1   -1    0    0  501    0  0.00000000000E+00 -0.00000000000E+00 -0.17849796928E+04  0.17849796928E+04  0.50400000000E-02 0. -1.
    8880022    1    1    2    0    0 -0.88697038068E+03  0.13539841553E+04 -0.88112817163E+03  0.18492614896E+04  0.15294330000E+03 0.  0.
    8880022    1    1    2    0    0  0.88697038068E+03 -0.13539841553E+04  0.11544627110E+04  0.19940324353E+04  0.15294330000E+03 0.  0.
<mgrwt>
<rscale>  0 0.16258478E+04</rscale>
<asrwt>0</asrwt>
<pdfrwt beam="1">  1        1 0.27461226E+00 0.16258478E+04</pdfrwt>
<pdfrwt beam="2">  1       -1 0.31666373E+00 0.16258478E+04</pdfrwt>
<totfact> 0.99799176E-02</totfact>
</mgrwt>
</event>
<event>
 4    1  0.2731969E-009  0.1043509E+04  0.7818608E-02  0.9262071E-01
         -1   -1    0    0    0  501 -0.00000000000E+00  0.00000000000E+00  0.10313728520E+04  0.10313728521E+04  0.50400000000E-02 0.  1.
          1   -1    0    0  501    0  0.00000000000E+00 -0.00000000000E+00 -0.36426494169E+04  0.36426494169E+04  0.50400000000E-02 0. -1.
    8880022    1    1    2    0    0  0.81646134972E+03  0.63159347199E+03  0.66378321390E+03  0.12367373438E+04  0.15294330000E+03 0.  0.
    8880022    1    1    2    0    0 -0.81646134972E+03 -0.63159347199E+03 -0.32750597787E+04  0.34372849252E+04  0.15294330000E+03 0.  0.
<mgrwt>
<rscale>  0 0.10435090E+04</rscale>
<asrwt>0</asrwt>
<pdfrwt beam="1">  1        1 0.56040760E+00 0.10435090E+04</pdfrwt>
<pdfrwt beam="2">  1       -1 0.15867275E+00 0.10435090E+04</pdfrwt>
<totfact> 0.59419828E-02</totfact>
</mgrwt>
</event>
<event>
 4    1  0.2731969E-009  0.4486674E+03  0.7818608E-02  0.1028120E+00
          1   -1    0    0  501    0  0.00000000000E+00  0.00000000000E+00  0.34732905637E+04  0.34732905637E+04  0.50400000000E-02 0. -1.
         -1   -1    0    0    0  501 -0.00000000000E+00 -0.00000000000E+00 -0.49975019717E+03  0.49975019720E+03  0.50400000000E-02 0.  1.
    8880022    1    1    2    0    0  0.31730641393E+03  0.27789826157E+03  0.33545510179E+04  0.33844224010E+04  0.15294330000E+03 0.  0.
    8880022    1    1    2    0    0 -0.31730641393E+03 -0.27789826157E+03 -0.38101065135E+03  0.58861835986E+03  0.15294330000E+03 0.  0.
<mgrwt>
<rscale>  0 0.44866742E+03</rscale>
<asrwt>0</asrwt>
<pdfrwt beam="1">  1        1 0.53435242E+00 0.44866742E+03</pdfrwt>
<pdfrwt beam="2">  1       -1 0.76884642E-01 0.44866742E+03</pdfrwt>
<totfact> 0.53698746E-01</totfact>
</mgrwt>
</event>
<event>
 4    1  0.2731969E-009  0.3992611E+03  0.7818608E-02  0.1044036E+00
         -1   -1    0    0    0  501 -0.00000000000E+00  0.00000000000E+00  0.92240549738E+03  0.92240549739E+03  0.50400000000E-02 0.  1.
          1   -1    0    0  501    0  0.00000000000E+00 -0.00000000000E+00 -0.23383736826E+03  0.23383736831E+03  0.50400000000E-02 0. -1.
    8880022    1    1    2    0    0 -0.16364050788E+03  0.33051402370E+03  0.48964878176E+02  0.40225234367E+03  0.15294330000E+03 0.  0.
    8880022    1    1    2    0    0  0.16364050788E+03 -0.33051402370E+03  0.63960325094E+03  0.75399052203E+03  0.15294330000E+03 0.  0.
<mgrwt>
<rscale>  0 0.39926105E+03</rscale>
<asrwt>0</asrwt>
<pdfrwt beam="1">  1        1 0.35974979E-01 0.39926105E+03</pdfrwt>
<pdfrwt beam="2">  1       -1 0.14190854E+00 0.39926105E+03</pdfrwt>
<totfact> 0.51860534E+01</totfact>
</mgrwt>
</event>
<event>
 4    1  0.2731969E-009  0.5931873E+03  0.7818608E-02  0.9919642E-01
         -1   -1    0    0    0  501 -0.00000000000E+00  0.00000000000E+00  0.35595533600E+03  0.35595533604E+03  0.50400000000E-02 0.  1.
          1   -1    0    0  501    0  0.00000000000E+00 -0.00000000000E+00 -0.21123693469E+04  0.21123693469E+04  0.50400000000E-02 0. -1.
    8880022    1    1    2    0    0  0.30872421813E+03 -0.48287569393E+03  0.21995427876E+02  0.59359500547E+03  0.15294330000E+03 0.  0.
    8880022    1    1    2    0    0 -0.30872421813E+03  0.48287569393E+03 -0.17784094387E+04  0.18747296774E+04  0.15294330000E+03 0.  0.
<mgrwt>
<rscale>  0 0.59318735E+03</rscale>
<asrwt>0</asrwt>
<pdfrwt beam="1">  1        1 0.32497989E+00 0.59318735E+03</pdfrwt>
<pdfrwt beam="2">  1       -1 0.54762361E-01 0.59318735E+03</pdfrwt>
<totfact> 0.90865401E+00</totfact>
</mgrwt>
</event>
<event>
 4    1  0.2731969E-009  0.3491427E+03  0.7818608E-02  0.1062967E+00
         -1   -1    0    0    0  501 -0.00000000000E+00  0.00000000000E+00  0.22962958409E+03  0.22962958414E+03  0.50400000000E-02 0.  1.
          1   -1    0    0  501    0  0.00000000000E+00 -0.00000000000E+00 -0.12957657472E+04  0.12957657472E+04  0.50400000000E-02 0. -1.
    8880022    1    1    2    0    0  0.19410072457E+03 -0.24664530906E+03 -0.11190628783E+04  0.11722637837E+04  0.15294330000E+03 0.  0.
    8880022    1    1    2    0    0 -0.19410072457E+03  0.24664530906E+03  0.52926715250E+02  0.35313154768E+03  0.15294330000E+03 0.  0.
<mgrwt>
<rscale>  0 0.34914274E+03</rscale>
<asrwt>0</asrwt>
<pdfrwt beam="1">  1        1 0.19934857E+00 0.34914274E+03</pdfrwt>
<pdfrwt beam="2">  1       -1 0.35327629E-01 0.34914274E+03</pdfrwt>
<totfact> 0.75186142E+01</totfact>
</mgrwt>
</event>
<event>
 4    1  0.2731969E-009  0.2084736E+03  0.7818608E-02  0.1142780E+00
         -1   -1    0    0    0  501 -0.00000000000E+00  0.00000000000E+00  0.13153342260E+03  0.13153342269E+03  0.50400000000E-02 0.  1.
          1   -1    0    0  501    0  0.00000000000E+00 -0.00000000000E+00 -0.15073905920E+04  0.15073905920E+04  0.50400000000E-02 0. -1.
    8880022    1    1    2    0    0  0.11183831823E+03 -0.86958562384E+02  0.36171763252E+02  0.21158839871E+03  0.15294330000E+03 0.  0.
    8880022    1    1    2    0    0 -0.11183831823E+03  0.86958562384E+02 -0.14120289326E+04  0.14273356159E+04  0.15294330000E+03 0.  0.
<mgrwt>
<rscale>  0 0.20847363E+03</rscale>
<asrwt>0</asrwt>
<pdfrwt beam="1">  1        1 0.23190623E+00 0.20847363E+03</pdfrwt>
<pdfrwt beam="2">  1       -1 0.20235912E-01 0.20847363E+03</pdfrwt>
<totfact> 0.14342869E+02</totfact>
</mgrwt>
</event>
<event>
 4    1  0.2731969E-009  0.1455550E+04  0.7818608E-02  0.8914562E-01
          1   -1    0    0  501    0  0.00000000000E+00  0.00000000000E+00  0.29918975537E+04  0.29918975537E+04  0.50400000000E-02 0. -1.
         -1   -1    0    0    0  501 -0.00000000000E+00 -0.00000000000E+00 -0.11658024418E+04  0.11658024418E+04  0.50400000000E-02 0.  1.
    8880022    1    1    2    0    0  0.14451881467E+04 -0.81645112491E+02 -0.38949579595E+03  0.15067625334E+04  0.15294330000E+03 0.  0.
    8880022    1    1    2    0    0 -0.14451881467E+04  0.81645112491E+02  0.22155909079E+04  0.26509374621E+04  0.15294330000E+03 0.  0.
<mgrwt>
<rscale>  0 0.14555502E+04</rscale>
<asrwt>0</asrwt>
<pdfrwt beam="1">  1        1 0.46029193E+00 0.14555502E+04</pdfrwt>
<pdfrwt beam="2">  1       -1 0.17935422E+00 0.14555502E+04</pdfrwt>
<totfact> 0.12168741E-01</totfact>
</mgrwt>
</event>
<event>
 4    1  0.2731969E-009  0.2040808E+04  0.7818608E-02  0.8587776E-01
         -1   -1    0    0    0  501 -0.00000000000E+00  0.00000000000E+00  0.22966909154E+04  0.22966909154E+04  0.50400000000E-02 0.  1.
          1   -1    0    0  501    0  0.00000000000E+00 -0.00000000000E+00 -0.20169108238E+04  0.20169108238E+04  0.50400000000E-02 0. -1.
    8880022    1    1    2    0    0 -0.12867037785E+04 -0.15766734773E+04  0.82494295894E+03  0.22012333829E+04  0.15294330000E+03 0.  0.
    8880022    1    1    2    0    0  0.12867037785E+04  0.15766734773E+04 -0.54516286740E+03  0.21123683563E+04  0.15294330000E+03 0.  0.
<mgrwt>
<rscale>  0 0.20408081E+04</rscale>
<asrwt>0</asrwt>
<pdfrwt beam="1">  1        1 0.31029397E+00 0.20408081E+04</pdfrwt>
<pdfrwt beam="2">  1       -1 0.35333706E+00 0.20408081E+04</pdfrwt>
<totfact> 0.37955278E-02</totfact>
</mgrwt>
</event>
<event>
 4    1  0.2731969E-009  0.6579451E+03  0.7818608E-02  0.9791984E-01
          1   -1    0    0  501    0  0.00000000000E+00  0.00000000000E+00  0.76290347697E+03  0.76290347699E+03  0.50400000000E-02 0. -1.
         -1   -1    0    0    0  501 -0.00000000000E+00 -0.00000000000E+00 -0.11872353082E+04  0.11872353083E+04  0.50400000000E-02 0.  1.
    8880022    1    1    2    0    0 -0.31665065054E+03 -0.55608676569E+03 -0.91669014729E+03  0.11283672295E+04  0.15294330000E+03 0.  0.
    8880022    1    1    2    0    0  0.31665065054E+03  0.55608676569E+03  0.49235831602E+03  0.82177155574E+03  0.15294330000E+03 0.  0.
<mgrwt>
<rscale>  0 0.65794512E+03</rscale>
<asrwt>0</asrwt>
<pdfrwt beam="1">  1        1 0.11736977E+00 0.65794512E+03</pdfrwt>
<pdfrwt beam="2">  1       -1 0.18265159E+00 0.65794512E+03</pdfrwt>
<totfact> 0.49943666E+00</totfact>
</mgrwt>
</event>
<event>
 4    1  0.2731969E-009  0.3609219E+03  0.7818608E-02  0.1058219E+00
          1   -1    0    0  501    0  0.00000000000E+00  0.00000000000E+00  0.18326622461E+04  0.18326622462E+04  0.50400000000E-02 0. -1.
         -1   -1    0    0    0  501 -0.00000000000E+00 -0.00000000000E+00 -0.47980672575E+03  0.47980672577E+03  0.50400000000E-02 0.  1.
    8880022    1    1    2    0    0 -0.28796228956E+03 -0.15476017062E+03  0.17435878074E+04  0.17805513432E+04  0.15294330000E+03 0.  0.
    8880022    1    1    2    0    0  0.28796228956E+03  0.15476017062E+03 -0.39073228701E+03  0.53191762872E+03  0.15294330000E+03 0.  1.
<mgrwt>
<rscale>  0 0.36092194E+03</rscale>
<asrwt>0</asrwt>
<pdfrwt beam="1">  1        1 0.28194804E+00 0.36092194E+03</pdfrwt>
<pdfrwt beam="2">  1       -1 0.73816419E-01 0.36092194E+03</pdfrwt>
<totfact> 0.81896384E+00</totfact>
</mgrwt>
</event>
<event>
 4    1  0.2731969E-009  0.8885421E+03  0.7818608E-02  0.9440019E-01
          1   -1    0    0  501    0  0.00000000000E+00  0.00000000000E+00  0.37105621614E+04  0.37105621614E+04  0.50400000000E-02 0. -1.
         -1   -1    0    0    0  501 -0.00000000000E+00 -0.00000000000E+00 -0.12029751673E+04  0.12029751673E+04  0.50400000000E-02 0.  1.
    8880022    1    1    2    0    0  0.81239185635E+03 -0.32578340543E+03  0.34827310173E+04  0.35942902425E+04  0.15294330000E+03 0.  0.
    8880022    1    1    2    0    0 -0.81239185635E+03  0.32578340543E+03 -0.97514402322E+03  0.13192470862E+04  0.15294330000E+03 0.  0.
<mgrwt>
<rscale>  0 0.88854207E+03</rscale>
<asrwt>0</asrwt>
<pdfrwt beam="1">  1        1 0.57085572E+00 0.88854207E+03</pdfrwt>
<pdfrwt beam="2">  1       -1 0.18507310E+00 0.88854207E+03</pdfrwt>
<totfact> 0.34806863E-02</totfact>
</mgrwt>
</event>
<event>
 4    1  0.2731969E-009  0.4466526E+03  0.7818608E-02  0.1028725E+00
         -1   -1    0    0    0  501 -0.00000000000E+00  0.00000000000E+00  0.13260076584E+04  0.13260076584E+04  0.50400000000E-02 0.  1.
          1   -1    0    0  501    0  0.00000000000E+00 -0.00000000000E+00 -0.74956388541E+03  0.74956388543E+03  0.50400000000E-02 0. -1.
    8880022    1    1    2    0    0 -0.16581781698E+03 -0.38550142626E+03 -0.63958563071E+03  0.78010789644E+03  0.15294330000E+03 0. -1.
    8880022    1    1    2    0    0  0.16581781698E+03  0.38550142626E+03  0.12160294037E+04  0.12954636474E+04  0.15294330000E+03 0.  0.
<mgrwt>
<rscale>  0 0.44665261E+03</rscale>
<asrwt>0</asrwt>
<pdfrwt beam="1">  1        1 0.11531752E+00 0.44665261E+03</pdfrwt>
<pdfrwt beam="2">  1       -1 0.20400118E+00 0.44665261E+03</pdfrwt>
<totfact> 0.38291898E+00</totfact>
</mgrwt>
</event>
<event>
 4    1  0.2731969E-009  0.1150611E+04  0.7818608E-02  0.9157220E-01
         -1   -1    0    0    0  501 -0.00000000000E+00  0.00000000000E+00  0.59324289953E+03  0.59324289955E+03  0.50400000000E-02 0.  1.
          1   -1    0    0  501    0  0.00000000000E+00 -0.00000000000E+00 -0.24465079519E+04  0.24465079519E+04  0.50400000000E-02 0. -1.
    8880022    1    1    2    0    0 -0.86677856301E+03 -0.74108601111E+03 -0.13770543658E+04  0.17944870946E+04  0.15294330000E+03 0.  0.
    8880022    1    1    2    0    0  0.86677856301E+03  0.74108601111E+03 -0.47621068651E+03  0.12452637568E+04  0.15294330000E+03 0.  0.
<mgrwt>
<rscale>  0 0.11506108E+04</rscale>
<asrwt>0</asrwt>
<pdfrwt beam="1">  1        1 0.37638583E+00 0.11506108E+04</pdfrwt>
<pdfrwt beam="2">  1       -1 0.91268140E-01 0.11506108E+04</pdfrwt>
<totfact> 0.17221259E+00</totfact>
</mgrwt>
</event>
<event>
 4    1  0.2731969E-009  0.5775142E+03  0.7818608E-02  0.9953187E-01
         -1   -1    0    0    0  501 -0.00000000000E+00  0.00000000000E+00  0.21719539441E+04  0.21719539441E+04  0.50400000000E-02 0.  1.
          1   -1    0    0  501    0  0.00000000000E+00 -0.00000000000E+00 -0.30445043703E+03  0.30445043707E+03  0.50400000000E-02 0. -1.
    8880022    1    1    2    0    0 -0.30701999094E+03  0.46461784720E+03  0.18054493170E+04  0.18955658543E+04  0.15294330000E+03 0.  0.
    8880022    1    1    2    0    0  0.30701999094E+03 -0.46461784720E+03  0.62054190082E+02  0.58083852687E+03  0.15294330000E+03 0.  0.
<mgrwt>
<rscale>  0 0.57751422E+03</rscale>
<asrwt>0</asrwt>
<pdfrwt beam="1">  1        1 0.46838528E-01 0.57751422E+03</pdfrwt>
<pdfrwt beam="2">  1       -1 0.33414677E+00 0.57751422E+03</pdfrwt>
<totfact> 0.18565192E+00</totfact>
</mgrwt>
</event>
<event>
 4    1  0.2731969E-009  0.2890912E+03  0.7818608E-02  0.1090825E+00
          1   -1    0    0  501    0  0.00000000000E+00  0.00000000000E+00  0.13110860211E+04  0.13110860211E+04  0.50400000000E-02 0. -1.
         -1   -1    0    0    0  501 -0.00000000000E+00 -0.00000000000E+00 -0.17125788652E+03  0.17125788660E+03  0.50400000000E-02 0.  1.
    8880022    1    1    2    0    0 -0.24311714824E+03 -0.32804058498E+02 -0.17340245295E+02  0.28961075799E+03  0.15294330000E+03 0.  0.
    8880022    1    1    2    0    0  0.24311714824E+03  0.32804058498E+02  0.11571683798E+04  0.11927331497E+04  0.15294330000E+03 0.  0.
<mgrwt>
<rscale>  0 0.28909117E+03</rscale>
<asrwt>0</asrwt>
<pdfrwt beam="1">  1        1 0.20170554E+00 0.28909117E+03</pdfrwt>
<pdfrwt beam="2">  1       -1 0.26347367E-01 0.28909117E+03</pdfrwt>
<totfact> 0.12302169E+02</totfact>
</mgrwt>
</event>
<event>
 4    1  0.2731969E-009  0.1138371E+04  0.7818608E-02  0.9168580E-01
          1   -1    0    0  501    0  0.00000000000E+00  0.00000000000E+00  0.34015187348E+04  0.34015187348E+04  0.50400000000E-02 0. -1.
         -1   -1    0    0    0  501 -0.00000000000E+00 -0.00000000000E+00 -0.40338483258E+03  0.40338483261E+03  0.50400000000E-02 0.  1.
    8880022    1    1    2    0    0 -0.10842193358E+04  0.31139112666E+03  0.10506416408E+04  0.15491079731E+04  0.15294330000E+03 0.  0.
    8880022    1    1    2    0    0  0.10842193358E+04 -0.31139112666E+03  0.19474922615E+04  0.22557955944E+04  0.15294330000E+03 0.  0.
<mgrwt>
<rscale>  0 0.11383706E+04</rscale>
<asrwt>0</asrwt>
<pdfrwt beam="1">  1        1 0.52331055E+00 0.11383706E+04</pdfrwt>
<pdfrwt beam="2">  1       -1 0.62059208E-01 0.11383706E+04</pdfrwt>
<totfact> 0.79756376E-01</totfact>
</mgrwt>
</event>
<event>
 4    1  0.2731969E-009  0.1824450E+04  0.7818608E-02  0.8693404E-01
         -1   -1    0    0    0  501 -0.00000000000E+00  0.00000000000E+00  0.19141796604E+04  0.19141796604E+04  0.50400000000E-02 0.  1.
          1   -1    0    0  501    0  0.00000000000E+00 -0.00000000000E+00 -0.28625347428E+04  0.28625347429E+04  0.50400000000E-02 0. -1.
    8880022    1    1    2    0    0  0.15945025587E+04 -0.87337637934E+03 -0.19705217048E+04  0.26854370504E+04  0.15294330000E+03 0.  0.
    8880022    1    1    2    0    0 -0.15945025587E+04  0.87337637934E+03  0.10221666224E+04  0.20912773529E+04  0.15294330000E+03 0.  0.
<mgrwt>
<rscale>  0 0.18244496E+04</rscale>
<asrwt>0</asrwt>
<pdfrwt beam="1">  1        1 0.44038996E+00 0.18244496E+04</pdfrwt>
<pdfrwt beam="2">  1       -1 0.29448918E+00 0.18244496E+04</pdfrwt>
<totfact> 0.24378831E-02</totfact>
</mgrwt>
</event>
<event>
 4    1  0.2731969E-009  0.3676403E+03  0.7818608E-02  0.1055599E+00
         -1   -1    0    0    0  501 -0.00000000000E+00  0.00000000000E+00  0.37803070922E+03  0.37803070925E+03  0.50400000000E-02 0.  1.
          1   -1    0    0  501    0  0.00000000000E+00 -0.00000000000E+00 -0.15977796656E+04  0.15977796656E+04  0.50400000000E-02 0. -1.
    8880022    1    1    2    0    0  0.11216507630E+02  0.33412865048E+03 -0.14802574950E+04  0.15252283992E+04  0.15294330000E+03 0.  0.
    8880022    1    1    2    0    0 -0.11216507630E+02 -0.33412865048E+03  0.26050853862E+03  0.45058197570E+03  0.15294330000E+03 0.  0.
<mgrwt>
<rscale>  0 0.36764034E+03</rscale>
<asrwt>0</asrwt>
<pdfrwt beam="1">  1        1 0.24581225E+00 0.36764034E+03</pdfrwt>
<pdfrwt beam="2">  1       -1 0.58158571E-01 0.36764034E+03</pdfrwt>
<totfact> 0.18737840E+01</totfact>
</mgrwt>
</event>
<event>
 4    1  0.2731969E-009  0.4461683E+03  0.7818608E-02  0.1028871E+00
          1   -1    0    0  501    0  0.00000000000E+00  0.00000000000E+00  0.56332885459E+03  0.56332885462E+03  0.50400000000E-02 0. -1.
         -1   -1    0    0    0  501 -0.00000000000E+00 -0.00000000000E+00 -0.57338505475E+03  0.57338505477E+03  0.50400000000E-02 0.  1.
    8880022    1    1    2    0    0 -0.24055621349E+03 -0.34323049887E+03 -0.35709049040E+03  0.57147155533E+03  0.15294330000E+03 0.  0.
    8880022    1    1    2    0    0  0.24055621349E+03  0.34323049887E+03  0.34703429024E+03  0.56524235406E+03  0.15294330000E+03 0.  0.
<mgrwt>
<rscale>  0 0.44616826E+03</rscale>
<asrwt>0</asrwt>
<pdfrwt beam="1">  1        1 0.86665977E-01 0.44616826E+03</pdfrwt>
<pdfrwt beam="2">  1       -1 0.88213086E-01 0.44616826E+03</pdfrwt>
<totfact> 0.50033657E+01</totfact>
</mgrwt>
</event>
<event>
 4    1  0.2731969E-009  0.1042571E+04  0.7818608E-02  0.9263048E-01
         -1   -1    0    0    0  501 -0.00000000000E+00  0.00000000000E+00  0.75243368697E+03  0.75243368699E+03  0.50400000000E-02 0.  1.
          1   -1    0    0  501    0  0.00000000000E+00 -0.00000000000E+00 -0.16892470559E+04  0.16892470559E+04  0.50400000000E-02 0. -1.
    8880022    1    1    2    0    0  0.84455233836E+03  0.59185625489E+03 -0.37887767127E+01  0.10425778084E+04  0.15294330000E+03 0.  0.
    8880022    1    1    2    0    0 -0.84455233836E+03 -0.59185625489E+03 -0.93302459222E+03  0.13991029345E+04  0.15294330000E+03 0.  0.
<mgrwt>
<rscale>  0 0.10425709E+04</rscale>
<asrwt>0</asrwt>
<pdfrwt beam="1">  1        1 0.25988416E+00 0.10425709E+04</pdfrwt>
<pdfrwt beam="2">  1       -1 0.11575903E+00 0.10425709E+04</pdfrwt>
<totfact> 0.32806343E+00</totfact>
</mgrwt>
</event>
<event>
 4    1  0.2731969E-009  0.1369378E+04  0.7818608E-02  0.8976287E-01
          1   -1    0    0  501    0  0.00000000000E+00  0.00000000000E+00  0.15439871893E+04  0.15439871893E+04  0.50400000000E-02 0. -1.
         -1   -1    0    0    0  501 -0.00000000000E+00 -0.00000000000E+00 -0.13737522712E+04  0.13737522712E+04  0.50400000000E-02 0.  1.
    8880022    1    1    2    0    0 -0.13459234881E+04 -0.20073497510E+03  0.58180597557E+03  0.14878489212E+04  0.15294330000E+03 0.  0.
    8880022    1    1    2    0    0  0.13459234881E+04  0.20073497510E+03 -0.41157105749E+03  0.14298905393E+04  0.15294330000E+03 0.  0.
<mgrwt>
<rscale>  0 0.13693780E+04</rscale>
<asrwt>0</asrwt>
<pdfrwt beam="1">  1        1 0.23753649E+00 0.13693780E+04</pdfrwt>
<pdfrwt beam="2">  1       -1 0.21134650E+00 0.13693780E+04</pdfrwt>
<totfact> 0.73715189E-01</totfact>
</mgrwt>
</event>
<event>
 4    1  0.2731969E-009  0.7994657E+03  0.7818608E-02  0.9560791E-01
          1   -1    0    0  501    0  0.00000000000E+00  0.00000000000E+00  0.13831140220E+04  0.13831140220E+04  0.50400000000E-02 0. -1.
         -1   -1    0    0    0  501 -0.00000000000E+00 -0.00000000000E+00 -0.10792943600E+04  0.10792943600E+04  0.50400000000E-02 0.  1.
    8880022    1    1    2    0    0  0.29649516568E+03  0.72652896792E+03 -0.77913152426E+03  0.11163293912E+04  0.15294330000E+03 0.  0.
    8880022    1    1    2    0    0 -0.29649516568E+03 -0.72652896792E+03  0.10829511863E+04  0.13460789908E+04  0.15294330000E+03 0.  0.
<mgrwt>
<rscale>  0 0.79946568E+03</rscale>
<asrwt>0</asrwt>
<pdfrwt beam="1">  1        1 0.21278677E+00 0.79946568E+03</pdfrwt>
<pdfrwt beam="2">  1       -1 0.16604529E+00 0.79946568E+03</pdfrwt>
<totfact> 0.21538439E+00</totfact>
</mgrwt>
</event>
<event>
 4    1  0.2731969E-009  0.7945090E+03  0.7818608E-02  0.9567999E-01
          1   -1    0    0  501    0  0.00000000000E+00  0.00000000000E+00  0.10883129170E+04  0.10883129170E+04  0.50400000000E-02 0. -1.
         -1   -1    0    0    0  501 -0.00000000000E+00 -0.00000000000E+00 -0.66407855004E+03  0.66407855006E+03  0.50400000000E-02 0.  1.
    8880022    1    1    2    0    0  0.35904007042E+03  0.69205719375E+03  0.52384761912E+03  0.95166218411E+03  0.15294330000E+03 0.  0.
    8880022    1    1    2    0    0 -0.35904007042E+03 -0.69205719375E+03 -0.99613252162E+02  0.80072928297E+03  0.15294330000E+03 0.  0.
<mgrwt>
<rscale>  0 0.79450902E+03</rscale>
<asrwt>0</asrwt>
<pdfrwt beam="1">  1        1 0.16743276E+00 0.79450902E+03</pdfrwt>
<pdfrwt beam="2">  1       -1 0.10216593E+00 0.79450902E+03</pdfrwt>
<totfact> 0.12049469E+01</totfact>
</mgrwt>
</event>
<event>
 4    1  0.2731969E-009  0.9890966E+03  0.7818608E-02  0.9320585E-01
          1   -1    0    0  501    0  0.00000000000E+00  0.00000000000E+00  0.10970052750E+04  0.10970052750E+04  0.50400000000E-02 0. -1.
         -1   -1    0    0    0  501 -0.00000000000E+00 -0.00000000000E+00 -0.15281095303E+04  0.15281095303E+04  0.50400000000E-02 0.  1.
    8880022    1    1    2    0    0  0.62606407095E+03  0.75030943090E+03 -0.10625345605E+04  0.14516514073E+04  0.15294330000E+03 0.  0.
    8880022    1    1    2    0    0 -0.62606407095E+03 -0.75030943090E+03  0.63143030527E+03  0.11734633980E+04  0.15294330000E+03 0.  0.
<mgrwt>
<rscale>  0 0.98909662E+03</rscale>
<asrwt>0</asrwt>
<pdfrwt beam="1">  1        1 0.16877004E+00 0.98909662E+03</pdfrwt>
<pdfrwt beam="2">  1       -1 0.23509377E+00 0.98909662E+03</pdfrwt>
<totfact> 0.11229043E+00</totfact>
</mgrwt>
</event>
<event>
 4    1  0.2731969E-009  0.8364325E+03  0.7818608E-02  0.9508730E-01
         -1   -1    0    0    0  501 -0.00000000000E+00  0.00000000000E+00  0.12719304961E+04  0.12719304961E+04  0.50400000000E-02 0.  1.
          1   -1    0    0  501    0  0.00000000000E+00 -0.00000000000E+00 -0.20756362688E+04  0.20756362688E+04  0.50400000000E-02 0. -1.
    8880022    1    1    2    0    0  0.28751923098E+03 -0.77042867241E+03 -0.18368224552E+04  0.20183002830E+04  0.15294330000E+03 0.  0.
    8880022    1    1    2    0    0 -0.28751923098E+03  0.77042867241E+03  0.10331166825E+04  0.13292664820E+04  0.15294330000E+03 0.  0.
<mgrwt>
<rscale>  0 0.83643248E+03</rscale>
<asrwt>0</asrwt>
<pdfrwt beam="1">  1        1 0.31932866E+00 0.83643248E+03</pdfrwt>
<pdfrwt beam="2">  1       -1 0.19568161E+00 0.83643248E+03</pdfrwt>
<totfact> 0.44639898E-01</totfact>
</mgrwt>
</event>
<event>
 4    1  0.2731969E-009  0.1450310E+04  0.7818608E-02  0.8918186E-01
         -1   -1    0    0    0  501 -0.00000000000E+00  0.00000000000E+00  0.23195445316E+04  0.23195445316E+04  0.50400000000E-02 0.  1.
          1   -1    0    0  501    0  0.00000000000E+00 -0.00000000000E+00 -0.13920553583E+04  0.13920553583E+04  0.50400000000E-02 0. -1.
    8880022    1    1    2    0    0 -0.34212057422E+03 -0.14010570505E+04 -0.63192883137E+03  0.15820028594E+04  0.15294330000E+03 0.  0.
    8880022    1    1    2    0    0  0.34212057422E+03  0.14010570505E+04  0.15594180047E+04  0.21295970306E+04  0.15294330000E+03 0.  0.
<mgrwt>
<rscale>  0 0.14503100E+04</rscale>
<asrwt>0</asrwt>
<pdfrwt beam="1">  1        1 0.21416236E+00 0.14503100E+04</pdfrwt>
<pdfrwt beam="2">  1       -1 0.35685301E+00 0.14503100E+04</pdfrwt>
<totfact> 0.10383110E-01</totfact>
</mgrwt>
</event>
<event>
 4    1  0.2731969E-009  0.9655969E+03  0.7818608E-02  0.9347104E-01
         -1   -1    0    0    0  501 -0.00000000000E+00  0.00000000000E+00  0.15044201259E+04  0.15044201259E+04  0.50400000000E-02 0.  1.
          1   -1    0    0  501    0  0.00000000000E+00 -0.00000000000E+00 -0.75924648481E+03  0.75924648482E+03  0.50400000000E-02 0. -1.
    8880022    1    1    2    0    0 -0.85574661078E+03  0.42033736634E+03 -0.11254438352E+03  0.97213355805E+03  0.15294330000E+03 0.  0.
    8880022    1    1    2    0    0  0.85574661078E+03 -0.42033736634E+03  0.85771802460E+03  0.12915330527E+04  0.15294330000E+03 0.  0.
<mgrwt>
<rscale>  0 0.96559692E+03</rscale>
<asrwt>0</asrwt>
<pdfrwt beam="1">  1        1 0.11680715E+00 0.96559692E+03</pdfrwt>
<pdfrwt beam="2">  1       -1 0.23144924E+00 0.96559692E+03</pdfrwt>
<totfact> 0.22420892E+00</totfact>
</mgrwt>
</event>
<event>
 4    1  0.2731969E-009  0.1259929E+04  0.7818608E-02  0.9061960E-01
         -1   -1    0    0    0  501 -0.00000000000E+00  0.00000000000E+00  0.11611784335E+04  0.11611784335E+04  0.50400000000E-02 0.  1.
          1   -1    0    0  501    0  0.00000000000E+00 -0.00000000000E+00 -0.19476253600E+04  0.19476253600E+04  0.50400000000E-02 0. -1.
    8880022    1    1    2    0    0  0.10628121836E+04  0.65913464085E+03  0.45542915962E+03  0.13397147401E+04  0.15294330000E+03 0.  0.
    8880022    1    1    2    0    0 -0.10628121836E+04 -0.65913464085E+03 -0.12418760862E+04  0.17690890534E+04  0.15294330000E+03 0.  0.
<mgrwt>
<rscale>  0 0.12599285E+04</rscale>
<asrwt>0</asrwt>
<pdfrwt beam="1">  1        1 0.29963467E+00 0.12599285E+04</pdfrwt>
<pdfrwt beam="2">  1       -1 0.17864284E+00 0.12599285E+04</pdfrwt>
<totfact> 0.67039627E-01</totfact>
</mgrwt>
</event>
<event>
 4    1  0.2731969E-009  0.1257743E+04  0.7818608E-02  0.9063763E-01
         -1   -1    0    0    0  501 -0.00000000000E+00  0.00000000000E+00  0.12164812678E+04  0.12164812678E+04  0.50400000000E-02 0.  1.
          1   -1    0    0  501    0  0.00000000000E+00 -0.00000000000E+00 -0.16261442220E+04  0.16261442220E+04  0.50400000000E-02 0. -1.
    8880022    1    1    2    0    0  0.11189118818E+04 -0.55368032319E+03  0.43129823281E+03  0.13296373634E+04  0.15294330000E+03 0.  0.
    8880022    1    1    2    0    0 -0.11189118818E+04  0.55368032319E+03 -0.84096118706E+03  0.15129881264E+04  0.15294330000E+03 0.  0.
<mgrwt>
<rscale>  0 0.12577430E+04</rscale>
<asrwt>0</asrwt>
<pdfrwt beam="1">  1        1 0.25017604E+00 0.12577430E+04</pdfrwt>
<pdfrwt beam="2">  1       -1 0.18715096E+00 0.12577430E+04</pdfrwt>
<totfact> 0.96425831E-01</totfact>
</mgrwt>
</event>
<event>
 4    1  0.2731969E-009  0.7479287E+03  0.7818608E-02  0.9638605E-01
          1   -1    0    0  501    0  0.00000000000E+00  0.00000000000E+00  0.26878083567E+04  0.26878083567E+04  0.50400000000E-02 0. -1.
         -1   -1    0    0    0  501 -0.00000000000E+00 -0.00000000000E+00 -0.34083276091E+03  0.34083276094E+03  0.50400000000E-02 0.  1.
    8880022    1    1    2    0    0 -0.46976949311E+03  0.56153569110E+03  0.22856356116E+03  0.78207331085E+03  0.15294330000E+03 0.  0.
    8880022    1    1    2    0    0  0.46976949311E+03 -0.56153569110E+03  0.21184120347E+04  0.22465678068E+04  0.15294330000E+03 0.  0.
<mgrwt>
<rscale>  0 0.74792871E+03</rscale>
<asrwt>0</asrwt>
<pdfrwt beam="1">  1        1 0.41350897E+00 0.74792871E+03</pdfrwt>
<pdfrwt beam="2">  1       -1 0.52435811E-01 0.74792871E+03</pdfrwt>
<totfact> 0.39037690E+00</totfact>
</mgrwt>
</event>
<event>
 4    1  0.2731969E-009  0.6646102E+03  0.7818608E-02  0.9779744E-01
         -1   -1    0    0    0  501 -0.00000000000E+00  0.00000000000E+00  0.15591647749E+04  0.15591647749E+04  0.50400000000E-02 0.  1.
          1   -1    0    0  501    0  0.00000000000E+00 -0.00000000000E+00 -0.33769903247E+03  0.33769903251E+03  0.50400000000E-02 0. -1.
    8880022    1    1    2    0    0 -0.62762039720E+03 -0.15622971022E+03  0.99140292996E+03  0.11935604333E+04  0.15294330000E+03 0.  1.
    8880022    1    1    2    0    0  0.62762039720E+03  0.15622971022E+03  0.23006281242E+03  0.70330337409E+03  0.15294330000E+03 0.  0.
<mgrwt>
<rscale>  0 0.66461022E+03</rscale>
<asrwt>0</asrwt>
<pdfrwt beam="1">  1        1 0.51953697E-01 0.66461022E+03</pdfrwt>
<pdfrwt beam="2">  1       -1 0.23987150E+00 0.66461022E+03</pdfrwt>
<totfact> 0.64017920E+00</totfact>
</mgrwt>
</event>
<event>
 4    1  0.2731969E-009  0.8706697E+03  0.7818608E-02  0.9463007E-01
         -1   -1    0    0    0  501 -0.00000000000E+00  0.00000000000E+00  0.22401590594E+04  0.22401590594E+04  0.50400000000E-02 0.  1.
          1   -1    0    0  501    0  0.00000000000E+00 -0.00000000000E+00 -0.74757925929E+03  0.74757925931E+03  0.50400000000E-02 0. -1.
    8880022    1    1    2    0    0  0.50707033454E+03 -0.69105259334E+03 -0.35891227596E+03  0.94174502164E+03  0.15294330000E+03 0.  0.
    8880022    1    1    2    0    0 -0.50707033454E+03  0.69105259334E+03  0.18514920761E+04  0.20459932971E+04  0.15294330000E+03 0.  1.
<mgrwt>
<rscale>  0 0.87066966E+03</rscale>
<asrwt>0</asrwt>
<pdfrwt beam="1">  1        1 0.11501219E+00 0.87066966E+03</pdfrwt>
<pdfrwt beam="2">  1       -1 0.34463986E+00 0.87066966E+03</pdfrwt>
<totfact> 0.43263175E-01</totfact>
</mgrwt>
</event>
<event>
 4    1  0.2731969E-009  0.1153494E+04  0.7818608E-02  0.9154566E-01
          1   -1    0    0  501    0  0.00000000000E+00  0.00000000000E+00  0.11823600785E+04  0.11823600785E+04  0.50400000000E-02 0. -1.
         -1   -1    0    0    0  501 -0.00000000000E+00 -0.00000000000E+00 -0.18465195627E+04  0.18465195627E+04  0.50400000000E-02 0.  1.
    8880022    1    1    2    0    0 -0.11418728523E+04 -0.57305458111E+02  0.61437267359E+03  0.13069058732E+04  0.15294330000E+03 0.  0.
    8880022    1    1    2    0    0  0.11418728523E+04  0.57305458111E+02 -0.12785321577E+04  0.17219737680E+04  0.15294330000E+03 0.  0.
<mgrwt>
<rscale>  0 0.11534943E+04</rscale>
<asrwt>0</asrwt>
<pdfrwt beam="1">  1        1 0.18190155E+00 0.11534943E+04</pdfrwt>
<pdfrwt beam="2">  1       -1 0.28407993E+00 0.11534943E+04</pdfrwt>
<totfact> 0.45628158E-01</totfact>
</mgrwt>
</event>
<event>
 4    1  0.2731969E-009  0.3477884E+03  0.7818608E-02  0.1063526E+00
          1   -1    0    0  501    0  0.00000000000E+00  0.00000000000E+00  0.41947590763E+03  0.41947590766E+03  0.50400000000E-02 0. -1.
         -1   -1    0    0    0  501 -0.00000000000E+00 -0.00000000000E+00 -0.15074957951E+04  0.15074957951E+04  0.50400000000E-02 0.  1.
    8880022    1    1    2    0    0  0.14383402520E+03 -0.27726681364E+03 -0.14104623904E+04  0.14527081332E+04  0.15294330000E+03 0.  0.
    8880022    1    1    2    0    0 -0.14383402520E+03  0.27726681364E+03  0.32244250286E+03  0.47426356956E+03  0.15294330000E+03 0.  0.
<mgrwt>
<rscale>  0 0.34778839E+03</rscale>
<asrwt>0</asrwt>
<pdfrwt beam="1">  1        1 0.64534756E-01 0.34778839E+03</pdfrwt>
<pdfrwt beam="2">  1       -1 0.23192243E+00 0.34778839E+03</pdfrwt>
<totfact> 0.58113016E+00</totfact>
</mgrwt>
</event>
<event>
 4    1  0.2731969E-009  0.1390595E+04  0.7818608E-02  0.8960655E-01
         -1   -1    0    0    0  501 -0.00000000000E+00  0.00000000000E+00  0.22117600368E+04  0.22117600368E+04  0.50400000000E-02 0.  1.
          1   -1    0    0  501    0  0.00000000000E+00 -0.00000000000E+00 -0.11267274307E+04  0.11267274307E+04  0.50400000000E-02 0. -1.
    8880022    1    1    2    0    0 -0.12408235773E+04 -0.60886743754E+03  0.13326011079E+04  0.19260270175E+04  0.15294330000E+03 0.  0.
    8880022    1    1    2    0    0  0.12408235773E+04  0.60886743754E+03 -0.24756850182E+03  0.14124604499E+04  0.15294330000E+03 0.  0.
<mgrwt>
<rscale>  0 0.13905950E+04</rscale>
<asrwt>0</asrwt>
<pdfrwt beam="1">  1        1 0.17334268E+00 0.13905950E+04</pdfrwt>
<pdfrwt beam="2">  1       -1 0.34027077E+00 0.13905950E+04</pdfrwt>
<totfact> 0.21004342E-01</totfact>
</mgrwt>
</event>
<event>
 4    1  0.2731969E-009  0.5327158E+03  0.7818608E-02  0.1005576E+00
          1   -1    0    0  501    0  0.00000000000E+00  0.00000000000E+00  0.62739920518E+03  0.62739920520E+03  0.50400000000E-02 0. -1.
         -1   -1    0    0    0  501 -0.00000000000E+00 -0.00000000000E+00 -0.79918794141E+03  0.79918794142E+03  0.50400000000E-02 0.  1.
    8880022    1    1    2    0    0 -0.50249195425E+03 -0.88860890645E+02  0.38402686278E+03  0.65670595119E+03  0.15294330000E+03 0.  0.
    8880022    1    1    2    0    0  0.50249195425E+03  0.88860890645E+02 -0.55581559901E+03  0.76988119544E+03  0.15294330000E+03 0.  0.
<mgrwt>
<rscale>  0 0.53271575E+03</rscale>
<asrwt>0</asrwt>
<pdfrwt beam="1">  1        1 0.96522955E-01 0.53271575E+03</pdfrwt>
<pdfrwt beam="2">  1       -1 0.12295199E+00 0.53271575E+03</pdfrwt>
<totfact> 0.19772169E+01</totfact>
</mgrwt>
</event>
<event>
 4    1  0.2731969E-009  0.7312749E+03  0.7818608E-02  0.9665194E-01
          1   -1    0    0  501    0  0.00000000000E+00  0.00000000000E+00  0.28192555665E+04  0.28192555666E+04  0.50400000000E-02 0. -1.
         -1   -1    0    0    0  501 -0.00000000000E+00 -0.00000000000E+00 -0.35752269790E+03  0.35752269793E+03  0.50400000000E-02 0.  1.
    8880022    1    1    2    0    0  0.58198407261E+03 -0.41553077461E+03  0.23191781917E+04  0.24317381485E+04  0.15294330000E+03 0.  0.
    8880022    1    1    2    0    0 -0.58198407261E+03  0.41553077461E+03  0.14255467700E+03  0.74504011595E+03  0.15294330000E+03 0.  0.
<mgrwt>
<rscale>  0 0.73127487E+03</rscale>
<asrwt>0</asrwt>
<pdfrwt beam="1">  1        1 0.43373160E+00 0.73127487E+03</pdfrwt>
<pdfrwt beam="2">  1       -1 0.55003495E-01 0.73127487E+03</pdfrwt>
<totfact> 0.28926644E+00</totfact>
</mgrwt>
</event>
<event>
 4    1  0.2731969E-009  0.4063303E+03  0.7818608E-02  0.1041609E+00
         -1   -1    0    0    0  501 -0.00000000000E+00  0.00000000000E+00  0.18559493207E+03  0.18559493214E+03  0.50400000000E-02 0.  1.
          1   -1    0    0  501    0  0.00000000000E+00 -0.00000000000E+00 -0.13293996203E+04  0.13293996204E+04  0.50400000000E-02 0. -1.
    8880022    1    1    2    0    0  0.22458714702E+03  0.30211468550E+03 -0.10075979664E+04  0.10864428124E+04  0.15294330000E+03 0.  0.
    8880022    1    1    2    0    0 -0.22458714702E+03 -0.30211468550E+03 -0.13620672189E+03  0.42855174006E+03  0.15294330000E+03 0.  0.
<mgrwt>
<rscale>  0 0.40633031E+03</rscale>
<asrwt>0</asrwt>
<pdfrwt beam="1">  1        1 0.20452301E+00 0.40633031E+03</pdfrwt>
<pdfrwt beam="2">  1       -1 0.28553067E-01 0.40633031E+03</pdfrwt>
<totfact> 0.10199870E+02</totfact>
</mgrwt>
</event>
<event>
 4    1  0.2731969E-009  0.1143361E+04  0.7818608E-02  0.9163930E-01
         -1   -1    0    0    0  501 -0.00000000000E+00  0.00000000000E+00  0.95841726622E+03  0.95841726624E+03  0.50400000000E-02 0.  1.
          1   -1    0    0  501    0  0.00000000000E+00 -0.00000000000E+00 -0.18502652575E+04  0.18502652575E+04  0.50400000000E-02 0. -1.
    8880022    1    1    2    0    0 -0.45684964139E+03 -0.10369044649E+04  0.27401476704E+03  0.11757373047E+04  0.15294330000E+03 0.  0.
    8880022    1    1    2    0    0  0.45684964139E+03  0.10369044649E+04 -0.11658627583E+04  0.16329452191E+04  0.15294330000E+03 0.  0.
<mgrwt>
<rscale>  0 0.11433609E+04</rscale>
<asrwt>0</asrwt>
<pdfrwt beam="1">  1        1 0.28465619E+00 0.11433609E+04</pdfrwt>
<pdfrwt beam="2">  1       -1 0.14744881E+00 0.11433609E+04</pdfrwt>
<totfact> 0.13611588E+00</totfact>
</mgrwt>
</event>
<event>
 4    1  0.2731969E-009  0.4348337E+03  0.7818608E-02  0.1032344E+00
          1   -1    0    0  501    0  0.00000000000E+00  0.00000000000E+00  0.89240674739E+03  0.89240674740E+03  0.50400000000E-02 0. -1.
         -1   -1    0    0    0  501 -0.00000000000E+00 -0.00000000000E+00 -0.99079676168E+03  0.99079676169E+03  0.50400000000E-02 0.  1.
    8880022    1    1    2    0    0 -0.16968708268E+03  0.36999320910E+03 -0.88406984438E+03  0.98522069789E+03  0.15294330000E+03 0.  0.
    8880022    1    1    2    0    0  0.16968708268E+03 -0.36999320910E+03  0.78567983008E+03  0.89798281120E+03  0.15294330000E+03 0. -1.
<mgrwt>
<rscale>  0 0.43483369E+03</rscale>
<asrwt>0</asrwt>
<pdfrwt beam="1">  1        1 0.13729335E+00 0.43483369E+03</pdfrwt>
<pdfrwt beam="2">  1       -1 0.15243027E+00 0.43483369E+03</pdfrwt>
<totfact> 0.67785099E+00</totfact>
</mgrwt>
</event>
<event>
 4    1  0.2731969E-009  0.4650348E+03  0.7818608E-02  0.1023331E+00
         -1   -1    0    0    0  501 -0.00000000000E+00  0.00000000000E+00  0.15628098258E+04  0.15628098258E+04  0.50400000000E-02 0.  1.
          1   -1    0    0  501    0  0.00000000000E+00 -0.00000000000E+00 -0.10071236604E+04  0.10071236604E+04  0.50400000000E-02 0. -1.
    8880022    1    1    2    0    0  0.34578857467E+03 -0.27073231084E+03  0.14712731953E+04  0.15430172361E+04  0.15294330000E+03 0.  0.
    8880022    1    1    2    0    0 -0.34578857467E+03  0.27073231084E+03 -0.91558702988E+03  0.10269162501E+04  0.15294330000E+03 0.  0.
<mgrwt>
<rscale>  0 0.46503481E+03</rscale>
<asrwt>0</asrwt>
<pdfrwt beam="1">  1        1 0.15494210E+00 0.46503481E+03</pdfrwt>
<pdfrwt beam="2">  1       -1 0.24043228E+00 0.46503481E+03</pdfrwt>
<totfact> 0.13547765E+00</totfact>
</mgrwt>
</event>
<event>
 4    1  0.2731969E-009  0.5796321E+03  0.7818608E-02  0.9948588E-01
          1   -1    0    0  501    0  0.00000000000E+00  0.00000000000E+00  0.13490609212E+04  0.13490609212E+04  0.50400000000E-02 0. -1.
         -1   -1    0    0    0  501 -0.00000000000E+00 -0.00000000000E+00 -0.66265324758E+03  0.66265324760E+03  0.50400000000E-02 0.  1.
    8880022    1    1    2    0    0  0.40993763509E+03  0.38017480160E+03 -0.45147027098E+03  0.73471001288E+03  0.15294330000E+03 0.  0.
    8880022    1    1    2    0    0 -0.40993763509E+03 -0.38017480160E+03  0.11378779446E+04  0.12770041559E+04  0.15294330000E+03 0.  0.
<mgrwt>
<rscale>  0 0.57963212E+03</rscale>
<asrwt>0</asrwt>
<pdfrwt beam="1">  1        1 0.20754783E+00 0.57963212E+03</pdfrwt>
<pdfrwt beam="2">  1       -1 0.10194665E+00 0.57963212E+03</pdfrwt>
<totfact> 0.81328505E+00</totfact>
</mgrwt>
</event>
<event>
 4    1  0.2731969E-009  0.5832620E+03  0.7818608E-02  0.9940754E-01
          1   -1    0    0  501    0  0.00000000000E+00  0.00000000000E+00  0.18009196057E+04  0.18009196057E+04  0.50400000000E-02 0. -1.
         -1   -1    0    0    0  501 -0.00000000000E+00 -0.00000000000E+00 -0.34980491006E+03  0.34980491010E+03  0.50400000000E-02 0.  1.
    8880022    1    1    2    0    0 -0.23006516787E+03  0.51368563440E+03  0.14548903225E+04  0.15674502914E+04  0.15294330000E+03 0.  0.
    8880022    1    1    2    0    0  0.23006516787E+03 -0.51368563440E+03 -0.37756268998E+01  0.58327422438E+03  0.15294330000E+03 0.  1.
<mgrwt>
<rscale>  0 0.58326200E+03</rscale>
<asrwt>0</asrwt>
<pdfrwt beam="1">  1        1 0.27706456E+00 0.58326200E+03</pdfrwt>
<pdfrwt beam="2">  1       -1 0.53816140E-01 0.58326200E+03</pdfrwt>
<totfact> 0.15162112E+01</totfact>
</mgrwt>
</event>
<event>
 4    1  0.2731969E-009  0.3774574E+03  0.7818608E-02  0.1051878E+00
         -1   -1    0    0    0  501 -0.00000000000E+00  0.00000000000E+00  0.39782089072E+03  0.39782089075E+03  0.50400000000E-02 0.  1.
          1   -1    0    0  501    0  0.00000000000E+00 -0.00000000000E+00 -0.12089496501E+04  0.12089496501E+04  0.50400000000E-02 0. -1.
    8880022    1    1    2    0    0 -0.28362909723E+03  0.19656279841E+03  0.26839999124E+03  0.46315505700E+03  0.15294330000E+03 0.  0.
    8880022    1    1    2    0    0  0.28362909723E+03 -0.19656279841E+03 -0.10795287507E+04  0.11436154839E+04  0.15294330000E+03 0. -1.
<mgrwt>
<rscale>  0 0.37745735E+03</rscale>
<asrwt>0</asrwt>
<pdfrwt beam="1">  1        1 0.18599225E+00 0.37745735E+03</pdfrwt>
<pdfrwt beam="2">  1       -1 0.61203215E-01 0.37745735E+03</pdfrwt>
<totfact> 0.31160690E+01</totfact>
</mgrwt>
</event>
<event>
 4    1  0.2731969E-009  0.4590384E+03  0.7818608E-02  0.1025060E+00
          1   -1    0    0  501    0  0.00000000000E+00  0.00000000000E+00  0.13049262113E+04  0.13049262113E+04  0.50400000000E-02 0. -1.
         -1   -1    0    0    0  501 -0.00000000000E+00 -0.00000000000E+00 -0.24444418838E+03  0.24444418843E+03  0.50400000000E-02 0.  1.
    8880022    1    1    2    0    0 -0.24128417271E+03 -0.35931396044E+03  0.78918216734E+02  0.46577281170E+03  0.15294330000E+03 0.  0.
    8880022    1    1    2    0    0  0.24128417271E+03  0.35931396044E+03  0.98156380619E+03  0.10835975880E+04  0.15294330000E+03 0.  0.
<mgrwt>
<rscale>  0 0.45903837E+03</rscale>
<asrwt>0</asrwt>
<pdfrwt beam="1">  1        1 0.20075789E+00 0.45903837E+03</pdfrwt>
<pdfrwt beam="2">  1       -1 0.37606797E-01 0.45903837E+03</pdfrwt>
<totfact> 0.65005813E+01</totfact>
</mgrwt>
</event>
<event>
 4    1  0.2731969E-009  0.8051073E+03  0.7818608E-02  0.9552654E-01
          1   -1    0    0  501    0  0.00000000000E+00  0.00000000000E+00  0.32178625331E+04  0.32178625331E+04  0.50400000000E-02 0. -1.
         -1   -1    0    0    0  501 -0.00000000000E+00 -0.00000000000E+00 -0.46195184753E+03  0.46195184755E+03  0.50400000000E-02 0.  1.
    8880022    1    1    2    0    0  0.70037340197E+03 -0.36644670758E+03  0.27596545217E+04  0.28746983883E+04  0.15294330000E+03 0.  0.
    8880022    1    1    2    0    0 -0.70037340197E+03  0.36644670758E+03 -0.37438361950E+01  0.80511599226E+03  0.15294330000E+03 0.  0.
<mgrwt>
<rscale>  0 0.80510729E+03</rscale>
<asrwt>0</asrwt>
<pdfrwt beam="1">  1        1 0.49505579E+00 0.80510729E+03</pdfrwt>
<pdfrwt beam="2">  1       -1 0.71069513E-01 0.80510729E+03</pdfrwt>
<totfact> 0.88326938E-01</totfact>
</mgrwt>
</event>
<event>
 4    1  0.2731969E-009  0.1392996E+04  0.7818608E-02  0.8958904E-01
          1   -1    0    0  501    0  0.00000000000E+00  0.00000000000E+00  0.27712973823E+04  0.27712973823E+04  0.50400000000E-02 0. -1.
         -1   -1    0    0    0  501 -0.00000000000E+00 -0.00000000000E+00 -0.99142335031E+03  0.99142335033E+03  0.50400000000E-02 0.  1.
    8880022    1    1    2    0    0 -0.13712571262E+04 -0.19156943132E+03 -0.12973960782E+03  0.13990242928E+04  0.15294330000E+03 0.  0.
    8880022    1    1    2    0    0  0.13712571262E+04  0.19156943132E+03  0.19096136398E+04  0.23636964397E+04  0.15294330000E+03 0.  0.
<mgrwt>
<rscale>  0 0.13929956E+04</rscale>
<asrwt>0</asrwt>
<pdfrwt beam="1">  1        1 0.42635345E+00 0.13929956E+04</pdfrwt>
<pdfrwt beam="2">  1       -1 0.15252667E+00 0.13929956E+04</pdfrwt>
<totfact> 0.28062340E-01</totfact>
</mgrwt>
</event>
<event>
 4    1  0.2731969E-009  0.1440338E+04  0.7818608E-02  0.8925127E-01
          1   -1    0    0  501    0  0.00000000000E+00  0.00000000000E+00  0.24376004772E+04  0.24376004772E+04  0.50400000000E-02 0. -1.
         -1   -1    0    0    0  501 -0.00000000000E+00 -0.00000000000E+00 -0.11024273956E+04  0.11024273956E+04  0.50400000000E-02 0.  1.
    8880022    1    1    2    0    0  0.12594934876E+04  0.68180457263E+03  0.15127602613E+04  0.20887835172E+04  0.15294330000E+03 0.  0.
    8880022    1    1    2    0    0 -0.12594934876E+04 -0.68180457263E+03 -0.17758717968E+03  0.14512443557E+04  0.15294330000E+03 0.  0.
<mgrwt>
<rscale>  0 0.14403378E+04</rscale>
<asrwt>0</asrwt>
<pdfrwt beam="1">  1        1 0.37501546E+00 0.14403378E+04</pdfrwt>
<pdfrwt beam="2">  1       -1 0.16960422E+00 0.14403378E+04</pdfrwt>
<totfact> 0.35386827E-01</totfact>
</mgrwt>
</event>
<event>
 4    1  0.2731969E-009  0.3881312E+03  0.7818608E-02  0.1047969E+00
         -1   -1    0    0    0  501 -0.00000000000E+00  0.00000000000E+00  0.29234632951E+03  0.29234632955E+03  0.50400000000E-02 0.  1.
          1   -1    0    0  501    0  0.00000000000E+00 -0.00000000000E+00 -0.12580311078E+04  0.12580311078E+04  0.50400000000E-02 0. -1.
    8880022    1    1    2    0    0 -0.35651654606E+03  0.12252322929E+02 -0.10784740905E+04  0.11461902913E+04  0.15294330000E+03 0. -1.
    8880022    1    1    2    0    0  0.35651654606E+03 -0.12252322929E+02  0.11278931224E+03  0.40418714601E+03  0.15294330000E+03 0.  0.
<mgrwt>
<rscale>  0 0.38813119E+03</rscale>
<asrwt>0</asrwt>
<pdfrwt beam="1">  1        1 0.19354324E+00 0.38813119E+03</pdfrwt>
<pdfrwt beam="2">  1       -1 0.44976359E-01 0.38813119E+03</pdfrwt>
<totfact> 0.51384487E+01</totfact>
</mgrwt>
</event>
<event>
 4    1  0.2731969E-009  0.2789184E+03  0.7818608E-02  0.1096281E+00
         -1   -1    0    0    0  501 -0.00000000000E+00  0.00000000000E+00  0.26571779232E+03  0.26571779236E+03  0.50400000000E-02 0.  1.
          1   -1    0    0  501    0  0.00000000000E+00 -0.00000000000E+00 -0.12636197149E+04  0.12636197149E+04  0.50400000000E-02 0. -1.
    8880022    1    1    2    0    0 -0.23317087089E+03  0.59315154011E+01 -0.11692059622E+04  0.12020141733E+04  0.15294330000E+03 0.  0.
    8880022    1    1    2    0    0  0.23317087089E+03 -0.59315154011E+01  0.17130403963E+03  0.32732333390E+03  0.15294330000E+03 0.  1.
<mgrwt>
<rscale>  0 0.27891843E+03</rscale>
<asrwt>0</asrwt>
<pdfrwt beam="1">  1        1 0.19440303E+00 0.27891843E+03</pdfrwt>
<pdfrwt beam="2">  1       -1 0.40879661E-01 0.27891843E+03</pdfrwt>
<totfact> 0.62126631E+01</totfact>
</mgrwt>
</event>
<event>
 4    1  0.2731969E-009  0.9751600E+03  0.7818608E-02  0.9336216E-01
         -1   -1    0    0    0  501 -0.00000000000E+00  0.00000000000E+00  0.98942824084E+03  0.98942824085E+03  0.50400000000E-02 0.  1.
          1   -1    0    0  501    0  0.00000000000E+00 -0.00000000000E+00 -0.18877977607E+04  0.18877977607E+04  0.50400000000E-02 0. -1.
    8880022    1    1    2    0    0  0.18766517101E+03  0.94463067687E+03 -0.14571275801E+04  0.17533276276E+04  0.15294330000E+03 0.  0.
    8880022    1    1    2    0    0 -0.18766517101E+03 -0.94463067687E+03  0.55875806023E+03  0.11238983740E+04  0.15294330000E+03 0.  0.
<mgrwt>
<rscale>  0 0.97515998E+03</rscale>
<asrwt>0</asrwt>
<pdfrwt beam="1">  1        1 0.29043042E+00 0.97515998E+03</pdfrwt>
<pdfrwt beam="2">  1       -1 0.15221973E+00 0.97515998E+03</pdfrwt>
<totfact> 0.12068439E+00</totfact>
</mgrwt>
</event>
<event>
 4    1  0.2731969E-009  0.6921711E+03  0.7818608E-02  0.9730715E-01
          1   -1    0    0  501    0  0.00000000000E+00  0.00000000000E+00  0.29753568473E+04  0.29753568473E+04  0.50400000000E-02 0. -1.
         -1   -1    0    0    0  501 -0.00000000000E+00 -0.00000000000E+00 -0.18811990736E+03  0.18811990743E+03  0.50400000000E-02 0.  1.
    8880022    1    1    2    0    0 -0.62015005704E+03  0.26668906951E+03  0.19939309218E+04  0.21106542415E+04  0.15294330000E+03 0.  0.
    8880022    1    1    2    0    0  0.62015005704E+03 -0.26668906951E+03  0.79330601814E+03  0.10528225133E+04  0.15294330000E+03 0.  0.
<mgrwt>
<rscale>  0 0.69217108E+03</rscale>
<asrwt>0</asrwt>
<pdfrwt beam="1">  1        1 0.45774724E+00 0.69217108E+03</pdfrwt>
<pdfrwt beam="2">  1       -1 0.28941522E-01 0.69217108E+03</pdfrwt>
<totfact> 0.72809698E+00</totfact>
</mgrwt>
</event>
<event>
 4    1  0.2731969E-009  0.1857744E+03  0.7818608E-02  0.1162329E+00
          1   -1    0    0  501    0  0.00000000000E+00  0.00000000000E+00  0.17681353409E+04  0.17681353410E+04  0.50400000000E-02 0. -1.
         -1   -1    0    0    0  501 -0.00000000000E+00 -0.00000000000E+00 -0.13217117793E+03  0.13217117802E+03  0.50400000000E-02 0.  1.
    8880022    1    1    2    0    0  0.79990907095E+02 -0.68716228933E+02  0.16951751763E+04  0.17053243084E+04  0.15294330000E+03 0.  0.
    8880022    1    1    2    0    0 -0.79990907095E+02  0.68716228933E+02 -0.59211013301E+02  0.19498221059E+03  0.15294330000E+03 0.  1.
<mgrwt>
<rscale>  0 0.18577437E+03</rscale>
<asrwt>0</asrwt>
<pdfrwt beam="1">  1        1 0.27202082E+00 0.18577437E+03</pdfrwt>
<pdfrwt beam="2">  1       -1 0.20334028E-01 0.18577437E+03</pdfrwt>
<totfact> 0.97122846E+01</totfact>
</mgrwt>
</event>
<event>
 4    1  0.2731969E-009  0.1894054E+04  0.7818608E-02  0.8657822E-01
         -1   -1    0    0    0  501 -0.00000000000E+00  0.00000000000E+00  0.12964122456E+04  0.12964122456E+04  0.50400000000E-02 0.  1.
          1   -1    0    0  501    0  0.00000000000E+00 -0.00000000000E+00 -0.31106050305E+04  0.31106050305E+04  0.50400000000E-02 0. -1.
    8880022    1    1    2    0    0  0.97211259723E+03 -0.16183465871E+04 -0.16392321485E+04  0.25048996522E+04  0.15294330000E+03 0.  0.
    8880022    1    1    2    0    0 -0.97211259723E+03  0.16183465871E+04 -0.17496063640E+03  0.19021176239E+04  0.15294330000E+03 0.  0.
<mgrwt>
<rscale>  0 0.18940539E+04</rscale>
<asrwt>0</asrwt>
<pdfrwt beam="1">  1        1 0.47855462E+00 0.18940539E+04</pdfrwt>
<pdfrwt beam="2">  1       -1 0.19944804E+00 0.18940539E+04</pdfrwt>
<totfact> 0.68067169E-02</totfact>
</mgrwt>
</event>
<event>
 4    1  0.2731969E-009  0.6257421E+03  0.7818608E-02  0.9853393E-01
          1   -1    0    0  501    0  0.00000000000E+00  0.00000000000E+00  0.27650669297E+04  0.27650669297E+04  0.50400000000E-02 0. -1.
         -1   -1    0    0    0  501 -0.00000000000E+00 -0.00000000000E+00 -0.75626067078E+03  0.75626067079E+03  0.50400000000E-02 0.  1.
    8880022    1    1    2    0    0 -0.43902830813E+03 -0.41882658222E+03  0.25916916243E+04  0.26661617899E+04  0.15294330000E+03 0.  0.
    8880022    1    1    2    0    0  0.43902830813E+03  0.41882658222E+03 -0.58288536543E+03  0.85516581057E+03  0.15294330000E+03 0.  0.
<mgrwt>
<rscale>  0 0.62574213E+03</rscale>
<asrwt>0</asrwt>
<pdfrwt beam="1">  1        1 0.42539490E+00 0.62574213E+03</pdfrwt>
<pdfrwt beam="2">  1       -1 0.11634780E+00 0.62574213E+03</pdfrwt>
<totfact> 0.65426519E-01</totfact>
</mgrwt>
</event>
<event>
 4    1  0.2731969E-009  0.3607809E+03  0.7818608E-02  0.1058275E+00
         -1   -1    0    0    0  501 -0.00000000000E+00  0.00000000000E+00  0.11837306830E+03  0.11837306841E+03  0.50400000000E-02 0.  1.
          1   -1    0    0  501    0  0.00000000000E+00 -0.00000000000E+00 -0.17449135102E+04  0.17449135102E+04  0.50400000000E-02 0. -1.
    8880022    1    1    2    0    0  0.28098670522E+03  0.16678627537E+03 -0.13798337386E+04  0.14262201757E+04  0.15294330000E+03 0. -1.
    8880022    1    1    2    0    0 -0.28098670522E+03 -0.16678627537E+03 -0.24670670330E+03  0.43706640300E+03  0.15294330000E+03 0.  0.
<mgrwt>
<rscale>  0 0.36078088E+03</rscale>
<asrwt>0</asrwt>
<pdfrwt beam="1">  1        1 0.26844821E+00 0.36078088E+03</pdfrwt>
<pdfrwt beam="2">  1       -1 0.18211243E-01 0.36078088E+03</pdfrwt>
<totfact> 0.11461648E+02</totfact>
</mgrwt>
</event>
<event>
 4    1  0.2731969E-009  0.8333344E+03  0.7818608E-02  0.9512982E-01
          1   -1    0    0  501    0  0.00000000000E+00  0.00000000000E+00  0.93171328296E+03  0.93171328297E+03  0.50400000000E-02 0. -1.
         -1   -1    0    0    0  501 -0.00000000000E+00 -0.00000000000E+00 -0.96716519923E+03  0.96716519924E+03  0.50400000000E-02 0.  1.
    8880022    1    1    2    0    0 -0.55037525477E+03 -0.60674675198E+03  0.43696793083E+03  0.94095014092E+03  0.15294330000E+03 0.  0.
    8880022    1    1    2    0    0  0.55037525477E+03  0.60674675198E+03 -0.47241984709E+03  0.95792834129E+03  0.15294330000E+03 0.  0.
<mgrwt>
<rscale>  0 0.83333438E+03</rscale>
<asrwt>0</asrwt>
<pdfrwt beam="1">  1        1 0.14334051E+00 0.83333438E+03</pdfrwt>
<pdfrwt beam="2">  1       -1 0.14879465E+00 0.83333438E+03</pdfrwt>
<totfact> 0.62523704E+00</totfact>
</mgrwt>
</event>
<event>
 4    1  0.2731969E-009  0.1574064E+03  0.7818608E-02  0.1191656E+00
         -1   -1    0    0    0  501 -0.00000000000E+00  0.00000000000E+00  0.15214698217E+03  0.15214698226E+03  0.50400000000E-02 0.  1.
          1   -1    0    0  501    0  0.00000000000E+00 -0.00000000000E+00 -0.17085615084E+04  0.17085615084E+04  0.50400000000E-02 0. -1.
    8880022    1    1    2    0    0  0.21131404793E+02  0.30636231092E+02  0.10669966397E+03  0.19016199996E+03  0.15294330000E+03 0.  0.
    8880022    1    1    2    0    0 -0.21131404793E+02 -0.30636231092E+02 -0.16631141902E+04  0.16705464907E+04  0.15294330000E+03 0. -1.
<mgrwt>
<rscale>  0 0.15740638E+03</rscale>
<asrwt>0</asrwt>
<pdfrwt beam="1">  1        1 0.26285560E+00 0.15740638E+03</pdfrwt>
<pdfrwt beam="2">  1       -1 0.23407229E-01 0.15740638E+03</pdfrwt>
<totfact> 0.85416094E+01</totfact>
</mgrwt>
</event>
<event>
 4    1  0.2731969E-009  0.1452110E+04  0.7818608E-02  0.8916939E-01
         -1   -1    0    0    0  501 -0.00000000000E+00  0.00000000000E+00  0.85281012172E+03  0.85281012174E+03  0.50400000000E-02 0.  1.
          1   -1    0    0  501    0  0.00000000000E+00 -0.00000000000E+00 -0.41308180580E+04  0.41308180580E+04  0.50400000000E-02 0. -1.
    8880022    1    1    2    0    0 -0.13581592573E+03  0.14376321974E+04 -0.32177915398E+04  0.35302700105E+04  0.15294330000E+03 0.  0.
    8880022    1    1    2    0    0  0.13581592573E+03 -0.14376321974E+04 -0.60216396482E+02  0.14533581692E+04  0.15294330000E+03 0.  0.
<mgrwt>
<rscale>  0 0.14521102E+04</rscale>
<asrwt>0</asrwt>
<pdfrwt beam="1">  1        1 0.63551046E+00 0.14521102E+04</pdfrwt>
<pdfrwt beam="2">  1       -1 0.13120156E+00 0.14521102E+04</pdfrwt>
<totfact> 0.35341404E-02</totfact>
</mgrwt>
</event>
<event>
 4    1  0.2731969E-009  0.1610972E+03  0.7818608E-02  0.1187464E+00
         -1   -1    0    0    0  501 -0.00000000000E+00  0.00000000000E+00  0.38871851447E+03  0.38871851450E+03  0.50400000000E-02 0.  1.
          1   -1    0    0  501    0  0.00000000000E+00 -0.00000000000E+00 -0.22409845331E+04  0.22409845331E+04  0.50400000000E-02 0. -1.
    8880022    1    1    2    0    0 -0.32142796885E+02  0.39083057349E+02 -0.22212503190E+04  0.22270844792E+04  0.15294330000E+03 0. -1.
    8880022    1    1    2    0    0  0.32142796885E+02 -0.39083057349E+02  0.36898430033E+03  0.40261856846E+03  0.15294330000E+03 0.  0.
<mgrwt>
<rscale>  0 0.16109717E+03</rscale>
<asrwt>0</asrwt>
<pdfrwt beam="1">  1        1 0.34476684E+00 0.16109717E+03</pdfrwt>
<pdfrwt beam="2">  1       -1 0.59802850E-01 0.16109717E+03</pdfrwt>
<totfact> 0.75218519E+00</totfact>
</mgrwt>
</event>
<event>
 4    1  0.2731969E-009  0.9135322E+03  0.7818608E-02  0.9408822E-01
         -1   -1    0    0    0  501 -0.00000000000E+00  0.00000000000E+00  0.73721022571E+03  0.73721022573E+03  0.50400000000E-02 0.  1.
          1   -1    0    0  501    0  0.00000000000E+00 -0.00000000000E+00 -0.27800539777E+04  0.27800539777E+04  0.50400000000E-02 0. -1.
    8880022    1    1    2    0    0 -0.33125478846E+03 -0.83750797780E+03 -0.23754593932E+04  0.25450635217E+04  0.15294330000E+03 0. -1.
    8880022    1    1    2    0    0  0.33125478846E+03  0.83750797780E+03  0.33261564121E+03  0.97220068173E+03  0.15294330000E+03 0.  0.
<mgrwt>
<rscale>  0 0.91353216E+03</rscale>
<asrwt>0</asrwt>
<pdfrwt beam="1">  1        1 0.42770061E+00 0.91353216E+03</pdfrwt>
<pdfrwt beam="2">  1       -1 0.11341696E+00 0.91353216E+03</pdfrwt>
<totfact> 0.63521313E-01</totfact>
</mgrwt>
</event>
<event>
 4    1  0.2731969E-009  0.6986008E+03  0.7818608E-02  0.9719628E-01
          1   -1    0    0  501    0  0.00000000000E+00  0.00000000000E+00  0.22393778214E+04  0.22393778215E+04  0.50400000000E-02 0. -1.
         -1   -1    0    0    0  501 -0.00000000000E+00 -0.00000000000E+00 -0.25689901012E+03  0.25689901017E+03  0.50400000000E-02 0.  1.
    8880022    1    1    2    0    0  0.44028261899E+03  0.52038696867E+03  0.14773139004E+04  0.16341662691E+04  0.15294330000E+03 0.  0.
    8880022    1    1    2    0    0 -0.44028261899E+03 -0.52038696867E+03  0.50516491091E+03  0.86211056250E+03  0.15294330000E+03 0.  0.
<mgrwt>
<rscale>  0 0.69860077E+03</rscale>
<asrwt>0</asrwt>
<pdfrwt beam="1">  1        1 0.34451966E+00 0.69860077E+03</pdfrwt>
<pdfrwt beam="2">  1       -1 0.39522925E-01 0.69860077E+03</pdfrwt>
<totfact> 0.13462448E+01</totfact>
</mgrwt>
</event>
<event>
 4    1  0.2731969E-009  0.1003274E+04  0.7818608E-02  0.9304961E-01
         -1   -1    0    0    0  501 -0.00000000000E+00  0.00000000000E+00  0.69322913910E+03  0.69322913912E+03  0.50400000000E-02 0.  1.
          1   -1    0    0  501    0  0.00000000000E+00 -0.00000000000E+00 -0.25934448804E+04  0.25934448804E+04  0.50400000000E-02 0. -1.
    8880022    1    1    2    0    0  0.70883097644E+03 -0.69334444876E+03 -0.20403378403E+04  0.22736618116E+04  0.15294330000E+03 0.  0.
    8880022    1    1    2    0    0 -0.70883097644E+03  0.69334444876E+03  0.14012209903E+03  0.10130122079E+04  0.15294330000E+03 0.  0.
<mgrwt>
<rscale>  0 0.10032744E+04</rscale>
<asrwt>0</asrwt>
<pdfrwt beam="1">  1        1 0.39899151E+00 0.10032744E+04</pdfrwt>
<pdfrwt beam="2">  1       -1 0.10665064E+00 0.10032744E+04</pdfrwt>
<totfact> 0.97598014E-01</totfact>
</mgrwt>
</event>
<event>
 4    1  0.2731969E-009  0.1016969E+04  0.7818608E-02  0.9290127E-01
         -1   -1    0    0    0  501 -0.00000000000E+00  0.00000000000E+00  0.12721313256E+04  0.12721313256E+04  0.50400000000E-02 0.  1.
          1   -1    0    0  501    0  0.00000000000E+00 -0.00000000000E+00 -0.95282637540E+03  0.95282637542E+03  0.50400000000E-02 0. -1.
    8880022    1    1    2    0    0  0.47766486751E+03  0.88468674164E+03  0.58583916759E+03  0.11736411461E+04  0.15294330000E+03 0.  0.
    8880022    1    1    2    0    0 -0.47766486751E+03 -0.88468674164E+03 -0.26653421744E+03  0.10513165549E+04  0.15294330000E+03 0.  0.
<mgrwt>
<rscale>  0 0.10169690E+04</rscale>
<asrwt>0</asrwt>
<pdfrwt beam="1">  1        1 0.14658867E+00 0.10169690E+04</pdfrwt>
<pdfrwt beam="2">  1       -1 0.19571251E+00 0.10169690E+04</pdfrwt>
<totfact> 0.26622344E+00</totfact>
</mgrwt>
</event>
<event>
 4    1  0.2731969E-009  0.8713700E+03  0.7818608E-02  0.9462095E-01
         -1   -1    0    0    0  501 -0.00000000000E+00  0.00000000000E+00  0.10972595309E+04  0.10972595309E+04  0.50400000000E-02 0.  1.
          1   -1    0    0  501    0  0.00000000000E+00 -0.00000000000E+00 -0.12762309162E+04  0.12762309162E+04  0.50400000000E-02 0. -1.
    8880022    1    1    2    0    0 -0.85684590835E+03  0.41342210618E+02 -0.89244063750E+03  0.12472914790E+04  0.15294330000E+03 0.  0.
    8880022    1    1    2    0    0  0.85684590835E+03 -0.41342210618E+02  0.71346925215E+03  0.11261989681E+04  0.15294330000E+03 0.  0.
<mgrwt>
<rscale>  0 0.87137004E+03</rscale>
<asrwt>0</asrwt>
<pdfrwt beam="1">  1        1 0.19634322E+00 0.87137004E+03</pdfrwt>
<pdfrwt beam="2">  1       -1 0.16880916E+00 0.87137004E+03</pdfrwt>
<totfact> 0.24159535E+00</totfact>
</mgrwt>
</event>
<event>
 4    1  0.2731969E-009  0.3604710E+03  0.7818608E-02  0.1058398E+00
         -1   -1    0    0    0  501 -0.00000000000E+00  0.00000000000E+00  0.72398680802E+03  0.72398680804E+03  0.50400000000E-02 0.  1.
          1   -1    0    0  501    0  0.00000000000E+00 -0.00000000000E+00 -0.67505757705E+03  0.67505757707E+03  0.50400000000E-02 0. -1.
    8880022    1    1    2    0    0 -0.20552111852E+03  0.25359167308E+03  0.62382498313E+03  0.72048381620E+03  0.15294330000E+03 0.  0.
    8880022    1    1    2    0    0  0.20552111852E+03 -0.25359167308E+03 -0.57489575216E+03  0.67856056891E+03  0.15294330000E+03 0.  0.
<mgrwt>
<rscale>  0 0.36047097E+03</rscale>
<asrwt>0</asrwt>
<pdfrwt beam="1">  1        1 0.10385501E+00 0.36047097E+03</pdfrwt>
<pdfrwt beam="2">  1       -1 0.11138259E+00 0.36047097E+03</pdfrwt>
<totfact> 0.23262184E+01</totfact>
</mgrwt>
</event>
<event>
 4    1  0.2731969E-009  0.1971673E+04  0.7818608E-02  0.8619980E-01
          1   -1    0    0  501    0  0.00000000000E+00  0.00000000000E+00  0.19228818313E+04  0.19228818313E+04  0.50400000000E-02 0. -1.
         -1   -1    0    0    0  501 -0.00000000000E+00 -0.00000000000E+00 -0.23677233377E+04  0.23677233377E+04  0.50400000000E-02 0.  1.
    8880022    1    1    2    0    0 -0.10713034528E+04  0.16481537212E+04  0.59769417921E+03  0.20602746811E+04  0.15294330000E+03 0.  0.
    8880022    1    1    2    0    0  0.10713034528E+04 -0.16481537212E+04 -0.10425356856E+04  0.22303304880E+04  0.15294330000E+03 0.  0.
<mgrwt>
<rscale>  0 0.19716727E+04</rscale>
<asrwt>0</asrwt>
<pdfrwt beam="1">  1        1 0.29582797E+00 0.19716727E+04</pdfrwt>
<pdfrwt beam="2">  1       -1 0.36426513E+00 0.19716727E+04</pdfrwt>
<totfact> 0.37458605E-02</totfact>
</mgrwt>
</event>
<event>
 4    1  0.2731969E-009  0.8270766E+03  0.7818608E-02  0.9521631E-01
          1   -1    0    0  501    0  0.00000000000E+00  0.00000000000E+00  0.72918469219E+03  0.72918469220E+03  0.50400000000E-02 0. -1.
         -1   -1    0    0    0  501 -0.00000000000E+00 -0.00000000000E+00 -0.12120255247E+04  0.12120255247E+04  0.50400000000E-02 0.  1.
    8880022    1    1    2    0    0 -0.70549040952E+03 -0.40366741419E+03 -0.70283858012E+03  0.10853745077E+04  0.15294330000E+03 0.  0.
    8880022    1    1    2    0    0  0.70549040952E+03  0.40366741419E+03  0.21999774762E+03  0.85583570922E+03  0.15294330000E+03 0.  0.
<mgrwt>
<rscale>  0 0.82707663E+03</rscale>
<asrwt>0</asrwt>
<pdfrwt beam="1">  1        1 0.11218226E+00 0.82707663E+03</pdfrwt>
<pdfrwt beam="2">  1       -1 0.18646547E+00 0.82707663E+03</pdfrwt>
<totfact> 0.49068948E+00</totfact>
</mgrwt>
</event>
<event>
 4    1  0.2731969E-009  0.5725762E+03  0.7818608E-02  0.9963994E-01
          1   -1    0    0  501    0  0.00000000000E+00  0.00000000000E+00  0.12959948326E+04  0.12959948326E+04  0.50400000000E-02 0. -1.
         -1   -1    0    0    0  501 -0.00000000000E+00 -0.00000000000E+00 -0.86906988087E+03  0.86906988088E+03  0.50400000000E-02 0.  1.
    8880022    1    1    2    0    0 -0.55017136673E+03  0.41991902835E+02  0.11249280508E+04  0.12622625025E+04  0.15294330000E+03 0.  0.
    8880022    1    1    2    0    0  0.55017136673E+03 -0.41991902835E+02 -0.69800309914E+03  0.90280221095E+03  0.15294330000E+03 0.  0.
<mgrwt>
<rscale>  0 0.57257620E+03</rscale>
<asrwt>0</asrwt>
<pdfrwt beam="1">  1        1 0.19938382E+00 0.57257620E+03</pdfrwt>
<pdfrwt beam="2">  1       -1 0.13370306E+00 0.57257620E+03</pdfrwt>
<totfact> 0.46243474E+00</totfact>
</mgrwt>
</event>
<event>
 4    1  0.2731969E-009  0.1348439E+04  0.7818608E-02  0.8992010E-01
          1   -1    0    0  501    0  0.00000000000E+00  0.00000000000E+00  0.18163284070E+04  0.18163284070E+04  0.50400000000E-02 0. -1.
         -1   -1    0    0    0  501 -0.00000000000E+00 -0.00000000000E+00 -0.17712097542E+04  0.17712097542E+04  0.50400000000E-02 0.  1.
    8880022    1    1    2    0    0 -0.20195565323E+02  0.13395853916E+04 -0.11602472252E+04  0.17788935209E+04  0.15294330000E+03 0.  0.
    8880022    1    1    2    0    0  0.20195565323E+02 -0.13395853916E+04  0.12053658780E+04  0.18086446403E+04  0.15294330000E+03 0.  0.
<mgrwt>
<rscale>  0 0.13484393E+04</rscale>
<asrwt>0</asrwt>
<pdfrwt beam="1">  1        1 0.27943514E+00 0.13484393E+04</pdfrwt>
<pdfrwt beam="2">  1       -1 0.27249381E+00 0.13484393E+04</pdfrwt>
<totfact> 0.19022948E-01</totfact>
</mgrwt>
</event>
<event>
 4    1  0.2731969E-009  0.7312956E+03  0.7818608E-02  0.9665160E-01
         -1   -1    0    0    0  501 -0.00000000000E+00  0.00000000000E+00  0.52976988172E+03  0.52976988175E+03  0.50400000000E-02 0.  1.
          1   -1    0    0  501    0  0.00000000000E+00 -0.00000000000E+00 -0.12133936530E+04  0.12133936530E+04  0.50400000000E-02 0. -1.
    8880022    1    1    2    0    0  0.55593801722E+03 -0.44981610356E+03 -0.69910784130E+03  0.10117040243E+04  0.15294330000E+03 0.  0.
    8880022    1    1    2    0    0 -0.55593801722E+03  0.44981610356E+03  0.15484070022E+02  0.73145951046E+03  0.15294330000E+03 0.  0.
<mgrwt>
<rscale>  0 0.73129560E+03</rscale>
<asrwt>0</asrwt>
<pdfrwt beam="1">  1        1 0.18667595E+00 0.73129560E+03</pdfrwt>
<pdfrwt beam="2">  1       -1 0.81503059E-01 0.73129560E+03</pdfrwt>
<totfact> 0.16208086E+01</totfact>
</mgrwt>
</event>
<event>
 4    1  0.2731969E-009  0.8646675E+03  0.7818608E-02  0.9470860E-01
          1   -1    0    0  501    0  0.00000000000E+00  0.00000000000E+00  0.14186832019E+04  0.14186832019E+04  0.50400000000E-02 0. -1.
         -1   -1    0    0    0  501 -0.00000000000E+00 -0.00000000000E+00 -0.58231813583E+03  0.58231813586E+03  0.50400000000E-02 0.  1.
    8880022    1    1    2    0    0  0.79466850676E+03  0.30456545276E+03  0.72654435271E+03  0.11293876660E+04  0.15294330000E+03 0.  0.
    8880022    1    1    2    0    0 -0.79466850676E+03 -0.30456545276E+03  0.10982071332E+03  0.87161367172E+03  0.15294330000E+03 0.  0.
<mgrwt>
<rscale>  0 0.86466745E+03</rscale>
<asrwt>0</asrwt>
<pdfrwt beam="1">  1        1 0.21825895E+00 0.86466745E+03</pdfrwt>
<pdfrwt beam="2">  1       -1 0.89587408E-01 0.86466745E+03</pdfrwt>
<totfact> 0.92898710E+00</totfact>
</mgrwt>
</event>
<event>
 4    1  0.2731969E-009  0.1776475E+03  0.7818608E-02  0.1170099E+00
          1   -1    0    0  501    0  0.00000000000E+00  0.00000000000E+00  0.14135135539E+04  0.14135135539E+04  0.50400000000E-02 0. -1.
         -1   -1    0    0    0  501 -0.00000000000E+00 -0.00000000000E+00 -0.21725367457E+03  0.21725367463E+03  0.50400000000E-02 0.  1.
    8880022    1    1    2    0    0 -0.78568660032E+02 -0.44653779156E+02 -0.17422110227E+03  0.24882049719E+03  0.15294330000E+03 0.  0.
    8880022    1    1    2    0    0  0.78568660032E+02  0.44653779156E+02  0.13704809816E+04  0.13819467314E+04  0.15294330000E+03 0. -1.
<mgrwt>
<rscale>  0 0.17764754E+03</rscale>
<asrwt>0</asrwt>
<pdfrwt beam="1">  1        1 0.21746362E+00 0.17764754E+03</pdfrwt>
<pdfrwt beam="2">  1       -1 0.33423643E-01 0.17764754E+03</pdfrwt>
<totfact> 0.72478068E+01</totfact>
</mgrwt>
</event>
<event>
 4    1  0.2731969E-009  0.2738209E+03  0.7818608E-02  0.1099112E+00
          1   -1    0    0  501    0  0.00000000000E+00  0.00000000000E+00  0.60492789247E+03  0.60492789249E+03  0.50400000000E-02 0. -1.
         -1   -1    0    0    0  501 -0.00000000000E+00 -0.00000000000E+00 -0.73130998421E+03  0.73130998422E+03  0.50400000000E-02 0.  1.
    8880022    1    1    2    0    0 -0.19201977048E+03  0.12130401427E+03  0.54568352204E+03  0.61053125667E+03  0.15294330000E+03 0. -1.
    8880022    1    1    2    0    0  0.19201977048E+03 -0.12130401427E+03 -0.67206561378E+03  0.72570662004E+03  0.15294330000E+03 0.  0.
<mgrwt>
<rscale>  0 0.27382094E+03</rscale>
<asrwt>0</asrwt>
<pdfrwt beam="1">  1        1 0.93065829E-01 0.27382094E+03</pdfrwt>
<pdfrwt beam="2">  1       -1 0.11250923E+00 0.27382094E+03</pdfrwt>
<totfact> 0.27183931E+01</totfact>
</mgrwt>
</event>
<event>
 4    1  0.2731969E-009  0.6258611E+03  0.7818608E-02  0.9853159E-01
         -1   -1    0    0    0  501 -0.00000000000E+00  0.00000000000E+00  0.56868599430E+03  0.56868599433E+03  0.50400000000E-02 0.  1.
          1   -1    0    0  501    0  0.00000000000E+00 -0.00000000000E+00 -0.11270449272E+04  0.11270449272E+04  0.50400000000E-02 0. -1.
    8880022    1    1    2    0    0  0.60249686443E+03 -0.72856242456E+02  0.24953647793E+03  0.67377341187E+03  0.15294330000E+03 0.  0.
    8880022    1    1    2    0    0 -0.60249686443E+03  0.72856242456E+02 -0.80789541079E+03  0.10219575096E+04  0.15294330000E+03 0.  0.
<mgrwt>
<rscale>  0 0.62586113E+03</rscale>
<asrwt>0</asrwt>
<pdfrwt beam="1">  1        1 0.17339153E+00 0.62586113E+03</pdfrwt>
<pdfrwt beam="2">  1       -1 0.87490153E-01 0.62586113E+03</pdfrwt>
<totfact> 0.16329312E+01</totfact>
</mgrwt>
</event>
<event>
 4    1  0.2731969E-009  0.9544946E+03  0.7818608E-02  0.9359912E-01
         -1   -1    0    0    0  501 -0.00000000000E+00  0.00000000000E+00  0.13397307109E+04  0.13397307109E+04  0.50400000000E-02 0.  1.
          1   -1    0    0  501    0  0.00000000000E+00 -0.00000000000E+00 -0.22811508184E+04  0.22811508184E+04  0.50400000000E-02 0. -1.
    8880022    1    1    2    0    0 -0.70249819135E+03 -0.62782524103E+03  0.10460576990E+04  0.14160849567E+04  0.15294330000E+03 0.  0.
    8880022    1    1    2    0    0  0.70249819135E+03  0.62782524103E+03 -0.19874778065E+04  0.22047965726E+04  0.15294330000E+03 0. -1.
<mgrwt>
<rscale>  0 0.95449458E+03</rscale>
<asrwt>0</asrwt>
<pdfrwt beam="1">  1        1 0.35094628E+00 0.95449458E+03</pdfrwt>
<pdfrwt beam="2">  1       -1 0.20611242E+00 0.95449458E+03</pdfrwt>
<totfact> 0.26877774E-01</totfact>
</mgrwt>
</event>
<event>
 4    1  0.2731969E-009  0.1088588E+04  0.7818608E-02  0.9216387E-01
          1   -1    0    0  501    0  0.00000000000E+00  0.00000000000E+00  0.27614068512E+04  0.27614068512E+04  0.50400000000E-02 0. -1.
         -1   -1    0    0    0  501 -0.00000000000E+00 -0.00000000000E+00 -0.45687740036E+03  0.45687740038E+03  0.50400000000E-02 0.  1.
    8880022    1    1    2    0    0  0.63092411124E+03  0.87382262782E+03  0.15487691490E+04  0.18930686065E+04  0.15294330000E+03 0.  0.
    8880022    1    1    2    0    0 -0.63092411124E+03 -0.87382262782E+03  0.75576030177E+03  0.13252156450E+04  0.15294330000E+03 0.  0.
<mgrwt>
<rscale>  0 0.10885876E+04</rscale>
<asrwt>0</asrwt>
<pdfrwt beam="1">  1        1 0.42483182E+00 0.10885876E+04</pdfrwt>
<pdfrwt beam="2">  1       -1 0.70288831E-01 0.10885876E+04</pdfrwt>
<totfact> 0.18353196E+00</totfact>
</mgrwt>
</event>
<event>
 4    1  0.2731969E-009  0.8554834E+03  0.7818608E-02  0.9483007E-01
         -1   -1    0    0    0  501 -0.00000000000E+00  0.00000000000E+00  0.53478215252E+03  0.53478215254E+03  0.50400000000E-02 0.  1.
          1   -1    0    0  501    0  0.00000000000E+00 -0.00000000000E+00 -0.21609165632E+04  0.21609165633E+04  0.50400000000E-02 0. -1.
    8880022    1    1    2    0    0  0.14062515194E+03 -0.82987028098E+03  0.31352606356E+01  0.85548909957E+03  0.15294330000E+03 0.  0.
    8880022    1    1    2    0    0 -0.14062515194E+03  0.82987028098E+03 -0.16292696714E+04  0.18402096162E+04  0.15294330000E+03 0.  0.
<mgrwt>
<rscale>  0 0.85548335E+03</rscale>
<asrwt>0</asrwt>
<pdfrwt beam="1">  1        1 0.33244870E+00 0.85548335E+03</pdfrwt>
<pdfrwt beam="2">  1       -1 0.82274179E-01 0.85548335E+03</pdfrwt>
<totfact> 0.35233002E+00</totfact>
</mgrwt>
</event>
<event>
 4    1  0.2731969E-009  0.5898876E+03  0.7818608E-02  0.9926611E-01
         -1   -1    0    0    0  501 -0.00000000000E+00  0.00000000000E+00  0.11907129918E+04  0.11907129918E+04  0.50400000000E-02 0.  1.
          1   -1    0    0  501    0  0.00000000000E+00 -0.00000000000E+00 -0.12767934828E+04  0.12767934828E+04  0.50400000000E-02 0. -1.
    8880022    1    1    2    0    0 -0.30709968705E+03  0.47985983675E+03  0.10403598294E+04  0.11959581550E+04  0.15294330000E+03 0.  0.
    8880022    1    1    2    0    0  0.30709968705E+03 -0.47985983675E+03 -0.11264403204E+04  0.12715483196E+04  0.15294330000E+03 0.  0.
<mgrwt>
<rscale>  0 0.58988756E+03</rscale>
<asrwt>0</asrwt>
<pdfrwt beam="1">  1        1 0.19642977E+00 0.58988756E+03</pdfrwt>
<pdfrwt beam="2">  1       -1 0.18318661E+00 0.58988756E+03</pdfrwt>
<totfact> 0.20070134E+00</totfact>
</mgrwt>
</event>
<event>
 4    1  0.2731969E-009  0.4872454E+03  0.7818608E-02  0.1017163E+00
          1   -1    0    0  501    0  0.00000000000E+00  0.00000000000E+00  0.30760043465E+04  0.30760043465E+04  0.50400000000E-02 0. -1.
         -1   -1    0    0    0  501 -0.00000000000E+00 -0.00000000000E+00 -0.47793549331E+03  0.47793549333E+03  0.50400000000E-02 0.  1.
    8880022    1    1    2    0    0  0.39153922622E+02 -0.46095925466E+03  0.29262114609E+04  0.29664998956E+04  0.15294330000E+03 0.  0.
    8880022    1    1    2    0    0 -0.39153922622E+02  0.46095925466E+03 -0.32814260764E+03  0.58743994423E+03  0.15294330000E+03 0.  1.
<mgrwt>
<rscale>  0 0.48724544E+03</rscale>
<asrwt>0</asrwt>
<pdfrwt beam="1">  1        1 0.47323144E+00 0.48724544E+03</pdfrwt>
<pdfrwt beam="2">  1       -1 0.73528537E-01 0.48724544E+03</pdfrwt>
<totfact> 0.11391610E+00</totfact>
</mgrwt>
</event>
<event>
 4    1  0.2731969E-009  0.1315370E+04  0.7818608E-02  0.9017465E-01
          1   -1    0    0  501    0  0.00000000000E+00  0.00000000000E+00  0.21083375736E+04  0.21083375736E+04  0.50400000000E-02 0. -1.
         -1   -1    0    0    0  501 -0.00000000000E+00 -0.00000000000E+00 -0.16659060878E+04  0.16659060878E+04  0.50400000000E-02 0.  1.
    8880022    1    1    2    0    0 -0.12787094983E+04 -0.26778248332E+03 -0.11230033819E+04  0.17295472494E+04  0.15294330000E+03 0.  0.
    8880022    1    1    2    0    0  0.12787094983E+04  0.26778248332E+03  0.15654348676E+04  0.20446964119E+04  0.15294330000E+03 0.  0.
<mgrwt>
<rscale>  0 0.13153696E+04</rscale>
<asrwt>0</asrwt>
<pdfrwt beam="1">  1        1 0.32435963E+00 0.13153696E+04</pdfrwt>
<pdfrwt beam="2">  1       -1 0.25629325E+00 0.13153696E+04</pdfrwt>
<totfact> 0.15425541E-01</totfact>
</mgrwt>
</event>
<event>
 4    1  0.2731969E-009  0.2260528E+03  0.7818608E-02  0.1129449E+00
         -1   -1    0    0    0  501 -0.00000000000E+00  0.00000000000E+00  0.18961116862E+03  0.18961116869E+03  0.50400000000E-02 0.  1.
          1   -1    0    0  501    0  0.00000000000E+00 -0.00000000000E+00 -0.19511243750E+04  0.19511243750E+04  0.50400000000E-02 0. -1.
    8880022    1    1    2    0    0  0.20904698280E+02  0.16513995738E+03 -0.18744565781E+04  0.18880379573E+04  0.15294330000E+03 0.  0.
    8880022    1    1    2    0    0 -0.20904698280E+02 -0.16513995738E+03  0.11294337174E+03  0.25269758639E+03  0.15294330000E+03 0.  1.
<mgrwt>
<rscale>  0 0.22605279E+03</rscale>
<asrwt>0</asrwt>
<pdfrwt beam="1">  1        1 0.30017297E+00 0.22605279E+03</pdfrwt>
<pdfrwt beam="2">  1       -1 0.29170950E-01 0.22605279E+03</pdfrwt>
<totfact> 0.40044025E+01</totfact>
</mgrwt>
</event>
<event>
 4    1  0.2731969E-009  0.6265513E+03  0.7818608E-02  0.9851802E-01
         -1   -1    0    0    0  501 -0.00000000000E+00  0.00000000000E+00  0.79538055493E+03  0.79538055494E+03  0.50400000000E-02 0.  1.
          1   -1    0    0  501    0  0.00000000000E+00 -0.00000000000E+00 -0.19014841658E+04  0.19014841658E+04  0.50400000000E-02 0. -1.
    8880022    1    1    2    0    0  0.52880307010E+03  0.29923601199E+03  0.60725471143E+03  0.87253929160E+03  0.15294330000E+03 0.  0.
    8880022    1    1    2    0    0 -0.52880307010E+03 -0.29923601199E+03 -0.17133583223E+04  0.18243254292E+04  0.15294330000E+03 0.  0.
<mgrwt>
<rscale>  0 0.62655130E+03</rscale>
<asrwt>0</asrwt>
<pdfrwt beam="1">  1        1 0.29253602E+00 0.62655130E+03</pdfrwt>
<pdfrwt beam="2">  1       -1 0.12236624E+00 0.62655130E+03</pdfrwt>
<totfact> 0.22162235E+00</totfact>
</mgrwt>
</event>
<event>
 4    1  0.2731969E-009  0.1224467E+04  0.7818608E-02  0.9091706E-01
         -1   -1    0    0    0  501 -0.00000000000E+00  0.00000000000E+00  0.66031760577E+03  0.66031760579E+03  0.50400000000E-02 0.  1.
          1   -1    0    0  501    0  0.00000000000E+00 -0.00000000000E+00 -0.23473911881E+04  0.23473911882E+04  0.50400000000E-02 0. -1.
    8880022    1    1    2    0    0  0.86450537395E+03  0.85355647072E+03 -0.57154409709E+03  0.13512891986E+04  0.15294330000E+03 0.  0.
    8880022    1    1    2    0    0 -0.86450537395E+03 -0.85355647072E+03 -0.11155294853E+04  0.16564195953E+04  0.15294330000E+03 0.  0.
<mgrwt>
<rscale>  0 0.12244672E+04</rscale>
<asrwt>0</asrwt>
<pdfrwt beam="1">  1        1 0.36113710E+00 0.12244672E+04</pdfrwt>
<pdfrwt beam="2">  1       -1 0.10158733E+00 0.12244672E+04</pdfrwt>
<totfact> 0.15645270E+00</totfact>
</mgrwt>
</event>
<event>
 4    1  0.2731969E-009  0.1031885E+04  0.7818608E-02  0.9274249E-01
          1   -1    0    0  501    0  0.00000000000E+00  0.00000000000E+00  0.22469441641E+04  0.22469441641E+04  0.50400000000E-02 0. -1.
         -1   -1    0    0    0  501 -0.00000000000E+00 -0.00000000000E+00 -0.13729877584E+04  0.13729877584E+04  0.50400000000E-02 0.  1.
    8880022    1    1    2    0    0  0.41952135662E+03  0.93026668415E+03  0.19016574054E+04  0.21635819404E+04  0.15294330000E+03 0.  0.
    8880022    1    1    2    0    0 -0.41952135662E+03 -0.93026668415E+03 -0.10277009997E+04  0.14563499820E+04  0.15294330000E+03 0.  0.
<mgrwt>
<rscale>  0 0.10318846E+04</rscale>
<asrwt>0</asrwt>
<pdfrwt beam="1">  1        1 0.34568372E+00 0.10318846E+04</pdfrwt>
<pdfrwt beam="2">  1       -1 0.21122889E+00 0.10318846E+04</pdfrwt>
<totfact> 0.25799321E-01</totfact>
</mgrwt>
</event>
<event>
 4    1  0.2731969E-009  0.8346602E+03  0.7818608E-02  0.9511160E-01
         -1   -1    0    0    0  501 -0.00000000000E+00  0.00000000000E+00  0.18261153349E+04  0.18261153349E+04  0.50400000000E-02 0.  1.
          1   -1    0    0  501    0  0.00000000000E+00 -0.00000000000E+00 -0.10024323946E+04  0.10024323946E+04  0.50400000000E-02 0. -1.
    8880022    1    1    2    0    0 -0.63908706967E+03  0.51462004297E+03 -0.70124560216E+03  0.10901390365E+04  0.15294330000E+03 0.  0.
    8880022    1    1    2    0    0  0.63908706967E+03 -0.51462004297E+03  0.15249285425E+04  0.17384086930E+04  0.15294330000E+03 0.  1.
<mgrwt>
<rscale>  0 0.83466024E+03</rscale>
<asrwt>0</asrwt>
<pdfrwt beam="1">  1        1 0.15422037E+00 0.83466024E+03</pdfrwt>
<pdfrwt beam="2">  1       -1 0.28094082E+00 0.83466024E+03</pdfrwt>
<totfact> 0.68785278E-01</totfact>
</mgrwt>
</event>
<event>
 4    1  0.2731969E-009  0.1100163E+04  0.7818608E-02  0.9205033E-01
          1   -1    0    0  501    0  0.00000000000E+00  0.00000000000E+00  0.36582329758E+04  0.36582329758E+04  0.50400000000E-02 0. -1.
         -1   -1    0    0    0  501 -0.00000000000E+00 -0.00000000000E+00 -0.40711304550E+03  0.40711304553E+03  0.50400000000E-02 0.  1.
    8880022    1    1    2    0    0  0.10665949656E+04  0.22213196338E+03  0.74584571256E+03  0.13291519513E+04  0.15294330000E+03 0.  0.
    8880022    1    1    2    0    0 -0.10665949656E+04 -0.22213196338E+03  0.25052742177E+04  0.27361940700E+04  0.15294330000E+03 0.  0.
<mgrwt>
<rscale>  0 0.11001632E+04</rscale>
<asrwt>0</asrwt>
<pdfrwt beam="1">  1        1 0.56280508E+00 0.11001632E+04</pdfrwt>
<pdfrwt beam="2">  1       -1 0.62632775E-01 0.11001632E+04</pdfrwt>
<totfact> 0.49535485E-01</totfact>
</mgrwt>
</event>
<event>
 4    1  0.2731969E-009  0.1120329E+04  0.7818608E-02  0.9185601E-01
         -1   -1    0    0    0  501 -0.00000000000E+00  0.00000000000E+00  0.26112474432E+04  0.26112474432E+04  0.50400000000E-02 0.  1.
          1   -1    0    0  501    0  0.00000000000E+00 -0.00000000000E+00 -0.20281255843E+04  0.20281255843E+04  0.50400000000E-02 0. -1.
    8880022    1    1    2    0    0  0.10807864389E+04 -0.25228391365E+03 -0.17346820254E+04  0.20650084460E+04  0.15294330000E+03 0.  0.
    8880022    1    1    2    0    0 -0.10807864389E+04  0.25228391365E+03  0.23178038843E+04  0.25743645816E+04  0.15294330000E+03 0.  0.
<mgrwt>
<rscale>  0 0.11203295E+04</rscale>
<asrwt>0</asrwt>
<pdfrwt beam="1">  1        1 0.31201932E+00 0.11203295E+04</pdfrwt>
<pdfrwt beam="2">  1       -1 0.40173038E+00 0.11203295E+04</pdfrwt>
<totfact> 0.20019799E-02</totfact>
</mgrwt>
</event>
<event>
 4    1  0.2731969E-009  0.6757775E+03  0.7818608E-02  0.9759577E-01
         -1   -1    0    0    0  501 -0.00000000000E+00  0.00000000000E+00  0.41813846853E+03  0.41813846856E+03  0.50400000000E-02 0.  1.
          1   -1    0    0  501    0  0.00000000000E+00 -0.00000000000E+00 -0.14565027129E+04  0.14565027129E+04  0.50400000000E-02 0. -1.
    8880022    1    1    2    0    0 -0.54622234470E+03 -0.36732097632E+03 -0.98798038642E+03  0.11969880728E+04  0.15294330000E+03 0.  0.
    8880022    1    1    2    0    0  0.54622234470E+03  0.36732097632E+03 -0.50383857943E+02  0.67765310864E+03  0.15294330000E+03 0.  0.
<mgrwt>
<rscale>  0 0.67577748E+03</rscale>
<asrwt>0</asrwt>
<pdfrwt beam="1">  1        1 0.22407734E+00 0.67577748E+03</pdfrwt>
<pdfrwt beam="2">  1       -1 0.64328996E-01 0.67577748E+03</pdfrwt>
<totfact> 0.17972060E+01</totfact>
</mgrwt>
</event>
<event>
 4    1  0.2731969E-009  0.6579927E+03  0.7818608E-02  0.9791896E-01
         -1   -1    0    0    0  501 -0.00000000000E+00  0.00000000000E+00  0.15634619593E+04  0.15634619593E+04  0.50400000000E-02 0.  1.
          1   -1    0    0  501    0  0.00000000000E+00 -0.00000000000E+00 -0.54401079553E+03  0.54401079555E+03  0.50400000000E-02 0. -1.
    8880022    1    1    2    0    0 -0.63912815140E+03 -0.32831093067E+02  0.12480673636E+04  0.14108956275E+04  0.15294330000E+03 0.  0.
    8880022    1    1    2    0    0  0.63912815140E+03  0.32831093067E+02 -0.22861619980E+03  0.69657712739E+03  0.15294330000E+03 0.  0.
<mgrwt>
<rscale>  0 0.65799265E+03</rscale>
<asrwt>0</asrwt>
<pdfrwt beam="1">  1        1 0.83693968E-01 0.65799265E+03</pdfrwt>
<pdfrwt beam="2">  1       -1 0.24053261E+00 0.65799265E+03</pdfrwt>
<totfact> 0.33513976E+00</totfact>
</mgrwt>
</event>
<event>
 4    1  0.2731969E-009  0.8885307E+03  0.7818608E-02  0.9440033E-01
          1   -1    0    0  501    0  0.00000000000E+00  0.00000000000E+00  0.22933914480E+04  0.22933914480E+04  0.50400000000E-02 0. -1.
         -1   -1    0    0    0  501 -0.00000000000E+00 -0.00000000000E+00 -0.51622460914E+03  0.51622460916E+03  0.50400000000E-02 0.  1.
    8880022    1    1    2    0    0 -0.31901042451E+03  0.81506286544E+03  0.77739850448E+02  0.89192503212E+03  0.15294330000E+03 0.  0.
    8880022    1    1    2    0    0  0.31901042451E+03 -0.81506286544E+03  0.16994269884E+04  0.19176910251E+04  0.15294330000E+03 0.  0.
<mgrwt>
<rscale>  0 0.88853069E+03</rscale>
<asrwt>0</asrwt>
<pdfrwt beam="1">  1        1 0.35282945E+00 0.88853069E+03</pdfrwt>
<pdfrwt beam="2">  1       -1 0.79419171E-01 0.88853069E+03</pdfrwt>
<totfact> 0.30763434E+00</totfact>
</mgrwt>
</event>
<event>
 4    1  0.2731969E-009  0.5210281E+03  0.7818608E-02  0.1008431E+00
         -1   -1    0    0    0  501 -0.00000000000E+00  0.00000000000E+00  0.23493721906E+04  0.23493721906E+04  0.50400000000E-02 0.  1.
          1   -1    0    0  501    0  0.00000000000E+00 -0.00000000000E+00 -0.15486231072E+04  0.15486231072E+04  0.50400000000E-02 0. -1.
    8880022    1    1    2    0    0  0.26363174479E+03  0.42258368460E+03  0.22752507469E+04  0.23341457284E+04  0.15294330000E+03 0.  0.
    8880022    1    1    2    0    0 -0.26363174479E+03 -0.42258368460E+03 -0.14745016634E+04  0.15638495694E+04  0.15294330000E+03 0.  0.
<mgrwt>
<rscale>  0 0.52102814E+03</rscale>
<asrwt>0</asrwt>
<pdfrwt beam="1">  1        1 0.23824971E+00 0.52102814E+03</pdfrwt>
<pdfrwt beam="2">  1       -1 0.36144188E+00 0.52102814E+03</pdfrwt>
<totfact> 0.92630281E-02</totfact>
</mgrwt>
</event>
<event>
 4    1  0.2731969E-009  0.3103792E+03  0.7818608E-02  0.1080164E+00
          1   -1    0    0  501    0  0.00000000000E+00  0.00000000000E+00  0.55832534052E+03  0.55832534055E+03  0.50400000000E-02 0. -1.
         -1   -1    0    0    0  501 -0.00000000000E+00 -0.00000000000E+00 -0.54754122849E+03  0.54754122851E+03  0.50400000000E-02 0.  1.
    8880022    1    1    2    0    0  0.19197486657E+03 -0.18997171260E+03  0.46298445232E+03  0.55739560196E+03  0.15294330000E+03 0.  0.
    8880022    1    1    2    0    0 -0.19197486657E+03  0.18997171260E+03 -0.45220034028E+03  0.54847096710E+03  0.15294330000E+03 0.  1.
<mgrwt>
<rscale>  0 0.31037921E+03</rscale>
<asrwt>0</asrwt>
<pdfrwt beam="1">  1        1 0.85896206E-01 0.31037921E+03</pdfrwt>
<pdfrwt beam="2">  1       -1 0.84237112E-01 0.31037921E+03</pdfrwt>
<totfact> 0.57224552E+01</totfact>
</mgrwt>
</event>
<event>
 4    1  0.2731969E-009  0.8455219E+03  0.7818608E-02  0.9496367E-01
          1   -1    0    0  501    0  0.00000000000E+00  0.00000000000E+00  0.14281887795E+04  0.14281887795E+04  0.50400000000E-02 0. -1.
         -1   -1    0    0    0  501 -0.00000000000E+00 -0.00000000000E+00 -0.62271738712E+03  0.62271738714E+03  0.50400000000E-02 0.  1.
    8880022    1    1    2    0    0  0.80747804873E+03 -0.19873310939E+03  0.85690087067E+03  0.12038215828E+04  0.15294330000E+03 0.  0.
    8880022    1    1    2    0    0 -0.80747804873E+03  0.19873310939E+03 -0.51429478331E+02  0.84708458385E+03  0.15294330000E+03 0.  0.
<mgrwt>
<rscale>  0 0.84552191E+03</rscale>
<asrwt>0</asrwt>
<pdfrwt beam="1">  1        1 0.21972135E+00 0.84552191E+03</pdfrwt>
<pdfrwt beam="2">  1       -1 0.95802675E-01 0.84552191E+03</pdfrwt>
<totfact> 0.79008401E+00</totfact>
</mgrwt>
</event>
<event>
 4    1  0.2731969E-009  0.4063326E+03  0.7818608E-02  0.1041609E+00
          1   -1    0    0  501    0  0.00000000000E+00  0.00000000000E+00  0.99631927992E+03  0.99631927993E+03  0.50400000000E-02 0. -1.
         -1   -1    0    0    0  501 -0.00000000000E+00 -0.00000000000E+00 -0.63018714913E+03  0.63018714915E+03  0.50400000000E-02 0.  1.
    8880022    1    1    2    0    0 -0.17206211754E+03 -0.33482708315E+03  0.88125074665E+03  0.97041696161E+03  0.15294330000E+03 0.  0.
    8880022    1    1    2    0    0  0.17206211754E+03  0.33482708315E+03 -0.51511861586E+03  0.65608946747E+03  0.15294330000E+03 0.  0.
<mgrwt>
<rscale>  0 0.40633262E+03</rscale>
<asrwt>0</asrwt>
<pdfrwt beam="1">  1        1 0.15327989E+00 0.40633262E+03</pdfrwt>
<pdfrwt beam="2">  1       -1 0.96951870E-01 0.40633262E+03</pdfrwt>
<totfact> 0.17019307E+01</totfact>
</mgrwt>
</event>
<event>
 4    1  0.2731969E-009  0.4041716E+03  0.7818608E-02  0.1042345E+00
          1   -1    0    0  501    0  0.00000000000E+00  0.00000000000E+00  0.96648154386E+03  0.96648154387E+03  0.50400000000E-02 0. -1.
         -1   -1    0    0    0  501 -0.00000000000E+00 -0.00000000000E+00 -0.23630304249E+03  0.23630304254E+03  0.50400000000E-02 0.  1.
    8880022    1    1    2    0    0 -0.35518052624E+03  0.11751510748E+03  0.44184473501E+02  0.40657954624E+03  0.15294330000E+03 0.  0.
    8880022    1    1    2    0    0  0.35518052624E+03 -0.11751510748E+03  0.68599402787E+03  0.79620504017E+03  0.15294330000E+03 0.  0.
<mgrwt>
<rscale>  0 0.40417157E+03</rscale>
<asrwt>0</asrwt>
<pdfrwt beam="1">  1        1 0.14868947E+00 0.40417157E+03</pdfrwt>
<pdfrwt beam="2">  1       -1 0.36354314E-01 0.40417157E+03</pdfrwt>
<totfact> 0.12279574E+02</totfact>
</mgrwt>
</event>
<event>
 4    1  0.2731969E-009  0.2198087E+04  0.7818608E-02  0.8519225E-01
          1   -1    0    0  501    0  0.00000000000E+00  0.00000000000E+00  0.22246412280E+04  0.22246412280E+04  0.50400000000E-02 0. -1.
         -1   -1    0    0    0  501 -0.00000000000E+00 -0.00000000000E+00 -0.27880164839E+04  0.27880164839E+04  0.50400000000E-02 0.  1.
    8880022    1    1    2    0    0 -0.19155138434E+04 -0.10672397999E+04  0.89656829349E+03  0.23739040487E+04  0.15294330000E+03 0.  0.
    8880022    1    1    2    0    0  0.19155138434E+04  0.10672397999E+04 -0.14599435494E+04  0.26387536632E+04  0.15294330000E+03 0.  0.
<mgrwt>
<rscale>  0 0.21980868E+04</rscale>
<asrwt>0</asrwt>
<pdfrwt beam="1">  1        1 0.34225250E+00 0.21980868E+04</pdfrwt>
<pdfrwt beam="2">  1       -1 0.42892561E+00 0.21980868E+04</pdfrwt>
<totfact> 0.81988965E-03</totfact>
</mgrwt>
</event>
<event>
 4    1  0.2731969E-009  0.5602662E+03  0.7818608E-02  0.9991452E-01
          1   -1    0    0  501    0  0.00000000000E+00  0.00000000000E+00  0.96802810226E+03  0.96802810227E+03  0.50400000000E-02 0. -1.
         -1   -1    0    0    0  501 -0.00000000000E+00 -0.00000000000E+00 -0.61464560064E+03  0.61464560066E+03  0.50400000000E-02 0.  1.
    8880022    1    1    2    0    0  0.48257459717E+03  0.24005909296E+03  0.72060785230E+03  0.91278362154E+03  0.15294330000E+03 0.  0.
    8880022    1    1    2    0    0 -0.48257459717E+03 -0.24005909296E+03 -0.36722535069E+03  0.66989008139E+03  0.15294330000E+03 0.  0.
<mgrwt>
<rscale>  0 0.56026624E+03</rscale>
<asrwt>0</asrwt>
<pdfrwt beam="1">  1        1 0.14892740E+00 0.56026624E+03</pdfrwt>
<pdfrwt beam="2">  1       -1 0.94560861E-01 0.56026624E+03</pdfrwt>
<totfact> 0.18348994E+01</totfact>
</mgrwt>
</event>
<event>
 4    1  0.2731969E-009  0.9156362E+03  0.7818608E-02  0.9406244E-01
         -1   -1    0    0    0  501 -0.00000000000E+00  0.00000000000E+00  0.11981570751E+04  0.11981570751E+04  0.50400000000E-02 0.  1.
          1   -1    0    0  501    0  0.00000000000E+00 -0.00000000000E+00 -0.13225147845E+04  0.13225147845E+04  0.50400000000E-02 0. -1.
    8880022    1    1    2    0    0 -0.79982531285E+03  0.41866146772E+03  0.80269770570E+03  0.12176671201E+04  0.15294330000E+03 0.  0.
    8880022    1    1    2    0    0  0.79982531285E+03 -0.41866146772E+03 -0.92705541509E+03  0.13030047395E+04  0.15294330000E+03 0.  0.
<mgrwt>
<rscale>  0 0.91563618E+03</rscale>
<asrwt>0</asrwt>
<pdfrwt beam="1">  1        1 0.20346381E+00 0.91563618E+03</pdfrwt>
<pdfrwt beam="2">  1       -1 0.18433186E+00 0.91563618E+03</pdfrwt>
<totfact> 0.17188053E+00</totfact>
</mgrwt>
</event>
<event>
 4    1  0.2731969E-009  0.1172390E+04  0.7818608E-02  0.9137373E-01
         -1   -1    0    0    0  501 -0.00000000000E+00  0.00000000000E+00  0.13362944023E+04  0.13362944023E+04  0.50400000000E-02 0.  1.
          1   -1    0    0  501    0  0.00000000000E+00 -0.00000000000E+00 -0.11560025210E+04  0.11560025210E+04  0.50400000000E-02 0. -1.
    8880022    1    1    2    0    0 -0.11571219466E+04  0.11033776987E+03  0.50385851799E+03  0.12760762837E+04  0.15294330000E+03 0.  0.
    8880022    1    1    2    0    0  0.11571219466E+04 -0.11033776987E+03 -0.32356663672E+03  0.12162206396E+04  0.15294330000E+03 0.  0.
<mgrwt>
<rscale>  0 0.11723896E+04</rscale>
<asrwt>0</asrwt>
<pdfrwt beam="1">  1        1 0.17784654E+00 0.11723896E+04</pdfrwt>
<pdfrwt beam="2">  1       -1 0.20558375E+00 0.11723896E+04</pdfrwt>
<totfact> 0.15601244E+00</totfact>
</mgrwt>
</event>
<event>
 4    1  0.2731969E-009  0.9696920E+03  0.7818608E-02  0.9342425E-01
         -1   -1    0    0    0  501 -0.00000000000E+00  0.00000000000E+00  0.12363006672E+04  0.12363006672E+04  0.50400000000E-02 0.  1.
          1   -1    0    0  501    0  0.00000000000E+00 -0.00000000000E+00 -0.12268804197E+04  0.12268804197E+04  0.50400000000E-02 0. -1.
    8880022    1    1    2    0    0  0.95211594612E+03 -0.10191271820E+03 -0.75456511188E+03  0.12286867534E+04  0.15294330000E+03 0.  0.
    8880022    1    1    2    0    0 -0.95211594612E+03  0.10191271820E+03  0.76398535937E+03  0.12344943335E+04  0.15294330000E+03 0.  0.
<mgrwt>
<rscale>  0 0.96969203E+03</rscale>
<asrwt>0</asrwt>
<pdfrwt beam="1">  1        1 0.18875083E+00 0.96969203E+03</pdfrwt>
<pdfrwt beam="2">  1       -1 0.19020010E+00 0.96969203E+03</pdfrwt>
<totfact> 0.18151252E+00</totfact>
</mgrwt>
</event>
<event>
 4    1  0.2731969E-009  0.3969259E+03  0.7818608E-02  0.1044849E+00
         -1   -1    0    0    0  501 -0.00000000000E+00  0.00000000000E+00  0.49267663223E+03  0.49267663225E+03  0.50400000000E-02 0.  1.
          1   -1    0    0  501    0  0.00000000000E+00 -0.00000000000E+00 -0.57960734652E+03  0.57960734654E+03  0.50400000000E-02 0. -1.
    8880022    1    1    2    0    0 -0.34253786845E+03 -0.12971619178E+03  0.31549948510E+03  0.50704049133E+03  0.15294330000E+03 0.  1.
    8880022    1    1    2    0    0  0.34253786845E+03  0.12971619178E+03 -0.40243019938E+03  0.56524348747E+03  0.15294330000E+03 0.  0.
<mgrwt>
<rscale>  0 0.39692586E+03</rscale>
<asrwt>0</asrwt>
<pdfrwt beam="1">  1        1 0.89170361E-01 0.39692586E+03</pdfrwt>
<pdfrwt beam="2">  1       -1 0.75796405E-01 0.39692586E+03</pdfrwt>
<totfact> 0.66738578E+01</totfact>
</mgrwt>
</event>
<event>
 4    1  0.2731969E-009  0.1221672E+04  0.7818608E-02  0.9094096E-01
          1   -1    0    0  501    0  0.00000000000E+00  0.00000000000E+00  0.24999534415E+04  0.24999534415E+04  0.50400000000E-02 0. -1.
         -1   -1    0    0    0  501 -0.00000000000E+00 -0.00000000000E+00 -0.12328525323E+04  0.12328525323E+04  0.50400000000E-02 0.  1.
    8880022    1    1    2    0    0  0.57545776891E+03  0.10667418721E+04  0.19739268938E+04  0.23213937410E+04  0.15294330000E+03 0.  0.
    8880022    1    1    2    0    0 -0.57545776891E+03 -0.10667418721E+04 -0.70682598463E+03  0.14114122328E+04  0.15294330000E+03 0.  0.
<mgrwt>
<rscale>  0 0.12216716E+04</rscale>
<asrwt>0</asrwt>
<pdfrwt beam="1">  1        1 0.38460822E+00 0.12216716E+04</pdfrwt>
<pdfrwt beam="2">  1       -1 0.18966962E+00 0.12216716E+04</pdfrwt>
<totfact> 0.23645916E-01</totfact>
</mgrwt>
</event>
<event>
 4    1  0.2731969E-009  0.6490472E+03  0.7818608E-02  0.9808569E-01
          1   -1    0    0  501    0  0.00000000000E+00  0.00000000000E+00  0.21316122623E+03  0.21316122629E+03  0.50400000000E-02 0. -1.
         -1   -1    0    0    0  501 -0.00000000000E+00 -0.00000000000E+00 -0.20474895761E+04  0.20474895761E+04  0.50400000000E-02 0.  1.
    8880022    1    1    2    0    0  0.54427960462E+03 -0.31879516914E+03 -0.70634088514E+03  0.95925999964E+03  0.15294330000E+03 0.  0.
    8880022    1    1    2    0    0 -0.54427960462E+03  0.31879516914E+03 -0.11279874647E+04  0.13013908027E+04  0.15294330000E+03 0.  0.
<mgrwt>
<rscale>  0 0.64904723E+03</rscale>
<asrwt>0</asrwt>
<pdfrwt beam="1">  1        1 0.32794036E-01 0.64904723E+03</pdfrwt>
<pdfrwt beam="2">  1       -1 0.31499838E+00 0.64904723E+03</pdfrwt>
<totfact> 0.38481870E+00</totfact>
</mgrwt>
</event>
<event>
 4    1  0.2731969E-009  0.1157375E+04  0.7818608E-02  0.9151007E-01
          1   -1    0    0  501    0  0.00000000000E+00  0.00000000000E+00  0.62520951102E+03  0.62520951104E+03  0.50400000000E-02 0. -1.
         -1   -1    0    0    0  501 -0.00000000000E+00 -0.00000000000E+00 -0.24198760959E+04  0.24198760959E+04  0.50400000000E-02 0.  1.
    8880022    1    1    2    0    0  0.10406044740E+04 -0.48297749808E+03 -0.38186620954E+03  0.12187445959E+04  0.15294330000E+03 0.  0.
    8880022    1    1    2    0    0 -0.10406044740E+04  0.48297749808E+03 -0.14128003754E+04  0.18263410111E+04  0.15294330000E+03 0.  0.
<mgrwt>
<rscale>  0 0.11573749E+04</rscale>
<asrwt>0</asrwt>
<pdfrwt beam="1">  1        1 0.96186080E-01 0.11573749E+04</pdfrwt>
<pdfrwt beam="2">  1       -1 0.37228863E+00 0.11573749E+04</pdfrwt>
<totfact> 0.35572816E-01</totfact>
</mgrwt>
</event>
<event>
 4    1  0.2731969E-009  0.1344946E+04  0.7818608E-02  0.8994663E-01
          1   -1    0    0  501    0  0.00000000000E+00  0.00000000000E+00  0.10092380484E+04  0.10092380484E+04  0.50400000000E-02 0. -1.
         -1   -1    0    0    0  501 -0.00000000000E+00 -0.00000000000E+00 -0.23061035788E+04  0.23061035788E+04  0.50400000000E-02 0.  1.
    8880022    1    1    2    0    0  0.61207837995E+03 -0.11877913577E+04 -0.14308672889E+04  0.19637365159E+04  0.15294330000E+03 0.  0.
    8880022    1    1    2    0    0 -0.61207837995E+03  0.11877913577E+04  0.13400175857E+03  0.13516051113E+04  0.15294330000E+03 0.  0.
<mgrwt>
<rscale>  0 0.13449461E+04</rscale>
<asrwt>0</asrwt>
<pdfrwt beam="1">  1        1 0.15526739E+00 0.13449461E+04</pdfrwt>
<pdfrwt beam="2">  1       -1 0.35478516E+00 0.13449461E+04</pdfrwt>
<totfact> 0.20851903E-01</totfact>
</mgrwt>
</event>
<event>
 4    1  0.2731969E-009  0.7427503E+03  0.7818608E-02  0.9646793E-01
         -1   -1    0    0    0  501 -0.00000000000E+00  0.00000000000E+00  0.53631114783E+03  0.53631114785E+03  0.50400000000E-02 0.  1.
          1   -1    0    0  501    0  0.00000000000E+00 -0.00000000000E+00 -0.20823044316E+04  0.20823044316E+04  0.50400000000E-02 0. -1.
    8880022    1    1    2    0    0 -0.24326588602E+02  0.72642590497E+03  0.15836454655E+03  0.75944542986E+03  0.15294330000E+03 0.  0.
    8880022    1    1    2    0    0  0.24326588602E+02 -0.72642590497E+03 -0.17043578303E+04  0.18591701496E+04  0.15294330000E+03 0.  0.
<mgrwt>
<rscale>  0 0.74275032E+03</rscale>
<asrwt>0</asrwt>
<pdfrwt beam="1">  1        1 0.32035452E+00 0.74275032E+03</pdfrwt>
<pdfrwt beam="2">  1       -1 0.82509408E-01 0.74275032E+03</pdfrwt>
<totfact> 0.40312023E+00</totfact>
</mgrwt>
</event>
<event>
 4    1  0.2731969E-009  0.8193500E+03  0.7818608E-02  0.9532424E-01
         -1   -1    0    0    0  501 -0.00000000000E+00  0.00000000000E+00  0.94404120899E+03  0.94404120901E+03  0.50400000000E-02 0.  1.
          1   -1    0    0  501    0  0.00000000000E+00 -0.00000000000E+00 -0.10267749889E+04  0.10267749890E+04  0.50400000000E-02 0. -1.
    8880022    1    1    2    0    0 -0.66490166221E+03  0.45370534535E+03 -0.58772715921E+03  0.10083440026E+04  0.15294330000E+03 0.  0.
    8880022    1    1    2    0    0  0.66490166221E+03 -0.45370534535E+03  0.50499337926E+03  0.96247219540E+03  0.15294330000E+03 0.  0.
<mgrwt>
<rscale>  0 0.81934999E+03</rscale>
<asrwt>0</asrwt>
<pdfrwt beam="1">  1        1 0.15796538E+00 0.81934999E+03</pdfrwt>
<pdfrwt beam="2">  1       -1 0.14523711E+00 0.81934999E+03</pdfrwt>
<totfact> 0.56266194E+00</totfact>
</mgrwt>
</event>
<event>
 4    1  0.2731969E-009  0.5737580E+03  0.7818608E-02  0.9961397E-01
          1   -1    0    0  501    0  0.00000000000E+00  0.00000000000E+00  0.23012288998E+04  0.23012288998E+04  0.50400000000E-02 0. -1.
         -1   -1    0    0    0  501 -0.00000000000E+00 -0.00000000000E+00 -0.17014252939E+03  0.17014252946E+03  0.50400000000E-02 0.  1.
    8880022    1    1    2    0    0 -0.50285893627E+03  0.23008593186E+03  0.57248267547E+03  0.81051509089E+03  0.15294330000E+03 0.  0.
    8880022    1    1    2    0    0  0.50285893627E+03 -0.23008593186E+03  0.15586036950E+04  0.16608563384E+04  0.15294330000E+03 0.  0.
<mgrwt>
<rscale>  0 0.57375805E+03</rscale>
<asrwt>0</asrwt>
<pdfrwt beam="1">  1        1 0.35403521E+00 0.57375805E+03</pdfrwt>
<pdfrwt beam="2">  1       -1 0.26175774E-01 0.57375805E+03</pdfrwt>
<totfact> 0.25780107E+01</totfact>
</mgrwt>
</event>
<event>
 4    1  0.2731969E-009  0.5381507E+03  0.7818608E-02  0.1004274E+00
          1   -1    0    0  501    0  0.00000000000E+00  0.00000000000E+00  0.29579326654E+04  0.29579326654E+04  0.50400000000E-02 0. -1.
         -1   -1    0    0    0  501 -0.00000000000E+00 -0.00000000000E+00 -0.38589419566E+03  0.38589419569E+03  0.50400000000E-02 0.  1.
    8880022    1    1    2    0    0  0.41899293434E+03 -0.30109705282E+03  0.27303453716E+04  0.27828747754E+04  0.15294330000E+03 0.  0.
    8880022    1    1    2    0    0 -0.41899293434E+03  0.30109705282E+03 -0.15830690189E+03  0.56095208569E+03  0.15294330000E+03 0.  0.
<mgrwt>
<rscale>  0 0.53815069E+03</rscale>
<asrwt>0</asrwt>
<pdfrwt beam="1">  1        1 0.45506655E+00 0.53815069E+03</pdfrwt>
<pdfrwt beam="2">  1       -1 0.59368340E-01 0.53815069E+03</pdfrwt>
<totfact> 0.20876428E+00</totfact>
</mgrwt>
</event>
<event>
 4    1  0.2731969E-009  0.5961145E+03  0.7818608E-02  0.9913500E-01
          1   -1    0    0  501    0  0.00000000000E+00  0.00000000000E+00  0.15315468990E+04  0.15315468990E+04  0.50400000000E-02 0. -1.
         -1   -1    0    0    0  501 -0.00000000000E+00 -0.00000000000E+00 -0.53531601009E+03  0.53531601011E+03  0.50400000000E-02 0.  1.
    8880022    1    1    2    0    0  0.57878177263E+02 -0.57324598804E+03  0.12759881120E+04  0.14083671968E+04  0.15294330000E+03 0.  0.
    8880022    1    1    2    0    0 -0.57878177263E+02  0.57324598804E+03 -0.27975722307E+03  0.65849571227E+03  0.15294330000E+03 0.  0.
<mgrwt>
<rscale>  0 0.59611450E+03</rscale>
<asrwt>0</asrwt>
<pdfrwt beam="1">  1        1 0.23562260E+00 0.59611450E+03</pdfrwt>
<pdfrwt beam="2">  1       -1 0.82356311E-01 0.59611450E+03</pdfrwt>
<totfact> 0.97268552E+00</totfact>
</mgrwt>
</event>
<event>
 4    1  0.2731969E-009  0.5912140E+03  0.7818608E-02  0.9923804E-01
          1   -1    0    0  501    0  0.00000000000E+00  0.00000000000E+00  0.13947207240E+04  0.13947207240E+04  0.50400000000E-02 0. -1.
         -1   -1    0    0    0  501 -0.00000000000E+00 -0.00000000000E+00 -0.85300340231E+03  0.85300340233E+03  0.50400000000E-02 0.  1.
    8880022    1    1    2    0    0 -0.55263829536E+03  0.14399040979E+03  0.12153042738E+04  0.13514800977E+04  0.15294330000E+03 0.  0.
    8880022    1    1    2    0    0  0.55263829536E+03 -0.14399040979E+03 -0.67358695216E+03  0.89624402857E+03  0.15294330000E+03 0.  0.
<mgrwt>
<rscale>  0 0.59121399E+03</rscale>
<asrwt>0</asrwt>
<pdfrwt beam="1">  1        1 0.21457242E+00 0.59121399E+03</pdfrwt>
<pdfrwt beam="2">  1       -1 0.13123129E+00 0.59121399E+03</pdfrwt>
<totfact> 0.41209664E+00</totfact>
</mgrwt>
</event>
<event>
 4    1  0.2731969E-009  0.2406753E+03  0.7818608E-02  0.1119344E+00
          1   -1    0    0  501    0  0.00000000000E+00  0.00000000000E+00  0.70092817661E+02  0.70092817843E+02  0.50400000000E-02 0. -1.
         -1   -1    0    0    0  501 -0.00000000000E+00 -0.00000000000E+00 -0.86515370327E+03  0.86515370329E+03  0.50400000000E-02 0.  1.
    8880022    1    1    2    0    0  0.71786937768E+02  0.17140468711E+03 -0.29855767884E+03  0.38348568658E+03  0.15294330000E+03 0.  0.
    8880022    1    1    2    0    0 -0.71786937768E+02 -0.17140468711E+03 -0.49650320677E+03  0.55176083456E+03  0.15294330000E+03 0.  1.
<mgrwt>
<rscale>  0 0.24067527E+03</rscale>
<asrwt>0</asrwt>
<pdfrwt beam="1">  1        1 0.10783511E-01 0.24067527E+03</pdfrwt>
<pdfrwt beam="2">  1       -1 0.13310056E+00 0.24067527E+03</pdfrwt>
<totfact> 0.29836203E+02</totfact>
</mgrwt>
</event>
<event>
 4    1  0.2731969E-009  0.1598765E+04  0.7818608E-02  0.8821307E-01
         -1   -1    0    0    0  501 -0.00000000000E+00  0.00000000000E+00  0.13554154858E+04  0.13554154858E+04  0.50400000000E-02 0.  1.
          1   -1    0    0  501    0  0.00000000000E+00 -0.00000000000E+00 -0.32200182647E+04  0.32200182647E+04  0.50400000000E-02 0. -1.
    8880022    1    1    2    0    0  0.15260598053E+04  0.45144053074E+03 -0.24049048037E+04  0.28878393047E+04  0.15294330000E+03 0.  0.
    8880022    1    1    2    0    0 -0.15260598053E+04 -0.45144053074E+03  0.54030202480E+03  0.16875944457E+04  0.15294330000E+03 0.  0.
<mgrwt>
<rscale>  0 0.15987648E+04</rscale>
<asrwt>0</asrwt>
<pdfrwt beam="1">  1        1 0.49538742E+00 0.15987648E+04</pdfrwt>
<pdfrwt beam="2">  1       -1 0.20852546E+00 0.15987648E+04</pdfrwt>
<totfact> 0.50563392E-02</totfact>
</mgrwt>
</event>
<event>
 4    1  0.2731969E-009  0.4070162E+03  0.7818608E-02  0.1041377E+00
         -1   -1    0    0    0  501 -0.00000000000E+00  0.00000000000E+00  0.46660562430E+03  0.46660562432E+03  0.50400000000E-02 0.  1.
          1   -1    0    0  501    0  0.00000000000E+00 -0.00000000000E+00 -0.15718367351E+04  0.15718367351E+04  0.50400000000E-02 0. -1.
    8880022    1    1    2    0    0  0.17951946561E+03 -0.33172778638E+03 -0.14493715597E+04  0.15054368581E+04  0.15294330000E+03 0.  0.
    8880022    1    1    2    0    0 -0.17951946561E+03  0.33172778638E+03  0.34414044891E+03  0.53300550127E+03  0.15294330000E+03 0.  0.
<mgrwt>
<rscale>  0 0.40701624E+03</rscale>
<asrwt>0</asrwt>
<pdfrwt beam="1">  1        1 0.24182103E+00 0.40701624E+03</pdfrwt>
<pdfrwt beam="2">  1       -1 0.71785481E-01 0.40701624E+03</pdfrwt>
<totfact> 0.12706391E+01</totfact>
</mgrwt>
</event>
<event>
 4    1  0.2731969E-009  0.5504048E+03  0.7818608E-02  0.1001400E+00
         -1   -1    0    0    0  501 -0.00000000000E+00  0.00000000000E+00  0.55508276676E+03  0.55508276679E+03  0.50400000000E-02 0.  1.
          1   -1    0    0  501    0  0.00000000000E+00 -0.00000000000E+00 -0.93144624618E+03  0.93144624619E+03  0.50400000000E-02 0. -1.
    8880022    1    1    2    0    0 -0.47616715040E+03 -0.22982298258E+03 -0.66645718191E+03  0.86435559047E+03  0.15294330000E+03 0.  0.
    8880022    1    1    2    0    0  0.47616715040E+03  0.22982298258E+03  0.29009370249E+03  0.62217342251E+03  0.15294330000E+03 0.  0.
<mgrwt>
<rscale>  0 0.55040477E+03</rscale>
<asrwt>0</asrwt>
<pdfrwt beam="1">  1        1 0.14329942E+00 0.55040477E+03</pdfrwt>
<pdfrwt beam="2">  1       -1 0.85397348E-01 0.55040477E+03</pdfrwt>
<totfact> 0.24539428E+01</totfact>
</mgrwt>
</event>
<event>
 4    1  0.2731969E-009  0.2596311E+03  0.7818608E-02  0.1107365E+00
          1   -1    0    0  501    0  0.00000000000E+00  0.00000000000E+00  0.81646550415E+03  0.81646550416E+03  0.50400000000E-02 0. -1.
         -1   -1    0    0    0  501 -0.00000000000E+00 -0.00000000000E+00 -0.11825336328E+03  0.11825336339E+03  0.50400000000E-02 0.  1.
    8880022    1    1    2    0    0  0.10988397795E+03 -0.17872367411E+03  0.60586838579E+03  0.65915460569E+03  0.15294330000E+03 0. -1.
    8880022    1    1    2    0    0 -0.10988397795E+03  0.17872367411E+03  0.92343755079E+02  0.27556426186E+03  0.15294330000E+03 0.  0.
<mgrwt>
<rscale>  0 0.25963107E+03</rscale>
<asrwt>0</asrwt>
<pdfrwt beam="1">  1        1 0.12561008E+00 0.25963107E+03</pdfrwt>
<pdfrwt beam="2">  1       -1 0.18192825E-01 0.25963107E+03</pdfrwt>
<totfact> 0.52847339E+02</totfact>
</mgrwt>
</event>
<event>
 4    1  0.2731969E-009  0.6656800E+03  0.7818608E-02  0.9777794E-01
          1   -1    0    0  501    0  0.00000000000E+00  0.00000000000E+00  0.93679313951E+03  0.93679313952E+03  0.50400000000E-02 0. -1.
         -1   -1    0    0    0  501 -0.00000000000E+00 -0.00000000000E+00 -0.70014783261E+03  0.70014783263E+03  0.50400000000E-02 0.  1.
    8880022    1    1    2    0    0  0.64521436937E+03 -0.58623082408E+02  0.58448281127E+03  0.88586119563E+03  0.15294330000E+03 0.  0.
    8880022    1    1    2    0    0 -0.64521436937E+03  0.58623082408E+02 -0.34783750437E+03  0.75107977652E+03  0.15294330000E+03 0.  0.
<mgrwt>
<rscale>  0 0.66568003E+03</rscale>
<asrwt>0</asrwt>
<pdfrwt beam="1">  1        1 0.14412202E+00 0.66568003E+03</pdfrwt>
<pdfrwt beam="2">  1       -1 0.10771505E+00 0.66568003E+03</pdfrwt>
<totfact> 0.14196260E+01</totfact>
</mgrwt>
</event>
<event>
 4    1  0.2731969E-009  0.1529657E+04  0.7818608E-02  0.8864967E-01
          1   -1    0    0  501    0  0.00000000000E+00  0.00000000000E+00  0.19311839687E+04  0.19311839687E+04  0.50400000000E-02 0. -1.
         -1   -1    0    0    0  501 -0.00000000000E+00 -0.00000000000E+00 -0.12694398718E+04  0.12694398718E+04  0.50400000000E-02 0.  1.
    8880022    1    1    2    0    0 -0.84833462447E+03  0.12636404969E+04 -0.10680559007E+02  0.15296943054E+04  0.15294330000E+03 0.  0.
    8880022    1    1    2    0    0  0.84833462447E+03 -0.12636404969E+04  0.67242465588E+03  0.16709295352E+04  0.15294330000E+03 0.  0.
<mgrwt>
<rscale>  0 0.15296570E+04</rscale>
<asrwt>0</asrwt>
<pdfrwt beam="1">  1        1 0.29710522E+00 0.15296570E+04</pdfrwt>
<pdfrwt beam="2">  1       -1 0.19529844E+00 0.15296570E+04</pdfrwt>
<totfact> 0.50761364E-01</totfact>
</mgrwt>
</event>
<event>
 4    1  0.2731969E-009  0.1051354E+04  0.7818608E-02  0.9253947E-01
          1   -1    0    0  501    0  0.00000000000E+00  0.00000000000E+00  0.35203702002E+04  0.35203702002E+04  0.50400000000E-02 0. -1.
         -1   -1    0    0    0  501 -0.00000000000E+00 -0.00000000000E+00 -0.11261099760E+04  0.11261099760E+04  0.50400000000E-02 0.  1.
    8880022    1    1    2    0    0  0.72526624802E+03 -0.74561569413E+03  0.31700750427E+04  0.33398684590E+04  0.15294330000E+03 0.  0.
    8880022    1    1    2    0    0 -0.72526624802E+03  0.74561569413E+03 -0.77581481849E+03  0.13066117172E+04  0.15294330000E+03 0.  0.
<mgrwt>
<rscale>  0 0.10513541E+04</rscale>
<asrwt>0</asrwt>
<pdfrwt beam="1">  1        1 0.54159541E+00 0.10513541E+04</pdfrwt>
<pdfrwt beam="2">  1       -1 0.17324769E+00 0.10513541E+04</pdfrwt>
<totfact> 0.57732284E-02</totfact>
</mgrwt>
</event>
<event>
 4    1  0.2731969E-009  0.6071149E+03  0.7818608E-02  0.9890754E-01
          1   -1    0    0  501    0  0.00000000000E+00  0.00000000000E+00  0.20458296567E+04  0.20458296567E+04  0.50400000000E-02 0. -1.
         -1   -1    0    0    0  501 -0.00000000000E+00 -0.00000000000E+00 -0.39970255246E+03  0.39970255249E+03  0.50400000000E-02 0.  1.
    8880022    1    1    2    0    0  0.41613360322E+03 -0.41476463264E+03 -0.83145825575E+02  0.61278198207E+03  0.15294330000E+03 0.  0.
    8880022    1    1    2    0    0 -0.41613360322E+03  0.41476463264E+03  0.17292729298E+04  0.18327502271E+04  0.15294330000E+03 0.  0.
<mgrwt>
<rscale>  0 0.60711492E+03</rscale>
<asrwt>0</asrwt>
<pdfrwt beam="1">  1        1 0.31474302E+00 0.60711492E+03</pdfrwt>
<pdfrwt beam="2">  1       -1 0.61492701E-01 0.60711492E+03</pdfrwt>
<totfact> 0.80055153E+00</totfact>
</mgrwt>
</event>
<event>
 4    1  0.2731969E-009  0.1180284E+04  0.7818608E-02  0.9130291E-01
          1   -1    0    0  501    0  0.00000000000E+00  0.00000000000E+00  0.32089634140E+04  0.32089634140E+04  0.50400000000E-02 0. -1.
         -1   -1    0    0    0  501 -0.00000000000E+00 -0.00000000000E+00 -0.89478639668E+03  0.89478639669E+03  0.50400000000E-02 0.  1.
    8880022    1    1    2    0    0 -0.11549633605E+04  0.18904345382E+03 -0.31517417848E+03  0.12216399663E+04  0.15294330000E+03 0.  0.
    8880022    1    1    2    0    0  0.11549633605E+04 -0.18904345382E+03  0.26293511958E+04  0.28821098444E+04  0.15294330000E+03 0.  0.
<mgrwt>
<rscale>  0 0.11802836E+04</rscale>
<asrwt>0</asrwt>
<pdfrwt beam="1">  1        1 0.49368669E+00 0.11802836E+04</pdfrwt>
<pdfrwt beam="2">  1       -1 0.13765944E+00 0.11802836E+04</pdfrwt>
<totfact> 0.18327444E-01</totfact>
</mgrwt>
</event>
<event>
 4    1  0.2731969E-009  0.7094468E+03  0.7818608E-02  0.9701212E-01
          1   -1    0    0  501    0  0.00000000000E+00  0.00000000000E+00  0.98801715281E+03  0.98801715283E+03  0.50400000000E-02 0. -1.
         -1   -1    0    0    0  501 -0.00000000000E+00 -0.00000000000E+00 -0.84782259927E+03  0.84782259928E+03  0.50400000000E-02 0.  1.
    8880022    1    1    2    0    0  0.37906125568E+03  0.57985833583E+03  0.65001946032E+03  0.96220583921E+03  0.15294330000E+03 0.  0.
    8880022    1    1    2    0    0 -0.37906125568E+03 -0.57985833583E+03 -0.50982490678E+03  0.87363391290E+03  0.15294330000E+03 0.  0.
<mgrwt>
<rscale>  0 0.70944681E+03</rscale>
<asrwt>0</asrwt>
<pdfrwt beam="1">  1        1 0.15200264E+00 0.70944681E+03</pdfrwt>
<pdfrwt beam="2">  1       -1 0.13043425E+00 0.70944681E+03</pdfrwt>
<totfact> 0.80854400E+00</totfact>
</mgrwt>
</event>
<event>
 4    1  0.2731969E-009  0.1606977E+04  0.7818608E-02  0.8816273E-01
         -1   -1    0    0    0  501 -0.00000000000E+00  0.00000000000E+00  0.18752539155E+04  0.18752539155E+04  0.50400000000E-02 0.  1.
          1   -1    0    0  501    0  0.00000000000E+00 -0.00000000000E+00 -0.14426124144E+04  0.14426124144E+04  0.50400000000E-02 0. -1.
    8880022    1    1    2    0    0  0.15715201067E+04 -0.29884525136E+03 -0.13725340556E+03  0.16128279761E+04  0.15294330000E+03 0.  0.
    8880022    1    1    2    0    0 -0.15715201067E+04  0.29884525136E+03  0.56989490670E+03  0.17050383538E+04  0.15294330000E+03 0. -1.
<mgrwt>
<rscale>  0 0.16069772E+04</rscale>
<asrwt>0</asrwt>
<pdfrwt beam="1">  1        1 0.22194037E+00 0.16069772E+04</pdfrwt>
<pdfrwt beam="2">  1       -1 0.28850060E+00 0.16069772E+04</pdfrwt>
<totfact> 0.26293721E-01</totfact>
</mgrwt>
</event>
<event>
 4    1  0.2731969E-009  0.8622053E+03  0.7818608E-02  0.9474100E-01
         -1   -1    0    0    0  501 -0.00000000000E+00  0.00000000000E+00  0.94066658188E+03  0.94066658190E+03  0.50400000000E-02 0.  1.
          1   -1    0    0  501    0  0.00000000000E+00 -0.00000000000E+00 -0.18011407695E+04  0.18011407695E+04  0.50400000000E-02 0. -1.
    8880022    1    1    2    0    0  0.75756996107E+03  0.38222247065E+03  0.59677834629E+03  0.10485906306E+04  0.15294330000E+03 0.  0.
    8880022    1    1    2    0    0 -0.75756996107E+03 -0.38222247065E+03 -0.14572525339E+04  0.16932167208E+04  0.15294330000E+03 0.  0.
<mgrwt>
<rscale>  0 0.86220526E+03</rscale>
<asrwt>0</asrwt>
<pdfrwt beam="1">  1        1 0.27709858E+00 0.86220526E+03</pdfrwt>
<pdfrwt beam="2">  1       -1 0.14471794E+00 0.86220526E+03</pdfrwt>
<totfact> 0.16099762E+00</totfact>
</mgrwt>
</event>
<event>
 4    1  0.2731969E-009  0.1207861E+04  0.7818608E-02  0.9106004E-01
         -1   -1    0    0    0  501 -0.00000000000E+00  0.00000000000E+00  0.28328228697E+04  0.28328228697E+04  0.50400000000E-02 0.  1.
          1   -1    0    0  501    0  0.00000000000E+00 -0.00000000000E+00 -0.12703335899E+04  0.12703335899E+04  0.50400000000E-02 0. -1.
    8880022    1    1    2    0    0 -0.11685344895E+04 -0.26469547245E+03  0.23632068754E+04  0.26539922636E+04  0.15294330000E+03 0.  0.
    8880022    1    1    2    0    0  0.11685344895E+04  0.26469547245E+03 -0.80071759555E+03  0.14491641961E+04  0.15294330000E+03 0.  0.
<mgrwt>
<rscale>  0 0.12078610E+04</rscale>
<asrwt>0</asrwt>
<pdfrwt beam="1">  1        1 0.19543594E+00 0.12078610E+04</pdfrwt>
<pdfrwt beam="2">  1       -1 0.43581890E+00 0.12078610E+04</pdfrwt>
<totfact> 0.38126088E-02</totfact>
</mgrwt>
</event>
<event>
 4    1  0.2731969E-009  0.1606520E+04  0.7818608E-02  0.8816553E-01
         -1   -1    0    0    0  501 -0.00000000000E+00  0.00000000000E+00  0.13833382723E+04  0.13833382723E+04  0.50400000000E-02 0.  1.
          1   -1    0    0  501    0  0.00000000000E+00 -0.00000000000E+00 -0.24161681669E+04  0.24161681669E+04  0.50400000000E-02 0. -1.
    8880022    1    1    2    0    0  0.20965526071E+03 -0.15854204709E+04  0.39035396964E+03  0.16532638242E+04  0.15294330000E+03 0.  0.
    8880022    1    1    2    0    0 -0.20965526071E+03  0.15854204709E+04 -0.14231838643E+04  0.21462426150E+04  0.15294330000E+03 0.  0.
<mgrwt>
<rscale>  0 0.16065195E+04</rscale>
<asrwt>0</asrwt>
<pdfrwt beam="1">  1        1 0.37171818E+00 0.16065195E+04</pdfrwt>
<pdfrwt beam="2">  1       -1 0.21282127E+00 0.16065195E+04</pdfrwt>
<totfact> 0.17767709E-01</totfact>
</mgrwt>
</event>
<event>
 4    1  0.2731969E-009  0.7049354E+03  0.7818608E-02  0.9708829E-01
          1   -1    0    0  501    0  0.00000000000E+00  0.00000000000E+00  0.80649509925E+03  0.80649509927E+03  0.50400000000E-02 0. -1.
         -1   -1    0    0    0  501 -0.00000000000E+00 -0.00000000000E+00 -0.12732362467E+04  0.12732362467E+04  0.50400000000E-02 0.  1.
    8880022    1    1    2    0    0  0.21379849581E+03  0.65408899139E+03 -0.98038511574E+03  0.12075134921E+04  0.15294330000E+03 0.  0.
    8880022    1    1    2    0    0 -0.21379849581E+03 -0.65408899139E+03  0.51364396828E+03  0.87221785388E+03  0.15294330000E+03 0.  0.
<mgrwt>
<rscale>  0 0.70493536E+03</rscale>
<asrwt>0</asrwt>
<pdfrwt beam="1">  1        1 0.12407617E+00 0.70493536E+03</pdfrwt>
<pdfrwt beam="2">  1       -1 0.19588250E+00 0.70493536E+03</pdfrwt>
<totfact> 0.36699266E+00</totfact>
</mgrwt>
</event>
<event>
 4    1  0.2731969E-009  0.3316448E+03  0.7818608E-02  0.1070411E+00
         -1   -1    0    0    0  501 -0.00000000000E+00  0.00000000000E+00  0.26072662215E+04  0.26072662215E+04  0.50400000000E-02 0.  1.
          1   -1    0    0  501    0  0.00000000000E+00 -0.00000000000E+00 -0.27488950743E+03  0.27488950748E+03  0.50400000000E-02 0. -1.
    8880022    1    1    2    0    0  0.29045116225E+03 -0.47273290776E+02 -0.15971078096E+03  0.36809757978E+03  0.15294330000E+03 0.  0.
    8880022    1    1    2    0    0 -0.29045116225E+03  0.47273290776E+02  0.24920874950E+04  0.25140581492E+04  0.15294330000E+03 0.  1.
<mgrwt>
<rscale>  0 0.33164483E+03</rscale>
<asrwt>0</asrwt>
<pdfrwt beam="1">  1        1 0.42290692E-01 0.33164483E+03</pdfrwt>
<pdfrwt beam="2">  1       -1 0.40111789E+00 0.33164483E+03</pdfrwt>
<totfact> 0.82913345E-01</totfact>
</mgrwt>
</event>
<event>
 4    1  0.2731969E-009  0.1026674E+04  0.7818608E-02  0.9279764E-01
          1   -1    0    0  501    0  0.00000000000E+00  0.00000000000E+00  0.15329826989E+04  0.15329826989E+04  0.50400000000E-02 0. -1.
         -1   -1    0    0    0  501 -0.00000000000E+00 -0.00000000000E+00 -0.19681037709E+04  0.19681037709E+04  0.50400000000E-02 0.  1.
    8880022    1    1    2    0    0  0.59510596271E+03  0.82250610049E+03 -0.16295825654E+04  0.19260317709E+04  0.15294330000E+03 0.  0.
    8880022    1    1    2    0    0 -0.59510596271E+03 -0.82250610049E+03  0.11944614934E+04  0.15750546989E+04  0.15294330000E+03 0.  0.
<mgrwt>
<rscale>  0 0.10266738E+04</rscale>
<asrwt>0</asrwt>
<pdfrwt beam="1">  1        1 0.23584349E+00 0.10266738E+04</pdfrwt>
<pdfrwt beam="2">  1       -1 0.30278520E+00 0.10266738E+04</pdfrwt>
<totfact> 0.19912337E-01</totfact>
</mgrwt>
</event>
<event>
 4    1  0.2731969E-009  0.1028513E+04  0.7818608E-02  0.9277814E-01
          1   -1    0    0  501    0  0.00000000000E+00  0.00000000000E+00  0.24409456053E+04  0.24409456053E+04  0.50400000000E-02 0. -1.
         -1   -1    0    0    0  501 -0.00000000000E+00 -0.00000000000E+00 -0.14072560341E+04  0.14072560341E+04  0.50400000000E-02 0.  1.
    8880022    1    1    2    0    0 -0.57660711916E+03 -0.83783712596E+03  0.21174889555E+04  0.23540598865E+04  0.15294330000E+03 0.  0.
    8880022    1    1    2    0    0  0.57660711916E+03  0.83783712596E+03 -0.10837993843E+04  0.14941417530E+04  0.15294330000E+03 0.  0.
<mgrwt>
<rscale>  0 0.10285127E+04</rscale>
<asrwt>0</asrwt>
<pdfrwt beam="1">  1        1 0.37553009E+00 0.10285127E+04</pdfrwt>
<pdfrwt beam="2">  1       -1 0.21650093E+00 0.10285127E+04</pdfrwt>
<totfact> 0.17548426E-01</totfact>
</mgrwt>
</event>
<event>
 4    1  0.2731969E-009  0.1095166E+04  0.7818608E-02  0.9209916E-01
          1   -1    0    0  501    0  0.00000000000E+00  0.00000000000E+00  0.10877507216E+04  0.10877507217E+04  0.50400000000E-02 0. -1.
         -1   -1    0    0    0  501 -0.00000000000E+00 -0.00000000000E+00 -0.12023393089E+04  0.12023393089E+04  0.50400000000E-02 0.  1.
    8880022    1    1    2    0    0  0.15849228218E+03  0.10727894133E+04 -0.38703523922E+03  0.11615441698E+04  0.15294330000E+03 0.  0.
    8880022    1    1    2    0    0 -0.15849228218E+03 -0.10727894133E+04  0.27244665193E+03  0.11285458608E+04  0.15294330000E+03 0.  0.
<mgrwt>
<rscale>  0 0.10951660E+04</rscale>
<asrwt>0</asrwt>
<pdfrwt beam="1">  1        1 0.16734627E+00 0.10951660E+04</pdfrwt>
<pdfrwt beam="2">  1       -1 0.18497528E+00 0.10951660E+04</pdfrwt>
<totfact> 0.24641581E+00</totfact>
</mgrwt>
</event>
<event>
 4    1  0.2731969E-009  0.7037480E+03  0.7818608E-02  0.9710844E-01
          1   -1    0    0  501    0  0.00000000000E+00  0.00000000000E+00  0.41884159276E+03  0.41884159279E+03  0.50400000000E-02 0. -1.
         -1   -1    0    0    0  501 -0.00000000000E+00 -0.00000000000E+00 -0.12593373058E+04  0.12593373058E+04  0.50400000000E-02 0.  1.
    8880022    1    1    2    0    0 -0.47168234756E+03 -0.49938501147E+03 -0.62757244057E+03  0.94292547312E+03  0.15294330000E+03 0.  0.
    8880022    1    1    2    0    0  0.47168234756E+03  0.49938501147E+03 -0.21292327244E+03  0.73525342546E+03  0.15294330000E+03 0.  0.
<mgrwt>
<rscale>  0 0.70374802E+03</rscale>
<asrwt>0</asrwt>
<pdfrwt beam="1">  1        1 0.64437168E-01 0.70374802E+03</pdfrwt>
<pdfrwt beam="2">  1       -1 0.19374420E+00 0.70374802E+03</pdfrwt>
<totfact> 0.97352089E+00</totfact>
</mgrwt>
</event>
<event>
 4    1  0.2731969E-009  0.4777702E+03  0.7818608E-02  0.1019750E+00
          1   -1    0    0  501    0  0.00000000000E+00  0.00000000000E+00  0.14372739766E+04  0.14372739766E+04  0.50400000000E-02 0. -1.
         -1   -1    0    0    0  501 -0.00000000000E+00 -0.00000000000E+00 -0.77524681137E+03  0.77524681139E+03  0.50400000000E-02 0.  1.
    8880022    1    1    2    0    0  0.16332623893E+03 -0.42213413271E+03 -0.65544530741E+03  0.81109363845E+03  0.15294330000E+03 0.  0.
    8880022    1    1    2    0    0 -0.16332623893E+03  0.42213413271E+03  0.13174724726E+04  0.14014271496E+04  0.15294330000E+03 0.  0.
<mgrwt>
<rscale>  0 0.47777017E+03</rscale>
<asrwt>0</asrwt>
<pdfrwt beam="1">  1        1 0.22111907E+00 0.47777017E+03</pdfrwt>
<pdfrwt beam="2">  1       -1 0.11926874E+00 0.47777017E+03</pdfrwt>
<totfact> 0.50123765E+00</totfact>
</mgrwt>
</event>
<event>
 4    1  0.2731969E-009  0.2124750E+03  0.7818608E-02  0.1139621E+00
          1   -1    0    0  501    0  0.00000000000E+00  0.00000000000E+00  0.67349965231E+03  0.67349965233E+03  0.50400000000E-02 0. -1.
         -1   -1    0    0    0  501 -0.00000000000E+00 -0.00000000000E+00 -0.10654789899E+04  0.10654789899E+04  0.50400000000E-02 0.  1.
    8880022    1    1    2    0    0  0.63072096374E+02 -0.13332629515E+03  0.64570473127E+03  0.67976484413E+03  0.15294330000E+03 0.  0.
    8880022    1    1    2    0    0 -0.63072096374E+02  0.13332629515E+03 -0.10376840689E+04  0.10592137981E+04  0.15294330000E+03 0.  0.
<mgrwt>
<rscale>  0 0.21247504E+03</rscale>
<asrwt>0</asrwt>
<pdfrwt beam="1">  1        1 0.10361533E+00 0.21247504E+03</pdfrwt>
<pdfrwt beam="2">  1       -1 0.16391984E+00 0.21247504E+03</pdfrwt>
<totfact> 0.92783021E+00</totfact>
</mgrwt>
</event>
<event>
 4    1  0.2731969E-009  0.1343030E+04  0.7818608E-02  0.8996121E-01
          1   -1    0    0  501    0  0.00000000000E+00  0.00000000000E+00  0.19812134735E+04  0.19812134735E+04  0.50400000000E-02 0. -1.
         -1   -1    0    0    0  501 -0.00000000000E+00 -0.00000000000E+00 -0.15355597929E+04  0.15355597929E+04  0.50400000000E-02 0.  1.
    8880022    1    1    2    0    0 -0.24964700273E+02  0.13340591965E+04  0.13447701217E+04  0.19005618930E+04  0.15294330000E+03 0.  0.
    8880022    1    1    2    0    0  0.24964700273E+02 -0.13340591965E+04 -0.89911644104E+03  0.16162113734E+04  0.15294330000E+03 0.  1.
<mgrwt>
<rscale>  0 0.13430297E+04</rscale>
<asrwt>0</asrwt>
<pdfrwt beam="1">  1        1 0.30480207E+00 0.13430297E+04</pdfrwt>
<pdfrwt beam="2">  1       -1 0.23623997E+00 0.13430297E+04</pdfrwt>
<totfact> 0.25354649E-01</totfact>
</mgrwt>
</event>
<event>
 4    1  0.2731969E-009  0.1144837E+04  0.7818608E-02  0.9162560E-01
         -1   -1    0    0    0  501 -0.00000000000E+00  0.00000000000E+00  0.14072702543E+04  0.14072702543E+04  0.50400000000E-02 0.  1.
          1   -1    0    0  501    0  0.00000000000E+00 -0.00000000000E+00 -0.13941386515E+04  0.13941386515E+04  0.50400000000E-02 0. -1.
    8880022    1    1    2    0    0  0.10489567131E+04  0.43237735286E+03 -0.80046093359E+03  0.13969215155E+04  0.15294330000E+03 0.  0.
    8880022    1    1    2    0    0 -0.10489567131E+04 -0.43237735286E+03  0.81359253636E+03  0.14044873903E+04  0.15294330000E+03 0.  0.
<mgrwt>
<rscale>  0 0.11448371E+04</rscale>
<asrwt>0</asrwt>
<pdfrwt beam="1">  1        1 0.21448287E+00 0.11448371E+04</pdfrwt>
<pdfrwt beam="2">  1       -1 0.21650312E+00 0.11448371E+04</pdfrwt>
<totfact> 0.88929023E-01</totfact>
</mgrwt>
</event>
<event>
 4    1  0.2731969E-009  0.2948174E+03  0.7818608E-02  0.1087860E+00
         -1   -1    0    0    0  501 -0.00000000000E+00  0.00000000000E+00  0.34269968664E+03  0.34269968668E+03  0.50400000000E-02 0.  1.
          1   -1    0    0  501    0  0.00000000000E+00 -0.00000000000E+00 -0.10720669096E+04  0.10720669097E+04  0.50400000000E-02 0. -1.
    8880022    1    1    2    0    0  0.16407740827E+03  0.19132239120E+03  0.25338645346E+03  0.38874413319E+03  0.15294330000E+03 0.  0.
    8880022    1    1    2    0    0 -0.16407740827E+03 -0.19132239120E+03 -0.98275367645E+03  0.10260224631E+04  0.15294330000E+03 0.  0.
<mgrwt>
<rscale>  0 0.29481741E+03</rscale>
<asrwt>0</asrwt>
<pdfrwt beam="1">  1        1 0.16493337E+00 0.29481741E+03</pdfrwt>
<pdfrwt beam="2">  1       -1 0.52723029E-01 0.29481741E+03</pdfrwt>
<totfact> 0.53079233E+01</totfact>
</mgrwt>
</event>
<event>
 4    1  0.2731969E-009  0.1143125E+04  0.7818608E-02  0.9164149E-01
         -1   -1    0    0    0  501 -0.00000000000E+00  0.00000000000E+00  0.50340190029E+03  0.50340190031E+03  0.50400000000E-02 0.  1.
          1   -1    0    0  501    0  0.00000000000E+00 -0.00000000000E+00 -0.29666462388E+04  0.29666462389E+04  0.50400000000E-02 0. -1.
    8880022    1    1    2    0    0  0.63315555173E+03 -0.93939227891E+03 -0.18450507007E+04  0.21704717338E+04  0.15294330000E+03 0.  0.
    8880022    1    1    2    0    0 -0.63315555173E+03  0.93939227891E+03 -0.61819363791E+03  0.12995764053E+04  0.15294330000E+03 0.  0.
<mgrwt>
<rscale>  0 0.11431253E+04</rscale>
<asrwt>0</asrwt>
<pdfrwt beam="1">  1        1 0.45640710E+00 0.11431253E+04</pdfrwt>
<pdfrwt beam="2">  1       -1 0.77446448E-01 0.11431253E+04</pdfrwt>
<totfact> 0.10622969E+00</totfact>
</mgrwt>
</event>
<event>
 4    1  0.2731969E-009  0.1137140E+04  0.7818608E-02  0.9169730E-01
         -1   -1    0    0    0  501 -0.00000000000E+00  0.00000000000E+00  0.11511179391E+04  0.11511179391E+04  0.50400000000E-02 0.  1.
          1   -1    0    0  501    0  0.00000000000E+00 -0.00000000000E+00 -0.16003976917E+04  0.16003976917E+04  0.50400000000E-02 0. -1.
    8880022    1    1    2    0    0 -0.55079627315E+03  0.98301559277E+03  0.52649345414E+03  0.12531094128E+04  0.15294330000E+03 0.  0.
    8880022    1    1    2    0    0  0.55079627315E+03 -0.98301559277E+03 -0.97577320676E+03  0.14984062180E+04  0.15294330000E+03 0.  0.
<mgrwt>
<rscale>  0 0.11371402E+04</rscale>
<asrwt>0</asrwt>
<pdfrwt beam="1">  1        1 0.24621503E+00 0.11371402E+04</pdfrwt>
<pdfrwt beam="2">  1       -1 0.17709507E+00 0.11371402E+04</pdfrwt>
<totfact> 0.12034553E+00</totfact>
</mgrwt>
</event>
<event>
 4    1  0.2731969E-009  0.3742057E+03  0.7818608E-02  0.1053096E+00
         -1   -1    0    0    0  501 -0.00000000000E+00  0.00000000000E+00  0.72113960571E+03  0.72113960573E+03  0.50400000000E-02 0.  1.
          1   -1    0    0  501    0  0.00000000000E+00 -0.00000000000E+00 -0.15227726621E+04  0.15227726621E+04  0.50400000000E-02 0. -1.
    8880022    1    1    2    0    0 -0.15067962113E+03  0.30648638834E+03  0.64716707729E+03  0.74756613982E+03  0.15294330000E+03 0.  0.
    8880022    1    1    2    0    0  0.15067962113E+03 -0.30648638834E+03 -0.14488001337E+04  0.14963461280E+04  0.15294330000E+03 0.  0.
<mgrwt>
<rscale>  0 0.37420570E+03</rscale>
<asrwt>0</asrwt>
<pdfrwt beam="1">  1        1 0.23427272E+00 0.37420570E+03</pdfrwt>
<pdfrwt beam="2">  1       -1 0.11094455E+00 0.37420570E+03</pdfrwt>
<totfact> 0.53764236E+00</totfact>
</mgrwt>
</event>
<event>
 4    1  0.2731969E-009  0.1847928E+04  0.7818608E-02  0.8681219E-01
         -1   -1    0    0    0  501 -0.00000000000E+00  0.00000000000E+00  0.23016662613E+04  0.23016662613E+04  0.50400000000E-02 0.  1.
          1   -1    0    0  501    0  0.00000000000E+00 -0.00000000000E+00 -0.17002282631E+04  0.17002282631E+04  0.50400000000E-02 0. -1.
    8880022    1    1    2    0    0  0.35504381676E+02  0.18412453036E+04 -0.41345299917E+03  0.18936155536E+04  0.15294330000E+03 0.  0.
    8880022    1    1    2    0    0 -0.35504381676E+02 -0.18412453036E+04  0.10148909973E+04  0.21082789708E+04  0.15294330000E+03 0.  0.
<mgrwt>
<rscale>  0 0.18479276E+04</rscale>
<asrwt>0</asrwt>
<pdfrwt beam="1">  1        1 0.26157358E+00 0.18479276E+04</pdfrwt>
<pdfrwt beam="2">  1       -1 0.35410250E+00 0.18479276E+04</pdfrwt>
<totfact> 0.63069695E-02</totfact>
</mgrwt>
</event>
<event>
 4    1  0.2731969E-009  0.9796823E+03  0.7818608E-02  0.9331114E-01
         -1   -1    0    0    0  501 -0.00000000000E+00  0.00000000000E+00  0.15626496407E+04  0.15626496408E+04  0.50400000000E-02 0.  1.
          1   -1    0    0  501    0  0.00000000000E+00 -0.00000000000E+00 -0.11978581678E+04  0.11978581678E+04  0.50400000000E-02 0. -1.
    8880022    1    1    2    0    0 -0.90206720548E+03 -0.35022911283E+03  0.11458610067E+04  0.15075724773E+04  0.15294330000E+03 0.  0.
    8880022    1    1    2    0    0  0.90206720548E+03  0.35022911283E+03 -0.78106953380E+03  0.12529353313E+04  0.15294330000E+03 0.  0.
<mgrwt>
<rscale>  0 0.97968226E+03</rscale>
<asrwt>0</asrwt>
<pdfrwt beam="1">  1        1 0.18428587E+00 0.97968226E+03</pdfrwt>
<pdfrwt beam="2">  1       -1 0.24040764E+00 0.97968226E+03</pdfrwt>
<totfact> 0.87385947E-01</totfact>
</mgrwt>
</event>
<event>
 4    1  0.2731969E-009  0.1089010E+04  0.7818608E-02  0.9215970E-01
         -1   -1    0    0    0  501 -0.00000000000E+00  0.00000000000E+00  0.13499770462E+04  0.13499770462E+04  0.50400000000E-02 0.  1.
          1   -1    0    0  501    0  0.00000000000E+00 -0.00000000000E+00 -0.11804460251E+04  0.11804460251E+04  0.50400000000E-02 0. -1.
    8880022    1    1    2    0    0  0.40699867165E+03  0.99845062640E+03  0.72466375562E+03  0.13080828658E+04  0.15294330000E+03 0.  0.
    8880022    1    1    2    0    0 -0.40699867165E+03 -0.99845062640E+03 -0.55513273445E+03  0.12223402055E+04  0.15294330000E+03 0.  0.
<mgrwt>
<rscale>  0 0.10890102E+04</rscale>
<asrwt>0</asrwt>
<pdfrwt beam="1">  1        1 0.18160708E+00 0.10890102E+04</pdfrwt>
<pdfrwt beam="2">  1       -1 0.20768878E+00 0.10890102E+04</pdfrwt>
<totfact> 0.14627351E+00</totfact>
</mgrwt>
</event>
<event>
 4    1  0.2731969E-009  0.8148684E+03  0.7818608E-02  0.9538742E-01
          1   -1    0    0  501    0  0.00000000000E+00  0.00000000000E+00  0.14937308237E+04  0.14937308237E+04  0.50400000000E-02 0. -1.
         -1   -1    0    0    0  501 -0.00000000000E+00 -0.00000000000E+00 -0.65222320071E+03  0.65222320073E+03  0.50400000000E-02 0.  1.
    8880022    1    1    2    0    0 -0.80037672323E+03  0.39960234726E+01  0.10262365766E+04  0.13104091084E+04  0.15294330000E+03 0.  0.
    8880022    1    1    2    0    0  0.80037672323E+03 -0.39960234726E+01 -0.18472895364E+03  0.83554491598E+03  0.15294330000E+03 0.  0.
<mgrwt>
<rscale>  0 0.81486841E+03</rscale>
<asrwt>0</asrwt>
<pdfrwt beam="1">  1        1 0.22980474E+00 0.81486841E+03</pdfrwt>
<pdfrwt beam="2">  1       -1 0.10034203E+00 0.81486841E+03</pdfrwt>
<totfact> 0.64377951E+00</totfact>
</mgrwt>
</event>
<event>
 4    1  0.2731969E-009  0.3110416E+03  0.7818608E-02  0.1079848E+00
          1   -1    0    0  501    0  0.00000000000E+00  0.00000000000E+00  0.28071812620E+03  0.28071812624E+03  0.50400000000E-02 0. -1.
         -1   -1    0    0    0  501 -0.00000000000E+00 -0.00000000000E+00 -0.16695701746E+04  0.16695701746E+04  0.50400000000E-02 0.  1.
    8880022    1    1    2    0    0 -0.11777159001E+03  0.24389563638E+03  0.17426006595E+03  0.35652973573E+03  0.15294330000E+03 0.  0.
    8880022    1    1    2    0    0  0.11777159001E+03 -0.24389563638E+03 -0.15631121144E+04  0.15937585652E+04  0.15294330000E+03 0.  0.
<mgrwt>
<rscale>  0 0.31104161E+03</rscale>
<asrwt>0</asrwt>
<pdfrwt beam="1">  1        1 0.43187405E-01 0.31104161E+03</pdfrwt>
<pdfrwt beam="2">  1       -1 0.25685694E+00 0.31104161E+03</pdfrwt>
<totfact> 0.68288624E+00</totfact>
</mgrwt>
</event>
<event>
 4    1  0.2731969E-009  0.1066060E+04  0.7818608E-02  0.9238918E-01
          1   -1    0    0  501    0  0.00000000000E+00  0.00000000000E+00  0.23051315558E+04  0.23051315558E+04  0.50400000000E-02 0. -1.
         -1   -1    0    0    0  501 -0.00000000000E+00 -0.00000000000E+00 -0.77528683775E+03  0.77528683777E+03  0.50400000000E-02 0.  1.
    8880022    1    1    2    0    0  0.10128077145E+04  0.29548821536E+03 -0.16441975334E+03  0.10786650362E+04  0.15294330000E+03 0.  0.
    8880022    1    1    2    0    0 -0.10128077145E+04 -0.29548821536E+03  0.16942644714E+04  0.20017533574E+04  0.15294330000E+03 0.  0.
<mgrwt>
<rscale>  0 0.10660602E+04</rscale>
<asrwt>0</asrwt>
<pdfrwt beam="1">  1        1 0.35463563E+00 0.10660602E+04</pdfrwt>
<pdfrwt beam="2">  1       -1 0.11927490E+00 0.10660602E+04</pdfrwt>
<totfact> 0.11659977E+00</totfact>
</mgrwt>
</event>
<event>
 4    1  0.2731969E-009  0.6654382E+03  0.7818608E-02  0.9778234E-01
         -1   -1    0    0    0  501 -0.00000000000E+00  0.00000000000E+00  0.39580734194E+03  0.39580734197E+03  0.50400000000E-02 0.  1.
          1   -1    0    0  501    0  0.00000000000E+00 -0.00000000000E+00 -0.15729220597E+04  0.15729220597E+04  0.50400000000E-02 0. -1.
    8880022    1    1    2    0    0 -0.54294460897E+03  0.35302615938E+03 -0.59607579592E+02  0.66810256262E+03  0.15294330000E+03 0.  0.
    8880022    1    1    2    0    0  0.54294460897E+03 -0.35302615938E+03 -0.11175071382E+04  0.13006268391E+04  0.15294330000E+03 0.  0.
<mgrwt>
<rscale>  0 0.66543818E+03</rscale>
<asrwt>0</asrwt>
<pdfrwt beam="1">  1        1 0.24198801E+00 0.66543818E+03</pdfrwt>
<pdfrwt beam="2">  1       -1 0.60893438E-01 0.66543818E+03</pdfrwt>
<totfact> 0.16721815E+01</totfact>
</mgrwt>
</event>
<event>
 4    1  0.2731969E-009  0.2447317E+03  0.7818608E-02  0.1116680E+00
         -1   -1    0    0    0  501 -0.00000000000E+00  0.00000000000E+00  0.67748198332E+02  0.67748198519E+02  0.50400000000E-02 0.  1.
          1   -1    0    0  501    0  0.00000000000E+00 -0.00000000000E+00 -0.16921137869E+04  0.16921137869E+04  0.50400000000E-02 0. -1.
    8880022    1    1    2    0    0 -0.14381282203E+03 -0.12577682570E+03 -0.14202526831E+04  0.14411839836E+04  0.15294330000E+03 0.  0.
    8880022    1    1    2    0    0  0.14381282203E+03  0.12577682570E+03 -0.20411290545E+03  0.31867800183E+03  0.15294330000E+03 0.  0.
<mgrwt>
<rscale>  0 0.24473167E+03</rscale>
<asrwt>0</asrwt>
<pdfrwt beam="1">  1        1 0.26032517E+00 0.24473167E+03</pdfrwt>
<pdfrwt beam="2">  1       -1 0.10422801E-01 0.24473167E+03</pdfrwt>
<totfact> 0.30801932E+02</totfact>
</mgrwt>
</event>
<event>
 4    1  0.2731969E-009  0.1407164E+04  0.7818608E-02  0.8948649E-01
         -1   -1    0    0    0  501 -0.00000000000E+00  0.00000000000E+00  0.71440045007E+03  0.71440045009E+03  0.50400000000E-02 0.  1.
          1   -1    0    0  501    0  0.00000000000E+00 -0.00000000000E+00 -0.40272834718E+04  0.40272834718E+04  0.50400000000E-02 0. -1.
    8880022    1    1    2    0    0  0.13288637471E+04 -0.43685394173E+03 -0.33265690250E+03  0.14459503769E+04  0.15294330000E+03 0.  0.
    8880022    1    1    2    0    0 -0.13288637471E+04  0.43685394173E+03 -0.29802261192E+04  0.32957335450E+04  0.15294330000E+03 0.  0.
<mgrwt>
<rscale>  0 0.14071645E+04</rscale>
<asrwt>0</asrwt>
<pdfrwt beam="1">  1        1 0.61958206E+00 0.14071645E+04</pdfrwt>
<pdfrwt beam="2">  1       -1 0.10990776E+00 0.14071645E+04</pdfrwt>
<totfact> 0.68119720E-02</totfact>
</mgrwt>
</event>
<event>
 4    1  0.2731969E-009  0.3943455E+03  0.7818608E-02  0.1045755E+00
          1   -1    0    0  501    0  0.00000000000E+00  0.00000000000E+00  0.31820873100E+04  0.31820873100E+04  0.50400000000E-02 0. -1.
         -1   -1    0    0    0  501 -0.00000000000E+00 -0.00000000000E+00 -0.13682324686E+03  0.13682324695E+03  0.50400000000E-02 0.  1.
    8880022    1    1    2    0    0  0.31239072859E+03  0.18581903690E+03  0.19214159846E+03  0.43866471098E+03  0.15294330000E+03 0.  1.
    8880022    1    1    2    0    0 -0.31239072859E+03 -0.18581903690E+03  0.28531224646E+04  0.28802458459E+04  0.15294330000E+03 0.  0.
<mgrwt>
<rscale>  0 0.39434545E+03</rscale>
<asrwt>0</asrwt>
<pdfrwt beam="1">  1        1 0.48955184E+00 0.39434545E+03</pdfrwt>
<pdfrwt beam="2">  1       -1 0.21049733E-01 0.39434545E+03</pdfrwt>
<totfact> 0.95505547E+00</totfact>
</mgrwt>
</event>
<event>
 4    1  0.2731969E-009  0.9971241E+03  0.7818608E-02  0.9311705E-01
         -1   -1    0    0    0  501 -0.00000000000E+00  0.00000000000E+00  0.11017204996E+04  0.11017204996E+04  0.50400000000E-02 0.  1.
          1   -1    0    0  501    0  0.00000000000E+00 -0.00000000000E+00 -0.12240476945E+04  0.12240476945E+04  0.50400000000E-02 0. -1.
    8880022    1    1    2    0    0 -0.85649994863E+03  0.48710631181E+03 -0.65722141314E+03  0.11942346335E+04  0.15294330000E+03 0.  0.
    8880022    1    1    2    0    0  0.85649994863E+03 -0.48710631181E+03  0.53489421824E+03  0.11315335606E+04  0.15294330000E+03 0.  0.
<mgrwt>
<rscale>  0 0.99712405E+03</rscale>
<asrwt>0</asrwt>
<pdfrwt beam="1">  1        1 0.18831503E+00 0.99712405E+03</pdfrwt>
<pdfrwt beam="2">  1       -1 0.16949546E+00 0.99712405E+03</pdfrwt>
<totfact> 0.25579132E+00</totfact>
</mgrwt>
</event>
<event>
 4    1  0.2731969E-009  0.1747185E+04  0.7818608E-02  0.8734901E-01
         -1   -1    0    0    0  501 -0.00000000000E+00  0.00000000000E+00  0.14250322343E+04  0.14250322343E+04  0.50400000000E-02 0.  1.
          1   -1    0    0  501    0  0.00000000000E+00 -0.00000000000E+00 -0.26593519595E+04  0.26593519595E+04  0.50400000000E-02 0. -1.
    8880022    1    1    2    0    0  0.14053136952E+04 -0.10268193070E+04  0.28344002964E+03  0.17700266593E+04  0.15294330000E+03 0.  0.
    8880022    1    1    2    0    0 -0.14053136952E+04  0.10268193070E+04 -0.15177597549E+04  0.23143575345E+04  0.15294330000E+03 0.  0.
<mgrwt>
<rscale>  0 0.17471852E+04</rscale>
<asrwt>0</asrwt>
<pdfrwt beam="1">  1        1 0.40913107E+00 0.17471852E+04</pdfrwt>
<pdfrwt beam="2">  1       -1 0.21923573E+00 0.17471852E+04</pdfrwt>
<totfact> 0.10709570E-01</totfact>
</mgrwt>
</event>
<event>
 4    1  0.2731969E-009  0.1159055E+04  0.7818608E-02  0.9149470E-01
         -1   -1    0    0    0  501 -0.00000000000E+00  0.00000000000E+00  0.90543984904E+03  0.90543984905E+03  0.50400000000E-02 0.  1.
          1   -1    0    0  501    0  0.00000000000E+00 -0.00000000000E+00 -0.42717217281E+04  0.42717217281E+04  0.50400000000E-02 0. -1.
    8880022    1    1    2    0    0 -0.11416799074E+04 -0.12877763974E+03  0.40811747292E+03  0.12288076400E+04  0.15294330000E+03 0.  0.
    8880022    1    1    2    0    0  0.11416799074E+04  0.12877763974E+03 -0.37743993519E+04  0.39483539371E+04  0.15294330000E+03 0.  0.
<mgrwt>
<rscale>  0 0.11590549E+04</rscale>
<asrwt>0</asrwt>
<pdfrwt beam="1">  1        1 0.65718795E+00 0.11590549E+04</pdfrwt>
<pdfrwt beam="2">  1       -1 0.13929844E+00 0.11590549E+04</pdfrwt>
<totfact> 0.23631674E-02</totfact>
</mgrwt>
</event>
<event>
 4    1  0.2731969E-009  0.4771534E+03  0.7818608E-02  0.1019920E+00
         -1   -1    0    0    0  501 -0.00000000000E+00  0.00000000000E+00  0.45069071355E+03  0.45069071358E+03  0.50400000000E-02 0.  1.
          1   -1    0    0  501    0  0.00000000000E+00 -0.00000000000E+00 -0.95696307078E+03  0.95696307080E+03  0.50400000000E-02 0. -1.
    8880022    1    1    2    0    0  0.29145190021E+03 -0.34545548705E+03  0.23046586334E+03  0.52989609439E+03  0.15294330000E+03 0.  0.
    8880022    1    1    2    0    0 -0.29145190021E+03  0.34545548705E+03 -0.73673822057E+03  0.87775768999E+03  0.15294330000E+03 0.  0.
<mgrwt>
<rscale>  0 0.47715339E+03</rscale>
<asrwt>0</asrwt>
<pdfrwt beam="1">  1        1 0.14722509E+00 0.47715339E+03</pdfrwt>
<pdfrwt beam="2">  1       -1 0.69337033E-01 0.47715339E+03</pdfrwt>
<totfact> 0.36612504E+01</totfact>
</mgrwt>
</event>
<event>
 4    1  0.2731969E-009  0.5822914E+03  0.7818608E-02  0.9942843E-01
         -1   -1    0    0    0  501 -0.00000000000E+00  0.00000000000E+00  0.14906847659E+04  0.14906847659E+04  0.50400000000E-02 0.  1.
          1   -1    0    0  501    0  0.00000000000E+00 -0.00000000000E+00 -0.12784046651E+04  0.12784046651E+04  0.50400000000E-02 0. -1.
    8880022    1    1    2    0    0 -0.67606421652E+02 -0.55776422990E+03 -0.11492070923E+04  0.12883090306E+04  0.15294330000E+03 0.  0.
    8880022    1    1    2    0    0  0.67606421652E+02  0.55776422990E+03  0.13614871931E+04  0.14807804005E+04  0.15294330000E+03 0.  0.
<mgrwt>
<rscale>  0 0.58229135E+03</rscale>
<asrwt>0</asrwt>
<pdfrwt beam="1">  1        1 0.19667764E+00 0.58229135E+03</pdfrwt>
<pdfrwt beam="2">  1       -1 0.22933612E+00 0.58229135E+03</pdfrwt>
<totfact> 0.97896587E-01</totfact>
</mgrwt>
</event>
<event>
 4    1  0.2731969E-009  0.3685720E+03  0.7818608E-02  0.1055240E+00
         -1   -1    0    0    0  501 -0.00000000000E+00  0.00000000000E+00  0.87092353094E+03  0.87092353095E+03  0.50400000000E-02 0.  1.
          1   -1    0    0  501    0  0.00000000000E+00 -0.00000000000E+00 -0.54457693773E+03  0.54457693776E+03  0.50400000000E-02 0. -1.
    8880022    1    1    2    0    0 -0.21119741803E+03 -0.26047903586E+03 -0.43468868076E+03  0.56991190521E+03  0.15294330000E+03 0.  0.
    8880022    1    1    2    0    0  0.21119741803E+03  0.26047903586E+03  0.76103527396E+03  0.84558856350E+03  0.15294330000E+03 0.  0.
<mgrwt>
<rscale>  0 0.36857202E+03</rscale>
<asrwt>0</asrwt>
<pdfrwt beam="1">  1        1 0.83781069E-01 0.36857202E+03</pdfrwt>
<pdfrwt beam="2">  1       -1 0.13398823E+00 0.36857202E+03</pdfrwt>
<totfact> 0.20113635E+01</totfact>
</mgrwt>
</event>
<event>
 4    1  0.2731969E-009  0.5895205E+03  0.7818608E-02  0.9927389E-01
          1   -1    0    0  501    0  0.00000000000E+00  0.00000000000E+00  0.39263033656E+03  0.39263033659E+03  0.50400000000E-02 0. -1.
         -1   -1    0    0    0  501 -0.00000000000E+00 -0.00000000000E+00 -0.14527551629E+04  0.14527551629E+04  0.50400000000E-02 0.  1.
    8880022    1    1    2    0    0  0.56866315389E+03  0.27659373031E+02 -0.11068106435E+04  0.12540192491E+04  0.15294330000E+03 0.  0.
    8880022    1    1    2    0    0 -0.56866315389E+03 -0.27659373031E+02  0.46685817221E+02  0.59136625035E+03  0.15294330000E+03 0.  0.
<mgrwt>
<rscale>  0 0.58952055E+03</rscale>
<asrwt>0</asrwt>
<pdfrwt beam="1">  1        1 0.60404668E-01 0.58952055E+03</pdfrwt>
<pdfrwt beam="2">  1       -1 0.22350079E+00 0.58952055E+03</pdfrwt>
<totfact> 0.68032293E+00</totfact>
</mgrwt>
</event>
<event>
 4    1  0.2731969E-009  0.9846957E+03  0.7818608E-02  0.9325491E-01
          1   -1    0    0  501    0  0.00000000000E+00  0.00000000000E+00  0.31361310169E+04  0.31361310169E+04  0.50400000000E-02 0. -1.
         -1   -1    0    0    0  501 -0.00000000000E+00 -0.00000000000E+00 -0.43963222742E+03  0.43963222745E+03  0.50400000000E-02 0.  1.
    8880022    1    1    2    0    0 -0.20904813142E+03 -0.95001724629E+03  0.23221655677E+04  0.25223160917E+04  0.15294330000E+03 0.  0.
    8880022    1    1    2    0    0  0.20904813142E+03  0.95001724629E+03  0.37433322175E+03  0.10534471526E+04  0.15294330000E+03 0.  0.
<mgrwt>
<rscale>  0 0.98469566E+03</rscale>
<asrwt>0</asrwt>
<pdfrwt beam="1">  1        1 0.48248170E+00 0.98469566E+03</pdfrwt>
<pdfrwt beam="2">  1       -1 0.67635727E-01 0.98469566E+03</pdfrwt>
<totfact> 0.10857727E+00</totfact>
</mgrwt>
</event>
<event>
 4    1  0.2731969E-009  0.6828176E+03  0.7818608E-02  0.9747076E-01
         -1   -1    0    0    0  501 -0.00000000000E+00  0.00000000000E+00  0.10365126263E+04  0.10365126263E+04  0.50400000000E-02 0.  1.
          1   -1    0    0  501    0  0.00000000000E+00 -0.00000000000E+00 -0.49708608127E+03  0.49708608129E+03  0.50400000000E-02 0. -1.
    8880022    1    1    2    0    0  0.66041071745E+03 -0.81889838317E+02  0.50617416760E+03  0.84997188324E+03  0.15294330000E+03 0.  0.
    8880022    1    1    2    0    0 -0.66041071745E+03  0.81889838317E+02  0.33252377409E+02  0.68362682434E+03  0.15294330000E+03 0.  0.
<mgrwt>
<rscale>  0 0.68281763E+03</rscale>
<asrwt>0</asrwt>
<pdfrwt beam="1">  1        1 0.76474782E-01 0.68281763E+03</pdfrwt>
<pdfrwt beam="2">  1       -1 0.15946348E+00 0.68281763E+03</pdfrwt>
<totfact> 0.13668218E+01</totfact>
</mgrwt>
</event>
<event>
 4    1  0.2731969E-009  0.7009403E+03  0.7818608E-02  0.9715626E-01
         -1   -1    0    0    0  501 -0.00000000000E+00  0.00000000000E+00  0.73946227743E+03  0.73946227745E+03  0.50400000000E-02 0.  1.
          1   -1    0    0  501    0  0.00000000000E+00 -0.00000000000E+00 -0.15332688259E+04  0.15332688259E+04  0.50400000000E-02 0. -1.
    8880022    1    1    2    0    0  0.44525445118E+03  0.51930156778E+03  0.45851739869E+03  0.83758910124E+03  0.15294330000E+03 0.  0.
    8880022    1    1    2    0    0 -0.44525445118E+03 -0.51930156778E+03 -0.12523239471E+04  0.14351420021E+04  0.15294330000E+03 0.  0.
<mgrwt>
<rscale>  0 0.70094030E+03</rscale>
<asrwt>0</asrwt>
<pdfrwt beam="1">  1        1 0.23588751E+00 0.70094030E+03</pdfrwt>
<pdfrwt beam="2">  1       -1 0.11376343E+00 0.70094030E+03</pdfrwt>
<totfact> 0.45967797E+00</totfact>
</mgrwt>
</event>
<event>
 4    1  0.2731969E-009  0.8042709E+03  0.7818608E-02  0.9553856E-01
          1   -1    0    0  501    0  0.00000000000E+00  0.00000000000E+00  0.27466782299E+04  0.27466782299E+04  0.50400000000E-02 0. -1.
         -1   -1    0    0    0  501 -0.00000000000E+00 -0.00000000000E+00 -0.43854170757E+03  0.43854170760E+03  0.50400000000E-02 0.  1.
    8880022    1    1    2    0    0  0.60833977399E+03 -0.50337139748E+03  0.22377284343E+04  0.23778730503E+04  0.15294330000E+03 0.  0.
    8880022    1    1    2    0    0 -0.60833977399E+03  0.50337139748E+03  0.70408087999E+02  0.80734688721E+03  0.15294330000E+03 0.  0.
<mgrwt>
<rscale>  0 0.80427091E+03</rscale>
<asrwt>0</asrwt>
<pdfrwt beam="1">  1        1 0.42256588E+00 0.80427091E+03</pdfrwt>
<pdfrwt beam="2">  1       -1 0.67467955E-01 0.80427091E+03</pdfrwt>
<totfact> 0.21397934E+00</totfact>
</mgrwt>
</event>
<event>
 4    1  0.2731969E-009  0.9734017E+03  0.7818608E-02  0.9338208E-01
          1   -1    0    0  501    0  0.00000000000E+00  0.00000000000E+00  0.26940775730E+04  0.26940775730E+04  0.50400000000E-02 0. -1.
         -1   -1    0    0    0  501 -0.00000000000E+00 -0.00000000000E+00 -0.81958026404E+03  0.81958026405E+03  0.50400000000E-02 0.  1.
    8880022    1    1    2    0    0 -0.77266604994E+03 -0.57193211064E+03 -0.39014716494E+03  0.10486780379E+04  0.15294330000E+03 0.  0.
    8880022    1    1    2    0    0  0.77266604994E+03  0.57193211064E+03  0.22646444739E+04  0.24649797991E+04  0.15294330000E+03 0.  0.
<mgrwt>
<rscale>  0 0.97340167E+03</rscale>
<asrwt>0</asrwt>
<pdfrwt beam="1">  1        1 0.41447348E+00 0.97340167E+03</pdfrwt>
<pdfrwt beam="2">  1       -1 0.12608927E+00 0.97340167E+03</pdfrwt>
<totfact> 0.55709093E-01</totfact>
</mgrwt>
</event>
<event>
 4    1  0.2731969E-009  0.1196916E+04  0.7818608E-02  0.9115560E-01
          1   -1    0    0  501    0  0.00000000000E+00  0.00000000000E+00  0.34232687431E+04  0.34232687431E+04  0.50400000000E-02 0. -1.
         -1   -1    0    0    0  501 -0.00000000000E+00 -0.00000000000E+00 -0.62554536616E+03  0.62554536618E+03  0.50400000000E-02 0.  1.
    8880022    1    1    2    0    0  0.65043444199E+03  0.99305193922E+03  0.25635511327E+04  0.28292053973E+04  0.15294330000E+03 0.  0.
    8880022    1    1    2    0    0 -0.65043444199E+03 -0.99305193922E+03  0.23417224428E+03  0.12196087120E+04  0.15294330000E+03 0.  0.
<mgrwt>
<rscale>  0 0.11969164E+04</rscale>
<asrwt>0</asrwt>
<pdfrwt beam="1">  1        1 0.52665673E+00 0.11969164E+04</pdfrwt>
<pdfrwt beam="2">  1       -1 0.96237749E-01 0.11969164E+04</pdfrwt>
<totfact> 0.29956590E-01</totfact>
</mgrwt>
</event>
<event>
 4    1  0.2731969E-009  0.6396236E+03  0.7818608E-02  0.9826447E-01
          1   -1    0    0  501    0  0.00000000000E+00  0.00000000000E+00  0.21002286645E+04  0.21002286645E+04  0.50400000000E-02 0. -1.
         -1   -1    0    0    0  501 -0.00000000000E+00 -0.00000000000E+00 -0.96036618827E+03  0.96036618828E+03  0.50400000000E-02 0.  1.
    8880022    1    1    2    0    0  0.28385021504E+03 -0.55240904709E+03  0.19362424288E+04  0.20391549956E+04  0.15294330000E+03 0.  0.
    8880022    1    1    2    0    0 -0.28385021504E+03  0.55240904709E+03 -0.79637995261E+03  0.10214398572E+04  0.15294330000E+03 0.  0.
<mgrwt>
<rscale>  0 0.63962360E+03</rscale>
<asrwt>0</asrwt>
<pdfrwt beam="1">  1        1 0.32311211E+00 0.63962360E+03</pdfrwt>
<pdfrwt beam="2">  1       -1 0.14774864E+00 0.63962360E+03</pdfrwt>
<totfact> 0.10075735E+00</totfact>
</mgrwt>
</event>
<event>
 4    1  0.2731969E-009  0.6526338E+03  0.7818608E-02  0.9801850E-01
         -1   -1    0    0    0  501 -0.00000000000E+00  0.00000000000E+00  0.33524045367E+04  0.33524045367E+04  0.50400000000E-02 0.  1.
          1   -1    0    0  501    0  0.00000000000E+00 -0.00000000000E+00 -0.16028144417E+03  0.16028144425E+03  0.50400000000E-02 0. -1.
    8880022    1    1    2    0    0 -0.58807218519E+03 -0.23813928736E+03  0.79636177421E+03  0.10296227191E+04  0.15294330000E+03 0. -1.
    8880022    1    1    2    0    0  0.58807218519E+03  0.23813928736E+03  0.23957613183E+04  0.24830632619E+04  0.15294330000E+03 0.  0.
<mgrwt>
<rscale>  0 0.65263379E+03</rscale>
<asrwt>0</asrwt>
<pdfrwt beam="1">  1        1 0.24658684E-01 0.65263379E+03</pdfrwt>
<pdfrwt beam="2">  1       -1 0.51575454E+00 0.65263379E+03</pdfrwt>
<totfact> 0.25247061E-01</totfact>
</mgrwt>
</event>
<event>
 4    1  0.2731969E-009  0.5610309E+03  0.7818608E-02  0.9989725E-01
          1   -1    0    0  501    0  0.00000000000E+00  0.00000000000E+00  0.73063498627E+03  0.73063498628E+03  0.50400000000E-02 0. -1.
         -1   -1    0    0    0  501 -0.00000000000E+00 -0.00000000000E+00 -0.72706049693E+03  0.72706049694E+03  0.50400000000E-02 0.  1.
    8880022    1    1    2    0    0 -0.38550703545E+03  0.37782054023E+03 -0.46346693294E+03  0.72770686815E+03  0.15294330000E+03 0.  0.
    8880022    1    1    2    0    0  0.38550703545E+03 -0.37782054023E+03  0.46704142228E+03  0.72998861508E+03  0.15294330000E+03 0.  0.
<mgrwt>
<rscale>  0 0.56103092E+03</rscale>
<asrwt>0</asrwt>
<pdfrwt beam="1">  1        1 0.11240538E+00 0.56103092E+03</pdfrwt>
<pdfrwt beam="2">  1       -1 0.11185546E+00 0.56103092E+03</pdfrwt>
<totfact> 0.19709325E+01</totfact>
</mgrwt>
</event>
<event>
 4    1  0.2731969E-009  0.5875737E+03  0.7818608E-02  0.9931527E-01
         -1   -1    0    0    0  501 -0.00000000000E+00  0.00000000000E+00  0.10164107534E+04  0.10164107534E+04  0.50400000000E-02 0.  1.
          1   -1    0    0  501    0  0.00000000000E+00 -0.00000000000E+00 -0.11377996561E+04  0.11377996561E+04  0.50400000000E-02 0. -1.
    8880022    1    1    2    0    0 -0.53360964072E+03 -0.19264462610E+03  0.84142141404E+03  0.10262713333E+04  0.15294330000E+03 0.  0.
    8880022    1    1    2    0    0  0.53360964072E+03  0.19264462610E+03 -0.96281031670E+03  0.11279390762E+04  0.15294330000E+03 0.  0.
<mgrwt>
<rscale>  0 0.58757370E+03</rscale>
<asrwt>0</asrwt>
<pdfrwt beam="1">  1        1 0.17504610E+00 0.58757370E+03</pdfrwt>
<pdfrwt beam="2">  1       -1 0.15637088E+00 0.58757370E+03</pdfrwt>
<totfact> 0.39642373E+00</totfact>
</mgrwt>
</event>
<event>
 4    1  0.2731969E-009  0.1014345E+04  0.7818608E-02  0.9292950E-01
          1   -1    0    0  501    0  0.00000000000E+00  0.00000000000E+00  0.23557884937E+04  0.23557884937E+04  0.50400000000E-02 0. -1.
         -1   -1    0    0    0  501 -0.00000000000E+00 -0.00000000000E+00 -0.11192774175E+04  0.11192774175E+04  0.50400000000E-02 0.  1.
    8880022    1    1    2    0    0  0.39843045301E+03  0.92019367556E+03 -0.73856889673E+03  0.12547425611E+04  0.15294330000E+03 0.  0.
    8880022    1    1    2    0    0 -0.39843045301E+03 -0.92019367556E+03  0.19750799729E+04  0.22203233501E+04  0.15294330000E+03 0.  0.
<mgrwt>
<rscale>  0 0.10143446E+04</rscale>
<asrwt>0</asrwt>
<pdfrwt beam="1">  1        1 0.36242900E+00 0.10143446E+04</pdfrwt>
<pdfrwt beam="2">  1       -1 0.17219653E+00 0.10143446E+04</pdfrwt>
<totfact> 0.40972869E-01</totfact>
</mgrwt>
</event>
<event>
 4    1  0.2731969E-009  0.1111766E+04  0.7818608E-02  0.9193799E-01
         -1   -1    0    0    0  501 -0.00000000000E+00  0.00000000000E+00  0.17323437529E+04  0.17323437529E+04  0.50400000000E-02 0.  1.
          1   -1    0    0  501    0  0.00000000000E+00 -0.00000000000E+00 -0.16377657468E+04  0.16377657468E+04  0.50400000000E-02 0. -1.
    8880022    1    1    2    0    0  0.45722418371E+03 -0.10017873783E+04  0.13131530250E+04  0.17205796772E+04  0.15294330000E+03 0.  0.
    8880022    1    1    2    0    0 -0.45722418371E+03  0.10017873783E+04 -0.12185750190E+04  0.16495298225E+04  0.15294330000E+03 0.  0.
<mgrwt>
<rscale>  0 0.11117660E+04</rscale>
<asrwt>0</asrwt>
<pdfrwt beam="1">  1        1 0.25196396E+00 0.11117660E+04</pdfrwt>
<pdfrwt beam="2">  1       -1 0.26651442E+00 0.11117660E+04</pdfrwt>
<totfact> 0.28482784E-01</totfact>
</mgrwt>
</event>
<event>
 4    1  0.2731969E-009  0.4127247E+03  0.7818608E-02  0.1039461E+00
          1   -1    0    0  501    0  0.00000000000E+00  0.00000000000E+00  0.16451628113E+03  0.16451628121E+03  0.50400000000E-02 0. -1.
         -1   -1    0    0    0  501 -0.00000000000E+00 -0.00000000000E+00 -0.29887607670E+04  0.29887607670E+04  0.50400000000E-02 0.  1.
    8880022    1    1    2    0    0  0.35021272709E+03 -0.15588794529E+03 -0.13751385193E+03  0.43503070948E+03  0.15294330000E+03 0.  0.
    8880022    1    1    2    0    0 -0.35021272709E+03  0.15588794529E+03 -0.26867306340E+04  0.27182463388E+04  0.15294330000E+03 0.  1.
<mgrwt>
<rscale>  0 0.41272468E+03</rscale>
<asrwt>0</asrwt>
<pdfrwt beam="1">  1        1 0.25310199E-01 0.41272468E+03</pdfrwt>
<pdfrwt beam="2">  1       -1 0.45980931E+00 0.41272468E+03</pdfrwt>
<totfact> 0.61529470E-01</totfact>
</mgrwt>
</event>
<event>
 4    1  0.2731969E-009  0.1029544E+04  0.7818608E-02  0.9276722E-01
          1   -1    0    0  501    0  0.00000000000E+00  0.00000000000E+00  0.31560051635E+04  0.31560051635E+04  0.50400000000E-02 0. -1.
         -1   -1    0    0    0  501 -0.00000000000E+00 -0.00000000000E+00 -0.65884956630E+03  0.65884956632E+03  0.50400000000E-02 0.  1.
    8880022    1    1    2    0    0 -0.50992077939E+03 -0.88122102543E+03 -0.86947815152E+02  0.10332092104E+04  0.15294330000E+03 0.  0.
    8880022    1    1    2    0    0  0.50992077939E+03  0.88122102543E+03  0.25841034124E+04  0.27816455194E+04  0.15294330000E+03 0.  0.
<mgrwt>
<rscale>  0 0.10295442E+04</rscale>
<asrwt>0</asrwt>
<pdfrwt beam="1">  1        1 0.48553925E+00 0.10295442E+04</pdfrwt>
<pdfrwt beam="2">  1       -1 0.10136147E+00 0.10295442E+04</pdfrwt>
<totfact> 0.43464232E-01</totfact>
</mgrwt>
</event>
<event>
 4    1  0.2731969E-009  0.1139060E+04  0.7818608E-02  0.9167936E-01
          1   -1    0    0  501    0  0.00000000000E+00  0.00000000000E+00  0.21688973140E+04  0.21688973140E+04  0.50400000000E-02 0. -1.
         -1   -1    0    0    0  501 -0.00000000000E+00 -0.00000000000E+00 -0.11784913202E+04  0.11784913202E+04  0.50400000000E-02 0.  1.
    8880022    1    1    2    0    0  0.16159119162E+03 -0.11171188195E+04 -0.67923998979E+03  0.13262069170E+04  0.15294330000E+03 0.  0.
    8880022    1    1    2    0    0 -0.16159119162E+03  0.11171188195E+04  0.16696459836E+04  0.20211817171E+04  0.15294330000E+03 0.  0.
<mgrwt>
<rscale>  0 0.11390601E+04</rscale>
<asrwt>0</asrwt>
<pdfrwt beam="1">  1        1 0.33367651E+00 0.11390601E+04</pdfrwt>
<pdfrwt beam="2">  1       -1 0.18130636E+00 0.11390601E+04</pdfrwt>
<totfact> 0.46207349E-01</totfact>
</mgrwt>
</event>
<event>
 4    1  0.2731969E-009  0.6646271E+03  0.7818608E-02  0.9779713E-01
         -1   -1    0    0    0  501 -0.00000000000E+00  0.00000000000E+00  0.11097517748E+04  0.11097517749E+04  0.50400000000E-02 0.  1.
          1   -1    0    0  501    0  0.00000000000E+00 -0.00000000000E+00 -0.99535365368E+03  0.99535365369E+03  0.50400000000E-02 0. -1.
    8880022    1    1    2    0    0  0.64669230882E+03 -0.11253647203E+02 -0.75817177907E+03  0.10082428708E+04  0.15294330000E+03 0.  0.
    8880022    1    1    2    0    0 -0.64669230882E+03  0.11253647203E+02  0.87256990024E+03  0.10968625578E+04  0.15294330000E+03 0.  0.
<mgrwt>
<rscale>  0 0.66462714E+03</rscale>
<asrwt>0</asrwt>
<pdfrwt beam="1">  1        1 0.15313133E+00 0.66462714E+03</pdfrwt>
<pdfrwt beam="2">  1       -1 0.17073104E+00 0.66462714E+03</pdfrwt>
<totfact> 0.39081842E+00</totfact>
</mgrwt>
</event>
<event>
 4    1  0.2731969E-009  0.1509940E+04  0.7818608E-02  0.8877870E-01
          1   -1    0    0  501    0  0.00000000000E+00  0.00000000000E+00  0.22188325151E+04  0.22188325151E+04  0.50400000000E-02 0. -1.
         -1   -1    0    0    0  501 -0.00000000000E+00 -0.00000000000E+00 -0.12727194608E+04  0.12727194608E+04  0.50400000000E-02 0.  1.
    8880022    1    1    2    0    0 -0.75977850778E+03  0.12958637329E+04  0.12393104727E+04  0.19534094030E+04  0.15294330000E+03 0.  0.
    8880022    1    1    2    0    0  0.75977850778E+03 -0.12958637329E+04 -0.29319741840E+03  0.15381425728E+04  0.15294330000E+03 0.  0.
<mgrwt>
<rscale>  0 0.15099397E+04</rscale>
<asrwt>0</asrwt>
<pdfrwt beam="1">  1        1 0.34135885E+00 0.15099397E+04</pdfrwt>
<pdfrwt beam="2">  1       -1 0.19580299E+00 0.15099397E+04</pdfrwt>
<totfact> 0.32144605E-01</totfact>
</mgrwt>
</event>
<event>
 4    1  0.2731969E-009  0.1025729E+04  0.7818608E-02  0.9280767E-01
         -1   -1    0    0    0  501 -0.00000000000E+00  0.00000000000E+00  0.19489497085E+04  0.19489497085E+04  0.50400000000E-02 0.  1.
          1   -1    0    0  501    0  0.00000000000E+00 -0.00000000000E+00 -0.68653466129E+03  0.68653466131E+03  0.50400000000E-02 0. -1.
    8880022    1    1    2    0    0  0.98283924801E+03  0.25051143135E+03  0.12403328650E+04  0.16095173915E+04  0.15294330000E+03 0.  0.
    8880022    1    1    2    0    0 -0.98283924801E+03 -0.25051143135E+03  0.22082182199E+02  0.10259669782E+04  0.15294330000E+03 0.  0.
<mgrwt>
<rscale>  0 0.10257293E+04</rscale>
<asrwt>0</asrwt>
<pdfrwt beam="1">  1        1 0.10562072E+00 0.10257293E+04</pdfrwt>
<pdfrwt beam="2">  1       -1 0.29983842E+00 0.10257293E+04</pdfrwt>
<totfact> 0.93842302E-01</totfact>
</mgrwt>
</event>
<event>
 4    1  0.2731969E-009  0.1701898E+04  0.7818608E-02  0.8760282E-01
         -1   -1    0    0    0  501 -0.00000000000E+00  0.00000000000E+00  0.19516579230E+04  0.19516579230E+04  0.50400000000E-02 0.  1.
          1   -1    0    0  501    0  0.00000000000E+00 -0.00000000000E+00 -0.25135249435E+04  0.25135249435E+04  0.50400000000E-02 0. -1.
    8880022    1    1    2    0    0 -0.26371074884E+03  0.16743725090E+04 -0.17097113200E+04  0.24123787242E+04  0.15294330000E+03 0.  0.
    8880022    1    1    2    0    0  0.26371074884E+03 -0.16743725090E+04  0.11478442994E+04  0.20528041423E+04  0.15294330000E+03 0.  0.
<mgrwt>
<rscale>  0 0.17018984E+04</rscale>
<asrwt>0</asrwt>
<pdfrwt beam="1">  1        1 0.38669615E+00 0.17018984E+04</pdfrwt>
<pdfrwt beam="2">  1       -1 0.30025506E+00 0.17018984E+04</pdfrwt>
<totfact> 0.40062963E-02</totfact>
</mgrwt>
</event>
<event>
 4    1  0.2731969E-009  0.5617358E+03  0.7818608E-02  0.9988135E-01
         -1   -1    0    0    0  501 -0.00000000000E+00  0.00000000000E+00  0.18399262862E+04  0.18399262862E+04  0.50400000000E-02 0.  1.
          1   -1    0    0  501    0  0.00000000000E+00 -0.00000000000E+00 -0.41408835041E+03  0.41408835045E+03  0.50400000000E-02 0. -1.
    8880022    1    1    2    0    0  0.48153746061E+03 -0.24551390205E+03  0.15755306750E+04  0.16726756897E+04  0.15294330000E+03 0.  0.
    8880022    1    1    2    0    0 -0.48153746061E+03  0.24551390205E+03 -0.14969273919E+03  0.58133894696E+03  0.15294330000E+03 0.  0.
<mgrwt>
<rscale>  0 0.56173575E+03</rscale>
<asrwt>0</asrwt>
<pdfrwt beam="1">  1        1 0.63705899E-01 0.56173575E+03</pdfrwt>
<pdfrwt beam="2">  1       -1 0.28306559E+00 0.56173575E+03</pdfrwt>
<totfact> 0.26429879E+00</totfact>
</mgrwt>
</event>
<event>
 4    1  0.2731969E-009  0.7517042E+03  0.7818608E-02  0.9632681E-01
         -1   -1    0    0    0  501 -0.00000000000E+00  0.00000000000E+00  0.20201584974E+04  0.20201584974E+04  0.50400000000E-02 0.  1.
          1   -1    0    0  501    0  0.00000000000E+00 -0.00000000000E+00 -0.78339291737E+03  0.78339291739E+03  0.50400000000E-02 0. -1.
    8880022    1    1    2    0    0  0.68973103703E+03 -0.25678507780E+03 -0.50561948965E+03  0.90593057182E+03  0.15294330000E+03 0.  0.
    8880022    1    1    2    0    0 -0.68973103703E+03  0.25678507780E+03  0.17423850697E+04  0.18976208430E+04  0.15294330000E+03 0.  0.
<mgrwt>
<rscale>  0 0.75170415E+03</rscale>
<asrwt>0</asrwt>
<pdfrwt beam="1">  1        1 0.12052199E+00 0.75170415E+03</pdfrwt>
<pdfrwt beam="2">  1       -1 0.31079362E+00 0.75170415E+03</pdfrwt>
<totfact> 0.68128572E-01</totfact>
</mgrwt>
</event>
<event>
 4    1  0.2731969E-009  0.4661582E+03  0.7818608E-02  0.1023010E+00
         -1   -1    0    0    0  501 -0.00000000000E+00  0.00000000000E+00  0.38894148730E+03  0.38894148733E+03  0.50400000000E-02 0.  1.
          1   -1    0    0  501    0  0.00000000000E+00 -0.00000000000E+00 -0.14142073964E+04  0.14142073964E+04  0.50400000000E-02 0. -1.
    8880022    1    1    2    0    0  0.37800963466E+03 -0.22587722292E+03 -0.12138552530E+04  0.13002876728E+04  0.15294330000E+03 0.  0.
    8880022    1    1    2    0    0 -0.37800963466E+03  0.22587722292E+03  0.18858934398E+03  0.50286121088E+03  0.15294330000E+03 0.  1.
<mgrwt>
<rscale>  0 0.46615819E+03</rscale>
<asrwt>0</asrwt>
<pdfrwt beam="1">  1        1 0.21757037E+00 0.46615819E+03</pdfrwt>
<pdfrwt beam="2">  1       -1 0.59837153E-01 0.46615819E+03</pdfrwt>
<totfact> 0.22999234E+01</totfact>
</mgrwt>
</event>
<event>
 4    1  0.2731969E-009  0.1214933E+04  0.7818608E-02  0.9099885E-01
          1   -1    0    0  501    0  0.00000000000E+00  0.00000000000E+00  0.19463620133E+04  0.19463620133E+04  0.50400000000E-02 0. -1.
         -1   -1    0    0    0  501 -0.00000000000E+00 -0.00000000000E+00 -0.25971771894E+04  0.25971771894E+04  0.50400000000E-02 0.  1.
    8880022    1    1    2    0    0 -0.89691300112E+02 -0.12019257789E+04 -0.22369398801E+04  0.25455769066E+04  0.15294330000E+03 0.  0.
    8880022    1    1    2    0    0  0.89691300112E+02  0.12019257789E+04  0.15861247039E+04  0.19979622961E+04  0.15294330000E+03 0.  0.
<mgrwt>
<rscale>  0 0.12149328E+04</rscale>
<asrwt>0</asrwt>
<pdfrwt beam="1">  1        1 0.29944031E+00 0.12149328E+04</pdfrwt>
<pdfrwt beam="2">  1       -1 0.39956572E+00 0.12149328E+04</pdfrwt>
<totfact> 0.23097028E-02</totfact>
</mgrwt>
</event>
<event>
 4    1  0.2731969E-009  0.6894916E+03  0.7818608E-02  0.9735374E-01
          1   -1    0    0  501    0  0.00000000000E+00  0.00000000000E+00  0.12235475936E+04  0.12235475936E+04  0.50400000000E-02 0. -1.
         -1   -1    0    0    0  501 -0.00000000000E+00 -0.00000000000E+00 -0.97811257458E+03  0.97811257459E+03  0.50400000000E-02 0.  1.
    8880022    1    1    2    0    0  0.55065138411E+03 -0.38573319408E+03  0.97737882922E+03  0.11961053769E+04  0.15294330000E+03 0.  0.
    8880022    1    1    2    0    0 -0.55065138411E+03  0.38573319408E+03 -0.73194381025E+03  0.10055547913E+04  0.15294330000E+03 0.  0.
<mgrwt>
<rscale>  0 0.68949162E+03</rscale>
<asrwt>0</asrwt>
<pdfrwt beam="1">  1        1 0.18823809E+00 0.68949162E+03</pdfrwt>
<pdfrwt beam="2">  1       -1 0.15047886E+00 0.68949162E+03</pdfrwt>
<totfact> 0.37356790E+00</totfact>
</mgrwt>
</event>
<event>
 4    1  0.2731969E-009  0.6479708E+03  0.7818608E-02  0.9810594E-01
         -1   -1    0    0    0  501 -0.00000000000E+00  0.00000000000E+00  0.86095847785E+03  0.86095847787E+03  0.50400000000E-02 0.  1.
          1   -1    0    0  501    0  0.00000000000E+00 -0.00000000000E+00 -0.19330494963E+04  0.19330494964E+04  0.50400000000E-02 0. -1.
    8880022    1    1    2    0    0  0.30843622691E+02  0.62890632415E+03 -0.17440447533E+04  0.18605263363E+04  0.15294330000E+03 0.  0.
    8880022    1    1    2    0    0 -0.30843622691E+02 -0.62890632415E+03  0.67195373479E+03  0.93348163792E+03  0.15294330000E+03 0.  0.
<mgrwt>
<rscale>  0 0.64797079E+03</rscale>
<asrwt>0</asrwt>
<pdfrwt beam="1">  1        1 0.29739223E+00 0.64797079E+03</pdfrwt>
<pdfrwt beam="2">  1       -1 0.13245515E+00 0.64797079E+03</pdfrwt>
<totfact> 0.17249864E+00</totfact>
</mgrwt>
</event>
<event>
 4    1  0.2731969E-009  0.1455246E+04  0.7818608E-02  0.8914772E-01
         -1   -1    0    0    0  501 -0.00000000000E+00  0.00000000000E+00  0.14610284588E+04  0.14610284588E+04  0.50400000000E-02 0.  1.
          1   -1    0    0  501    0  0.00000000000E+00 -0.00000000000E+00 -0.18577772717E+04  0.18577772718E+04  0.50400000000E-02 0. -1.
    8880022    1    1    2    0    0 -0.14114788157E+04 -0.31949339384E+03 -0.97630369367E+03  0.17524009334E+04  0.15294330000E+03 0.  0.
    8880022    1    1    2    0    0  0.14114788157E+04  0.31949339384E+03  0.57955488072E+03  0.15664047972E+04  0.15294330000E+03 0.  0.
<mgrwt>
<rscale>  0 0.14552457E+04</rscale>
<asrwt>0</asrwt>
<pdfrwt beam="1">  1        1 0.28581189E+00 0.14552457E+04</pdfrwt>
<pdfrwt beam="2">  1       -1 0.22477361E+00 0.14552457E+04</pdfrwt>
<totfact> 0.36134075E-01</totfact>
</mgrwt>
</event>
<event>
 4    1  0.2731969E-009  0.5976562E+03  0.7818608E-02  0.9910281E-01
          1   -1    0    0  501    0  0.00000000000E+00  0.00000000000E+00  0.91300301057E+03  0.91300301059E+03  0.50400000000E-02 0. -1.
         -1   -1    0    0    0  501 -0.00000000000E+00 -0.00000000000E+00 -0.92847171682E+03  0.92847171683E+03  0.50400000000E-02 0.  1.
    8880022    1    1    2    0    0  0.47139073223E+03  0.33405401180E+03  0.69265063267E+03  0.91485400868E+03  0.15294330000E+03 0.  0.
    8880022    1    1    2    0    0 -0.47139073223E+03 -0.33405401180E+03 -0.70811933892E+03  0.92662071874E+03  0.15294330000E+03 0.  1.
<mgrwt>
<rscale>  0 0.59765622E+03</rscale>
<asrwt>0</asrwt>
<pdfrwt beam="1">  1        1 0.14046200E+00 0.59765622E+03</pdfrwt>
<pdfrwt beam="2">  1       -1 0.14284180E+00 0.59765622E+03</pdfrwt>
<totfact> 0.74787203E+00</totfact>
</mgrwt>
</event>
<event>
 4    1  0.2731969E-009  0.8825091E+03  0.7818608E-02  0.9447714E-01
         -1   -1    0    0    0  501 -0.00000000000E+00  0.00000000000E+00  0.18044241713E+04  0.18044241713E+04  0.50400000000E-02 0.  1.
          1   -1    0    0  501    0  0.00000000000E+00 -0.00000000000E+00 -0.61988044382E+03  0.61988044384E+03  0.50400000000E-02 0. -1.
    8880022    1    1    2    0    0  0.60041984290E+03  0.62843198049E+03  0.12602846693E+04  0.15385512154E+04  0.15294330000E+03 0.  0.
    8880022    1    1    2    0    0 -0.60041984290E+03 -0.62843198049E+03 -0.75740941782E+02  0.88575339973E+03  0.15294330000E+03 0.  0.
<mgrwt>
<rscale>  0 0.88250915E+03</rscale>
<asrwt>0</asrwt>
<pdfrwt beam="1">  1        1 0.95366225E-01 0.88250915E+03</pdfrwt>
<pdfrwt beam="2">  1       -1 0.27760371E+00 0.88250915E+03</pdfrwt>
<totfact> 0.15487608E+00</totfact>
</mgrwt>
</event>
<event>
 4    1  0.2731969E-009  0.3504744E+03  0.7818608E-02  0.1062421E+00
         -1   -1    0    0    0  501 -0.00000000000E+00  0.00000000000E+00  0.43086424726E+03  0.43086424729E+03  0.50400000000E-02 0.  1.
          1   -1    0    0  501    0  0.00000000000E+00 -0.00000000000E+00 -0.14064402739E+04  0.14064402739E+04  0.50400000000E-02 0. -1.
    8880022    1    1    2    0    0  0.21051060050E+03  0.23478909246E+03  0.33249252578E+03  0.48309788198E+03  0.15294330000E+03 0.  1.
    8880022    1    1    2    0    0 -0.21051060050E+03 -0.23478909246E+03 -0.13080685524E+04  0.13542066392E+04  0.15294330000E+03 0.  0.
<mgrwt>
<rscale>  0 0.35047437E+03</rscale>
<asrwt>0</asrwt>
<pdfrwt beam="1">  1        1 0.21637542E+00 0.35047437E+03</pdfrwt>
<pdfrwt beam="2">  1       -1 0.66286808E-01 0.35047437E+03</pdfrwt>
<totfact> 0.19582795E+01</totfact>
</mgrwt>
</event>
<event>
 4    1  0.2731969E-009  0.9594602E+03  0.7818608E-02  0.9354161E-01
          1   -1    0    0  501    0  0.00000000000E+00  0.00000000000E+00  0.22731123896E+04  0.22731123896E+04  0.50400000000E-02 0. -1.
         -1   -1    0    0    0  501 -0.00000000000E+00 -0.00000000000E+00 -0.41945969851E+03  0.41945969854E+03  0.50400000000E-02 0.  1.
    8880022    1    1    2    0    0  0.94480360926E+03  0.67219209583E+02  0.67668851749E+03  0.11740831678E+04  0.15294330000E+03 0.  0.
    8880022    1    1    2    0    0 -0.94480360926E+03 -0.67219209583E+02  0.11769641736E+04  0.15184889203E+04  0.15294330000E+03 0.  0.
<mgrwt>
<rscale>  0 0.95946023E+03</rscale>
<asrwt>0</asrwt>
<pdfrwt beam="1">  1        1 0.34970959E+00 0.95946023E+03</pdfrwt>
<pdfrwt beam="2">  1       -1 0.64532262E-01 0.95946023E+03</pdfrwt>
<totfact> 0.48264124E+00</totfact>
</mgrwt>
</event>
<event>
 4    1  0.2731969E-009  0.8868219E+03  0.7818608E-02  0.9442206E-01
          1   -1    0    0  501    0  0.00000000000E+00  0.00000000000E+00  0.22565341222E+04  0.22565341222E+04  0.50400000000E-02 0. -1.
         -1   -1    0    0    0  501 -0.00000000000E+00 -0.00000000000E+00 -0.61174320153E+03  0.61174320155E+03  0.50400000000E-02 0.  1.
    8880022    1    1    2    0    0 -0.55722603949E+03 -0.67272627316E+03 -0.11833780721E+03  0.89468261820E+03  0.15294330000E+03 0.  0.
    8880022    1    1    2    0    0  0.55722603949E+03  0.67272627316E+03  0.17631287279E+04  0.19735947055E+04  0.15294330000E+03 0.  0.
<mgrwt>
<rscale>  0 0.88682194E+03</rscale>
<asrwt>0</asrwt>
<pdfrwt beam="1">  1        1 0.34715910E+00 0.88682194E+03</pdfrwt>
<pdfrwt beam="2">  1       -1 0.94114338E-01 0.88682194E+03</pdfrwt>
<totfact> 0.22508493E+00</totfact>
</mgrwt>
</event>
<event>
 4    1  0.2731969E-009  0.7388830E+03  0.7818608E-02  0.9652954E-01
         -1   -1    0    0    0  501 -0.00000000000E+00  0.00000000000E+00  0.23493466946E+04  0.23493466946E+04  0.50400000000E-02 0.  1.
          1   -1    0    0  501    0  0.00000000000E+00 -0.00000000000E+00 -0.12821552319E+04  0.12821552319E+04  0.50400000000E-02 0. -1.
    8880022    1    1    2    0    0 -0.70422970042E+03 -0.16314688485E+03 -0.11093890364E+04  0.13329261285E+04  0.15294330000E+03 0.  0.
    8880022    1    1    2    0    0  0.70422970042E+03  0.16314688485E+03  0.21765804991E+04  0.22985757980E+04  0.15294330000E+03 0.  0.
<mgrwt>
<rscale>  0 0.73888296E+03</rscale>
<asrwt>0</asrwt>
<pdfrwt beam="1">  1        1 0.19725465E+00 0.73888296E+03</pdfrwt>
<pdfrwt beam="2">  1       -1 0.36143795E+00 0.73888296E+03</pdfrwt>
<totfact> 0.13173962E-01</totfact>
</mgrwt>
</event>
<event>
 4    1  0.2731969E-009  0.1243131E+04  0.7818608E-02  0.9075920E-01
         -1   -1    0    0    0  501 -0.00000000000E+00  0.00000000000E+00  0.14207997733E+04  0.14207997733E+04  0.50400000000E-02 0.  1.
          1   -1    0    0  501    0  0.00000000000E+00 -0.00000000000E+00 -0.17638940269E+04  0.17638940269E+04  0.50400000000E-02 0. -1.
    8880022    1    1    2    0    0  0.14627061857E+03 -0.12249845501E+04 -0.11574721556E+04  0.16985628295E+04  0.15294330000E+03 0.  0.
    8880022    1    1    2    0    0 -0.14627061857E+03  0.12249845501E+04  0.81437790206E+03  0.14861309707E+04  0.15294330000E+03 0.  0.
<mgrwt>
<rscale>  0 0.12431307E+04</rscale>
<asrwt>0</asrwt>
<pdfrwt beam="1">  1        1 0.27136831E+00 0.12431307E+04</pdfrwt>
<pdfrwt beam="2">  1       -1 0.21858458E+00 0.12431307E+04</pdfrwt>
<totfact> 0.47276344E-01</totfact>
</mgrwt>
</event>
<event>
 4    1  0.2731969E-009  0.3007504E+03  0.7818608E-02  0.1084866E+00
          1   -1    0    0  501    0  0.00000000000E+00  0.00000000000E+00  0.81451915221E+03  0.81451915223E+03  0.50400000000E-02 0. -1.
         -1   -1    0    0    0  501 -0.00000000000E+00 -0.00000000000E+00 -0.53494264440E+03  0.53494264442E+03  0.50400000000E-02 0.  1.
    8880022    1    1    2    0    0  0.20087939710E+03 -0.16342150981E+03  0.74041673257E+03  0.79916688679E+03  0.15294330000E+03 0.  0.
    8880022    1    1    2    0    0 -0.20087939710E+03  0.16342150981E+03 -0.46084022476E+03  0.55029490986E+03  0.15294330000E+03 0.  0.
<mgrwt>
<rscale>  0 0.30075035E+03</rscale>
<asrwt>0</asrwt>
<pdfrwt beam="1">  1        1 0.12531064E+00 0.30075035E+03</pdfrwt>
<pdfrwt beam="2">  1       -1 0.82298869E-01 0.30075035E+03</pdfrwt>
<totfact> 0.34740332E+01</totfact>
</mgrwt>
</event>
<event>
 4    1  0.2731969E-009  0.9736657E+03  0.7818608E-02  0.9337909E-01
         -1   -1    0    0    0  501 -0.00000000000E+00  0.00000000000E+00  0.81055001658E+03  0.81055001660E+03  0.50400000000E-02 0.  1.
          1   -1    0    0  501    0  0.00000000000E+00 -0.00000000000E+00 -0.15447622977E+04  0.15447622977E+04  0.50400000000E-02 0. -1.
    8880022    1    1    2    0    0  0.58178222795E+03  0.76561261956E+03 -0.94746052895E+03  0.13585677572E+04  0.15294330000E+03 0.  0.
    8880022    1    1    2    0    0 -0.58178222795E+03 -0.76561261956E+03  0.21324824779E+03  0.99674455714E+03  0.15294330000E+03 0.  0.
<mgrwt>
<rscale>  0 0.97366570E+03</rscale>
<asrwt>0</asrwt>
<pdfrwt beam="1">  1        1 0.23765574E+00 0.97366570E+03</pdfrwt>
<pdfrwt beam="2">  1       -1 0.12470000E+00 0.97366570E+03</pdfrwt>
<totfact> 0.34612351E+00</totfact>
</mgrwt>
</event>
<event>
 4    1  0.2731969E-009  0.1110039E+04  0.7818608E-02  0.9195462E-01
          1   -1    0    0  501    0  0.00000000000E+00  0.00000000000E+00  0.25667266646E+04  0.25667266646E+04  0.50400000000E-02 0. -1.
         -1   -1    0    0    0  501 -0.00000000000E+00 -0.00000000000E+00 -0.62391915385E+03  0.62391915387E+03  0.50400000000E-02 0.  1.
    8880022    1    1    2    0    0 -0.10601031766E+04  0.29150576806E+03  0.17374435068E+04  0.20617701012E+04  0.15294330000E+03 0.  0.
    8880022    1    1    2    0    0  0.10601031766E+04 -0.29150576806E+03  0.20536400400E+03  0.11288757173E+04  0.15294330000E+03 0.  0.
<mgrwt>
<rscale>  0 0.11100387E+04</rscale>
<asrwt>0</asrwt>
<pdfrwt beam="1">  1        1 0.39488103E+00 0.11100387E+04</pdfrwt>
<pdfrwt beam="2">  1       -1 0.95987562E-01 0.11100387E+04</pdfrwt>
<totfact> 0.12776371E+00</totfact>
</mgrwt>
</event>
<event>
 4    1  0.2731969E-009  0.8128159E+03  0.7818608E-02  0.9541650E-01
          1   -1    0    0  501    0  0.00000000000E+00  0.00000000000E+00  0.32100367610E+04  0.32100367610E+04  0.50400000000E-02 0. -1.
         -1   -1    0    0    0  501 -0.00000000000E+00 -0.00000000000E+00 -0.29671527651E+03  0.29671527655E+03  0.50400000000E-02 0.  1.
    8880022    1    1    2    0    0  0.75476355234E+03 -0.26001938407E+03  0.24271498384E+04  0.25596339760E+04  0.15294330000E+03 0.  0.
    8880022    1    1    2    0    0 -0.75476355234E+03  0.26001938407E+03  0.48617164609E+03  0.94711806155E+03  0.15294330000E+03 0.  0.
<mgrwt>
<rscale>  0 0.81281594E+03</rscale>
<asrwt>0</asrwt>
<pdfrwt beam="1">  1        1 0.49385184E+00 0.81281594E+03</pdfrwt>
<pdfrwt beam="2">  1       -1 0.45648501E-01 0.81281594E+03</pdfrwt>
<totfact> 0.21222689E+00</totfact>
</mgrwt>
</event>
<event>
 4    1  0.2731969E-009  0.4640964E+03  0.7818608E-02  0.1023600E+00
         -1   -1    0    0    0  501 -0.00000000000E+00  0.00000000000E+00  0.36866811144E+03  0.36866811147E+03  0.50400000000E-02 0.  1.
          1   -1    0    0  501    0  0.00000000000E+00 -0.00000000000E+00 -0.80460761536E+03  0.80460761538E+03  0.50400000000E-02 0. -1.
    8880022    1    1    2    0    0  0.40237700698E+03 -0.17345472306E+03  0.89049653171E+02  0.47256247253E+03  0.15294330000E+03 0.  0.
    8880022    1    1    2    0    0 -0.40237700698E+03  0.17345472306E+03 -0.52498915709E+03  0.70071325432E+03  0.15294330000E+03 0.  0.
<mgrwt>
<rscale>  0 0.46409638E+03</rscale>
<asrwt>0</asrwt>
<pdfrwt beam="1">  1        1 0.12378579E+00 0.46409638E+03</pdfrwt>
<pdfrwt beam="2">  1       -1 0.56718171E-01 0.46409638E+03</pdfrwt>
<totfact> 0.72534837E+01</totfact>
</mgrwt>
</event>
<event>
 4    1  0.2731969E-009  0.4444695E+03  0.7818608E-02  0.1029384E+00
          1   -1    0    0  501    0  0.00000000000E+00  0.00000000000E+00  0.10013364729E+04  0.10013364729E+04  0.50400000000E-02 0. -1.
         -1   -1    0    0    0  501 -0.00000000000E+00 -0.00000000000E+00 -0.48674315576E+03  0.48674315579E+03  0.50400000000E-02 0.  1.
    8880022    1    1    2    0    0 -0.39334883027E+03 -0.13942084906E+03 -0.31647065169E+03  0.54562514772E+03  0.15294330000E+03 0.  0.
    8880022    1    1    2    0    0  0.39334883027E+03  0.13942084906E+03  0.83106396883E+03  0.94245448099E+03  0.15294330000E+03 0.  0.
<mgrwt>
<rscale>  0 0.44446949E+03</rscale>
<asrwt>0</asrwt>
<pdfrwt beam="1">  1        1 0.15405176E+00 0.44446949E+03</pdfrwt>
<pdfrwt beam="2">  1       -1 0.74883563E-01 0.44446949E+03</pdfrwt>
<totfact> 0.29087541E+01</totfact>
</mgrwt>
</event>
<event>
 4    1  0.2731969E-009  0.1158462E+04  0.7818608E-02  0.9150013E-01
          1   -1    0    0  501    0  0.00000000000E+00  0.00000000000E+00  0.23549591295E+04  0.23549591295E+04  0.50400000000E-02 0. -1.
         -1   -1    0    0    0  501 -0.00000000000E+00 -0.00000000000E+00 -0.77054642315E+03  0.77054642317E+03  0.50400000000E-02 0.  1.
    8880022    1    1    2    0    0 -0.10530811835E+04  0.45788849804E+03  0.15897107760E+04  0.19670317384E+04  0.15294330000E+03 0.  0.
    8880022    1    1    2    0    0  0.10530811835E+04 -0.45788849804E+03 -0.52980696722E+01  0.11584738142E+04  0.15294330000E+03 0.  0.
<mgrwt>
<rscale>  0 0.11584617E+04</rscale>
<asrwt>0</asrwt>
<pdfrwt beam="1">  1        1 0.36230140E+00 0.11584617E+04</pdfrwt>
<pdfrwt beam="2">  1       -1 0.11854561E+00 0.11584617E+04</pdfrwt>
<totfact> 0.10805663E+00</totfact>
</mgrwt>
</event>
<event>
 4    1  0.2731969E-009  0.8741912E+03  0.7818608E-02  0.9458431E-01
          1   -1    0    0  501    0  0.00000000000E+00  0.00000000000E+00  0.13715511618E+04  0.13715511618E+04  0.50400000000E-02 0. -1.
         -1   -1    0    0    0  501 -0.00000000000E+00 -0.00000000000E+00 -0.65576234991E+03  0.65576234993E+03  0.50400000000E-02 0.  1.
    8880022    1    1    2    0    0 -0.38802820566E+03  0.76827905625E+03 -0.35114334537E+02  0.87489614594E+03  0.15294330000E+03 0.  0.
    8880022    1    1    2    0    0  0.38802820566E+03 -0.76827905625E+03  0.75090314640E+03  0.11524173658E+04  0.15294330000E+03 0.  0.
<mgrwt>
<rscale>  0 0.87419120E+03</rscale>
<asrwt>0</asrwt>
<pdfrwt beam="1">  1        1 0.21100787E+00 0.87419120E+03</pdfrwt>
<pdfrwt beam="2">  1       -1 0.10088651E+00 0.87419120E+03</pdfrwt>
<totfact> 0.76645815E+00</totfact>
</mgrwt>
</event>
<event>
 4    1  0.2731969E-009  0.6243638E+03  0.7818608E-02  0.9856110E-01
         -1   -1    0    0    0  501 -0.00000000000E+00  0.00000000000E+00  0.16694339323E+04  0.16694339323E+04  0.50400000000E-02 0.  1.
          1   -1    0    0  501    0  0.00000000000E+00 -0.00000000000E+00 -0.35359524919E+03  0.35359524922E+03  0.50400000000E-02 0. -1.
    8880022    1    1    2    0    0 -0.60530595104E+03 -0.65727083228E+01  0.68447464748E+02  0.62810445255E+03  0.15294330000E+03 0.  0.
    8880022    1    1    2    0    0  0.60530595104E+03  0.65727083228E+01  0.12473912184E+04  0.13949247290E+04  0.15294330000E+03 0.  0.
<mgrwt>
<rscale>  0 0.62436379E+03</rscale>
<asrwt>0</asrwt>
<pdfrwt beam="1">  1        1 0.54399271E-01 0.62436379E+03</pdfrwt>
<pdfrwt beam="2">  1       -1 0.25683598E+00 0.62436379E+03</pdfrwt>
<totfact> 0.47189329E+00</totfact>
</mgrwt>
</event>
<event>
 4    1  0.6358074E-009  0.1683314E+04  0.7818608E-02  0.8770939E-01
         -1   -1    0    0    0  501 -0.00000000000E+00  0.00000000000E+00  0.32221037109E+04  0.32221037109E+04  0.50400000000E-02 0.  1.
          1   -1    0    0  501    0  0.00000000000E+00 -0.00000000000E+00 -0.23674686001E+04  0.23674686001E+04  0.50400000000E-02 0. -1.
    8880022    1    1    2    0    0  0.15806809483E+04 -0.55821351162E+03 -0.17884115729E+04  0.24560053323E+04  0.15294330000E+03 0.  0.
    8880022    1    1    2    0    0 -0.15806809483E+04  0.55821351162E+03  0.26430466838E+04  0.31335669788E+04  0.15294330000E+03 0.  0.
<mgrwt>
<rscale>  0 0.16833141E+04</rscale>
<asrwt>0</asrwt>
<pdfrwt beam="1">  1        1 0.36422594E+00 0.16833141E+04</pdfrwt>
<pdfrwt beam="2">  1       -1 0.49570826E+00 0.16833141E+04</pdfrwt>
<totfact> 0.24228148E-03</totfact>
</mgrwt>
</event>
<event>
 4    1  0.2731969E-009  0.1069035E+04  0.7818608E-02  0.9235909E-01
          1   -1    0    0  501    0  0.00000000000E+00  0.00000000000E+00  0.32339720193E+04  0.32339720193E+04  0.50400000000E-02 0. -1.
         -1   -1    0    0    0  501 -0.00000000000E+00 -0.00000000000E+00 -0.58593114151E+03  0.58593114153E+03  0.50400000000E-02 0.  1.
    8880022    1    1    2    0    0  0.13848004476E+03  0.10489365206E+04  0.12077582763E+03  0.10758359543E+04  0.15294330000E+03 0.  0.
    8880022    1    1    2    0    0 -0.13848004476E+03 -0.10489365206E+04  0.25272650501E+04  0.27440672065E+04  0.15294330000E+03 0.  0.
<mgrwt>
<rscale>  0 0.10690352E+04</rscale>
<asrwt>0</asrwt>
<pdfrwt beam="1">  1        1 0.49753416E+00 0.10690352E+04</pdfrwt>
<pdfrwt beam="2">  1       -1 0.90143251E-01 0.10690352E+04</pdfrwt>
<totfact> 0.49255266E-01</totfact>
</mgrwt>
</event>
<event>
 4    1  0.2731969E-009  0.8833113E+03  0.7818608E-02  0.9446687E-01
         -1   -1    0    0    0  501 -0.00000000000E+00  0.00000000000E+00  0.57731420075E+03  0.57731420078E+03  0.50400000000E-02 0.  1.
          1   -1    0    0  501    0  0.00000000000E+00 -0.00000000000E+00 -0.18119494604E+04  0.18119494604E+04  0.50400000000E-02 0. -1.
    8880022    1    1    2    0    0  0.84079681983E+03  0.22340090614E+03 -0.12195346602E+04  0.15058232624E+04  0.15294330000E+03 0.  0.
    8880022    1    1    2    0    0 -0.84079681983E+03 -0.22340090614E+03 -0.15100599429E+02  0.88344039879E+03  0.15294330000E+03 0.  0.
<mgrwt>
<rscale>  0 0.88331133E+03</rscale>
<asrwt>0</asrwt>
<pdfrwt beam="1">  1        1 0.27876145E+00 0.88331133E+03</pdfrwt>
<pdfrwt beam="2">  1       -1 0.88817570E-01 0.88331133E+03</pdfrwt>
<totfact> 0.50965850E+00</totfact>
</mgrwt>
</event>
<event>
 4    1  0.2731969E-009  0.7090356E+03  0.7818608E-02  0.9701904E-01
          1   -1    0    0  501    0  0.00000000000E+00  0.00000000000E+00  0.73098823127E+03  0.73098823129E+03  0.50400000000E-02 0. -1.
         -1   -1    0    0    0  501 -0.00000000000E+00 -0.00000000000E+00 -0.28866635860E+04  0.28866635860E+04  0.50400000000E-02 0.  1.
    8880022    1    1    2    0    0 -0.65107871477E+03  0.23544907942E+03  0.50087661223E+03  0.86810644251E+03  0.15294330000E+03 0.  0.
    8880022    1    1    2    0    0  0.65107871477E+03 -0.23544907942E+03 -0.26565519669E+04  0.27495453747E+04  0.15294330000E+03 0.  0.
<mgrwt>
<rscale>  0 0.70903555E+03</rscale>
<asrwt>0</asrwt>
<pdfrwt beam="1">  1        1 0.11245973E+00 0.70903555E+03</pdfrwt>
<pdfrwt beam="2">  1       -1 0.44410209E+00 0.70903555E+03</pdfrwt>
<totfact> 0.98923866E-02</totfact>
</mgrwt>
</event>
<event>
 4    1  0.2731969E-009  0.5856687E+03  0.7818608E-02  0.9935593E-01
          1   -1    0    0  501    0  0.00000000000E+00  0.00000000000E+00  0.84856410303E+03  0.84856410305E+03  0.50400000000E-02 0. -1.
         -1   -1    0    0    0  501 -0.00000000000E+00 -0.00000000000E+00 -0.14456281084E+04  0.14456281084E+04  0.50400000000E-02 0.  1.
    8880022    1    1    2    0    0 -0.56402944043E+03 -0.38561359790E+02  0.67507049940E+03  0.89371584987E+03  0.15294330000E+03 0.  0.
    8880022    1    1    2    0    0  0.56402944043E+03  0.38561359790E+02 -0.12721345047E+04  0.14004763616E+04  0.15294330000E+03 0.  0.
<mgrwt>
<rscale>  0 0.58566871E+03</rscale>
<asrwt>0</asrwt>
<pdfrwt beam="1">  1        1 0.13054832E+00 0.58566871E+03</pdfrwt>
<pdfrwt beam="2">  1       -1 0.22240432E+00 0.58566871E+03</pdfrwt>
<totfact> 0.22958347E+00</totfact>
</mgrwt>
</event>
<event>
 4    1  0.2731969E-009  0.5860557E+03  0.7818608E-02  0.9934766E-01
          1   -1    0    0  501    0  0.00000000000E+00  0.00000000000E+00  0.16353709004E+04  0.16353709004E+04  0.50400000000E-02 0. -1.
         -1   -1    0    0    0  501 -0.00000000000E+00 -0.00000000000E+00 -0.23345528774E+03  0.23345528779E+03  0.50400000000E-02 0.  1.
    8880022    1    1    2    0    0  0.33867089715E+03  0.45317946215E+03  0.40490548191E+03  0.71232696410E+03  0.15294330000E+03 0.  0.
    8880022    1    1    2    0    0 -0.33867089715E+03 -0.45317946215E+03  0.99701013073E+03  0.11564992241E+04  0.15294330000E+03 0.  0.
<mgrwt>
<rscale>  0 0.58605568E+03</rscale>
<asrwt>0</asrwt>
<pdfrwt beam="1">  1        1 0.25159552E+00 0.58605568E+03</pdfrwt>
<pdfrwt beam="2">  1       -1 0.35916199E-01 0.58605568E+03</pdfrwt>
<totfact> 0.41182080E+01</totfact>
</mgrwt>
</event>
<event>
 4    1  0.2731969E-009  0.8725822E+03  0.7818608E-02  0.9460519E-01
          1   -1    0    0  501    0  0.00000000000E+00  0.00000000000E+00  0.98648429490E+03  0.98648429491E+03  0.50400000000E-02 0. -1.
         -1   -1    0    0    0  501 -0.00000000000E+00 -0.00000000000E+00 -0.14957838258E+04  0.14957838258E+04  0.50400000000E-02 0.  1.
    8880022    1    1    2    0    0  0.20304610193E+03  0.83473369087E+03  0.60880431276E+03  0.10639748110E+04  0.15294330000E+03 0.  0.
    8880022    1    1    2    0    0 -0.20304610193E+03 -0.83473369087E+03 -0.11181038437E+04  0.14182933097E+04  0.15294330000E+03 0.  0.
<mgrwt>
<rscale>  0 0.87258221E+03</rscale>
<asrwt>0</asrwt>
<pdfrwt beam="1">  1        1 0.15176681E+00 0.87258221E+03</pdfrwt>
<pdfrwt beam="2">  1       -1 0.23012059E+00 0.87258221E+03</pdfrwt>
<totfact> 0.14980522E+00</totfact>
</mgrwt>
</event>
<event>
 4    1  0.2731969E-009  0.7832860E+03  0.7818608E-02  0.9584530E-01
          1   -1    0    0  501    0  0.00000000000E+00  0.00000000000E+00  0.15043545898E+04  0.15043545898E+04  0.50400000000E-02 0. -1.
         -1   -1    0    0    0  501 -0.00000000000E+00 -0.00000000000E+00 -0.68327095532E+03  0.68327095534E+03  0.50400000000E-02 0.  1.
    8880022    1    1    2    0    0 -0.72225214985E+03 -0.26171944816E+03  0.11050100833E+04  0.13544682258E+04  0.15294330000E+03 0.  0.
    8880022    1    1    2    0    0  0.72225214985E+03  0.26171944816E+03 -0.28392644878E+03  0.83315731938E+03  0.15294330000E+03 0.  0.
<mgrwt>
<rscale>  0 0.78328596E+03</rscale>
<asrwt>0</asrwt>
<pdfrwt beam="1">  1        1 0.23143917E+00 0.78328596E+03</pdfrwt>
<pdfrwt beam="2">  1       -1 0.10511861E+00 0.78328596E+03</pdfrwt>
<totfact> 0.57137427E+00</totfact>
</mgrwt>
</event>
<event>
 4    1  0.2731969E-009  0.1849541E+03  0.7818608E-02  0.1163093E+00
         -1   -1    0    0    0  501 -0.00000000000E+00  0.00000000000E+00  0.13131668012E+03  0.13131668022E+03  0.50400000000E-02 0.  1.
          1   -1    0    0  501    0  0.00000000000E+00 -0.00000000000E+00 -0.26259673344E+04  0.26259673344E+04  0.50400000000E-02 0. -1.
    8880022    1    1    2    0    0  0.96976161632E+02 -0.37576600494E+02 -0.25557999404E+04  0.25624834370E+04  0.15294330000E+03 0.  0.
    8880022    1    1    2    0    0 -0.96976161632E+02  0.37576600494E+02  0.61149286085E+02  0.19480057760E+03  0.15294330000E+03 0.  0.
<mgrwt>
<rscale>  0 0.18495413E+03</rscale>
<asrwt>0</asrwt>
<pdfrwt beam="1">  1        1 0.40399494E+00 0.18495413E+03</pdfrwt>
<pdfrwt beam="2">  1       -1 0.20202568E-01 0.18495413E+03</pdfrwt>
<totfact> 0.27261422E+01</totfact>
</mgrwt>
</event>
<event>
 4    1  0.2731969E-009  0.8872932E+03  0.7818608E-02  0.9441606E-01
          1   -1    0    0  501    0  0.00000000000E+00  0.00000000000E+00  0.18979865406E+04  0.18979865406E+04  0.50400000000E-02 0. -1.
         -1   -1    0    0    0  501 -0.00000000000E+00 -0.00000000000E+00 -0.71862025177E+03  0.71862025179E+03  0.50400000000E-02 0.  1.
    8880022    1    1    2    0    0 -0.86992514867E+03  0.84426002398E+02 -0.26099537054E+03  0.92488256045E+03  0.15294330000E+03 0.  0.
    8880022    1    1    2    0    0  0.86992514867E+03 -0.84426002398E+02  0.14403616594E+04  0.16917242320E+04  0.15294330000E+03 0.  0.
<mgrwt>
<rscale>  0 0.88729317E+03</rscale>
<asrwt>0</asrwt>
<pdfrwt beam="1">  1        1 0.29199792E+00 0.88729317E+03</pdfrwt>
<pdfrwt beam="2">  1       -1 0.11055696E+00 0.88729317E+03</pdfrwt>
<totfact> 0.27058174E+00</totfact>
</mgrwt>
</event>
<event>
 4    1  0.2731969E-009  0.6361315E+03  0.7818608E-02  0.9833156E-01
         -1   -1    0    0    0  501 -0.00000000000E+00  0.00000000000E+00  0.27494495799E+03  0.27494495803E+03  0.50400000000E-02 0.  1.
          1   -1    0    0  501    0  0.00000000000E+00 -0.00000000000E+00 -0.29231070558E+04  0.29231070558E+04  0.50400000000E-02 0. -1.
    8880022    1    1    2    0    0  0.93469979558E+02 -0.61035646789E+03 -0.24507937517E+04  0.25320057902E+04  0.15294330000E+03 0.  0.
    8880022    1    1    2    0    0 -0.93469979558E+02  0.61035646789E+03 -0.19736834607E+03  0.66604622364E+03  0.15294330000E+03 0.  0.
<mgrwt>
<rscale>  0 0.63613152E+03</rscale>
<asrwt>0</asrwt>
<pdfrwt beam="1">  1        1 0.44970876E+00 0.63613152E+03</pdfrwt>
<pdfrwt beam="2">  1       -1 0.42299226E-01 0.63613152E+03</pdfrwt>
<totfact> 0.40856271E+00</totfact>
</mgrwt>
</event>
<event>
 4    1  0.2731969E-009  0.6975658E+03  0.7818608E-02  0.9721404E-01
         -1   -1    0    0    0  501 -0.00000000000E+00  0.00000000000E+00  0.14698320813E+04  0.14698320813E+04  0.50400000000E-02 0.  1.
          1   -1    0    0  501    0  0.00000000000E+00 -0.00000000000E+00 -0.50981410118E+03  0.50981410121E+03  0.50400000000E-02 0. -1.
    8880022    1    1    2    0    0  0.64572245770E+03 -0.21505552994E+03 -0.10610684374E+03  0.70558960355E+03  0.15294330000E+03 0.  0.
    8880022    1    1    2    0    0 -0.64572245770E+03  0.21505552994E+03  0.10661248239E+04  0.12740565790E+04  0.15294330000E+03 0.  0.
<mgrwt>
<rscale>  0 0.69756579E+03</rscale>
<asrwt>0</asrwt>
<pdfrwt beam="1">  1        1 0.78432940E-01 0.69756579E+03</pdfrwt>
<pdfrwt beam="2">  1       -1 0.22612801E+00 0.69756579E+03</pdfrwt>
<totfact> 0.45227812E+00</totfact>
</mgrwt>
</event>
<event>
 4    1  0.2731969E-009  0.2382336E+04  0.7818608E-02  0.8446146E-01
          1   -1    0    0  501    0  0.00000000000E+00  0.00000000000E+00  0.16449184099E+04  0.16449184099E+04  0.50400000000E-02 0. -1.
         -1   -1    0    0    0  501 -0.00000000000E+00 -0.00000000000E+00 -0.39008404697E+04  0.39008404697E+04  0.50400000000E-02 0.  1.
    8880022    1    1    2    0    0  0.15062781173E+04 -0.18393638878E+04 -0.20702852494E+04  0.31562011890E+04  0.15294330000E+03 0.  0.
    8880022    1    1    2    0    0 -0.15062781173E+04  0.18393638878E+04 -0.18563681041E+03  0.23895576906E+04  0.15294330000E+03 0.  0.
<mgrwt>
<rscale>  0 0.23823360E+04</rscale>
<asrwt>0</asrwt>
<pdfrwt beam="1">  1        1 0.25306437E+00 0.23823360E+04</pdfrwt>
<pdfrwt beam="2">  1       -1 0.60012930E+00 0.23823360E+04</pdfrwt>
<totfact> 0.19116306E-03</totfact>
</mgrwt>
</event>
<event>
 4    1  0.2731969E-009  0.7151208E+03  0.7818608E-02  0.9691717E-01
         -1   -1    0    0    0  501 -0.00000000000E+00  0.00000000000E+00  0.90730537444E+03  0.90730537446E+03  0.50400000000E-02 0.  1.
          1   -1    0    0  501    0  0.00000000000E+00 -0.00000000000E+00 -0.13327897064E+04  0.13327897064E+04  0.50400000000E-02 0. -1.
    8880022    1    1    2    0    0 -0.67051795460E+03  0.19598939180E+03  0.63812108677E+03  0.95843431884E+03  0.15294330000E+03 0.  0.
    8880022    1    1    2    0    0  0.67051795460E+03 -0.19598939180E+03 -0.10636054187E+04  0.12816607620E+04  0.15294330000E+03 0.  0.
<mgrwt>
<rscale>  0 0.71512084E+03</rscale>
<asrwt>0</asrwt>
<pdfrwt beam="1">  1        1 0.20504457E+00 0.71512084E+03</pdfrwt>
<pdfrwt beam="2">  1       -1 0.13958544E+00 0.71512084E+03</pdfrwt>
<totfact> 0.37932275E+00</totfact>
</mgrwt>
</event>
<event>
 4    1  0.2731969E-009  0.9556676E+03  0.7818608E-02  0.9358550E-01
         -1   -1    0    0    0  501 -0.00000000000E+00  0.00000000000E+00  0.10118309059E+04  0.10118309059E+04  0.50400000000E-02 0.  1.
          1   -1    0    0  501    0  0.00000000000E+00 -0.00000000000E+00 -0.10011600308E+04  0.10011600308E+04  0.50400000000E-02 0. -1.
    8880022    1    1    2    0    0  0.26095033946E+03  0.90653944611E+03 -0.31042865592E+03  0.10048216013E+04  0.15294330000E+03 0.  0.
    8880022    1    1    2    0    0 -0.26095033946E+03 -0.90653944611E+03  0.32109953103E+03  0.10081693354E+04  0.15294330000E+03 0.  1.
<mgrwt>
<rscale>  0 0.95566757E+03</rscale>
<asrwt>0</asrwt>
<pdfrwt beam="1">  1        1 0.15402462E+00 0.95566757E+03</pdfrwt>
<pdfrwt beam="2">  1       -1 0.15566629E+00 0.95566757E+03</pdfrwt>
<totfact> 0.47999484E+00</totfact>
</mgrwt>
</event>
<event>
 4    1  0.2731969E-009  0.1957883E+04  0.7818608E-02  0.8626569E-01
         -1   -1    0    0    0  501 -0.00000000000E+00  0.00000000000E+00  0.29520552980E+04  0.29520552980E+04  0.50400000000E-02 0.  1.
          1   -1    0    0  501    0  0.00000000000E+00 -0.00000000000E+00 -0.18198087817E+04  0.18198087817E+04  0.50400000000E-02 0. -1.
    8880022    1    1    2    0    0 -0.17362135414E+04  0.89189462229E+03  0.18431031477E+04  0.26889281033E+04  0.15294330000E+03 0.  0.
    8880022    1    1    2    0    0  0.17362135414E+04 -0.89189462229E+03 -0.71085663138E+03  0.20829359764E+04  0.15294330000E+03 0.  0.
<mgrwt>
<rscale>  0 0.19578828E+04</rscale>
<asrwt>0</asrwt>
<pdfrwt beam="1">  1        1 0.27997058E+00 0.19578828E+04</pdfrwt>
<pdfrwt beam="2">  1       -1 0.45416235E+00 0.19578828E+04</pdfrwt>
<totfact> 0.10647143E-02</totfact>
</mgrwt>
</event>
<event>
 4    1  0.2731969E-009  0.8298080E+03  0.7818608E-02  0.9517846E-01
          1   -1    0    0  501    0  0.00000000000E+00  0.00000000000E+00  0.42514419622E+04  0.42514419622E+04  0.50400000000E-02 0. -1.
         -1   -1    0    0    0  501 -0.00000000000E+00 -0.00000000000E+00 -0.94657705868E+03  0.94657705869E+03  0.50400000000E-02 0.  1.
    8880022    1    1    2    0    0  0.74749378043E+03 -0.32625554043E+03  0.40186659563E+04  0.41034445715E+04  0.15294330000E+03 0.  0.
    8880022    1    1    2    0    0 -0.74749378043E+03  0.32625554043E+03 -0.71380105279E+03  0.10945744495E+04  0.15294330000E+03 0.  0.
<mgrwt>
<rscale>  0 0.82980798E+03</rscale>
<asrwt>0</asrwt>
<pdfrwt beam="1">  1        1 0.65406799E+00 0.82980798E+03</pdfrwt>
<pdfrwt beam="2">  1       -1 0.14562724E+00 0.82980798E+03</pdfrwt>
<totfact> 0.23764532E-02</totfact>
</mgrwt>
</event>
<event>
 4    1  0.2731969E-009  0.9123226E+03  0.7818608E-02  0.9410307E-01
         -1   -1    0    0    0  501 -0.00000000000E+00  0.00000000000E+00  0.95836522882E+03  0.95836522883E+03  0.50400000000E-02 0.  1.
          1   -1    0    0  501    0  0.00000000000E+00 -0.00000000000E+00 -0.87860717312E+03  0.87860717313E+03  0.50400000000E-02 0. -1.
    8880022    1    1    2    0    0  0.48579845637E+03 -0.75692845446E+03  0.13843051377E+03  0.92276513021E+03  0.15294330000E+03 0.  0.
    8880022    1    1    2    0    0 -0.48579845637E+03  0.75692845446E+03 -0.58672458071E+02  0.91420727175E+03  0.15294330000E+03 0.  0.
<mgrwt>
<rscale>  0 0.91232257E+03</rscale>
<asrwt>0</asrwt>
<pdfrwt beam="1">  1        1 0.13517034E+00 0.91232257E+03</pdfrwt>
<pdfrwt beam="2">  1       -1 0.14744080E+00 0.91232257E+03</pdfrwt>
<totfact> 0.70099831E+00</totfact>
</mgrwt>
</event>
<event>
 4    1  0.2731969E-009  0.8149338E+03  0.7818608E-02  0.9538649E-01
         -1   -1    0    0    0  501 -0.00000000000E+00  0.00000000000E+00  0.71342702118E+03  0.71342702120E+03  0.50400000000E-02 0.  1.
          1   -1    0    0  501    0  0.00000000000E+00 -0.00000000000E+00 -0.10449657844E+04  0.10449657844E+04  0.50400000000E-02 0. -1.
    8880022    1    1    2    0    0  0.26953924195E+03 -0.75370690211E+03 -0.45626845496E+03  0.93396897874E+03  0.15294330000E+03 0.  0.
    8880022    1    1    2    0    0 -0.26953924195E+03  0.75370690211E+03  0.12472969178E+03  0.82442382684E+03  0.15294330000E+03 0.  0.
<mgrwt>
<rscale>  0 0.81493383E+03</rscale>
<asrwt>0</asrwt>
<pdfrwt beam="1">  1        1 0.16076397E+00 0.81493383E+03</pdfrwt>
<pdfrwt beam="2">  1       -1 0.10975800E+00 0.81493383E+03</pdfrwt>
<totfact> 0.10966942E+01</totfact>
</mgrwt>
</event>
<event>
 4    1  0.2731969E-009  0.1456565E+04  0.7818608E-02  0.8913862E-01
          1   -1    0    0  501    0  0.00000000000E+00  0.00000000000E+00  0.23024705301E+04  0.23024705301E+04  0.50400000000E-02 0. -1.
         -1   -1    0    0    0  501 -0.00000000000E+00 -0.00000000000E+00 -0.11675765722E+04  0.11675765722E+04  0.50400000000E-02 0.  1.
    8880022    1    1    2    0    0 -0.82407908337E+03  0.11912530075E+04 -0.22917693683E+03  0.14744842437E+04  0.15294330000E+03 0.  0.
    8880022    1    1    2    0    0  0.82407908337E+03 -0.11912530075E+04  0.13640708947E+04  0.19955628585E+04  0.15294330000E+03 0.  0.
<mgrwt>
<rscale>  0 0.14565650E+04</rscale>
<asrwt>0</asrwt>
<pdfrwt beam="1">  1        1 0.35422623E+00 0.14565650E+04</pdfrwt>
<pdfrwt beam="2">  1       -1 0.17962717E+00 0.14565650E+04</pdfrwt>
<totfact> 0.36941210E-01</totfact>
</mgrwt>
</event>
<event>
 4    1  0.2731969E-009  0.9629982E+03  0.7818608E-02  0.9350085E-01
          1   -1    0    0  501    0  0.00000000000E+00  0.00000000000E+00  0.13197457393E+04  0.13197457393E+04  0.50400000000E-02 0. -1.
         -1   -1    0    0    0  501 -0.00000000000E+00 -0.00000000000E+00 -0.13942569433E+04  0.13942569433E+04  0.50400000000E-02 0.  1.
    8880022    1    1    2    0    0  0.95043329280E+03  0.25504316973E+02 -0.99296871353E+03  0.13832398322E+04  0.15294330000E+03 0.  0.
    8880022    1    1    2    0    0 -0.95043329280E+03 -0.25504316973E+02  0.91845750953E+03  0.13307628504E+04  0.15294330000E+03 0.  0.
<mgrwt>
<rscale>  0 0.96299822E+03</rscale>
<asrwt>0</asrwt>
<pdfrwt beam="1">  1        1 0.20303780E+00 0.96299822E+03</pdfrwt>
<pdfrwt beam="2">  1       -1 0.21450107E+00 0.96299822E+03</pdfrwt>
<totfact> 0.10624275E+00</totfact>
</mgrwt>
</event>
<event>
 4    1  0.2731969E-009  0.9241619E+03  0.7818608E-02  0.9395872E-01
         -1   -1    0    0    0  501 -0.00000000000E+00  0.00000000000E+00  0.95799055576E+03  0.95799055578E+03  0.50400000000E-02 0.  1.
          1   -1    0    0  501    0  0.00000000000E+00 -0.00000000000E+00 -0.16842787298E+04  0.16842787298E+04  0.50400000000E-02 0. -1.
    8880022    1    1    2    0    0 -0.74781575972E+03  0.52101349963E+03 -0.12695203061E+04  0.15702728865E+04  0.15294330000E+03 0.  0.
    8880022    1    1    2    0    0  0.74781575972E+03 -0.52101349963E+03  0.54323213212E+03  0.10719963991E+04  0.15294330000E+03 0.  0.
<mgrwt>
<rscale>  0 0.92416185E+03</rscale>
<asrwt>0</asrwt>
<pdfrwt beam="1">  1        1 0.25911980E+00 0.92416185E+03</pdfrwt>
<pdfrwt beam="2">  1       -1 0.14738316E+00 0.92416185E+03</pdfrwt>
<totfact> 0.18206147E+00</totfact>
</mgrwt>
</event>
<event>
 4    1  0.2731969E-009  0.1299543E+04  0.7818608E-02  0.9029928E-01
         -1   -1    0    0    0  501 -0.00000000000E+00  0.00000000000E+00  0.11487001749E+04  0.11487001750E+04  0.50400000000E-02 0.  1.
          1   -1    0    0  501    0  0.00000000000E+00 -0.00000000000E+00 -0.33668050010E+04  0.33668050010E+04  0.50400000000E-02 0. -1.
    8880022    1    1    2    0    0  0.70287363299E+03  0.10823070122E+04  0.58550607555E+03  0.14253521776E+04  0.15294330000E+03 0.  0.
    8880022    1    1    2    0    0 -0.70287363299E+03 -0.10823070122E+04 -0.28036109016E+04  0.30901529984E+04  0.15294330000E+03 0.  0.
<mgrwt>
<rscale>  0 0.12995428E+04</rscale>
<asrwt>0</asrwt>
<pdfrwt beam="1">  1        1 0.51797000E+00 0.12995428E+04</pdfrwt>
<pdfrwt beam="2">  1       -1 0.17672311E+00 0.12995428E+04</pdfrwt>
<totfact> 0.68425476E-02</totfact>
</mgrwt>
</event>
<event>
 4    1  0.2731969E-009  0.8905046E+03  0.7818608E-02  0.9437530E-01
          1   -1    0    0  501    0  0.00000000000E+00  0.00000000000E+00  0.20452713184E+04  0.20452713185E+04  0.50400000000E-02 0. -1.
         -1   -1    0    0    0  501 -0.00000000000E+00 -0.00000000000E+00 -0.21186885564E+04  0.21186885564E+04  0.50400000000E-02 0.  1.
    8880022    1    1    2    0    0 -0.38042302304E+03 -0.79049669940E+03  0.18451509667E+04  0.20487997587E+04  0.15294330000E+03 0.  0.
    8880022    1    1    2    0    0  0.38042302304E+03  0.79049669940E+03 -0.19185682046E+04  0.21151601162E+04  0.15294330000E+03 0.  0.
<mgrwt>
<rscale>  0 0.89050455E+03</rscale>
<asrwt>0</asrwt>
<pdfrwt beam="1">  1        1 0.31465713E+00 0.89050455E+03</pdfrwt>
<pdfrwt beam="2">  1       -1 0.32595209E+00 0.89050455E+03</pdfrwt>
<totfact> 0.65374988E-02</totfact>
</mgrwt>
</event>
<event>
 4    1  0.2731969E-009  0.1351329E+04  0.7818608E-02  0.8989823E-01
          1   -1    0    0  501    0  0.00000000000E+00  0.00000000000E+00  0.28380371339E+04  0.28380371339E+04  0.50400000000E-02 0. -1.
         -1   -1    0    0    0  501 -0.00000000000E+00 -0.00000000000E+00 -0.69045824728E+03  0.69045824730E+03  0.50400000000E-02 0.  1.
    8880022    1    1    2    0    0 -0.44337392449E+03 -0.12673272389E+04  0.15342054504E+04  0.20444746965E+04  0.15294330000E+03 0.  1.
    8880022    1    1    2    0    0  0.44337392449E+03  0.12673272389E+04  0.61337343626E+03  0.14840206848E+04  0.15294330000E+03 0.  0.
<mgrwt>
<rscale>  0 0.13513291E+04</rscale>
<asrwt>0</asrwt>
<pdfrwt beam="1">  1        1 0.43662109E+00 0.13513291E+04</pdfrwt>
<pdfrwt beam="2">  1       -1 0.10622435E+00 0.13513291E+04</pdfrwt>
<totfact> 0.63172064E-01</totfact>
</mgrwt>
</event>
<event>
 4    1  0.2731969E-009  0.2440384E+03  0.7818608E-02  0.1117131E+00
          1   -1    0    0  501    0  0.00000000000E+00  0.00000000000E+00  0.12786598983E+04  0.12786598983E+04  0.50400000000E-02 0. -1.
         -1   -1    0    0    0  501 -0.00000000000E+00 -0.00000000000E+00 -0.18080748366E+03  0.18080748373E+03  0.50400000000E-02 0.  1.
    8880022    1    1    2    0    0  0.10226713856E+03 -0.16032622435E+03  0.11776842811E+04  0.12027031989E+04  0.15294330000E+03 0.  0.
    8880022    1    1    2    0    0 -0.10226713856E+03  0.16032622435E+03 -0.79831866377E+02  0.25676418315E+03  0.15294330000E+03 0.  0.
<mgrwt>
<rscale>  0 0.24403836E+03</rscale>
<asrwt>0</asrwt>
<pdfrwt beam="1">  1        1 0.19671691E+00 0.24403836E+03</pdfrwt>
<pdfrwt beam="2">  1       -1 0.27816535E-01 0.24403836E+03</pdfrwt>
<totfact> 0.11942389E+02</totfact>
</mgrwt>
</event>
<event>
 4    1  0.2731969E-009  0.8414282E+03  0.7818608E-02  0.9501915E-01
         -1   -1    0    0    0  501 -0.00000000000E+00  0.00000000000E+00  0.12993324554E+04  0.12993324554E+04  0.50400000000E-02 0.  1.
          1   -1    0    0  501    0  0.00000000000E+00 -0.00000000000E+00 -0.10163751555E+04  0.10163751556E+04  0.50400000000E-02 0. -1.
    8880022    1    1    2    0    0  0.82220785780E+03  0.92649438450E+02 -0.64712332078E+03  0.10614941946E+04  0.15294330000E+03 0.  0.
    8880022    1    1    2    0    0 -0.82220785780E+03 -0.92649438450E+02  0.93008062062E+03  0.12542134163E+04  0.15294330000E+03 0.  0.
<mgrwt>
<rscale>  0 0.84142815E+03</rscale>
<asrwt>0</asrwt>
<pdfrwt beam="1">  1        1 0.15636541E+00 0.84142815E+03</pdfrwt>
<pdfrwt beam="2">  1       -1 0.19989730E+00 0.84142815E+03</pdfrwt>
<totfact> 0.22751053E+00</totfact>
</mgrwt>
</event>
<event>
 4    1  0.2731969E-009  0.9276966E+03  0.7818608E-02  0.9391607E-01
         -1   -1    0    0    0  501 -0.00000000000E+00  0.00000000000E+00  0.46038271820E+03  0.46038271823E+03  0.50400000000E-02 0.  1.
          1   -1    0    0  501    0  0.00000000000E+00 -0.00000000000E+00 -0.25495483199E+04  0.25495483199E+04  0.50400000000E-02 0. -1.
    8880022    1    1    2    0    0  0.33460993550E+03 -0.85162517088E+03 -0.26724531512E+03  0.96542268053E+03  0.15294330000E+03 0.  0.
    8880022    1    1    2    0    0 -0.33460993550E+03  0.85162517088E+03 -0.18219202866E+04  0.20445083576E+04  0.15294330000E+03 0.  0.
<mgrwt>
<rscale>  0 0.92769655E+03</rscale>
<asrwt>0</asrwt>
<pdfrwt beam="1">  1        1 0.39223820E+00 0.92769655E+03</pdfrwt>
<pdfrwt beam="2">  1       -1 0.70828112E-01 0.92769655E+03</pdfrwt>
<totfact> 0.25979094E+00</totfact>
</mgrwt>
</event>
<event>
 4    1  0.2731969E-009  0.6627915E+03  0.7818608E-02  0.9783068E-01
         -1   -1    0    0    0  501 -0.00000000000E+00  0.00000000000E+00  0.13248853178E+04  0.13248853178E+04  0.50400000000E-02 0.  1.
          1   -1    0    0  501    0  0.00000000000E+00 -0.00000000000E+00 -0.21061149511E+04  0.21061149511E+04  0.50400000000E-02 0. -1.
    8880022    1    1    2    0    0  0.48332364569E+03 -0.42696511381E+03  0.11840683611E+04  0.13569489642E+04  0.15294330000E+03 0.  0.
    8880022    1    1    2    0    0 -0.48332364569E+03  0.42696511381E+03 -0.19652979944E+04  0.20740513047E+04  0.15294330000E+03 0.  0.
<mgrwt>
<rscale>  0 0.66279153E+03</rscale>
<asrwt>0</asrwt>
<pdfrwt beam="1">  1        1 0.32401768E+00 0.66279153E+03</pdfrwt>
<pdfrwt beam="2">  1       -1 0.20382851E+00 0.66279153E+03</pdfrwt>
<totfact> 0.39060201E-01</totfact>
</mgrwt>
</event>
<event>
 4    1  0.2731969E-009  0.1245496E+04  0.7818608E-02  0.9073940E-01
         -1   -1    0    0    0  501 -0.00000000000E+00  0.00000000000E+00  0.13470464853E+04  0.13470464853E+04  0.50400000000E-02 0.  1.
          1   -1    0    0  501    0  0.00000000000E+00 -0.00000000000E+00 -0.25716844496E+04  0.25716844496E+04  0.50400000000E-02 0. -1.
    8880022    1    1    2    0    0  0.12322629502E+04  0.96939083924E+02  0.84368800606E+03  0.15043504476E+04  0.15294330000E+03 0.  0.
    8880022    1    1    2    0    0 -0.12322629502E+04 -0.96939083924E+02 -0.20683259704E+04  0.24143804873E+04  0.15294330000E+03 0.  0.
<mgrwt>
<rscale>  0 0.12454962E+04</rscale>
<asrwt>0</asrwt>
<pdfrwt beam="1">  1        1 0.39564376E+00 0.12454962E+04</pdfrwt>
<pdfrwt beam="2">  1       -1 0.20723792E+00 0.12454962E+04</pdfrwt>
<totfact> 0.15876992E-01</totfact>
</mgrwt>
</event>
<event>
 4    1  0.2731969E-009  0.3551007E+03  0.7818608E-02  0.1060541E+00
          1   -1    0    0  501    0  0.00000000000E+00  0.00000000000E+00  0.58387314026E+03  0.58387314028E+03  0.50400000000E-02 0. -1.
         -1   -1    0    0    0  501 -0.00000000000E+00 -0.00000000000E+00 -0.77761457257E+03  0.77761457258E+03  0.50400000000E-02 0.  1.
    8880022    1    1    2    0    0  0.31387153089E+03  0.64726427054E+02 -0.67541156364E+03  0.76307095449E+03  0.15294330000E+03 0.  0.
    8880022    1    1    2    0    0 -0.31387153089E+03 -0.64726427054E+02  0.48167013134E+03  0.59841675838E+03  0.15294330000E+03 0.  0.
<mgrwt>
<rscale>  0 0.35510069E+03</rscale>
<asrwt>0</asrwt>
<pdfrwt beam="1">  1        1 0.89826637E-01 0.35510069E+03</pdfrwt>
<pdfrwt beam="2">  1       -1 0.11963301E+00 0.35510069E+03</pdfrwt>
<totfact> 0.24198750E+01</totfact>
</mgrwt>
</event>
<event>
 4    1  0.2731969E-009  0.4464750E+03  0.7818608E-02  0.1028778E+00
         -1   -1    0    0    0  501 -0.00000000000E+00  0.00000000000E+00  0.17458685046E+03  0.17458685054E+03  0.50400000000E-02 0.  1.
          1   -1    0    0  501    0  0.00000000000E+00 -0.00000000000E+00 -0.15649209383E+04  0.15649209383E+04  0.50400000000E-02 0. -1.
    8880022    1    1    2    0    0  0.81108873933E+02 -0.41154540199E+03 -0.11474313091E+04  0.12312345550E+04  0.15294330000E+03 0.  0.
    8880022    1    1    2    0    0 -0.81108873933E+02  0.41154540199E+03 -0.24290277879E+03  0.50827323389E+03  0.15294330000E+03 0.  0.
<mgrwt>
<rscale>  0 0.44647499E+03</rscale>
<asrwt>0</asrwt>
<pdfrwt beam="1">  1        1 0.24075706E+00 0.44647499E+03</pdfrwt>
<pdfrwt beam="2">  1       -1 0.26859516E-01 0.44647499E+03</pdfrwt>
<totfact> 0.77833110E+01</totfact>
</mgrwt>
</event>
<event>
 4    1  0.2731969E-009  0.5571130E+03  0.7818608E-02  0.9998608E-01
          1   -1    0    0  501    0  0.00000000000E+00  0.00000000000E+00  0.46975154028E+03  0.46975154030E+03  0.50400000000E-02 0. -1.
         -1   -1    0    0    0  501 -0.00000000000E+00 -0.00000000000E+00 -0.16388474262E+04  0.16388474262E+04  0.50400000000E-02 0.  1.
    8880022    1    1    2    0    0 -0.86806853387E+02  0.52862826919E+03  0.22995399714E+03  0.60270537628E+03  0.15294330000E+03 0.  0.
    8880022    1    1    2    0    0  0.86806853387E+02 -0.52862826919E+03 -0.13990498831E+04  0.15058935903E+04  0.15294330000E+03 0.  0.
<mgrwt>
<rscale>  0 0.55711303E+03</rscale>
<asrwt>0</asrwt>
<pdfrwt beam="1">  1        1 0.72269468E-01 0.55711303E+03</pdfrwt>
<pdfrwt beam="2">  1       -1 0.25213037E+00 0.55711303E+03</pdfrwt>
<totfact> 0.35187368E+00</totfact>
</mgrwt>
</event>
<event>
 4    1  0.2731969E-009  0.1473453E+04  0.7818608E-02  0.8902301E-01
         -1   -1    0    0    0  501 -0.00000000000E+00  0.00000000000E+00  0.68232279825E+03  0.68232279827E+03  0.50400000000E-02 0.  1.
          1   -1    0    0  501    0  0.00000000000E+00 -0.00000000000E+00 -0.39424359446E+04  0.39424359446E+04  0.50400000000E-02 0. -1.
    8880022    1    1    2    0    0 -0.14133413424E+04 -0.38747518007E+03 -0.26457092352E+04  0.30283394419E+04  0.15294330000E+03 0.  0.
    8880022    1    1    2    0    0  0.14133413424E+04  0.38747518007E+03 -0.61440391116E+03  0.15964193009E+04  0.15294330000E+03 0.  0.
<mgrwt>
<rscale>  0 0.14734526E+04</rscale>
<asrwt>0</asrwt>
<pdfrwt beam="1">  1        1 0.60652859E+00 0.14734526E+04</pdfrwt>
<pdfrwt beam="2">  1       -1 0.10497274E+00 0.14734526E+04</pdfrwt>
<totfact> 0.89152408E-02</totfact>
</mgrwt>
</event>
<event>
 4    1  0.4608819E-009  0.1763308E+04  0.7818608E-02  0.8726059E-01
         -1   -1    0    0    0  501 -0.00000000000E+00  0.00000000000E+00  0.17625580570E+04  0.17625580570E+04  0.50400000000E-02 0.  1.
          1   -1    0    0  501    0  0.00000000000E+00 -0.00000000000E+00 -0.34376561194E+04  0.34376561194E+04  0.50400000000E-02 0. -1.
    8880022    1    1    2    0    0  0.17438692174E+04 -0.21162494637E+03  0.97665222771E+03  0.20157148092E+04  0.15294330000E+03 0.  0.
    8880022    1    1    2    0    0 -0.17438692174E+04  0.21162494637E+03 -0.26517502901E+04  0.31844993671E+04  0.15294330000E+03 0.  0.
<mgrwt>
<rscale>  0 0.17633084E+04</rscale>
<asrwt>0</asrwt>
<pdfrwt beam="1">  1        1 0.52887017E+00 0.17633084E+04</pdfrwt>
<pdfrwt beam="2">  1       -1 0.27116278E+00 0.17633084E+04</pdfrwt>
<totfact> 0.12973173E-02</totfact>
</mgrwt>
</event>
<event>
 4    1  0.2731969E-009  0.1877222E+04  0.7818608E-02  0.8666278E-01
          1   -1    0    0  501    0  0.00000000000E+00  0.00000000000E+00  0.17992183697E+04  0.17992183697E+04  0.50400000000E-02 0. -1.
         -1   -1    0    0    0  501 -0.00000000000E+00 -0.00000000000E+00 -0.24056829099E+04  0.24056829099E+04  0.50400000000E-02 0.  1.
    8880022    1    1    2    0    0 -0.18617768254E+04 -0.18535384857E+03 -0.12095855970E+04  0.22331721757E+04  0.15294330000E+03 0.  0.
    8880022    1    1    2    0    0  0.18617768254E+04  0.18535384857E+03  0.60312105680E+03  0.19717291039E+04  0.15294330000E+03 0.  0.
<mgrwt>
<rscale>  0 0.18772215E+04</rscale>
<asrwt>0</asrwt>
<pdfrwt beam="1">  1        1 0.27680283E+00 0.18772215E+04</pdfrwt>
<pdfrwt beam="2">  1       -1 0.37010506E+00 0.18772215E+04</pdfrwt>
<totfact> 0.42002106E-02</totfact>
</mgrwt>
</event>
<event>
 4    1  0.2731969E-009  0.9074787E+03  0.7818608E-02  0.9416281E-01
          1   -1    0    0  501    0  0.00000000000E+00  0.00000000000E+00  0.93623600654E+03  0.93623600655E+03  0.50400000000E-02 0. -1.
         -1   -1    0    0    0  501 -0.00000000000E+00 -0.00000000000E+00 -0.93827667133E+03  0.93827667134E+03  0.50400000000E-02 0.  1.
    8880022    1    1    2    0    0  0.43239913507E+03 -0.78304334523E+03 -0.23539380226E+03  0.93751148669E+03  0.15294330000E+03 0.  0.
    8880022    1    1    2    0    0 -0.43239913507E+03  0.78304334523E+03  0.23335313747E+03  0.93700119120E+03  0.15294330000E+03 0.  0.
<mgrwt>
<rscale>  0 0.90747867E+03</rscale>
<asrwt>0</asrwt>
<pdfrwt beam="1">  1        1 0.14403631E+00 0.90747867E+03</pdfrwt>
<pdfrwt beam="2">  1       -1 0.14435026E+00 0.90747867E+03</pdfrwt>
<totfact> 0.66595602E+00</totfact>
</mgrwt>
</event>
<event>
 4    1  0.2731969E-009  0.1188808E+04  0.7818608E-02  0.9122710E-01
         -1   -1    0    0    0  501 -0.00000000000E+00  0.00000000000E+00  0.84811231939E+03  0.84811231940E+03  0.50400000000E-02 0.  1.
          1   -1    0    0  501    0  0.00000000000E+00 -0.00000000000E+00 -0.23764660693E+04  0.23764660693E+04  0.50400000000E-02 0. -1.
    8880022    1    1    2    0    0 -0.73966531368E+03 -0.91802346345E+03  0.11715127496E+03  0.11945660007E+04  0.15294330000E+03 0.  0.
    8880022    1    1    2    0    0  0.73966531368E+03  0.91802346345E+03 -0.16455050249E+04  0.20300123880E+04  0.15294330000E+03 0.  0.
<mgrwt>
<rscale>  0 0.11888076E+04</rscale>
<asrwt>0</asrwt>
<pdfrwt beam="1">  1        1 0.36561016E+00 0.11888076E+04</pdfrwt>
<pdfrwt beam="2">  1       -1 0.13047882E+00 0.11888076E+04</pdfrwt>
<totfact> 0.81887820E-01</totfact>
</mgrwt>
</event>
<event>
 4    1  0.2731969E-009  0.4126920E+03  0.7818608E-02  0.1039471E+00
         -1   -1    0    0    0  501 -0.00000000000E+00  0.00000000000E+00  0.46743953397E+03  0.46743953399E+03  0.50400000000E-02 0.  1.
          1   -1    0    0  501    0  0.00000000000E+00 -0.00000000000E+00 -0.74673829697E+03  0.74673829699E+03  0.50400000000E-02 0. -1.
    8880022    1    1    2    0    0  0.37129633229E+03  0.95194876291E+02  0.29477744276E+03  0.50715719912E+03  0.15294330000E+03 0.  0.
    8880022    1    1    2    0    0 -0.37129633229E+03 -0.95194876291E+02 -0.57407620576E+03  0.70702063186E+03  0.15294330000E+03 0. -1.
<mgrwt>
<rscale>  0 0.41269200E+03</rscale>
<asrwt>0</asrwt>
<pdfrwt beam="1">  1        1 0.11488281E+00 0.41269200E+03</pdfrwt>
<pdfrwt beam="2">  1       -1 0.71913774E-01 0.41269200E+03</pdfrwt>
<totfact> 0.51282139E+01</totfact>
</mgrwt>
</event>
<event>
 4    1  0.2731969E-009  0.1078230E+04  0.7818608E-02  0.9226674E-01
          1   -1    0    0  501    0  0.00000000000E+00  0.00000000000E+00  0.14680962497E+04  0.14680962497E+04  0.50400000000E-02 0. -1.
         -1   -1    0    0    0  501 -0.00000000000E+00 -0.00000000000E+00 -0.99748935510E+03  0.99748935511E+03  0.50400000000E-02 0.  1.
    8880022    1    1    2    0    0 -0.10263413728E+04 -0.29293774149E+03 -0.32437631159E+03  0.11259665974E+04  0.15294330000E+03 0.  0.
    8880022    1    1    2    0    0  0.10263413728E+04  0.29293774149E+03  0.79498320616E+03  0.13396190074E+04  0.15294330000E+03 0.  0.
<mgrwt>
<rscale>  0 0.10782304E+04</rscale>
<asrwt>0</asrwt>
<pdfrwt beam="1">  1        1 0.22586096E+00 0.10782304E+04</pdfrwt>
<pdfrwt beam="2">  1       -1 0.15345990E+00 0.10782304E+04</pdfrwt>
<totfact> 0.22467365E+00</totfact>
</mgrwt>
</event>
<event>
 4    1  0.2731969E-009  0.6347408E+03  0.7818608E-02  0.9835841E-01
         -1   -1    0    0    0  501 -0.00000000000E+00  0.00000000000E+00  0.51558411926E+03  0.51558411928E+03  0.50400000000E-02 0.  1.
          1   -1    0    0  501    0  0.00000000000E+00 -0.00000000000E+00 -0.25662042552E+04  0.25662042552E+04  0.50400000000E-02 0. -1.
    8880022    1    1    2    0    0  0.60522577415E+03 -0.11491720134E+03  0.25973439722E+03  0.68582637087E+03  0.15294330000E+03 0.  0.
    8880022    1    1    2    0    0 -0.60522577415E+03  0.11491720134E+03 -0.23103545332E+04  0.23959620036E+04  0.15294330000E+03 0.  0.
<mgrwt>
<rscale>  0 0.63474078E+03</rscale>
<asrwt>0</asrwt>
<pdfrwt beam="1">  1        1 0.39480065E+00 0.63474078E+03</pdfrwt>
<pdfrwt beam="2">  1       -1 0.79320635E-01 0.63474078E+03</pdfrwt>
<totfact> 0.21151859E+00</totfact>
</mgrwt>
</event>
<event>
 4    1  0.2731969E-009  0.8132820E+03  0.7818608E-02  0.9540988E-01
         -1   -1    0    0    0  501 -0.00000000000E+00  0.00000000000E+00  0.20822906506E+04  0.20822906506E+04  0.50400000000E-02 0.  1.
          1   -1    0    0  501    0  0.00000000000E+00 -0.00000000000E+00 -0.65350681030E+03  0.65350681032E+03  0.50400000000E-02 0. -1.
    8880022    1    1    2    0    0 -0.52470547734E+03  0.60226255451E+03  0.16950320859E+04  0.18800429378E+04  0.15294330000E+03 0.  0.
    8880022    1    1    2    0    0  0.52470547734E+03 -0.60226255451E+03 -0.26624824566E+03  0.85575452313E+03  0.15294330000E+03 0.  0.
<mgrwt>
<rscale>  0 0.81328204E+03</rscale>
<asrwt>0</asrwt>
<pdfrwt beam="1">  1        1 0.10053951E+00 0.81328204E+03</pdfrwt>
<pdfrwt beam="2">  1       -1 0.32035241E+00 0.81328204E+03</pdfrwt>
<totfact> 0.77091115E-01</totfact>
</mgrwt>
</event>
<event>
 4    1  0.2731969E-009  0.1148307E+04  0.7818608E-02  0.9159347E-01
          1   -1    0    0  501    0  0.00000000000E+00  0.00000000000E+00  0.17784562670E+04  0.17784562670E+04  0.50400000000E-02 0. -1.
         -1   -1    0    0    0  501 -0.00000000000E+00 -0.00000000000E+00 -0.81177077518E+03  0.81177077519E+03  0.50400000000E-02 0.  1.
    8880022    1    1    2    0    0  0.88685075763E+03  0.71324088633E+03  0.86456779143E+03  0.14373885860E+04  0.15294330000E+03 0.  0.
    8880022    1    1    2    0    0 -0.88685075763E+03 -0.71324088633E+03  0.10211770038E+03  0.11528384562E+04  0.15294330000E+03 0.  0.
<mgrwt>
<rscale>  0 0.11483068E+04</rscale>
<asrwt>0</asrwt>
<pdfrwt beam="1">  1        1 0.27360866E+00 0.11483068E+04</pdfrwt>
<pdfrwt beam="2">  1       -1 0.12488781E+00 0.11483068E+04</pdfrwt>
<totfact> 0.23378695E+00</totfact>
</mgrwt>
</event>
<event>
 4    1  0.2731969E-009  0.9452330E+03  0.7818608E-02  0.9370740E-01
         -1   -1    0    0    0  501 -0.00000000000E+00  0.00000000000E+00  0.69236000269E+03  0.69236000271E+03  0.50400000000E-02 0.  1.
          1   -1    0    0  501    0  0.00000000000E+00 -0.00000000000E+00 -0.13548421908E+04  0.13548421909E+04  0.50400000000E-02 0. -1.
    8880022    1    1    2    0    0  0.84552132075E+03  0.39391313483E+03 -0.10811186173E+03  0.95139565340E+03  0.15294330000E+03 0.  0.
    8880022    1    1    2    0    0 -0.84552132075E+03 -0.39391313483E+03 -0.55437032642E+03  0.10958065402E+04  0.15294330000E+03 0.  0.
<mgrwt>
<rscale>  0 0.94523305E+03</rscale>
<asrwt>0</asrwt>
<pdfrwt beam="1">  1        1 0.20843726E+00 0.94523305E+03</pdfrwt>
<pdfrwt beam="2">  1       -1 0.10651692E+00 0.94523305E+03</pdfrwt>
<totfact> 0.68811123E+00</totfact>
</mgrwt>
</event>
<event>
 4    1  0.2731969E-009  0.4013591E+03  0.7818608E-02  0.1043310E+00
          1   -1    0    0  501    0  0.00000000000E+00  0.00000000000E+00  0.42640734081E+03  0.42640734084E+03  0.50400000000E-02 0. -1.
         -1   -1    0    0    0  501 -0.00000000000E+00 -0.00000000000E+00 -0.58272517600E+03  0.58272517602E+03  0.50400000000E-02 0.  1.
    8880022    1    1    2    0    0  0.77981367132E+02  0.36278970086E+03  0.22106948036E+03  0.45821482825E+03  0.15294330000E+03 0.  0.
    8880022    1    1    2    0    0 -0.77981367132E+02 -0.36278970086E+03 -0.37738731555E+03  0.55091768861E+03  0.15294330000E+03 0.  1.
<mgrwt>
<rscale>  0 0.40135908E+03</rscale>
<asrwt>0</asrwt>
<pdfrwt beam="1">  1        1 0.65601129E-01 0.40135908E+03</pdfrwt>
<pdfrwt beam="2">  1       -1 0.89650027E-01 0.40135908E+03</pdfrwt>
<totfact> 0.70800475E+01</totfact>
</mgrwt>
</event>
<event>
 4    1  0.2731969E-009  0.1977829E+03  0.7818608E-02  0.1151623E+00
         -1   -1    0    0    0  501 -0.00000000000E+00  0.00000000000E+00  0.77585473589E+03  0.77585473591E+03  0.50400000000E-02 0.  1.
          1   -1    0    0  501    0  0.00000000000E+00 -0.00000000000E+00 -0.14772086042E+04  0.14772086042E+04  0.50400000000E-02 0. -1.
    8880022    1    1    2    0    0  0.16479693614E+02  0.12431746184E+03 -0.14578166018E+04  0.14711720869E+04  0.15294330000E+03 0. -1.
    8880022    1    1    2    0    0 -0.16479693614E+02 -0.12431746184E+03  0.75646273354E+03  0.78189125322E+03  0.15294330000E+03 0.  0.
<mgrwt>
<rscale>  0 0.19778287E+03</rscale>
<asrwt>0</asrwt>
<pdfrwt beam="1">  1        1 0.22726286E+00 0.19778287E+03</pdfrwt>
<pdfrwt beam="2">  1       -1 0.11936227E+00 0.19778287E+03</pdfrwt>
<totfact> 0.52904491E+00</totfact>
</mgrwt>
</event>
<event>
 4    1  0.2731969E-009  0.8302463E+03  0.7818608E-02  0.9517240E-01
          1   -1    0    0  501    0  0.00000000000E+00  0.00000000000E+00  0.14728398420E+04  0.14728398420E+04  0.50400000000E-02 0. -1.
         -1   -1    0    0    0  501 -0.00000000000E+00 -0.00000000000E+00 -0.73188077230E+03  0.73188077232E+03  0.50400000000E-02 0.  1.
    8880022    1    1    2    0    0 -0.64365839853E+03  0.50161848353E+03  0.10323853310E+04  0.13248125761E+04  0.15294330000E+03 0.  0.
    8880022    1    1    2    0    0  0.64365839853E+03 -0.50161848353E+03 -0.29142626129E+03  0.87990803827E+03  0.15294330000E+03 0.  0.
<mgrwt>
<rscale>  0 0.83024628E+03</rscale>
<asrwt>0</asrwt>
<pdfrwt beam="1">  1        1 0.22659074E+00 0.83024628E+03</pdfrwt>
<pdfrwt beam="2">  1       -1 0.11259704E+00 0.83024628E+03</pdfrwt>
<totfact> 0.50731952E+00</totfact>
</mgrwt>
</event>
<event>
 4    1  0.2731969E-009  0.3560090E+03  0.7818608E-02  0.1060175E+00
         -1   -1    0    0    0  501 -0.00000000000E+00  0.00000000000E+00  0.82554691045E+03  0.82554691047E+03  0.50400000000E-02 0.  1.
          1   -1    0    0  501    0  0.00000000000E+00 -0.00000000000E+00 -0.84838899688E+03  0.84838899690E+03  0.50400000000E-02 0. -1.
    8880022    1    1    2    0    0 -0.30575209216E+03  0.99329670195E+02  0.74604141304E+03  0.82663182144E+03  0.15294330000E+03 0.  0.
    8880022    1    1    2    0    0  0.30575209216E+03 -0.99329670195E+02 -0.76888349947E+03  0.84730408592E+03  0.15294330000E+03 0.  0.
<mgrwt>
<rscale>  0 0.35600896E+03</rscale>
<asrwt>0</asrwt>
<pdfrwt beam="1">  1        1 0.13052138E+00 0.35600896E+03</pdfrwt>
<pdfrwt beam="2">  1       -1 0.12700722E+00 0.35600896E+03</pdfrwt>
<totfact> 0.12001642E+01</totfact>
</mgrwt>
</event>
<event>
 4    1  0.2731969E-009  0.8406934E+03  0.7818608E-02  0.9502914E-01
         -1   -1    0    0    0  501 -0.00000000000E+00  0.00000000000E+00  0.96547333539E+03  0.96547333541E+03  0.50400000000E-02 0.  1.
          1   -1    0    0  501    0  0.00000000000E+00 -0.00000000000E+00 -0.24571571348E+04  0.24571571348E+04  0.50400000000E-02 0. -1.
    8880022    1    1    2    0    0  0.74597709697E+03  0.35621892376E+03  0.68807111426E+03  0.10863734451E+04  0.15294330000E+03 0.  1.
    8880022    1    1    2    0    0 -0.74597709697E+03 -0.35621892376E+03 -0.21797549137E+04  0.23362570252E+04  0.15294330000E+03 0.  0.
<mgrwt>
<rscale>  0 0.84069341E+03</rscale>
<asrwt>0</asrwt>
<pdfrwt beam="1">  1        1 0.37802417E+00 0.84069341E+03</pdfrwt>
<pdfrwt beam="2">  1       -1 0.14853436E+00 0.84069341E+03</pdfrwt>
<totfact> 0.54511751E-01</totfact>
</mgrwt>
</event>
<event>
 4    1  0.2731969E-009  0.1012852E+04  0.7818608E-02  0.9294560E-01
          1   -1    0    0  501    0  0.00000000000E+00  0.00000000000E+00  0.13543677393E+04  0.13543677393E+04  0.50400000000E-02 0. -1.
         -1   -1    0    0    0  501 -0.00000000000E+00 -0.00000000000E+00 -0.86652364018E+03  0.86652364019E+03  0.50400000000E-02 0.  1.
    8880022    1    1    2    0    0  0.31149093882E+03 -0.95155157074E+03  0.63789181566E+03  0.11969856383E+04  0.15294330000E+03 0.  0.
    8880022    1    1    2    0    0 -0.31149093882E+03  0.95155157074E+03 -0.15004771650E+03  0.10239057413E+04  0.15294330000E+03 0.  0.
<mgrwt>
<rscale>  0 0.10128517E+04</rscale>
<asrwt>0</asrwt>
<pdfrwt beam="1">  1        1 0.20836427E+00 0.10128517E+04</pdfrwt>
<pdfrwt beam="2">  1       -1 0.13331133E+00 0.10128517E+04</pdfrwt>
<totfact> 0.39468114E+00</totfact>
</mgrwt>
</event>
<event>
 4    1  0.2731969E-009  0.2704180E+03  0.7818608E-02  0.1101041E+00
          1   -1    0    0  501    0  0.00000000000E+00  0.00000000000E+00  0.12389002079E+04  0.12389002080E+04  0.50400000000E-02 0. -1.
         -1   -1    0    0    0  501 -0.00000000000E+00 -0.00000000000E+00 -0.26674964983E+03  0.26674964987E+03  0.50400000000E-02 0.  1.
    8880022    1    1    2    0    0  0.18552631146E+03 -0.12375072589E+03  0.11504088973E+04  0.11817641636E+04  0.15294330000E+03 0.  0.
    8880022    1    1    2    0    0 -0.18552631146E+03  0.12375072589E+03 -0.17825833919E+03  0.32388569420E+03  0.15294330000E+03 0.  0.
<mgrwt>
<rscale>  0 0.27041802E+03</rscale>
<asrwt>0</asrwt>
<pdfrwt beam="1">  1        1 0.19060003E+00 0.27041802E+03</pdfrwt>
<pdfrwt beam="2">  1       -1 0.41038407E-01 0.27041802E+03</pdfrwt>
<totfact> 0.64330714E+01</totfact>
</mgrwt>
</event>
<event>
 4    1  0.2731969E-009  0.2226817E+03  0.7818608E-02  0.1131899E+00
         -1   -1    0    0    0  501 -0.00000000000E+00  0.00000000000E+00  0.10261034560E+03  0.10261034572E+03  0.50400000000E-02 0.  1.
          1   -1    0    0  501    0  0.00000000000E+00 -0.00000000000E+00 -0.14423089906E+04  0.14423089906E+04  0.50400000000E-02 0. -1.
    8880022    1    1    2    0    0  0.61241653182E+02 -0.14981644446E+03 -0.12997437269E+04  0.13186815066E+04  0.15294330000E+03 0.  0.
    8880022    1    1    2    0    0 -0.61241653182E+02  0.14981644446E+03 -0.39954918078E+02  0.22623782975E+03  0.15294330000E+03 0.  1.
<mgrwt>
<rscale>  0 0.22268175E+03</rscale>
<asrwt>0</asrwt>
<pdfrwt beam="1">  1        1 0.22189368E+00 0.22268175E+03</pdfrwt>
<pdfrwt beam="2">  1       -1 0.15786208E-01 0.22268175E+03</pdfrwt>
<totfact> 0.23519486E+02</totfact>
</mgrwt>
</event>
<event>
 4    1  0.2731969E-009  0.1048710E+04  0.7818608E-02  0.9256677E-01
         -1   -1    0    0    0  501 -0.00000000000E+00  0.00000000000E+00  0.81604725847E+03  0.81604725848E+03  0.50400000000E-02 0.  1.
          1   -1    0    0  501    0  0.00000000000E+00 -0.00000000000E+00 -0.21158589838E+04  0.21158589838E+04  0.50400000000E-02 0. -1.
    8880022    1    1    2    0    0 -0.20867206672E+03  0.10162960157E+04  0.23337753526E+03  0.10743641607E+04  0.15294330000E+03 0.  0.
    8880022    1    1    2    0    0  0.20867206672E+03 -0.10162960157E+04 -0.15331892606E+04  0.18575420815E+04  0.15294330000E+03 0.  0.
<mgrwt>
<rscale>  0 0.10487103E+04</rscale>
<asrwt>0</asrwt>
<pdfrwt beam="1">  1        1 0.32551677E+00 0.10487103E+04</pdfrwt>
<pdfrwt beam="2">  1       -1 0.12554573E+00 0.10487103E+04</pdfrwt>
<totfact> 0.13832573E+00</totfact>
</mgrwt>
</event>
<event>
 4    1  0.2731969E-009  0.1196559E+04  0.7818608E-02  0.9115874E-01
          1   -1    0    0  501    0  0.00000000000E+00  0.00000000000E+00  0.23538218663E+04  0.23538218663E+04  0.50400000000E-02 0. -1.
         -1   -1    0    0    0  501 -0.00000000000E+00 -0.00000000000E+00 -0.12386724409E+04  0.12386724410E+04  0.50400000000E-02 0.  1.
    8880022    1    1    2    0    0  0.96970851981E+03 -0.68412559103E+03  0.18390125696E+04  0.21940194443E+04  0.15294330000E+03 0.  0.
    8880022    1    1    2    0    0 -0.96970851981E+03  0.68412559103E+03 -0.72386314427E+03  0.13984748630E+04  0.15294330000E+03 0.  0.
<mgrwt>
<rscale>  0 0.11965593E+04</rscale>
<asrwt>0</asrwt>
<pdfrwt beam="1">  1        1 0.36212644E+00 0.11965593E+04</pdfrwt>
<pdfrwt beam="2">  1       -1 0.19056499E+00 0.11965593E+04</pdfrwt>
<totfact> 0.29476752E-01</totfact>
</mgrwt>
</event>
<event>
 4    1  0.2731969E-009  0.5089069E+03  0.7818608E-02  0.1011480E+00
          1   -1    0    0  501    0  0.00000000000E+00  0.00000000000E+00  0.18761061206E+04  0.18761061206E+04  0.50400000000E-02 0. -1.
         -1   -1    0    0    0  501 -0.00000000000E+00 -0.00000000000E+00 -0.30053260043E+03  0.30053260047E+03  0.50400000000E-02 0.  1.
    8880022    1    1    2    0    0  0.42181588442E+03 -0.24013741488E+03 -0.12455056262E+02  0.50905932838E+03  0.15294330000E+03 0.  0.
    8880022    1    1    2    0    0 -0.42181588442E+03  0.24013741488E+03  0.15880285764E+04  0.16675793927E+04  0.15294330000E+03 0.  0.
<mgrwt>
<rscale>  0 0.50890694E+03</rscale>
<asrwt>0</asrwt>
<pdfrwt beam="1">  1        1 0.28863171E+00 0.50890694E+03</pdfrwt>
<pdfrwt beam="2">  1       -1 0.46235784E-01 0.50890694E+03</pdfrwt>
<totfact> 0.18257205E+01</totfact>
</mgrwt>
</event>
<event>
 4    1  0.2731969E-009  0.7687964E+03  0.7818608E-02  0.9606315E-01
         -1   -1    0    0    0  501 -0.00000000000E+00  0.00000000000E+00  0.14036353525E+04  0.14036353525E+04  0.50400000000E-02 0.  1.
          1   -1    0    0  501    0  0.00000000000E+00 -0.00000000000E+00 -0.56519174809E+03  0.56519174811E+03  0.50400000000E-02 0. -1.
    8880022    1    1    2    0    0  0.43410638479E+03 -0.61579860201E+03 -0.77855395222E+02  0.77272853392E+03  0.15294330000E+03 0.  0.
    8880022    1    1    2    0    0 -0.43410638479E+03  0.61579860201E+03  0.91629899964E+03  0.11960985667E+04  0.15294330000E+03 0.  0.
<mgrwt>
<rscale>  0 0.76879641E+03</rscale>
<asrwt>0</asrwt>
<pdfrwt beam="1">  1        1 0.86952577E-01 0.76879641E+03</pdfrwt>
<pdfrwt beam="2">  1       -1 0.21594390E+00 0.76879641E+03</pdfrwt>
<totfact> 0.45254030E+00</totfact>
</mgrwt>
</event>
<event>
 4    1  0.2731969E-009  0.3350976E+03  0.7818608E-02  0.1068903E+00
         -1   -1    0    0    0  501 -0.00000000000E+00  0.00000000000E+00  0.24061992248E+03  0.24061992253E+03  0.50400000000E-02 0.  1.
          1   -1    0    0  501    0  0.00000000000E+00 -0.00000000000E+00 -0.36978999987E+04  0.36978999987E+04  0.50400000000E-02 0. -1.
    8880022    1    1    2    0    0 -0.29807655641E+03  0.70088783284E+01  0.11217146115E+03  0.35337352415E+03  0.15294330000E+03 0.  1.
    8880022    1    1    2    0    0  0.29807655641E+03 -0.70088783284E+01 -0.35694515373E+04  0.35851463971E+04  0.15294330000E+03 0.  0.
<mgrwt>
<rscale>  0 0.33509761E+03</rscale>
<asrwt>0</asrwt>
<pdfrwt beam="1">  1        1 0.56890765E+00 0.33509761E+03</pdfrwt>
<pdfrwt beam="2">  1       -1 0.37018452E-01 0.33509761E+03</pdfrwt>
<totfact> 0.15263672E+00</totfact>
</mgrwt>
</event>
<event>
 4    1  0.2731969E-009  0.1171090E+04  0.7818608E-02  0.9138544E-01
          1   -1    0    0  501    0  0.00000000000E+00  0.00000000000E+00  0.24919580152E+04  0.24919580152E+04  0.50400000000E-02 0. -1.
         -1   -1    0    0    0  501 -0.00000000000E+00 -0.00000000000E+00 -0.11524977879E+04  0.11524977879E+04  0.50400000000E-02 0.  1.
    8880022    1    1    2    0    0  0.92284814304E+03  0.70456541414E+03 -0.64741509800E+03  0.13381326840E+04  0.15294330000E+03 0.  0.
    8880022    1    1    2    0    0 -0.92284814304E+03 -0.70456541414E+03  0.19868753253E+04  0.23063231190E+04  0.15294330000E+03 0.  0.
<mgrwt>
<rscale>  0 0.11710904E+04</rscale>
<asrwt>0</asrwt>
<pdfrwt beam="1">  1        1 0.38337815E+00 0.11710904E+04</pdfrwt>
<pdfrwt beam="2">  1       -1 0.17730735E+00 0.11710904E+04</pdfrwt>
<totfact> 0.29572652E-01</totfact>
</mgrwt>
</event>
<event>
 4    1  0.2731969E-009  0.2727349E+03  0.7818608E-02  0.1099724E+00
          1   -1    0    0  501    0  0.00000000000E+00  0.00000000000E+00  0.45262163971E+02  0.45262164252E+02  0.50400000000E-02 0. -1.
         -1   -1    0    0    0  501 -0.00000000000E+00 -0.00000000000E+00 -0.31972042499E+04  0.31972042499E+04  0.50400000000E-02 0.  1.
    8880022    1    1    2    0    0  0.22505446900E+03 -0.18524993995E+02 -0.44576688016E+03  0.52258248524E+03  0.15294330000E+03 0.  0.
    8880022    1    1    2    0    0 -0.22505446900E+03  0.18524993995E+02 -0.27061752058E+04  0.27198839289E+04  0.15294330000E+03 0. -1.
<mgrwt>
<rscale>  0 0.27273493E+03</rscale>
<asrwt>0</asrwt>
<pdfrwt beam="1">  1        1 0.69634124E-02 0.27273493E+03</pdfrwt>
<pdfrwt beam="2">  1       -1 0.49187740E+00 0.27273493E+03</pdfrwt>
<totfact> 0.21887904E+00</totfact>
</mgrwt>
</event>
<event>
 4    1  0.2731969E-009  0.1144230E+04  0.7818608E-02  0.9163123E-01
          1   -1    0    0  501    0  0.00000000000E+00  0.00000000000E+00  0.31100439928E+04  0.31100439928E+04  0.50400000000E-02 0. -1.
         -1   -1    0    0    0  501 -0.00000000000E+00 -0.00000000000E+00 -0.10530535408E+04  0.10530535408E+04  0.50400000000E-02 0.  1.
    8880022    1    1    2    0    0 -0.10737955852E+04  0.36446478404E+03  0.26411652548E+04  0.28783705623E+04  0.15294330000E+03 0.  0.
    8880022    1    1    2    0    0  0.10737955852E+04 -0.36446478404E+03 -0.58417480284E+03  0.12847269713E+04  0.15294330000E+03 0.  0.
<mgrwt>
<rscale>  0 0.11442304E+04</rscale>
<asrwt>0</asrwt>
<pdfrwt beam="1">  1        1 0.47846830E+00 0.11442304E+04</pdfrwt>
<pdfrwt beam="2">  1       -1 0.16200824E+00 0.11442304E+04</pdfrwt>
<totfact> 0.14045579E-01</totfact>
</mgrwt>
</event>
<event>
 4    1  0.2731969E-009  0.6154809E+03  0.7818608E-02  0.9873799E-01
         -1   -1    0    0    0  501 -0.00000000000E+00  0.00000000000E+00  0.55752235207E+03  0.55752235209E+03  0.50400000000E-02 0.  1.
          1   -1    0    0  501    0  0.00000000000E+00 -0.00000000000E+00 -0.13537725107E+04  0.13537725107E+04  0.50400000000E-02 0. -1.
    8880022    1    1    2    0    0 -0.44422613134E+02  0.59451809339E+03 -0.10725815578E+04  0.12366276655E+04  0.15294330000E+03 0.  0.
    8880022    1    1    2    0    0  0.44422613134E+02 -0.59451809339E+03  0.27633139918E+03  0.67466719730E+03  0.15294330000E+03 0.  0.
<mgrwt>
<rscale>  0 0.61548094E+03</rscale>
<asrwt>0</asrwt>
<pdfrwt beam="1">  1        1 0.20827269E+00 0.61548094E+03</pdfrwt>
<pdfrwt beam="2">  1       -1 0.85772670E-01 0.61548094E+03</pdfrwt>
<totfact> 0.11763598E+01</totfact>
</mgrwt>
</event>
<event>
 4    1  0.2731969E-009  0.1282912E+04  0.7818608E-02  0.9043227E-01
          1   -1    0    0  501    0  0.00000000000E+00  0.00000000000E+00  0.21834013824E+04  0.21834013824E+04  0.50400000000E-02 0. -1.
         -1   -1    0    0    0  501 -0.00000000000E+00 -0.00000000000E+00 -0.93838620609E+03  0.93838620610E+03  0.50400000000E-02 0.  1.
    8880022    1    1    2    0    0  0.12041079441E+04 -0.41544704982E+03 -0.69759381104E+02  0.12848074628E+04  0.15294330000E+03 0.  0.
    8880022    1    1    2    0    0 -0.12041079441E+04  0.41544704982E+03  0.13147745574E+04  0.18369801256E+04  0.15294330000E+03 0.  0.
<mgrwt>
<rscale>  0 0.12829123E+04</rscale>
<asrwt>0</asrwt>
<pdfrwt beam="1">  1        1 0.33590790E+00 0.12829123E+04</pdfrwt>
<pdfrwt beam="2">  1       -1 0.14436711E+00 0.12829123E+04</pdfrwt>
<totfact> 0.84183140E-01</totfact>
</mgrwt>
</event>
<event>
 4    1  0.2731969E-009  0.7775803E+03  0.7818608E-02  0.9593048E-01
          1   -1    0    0  501    0  0.00000000000E+00  0.00000000000E+00  0.68286054154E+03  0.68286054156E+03  0.50400000000E-02 0. -1.
         -1   -1    0    0    0  501 -0.00000000000E+00 -0.00000000000E+00 -0.11834696885E+04  0.11834696885E+04  0.50400000000E-02 0.  1.
    8880022    1    1    2    0    0  0.43920009371E+03  0.62317148533E+03 -0.71859008029E+03  0.10587741869E+04  0.15294330000E+03 0.  0.
    8880022    1    1    2    0    0 -0.43920009371E+03 -0.62317148533E+03  0.21798093334E+03  0.80755604310E+03  0.15294330000E+03 0.  0.
<mgrwt>
<rscale>  0 0.77758027E+03</rscale>
<asrwt>0</asrwt>
<pdfrwt beam="1">  1        1 0.10505547E+00 0.77758027E+03</pdfrwt>
<pdfrwt beam="2">  1       -1 0.18207226E+00 0.77758027E+03</pdfrwt>
<totfact> 0.58629153E+00</totfact>
</mgrwt>
</event>
<event>
 4    1  0.2731969E-009  0.1181113E+04  0.7818608E-02  0.9129551E-01
         -1   -1    0    0    0  501 -0.00000000000E+00  0.00000000000E+00  0.87246015992E+03  0.87246015994E+03  0.50400000000E-02 0.  1.
          1   -1    0    0  501    0  0.00000000000E+00 -0.00000000000E+00 -0.41698175480E+04  0.41698175480E+04  0.50400000000E-02 0. -1.
    8880022    1    1    2    0    0  0.20574560921E+03  0.11529549320E+04 -0.36282781876E+04  0.38156821921E+04  0.15294330000E+03 0.  0.
    8880022    1    1    2    0    0 -0.20574560921E+03 -0.11529549320E+04  0.33092079957E+03  0.12265955159E+04  0.15294330000E+03 0.  0.
<mgrwt>
<rscale>  0 0.11811130E+04</rscale>
<asrwt>0</asrwt>
<pdfrwt beam="1">  1        1 0.64151038E+00 0.11811130E+04</pdfrwt>
<pdfrwt beam="2">  1       -1 0.13422464E+00 0.11811130E+04</pdfrwt>
<totfact> 0.32181794E-02</totfact>
</mgrwt>
</event>
<event>
 4    1  0.2731969E-009  0.6453332E+03  0.7818608E-02  0.9815576E-01
          1   -1    0    0  501    0  0.00000000000E+00  0.00000000000E+00  0.48116415011E+03  0.48116415014E+03  0.50400000000E-02 0. -1.
         -1   -1    0    0    0  501 -0.00000000000E+00 -0.00000000000E+00 -0.20016828870E+04  0.20016828870E+04  0.50400000000E-02 0.  1.
    8880022    1    1    2    0    0  0.38287800663E+03 -0.49645511623E+03  0.17502470801E+03  0.66864680648E+03  0.15294330000E+03 0.  0.
    8880022    1    1    2    0    0 -0.38287800663E+03  0.49645511623E+03 -0.16955434449E+04  0.18142002307E+04  0.15294330000E+03 0.  1.
<mgrwt>
<rscale>  0 0.64533317E+03</rscale>
<asrwt>0</asrwt>
<pdfrwt beam="1">  1        1 0.74025255E-01 0.64533317E+03</pdfrwt>
<pdfrwt beam="2">  1       -1 0.30795121E+00 0.64533317E+03</pdfrwt>
<totfact> 0.14746780E+00</totfact>
</mgrwt>
</event>
<event>
 4    1  0.2731969E-009  0.7686279E+03  0.7818608E-02  0.9606571E-01
         -1   -1    0    0    0  501 -0.00000000000E+00  0.00000000000E+00  0.12732591055E+04  0.12732591055E+04  0.50400000000E-02 0.  1.
          1   -1    0    0  501    0  0.00000000000E+00 -0.00000000000E+00 -0.67538872759E+03  0.67538872761E+03  0.50400000000E-02 0. -1.
    8880022    1    1    2    0    0  0.73832508039E+03 -0.14924248960E+03 -0.24615712167E+03  0.80708254015E+03  0.15294330000E+03 0.  0.
    8880022    1    1    2    0    0 -0.73832508039E+03  0.14924248960E+03  0.84402749955E+03  0.11415652929E+04  0.15294330000E+03 0.  0.
<mgrwt>
<rscale>  0 0.76862793E+03</rscale>
<asrwt>0</asrwt>
<pdfrwt beam="1">  1        1 0.10390596E+00 0.76862793E+03</pdfrwt>
<pdfrwt beam="2">  1       -1 0.19588601E+00 0.76862793E+03</pdfrwt>
<totfact> 0.47776061E+00</totfact>
</mgrwt>
</event>
<event>
 4    1  0.2731969E-009  0.4756412E+03  0.7818608E-02  0.1020340E+00
         -1   -1    0    0    0  501 -0.00000000000E+00  0.00000000000E+00  0.13854850563E+04  0.13854850563E+04  0.50400000000E-02 0.  1.
          1   -1    0    0  501    0  0.00000000000E+00 -0.00000000000E+00 -0.75966789759E+03  0.75966789761E+03  0.50400000000E-02 0. -1.
    8880022    1    1    2    0    0 -0.30078609598E+03 -0.33521722303E+03 -0.63742812450E+03  0.79532957261E+03  0.15294330000E+03 0.  0.
    8880022    1    1    2    0    0  0.30078609598E+03  0.33521722303E+03  0.12632452832E+04  0.13498233813E+04  0.15294330000E+03 0.  0.
<mgrwt>
<rscale>  0 0.47564116E+03</rscale>
<asrwt>0</asrwt>
<pdfrwt beam="1">  1        1 0.11687199E+00 0.47564116E+03</pdfrwt>
<pdfrwt beam="2">  1       -1 0.21315154E+00 0.47564116E+03</pdfrwt>
<totfact> 0.32340461E+00</totfact>
</mgrwt>
</event>
<event>
 4    1  0.2731969E-009  0.3774016E+03  0.7818608E-02  0.1051898E+00
          1   -1    0    0  501    0  0.00000000000E+00  0.00000000000E+00  0.13999878108E+04  0.13999878108E+04  0.50400000000E-02 0. -1.
         -1   -1    0    0    0  501 -0.00000000000E+00 -0.00000000000E+00 -0.11887468013E+03  0.11887468024E+03  0.50400000000E-02 0.  1.
    8880022    1    1    2    0    0  0.97630154824E+02 -0.33092095877E+03  0.92889792012E+03  0.10026381836E+04  0.15294330000E+03 0.  0.
    8880022    1    1    2    0    0 -0.97630154824E+02  0.33092095877E+03  0.35221521051E+03  0.51622430746E+03  0.15294330000E+03 0.  0.
<mgrwt>
<rscale>  0 0.37740162E+03</rscale>
<asrwt>0</asrwt>
<pdfrwt beam="1">  1        1 0.21538273E+00 0.37740162E+03</pdfrwt>
<pdfrwt beam="2">  1       -1 0.18288413E-01 0.37740162E+03</pdfrwt>
<totfact> 0.19275461E+02</totfact>
</mgrwt>
</event>
<event>
 4    1  0.2731969E-009  0.7243629E+03  0.7818608E-02  0.9676452E-01
          1   -1    0    0  501    0  0.00000000000E+00  0.00000000000E+00  0.55596731511E+03  0.55596731514E+03  0.50400000000E-02 0. -1.
         -1   -1    0    0    0  501 -0.00000000000E+00 -0.00000000000E+00 -0.14103759529E+04  0.14103759529E+04  0.50400000000E-02 0.  1.
    8880022    1    1    2    0    0 -0.59261592164E+03  0.38744841904E+03 -0.99271412149E+03  0.12288949866E+04  0.15294330000E+03 0.  0.
    8880022    1    1    2    0    0  0.59261592164E+03 -0.38744841904E+03  0.13830548371E+03  0.73744828146E+03  0.15294330000E+03 0.  0.
<mgrwt>
<rscale>  0 0.72436287E+03</rscale>
<asrwt>0</asrwt>
<pdfrwt beam="1">  1        1 0.85533434E-01 0.72436287E+03</pdfrwt>
<pdfrwt beam="2">  1       -1 0.21698091E+00 0.72436287E+03</pdfrwt>
<totfact> 0.45885240E+00</totfact>
</mgrwt>
</event>
<event>
 4    1  0.2731969E-009  0.5645381E+03  0.7818608E-02  0.9981838E-01
          1   -1    0    0  501    0  0.00000000000E+00  0.00000000000E+00  0.15757200896E+04  0.15757200896E+04  0.50400000000E-02 0. -1.
         -1   -1    0    0    0  501 -0.00000000000E+00 -0.00000000000E+00 -0.66134787084E+03  0.66134787086E+03  0.50400000000E-02 0.  1.
    8880022    1    1    2    0    0 -0.53735585636E+03 -0.80995359400E+02  0.13891148174E+04  0.14994476295E+04  0.15294330000E+03 0. -1.
    8880022    1    1    2    0    0  0.53735585636E+03  0.80995359400E+02 -0.47474259869E+03  0.73762033095E+03  0.15294330000E+03 0.  0.
<mgrwt>
<rscale>  0 0.56453806E+03</rscale>
<asrwt>0</asrwt>
<pdfrwt beam="1">  1        1 0.24241847E+00 0.56453806E+03</pdfrwt>
<pdfrwt beam="2">  1       -1 0.10174583E+00 0.56453806E+03</pdfrwt>
<totfact> 0.57374112E+00</totfact>
</mgrwt>
</event>
<event>
 4    1  0.2731969E-009  0.1767039E+03  0.7818608E-02  0.1171032E+00
          1   -1    0    0  501    0  0.00000000000E+00  0.00000000000E+00  0.11159774637E+04  0.11159774638E+04  0.50400000000E-02 0. -1.
         -1   -1    0    0    0  501 -0.00000000000E+00 -0.00000000000E+00 -0.16179759015E+03  0.16179759023E+03  0.50400000000E-02 0.  1.
    8880022    1    1    2    0    0  0.80460285817E+02  0.36861277906E+02  0.10581166887E+04  0.10727698688E+04  0.15294330000E+03 0.  0.
    8880022    1    1    2    0    0 -0.80460285817E+02 -0.36861277906E+02 -0.10393681513E+03  0.20500518519E+03  0.15294330000E+03 0.  1.
<mgrwt>
<rscale>  0 0.17670389E+03</rscale>
<asrwt>0</asrwt>
<pdfrwt beam="1">  1        1 0.17168884E+00 0.17670389E+03</pdfrwt>
<pdfrwt beam="2">  1       -1 0.24891938E-01 0.17670389E+03</pdfrwt>
<totfact> 0.18992838E+02</totfact>
</mgrwt>
</event>
<event>
 4    1  0.2731969E-009  0.8864572E+03  0.7818608E-02  0.9442671E-01
          1   -1    0    0  501    0  0.00000000000E+00  0.00000000000E+00  0.12611130269E+04  0.12611130269E+04  0.50400000000E-02 0. -1.
         -1   -1    0    0    0  501 -0.00000000000E+00 -0.00000000000E+00 -0.20162041156E+04  0.20162041156E+04  0.50400000000E-02 0.  1.
    8880022    1    1    2    0    0 -0.55156905103E+03 -0.67689456970E+03  0.98456442748E+03  0.13248295896E+04  0.15294330000E+03 0.  0.
    8880022    1    1    2    0    0  0.55156905103E+03  0.67689456970E+03 -0.17396555162E+04  0.19524875530E+04  0.15294330000E+03 0.  0.
<mgrwt>
<rscale>  0 0.88645718E+03</rscale>
<asrwt>0</asrwt>
<pdfrwt beam="1">  1        1 0.19401739E+00 0.88645718E+03</pdfrwt>
<pdfrwt beam="2">  1       -1 0.31018525E+00 0.88645718E+03</pdfrwt>
<totfact> 0.28403780E-01</totfact>
</mgrwt>
</event>
<event>
 4    1  0.2731969E-009  0.6802784E+03  0.7818608E-02  0.9751566E-01
          1   -1    0    0  501    0  0.00000000000E+00  0.00000000000E+00  0.18717845954E+04  0.18717845954E+04  0.50400000000E-02 0. -1.
         -1   -1    0    0    0  501 -0.00000000000E+00 -0.00000000000E+00 -0.49584597684E+03  0.49584597687E+03  0.50400000000E-02 0.  1.
    8880022    1    1    2    0    0 -0.41832655544E+03 -0.51418861772E+03  0.15262065460E+04  0.16709533553E+04  0.15294330000E+03 0. -1.
    8880022    1    1    2    0    0  0.41832655544E+03  0.51418861772E+03 -0.15026792745E+03  0.69667721695E+03  0.15294330000E+03 0.  0.
<mgrwt>
<rscale>  0 0.68027839E+03</rscale>
<asrwt>0</asrwt>
<pdfrwt beam="1">  1        1 0.28796686E+00 0.68027839E+03</pdfrwt>
<pdfrwt beam="2">  1       -1 0.76283997E-01 0.68027839E+03</pdfrwt>
<totfact> 0.66535986E+00</totfact>
</mgrwt>
</event>
<event>
 4    1  0.2731969E-009  0.7258264E+03  0.7818608E-02  0.9674057E-01
          1   -1    0    0  501    0  0.00000000000E+00  0.00000000000E+00  0.19874032588E+04  0.19874032588E+04  0.50400000000E-02 0. -1.
         -1   -1    0    0    0  501 -0.00000000000E+00 -0.00000000000E+00 -0.50826484849E+03  0.50826484852E+03  0.50400000000E-02 0.  1.
    8880022    1    1    2    0    0 -0.42849623844E+03  0.56552926447E+03  0.16027040054E+04  0.17593988056E+04  0.15294330000E+03 0.  0.
    8880022    1    1    2    0    0  0.42849623844E+03 -0.56552926447E+03 -0.12356559509E+03  0.73626930170E+03  0.15294330000E+03 0.  0.
<mgrwt>
<rscale>  0 0.72582645E+03</rscale>
<asrwt>0</asrwt>
<pdfrwt beam="1">  1        1 0.30575434E+00 0.72582645E+03</pdfrwt>
<pdfrwt beam="2">  1       -1 0.78194595E-01 0.72582645E+03</pdfrwt>
<totfact> 0.52447836E+00</totfact>
</mgrwt>
</event>
<event>
 4    1  0.2731969E-009  0.7067824E+03  0.7818608E-02  0.9705703E-01
          1   -1    0    0  501    0  0.00000000000E+00  0.00000000000E+00  0.31536100050E+04  0.31536100050E+04  0.50400000000E-02 0. -1.
         -1   -1    0    0    0  501 -0.00000000000E+00 -0.00000000000E+00 -0.94096691206E+03  0.94096691207E+03  0.50400000000E-02 0.  1.
    8880022    1    1    2    0    0  0.17878946207E+03 -0.66647136177E+03 -0.76071044719E+03  0.10383745881E+04  0.15294330000E+03 0.  0.
    8880022    1    1    2    0    0 -0.17878946207E+03  0.66647136177E+03  0.29733535401E+04  0.30562023289E+04  0.15294330000E+03 0.  0.
<mgrwt>
<rscale>  0 0.70678243E+03</rscale>
<asrwt>0</asrwt>
<pdfrwt beam="1">  1        1 0.48517076E+00 0.70678243E+03</pdfrwt>
<pdfrwt beam="2">  1       -1 0.14476414E+00 0.70678243E+03</pdfrwt>
<totfact> 0.19517145E-01</totfact>
</mgrwt>
</event>
<event>
 4    1  0.2731969E-009  0.1168675E+04  0.7818608E-02  0.9140726E-01
          1   -1    0    0  501    0  0.00000000000E+00  0.00000000000E+00  0.12387617410E+04  0.12387617410E+04  0.50400000000E-02 0. -1.
         -1   -1    0    0    0  501 -0.00000000000E+00 -0.00000000000E+00 -0.16523925901E+04  0.16523925901E+04  0.50400000000E-02 0.  1.
    8880022    1    1    2    0    0  0.11222944304E+04 -0.28786215708E+03 -0.10406933472E+04  0.15648781761E+04  0.15294330000E+03 0.  0.
    8880022    1    1    2    0    0 -0.11222944304E+04  0.28786215708E+03  0.62706249806E+03  0.13262761551E+04  0.15294330000E+03 0.  0.
<mgrwt>
<rscale>  0 0.11686749E+04</rscale>
<asrwt>0</asrwt>
<pdfrwt beam="1">  1        1 0.19057873E+00 0.11686749E+04</pdfrwt>
<pdfrwt beam="2">  1       -1 0.25421424E+00 0.11686749E+04</pdfrwt>
<totfact> 0.64569849E-01</totfact>
</mgrwt>
</event>
<event>
 4    1  0.2731969E-009  0.5509159E+03  0.7818608E-02  0.1001282E+00
          1   -1    0    0  501    0  0.00000000000E+00  0.00000000000E+00  0.11061871135E+04  0.11061871135E+04  0.50400000000E-02 0. -1.
         -1   -1    0    0    0  501 -0.00000000000E+00 -0.00000000000E+00 -0.64549924235E+03  0.64549924237E+03  0.50400000000E-02 0.  1.
    8880022    1    1    2    0    0  0.43033006058E+03  0.30811155538E+03  0.89445248005E+03  0.10505015867E+04  0.15294330000E+03 0.  0.
    8880022    1    1    2    0    0 -0.43033006058E+03 -0.30811155538E+03 -0.43376460889E+03  0.70118476919E+03  0.15294330000E+03 0.  0.
<mgrwt>
<rscale>  0 0.55091591E+03</rscale>
<asrwt>0</asrwt>
<pdfrwt beam="1">  1        1 0.17018263E+00 0.55091591E+03</pdfrwt>
<pdfrwt beam="2">  1       -1 0.99307576E-01 0.55091591E+03</pdfrwt>
<totfact> 0.12942612E+01</totfact>
</mgrwt>
</event>
<event>
 4    1  0.2731969E-009  0.8984618E+03  0.7818608E-02  0.9427506E-01
         -1   -1    0    0    0  501 -0.00000000000E+00  0.00000000000E+00  0.12353522334E+04  0.12353522334E+04  0.50400000000E-02 0.  1.
          1   -1    0    0  501    0  0.00000000000E+00 -0.00000000000E+00 -0.97123256732E+03  0.97123256733E+03  0.50400000000E-02 0. -1.
    8880022    1    1    2    0    0  0.88138518682E+03  0.83678336970E+02  0.76315973078E+03  0.11788326172E+04  0.15294330000E+03 0.  0.
    8880022    1    1    2    0    0 -0.88138518682E+03 -0.83678336970E+02 -0.49904006470E+03  0.10277521836E+04  0.15294330000E+03 0.  0.
<mgrwt>
<rscale>  0 0.89846178E+03</rscale>
<asrwt>0</asrwt>
<pdfrwt beam="1">  1        1 0.14942040E+00 0.89846178E+03</pdfrwt>
<pdfrwt beam="2">  1       -1 0.19005419E+00 0.89846178E+03</pdfrwt>
<totfact> 0.28627860E+00</totfact>
</mgrwt>
</event>
<event>
 4    1  0.2731969E-009  0.6708493E+03  0.7818608E-02  0.9768425E-01
         -1   -1    0    0    0  501 -0.00000000000E+00  0.00000000000E+00  0.75172342648E+03  0.75172342650E+03  0.50400000000E-02 0.  1.
          1   -1    0    0  501    0  0.00000000000E+00 -0.00000000000E+00 -0.79610134822E+03  0.79610134824E+03  0.50400000000E-02 0. -1.
    8880022    1    1    2    0    0  0.84163898098E+02  0.64773727212E+03 -0.40758660339E+03  0.78496218234E+03  0.15294330000E+03 0.  0.
    8880022    1    1    2    0    0 -0.84163898098E+02 -0.64773727212E+03  0.36320868166E+03  0.76286259239E+03  0.15294330000E+03 0.  0.
<mgrwt>
<rscale>  0 0.67084930E+03</rscale>
<asrwt>0</asrwt>
<pdfrwt beam="1">  1        1 0.12247713E+00 0.67084930E+03</pdfrwt>
<pdfrwt beam="2">  1       -1 0.11564976E+00 0.67084930E+03</pdfrwt>
<totfact> 0.15683189E+01</totfact>
</mgrwt>
</event>
<event>
 4    1  0.2731969E-009  0.8370403E+03  0.7818608E-02  0.9507898E-01
          1   -1    0    0  501    0  0.00000000000E+00  0.00000000000E+00  0.22470416280E+04  0.22470416280E+04  0.50400000000E-02 0. -1.
         -1   -1    0    0    0  501 -0.00000000000E+00 -0.00000000000E+00 -0.94341542536E+03  0.94341542537E+03  0.50400000000E-02 0.  1.
    8880022    1    1    2    0    0 -0.76055670941E+03 -0.31432201746E+03  0.19570712740E+04  0.21285592460E+04  0.15294330000E+03 0.  0.
    8880022    1    1    2    0    0  0.76055670941E+03  0.31432201746E+03 -0.65344507144E+03  0.10618978074E+04  0.15294330000E+03 0.  0.
<mgrwt>
<rscale>  0 0.83704032E+03</rscale>
<asrwt>0</asrwt>
<pdfrwt beam="1">  1        1 0.34569871E+00 0.83704032E+03</pdfrwt>
<pdfrwt beam="2">  1       -1 0.14514084E+00 0.83704032E+03</pdfrwt>
<totfact> 0.80545963E-01</totfact>
</mgrwt>
</event>
<event>
 4    1  0.2731969E-009  0.6913313E+03  0.7818608E-02  0.9732173E-01
          1   -1    0    0  501    0  0.00000000000E+00  0.00000000000E+00  0.13049140488E+04  0.13049140488E+04  0.50400000000E-02 0. -1.
         -1   -1    0    0    0  501 -0.00000000000E+00 -0.00000000000E+00 -0.60988298091E+03  0.60988298093E+03  0.50400000000E-02 0.  1.
    8880022    1    1    2    0    0  0.49084095749E+03 -0.46219315862E+03  0.95261643900E+03  0.11770374226E+04  0.15294330000E+03 0.  0.
    8880022    1    1    2    0    0 -0.49084095749E+03  0.46219315862E+03 -0.25758537111E+03  0.73775960709E+03  0.15294330000E+03 0.  0.
<mgrwt>
<rscale>  0 0.69133133E+03</rscale>
<asrwt>0</asrwt>
<pdfrwt beam="1">  1        1 0.20075601E+00 0.69133133E+03</pdfrwt>
<pdfrwt beam="2">  1       -1 0.93828151E-01 0.69133133E+03</pdfrwt>
<totfact> 0.10323357E+01</totfact>
</mgrwt>
</event>
<event>
 4    1  0.2731969E-009  0.5618443E+03  0.7818608E-02  0.9987890E-01
         -1   -1    0    0    0  501 -0.00000000000E+00  0.00000000000E+00  0.28592678648E+03  0.28592678653E+03  0.50400000000E-02 0.  1.
          1   -1    0    0  501    0  0.00000000000E+00 -0.00000000000E+00 -0.18098061808E+04  0.18098061808E+04  0.50400000000E-02 0. -1.
    8880022    1    1    2    0    0  0.35749239925E+03  0.40555707442E+03 -0.14163141924E+04  0.15236846461E+04  0.15294330000E+03 0.  0.
    8880022    1    1    2    0    0 -0.35749239925E+03 -0.40555707442E+03 -0.10756520189E+03  0.57204832121E+03  0.15294330000E+03 0.  0.
<mgrwt>
<rscale>  0 0.56184429E+03</rscale>
<asrwt>0</asrwt>
<pdfrwt beam="1">  1        1 0.27843171E+00 0.56184429E+03</pdfrwt>
<pdfrwt beam="2">  1       -1 0.43988738E-01 0.56184429E+03</pdfrwt>
<totfact> 0.21918030E+01</totfact>
</mgrwt>
</event>
<event>
 4    1  0.2731969E-009  0.5543630E+03  0.7818608E-02  0.1000489E+00
          1   -1    0    0  501    0  0.00000000000E+00  0.00000000000E+00  0.20990341339E+04  0.20990341340E+04  0.50400000000E-02 0. -1.
         -1   -1    0    0    0  501 -0.00000000000E+00 -0.00000000000E+00 -0.28608657561E+03  0.28608657565E+03  0.50400000000E-02 0.  1.
    8880022    1    1    2    0    0 -0.23087075732E+03  0.48023475372E+03  0.17397602164E+04  0.18259474222E+04  0.15294330000E+03 0.  0.
    8880022    1    1    2    0    0  0.23087075732E+03 -0.48023475372E+03  0.73187341960E+02  0.55917328736E+03  0.15294330000E+03 0.  0.
<mgrwt>
<rscale>  0 0.55436304E+03</rscale>
<asrwt>0</asrwt>
<pdfrwt beam="1">  1        1 0.32292834E+00 0.55436304E+03</pdfrwt>
<pdfrwt beam="2">  1       -1 0.44013317E-01 0.55436304E+03</pdfrwt>
<totfact> 0.14095295E+01</totfact>
</mgrwt>
</event>
<event>
 4    1  0.2731969E-009  0.8789144E+03  0.7818608E-02  0.9452330E-01
         -1   -1    0    0    0  501 -0.00000000000E+00  0.00000000000E+00  0.67523652193E+03  0.67523652194E+03  0.50400000000E-02 0.  1.
          1   -1    0    0  501    0  0.00000000000E+00 -0.00000000000E+00 -0.27899973169E+04  0.27899973169E+04  0.50400000000E-02 0. -1.
    8880022    1    1    2    0    0 -0.33483635523E+03  0.79811243172E+03 -0.23881759161E+04  0.25447739973E+04  0.15294330000E+03 0.  0.
    8880022    1    1    2    0    0  0.33483635523E+03 -0.79811243172E+03  0.27341512106E+03  0.92045984154E+03  0.15294330000E+03 0.  0.
<mgrwt>
<rscale>  0 0.87891438E+03</rscale>
<asrwt>0</asrwt>
<pdfrwt beam="1">  1        1 0.42923035E+00 0.87891438E+03</pdfrwt>
<pdfrwt beam="2">  1       -1 0.10388254E+00 0.87891438E+03</pdfrwt>
<totfact> 0.77367320E-01</totfact>
</mgrwt>
</event>
<event>
 4    1  0.2731969E-009  0.6179841E+03  0.7818608E-02  0.9868782E-01
          1   -1    0    0  501    0  0.00000000000E+00  0.00000000000E+00  0.59535321240E+03  0.59535321242E+03  0.50400000000E-02 0. -1.
         -1   -1    0    0    0  501 -0.00000000000E+00 -0.00000000000E+00 -0.18441686166E+04  0.18441686166E+04  0.50400000000E-02 0.  1.
    8880022    1    1    2    0    0 -0.15107926751E+03  0.57938570062E+03  0.36062771486E+03  0.71551152115E+03  0.15294330000E+03 0. -1.
    8880022    1    1    2    0    0  0.15107926751E+03 -0.57938570062E+03 -0.16094431191E+04  0.17240103079E+04  0.15294330000E+03 0.  0.
<mgrwt>
<rscale>  0 0.61798413E+03</rscale>
<asrwt>0</asrwt>
<pdfrwt beam="1">  1        1 0.91592803E-01 0.61798413E+03</pdfrwt>
<pdfrwt beam="2">  1       -1 0.28371825E+00 0.61798413E+03</pdfrwt>
<totfact> 0.15739055E+00</totfact>
</mgrwt>
</event>
<event>
 4    1  0.2731969E-009  0.4367820E+03  0.7818608E-02  0.1031739E+00
         -1   -1    0    0    0  501 -0.00000000000E+00  0.00000000000E+00  0.20626401991E+03  0.20626401998E+03  0.50400000000E-02 0.  1.
          1   -1    0    0  501    0  0.00000000000E+00 -0.00000000000E+00 -0.28845999846E+04  0.28845999846E+04  0.50400000000E-02 0. -1.
    8880022    1    1    2    0    0 -0.14576914520E+03 -0.38228026891E+03 -0.65373801826E+02  0.44164718347E+03  0.15294330000E+03 0.  0.
    8880022    1    1    2    0    0  0.14576914520E+03  0.38228026891E+03 -0.26129621628E+04  0.26492168211E+04  0.15294330000E+03 0.  0.
<mgrwt>
<rscale>  0 0.43678198E+03</rscale>
<asrwt>0</asrwt>
<pdfrwt beam="1">  1        1 0.44378458E+00 0.43678198E+03</pdfrwt>
<pdfrwt beam="2">  1       -1 0.31732928E-01 0.43678198E+03</pdfrwt>
<totfact> 0.76503646E+00</totfact>
</mgrwt>
</event>
<event>
 4    1  0.2731969E-009  0.3753553E+03  0.7818608E-02  0.1052664E+00
         -1   -1    0    0    0  501 -0.00000000000E+00  0.00000000000E+00  0.66079990873E+03  0.66079990875E+03  0.50400000000E-02 0.  1.
          1   -1    0    0  501    0  0.00000000000E+00 -0.00000000000E+00 -0.41785191294E+03  0.41785191297E+03  0.50400000000E-02 0. -1.
    8880022    1    1    2    0    0  0.30611945022E+03 -0.15424276211E+03  0.49890141441E+03  0.62433502367E+03  0.15294330000E+03 0.  0.
    8880022    1    1    2    0    0 -0.30611945022E+03  0.15424276211E+03 -0.25595341862E+03  0.45431679805E+03  0.15294330000E+03 0.  0.
<mgrwt>
<rscale>  0 0.37535530E+03</rscale>
<asrwt>0</asrwt>
<pdfrwt beam="1">  1        1 0.64284910E-01 0.37535530E+03</pdfrwt>
<pdfrwt beam="2">  1       -1 0.10166152E+00 0.37535530E+03</pdfrwt>
<totfact> 0.55245774E+01</totfact>
</mgrwt>
</event>
<event>
 4    1  0.2731969E-009  0.8606289E+03  0.7818608E-02  0.9476181E-01
          1   -1    0    0  501    0  0.00000000000E+00  0.00000000000E+00  0.18688336856E+04  0.18688336856E+04  0.50400000000E-02 0. -1.
         -1   -1    0    0    0  501 -0.00000000000E+00 -0.00000000000E+00 -0.77026527884E+03  0.77026527885E+03  0.50400000000E-02 0.  1.
    8880022    1    1    2    0    0 -0.74810664052E+03 -0.39702255183E+03  0.14686778262E+04  0.17022622190E+04  0.15294330000E+03 0.  0.
    8880022    1    1    2    0    0  0.74810664052E+03  0.39702255183E+03 -0.37010941939E+03  0.93683674543E+03  0.15294330000E+03 0.  0.
<mgrwt>
<rscale>  0 0.86062890E+03</rscale>
<asrwt>0</asrwt>
<pdfrwt beam="1">  1        1 0.28751287E+00 0.86062890E+03</pdfrwt>
<pdfrwt beam="2">  1       -1 0.11850235E+00 0.86062890E+03</pdfrwt>
<totfact> 0.24073335E+00</totfact>
</mgrwt>
</event>
<event>
 4    1  0.2731969E-009  0.2219721E+03  0.7818608E-02  0.1132421E+00
          1   -1    0    0  501    0  0.00000000000E+00  0.00000000000E+00  0.15581534963E+04  0.15581534963E+04  0.50400000000E-02 0. -1.
         -1   -1    0    0    0  501 -0.00000000000E+00 -0.00000000000E+00 -0.47877586362E+03  0.47877586365E+03  0.50400000000E-02 0.  1.
    8880022    1    1    2    0    0  0.16067044876E+03  0.80609923823E+01  0.15239456457E+04  0.15400266091E+04  0.15294330000E+03 0.  0.
    8880022    1    1    2    0    0 -0.16067044876E+03 -0.80609923823E+01 -0.44456801296E+03  0.49690275091E+03  0.15294330000E+03 0.  1.
<mgrwt>
<rscale>  0 0.22197213E+03</rscale>
<asrwt>0</asrwt>
<pdfrwt beam="1">  1        1 0.23971592E+00 0.22197213E+03</pdfrwt>
<pdfrwt beam="2">  1       -1 0.73657826E-01 0.22197213E+03</pdfrwt>
<totfact> 0.13208170E+01</totfact>
</mgrwt>
</event>
<event>
 4    1  0.2731969E-009  0.4430546E+03  0.7818608E-02  0.1029814E+00
          1   -1    0    0  501    0  0.00000000000E+00  0.00000000000E+00  0.47095495659E+03  0.47095495662E+03  0.50400000000E-02 0. -1.
         -1   -1    0    0    0  501 -0.00000000000E+00 -0.00000000000E+00 -0.60757664536E+03  0.60757664538E+03  0.50400000000E-02 0.  1.
    8880022    1    1    2    0    0 -0.16468055413E+03 -0.38181936522E+03  0.23386300403E+03  0.50098829351E+03  0.15294330000E+03 0.  0.
    8880022    1    1    2    0    0  0.16468055413E+03  0.38181936522E+03 -0.37048469280E+03  0.57754330849E+03  0.15294330000E+03 0.  0.
<mgrwt>
<rscale>  0 0.44305459E+03</rscale>
<asrwt>0</asrwt>
<pdfrwt beam="1">  1        1 0.72454609E-01 0.44305459E+03</pdfrwt>
<pdfrwt beam="2">  1       -1 0.93473330E-01 0.44305459E+03</pdfrwt>
<totfact> 0.56317363E+01</totfact>
</mgrwt>
</event>
<event>
 4    1  0.2731969E-009  0.5637733E+03  0.7818608E-02  0.9983553E-01
          1   -1    0    0  501    0  0.00000000000E+00  0.00000000000E+00  0.29864926919E+04  0.29864926920E+04  0.50400000000E-02 0. -1.
         -1   -1    0    0    0  501 -0.00000000000E+00 -0.00000000000E+00 -0.38142560349E+03  0.38142560352E+03  0.50400000000E-02 0.  1.
    8880022    1    1    2    0    0 -0.18922781689E+01 -0.54262798552E+03 -0.12732374110E+03  0.57797205767E+03  0.15294330000E+03 0.  1.
    8880022    1    1    2    0    0  0.18922781689E+01  0.54262798552E+03  0.27323908296E+04  0.27899462378E+04  0.15294330000E+03 0.  0.
<mgrwt>
<rscale>  0 0.56377333E+03</rscale>
<asrwt>0</asrwt>
<pdfrwt beam="1">  1        1 0.45946040E+00 0.56377333E+03</pdfrwt>
<pdfrwt beam="2">  1       -1 0.58680864E-01 0.56377333E+03</pdfrwt>
<totfact> 0.20231332E+00</totfact>
</mgrwt>
</event>
<event>
 4    1  0.2731969E-009  0.8750520E+03  0.7818608E-02  0.9457316E-01
          1   -1    0    0  501    0  0.00000000000E+00  0.00000000000E+00  0.92202640707E+03  0.92202640709E+03  0.50400000000E-02 0. -1.
         -1   -1    0    0    0  501 -0.00000000000E+00 -0.00000000000E+00 -0.26241823139E+04  0.26241823139E+04  0.50400000000E-02 0.  1.
    8880022    1    1    2    0    0 -0.85854245837E+03 -0.72313742750E+02 -0.23170091386E+04  0.24767412929E+04  0.15294330000E+03 0.  0.
    8880022    1    1    2    0    0  0.85854245837E+03  0.72313742750E+02  0.61485323179E+03  0.10694674282E+04  0.15294330000E+03 0.  0.
<mgrwt>
<rscale>  0 0.87505205E+03</rscale>
<asrwt>0</asrwt>
<pdfrwt beam="1">  1        1 0.14185022E+00 0.87505205E+03</pdfrwt>
<pdfrwt beam="2">  1       -1 0.40372035E+00 0.87505205E+03</pdfrwt>
<totfact> 0.12379145E-01</totfact>
</mgrwt>
</event>
<event>
 4    1  0.2731969E-009  0.8996979E+03  0.7818608E-02  0.9425959E-01
         -1   -1    0    0    0  501 -0.00000000000E+00  0.00000000000E+00  0.66204246962E+03  0.66204246963E+03  0.50400000000E-02 0.  1.
          1   -1    0    0  501    0  0.00000000000E+00 -0.00000000000E+00 -0.18083422657E+04  0.18083422657E+04  0.50400000000E-02 0. -1.
    8880022    1    1    2    0    0  0.72592657399E+03 -0.50901403693E+03  0.12979837238E+03  0.90901262428E+03  0.15294330000E+03 0.  0.
    8880022    1    1    2    0    0 -0.72592657399E+03  0.50901403693E+03 -0.12760981684E+04  0.15613721110E+04  0.15294330000E+03 0.  0.
<mgrwt>
<rscale>  0 0.89969791E+03</rscale>
<asrwt>0</asrwt>
<pdfrwt beam="1">  1        1 0.27820650E+00 0.89969791E+03</pdfrwt>
<pdfrwt beam="2">  1       -1 0.10185269E+00 0.89969791E+03</pdfrwt>
<totfact> 0.37581590E+00</totfact>
</mgrwt>
</event>
<event>
 4    1  0.2731969E-009  0.1215406E+04  0.7818608E-02  0.9099477E-01
         -1   -1    0    0    0  501 -0.00000000000E+00  0.00000000000E+00  0.20183762994E+04  0.20183762994E+04  0.50400000000E-02 0.  1.
          1   -1    0    0  501    0  0.00000000000E+00 -0.00000000000E+00 -0.18125754382E+04  0.18125754382E+04  0.50400000000E-02 0. -1.
    8880022    1    1    2    0    0  0.34585560427E+03 -0.11550776146E+04  0.15819407729E+04  0.19949307398E+04  0.15294330000E+03 0.  0.
    8880022    1    1    2    0    0 -0.34585560427E+03  0.11550776146E+04 -0.13761399116E+04  0.18360209978E+04  0.15294330000E+03 0.  0.
<mgrwt>
<rscale>  0 0.12154061E+04</rscale>
<asrwt>0</asrwt>
<pdfrwt beam="1">  1        1 0.27885776E+00 0.12154061E+04</pdfrwt>
<pdfrwt beam="2">  1       -1 0.31051943E+00 0.12154061E+04</pdfrwt>
<totfact> 0.11082563E-01</totfact>
</mgrwt>
</event>
<event>
 4    1  0.2731969E-009  0.9661068E+03  0.7818608E-02  0.9346520E-01
          1   -1    0    0  501    0  0.00000000000E+00  0.00000000000E+00  0.13698491555E+04  0.13698491556E+04  0.50400000000E-02 0. -1.
         -1   -1    0    0    0  501 -0.00000000000E+00 -0.00000000000E+00 -0.76574888762E+03  0.76574888764E+03  0.50400000000E-02 0.  1.
    8880022    1    1    2    0    0  0.75478613422E+03 -0.58332547387E+03 -0.52424612714E+02  0.96752814425E+03  0.15294330000E+03 0.  0.
    8880022    1    1    2    0    0 -0.75478613422E+03  0.58332547387E+03  0.65652488064E+03  0.11680698989E+04  0.15294330000E+03 0.  0.
<mgrwt>
<rscale>  0 0.96610681E+03</rscale>
<asrwt>0</asrwt>
<pdfrwt beam="1">  1        1 0.21074602E+00 0.96610681E+03</pdfrwt>
<pdfrwt beam="2">  1       -1 0.11780752E+00 0.96610681E+03</pdfrwt>
<totfact> 0.52696640E+00</totfact>
</mgrwt>
</event>
<event>
 4    1  0.2731969E-009  0.1190502E+04  0.7818608E-02  0.9121211E-01
          1   -1    0    0  501    0  0.00000000000E+00  0.00000000000E+00  0.29189589005E+04  0.29189589005E+04  0.50400000000E-02 0. -1.
         -1   -1    0    0    0  501 -0.00000000000E+00 -0.00000000000E+00 -0.90184531193E+03  0.90184531194E+03  0.50400000000E-02 0.  1.
    8880022    1    1    2    0    0  0.11435383722E+04  0.29363963643E+03 -0.28940032139E+03  0.12251728221E+04  0.15294330000E+03 0.  0.
    8880022    1    1    2    0    0 -0.11435383722E+04 -0.29363963643E+03  0.23065139099E+04  0.25956313903E+04  0.15294330000E+03 0.  0.
<mgrwt>
<rscale>  0 0.11905024E+04</rscale>
<asrwt>0</asrwt>
<pdfrwt beam="1">  1        1 0.44907061E+00 0.11905024E+04</pdfrwt>
<pdfrwt beam="2">  1       -1 0.13874543E+00 0.11905024E+04</pdfrwt>
<totfact> 0.29192516E-01</totfact>
</mgrwt>
</event>
<event>
 4    1  0.2731969E-009  0.1816491E+03  0.7818608E-02  0.1166216E+00
         -1   -1    0    0    0  501 -0.00000000000E+00  0.00000000000E+00  0.29438082977E+02  0.29438083409E+02  0.50400000000E-02 0.  1.
          1   -1    0    0  501    0  0.00000000000E+00 -0.00000000000E+00 -0.11296224157E+04  0.11296224157E+04  0.50400000000E-02 0. -1.
    8880022    1    1    2    0    0 -0.76175389552E+02 -0.61660889895E+02 -0.60109003472E+03  0.62793760691E+03  0.15294330000E+03 0.  0.
    8880022    1    1    2    0    0  0.76175389552E+02  0.61660889895E+02 -0.49909429800E+03  0.53112289220E+03  0.15294330000E+03 0.  1.
<mgrwt>
<rscale>  0 0.18164914E+03</rscale>
<asrwt>0</asrwt>
<pdfrwt beam="1">  1        1 0.17378803E+00 0.18164914E+03</pdfrwt>
<pdfrwt beam="2">  1       -1 0.45289367E-02 0.18164914E+03</pdfrwt>
<totfact> 0.26087744E+03</totfact>
</mgrwt>
</event>
<event>
 4    1  0.2731969E-009  0.2431812E+03  0.7818608E-02  0.1117692E+00
         -1   -1    0    0    0  501 -0.00000000000E+00  0.00000000000E+00  0.72200995950E+03  0.72200995952E+03  0.50400000000E-02 0.  1.
          1   -1    0    0  501    0  0.00000000000E+00 -0.00000000000E+00 -0.14429835833E+04  0.14429835833E+04  0.50400000000E-02 0. -1.
    8880022    1    1    2    0    0  0.14525655820E+03  0.12102055362E+03  0.69083898905E+03  0.73239033576E+03  0.15294330000E+03 0.  0.
    8880022    1    1    2    0    0 -0.14525655820E+03 -0.12102055362E+03 -0.14118126128E+04  0.14326032070E+04  0.15294330000E+03 0.  0.
<mgrwt>
<rscale>  0 0.24318120E+03</rscale>
<asrwt>0</asrwt>
<pdfrwt beam="1">  1        1 0.22199748E+00 0.24318120E+03</pdfrwt>
<pdfrwt beam="2">  1       -1 0.11107845E+00 0.24318120E+03</pdfrwt>
<totfact> 0.64131965E+00</totfact>
</mgrwt>
</event>
<event>
 4    1  0.2731969E-009  0.6655723E+03  0.7818608E-02  0.9777990E-01
          1   -1    0    0  501    0  0.00000000000E+00  0.00000000000E+00  0.43445555564E+03  0.43445555567E+03  0.50400000000E-02 0. -1.
         -1   -1    0    0    0  501 -0.00000000000E+00 -0.00000000000E+00 -0.10549443247E+04  0.10549443247E+04  0.50400000000E-02 0.  1.
    8880022    1    1    2    0    0  0.26600688654E+02  0.64721501892E+03 -0.44648450792E+03  0.80145801274E+03  0.15294330000E+03 0.  0.
    8880022    1    1    2    0    0 -0.26600688654E+02 -0.64721501892E+03 -0.17400426113E+03  0.68794186764E+03  0.15294330000E+03 0.  0.
<mgrwt>
<rscale>  0 0.66557233E+03</rscale>
<asrwt>0</asrwt>
<pdfrwt beam="1">  1        1 0.66839316E-01 0.66557233E+03</pdfrwt>
<pdfrwt beam="2">  1       -1 0.16229913E+00 0.66557233E+03</pdfrwt>
<totfact> 0.15649463E+01</totfact>
</mgrwt>
</event>
<event>
 4    1  0.2731969E-009  0.1560729E+04  0.7818608E-02  0.8845044E-01
         -1   -1    0    0    0  501 -0.00000000000E+00  0.00000000000E+00  0.15465382988E+04  0.15465382988E+04  0.50400000000E-02 0.  1.
          1   -1    0    0  501    0  0.00000000000E+00 -0.00000000000E+00 -0.29201142120E+04  0.29201142120E+04  0.50400000000E-02 0. -1.
    8880022    1    1    2    0    0  0.88524055122E+02  0.15506921962E+04 -0.22025248946E+04  0.26994426018E+04  0.15294330000E+03 0.  0.
    8880022    1    1    2    0    0 -0.88524055122E+02 -0.15506921962E+04  0.82894898134E+03  0.17672099090E+04  0.15294330000E+03 0.  0.
<mgrwt>
<rscale>  0 0.15607288E+04</rscale>
<asrwt>0</asrwt>
<pdfrwt beam="1">  1        1 0.44924834E+00 0.15607288E+04</pdfrwt>
<pdfrwt beam="2">  1       -1 0.23792897E+00 0.15607288E+04</pdfrwt>
<totfact> 0.53592106E-02</totfact>
</mgrwt>
</event>
<event>
 4    1  0.2731969E-009  0.9151856E+03  0.7818608E-02  0.9406795E-01
         -1   -1    0    0    0  501 -0.00000000000E+00  0.00000000000E+00  0.11783045940E+04  0.11783045940E+04  0.50400000000E-02 0.  1.
          1   -1    0    0  501    0  0.00000000000E+00 -0.00000000000E+00 -0.95408405915E+03  0.95408405917E+03  0.50400000000E-02 0. -1.
    8880022    1    1    2    0    0  0.81724796523E+03 -0.38246418845E+03  0.65047958334E+03  0.11228038268E+04  0.15294330000E+03 0.  0.
    8880022    1    1    2    0    0 -0.81724796523E+03  0.38246418845E+03 -0.42625904852E+03  0.10095848263E+04  0.15294330000E+03 0.  0.
<mgrwt>
<rscale>  0 0.91518563E+03</rscale>
<asrwt>0</asrwt>
<pdfrwt beam="1">  1        1 0.14678216E+00 0.91518563E+03</pdfrwt>
<pdfrwt beam="2">  1       -1 0.18127763E+00 0.91518563E+03</pdfrwt>
<totfact> 0.33993420E+00</totfact>
</mgrwt>
</event>
<event>
 4    1  0.2731969E-009  0.9117455E+03  0.7818608E-02  0.9411017E-01
          1   -1    0    0  501    0  0.00000000000E+00  0.00000000000E+00  0.20149232041E+04  0.20149232041E+04  0.50400000000E-02 0. -1.
         -1   -1    0    0    0  501 -0.00000000000E+00 -0.00000000000E+00 -0.54540369346E+03  0.54540369348E+03  0.50400000000E-02 0.  1.
    8880022    1    1    2    0    0  0.47316732587E+03  0.76419948526E+03  0.10296744501E+03  0.91754134474E+03  0.15294330000E+03 0.  0.
    8880022    1    1    2    0    0 -0.47316732587E+03 -0.76419948526E+03  0.13665520656E+04  0.16427855528E+04  0.15294330000E+03 0.  0.
<mgrwt>
<rscale>  0 0.91174548E+03</rscale>
<asrwt>0</asrwt>
<pdfrwt beam="1">  1        1 0.30998819E+00 0.91174548E+03</pdfrwt>
<pdfrwt beam="2">  1       -1 0.83908259E-01 0.91174548E+03</pdfrwt>
<totfact> 0.41971821E+00</totfact>
</mgrwt>
</event>
<event>
 4    1  0.2731969E-009  0.6236862E+03  0.7818608E-02  0.9857448E-01
          1   -1    0    0  501    0  0.00000000000E+00  0.00000000000E+00  0.61210606133E+03  0.61210606135E+03  0.50400000000E-02 0. -1.
         -1   -1    0    0    0  501 -0.00000000000E+00 -0.00000000000E+00 -0.19480311288E+04  0.19480311288E+04  0.50400000000E-02 0.  1.
    8880022    1    1    2    0    0 -0.31595541242E+03 -0.51552398367E+03  0.38277082706E+03  0.73177726081E+03  0.15294330000E+03 0.  0.
    8880022    1    1    2    0    0  0.31595541242E+03  0.51552398367E+03 -0.17186958945E+04  0.18283599293E+04  0.15294330000E+03 0.  0.
<mgrwt>
<rscale>  0 0.62368618E+03</rscale>
<asrwt>0</asrwt>
<pdfrwt beam="1">  1        1 0.94170164E-01 0.62368618E+03</pdfrwt>
<pdfrwt beam="2">  1       -1 0.29969709E+00 0.62368618E+03</pdfrwt>
<totfact> 0.11952961E+00</totfact>
</mgrwt>
</event>
<event>
 4    1  0.2731969E-009  0.5784855E+03  0.7818608E-02  0.9951075E-01
          1   -1    0    0  501    0  0.00000000000E+00  0.00000000000E+00  0.80279771121E+03  0.80279771122E+03  0.50400000000E-02 0. -1.
         -1   -1    0    0    0  501 -0.00000000000E+00 -0.00000000000E+00 -0.21800976250E+04  0.21800976250E+04  0.50400000000E-02 0.  1.
    8880022    1    1    2    0    0  0.28159273882E+03  0.48162153817E+03  0.65265282240E+03  0.87212449581E+03  0.15294330000E+03 0.  0.
    8880022    1    1    2    0    0 -0.28159273882E+03 -0.48162153817E+03 -0.20299527362E+04  0.21107708404E+04  0.15294330000E+03 0.  0.
<mgrwt>
<rscale>  0 0.57848546E+03</rscale>
<asrwt>0</asrwt>
<pdfrwt beam="1">  1        1 0.12350734E+00 0.57848546E+03</pdfrwt>
<pdfrwt beam="2">  1       -1 0.33539963E+00 0.57848546E+03</pdfrwt>
<totfact> 0.47469380E-01</totfact>
</mgrwt>
</event>
<event>
 4    1  0.2731969E-009  0.1462206E+04  0.7818608E-02  0.8909982E-01
         -1   -1    0    0    0  501 -0.00000000000E+00  0.00000000000E+00  0.17375280737E+04  0.17375280737E+04  0.50400000000E-02 0.  1.
          1   -1    0    0  501    0  0.00000000000E+00 -0.00000000000E+00 -0.20512514989E+04  0.20512514989E+04  0.50400000000E-02 0. -1.
    8880022    1    1    2    0    0 -0.68826870532E+03 -0.12809923448E+04 -0.13551543876E+04  0.19936123659E+04  0.15294330000E+03 0.  0.
    8880022    1    1    2    0    0  0.68826870532E+03  0.12809923448E+04  0.10414309624E+04  0.17951672068E+04  0.15294330000E+03 0.  0.
<mgrwt>
<rscale>  0 0.14622062E+04</rscale>
<asrwt>0</asrwt>
<pdfrwt beam="1">  1        1 0.31557716E+00 0.14622062E+04</pdfrwt>
<pdfrwt beam="2">  1       -1 0.26731201E+00 0.14622062E+04</pdfrwt>
<totfact> 0.14020704E-01</totfact>
</mgrwt>
</event>
<event>
 4    1  0.2731969E-009  0.5409629E+03  0.7818608E-02  0.1003608E+00
         -1   -1    0    0    0  501 -0.00000000000E+00  0.00000000000E+00  0.55110787057E+03  0.55110787059E+03  0.50400000000E-02 0.  1.
          1   -1    0    0  501    0  0.00000000000E+00 -0.00000000000E+00 -0.13472122409E+04  0.13472122409E+04  0.50400000000E-02 0. -1.
    8880022    1    1    2    0    0 -0.27154066225E+03  0.44217058811E+03  0.34073911331E+03  0.63933086630E+03  0.15294330000E+03 0.  0.
    8880022    1    1    2    0    0  0.27154066225E+03 -0.44217058811E+03 -0.11368434836E+04  0.12589892452E+04  0.15294330000E+03 0.  0.
<mgrwt>
<rscale>  0 0.54096286E+03</rscale>
<asrwt>0</asrwt>
<pdfrwt beam="1">  1        1 0.20726342E+00 0.54096286E+03</pdfrwt>
<pdfrwt beam="2">  1       -1 0.84785827E-01 0.54096286E+03</pdfrwt>
<totfact> 0.12359165E+01</totfact>
</mgrwt>
</event>
<event>
 4    1  0.2731969E-009  0.6881873E+03  0.7818608E-02  0.9737649E-01
         -1   -1    0    0    0  501 -0.00000000000E+00  0.00000000000E+00  0.98148975228E+03  0.98148975229E+03  0.50400000000E-02 0.  1.
          1   -1    0    0  501    0  0.00000000000E+00 -0.00000000000E+00 -0.10108430513E+04  0.10108430513E+04  0.50400000000E-02 0. -1.
    8880022    1    1    2    0    0 -0.29127297504E+03  0.60445854745E+03 -0.73484533855E+03  0.10067767410E+04  0.15294330000E+03 0.  0.
    8880022    1    1    2    0    0  0.29127297504E+03 -0.60445854745E+03  0.70549203957E+03  0.98555606258E+03  0.15294330000E+03 0.  0.
<mgrwt>
<rscale>  0 0.68818728E+03</rscale>
<asrwt>0</asrwt>
<pdfrwt beam="1">  1        1 0.15551432E+00 0.68818728E+03</pdfrwt>
<pdfrwt beam="2">  1       -1 0.15099842E+00 0.68818728E+03</pdfrwt>
<totfact> 0.53229010E+00</totfact>
</mgrwt>
</event>
<event>
 4    1  0.2731969E-009  0.1363114E+04  0.7818608E-02  0.8980960E-01
         -1   -1    0    0    0  501 -0.00000000000E+00  0.00000000000E+00  0.11596349047E+04  0.11596349047E+04  0.50400000000E-02 0.  1.
          1   -1    0    0  501    0  0.00000000000E+00 -0.00000000000E+00 -0.16585488199E+04  0.16585488199E+04  0.50400000000E-02 0. -1.
    8880022    1    1    2    0    0  0.12662510004E+04 -0.48093316928E+03 -0.50895974250E+03  0.14550326394E+04  0.15294330000E+03 0.  0.
    8880022    1    1    2    0    0 -0.12662510004E+04  0.48093316928E+03  0.10045827278E+02  0.13631510852E+04  0.15294330000E+03 0.  0.
<mgrwt>
<rscale>  0 0.13631141E+04</rscale>
<asrwt>0</asrwt>
<pdfrwt beam="1">  1        1 0.25516136E+00 0.13631141E+04</pdfrwt>
<pdfrwt beam="2">  1       -1 0.17840537E+00 0.13631141E+04</pdfrwt>
<totfact> 0.10457205E+00</totfact>
</mgrwt>
</event>
<event>
 4    1  0.2731969E-009  0.6408382E+03  0.7818608E-02  0.9824124E-01
         -1   -1    0    0    0  501 -0.00000000000E+00  0.00000000000E+00  0.20114252050E+03  0.20114252056E+03  0.50400000000E-02 0.  1.
          1   -1    0    0  501    0  0.00000000000E+00 -0.00000000000E+00 -0.35790597383E+04  0.35790597383E+04  0.50400000000E-02 0. -1.
    8880022    1    1    2    0    0 -0.62112926690E+03 -0.38475798728E+02 -0.45019718657E+03  0.78316735958E+03  0.15294330000E+03 0.  0.
    8880022    1    1    2    0    0  0.62112926690E+03  0.38475798728E+02 -0.29277200312E+04  0.29970348993E+04  0.15294330000E+03 0.  0.
<mgrwt>
<rscale>  0 0.64083821E+03</rscale>
<asrwt>0</asrwt>
<pdfrwt beam="1">  1        1 0.55062453E+00 0.64083821E+03</pdfrwt>
<pdfrwt beam="2">  1       -1 0.30945006E-01 0.64083821E+03</pdfrwt>
<totfact> 0.23269310E+00</totfact>
</mgrwt>
</event>
<event>
 4    1  0.2731969E-009  0.3246946E+03  0.7818608E-02  0.1073509E+00
          1   -1    0    0  501    0  0.00000000000E+00  0.00000000000E+00  0.21943348625E+03  0.21943348630E+03  0.50400000000E-02 0. -1.
         -1   -1    0    0    0  501 -0.00000000000E+00 -0.00000000000E+00 -0.14713165883E+04  0.14713165883E+04  0.50400000000E-02 0.  1.
    8880022    1    1    2    0    0 -0.27438633565E+02 -0.28510011646E+03  0.67810302177E+02  0.33169993234E+03  0.15294330000E+03 0. -1.
    8880022    1    1    2    0    0  0.27438633565E+02  0.28510011646E+03 -0.13196934042E+04  0.13590501422E+04  0.15294330000E+03 0.  0.
<mgrwt>
<rscale>  0 0.32469464E+03</rscale>
<asrwt>0</asrwt>
<pdfrwt beam="1">  1        1 0.33758999E-01 0.32469464E+03</pdfrwt>
<pdfrwt beam="2">  1       -1 0.22635639E+00 0.32469464E+03</pdfrwt>
<totfact> 0.14539473E+01</totfact>
</mgrwt>
</event>
<event>
 4    1  0.2731969E-009  0.2635718E+03  0.7818608E-02  0.1105016E+00
         -1   -1    0    0    0  501 -0.00000000000E+00  0.00000000000E+00  0.72659050623E+02  0.72659050798E+02  0.50400000000E-02 0.  1.
          1   -1    0    0  501    0  0.00000000000E+00 -0.00000000000E+00 -0.35198227411E+04  0.35198227411E+04  0.50400000000E-02 0. -1.
    8880022    1    1    2    0    0 -0.12620437771E+03 -0.17364007024E+03 -0.19059357106E+03  0.32526294177E+03  0.15294330000E+03 0.  0.
    8880022    1    1    2    0    0  0.12620437771E+03  0.17364007024E+03 -0.32565701194E+04  0.32672188502E+04  0.15294330000E+03 0. -1.
<mgrwt>
<rscale>  0 0.26357176E+03</rscale>
<asrwt>0</asrwt>
<pdfrwt beam="1">  1        1 0.54151106E+00 0.26357176E+03</pdfrwt>
<pdfrwt beam="2">  1       -1 0.11178318E-01 0.26357176E+03</pdfrwt>
<totfact> 0.15623369E+01</totfact>
</mgrwt>
</event>
<event>
 4    1  0.2731969E-009  0.1945051E+04  0.7818608E-02  0.8632751E-01
         -1   -1    0    0    0  501 -0.00000000000E+00  0.00000000000E+00  0.10859093095E+04  0.10859093095E+04  0.50400000000E-02 0.  1.
          1   -1    0    0  501    0  0.00000000000E+00 -0.00000000000E+00 -0.42132267101E+04  0.42132267101E+04  0.50400000000E-02 0. -1.
    8880022    1    1    2    0    0  0.12592278959E+04 -0.14745087327E+04 -0.46130140341E+03  0.19990051362E+04  0.15294330000E+03 0.  0.
    8880022    1    1    2    0    0 -0.12592278959E+04  0.14745087327E+04 -0.26660159972E+04  0.33001308833E+04  0.15294330000E+03 0.  0.
<mgrwt>
<rscale>  0 0.19450508E+04</rscale>
<asrwt>0</asrwt>
<pdfrwt beam="1">  1        1 0.64818872E+00 0.19450508E+04</pdfrwt>
<pdfrwt beam="2">  1       -1 0.16706297E+00 0.19450508E+04</pdfrwt>
<totfact> 0.14434254E-02</totfact>
</mgrwt>
</event>
<event>
 4    1  0.2731969E-009  0.8827033E+03  0.7818608E-02  0.9447465E-01
         -1   -1    0    0    0  501 -0.00000000000E+00  0.00000000000E+00  0.20560873653E+04  0.20560873653E+04  0.50400000000E-02 0.  1.
          1   -1    0    0  501    0  0.00000000000E+00 -0.00000000000E+00 -0.10244599670E+04  0.10244599670E+04  0.50400000000E-02 0. -1.
    8880022    1    1    2    0    0  0.80915595016E+03 -0.31786807951E+03 -0.70683052721E+03  0.11308291272E+04  0.15294330000E+03 0.  0.
    8880022    1    1    2    0    0 -0.80915595016E+03  0.31786807951E+03  0.17384579255E+04  0.19497182051E+04  0.15294330000E+03 0.  0.
<mgrwt>
<rscale>  0 0.88270330E+03</rscale>
<asrwt>0</asrwt>
<pdfrwt beam="1">  1        1 0.15760923E+00 0.88270330E+03</pdfrwt>
<pdfrwt beam="2">  1       -1 0.31632113E+00 0.88270330E+03</pdfrwt>
<totfact> 0.38862336E-01</totfact>
</mgrwt>
</event>
<event>
 4    1  0.2731969E-009  0.3154597E+03  0.7818608E-02  0.1077758E+00
         -1   -1    0    0    0  501 -0.00000000000E+00  0.00000000000E+00  0.14275304878E+03  0.14275304887E+03  0.50400000000E-02 0.  1.
          1   -1    0    0  501    0  0.00000000000E+00 -0.00000000000E+00 -0.27379626177E+04  0.27379626177E+04  0.50400000000E-02 0. -1.
    8880022    1    1    2    0    0 -0.25793627807E+03 -0.97938842488E+02 -0.54057502918E+02  0.32005781829E+03  0.15294330000E+03 0.  1.
    8880022    1    1    2    0    0  0.25793627807E+03  0.97938842488E+02 -0.25411520660E+04  0.25606578483E+04  0.15294330000E+03 0.  0.
<mgrwt>
<rscale>  0 0.31545965E+03</rscale>
<asrwt>0</asrwt>
<pdfrwt beam="1">  1        1 0.42122498E+00 0.31545965E+03</pdfrwt>
<pdfrwt beam="2">  1       -1 0.21962009E-01 0.31545965E+03</pdfrwt>
<totfact> 0.18776812E+01</totfact>
</mgrwt>
</event>
<event>
 4    1  0.2731969E-009  0.5967777E+03  0.7818608E-02  0.9912114E-01
          1   -1    0    0  501    0  0.00000000000E+00  0.00000000000E+00  0.21938944463E+04  0.21938944463E+04  0.50400000000E-02 0. -1.
         -1   -1    0    0    0  501 -0.00000000000E+00 -0.00000000000E+00 -0.61802973960E+03  0.61802973962E+03  0.50400000000E-02 0.  1.
    8880022    1    1    2    0    0 -0.54385532050E+03  0.19228444982E+03 -0.41934325989E+03  0.72937805144E+03  0.15294330000E+03 0.  0.
    8880022    1    1    2    0    0  0.54385532050E+03 -0.19228444982E+03  0.19952079666E+04  0.20825461345E+04  0.15294330000E+03 0.  0.
<mgrwt>
<rscale>  0 0.59677766E+03</rscale>
<asrwt>0</asrwt>
<pdfrwt beam="1">  1        1 0.33752222E+00 0.59677766E+03</pdfrwt>
<pdfrwt beam="2">  1       -1 0.95081498E-01 0.59677766E+03</pdfrwt>
<totfact> 0.25693919E+00</totfact>
</mgrwt>
</event>
<event>
 4    1  0.2731969E-009  0.8180678E+03  0.7818608E-02  0.9534227E-01
         -1   -1    0    0    0  501 -0.00000000000E+00  0.00000000000E+00  0.12896809207E+04  0.12896809207E+04  0.50400000000E-02 0.  1.
          1   -1    0    0  501    0  0.00000000000E+00 -0.00000000000E+00 -0.94955324709E+03  0.94955324710E+03  0.50400000000E-02 0. -1.
    8880022    1    1    2    0    0 -0.50072707235E+03  0.62858226262E+03 -0.58392705532E+03  0.10050899068E+04  0.15294330000E+03 0.  0.
    8880022    1    1    2    0    0  0.50072707235E+03 -0.62858226262E+03  0.92405472896E+03  0.12341442610E+04  0.15294330000E+03 0.  0.
<mgrwt>
<rscale>  0 0.81806779E+03</rscale>
<asrwt>0</asrwt>
<pdfrwt beam="1">  1        1 0.14608512E+00 0.81806779E+03</pdfrwt>
<pdfrwt beam="2">  1       -1 0.19841245E+00 0.81806779E+03</pdfrwt>
<totfact> 0.26372531E+00</totfact>
</mgrwt>
</event>
<event>
 4    1  0.2731969E-009  0.5477284E+03  0.7818608E-02  0.1002021E+00
         -1   -1    0    0    0  501 -0.00000000000E+00  0.00000000000E+00  0.43555914754E+03  0.43555914757E+03  0.50400000000E-02 0.  1.
          1   -1    0    0  501    0  0.00000000000E+00 -0.00000000000E+00 -0.11026224189E+04  0.11026224189E+04  0.50400000000E-02 0. -1.
    8880022    1    1    2    0    0 -0.30413931962E+03 -0.42908507805E+03 -0.80470349721E+03  0.97342390631E+03  0.15294330000E+03 0.  0.
    8880022    1    1    2    0    0  0.30413931962E+03  0.42908507805E+03  0.13764022583E+03  0.56475766018E+03  0.15294330000E+03 0.  1.
<mgrwt>
<rscale>  0 0.54772838E+03</rscale>
<asrwt>0</asrwt>
<pdfrwt beam="1">  1        1 0.16963422E+00 0.54772838E+03</pdfrwt>
<pdfrwt beam="2">  1       -1 0.67009100E-01 0.54772838E+03</pdfrwt>
<totfact> 0.30074365E+01</totfact>
</mgrwt>
</event>
<event>
 4    1  0.2731969E-009  0.2565528E+03  0.7818608E-02  0.1109232E+00
          1   -1    0    0  501    0  0.00000000000E+00  0.00000000000E+00  0.69822106656E+03  0.69822106658E+03  0.50400000000E-02 0. -1.
         -1   -1    0    0    0  501 -0.00000000000E+00 -0.00000000000E+00 -0.49678460774E+03  0.49678460777E+03  0.50400000000E-02 0.  1.
    8880022    1    1    2    0    0 -0.20550521546E+03  0.13973973529E+02  0.63855223781E+03  0.68816297411E+03  0.15294330000E+03 0.  0.
    8880022    1    1    2    0    0  0.20550521546E+03 -0.13973973529E+02 -0.43711577899E+03  0.50684270023E+03  0.15294330000E+03 0.  1.
<mgrwt>
<rscale>  0 0.25655276E+03</rscale>
<asrwt>0</asrwt>
<pdfrwt beam="1">  1        1 0.10741862E+00 0.25655276E+03</pdfrwt>
<pdfrwt beam="2">  1       -1 0.76428402E-01 0.25655276E+03</pdfrwt>
<totfact> 0.51719434E+01</totfact>
</mgrwt>
</event>
<event>
 4    1  0.2731969E-009  0.1013971E+04  0.7818608E-02  0.9293353E-01
          1   -1    0    0  501    0  0.00000000000E+00  0.00000000000E+00  0.91813191061E+03  0.91813191062E+03  0.50400000000E-02 0. -1.
         -1   -1    0    0    0  501 -0.00000000000E+00 -0.00000000000E+00 -0.15137784873E+04  0.15137784873E+04  0.50400000000E-02 0.  1.
    8880022    1    1    2    0    0 -0.82056567211E+03 -0.57568887994E+03  0.32249517865E+03  0.10640209124E+04  0.15294330000E+03 0.  0.
    8880022    1    1    2    0    0  0.82056567211E+03  0.57568887994E+03 -0.91814175534E+03  0.13678894855E+04  0.15294330000E+03 0.  0.
<mgrwt>
<rscale>  0 0.10139711E+04</rscale>
<asrwt>0</asrwt>
<pdfrwt beam="1">  1        1 0.14125106E+00 0.10139711E+04</pdfrwt>
<pdfrwt beam="2">  1       -1 0.23288900E+00 0.10139711E+04</pdfrwt>
<totfact> 0.15956561E+00</totfact>
</mgrwt>
</event>
<event>
 4    1  0.2731969E-009  0.1149649E+04  0.7818608E-02  0.9158107E-01
          1   -1    0    0  501    0  0.00000000000E+00  0.00000000000E+00  0.16765320408E+04  0.16765320408E+04  0.50400000000E-02 0. -1.
         -1   -1    0    0    0  501 -0.00000000000E+00 -0.00000000000E+00 -0.17349982678E+04  0.17349982678E+04  0.50400000000E-02 0.  1.
    8880022    1    1    2    0    0 -0.83779057456E+03  0.77227464901E+03  0.12307484840E+04  0.16841718037E+04  0.15294330000E+03 0.  0.
    8880022    1    1    2    0    0  0.83779057456E+03 -0.77227464901E+03 -0.12892147111E+04  0.17273585050E+04  0.15294330000E+03 0.  0.
<mgrwt>
<rscale>  0 0.11496490E+04</rscale>
<asrwt>0</asrwt>
<pdfrwt beam="1">  1        1 0.25792801E+00 0.11496490E+04</pdfrwt>
<pdfrwt beam="2">  1       -1 0.26692281E+00 0.11496490E+04</pdfrwt>
<totfact> 0.26480413E-01</totfact>
</mgrwt>
</event>
<event>
 4    1  0.2731969E-009  0.7454405E+03  0.7818608E-02  0.9642531E-01
          1   -1    0    0  501    0  0.00000000000E+00  0.00000000000E+00  0.55103218931E+03  0.55103218933E+03  0.50400000000E-02 0. -1.
         -1   -1    0    0    0  501 -0.00000000000E+00 -0.00000000000E+00 -0.12042083507E+04  0.12042083507E+04  0.50400000000E-02 0.  1.
    8880022    1    1    2    0    0  0.17895244877E+03 -0.70729477173E+03  0.27270586071E+02  0.74593914692E+03  0.15294330000E+03 0.  0.
    8880022    1    1    2    0    0 -0.17895244877E+03  0.70729477173E+03 -0.68044674750E+03  0.10093013932E+04  0.15294330000E+03 0.  0.
<mgrwt>
<rscale>  0 0.74544049E+03</rscale>
<asrwt>0</asrwt>
<pdfrwt beam="1">  1        1 0.84774183E-01 0.74544049E+03</pdfrwt>
<pdfrwt beam="2">  1       -1 0.18526282E+00 0.74544049E+03</pdfrwt>
<totfact> 0.76299856E+00</totfact>
</mgrwt>
</event>
<event>
 4    1  0.2731969E-009  0.3456588E+03  0.7818608E-02  0.1064411E+00
          1   -1    0    0  501    0  0.00000000000E+00  0.00000000000E+00  0.51147831843E+03  0.51147831846E+03  0.50400000000E-02 0. -1.
         -1   -1    0    0    0  501 -0.00000000000E+00 -0.00000000000E+00 -0.71125894621E+03  0.71125894622E+03  0.50400000000E-02 0.  1.
    8880022    1    1    2    0    0  0.36379476817E+02  0.30783903240E+03 -0.60090382272E+03  0.69322824046E+03  0.15294330000E+03 0.  0.
    8880022    1    1    2    0    0 -0.36379476817E+02 -0.30783903240E+03  0.40112319494E+03  0.52950902422E+03  0.15294330000E+03 0.  0.
<mgrwt>
<rscale>  0 0.34565878E+03</rscale>
<asrwt>0</asrwt>
<pdfrwt beam="1">  1        1 0.78688972E-01 0.34565878E+03</pdfrwt>
<pdfrwt beam="2">  1       -1 0.10942445E+00 0.34565878E+03</pdfrwt>
<totfact> 0.35875961E+01</totfact>
</mgrwt>
</event>
<event>
 4    1  0.2731969E-009  0.1373492E+04  0.7818608E-02  0.8973233E-01
         -1   -1    0    0    0  501 -0.00000000000E+00  0.00000000000E+00  0.25310746297E+04  0.25310746297E+04  0.50400000000E-02 0.  1.
          1   -1    0    0  501    0  0.00000000000E+00 -0.00000000000E+00 -0.12669521114E+04  0.12669521114E+04  0.50400000000E-02 0. -1.
    8880022    1    1    2    0    0  0.13568314792E+04 -0.14865243040E+03 -0.58644212663E+03  0.14934507789E+04  0.15294330000E+03 0.  0.
    8880022    1    1    2    0    0 -0.13568314792E+04  0.14865243040E+03  0.18505646449E+04  0.23045759623E+04  0.15294330000E+03 0.  0.
<mgrwt>
<rscale>  0 0.13734922E+04</rscale>
<asrwt>0</asrwt>
<pdfrwt beam="1">  1        1 0.19491571E+00 0.13734922E+04</pdfrwt>
<pdfrwt beam="2">  1       -1 0.38939610E+00 0.13734922E+04</pdfrwt>
<totfact> 0.77915221E-02</totfact>
</mgrwt>
</event>
<event>
 4    1  0.2731969E-009  0.4043086E+03  0.7818608E-02  0.1042298E+00
         -1   -1    0    0    0  501 -0.00000000000E+00  0.00000000000E+00  0.15339929457E+03  0.15339929466E+03  0.50400000000E-02 0.  1.
          1   -1    0    0  501    0  0.00000000000E+00 -0.00000000000E+00 -0.18898269384E+04  0.18898269384E+04  0.50400000000E-02 0. -1.
    8880022    1    1    2    0    0 -0.33748976311E+03  0.16178520277E+03 -0.19354067747E+03  0.44824484257E+03  0.15294330000E+03 0.  1.
    8880022    1    1    2    0    0  0.33748976311E+03 -0.16178520277E+03 -0.15428869664E+04  0.15949813905E+04  0.15294330000E+03 0.  0.
<mgrwt>
<rscale>  0 0.40430860E+03</rscale>
<asrwt>0</asrwt>
<pdfrwt beam="1">  1        1 0.29074259E+00 0.40430860E+03</pdfrwt>
<pdfrwt beam="2">  1       -1 0.23599893E-01 0.40430860E+03</pdfrwt>
<totfact> 0.59470807E+01</totfact>
</mgrwt>
</event>
<event>
 4    1  0.2731969E-009  0.9113301E+03  0.7818608E-02  0.9411528E-01
          1   -1    0    0  501    0  0.00000000000E+00  0.00000000000E+00  0.13898694626E+04  0.13898694626E+04  0.50400000000E-02 0. -1.
         -1   -1    0    0    0  501 -0.00000000000E+00 -0.00000000000E+00 -0.96487602732E+03  0.96487602733E+03  0.50400000000E-02 0.  1.
    8880022    1    1    2    0    0  0.77612197570E+02  0.89504593615E+03 -0.51394621548E+03  0.10462615574E+04  0.15294330000E+03 0.  0.
    8880022    1    1    2    0    0 -0.77612197570E+02 -0.89504593615E+03  0.93893965079E+03  0.13084839326E+04  0.15294330000E+03 0.  0.
<mgrwt>
<rscale>  0 0.91133009E+03</rscale>
<asrwt>0</asrwt>
<pdfrwt beam="1">  1        1 0.21382607E+00 0.91133009E+03</pdfrwt>
<pdfrwt beam="2">  1       -1 0.14844247E+00 0.91133009E+03</pdfrwt>
<totfact> 0.28501125E+00</totfact>
</mgrwt>
</event>
<event>
 4    1  0.2731969E-009  0.1966255E+04  0.7818608E-02  0.8622562E-01
         -1   -1    0    0    0  501 -0.00000000000E+00  0.00000000000E+00  0.28078961817E+04  0.28078961817E+04  0.50400000000E-02 0.  1.
          1   -1    0    0  501    0  0.00000000000E+00 -0.00000000000E+00 -0.19051465991E+04  0.19051465991E+04  0.50400000000E-02 0. -1.
    8880022    1    1    2    0    0 -0.15596876323E+04 -0.11874939220E+04  0.16922565845E+04  0.25942034088E+04  0.15294330000E+03 0.  0.
    8880022    1    1    2    0    0  0.15596876323E+04  0.11874939220E+04 -0.78950700190E+03  0.21188393720E+04  0.15294330000E+03 0.  0.
<mgrwt>
<rscale>  0 0.19662551E+04</rscale>
<asrwt>0</asrwt>
<pdfrwt beam="1">  1        1 0.29309948E+00 0.19662551E+04</pdfrwt>
<pdfrwt beam="2">  1       -1 0.43198403E+00 0.19662551E+04</pdfrwt>
<totfact> 0.13253296E-02</totfact>
</mgrwt>
</event>
<event>
 4    1  0.2731969E-009  0.4214284E+03  0.7818608E-02  0.1036602E+00
          1   -1    0    0  501    0  0.00000000000E+00  0.00000000000E+00  0.94412732511E+03  0.94412732512E+03  0.50400000000E-02 0. -1.
         -1   -1    0    0    0  501 -0.00000000000E+00 -0.00000000000E+00 -0.31277730664E+03  0.31277730669E+03  0.50400000000E-02 0.  1.
    8880022    1    1    2    0    0  0.29084466489E+03 -0.26385534553E+03  0.71243427918E+03  0.82774665063E+03  0.15294330000E+03 0.  0.
    8880022    1    1    2    0    0 -0.29084466489E+03  0.26385534553E+03 -0.81084260723E+02  0.42915798118E+03  0.15294330000E+03 0.  0.
<mgrwt>
<rscale>  0 0.42142842E+03</rscale>
<asrwt>0</asrwt>
<pdfrwt beam="1">  1        1 0.14525035E+00 0.42142842E+03</pdfrwt>
<pdfrwt beam="2">  1       -1 0.48119587E-01 0.42142842E+03</pdfrwt>
<totfact> 0.76692416E+01</totfact>
</mgrwt>
</event>
<event>
 4    1  0.2731969E-009  0.6322787E+03  0.7818608E-02  0.9840612E-01
          1   -1    0    0  501    0  0.00000000000E+00  0.00000000000E+00  0.23150977835E+04  0.23150977835E+04  0.50400000000E-02 0. -1.
         -1   -1    0    0    0  501 -0.00000000000E+00 -0.00000000000E+00 -0.74610752711E+03  0.74610752712E+03  0.50400000000E-02 0.  1.
    8880022    1    1    2    0    0 -0.55677673972E+03  0.25765168608E+03 -0.55734307952E+03  0.84285686243E+03  0.15294330000E+03 0.  0.
    8880022    1    1    2    0    0  0.55677673972E+03 -0.25765168608E+03  0.21263333359E+04  0.22183484482E+04  0.15294330000E+03 0.  0.
<mgrwt>
<rscale>  0 0.63227872E+03</rscale>
<asrwt>0</asrwt>
<pdfrwt beam="1">  1        1 0.35616889E+00 0.63227872E+03</pdfrwt>
<pdfrwt beam="2">  1       -1 0.11478577E+00 0.63227872E+03</pdfrwt>
<totfact> 0.13681417E+00</totfact>
</mgrwt>
</event>
<event>
 4    1  0.2731969E-009  0.8820353E+03  0.7818608E-02  0.9448321E-01
         -1   -1    0    0    0  501 -0.00000000000E+00  0.00000000000E+00  0.83476095156E+03  0.83476095158E+03  0.50400000000E-02 0.  1.
          1   -1    0    0  501    0  0.00000000000E+00 -0.00000000000E+00 -0.19631707336E+04  0.19631707336E+04  0.50400000000E-02 0. -1.
    8880022    1    1    2    0    0  0.74756893711E+03 -0.44241979903E+03  0.44969745799E+03  0.99005759987E+03  0.15294330000E+03 0.  0.
    8880022    1    1    2    0    0 -0.74756893711E+03  0.44241979903E+03 -0.15781072400E+04  0.18078740853E+04  0.15294330000E+03 0.  0.
<mgrwt>
<rscale>  0 0.88203529E+03</rscale>
<asrwt>0</asrwt>
<pdfrwt beam="1">  1        1 0.30202627E+00 0.88203529E+03</pdfrwt>
<pdfrwt beam="2">  1       -1 0.12842476E+00 0.88203529E+03</pdfrwt>
<totfact> 0.16993416E+00</totfact>
</mgrwt>
</event>
<event>
 4    1  0.2731969E-009  0.1155912E+04  0.7818608E-02  0.9152347E-01
          1   -1    0    0  501    0  0.00000000000E+00  0.00000000000E+00  0.93102926871E+03  0.93102926872E+03  0.50400000000E-02 0. -1.
         -1   -1    0    0    0  501 -0.00000000000E+00 -0.00000000000E+00 -0.21212038542E+04  0.21212038542E+04  0.50400000000E-02 0.  1.
    8880022    1    1    2    0    0 -0.10968731709E+04  0.33107273812E+03 -0.14630229589E+04  0.18645556420E+04  0.15294330000E+03 0.  0.
    8880022    1    1    2    0    0  0.10968731709E+04 -0.33107273812E+03  0.27284837336E+03  0.11876774810E+04  0.15294330000E+03 0. -1.
<mgrwt>
<rscale>  0 0.11559116E+04</rscale>
<asrwt>0</asrwt>
<pdfrwt beam="1">  1        1 0.14323527E+00 0.11559116E+04</pdfrwt>
<pdfrwt beam="2">  1       -1 0.32633905E+00 0.11559116E+04</pdfrwt>
<totfact> 0.37956339E-01</totfact>
</mgrwt>
</event>
<event>
 4    1  0.2731969E-009  0.1193012E+04  0.7818608E-02  0.9118995E-01
         -1   -1    0    0    0  501 -0.00000000000E+00  0.00000000000E+00  0.20398460047E+04  0.20398460047E+04  0.50400000000E-02 0.  1.
          1   -1    0    0  501    0  0.00000000000E+00 -0.00000000000E+00 -0.91732518855E+03  0.91732518857E+03  0.50400000000E-02 0. -1.
    8880022    1    1    2    0    0  0.11661886077E+04 -0.19972561034E+03 -0.16215611307E+03  0.12039819127E+04  0.15294330000E+03 0.  0.
    8880022    1    1    2    0    0 -0.11661886077E+04  0.19972561034E+03  0.12846769292E+04  0.17531892806E+04  0.15294330000E+03 0.  0.
<mgrwt>
<rscale>  0 0.11930121E+04</rscale>
<asrwt>0</asrwt>
<pdfrwt beam="1">  1        1 0.14112695E+00 0.11930121E+04</pdfrwt>
<pdfrwt beam="2">  1       -1 0.31382246E+00 0.11930121E+04</pdfrwt>
<totfact> 0.46720900E-01</totfact>
</mgrwt>
</event>
<event>
 4    1  0.2731969E-009  0.3864654E+03  0.7818608E-02  0.1048570E+00
         -1   -1    0    0    0  501 -0.00000000000E+00  0.00000000000E+00  0.19321348900E+04  0.19321348900E+04  0.50400000000E-02 0.  1.
          1   -1    0    0  501    0  0.00000000000E+00 -0.00000000000E+00 -0.28127087701E+03  0.28127087706E+03  0.50400000000E-02 0. -1.
    8880022    1    1    2    0    0 -0.34878086354E+03 -0.65694351359E+02 -0.11700413491E+03  0.40378887946E+03  0.15294330000E+03 0.  0.
    8880022    1    1    2    0    0  0.34878086354E+03  0.65694351359E+02  0.17678681479E+04  0.18096168876E+04  0.15294330000E+03 0.  1.
<mgrwt>
<rscale>  0 0.38646538E+03</rscale>
<asrwt>0</asrwt>
<pdfrwt beam="1">  1        1 0.43272441E-01 0.38646538E+03</pdfrwt>
<pdfrwt beam="2">  1       -1 0.29725154E+00 0.38646538E+03</pdfrwt>
<totfact> 0.37064860E+00</totfact>
</mgrwt>
</event>
<event>
 4    1  0.2731969E-009  0.4244463E+03  0.7818608E-02  0.1035629E+00
          1   -1    0    0  501    0  0.00000000000E+00  0.00000000000E+00  0.25089988541E+04  0.25089988541E+04  0.50400000000E-02 0. -1.
         -1   -1    0    0    0  501 -0.00000000000E+00 -0.00000000000E+00 -0.30318821813E+03  0.30318821817E+03  0.50400000000E-02 0.  1.
    8880022    1    1    2    0    0  0.36528366475E+03 -0.15274445444E+03 -0.12545413054E+03  0.44259848167E+03  0.15294330000E+03 0.  1.
    8880022    1    1    2    0    0 -0.36528366475E+03  0.15274445444E+03  0.23312647665E+04  0.23695885906E+04  0.15294330000E+03 0.  0.
<mgrwt>
<rscale>  0 0.42444632E+03</rscale>
<asrwt>0</asrwt>
<pdfrwt beam="1">  1        1 0.38599983E+00 0.42444632E+03</pdfrwt>
<pdfrwt beam="2">  1       -1 0.46644341E-01 0.42444632E+03</pdfrwt>
<totfact> 0.69722033E+00</totfact>
</mgrwt>
</event>
<event>
 4    1  0.2731969E-009  0.1540443E+03  0.7818608E-02  0.1195590E+00
          1   -1    0    0  501    0  0.00000000000E+00  0.00000000000E+00  0.11614390737E+04  0.11614390737E+04  0.50400000000E-02 0. -1.
         -1   -1    0    0    0  501 -0.00000000000E+00 -0.00000000000E+00 -0.18637848643E+03  0.18637848650E+03  0.50400000000E-02 0.  1.
    8880022    1    1    2    0    0  0.14276651899E+01 -0.18328996554E+02  0.11234294464E+04  0.11339415172E+04  0.15294330000E+03 0. -1.
    8880022    1    1    2    0    0 -0.14276651899E+01  0.18328996554E+02 -0.14836885921E+03  0.21387604294E+03  0.15294330000E+03 0.  0.
<mgrwt>
<rscale>  0 0.15404429E+03</rscale>
<asrwt>0</asrwt>
<pdfrwt beam="1">  1        1 0.17868293E+00 0.15404429E+03</pdfrwt>
<pdfrwt beam="2">  1       -1 0.28673614E-01 0.15404429E+03</pdfrwt>
<totfact> 0.14047947E+02</totfact>
</mgrwt>
</event>
<event>
 4    1  0.2731969E-009  0.5274171E+03  0.7818608E-02  0.1006860E+00
         -1   -1    0    0    0  501 -0.00000000000E+00  0.00000000000E+00  0.18492037468E+04  0.18492037468E+04  0.50400000000E-02 0.  1.
          1   -1    0    0  501    0  0.00000000000E+00 -0.00000000000E+00 -0.28195002446E+03  0.28195002450E+03  0.50400000000E-02 0. -1.
    8880022    1    1    2    0    0  0.15253951934E+03  0.48115369620E+03  0.55845702226E+02  0.53036551528E+03  0.15294330000E+03 0.  0.
    8880022    1    1    2    0    0 -0.15253951934E+03 -0.48115369620E+03  0.15114080201E+04  0.16007882560E+04  0.15294330000E+03 0.  0.
<mgrwt>
<rscale>  0 0.52741714E+03</rscale>
<asrwt>0</asrwt>
<pdfrwt beam="1">  1        1 0.43376925E-01 0.52741714E+03</pdfrwt>
<pdfrwt beam="2">  1       -1 0.28449290E+00 0.52741714E+03</pdfrwt>
<totfact> 0.42953217E+00</totfact>
</mgrwt>
</event>
<event>
 4    1  0.2731969E-009  0.7529378E+03  0.7818608E-02  0.9630753E-01
          1   -1    0    0  501    0  0.00000000000E+00  0.00000000000E+00  0.63616354869E+03  0.63616354871E+03  0.50400000000E-02 0. -1.
         -1   -1    0    0    0  501 -0.00000000000E+00 -0.00000000000E+00 -0.13589104028E+04  0.13589104028E+04  0.50400000000E-02 0.  1.
    8880022    1    1    2    0    0 -0.25602863906E+03  0.69135587714E+03 -0.94663052670E+03  0.12095555465E+04  0.15294330000E+03 0.  0.
    8880022    1    1    2    0    0  0.25602863906E+03 -0.69135587714E+03  0.22388367257E+03  0.78551840509E+03  0.15294330000E+03 0.  0.
<mgrwt>
<rscale>  0 0.75293776E+03</rscale>
<asrwt>0</asrwt>
<pdfrwt beam="1">  1        1 0.97871316E-01 0.75293776E+03</pdfrwt>
<pdfrwt beam="2">  1       -1 0.20906314E+00 0.75293776E+03</pdfrwt>
<totfact> 0.42547609E+00</totfact>
</mgrwt>
</event>
<event>
 4    1  0.2731969E-009  0.9205123E+03  0.7818608E-02  0.9400297E-01
          1   -1    0    0  501    0  0.00000000000E+00  0.00000000000E+00  0.29605146753E+04  0.29605146753E+04  0.50400000000E-02 0. -1.
         -1   -1    0    0    0  501 -0.00000000000E+00 -0.00000000000E+00 -0.57324430754E+03  0.57324430756E+03  0.50400000000E-02 0.  1.
    8880022    1    1    2    0    0 -0.66810057977E+03 -0.61448587313E+03 -0.56624928358E+02  0.92225230197E+03  0.15294330000E+03 0.  0.
    8880022    1    1    2    0    0  0.66810057977E+03  0.61448587313E+03  0.24438952961E+04  0.26115066809E+04  0.15294330000E+03 0.  0.
<mgrwt>
<rscale>  0 0.92051232E+03</rscale>
<asrwt>0</asrwt>
<pdfrwt beam="1">  1        1 0.45546379E+00 0.92051232E+03</pdfrwt>
<pdfrwt beam="2">  1       -1 0.88191434E-01 0.92051232E+03</pdfrwt>
<totfact> 0.84042524E-01</totfact>
</mgrwt>
</event>
<event>
 4    1  0.2731969E-009  0.9416741E+03  0.7818608E-02  0.9374936E-01
         -1   -1    0    0    0  501 -0.00000000000E+00  0.00000000000E+00  0.22706444870E+04  0.22706444870E+04  0.50400000000E-02 0.  1.
          1   -1    0    0  501    0  0.00000000000E+00 -0.00000000000E+00 -0.90209329300E+03  0.90209329302E+03  0.50400000000E-02 0. -1.
    8880022    1    1    2    0    0 -0.89787853290E+03  0.23910793675E+03 -0.51034230403E+03  0.10710739403E+04  0.15294330000E+03 0.  0.
    8880022    1    1    2    0    0  0.89787853290E+03 -0.23910793675E+03  0.18788934980E+04  0.21016638397E+04  0.15294330000E+03 0.  0.
<mgrwt>
<rscale>  0 0.94167410E+03</rscale>
<asrwt>0</asrwt>
<pdfrwt beam="1">  1        1 0.13878358E+00 0.94167410E+03</pdfrwt>
<pdfrwt beam="2">  1       -1 0.34932992E+00 0.94167410E+03</pdfrwt>
<totfact> 0.29326359E-01</totfact>
</mgrwt>
</event>
<event>
 4    1  0.2731969E-009  0.8327326E+03  0.7818608E-02  0.9513810E-01
         -1   -1    0    0    0  501 -0.00000000000E+00  0.00000000000E+00  0.84654531593E+03  0.84654531594E+03  0.50400000000E-02 0.  1.
          1   -1    0    0  501    0  0.00000000000E+00 -0.00000000000E+00 -0.21633417022E+04  0.21633417022E+04  0.50400000000E-02 0. -1.
    8880022    1    1    2    0    0  0.35934112104E+03  0.73547666526E+03  0.52788670285E+03  0.98595536942E+03  0.15294330000E+03 0.  0.
    8880022    1    1    2    0    0 -0.35934112104E+03 -0.73547666526E+03 -0.18446830891E+04  0.20239316487E+04  0.15294330000E+03 0.  0.
<mgrwt>
<rscale>  0 0.83273262E+03</rscale>
<asrwt>0</asrwt>
<pdfrwt beam="1">  1        1 0.33282180E+00 0.83273262E+03</pdfrwt>
<pdfrwt beam="2">  1       -1 0.13023774E+00 0.83273262E+03</pdfrwt>
<totfact> 0.12145619E+00</totfact>
</mgrwt>
</event>
<event>
 4    1  0.2731969E-009  0.3283478E+03  0.7818608E-02  0.1071870E+00
         -1   -1    0    0    0  501 -0.00000000000E+00  0.00000000000E+00  0.21138616941E+03  0.21138616947E+03  0.50400000000E-02 0.  1.
          1   -1    0    0  501    0  0.00000000000E+00 -0.00000000000E+00 -0.17308539519E+04  0.17308539519E+04  0.50400000000E-02 0. -1.
    8880022    1    1    2    0    0 -0.17481538056E+03  0.23207798318E+03  0.55852740656E+02  0.33306424186E+03  0.15294330000E+03 0.  1.
    8880022    1    1    2    0    0  0.17481538056E+03 -0.23207798318E+03 -0.15753205231E+04  0.16091758795E+04  0.15294330000E+03 0.  0.
<mgrwt>
<rscale>  0 0.32834777E+03</rscale>
<asrwt>0</asrwt>
<pdfrwt beam="1">  1        1 0.26628521E+00 0.32834777E+03</pdfrwt>
<pdfrwt beam="2">  1       -1 0.32520950E-01 0.32834777E+03</pdfrwt>
<totfact> 0.44630137E+01</totfact>
</mgrwt>
</event>
<event>
 4    1  0.2731969E-009  0.1730836E+04  0.7818608E-02  0.8743970E-01
         -1   -1    0    0    0  501 -0.00000000000E+00  0.00000000000E+00  0.10741242416E+04  0.10741242417E+04  0.50400000000E-02 0.  1.
          1   -1    0    0  501    0  0.00000000000E+00 -0.00000000000E+00 -0.45758783502E+04  0.45758783502E+04  0.50400000000E-02 0. -1.
    8880022    1    1    2    0    0 -0.97162518928E+03 -0.14241998856E+04 -0.35161917041E+04  0.39191066043E+04  0.15294330000E+03 0.  0.
    8880022    1    1    2    0    0  0.97162518928E+03  0.14241998856E+04  0.14437595545E+02  0.17308959876E+04  0.15294330000E+03 0.  0.
<mgrwt>
<rscale>  0 0.17308358E+04</rscale>
<asrwt>0</asrwt>
<pdfrwt beam="1">  1        1 0.70398128E+00 0.17308358E+04</pdfrwt>
<pdfrwt beam="2">  1       -1 0.16524988E+00 0.17308358E+04</pdfrwt>
<totfact> 0.67176798E-03</totfact>
</mgrwt>
</event>
<event>
 4    1  0.2731969E-009  0.5991383E+03  0.7818608E-02  0.9907195E-01
          1   -1    0    0  501    0  0.00000000000E+00  0.00000000000E+00  0.43608426915E+04  0.43608426915E+04  0.50400000000E-02 0. -1.
         -1   -1    0    0    0  501 -0.00000000000E+00 -0.00000000000E+00 -0.53645917985E+03  0.53645917987E+03  0.50400000000E-02 0.  1.
    8880022    1    1    2    0    0 -0.75385692224E+02  0.57436228894E+03 -0.34077604176E+03  0.68927135818E+03  0.15294330000E+03 0.  0.
    8880022    1    1    2    0    0  0.75385692224E+02 -0.57436228894E+03  0.41651595534E+04  0.42080305132E+04  0.15294330000E+03 0.  0.
<mgrwt>
<rscale>  0 0.59913829E+03</rscale>
<asrwt>0</asrwt>
<pdfrwt beam="1">  1        1 0.67089886E+00 0.59913829E+03</pdfrwt>
<pdfrwt beam="2">  1       -1 0.82532183E-01 0.59913829E+03</pdfrwt>
<totfact> 0.77547239E-02</totfact>
</mgrwt>
</event>
<event>
 4    1  0.2731969E-009  0.8081108E+03  0.7818608E-02  0.9548351E-01
          1   -1    0    0  501    0  0.00000000000E+00  0.00000000000E+00  0.17727796727E+04  0.17727796727E+04  0.50400000000E-02 0. -1.
         -1   -1    0    0    0  501 -0.00000000000E+00 -0.00000000000E+00 -0.57924168409E+03  0.57924168411E+03  0.50400000000E-02 0.  1.
    8880022    1    1    2    0    0  0.18689130064E+03  0.77118284439E+03  0.13063273005E+04  0.15360774742E+04  0.15294330000E+03 0.  0.
    8880022    1    1    2    0    0 -0.18689130064E+03 -0.77118284439E+03 -0.11278931185E+03  0.81594388264E+03  0.15294330000E+03 0.  0.
<mgrwt>
<rscale>  0 0.80811075E+03</rscale>
<asrwt>0</asrwt>
<pdfrwt beam="1">  1        1 0.27273533E+00 0.80811075E+03</pdfrwt>
<pdfrwt beam="2">  1       -1 0.89114105E-01 0.80811075E+03</pdfrwt>
<totfact> 0.54368308E+00</totfact>
</mgrwt>
</event>
<event>
 4    1  0.2731969E-009  0.8371232E+03  0.7818608E-02  0.9507785E-01
          1   -1    0    0  501    0  0.00000000000E+00  0.00000000000E+00  0.19527989296E+04  0.19527989296E+04  0.50400000000E-02 0. -1.
         -1   -1    0    0    0  501 -0.00000000000E+00 -0.00000000000E+00 -0.70682855316E+03  0.70682855318E+03  0.50400000000E-02 0.  1.
    8880022    1    1    2    0    0 -0.63880022528E+03 -0.51895848867E+03  0.15560369376E+04  0.17669256478E+04  0.15294330000E+03 0. -1.
    8880022    1    1    2    0    0  0.63880022528E+03  0.51895848867E+03 -0.31006656115E+03  0.89270183496E+03  0.15294330000E+03 0.  0.
<mgrwt>
<rscale>  0 0.83712322E+03</rscale>
<asrwt>0</asrwt>
<pdfrwt beam="1">  1        1 0.30043060E+00 0.83712322E+03</pdfrwt>
<pdfrwt beam="2">  1       -1 0.10874286E+00 0.83712322E+03</pdfrwt>
<totfact> 0.26064308E+00</totfact>
</mgrwt>
</event>
<event>
 4    1  0.2731969E-009  0.7615041E+03  0.7818608E-02  0.9617473E-01
         -1   -1    0    0    0  501 -0.00000000000E+00  0.00000000000E+00  0.91230620577E+03  0.91230620578E+03  0.50400000000E-02 0.  1.
          1   -1    0    0  501    0  0.00000000000E+00 -0.00000000000E+00 -0.10262085002E+04  0.10262085002E+04  0.50400000000E-02 0. -1.
    8880022    1    1    2    0    0  0.61102797967E+03 -0.42795059438E+03 -0.65491627246E+03  0.10043922939E+04  0.15294330000E+03 0.  0.
    8880022    1    1    2    0    0 -0.61102797967E+03  0.42795059438E+03  0.54101397806E+03  0.93412241202E+03  0.15294330000E+03 0.  0.
<mgrwt>
<rscale>  0 0.76150414E+03</rscale>
<asrwt>0</asrwt>
<pdfrwt beam="1">  1        1 0.15787823E+00 0.76150414E+03</pdfrwt>
<pdfrwt beam="2">  1       -1 0.14035480E+00 0.76150414E+03</pdfrwt>
<totfact> 0.62134081E+00</totfact>
</mgrwt>
</event>
<event>
 4    1  0.2731969E-009  0.3395288E+03  0.7818608E-02  0.1066997E+00
          1   -1    0    0  501    0  0.00000000000E+00  0.00000000000E+00  0.88709648089E+03  0.88709648091E+03  0.50400000000E-02 0. -1.
         -1   -1    0    0    0  501 -0.00000000000E+00 -0.00000000000E+00 -0.10955928129E+04  0.10955928129E+04  0.50400000000E-02 0.  1.
    8880022    1    1    2    0    0  0.18205532460E+03 -0.24237164988E+03  0.82644799663E+03  0.89347417536E+03  0.15294330000E+03 0.  0.
    8880022    1    1    2    0    0 -0.18205532460E+03  0.24237164988E+03 -0.10349443287E+04  0.10892151185E+04  0.15294330000E+03 0.  0.
<mgrwt>
<rscale>  0 0.33952881E+03</rscale>
<asrwt>0</asrwt>
<pdfrwt beam="1">  1        1 0.13647638E+00 0.33952881E+03</pdfrwt>
<pdfrwt beam="2">  1       -1 0.16855274E+00 0.33952881E+03</pdfrwt>
<totfact> 0.53491537E+00</totfact>
</mgrwt>
</event>
<event>
 4    1  0.2731969E-009  0.1173409E+04  0.7818608E-02  0.9136456E-01
          1   -1    0    0  501    0  0.00000000000E+00  0.00000000000E+00  0.98267395989E+03  0.98267395990E+03  0.50400000000E-02 0. -1.
         -1   -1    0    0    0  501 -0.00000000000E+00 -0.00000000000E+00 -0.18446589700E+04  0.18446589700E+04  0.50400000000E-02 0.  1.
    8880022    1    1    2    0    0  0.10607286618E+04  0.47786078486E+03 -0.11241517369E+04  0.16249938474E+04  0.15294330000E+03 0.  0.
    8880022    1    1    2    0    0 -0.10607286618E+04 -0.47786078486E+03  0.26216672677E+03  0.12023390825E+04  0.15294330000E+03 0.  0.
<mgrwt>
<rscale>  0 0.11734087E+04</rscale>
<asrwt>0</asrwt>
<pdfrwt beam="1">  1        1 0.15118061E+00 0.11734087E+04</pdfrwt>
<pdfrwt beam="2">  1       -1 0.28379369E+00 0.11734087E+04</pdfrwt>
<totfact> 0.64855768E-01</totfact>
</mgrwt>
</event>
<event>
 4    1  0.2731969E-009  0.6028519E+03  0.7818608E-02  0.9899507E-01
          1   -1    0    0  501    0  0.00000000000E+00  0.00000000000E+00  0.19279869902E+04  0.19279869902E+04  0.50400000000E-02 0. -1.
         -1   -1    0    0    0  501 -0.00000000000E+00 -0.00000000000E+00 -0.21489258578E+03  0.21489258584E+03  0.50400000000E-02 0.  1.
    8880022    1    1    2    0    0  0.50727657740E+03 -0.28759211478E+03  0.48107542164E+03  0.77127424746E+03  0.15294330000E+03 0.  0.
    8880022    1    1    2    0    0 -0.50727657740E+03  0.28759211478E+03  0.12320189828E+04  0.13716053286E+04  0.15294330000E+03 0.  0.
<mgrwt>
<rscale>  0 0.60285189E+03</rscale>
<asrwt>0</asrwt>
<pdfrwt beam="1">  1        1 0.29661337E+00 0.60285189E+03</pdfrwt>
<pdfrwt beam="2">  1       -1 0.33060399E-01 0.60285189E+03</pdfrwt>
<totfact> 0.30345579E+01</totfact>
</mgrwt>
</event>
<event>
 4    1  0.2731969E-009  0.1002216E+04  0.7818608E-02  0.9306118E-01
         -1   -1    0    0    0  501 -0.00000000000E+00  0.00000000000E+00  0.22701458418E+04  0.22701458418E+04  0.50400000000E-02 0.  1.
          1   -1    0    0  501    0  0.00000000000E+00 -0.00000000000E+00 -0.80972065004E+03  0.80972065005E+03  0.50400000000E-02 0. -1.
    8880022    1    1    2    0    0  0.82696042769E+03  0.54514344547E+03  0.17673221894E+04  0.20317146206E+04  0.15294330000E+03 0.  0.
    8880022    1    1    2    0    0 -0.82696042769E+03 -0.54514344547E+03 -0.30689699768E+03  0.10481518713E+04  0.15294330000E+03 0.  0.
<mgrwt>
<rscale>  0 0.10022158E+04</rscale>
<asrwt>0</asrwt>
<pdfrwt beam="1">  1        1 0.12457241E+00 0.10022158E+04</pdfrwt>
<pdfrwt beam="2">  1       -1 0.34925320E+00 0.10022158E+04</pdfrwt>
<totfact> 0.34755035E-01</totfact>
</mgrwt>
</event>
<event>
 4    1  0.2731969E-009  0.7155239E+03  0.7818608E-02  0.9691047E-01
          1   -1    0    0  501    0  0.00000000000E+00  0.00000000000E+00  0.92389225589E+03  0.92389225591E+03  0.50400000000E-02 0. -1.
         -1   -1    0    0    0  501 -0.00000000000E+00 -0.00000000000E+00 -0.12617762689E+04  0.12617762689E+04  0.50400000000E-02 0.  1.
    8880022    1    1    2    0    0  0.69021700506E+03 -0.11037778942E+03 -0.98734131629E+03  0.12193511792E+04  0.15294330000E+03 0.  0.
    8880022    1    1    2    0    0 -0.69021700506E+03  0.11037778942E+03  0.64945730331E+03  0.96631734555E+03  0.15294330000E+03 0.  0.
<mgrwt>
<rscale>  0 0.71552388E+03</rscale>
<asrwt>0</asrwt>
<pdfrwt beam="1">  1        1 0.14213727E+00 0.71552388E+03</pdfrwt>
<pdfrwt beam="2">  1       -1 0.19411943E+00 0.71552388E+03</pdfrwt>
<totfact> 0.30101850E+00</totfact>
</mgrwt>
</event>
<event>
 4    1  0.2731969E-009  0.1200725E+04  0.7818608E-02  0.9112222E-01
         -1   -1    0    0    0  501 -0.00000000000E+00  0.00000000000E+00  0.64444971866E+03  0.64444971868E+03  0.50400000000E-02 0.  1.
          1   -1    0    0  501    0  0.00000000000E+00 -0.00000000000E+00 -0.27172010722E+04  0.27172010722E+04  0.50400000000E-02 0. -1.
    8880022    1    1    2    0    0  0.11909314374E+04 -0.55459937026E+01 -0.32989737398E+03  0.12452198107E+04  0.15294330000E+03 0.  0.
    8880022    1    1    2    0    0 -0.11909314374E+04  0.55459937026E+01 -0.17428539795E+04  0.21164309801E+04  0.15294330000E+03 0.  0.
<mgrwt>
<rscale>  0 0.12007248E+04</rscale>
<asrwt>0</asrwt>
<pdfrwt beam="1">  1        1 0.41803093E+00 0.12007248E+04</pdfrwt>
<pdfrwt beam="2">  1       -1 0.99146112E-01 0.12007248E+04</pdfrwt>
<totfact> 0.92061477E-01</totfact>
</mgrwt>
</event>
<event>
 4    1  0.2731969E-009  0.8390257E+03  0.7818608E-02  0.9505186E-01
          1   -1    0    0  501    0  0.00000000000E+00  0.00000000000E+00  0.15380363004E+04  0.15380363004E+04  0.50400000000E-02 0. -1.
         -1   -1    0    0    0  501 -0.00000000000E+00 -0.00000000000E+00 -0.77420221212E+03  0.77420221214E+03  0.50400000000E-02 0.  1.
    8880022    1    1    2    0    0  0.82203951790E+03  0.69450915490E+02  0.11211165163E+04  0.14003093568E+04  0.15294330000E+03 0.  0.
    8880022    1    1    2    0    0 -0.82203951790E+03 -0.69450915490E+02 -0.35728242804E+03  0.91192915572E+03  0.15294330000E+03 0.  0.
<mgrwt>
<rscale>  0 0.83902566E+03</rscale>
<asrwt>0</asrwt>
<pdfrwt beam="1">  1        1 0.23662097E+00 0.83902566E+03</pdfrwt>
<pdfrwt beam="2">  1       -1 0.11910803E+00 0.83902566E+03</pdfrwt>
<totfact> 0.39926949E+00</totfact>
</mgrwt>
</event>
<event>
 4    1  0.2731969E-009  0.5918072E+03  0.7818608E-02  0.9922551E-01
         -1   -1    0    0    0  501 -0.00000000000E+00  0.00000000000E+00  0.64326538824E+03  0.64326538826E+03  0.50400000000E-02 0.  1.
          1   -1    0    0  501    0  0.00000000000E+00 -0.00000000000E+00 -0.76226523982E+03  0.76226523983E+03  0.50400000000E-02 0. -1.
    8880022    1    1    2    0    0  0.34235197924E+03  0.45786372126E+03  0.31615240094E+03  0.67096054919E+03  0.15294330000E+03 0.  0.
    8880022    1    1    2    0    0 -0.34235197924E+03 -0.45786372126E+03 -0.43515225251E+03  0.73457007890E+03  0.15294330000E+03 0.  0.
<mgrwt>
<rscale>  0 0.59180716E+03</rscale>
<asrwt>0</asrwt>
<pdfrwt beam="1">  1        1 0.11727158E+00 0.59180716E+03</pdfrwt>
<pdfrwt beam="2">  1       -1 0.98963906E-01 0.59180716E+03</pdfrwt>
<totfact> 0.24394379E+01</totfact>
</mgrwt>
</event>
<event>
 4    1  0.2731969E-009  0.1685215E+03  0.7818608E-02  0.1179399E+00
         -1   -1    0    0    0  501 -0.00000000000E+00  0.00000000000E+00  0.15106269715E+03  0.15106269724E+03  0.50400000000E-02 0.  1.
          1   -1    0    0  501    0  0.00000000000E+00 -0.00000000000E+00 -0.15882670826E+04  0.15882670827E+04  0.50400000000E-02 0. -1.
    8880022    1    1    2    0    0 -0.68849514395E+02 -0.16357940155E+02  0.97972494908E+02  0.19493101501E+03  0.15294330000E+03 0.  0.
    8880022    1    1    2    0    0  0.68849514395E+02  0.16357940155E+02 -0.15351768804E+04  0.15443987649E+04  0.15294330000E+03 0.  0.
<mgrwt>
<rscale>  0 0.16852148E+03</rscale>
<asrwt>0</asrwt>
<pdfrwt beam="1">  1        1 0.24434877E+00 0.16852148E+03</pdfrwt>
<pdfrwt beam="2">  1       -1 0.23240416E-01 0.16852148E+03</pdfrwt>
<totfact> 0.10278648E+02</totfact>
</mgrwt>
</event>
<event>
 4    1  0.2731969E-009  0.5171906E+03  0.7818608E-02  0.1009387E+00
         -1   -1    0    0    0  501 -0.00000000000E+00  0.00000000000E+00  0.23372838487E+03  0.23372838493E+03  0.50400000000E-02 0.  1.
          1   -1    0    0  501    0  0.00000000000E+00 -0.00000000000E+00 -0.16856292819E+04  0.16856292819E+04  0.50400000000E-02 0. -1.
    8880022    1    1    2    0    0 -0.49012165472E+03 -0.62251491874E+02 -0.12697299932E+04  0.13710216604E+04  0.15294330000E+03 0.  0.
    8880022    1    1    2    0    0  0.49012165472E+03  0.62251491874E+02 -0.18217090374E+03  0.54833600634E+03  0.15294330000E+03 0.  0.
<mgrwt>
<rscale>  0 0.51719062E+03</rscale>
<asrwt>0</asrwt>
<pdfrwt beam="1">  1        1 0.25932757E+00 0.51719062E+03</pdfrwt>
<pdfrwt beam="2">  1       -1 0.35958214E-01 0.51719062E+03</pdfrwt>
<totfact> 0.38464606E+01</totfact>
</mgrwt>
</event>
<event>
 4    1  0.2731969E-009  0.1299068E+04  0.7818608E-02  0.9030304E-01
         -1   -1    0    0    0  501 -0.00000000000E+00  0.00000000000E+00  0.83169306901E+03  0.83169306903E+03  0.50400000000E-02 0.  1.
          1   -1    0    0  501    0  0.00000000000E+00 -0.00000000000E+00 -0.31979663903E+04  0.31979663903E+04  0.50400000000E-02 0. -1.
    8880022    1    1    2    0    0 -0.70590078050E+03 -0.10797642545E+04 -0.24012454341E+04  0.27301205184E+04  0.15294330000E+03 0.  0.
    8880022    1    1    2    0    0  0.70590078050E+03  0.10797642545E+04  0.34972112812E+02  0.12995389409E+04  0.15294330000E+03 0.  0.
<mgrwt>
<rscale>  0 0.12990683E+04</rscale>
<asrwt>0</asrwt>
<pdfrwt beam="1">  1        1 0.49199482E+00 0.12990683E+04</pdfrwt>
<pdfrwt beam="2">  1       -1 0.12795278E+00 0.12990683E+04</pdfrwt>
<totfact> 0.22114920E-01</totfact>
</mgrwt>
</event>
<event>
 4    1  0.2731969E-009  0.4581241E+03  0.7818608E-02  0.1025327E+00
         -1   -1    0    0    0  501 -0.00000000000E+00  0.00000000000E+00  0.12496728349E+03  0.12496728359E+03  0.50400000000E-02 0.  1.
          1   -1    0    0  501    0  0.00000000000E+00 -0.00000000000E+00 -0.20761569139E+04  0.20761569139E+04  0.50400000000E-02 0. -1.
    8880022    1    1    2    0    0 -0.24075146151E+03  0.35850357646E+03 -0.14566701491E+04  0.15270120029E+04  0.15294330000E+03 0.  0.
    8880022    1    1    2    0    0  0.24075146151E+03 -0.35850357646E+03 -0.49451948128E+03  0.67411219462E+03  0.15294330000E+03 0.  1.
<mgrwt>
<rscale>  0 0.45812415E+03</rscale>
<asrwt>0</asrwt>
<pdfrwt beam="1">  1        1 0.31940873E+00 0.45812415E+03</pdfrwt>
<pdfrwt beam="2">  1       -1 0.19225738E-01 0.45812415E+03</pdfrwt>
<totfact> 0.62317988E+01</totfact>
</mgrwt>
</event>
<event>
 4    1  0.2731969E-009  0.1202186E+04  0.7818608E-02  0.9110945E-01
         -1   -1    0    0    0  501 -0.00000000000E+00  0.00000000000E+00  0.12131948065E+04  0.12131948066E+04  0.50400000000E-02 0.  1.
          1   -1    0    0  501    0  0.00000000000E+00 -0.00000000000E+00 -0.15603806851E+04  0.15603806851E+04  0.50400000000E-02 0. -1.
    8880022    1    1    2    0    0  0.10543485319E+04  0.55696429357E+03 -0.84807219237E+03  0.14712165536E+04  0.15294330000E+03 0.  0.
    8880022    1    1    2    0    0 -0.10543485319E+04 -0.55696429357E+03  0.50088631386E+03  0.13023589380E+04  0.15294330000E+03 0.  0.
<mgrwt>
<rscale>  0 0.12021862E+04</rscale>
<asrwt>0</asrwt>
<pdfrwt beam="1">  1        1 0.24005857E+00 0.12021862E+04</pdfrwt>
<pdfrwt beam="2">  1       -1 0.18664536E+00 0.12021862E+04</pdfrwt>
<totfact> 0.10862669E+00</totfact>
</mgrwt>
</event>
<event>
 4    1  0.2731969E-009  0.1482756E+04  0.7818608E-02  0.8896002E-01
          1   -1    0    0  501    0  0.00000000000E+00  0.00000000000E+00  0.19503304093E+04  0.19503304093E+04  0.50400000000E-02 0. -1.
         -1   -1    0    0    0  501 -0.00000000000E+00 -0.00000000000E+00 -0.18898064081E+04  0.18898064081E+04  0.50400000000E-02 0.  1.
    8880022    1    1    2    0    0 -0.48254336671E+03 -0.13936733140E+04  0.12499141485E+04  0.19392912207E+04  0.15294330000E+03 0.  0.
    8880022    1    1    2    0    0  0.48254336671E+03  0.13936733140E+04 -0.11893901473E+04  0.19008455967E+04  0.15294330000E+03 0.  0.
<mgrwt>
<rscale>  0 0.14827559E+04</rscale>
<asrwt>0</asrwt>
<pdfrwt beam="1">  1        1 0.30005083E+00 0.14827559E+04</pdfrwt>
<pdfrwt beam="2">  1       -1 0.29073945E+00 0.14827559E+04</pdfrwt>
<totfact> 0.11546311E-01</totfact>
</mgrwt>
</event>
<event>
 4    1  0.2731969E-009  0.4990771E+03  0.7818608E-02  0.1014020E+00
          1   -1    0    0  501    0  0.00000000000E+00  0.00000000000E+00  0.10610097065E+04  0.10610097065E+04  0.50400000000E-02 0. -1.
         -1   -1    0    0    0  501 -0.00000000000E+00 -0.00000000000E+00 -0.52637870143E+03  0.52637870145E+03  0.50400000000E-02 0.  1.
    8880022    1    1    2    0    0  0.25351302096E+03  0.40176790787E+03 -0.32344986329E+03  0.59472495379E+03  0.15294330000E+03 0.  0.
    8880022    1    1    2    0    0 -0.25351302096E+03 -0.40176790787E+03  0.85808086832E+03  0.99266345414E+03  0.15294330000E+03 0.  0.
<mgrwt>
<rscale>  0 0.49907710E+03</rscale>
<asrwt>0</asrwt>
<pdfrwt beam="1">  1        1 0.16323226E+00 0.49907710E+03</pdfrwt>
<pdfrwt beam="2">  1       -1 0.80981340E-01 0.49907710E+03</pdfrwt>
<totfact> 0.22039332E+01</totfact>
</mgrwt>
</event>
<event>
 4    1  0.2731969E-009  0.8105411E+03  0.7818608E-02  0.9544883E-01
          1   -1    0    0  501    0  0.00000000000E+00  0.00000000000E+00  0.14913469196E+04  0.14913469196E+04  0.50400000000E-02 0. -1.
         -1   -1    0    0    0  501 -0.00000000000E+00 -0.00000000000E+00 -0.75483974790E+03  0.75483974792E+03  0.50400000000E-02 0.  1.
    8880022    1    1    2    0    0  0.79257459624E+03  0.73558019051E+02  0.10929735666E+04  0.13607233897E+04  0.15294330000E+03 0.  0.
    8880022    1    1    2    0    0 -0.79257459624E+03 -0.73558019051E+02 -0.35646639492E+03  0.88546327789E+03  0.15294330000E+03 0.  0.
<mgrwt>
<rscale>  0 0.81054113E+03</rscale>
<asrwt>0</asrwt>
<pdfrwt beam="1">  1        1 0.22943799E+00 0.81054113E+03</pdfrwt>
<pdfrwt beam="2">  1       -1 0.11612919E+00 0.81054113E+03</pdfrwt>
<totfact> 0.45896333E+00</totfact>
</mgrwt>
</event>
<event>
 4    1  0.2731969E-009  0.3016022E+03  0.7818608E-02  0.1084442E+00
          1   -1    0    0  501    0  0.00000000000E+00  0.00000000000E+00  0.58457409578E+03  0.58457409580E+03  0.50400000000E-02 0. -1.
         -1   -1    0    0    0  501 -0.00000000000E+00 -0.00000000000E+00 -0.73288188535E+03  0.73288188537E+03  0.50400000000E-02 0.  1.
    8880022    1    1    2    0    0  0.23698758193E+03 -0.10681353993E+03 -0.65878296405E+03  0.72454047026E+03  0.15294330000E+03 0.  0.
    8880022    1    1    2    0    0 -0.23698758193E+03  0.10681353993E+03  0.51047517449E+03  0.59291551091E+03  0.15294330000E+03 0. -1.
<mgrwt>
<rscale>  0 0.30160222E+03</rscale>
<asrwt>0</asrwt>
<pdfrwt beam="1">  1        1 0.89934476E-01 0.30160222E+03</pdfrwt>
<pdfrwt beam="2">  1       -1 0.11275106E+00 0.30160222E+03</pdfrwt>
<totfact> 0.28153943E+01</totfact>
</mgrwt>
</event>
<event>
 4    1  0.2731969E-009  0.1055838E+04  0.7818608E-02  0.9249338E-01
          1   -1    0    0  501    0  0.00000000000E+00  0.00000000000E+00  0.14420852835E+04  0.14420852835E+04  0.50400000000E-02 0. -1.
         -1   -1    0    0    0  501 -0.00000000000E+00 -0.00000000000E+00 -0.11865552018E+04  0.11865552018E+04  0.50400000000E-02 0.  1.
    8880022    1    1    2    0    0  0.78863710220E+03 -0.68516660404E+03  0.90365758622E+03  0.13897447393E+04  0.15294330000E+03 0.  0.
    8880022    1    1    2    0    0 -0.78863710220E+03  0.68516660404E+03 -0.64812750455E+03  0.12388957460E+04  0.15294330000E+03 0.  0.
<mgrwt>
<rscale>  0 0.10558378E+04</rscale>
<asrwt>0</asrwt>
<pdfrwt beam="1">  1        1 0.22185927E+00 0.10558378E+04</pdfrwt>
<pdfrwt beam="2">  1       -1 0.18254695E+00 0.10558378E+04</pdfrwt>
<totfact> 0.14295398E+00</totfact>
</mgrwt>
</event>
<event>
 4    1  0.2731969E-009  0.9481299E+03  0.7818608E-02  0.9367339E-01
         -1   -1    0    0    0  501 -0.00000000000E+00  0.00000000000E+00  0.17458764992E+04  0.17458764992E+04  0.50400000000E-02 0.  1.
          1   -1    0    0  501    0  0.00000000000E+00 -0.00000000000E+00 -0.85703128586E+03  0.85703128587E+03  0.50400000000E-02 0. -1.
    8880022    1    1    2    0    0 -0.14660318072E+03 -0.92415699392E+03 -0.37787190951E+03  0.10206554144E+04  0.15294330000E+03 0.  0.
    8880022    1    1    2    0    0  0.14660318072E+03  0.92415699392E+03  0.12667171228E+04  0.15822523706E+04  0.15294330000E+03 0.  0.
<mgrwt>
<rscale>  0 0.94812989E+03</rscale>
<asrwt>0</asrwt>
<pdfrwt beam="1">  1        1 0.13185097E+00 0.94812989E+03</pdfrwt>
<pdfrwt beam="2">  1       -1 0.26859638E+00 0.94812989E+03</pdfrwt>
<totfact> 0.10609031E+00</totfact>
</mgrwt>
</event>
<event>
 4    1  0.2731969E-009  0.5721818E+03  0.7818608E-02  0.9964862E-01
          1   -1    0    0  501    0  0.00000000000E+00  0.00000000000E+00  0.18017026808E+04  0.18017026809E+04  0.50400000000E-02 0. -1.
         -1   -1    0    0    0  501 -0.00000000000E+00 -0.00000000000E+00 -0.22710039181E+03  0.22710039187E+03  0.50400000000E-02 0.  1.
    8880022    1    1    2    0    0  0.28328661623E+03 -0.47302124741E+03  0.33380820294E+03  0.66243488495E+03  0.15294330000E+03 0.  0.
    8880022    1    1    2    0    0 -0.28328661623E+03  0.47302124741E+03  0.12407940861E+04  0.13663681878E+04  0.15294330000E+03 0.  0.
<mgrwt>
<rscale>  0 0.57218184E+03</rscale>
<asrwt>0</asrwt>
<pdfrwt beam="1">  1        1 0.27718503E+00 0.57218184E+03</pdfrwt>
<pdfrwt beam="2">  1       -1 0.34938521E-01 0.57218184E+03</pdfrwt>
<totfact> 0.33563523E+01</totfact>
</mgrwt>
</event>
<event>
 4    1  0.2731969E-009  0.1417023E+04  0.7818608E-02  0.8941588E-01
          1   -1    0    0  501    0  0.00000000000E+00  0.00000000000E+00  0.27975933312E+04  0.27975933312E+04  0.50400000000E-02 0. -1.
         -1   -1    0    0    0  501 -0.00000000000E+00 -0.00000000000E+00 -0.90001558378E+03  0.90001558380E+03  0.50400000000E-02 0.  1.
    8880022    1    1    2    0    0 -0.80205540434E+03 -0.11581313644E+04  0.11678232307E+03  0.14218266044E+04  0.15294330000E+03 0.  0.
    8880022    1    1    2    0    0  0.80205540434E+03  0.11581313644E+04  0.17807954244E+04  0.22757823106E+04  0.15294330000E+03 0.  0.
<mgrwt>
<rscale>  0 0.14170225E+04</rscale>
<asrwt>0</asrwt>
<pdfrwt beam="1">  1        1 0.43039897E+00 0.14170225E+04</pdfrwt>
<pdfrwt beam="2">  1       -1 0.13846394E+00 0.14170225E+04</pdfrwt>
<totfact> 0.34723988E-01</totfact>
</mgrwt>
</event>
<event>
 4    1  0.2731969E-009  0.9968850E+03  0.7818608E-02  0.9311968E-01
         -1   -1    0    0    0  501 -0.00000000000E+00  0.00000000000E+00  0.95696862874E+03  0.95696862876E+03  0.50400000000E-02 0.  1.
          1   -1    0    0  501    0  0.00000000000E+00 -0.00000000000E+00 -0.18770699730E+04  0.18770699730E+04  0.50400000000E-02 0. -1.
    8880022    1    1    2    0    0 -0.40288360907E+03  0.89892871704E+03  0.48708873940E+03  0.11095202269E+04  0.15294330000E+03 0.  0.
    8880022    1    1    2    0    0  0.40288360907E+03 -0.89892871704E+03 -0.14071900836E+04  0.17245183748E+04  0.15294330000E+03 0.  0.
<mgrwt>
<rscale>  0 0.99688500E+03</rscale>
<asrwt>0</asrwt>
<pdfrwt beam="1">  1        1 0.28877999E+00 0.99688500E+03</pdfrwt>
<pdfrwt beam="2">  1       -1 0.14722594E+00 0.99688500E+03</pdfrwt>
<totfact> 0.13380095E+00</totfact>
</mgrwt>
</event>
<event>
 4    1  0.2731969E-009  0.5802565E+03  0.7818608E-02  0.9947236E-01
          1   -1    0    0  501    0  0.00000000000E+00  0.00000000000E+00  0.11776014843E+04  0.11776014843E+04  0.50400000000E-02 0. -1.
         -1   -1    0    0    0  501 -0.00000000000E+00 -0.00000000000E+00 -0.15772055854E+04  0.15772055854E+04  0.50400000000E-02 0.  1.
    8880022    1    1    2    0    0 -0.20462256341E+03  0.52099480582E+03 -0.14461190052E+04  0.15581905568E+04  0.15294330000E+03 0.  0.
    8880022    1    1    2    0    0  0.20462256341E+03 -0.52099480582E+03  0.10465149041E+04  0.11966165128E+04  0.15294330000E+03 0.  0.
<mgrwt>
<rscale>  0 0.58025652E+03</rscale>
<asrwt>0</asrwt>
<pdfrwt beam="1">  1        1 0.18116946E+00 0.58025652E+03</pdfrwt>
<pdfrwt beam="2">  1       -1 0.24264701E+00 0.58025652E+03</pdfrwt>
<totfact> 0.94754496E-01</totfact>
</mgrwt>
</event>
<event>
 4    1  0.2731969E-009  0.3531251E+03  0.7818608E-02  0.1061340E+00
         -1   -1    0    0    0  501 -0.00000000000E+00  0.00000000000E+00  0.11675602620E+03  0.11675602631E+03  0.50400000000E-02 0.  1.
          1   -1    0    0  501    0  0.00000000000E+00 -0.00000000000E+00 -0.23293268890E+04  0.23293268890E+04  0.50400000000E-02 0. -1.
    8880022    1    1    2    0    0  0.26980644695E+03 -0.16884957299E+03 -0.20062739381E+04  0.20371137584E+04  0.15294330000E+03 0.  0.
    8880022    1    1    2    0    0 -0.26980644695E+03  0.16884957299E+03 -0.20629692469E+03  0.40896915686E+03  0.15294330000E+03 0.  1.
<mgrwt>
<rscale>  0 0.35312512E+03</rscale>
<asrwt>0</asrwt>
<pdfrwt beam="1">  1        1 0.35835795E+00 0.35312512E+03</pdfrwt>
<pdfrwt beam="2">  1       -1 0.17962467E-01 0.35312512E+03</pdfrwt>
<totfact> 0.48505451E+01</totfact>
</mgrwt>
</event>
<event>
 4    1  0.2731969E-009  0.5054021E+03  0.7818608E-02  0.1012378E+00
          1   -1    0    0  501    0  0.00000000000E+00  0.00000000000E+00  0.24121343802E+04  0.24121343802E+04  0.50400000000E-02 0. -1.
         -1   -1    0    0    0  501 -0.00000000000E+00 -0.00000000000E+00 -0.99716144646E+03  0.99716144647E+03  0.50400000000E-02 0.  1.
    8880022    1    1    2    0    0 -0.55946121646E+02  0.47844503913E+03 -0.90410849572E+03  0.10357815643E+04  0.15294330000E+03 0.  1.
    8880022    1    1    2    0    0  0.55946121646E+02 -0.47844503913E+03  0.23190814294E+04  0.23735142623E+04  0.15294330000E+03 0.  0.
<mgrwt>
<rscale>  0 0.50540209E+03</rscale>
<asrwt>0</asrwt>
<pdfrwt beam="1">  1        1 0.37109759E+00 0.50540209E+03</pdfrwt>
<pdfrwt beam="2">  1       -1 0.15340945E+00 0.50540209E+03</pdfrwt>
<totfact> 0.58716324E-01</totfact>
</mgrwt>
</event>
<event>
 4    1  0.2731969E-009  0.8265595E+03  0.7818608E-02  0.9522349E-01
          1   -1    0    0  501    0  0.00000000000E+00  0.00000000000E+00  0.74787158853E+03  0.74787158855E+03  0.50400000000E-02 0. -1.
         -1   -1    0    0    0  501 -0.00000000000E+00 -0.00000000000E+00 -0.19796349980E+04  0.19796349980E+04  0.50400000000E-02 0.  1.
    8880022    1    1    2    0    0 -0.49587573384E+03 -0.64336322693E+03 -0.16166739228E+04  0.18157189240E+04  0.15294330000E+03 0.  0.
    8880022    1    1    2    0    0  0.49587573384E+03  0.64336322693E+03  0.38491051340E+03  0.91178766252E+03  0.15294330000E+03 0.  0.
<mgrwt>
<rscale>  0 0.82655952E+03</rscale>
<asrwt>0</asrwt>
<pdfrwt beam="1">  1        1 0.11505717E+00 0.82655952E+03</pdfrwt>
<pdfrwt beam="2">  1       -1 0.30455923E+00 0.82655952E+03</pdfrwt>
<totfact> 0.79192028E-01</totfact>
</mgrwt>
</event>
<event>
 4    1  0.2731969E-009  0.6316465E+03  0.7818608E-02  0.9841841E-01
         -1   -1    0    0    0  501 -0.00000000000E+00  0.00000000000E+00  0.20624091258E+04  0.20624091258E+04  0.50400000000E-02 0.  1.
          1   -1    0    0  501    0  0.00000000000E+00 -0.00000000000E+00 -0.52388128421E+03  0.52388128423E+03  0.50400000000E-02 0. -1.
    8880022    1    1    2    0    0  0.47757451896E+03 -0.38406793092E+03 -0.25773524664E+03  0.68220576595E+03  0.15294330000E+03 0.  0.
    8880022    1    1    2    0    0 -0.47757451896E+03  0.38406793092E+03  0.17962630882E+04  0.19040846441E+04  0.15294330000E+03 0.  0.
<mgrwt>
<rscale>  0 0.63164646E+03</rscale>
<asrwt>0</asrwt>
<pdfrwt beam="1">  1        1 0.80597121E-01 0.63164646E+03</pdfrwt>
<pdfrwt beam="2">  1       -1 0.31729371E+00 0.63164646E+03</pdfrwt>
<totfact> 0.11471024E+00</totfact>
</mgrwt>
</event>
<event>
 4    1  0.2731969E-009  0.8434133E+03  0.7818608E-02  0.9499220E-01
          1   -1    0    0  501    0  0.00000000000E+00  0.00000000000E+00  0.10864419065E+04  0.10864419065E+04  0.50400000000E-02 0. -1.
         -1   -1    0    0    0  501 -0.00000000000E+00 -0.00000000000E+00 -0.29656498360E+04  0.29656498360E+04  0.50400000000E-02 0.  1.
    8880022    1    1    2    0    0 -0.53004951582E+03  0.63796690355E+03  0.84885947164E+03  0.11966237148E+04  0.15294330000E+03 0.  0.
    8880022    1    1    2    0    0  0.53004951582E+03 -0.63796690355E+03 -0.27280674011E+04  0.28554680277E+04  0.15294330000E+03 0.  0.
<mgrwt>
<rscale>  0 0.84341325E+03</rscale>
<asrwt>0</asrwt>
<pdfrwt beam="1">  1        1 0.16714491E+00 0.84341325E+03</pdfrwt>
<pdfrwt beam="2">  1       -1 0.45625382E+00 0.84341325E+03</pdfrwt>
<totfact> 0.40391071E-02</totfact>
</mgrwt>
</event>
<event>
 4    1  0.2731969E-009  0.5708441E+03  0.7818608E-02  0.9967812E-01
          1   -1    0    0  501    0  0.00000000000E+00  0.00000000000E+00  0.18069808697E+04  0.18069808697E+04  0.50400000000E-02 0. -1.
         -1   -1    0    0    0  501 -0.00000000000E+00 -0.00000000000E+00 -0.20884733129E+03  0.20884733135E+03  0.50400000000E-02 0.  1.
    8880022    1    1    2    0    0 -0.41376408337E+03 -0.36231294092E+03  0.42665739165E+03  0.71267072811E+03  0.15294330000E+03 0.  0.
    8880022    1    1    2    0    0  0.41376408337E+03  0.36231294092E+03  0.11714761468E+04  0.13031574730E+04  0.15294330000E+03 0.  0.
<mgrwt>
<rscale>  0 0.57084414E+03</rscale>
<asrwt>0</asrwt>
<pdfrwt beam="1">  1        1 0.27799707E+00 0.57084414E+03</pdfrwt>
<pdfrwt beam="2">  1       -1 0.32130357E-01 0.57084414E+03</pdfrwt>
<totfact> 0.38594650E+01</totfact>
</mgrwt>
</event>
<event>
 4    1  0.2731969E-009  0.5166394E+03  0.7818608E-02  0.1009525E+00
          1   -1    0    0  501    0  0.00000000000E+00  0.00000000000E+00  0.30173720078E+04  0.30173720078E+04  0.50400000000E-02 0. -1.
         -1   -1    0    0    0  501 -0.00000000000E+00 -0.00000000000E+00 -0.55976726288E+03  0.55976726290E+03  0.50400000000E-02 0.  1.
    8880022    1    1    2    0    0 -0.13982074739E+03 -0.47325969780E+03 -0.41237018649E+03  0.66103358968E+03  0.15294330000E+03 0.  1.
    8880022    1    1    2    0    0  0.13982074739E+03  0.47325969780E+03  0.28699749314E+04  0.29161056810E+04  0.15294330000E+03 0.  0.
<mgrwt>
<rscale>  0 0.51663937E+03</rscale>
<asrwt>0</asrwt>
<pdfrwt beam="1">  1        1 0.46421107E+00 0.51663937E+03</pdfrwt>
<pdfrwt beam="2">  1       -1 0.86118042E-01 0.51663937E+03</pdfrwt>
<totfact> 0.89057973E-01</totfact>
</mgrwt>
</event>
<event>
 4    1  0.2731969E-009  0.3279408E+03  0.7818608E-02  0.1072052E+00
          1   -1    0    0  501    0  0.00000000000E+00  0.00000000000E+00  0.31163752521E+04  0.31163752521E+04  0.50400000000E-02 0. -1.
         -1   -1    0    0    0  501 -0.00000000000E+00 -0.00000000000E+00 -0.23829344264E+03  0.23829344269E+03  0.50400000000E-02 0.  1.
    8880022    1    1    2    0    0  0.22861673785E+02 -0.28918997793E+03  0.29901715182E+04  0.30081008728E+04  0.15294330000E+03 0.  0.
    8880022    1    1    2    0    0 -0.22861673785E+02  0.28918997793E+03 -0.11208970873E+03  0.34656782205E+03  0.15294330000E+03 0.  0.
<mgrwt>
<rscale>  0 0.32794078E+03</rscale>
<asrwt>0</asrwt>
<pdfrwt beam="1">  1        1 0.47944232E+00 0.32794078E+03</pdfrwt>
<pdfrwt beam="2">  1       -1 0.36660532E-01 0.32794078E+03</pdfrwt>
<totfact> 0.42481696E+00</totfact>
</mgrwt>
</event>
<event>
 4    1  0.2731969E-009  0.9381331E+03  0.7818608E-02  0.9379130E-01
         -1   -1    0    0    0  501 -0.00000000000E+00  0.00000000000E+00  0.12594411467E+04  0.12594411467E+04  0.50400000000E-02 0.  1.
          1   -1    0    0  501    0  0.00000000000E+00 -0.00000000000E+00 -0.79752877072E+03  0.79752877074E+03  0.50400000000E-02 0. -1.
    8880022    1    1    2    0    0 -0.88248512329E+03 -0.27914523466E+03  0.59282670894E+03  0.11097464642E+04  0.15294330000E+03 0.  0.
    8880022    1    1    2    0    0  0.88248512329E+03  0.27914523466E+03 -0.13091433297E+03  0.94722345328E+03  0.15294330000E+03 0.  0.
<mgrwt>
<rscale>  0 0.93813310E+03</rscale>
<asrwt>0</asrwt>
<pdfrwt beam="1">  1        1 0.12269673E+00 0.93813310E+03</pdfrwt>
<pdfrwt beam="2">  1       -1 0.19376018E+00 0.93813310E+03</pdfrwt>
<totfact> 0.37364954E+00</totfact>
</mgrwt>
</event>
<event>
 4    1  0.2731969E-009  0.5688227E+03  0.7818608E-02  0.9972287E-01
          1   -1    0    0  501    0  0.00000000000E+00  0.00000000000E+00  0.64217970337E+03  0.64217970339E+03  0.50400000000E-02 0. -1.
         -1   -1    0    0    0  501 -0.00000000000E+00 -0.00000000000E+00 -0.80542075428E+03  0.80542075429E+03  0.50400000000E-02 0.  1.
    8880022    1    1    2    0    0  0.20887136532E+02 -0.54747728424E+03  0.36127900204E+03  0.67385593383E+03  0.15294330000E+03 0.  0.
    8880022    1    1    2    0    0 -0.20887136532E+02  0.54747728424E+03 -0.52452005295E+03  0.77374452385E+03  0.15294330000E+03 0.  0.
<mgrwt>
<rscale>  0 0.56882273E+03</rscale>
<asrwt>0</asrwt>
<pdfrwt beam="1">  1        1 0.98796877E-01 0.56882273E+03</pdfrwt>
<pdfrwt beam="2">  1       -1 0.12391089E+00 0.56882273E+03</pdfrwt>
<totfact> 0.18650390E+01</totfact>
</mgrwt>
</event>
<event>
 4    1  0.2731969E-009  0.9711928E+03  0.7818608E-02  0.9340717E-01
          1   -1    0    0  501    0  0.00000000000E+00  0.00000000000E+00  0.14859939116E+04  0.14859939116E+04  0.50400000000E-02 0. -1.
         -1   -1    0    0    0  501 -0.00000000000E+00 -0.00000000000E+00 -0.74715699324E+03  0.74715699326E+03  0.50400000000E-02 0.  1.
    8880022    1    1    2    0    0  0.97734497870E+02  0.95408165325E+03  0.80253393419E+03  0.12598715021E+04  0.15294330000E+03 0.  0.
    8880022    1    1    2    0    0 -0.97734497870E+02 -0.95408165325E+03 -0.63697015815E+02  0.97327940283E+03  0.15294330000E+03 0.  0.
<mgrwt>
<rscale>  0 0.97119282E+03</rscale>
<asrwt>0</asrwt>
<pdfrwt beam="1">  1        1 0.22861445E+00 0.97119282E+03</pdfrwt>
<pdfrwt beam="2">  1       -1 0.11494723E+00 0.97119282E+03</pdfrwt>
<totfact> 0.46384068E+00</totfact>
</mgrwt>
</event>
<event>
 4    1  0.2731969E-009  0.6772789E+03  0.7818608E-02  0.9756897E-01
         -1   -1    0    0    0  501 -0.00000000000E+00  0.00000000000E+00  0.20096797294E+04  0.20096797294E+04  0.50400000000E-02 0.  1.
          1   -1    0    0  501    0  0.00000000000E+00 -0.00000000000E+00 -0.50815159423E+03  0.50815159426E+03  0.50400000000E-02 0. -1.
    8880022    1    1    2    0    0 -0.65762720669E+03 -0.53305940679E+02 -0.18357328337E+03  0.70171637410E+03  0.15294330000E+03 0.  0.
    8880022    1    1    2    0    0  0.65762720669E+03  0.53305940679E+02  0.16851014185E+04  0.18161149496E+04  0.15294330000E+03 0.  0.
<mgrwt>
<rscale>  0 0.67727891E+03</rscale>
<asrwt>0</asrwt>
<pdfrwt beam="1">  1        1 0.78177166E-01 0.67727891E+03</pdfrwt>
<pdfrwt beam="2">  1       -1 0.30918150E+00 0.67727891E+03</pdfrwt>
<totfact> 0.13353302E+00</totfact>
</mgrwt>
</event>
<event>
 4    1  0.2731969E-009  0.1105573E+04  0.7818608E-02  0.9199777E-01
          1   -1    0    0  501    0  0.00000000000E+00  0.00000000000E+00  0.13504740392E+04  0.13504740392E+04  0.50400000000E-02 0. -1.
         -1   -1    0    0    0  501 -0.00000000000E+00 -0.00000000000E+00 -0.13345488510E+04  0.13345488510E+04  0.50400000000E-02 0.  1.
    8880022    1    1    2    0    0 -0.24413778401E+03 -0.10673779767E+04  0.76954208773E+03  0.13470284631E+04  0.15294330000E+03 0. -1.
    8880022    1    1    2    0    0  0.24413778401E+03  0.10673779767E+04 -0.75361689959E+03  0.13379944271E+04  0.15294330000E+03 0.  0.
<mgrwt>
<rscale>  0 0.11055725E+04</rscale>
<asrwt>0</asrwt>
<pdfrwt beam="1">  1        1 0.20776524E+00 0.11055725E+04</pdfrwt>
<pdfrwt beam="2">  1       -1 0.20531521E+00 0.11055725E+04</pdfrwt>
<totfact> 0.11425432E+00</totfact>
</mgrwt>
</event>
<event>
 4    1  0.2731969E-009  0.1177838E+04  0.7818608E-02  0.9132479E-01
         -1   -1    0    0    0  501 -0.00000000000E+00  0.00000000000E+00  0.11466855546E+04  0.11466855546E+04  0.50400000000E-02 0.  1.
          1   -1    0    0  501    0  0.00000000000E+00 -0.00000000000E+00 -0.16431363582E+04  0.16431363582E+04  0.50400000000E-02 0. -1.
    8880022    1    1    2    0    0 -0.11468352960E+04  0.22063552046E+03 -0.96453964588E+03  0.15223795882E+04  0.15294330000E+03 0.  0.
    8880022    1    1    2    0    0  0.11468352960E+04 -0.22063552046E+03  0.46808884227E+03  0.12674423246E+04  0.15294330000E+03 0.  0.
<mgrwt>
<rscale>  0 0.11778382E+04</rscale>
<asrwt>0</asrwt>
<pdfrwt beam="1">  1        1 0.25279021E+00 0.11778382E+04</pdfrwt>
<pdfrwt beam="2">  1       -1 0.17641316E+00 0.11778382E+04</pdfrwt>
<totfact> 0.11320222E+00</totfact>
</mgrwt>
</event>
<event>
 4    1  0.2731969E-009  0.1216438E+04  0.7818608E-02  0.9098589E-01
          1   -1    0    0  501    0  0.00000000000E+00  0.00000000000E+00  0.19838505218E+04  0.19838505218E+04  0.50400000000E-02 0. -1.
         -1   -1    0    0    0  501 -0.00000000000E+00 -0.00000000000E+00 -0.13154145873E+04  0.13154145874E+04  0.50400000000E-02 0.  1.
    8880022    1    1    2    0    0 -0.29091978045E+03 -0.11711939074E+04  0.14196800399E+04  0.18695487574E+04  0.15294330000E+03 0.  0.
    8880022    1    1    2    0    0  0.29091978045E+03  0.11711939074E+04 -0.75124410547E+03  0.14297163518E+04  0.15294330000E+03 0.  0.
<mgrwt>
<rscale>  0 0.12164379E+04</rscale>
<asrwt>0</asrwt>
<pdfrwt beam="1">  1        1 0.30520777E+00 0.12164379E+04</pdfrwt>
<pdfrwt beam="2">  1       -1 0.20237148E+00 0.12164379E+04</pdfrwt>
<totfact> 0.43382286E-01</totfact>
</mgrwt>
</event>
<event>
 4    1  0.2731969E-009  0.1181409E+04  0.7818608E-02  0.9129286E-01
         -1   -1    0    0    0  501 -0.00000000000E+00  0.00000000000E+00  0.94303795774E+03  0.94303795775E+03  0.50400000000E-02 0.  1.
          1   -1    0    0  501    0  0.00000000000E+00 -0.00000000000E+00 -0.18977223591E+04  0.18977223592E+04  0.50400000000E-02 0. -1.
    8880022    1    1    2    0    0  0.52599000421E+03  0.10467429233E+04 -0.11437109806E+04  0.16443243877E+04  0.15294330000E+03 0.  0.
    8880022    1    1    2    0    0 -0.52599000421E+03 -0.10467429233E+04  0.18902657917E+03  0.11964359292E+04  0.15294330000E+03 0.  0.
<mgrwt>
<rscale>  0 0.11814093E+04</rscale>
<asrwt>0</asrwt>
<pdfrwt beam="1">  1        1 0.29195728E+00 0.11814093E+04</pdfrwt>
<pdfrwt beam="2">  1       -1 0.14508276E+00 0.11814093E+04</pdfrwt>
<totfact> 0.13137004E+00</totfact>
</mgrwt>
</event>
<event>
 4    1  0.2731969E-009  0.8598481E+03  0.7818608E-02  0.9477214E-01
          1   -1    0    0  501    0  0.00000000000E+00  0.00000000000E+00  0.27982242131E+04  0.27982242131E+04  0.50400000000E-02 0. -1.
         -1   -1    0    0    0  501 -0.00000000000E+00 -0.00000000000E+00 -0.40570380533E+03  0.40570380536E+03  0.50400000000E-02 0.  1.
    8880022    1    1    2    0    0 -0.73613972762E+03  0.41718747110E+03  0.21422925877E+04  0.23084099005E+04  0.15294330000E+03 0.  0.
    8880022    1    1    2    0    0  0.73613972762E+03 -0.41718747110E+03  0.25022782013E+03  0.89551811797E+03  0.15294330000E+03 0.  0.
<mgrwt>
<rscale>  0 0.85984809E+03</rscale>
<asrwt>0</asrwt>
<pdfrwt beam="1">  1        1 0.43049603E+00 0.85984809E+03</pdfrwt>
<pdfrwt beam="2">  1       -1 0.62415970E-01 0.85984809E+03</pdfrwt>
<totfact> 0.22794680E+00</totfact>
</mgrwt>
</event>
<event>
 4    1  0.2731969E-009  0.2838130E+03  0.7818608E-02  0.1093624E+00
          1   -1    0    0  501    0  0.00000000000E+00  0.00000000000E+00  0.11491647216E+04  0.11491647216E+04  0.50400000000E-02 0. -1.
         -1   -1    0    0    0  501 -0.00000000000E+00 -0.00000000000E+00 -0.59588876995E+03  0.59588876997E+03  0.50400000000E-02 0.  1.
    8880022    1    1    2    0    0  0.61322638399E+02 -0.23107943320E+03  0.10962421874E+04  0.11323854277E+04  0.15294330000E+03 0.  0.
    8880022    1    1    2    0    0 -0.61322638399E+02  0.23107943320E+03 -0.54296623570E+03  0.61266806393E+03  0.15294330000E+03 0.  0.
<mgrwt>
<rscale>  0 0.28381301E+03</rscale>
<asrwt>0</asrwt>
<pdfrwt beam="1">  1        1 0.17679457E+00 0.28381301E+03</pdfrwt>
<pdfrwt beam="2">  1       -1 0.91675196E-01 0.28381301E+03</pdfrwt>
<totfact> 0.15404366E+01</totfact>
</mgrwt>
</event>
<event>
 4    1  0.2731969E-009  0.5259135E+03  0.7818608E-02  0.1007228E+00
         -1   -1    0    0    0  501 -0.00000000000E+00  0.00000000000E+00  0.13712162611E+04  0.13712162611E+04  0.50400000000E-02 0.  1.
          1   -1    0    0  501    0  0.00000000000E+00 -0.00000000000E+00 -0.42824995922E+03  0.42824995925E+03  0.50400000000E-02 0. -1.
    8880022    1    1    2    0    0  0.32285056398E+03 -0.38595450104E+03 -0.18291121956E+03  0.55681373079E+03  0.15294330000E+03 0.  0.
    8880022    1    1    2    0    0 -0.32285056398E+03  0.38595450104E+03  0.11258775214E+04  0.12426524895E+04  0.15294330000E+03 0.  0.
<mgrwt>
<rscale>  0 0.52591351E+03</rscale>
<asrwt>0</asrwt>
<pdfrwt beam="1">  1        1 0.65884608E-01 0.52591351E+03</pdfrwt>
<pdfrwt beam="2">  1       -1 0.21095635E+00 0.52591351E+03</pdfrwt>
<totfact> 0.74296885E+00</totfact>
</mgrwt>
</event>
<event>
 4    1  0.2731969E-009  0.2284596E+03  0.7818608E-02  0.1127729E+00
         -1   -1    0    0    0  501 -0.00000000000E+00  0.00000000000E+00  0.35931225552E+03  0.35931225556E+03  0.50400000000E-02 0.  1.
          1   -1    0    0  501    0  0.00000000000E+00 -0.00000000000E+00 -0.89074557483E+03  0.89074557484E+03  0.50400000000E-02 0. -1.
    8880022    1    1    2    0    0 -0.14986670674E+03  0.79637297235E+02 -0.83751491613E+03  0.86811578528E+03  0.15294330000E+03 0.  0.
    8880022    1    1    2    0    0  0.14986670674E+03 -0.79637297235E+02  0.30608159682E+03  0.38194204512E+03  0.15294330000E+03 0.  0.
<mgrwt>
<rscale>  0 0.22845958E+03</rscale>
<asrwt>0</asrwt>
<pdfrwt beam="1">  1        1 0.13703778E+00 0.22845958E+03</pdfrwt>
<pdfrwt beam="2">  1       -1 0.55278809E-01 0.22845958E+03</pdfrwt>
<totfact> 0.67833994E+01</totfact>
</mgrwt>
</event>
<event>
 4    1  0.2731969E-009  0.5813914E+03  0.7818608E-02  0.9944783E-01
         -1   -1    0    0    0  501 -0.00000000000E+00  0.00000000000E+00  0.95049767031E+03  0.95049767032E+03  0.50400000000E-02 0.  1.
          1   -1    0    0  501    0  0.00000000000E+00 -0.00000000000E+00 -0.12058508590E+04  0.12058508590E+04  0.50400000000E-02 0. -1.
    8880022    1    1    2    0    0 -0.44918531786E+03  0.33594177778E+03 -0.10330142717E+04  0.11853836789E+04  0.15294330000E+03 0.  0.
    8880022    1    1    2    0    0  0.44918531786E+03 -0.33594177778E+03  0.77766108293E+03  0.97096485042E+03  0.15294330000E+03 0.  0.
<mgrwt>
<rscale>  0 0.58139142E+03</rscale>
<asrwt>0</asrwt>
<pdfrwt beam="1">  1        1 0.18551552E+00 0.58139142E+03</pdfrwt>
<pdfrwt beam="2">  1       -1 0.14623041E+00 0.58139142E+03</pdfrwt>
<totfact> 0.42416183E+00</totfact>
</mgrwt>
</event>
<event>
 4    1  0.2731969E-009  0.4543753E+03  0.7818608E-02  0.1026425E+00
         -1   -1    0    0    0  501 -0.00000000000E+00  0.00000000000E+00  0.36783960318E+03  0.36783960322E+03  0.50400000000E-02 0.  1.
          1   -1    0    0  501    0  0.00000000000E+00 -0.00000000000E+00 -0.62736745637E+03  0.62736745639E+03  0.50400000000E-02 0. -1.
    8880022    1    1    2    0    0  0.25957183433E+03 -0.34012894694E+03 -0.29128113216E+03  0.53972362251E+03  0.15294330000E+03 0.  0.
    8880022    1    1    2    0    0 -0.25957183433E+03  0.34012894694E+03  0.31753278977E+02  0.45548343709E+03  0.15294330000E+03 0.  0.
<mgrwt>
<rscale>  0 0.45437528E+03</rscale>
<asrwt>0</asrwt>
<pdfrwt beam="1">  1        1 0.96518070E-01 0.45437528E+03</pdfrwt>
<pdfrwt beam="2">  1       -1 0.56590708E-01 0.45437528E+03</pdfrwt>
<totfact> 0.10596519E+02</totfact>
</mgrwt>
</event>
<event>
 4    1  0.2731969E-009  0.4042508E+03  0.7818608E-02  0.1042318E+00
          1   -1    0    0  501    0  0.00000000000E+00  0.00000000000E+00  0.96716053805E+03  0.96716053806E+03  0.50400000000E-02 0. -1.
         -1   -1    0    0    0  501 -0.00000000000E+00 -0.00000000000E+00 -0.55567651677E+03  0.55567651679E+03  0.50400000000E-02 0.  1.
    8880022    1    1    2    0    0 -0.82524405778E+02 -0.36498873890E+03 -0.42944931813E+03  0.58978422065E+03  0.15294330000E+03 0.  0.
    8880022    1    1    2    0    0  0.82524405778E+02  0.36498873890E+03  0.84093333941E+03  0.93305283420E+03  0.15294330000E+03 0.  0.
<mgrwt>
<rscale>  0 0.40425080E+03</rscale>
<asrwt>0</asrwt>
<pdfrwt beam="1">  1        1 0.14879393E+00 0.40425080E+03</pdfrwt>
<pdfrwt beam="2">  1       -1 0.85488696E-01 0.40425080E+03</pdfrwt>
<totfact> 0.23591780E+01</totfact>
</mgrwt>
</event>
<event>
 4    1  0.2731969E-009  0.1395112E+04  0.7818608E-02  0.8957364E-01
          1   -1    0    0  501    0  0.00000000000E+00  0.00000000000E+00  0.15531802522E+04  0.15531802523E+04  0.50400000000E-02 0. -1.
         -1   -1    0    0    0  501 -0.00000000000E+00 -0.00000000000E+00 -0.15780210877E+04  0.15780210878E+04  0.50400000000E-02 0.  1.
    8880022    1    1    2    0    0  0.98082459643E+03 -0.98026991650E+03  0.69796349335E+03  0.15599649641E+04  0.15294330000E+03 0.  0.
    8880022    1    1    2    0    0 -0.98082459643E+03  0.98026991650E+03 -0.72280432886E+03  0.15712363759E+04  0.15294330000E+03 0.  0.
<mgrwt>
<rscale>  0 0.13951121E+04</rscale>
<asrwt>0</asrwt>
<pdfrwt beam="1">  1        1 0.23895081E+00 0.13951121E+04</pdfrwt>
<pdfrwt beam="2">  1       -1 0.24277248E+00 0.13951121E+04</pdfrwt>
<totfact> 0.44709956E-01</totfact>
</mgrwt>
</event>
<event>
 4    1  0.2731969E-009  0.6047725E+03  0.7818608E-02  0.9895554E-01
          1   -1    0    0  501    0  0.00000000000E+00  0.00000000000E+00  0.14388207002E+04  0.14388207002E+04  0.50400000000E-02 0. -1.
         -1   -1    0    0    0  501 -0.00000000000E+00 -0.00000000000E+00 -0.94357532626E+03  0.94357532627E+03  0.50400000000E-02 0.  1.
    8880022    1    1    2    0    0 -0.45338992151E+03  0.36985898028E+03  0.12657995125E+04  0.14028535722E+04  0.15294330000E+03 0. -1.
    8880022    1    1    2    0    0  0.45338992151E+03 -0.36985898028E+03 -0.77055413857E+03  0.97954245426E+03  0.15294330000E+03 0.  0.
<mgrwt>
<rscale>  0 0.60477247E+03</rscale>
<asrwt>0</asrwt>
<pdfrwt beam="1">  1        1 0.22135703E+00 0.60477247E+03</pdfrwt>
<pdfrwt beam="2">  1       -1 0.14516544E+00 0.60477247E+03</pdfrwt>
<totfact> 0.29550314E+00</totfact>
</mgrwt>
</event>
<event>
 4    1  0.2731969E-009  0.9231331E+03  0.7818608E-02  0.9397117E-01
          1   -1    0    0  501    0  0.00000000000E+00  0.00000000000E+00  0.91426499572E+03  0.91426499573E+03  0.50400000000E-02 0. -1.
         -1   -1    0    0    0  501 -0.00000000000E+00 -0.00000000000E+00 -0.31933969778E+04  0.31933969778E+04  0.50400000000E-02 0.  1.
    8880022    1    1    2    0    0  0.79455301379E+03 -0.44437430604E+03 -0.28678626107E+04  0.30127745721E+04  0.15294330000E+03 0.  0.
    8880022    1    1    2    0    0 -0.79455301379E+03  0.44437430604E+03  0.58873062864E+03  0.10948874014E+04  0.15294330000E+03 0.  0.
<mgrwt>
<rscale>  0 0.92313307E+03</rscale>
<asrwt>0</asrwt>
<pdfrwt beam="1">  1        1 0.14065615E+00 0.92313307E+03</pdfrwt>
<pdfrwt beam="2">  1       -1 0.49129184E+00 0.92313307E+03</pdfrwt>
<totfact> 0.31184439E-02</totfact>
</mgrwt>
</event>
<event>
 4    1  0.2731969E-009  0.3126751E+03  0.7818608E-02  0.1079071E+00
         -1   -1    0    0    0  501 -0.00000000000E+00  0.00000000000E+00  0.55143922195E+02  0.55143922425E+02  0.50400000000E-02 0.  1.
          1   -1    0    0  501    0  0.00000000000E+00 -0.00000000000E+00 -0.17734922932E+04  0.17734922932E+04  0.50400000000E-02 0. -1.
    8880022    1    1    2    0    0  0.15869968943E+03 -0.22178474292E+03 -0.84273769514E+03  0.89887292731E+03  0.15294330000E+03 0. -1.
    8880022    1    1    2    0    0 -0.15869968943E+03  0.22178474292E+03 -0.87561067583E+03  0.92976328829E+03  0.15294330000E+03 0.  1.
<mgrwt>
<rscale>  0 0.31267510E+03</rscale>
<asrwt>0</asrwt>
<pdfrwt beam="1">  1        1 0.27284493E+00 0.31267510E+03</pdfrwt>
<pdfrwt beam="2">  1       -1 0.84836817E-02 0.31267510E+03</pdfrwt>
<totfact> 0.37056115E+02</totfact>
</mgrwt>
</event>
<event>
 4    1  0.2731969E-009  0.6605553E+03  0.7818608E-02  0.9787172E-01
          1   -1    0    0  501    0  0.00000000000E+00  0.00000000000E+00  0.91934087731E+03  0.91934087732E+03  0.50400000000E-02 0. -1.
         -1   -1    0    0    0  501 -0.00000000000E+00 -0.00000000000E+00 -0.10706142559E+04  0.10706142559E+04  0.50400000000E-02 0.  1.
    8880022    1    1    2    0    0 -0.29688032810E+03  0.56991549319E+03  0.66673179297E+03  0.93854383774E+03  0.15294330000E+03 0.  0.
    8880022    1    1    2    0    0  0.29688032810E+03 -0.56991549319E+03 -0.81800517157E+03  0.10514112955E+04  0.15294330000E+03 0.  0.
<mgrwt>
<rscale>  0 0.66055526E+03</rscale>
<asrwt>0</asrwt>
<pdfrwt beam="1">  1        1 0.14143706E+00 0.66055526E+03</pdfrwt>
<pdfrwt beam="2">  1       -1 0.16470988E+00 0.66055526E+03</pdfrwt>
<totfact> 0.49701328E+00</totfact>
</mgrwt>
</event>
<event>
 4    1  0.2731969E-009  0.1609110E+04  0.7818608E-02  0.8814971E-01
         -1   -1    0    0    0  501 -0.00000000000E+00  0.00000000000E+00  0.90185690044E+03  0.90185690045E+03  0.50400000000E-02 0.  1.
          1   -1    0    0  501    0  0.00000000000E+00 -0.00000000000E+00 -0.34313520878E+04  0.34313520878E+04  0.50400000000E-02 0. -1.
    8880022    1    1    2    0    0 -0.10189528399E+04 -0.12359524029E+04 -0.21402873985E+04  0.26776977113E+04  0.15294330000E+03 0.  0.
    8880022    1    1    2    0    0  0.10189528399E+04  0.12359524029E+04 -0.38920778883E+03  0.16555112769E+04  0.15294330000E+03 0.  0.
<mgrwt>
<rscale>  0 0.16091100E+04</rscale>
<asrwt>0</asrwt>
<pdfrwt beam="1">  1        1 0.52790031E+00 0.16091100E+04</pdfrwt>
<pdfrwt beam="2">  1       -1 0.13874722E+00 0.16091100E+04</pdfrwt>
<totfact> 0.11455738E-01</totfact>
</mgrwt>
</event>
<event>
 4    1  0.2731969E-009  0.5637999E+03  0.7818608E-02  0.9983493E-01
          1   -1    0    0  501    0  0.00000000000E+00  0.00000000000E+00  0.34366698936E+03  0.34366698939E+03  0.50400000000E-02 0. -1.
         -1   -1    0    0    0  501 -0.00000000000E+00 -0.00000000000E+00 -0.24289125404E+04  0.24289125404E+04  0.50400000000E-02 0.  1.
    8880022    1    1    2    0    0  0.15683479057E+03  0.51950120801E+03 -0.21334813929E+04  0.22067200011E+04  0.15294330000E+03 0.  0.
    8880022    1    1    2    0    0 -0.15683479057E+03 -0.51950120801E+03  0.48235841894E+02  0.56585952860E+03  0.15294330000E+03 0.  0.
<mgrwt>
<rscale>  0 0.56379988E+03</rscale>
<asrwt>0</asrwt>
<pdfrwt beam="1">  1        1 0.52871846E-01 0.56379988E+03</pdfrwt>
<pdfrwt beam="2">  1       -1 0.37367884E+00 0.56379988E+03</pdfrwt>
<totfact> 0.87857667E-01</totfact>
</mgrwt>
</event>
<event>
 4    1  0.2731969E-009  0.9428739E+03  0.7818608E-02  0.9373519E-01
         -1   -1    0    0    0  501 -0.00000000000E+00  0.00000000000E+00  0.99079689784E+03  0.99079689786E+03  0.50400000000E-02 0.  1.
          1   -1    0    0  501    0  0.00000000000E+00 -0.00000000000E+00 -0.20961416387E+04  0.20961416387E+04  0.50400000000E-02 0. -1.
    8880022    1    1    2    0    0  0.45355490781E+03  0.81234695114E+03  0.61460538799E+03  0.11255003596E+04  0.15294330000E+03 0.  0.
    8880022    1    1    2    0    0 -0.45355490781E+03 -0.81234695114E+03 -0.17199501289E+04  0.19614381770E+04  0.15294330000E+03 0.  0.
<mgrwt>
<rscale>  0 0.94287395E+03</rscale>
<asrwt>0</asrwt>
<pdfrwt beam="1">  1        1 0.32248333E+00 0.94287395E+03</pdfrwt>
<pdfrwt beam="2">  1       -1 0.15243029E+00 0.94287395E+03</pdfrwt>
<totfact> 0.87530789E-01</totfact>
</mgrwt>
</event>
<event>
 4    1  0.2731969E-009  0.6320987E+03  0.7818608E-02  0.9840962E-01
          1   -1    0    0  501    0  0.00000000000E+00  0.00000000000E+00  0.20324878819E+04  0.20324878819E+04  0.50400000000E-02 0. -1.
         -1   -1    0    0    0  501 -0.00000000000E+00 -0.00000000000E+00 -0.43507459058E+03  0.43507459061E+03  0.50400000000E-02 0.  1.
    8880022    1    1    2    0    0  0.61268298160E+03  0.27869066343E+02 -0.11476387088E+03  0.64243250219E+03  0.15294330000E+03 0.  0.
    8880022    1    1    2    0    0 -0.61268298160E+03 -0.27869066343E+02  0.17121771622E+04  0.18251299703E+04  0.15294330000E+03 0.  0.
<mgrwt>
<rscale>  0 0.63209871E+03</rscale>
<asrwt>0</asrwt>
<pdfrwt beam="1">  1        1 0.31269044E+00 0.63209871E+03</pdfrwt>
<pdfrwt beam="2">  1       -1 0.66934553E-01 0.63209871E+03</pdfrwt>
<totfact> 0.68643154E+00</totfact>
</mgrwt>
</event>
<event>
 4    1  0.2731969E-009  0.5652190E+03  0.7818608E-02  0.9980315E-01
          1   -1    0    0  501    0  0.00000000000E+00  0.00000000000E+00  0.12415922359E+04  0.12415922359E+04  0.50400000000E-02 0. -1.
         -1   -1    0    0    0  501 -0.00000000000E+00 -0.00000000000E+00 -0.10042898385E+04  0.10042898385E+04  0.50400000000E-02 0.  1.
    8880022    1    1    2    0    0 -0.37759404090E+03  0.39179529738E+03 -0.84981003399E+03  0.10206123464E+04  0.15294330000E+03 0.  0.
    8880022    1    1    2    0    0  0.37759404090E+03 -0.39179529738E+03  0.10871124314E+04  0.12252697279E+04  0.15294330000E+03 0.  0.
<mgrwt>
<rscale>  0 0.56521896E+03</rscale>
<asrwt>0</asrwt>
<pdfrwt beam="1">  1        1 0.19101419E+00 0.56521896E+03</pdfrwt>
<pdfrwt beam="2">  1       -1 0.15450613E+00 0.56521896E+03</pdfrwt>
<totfact> 0.34650207E+00</totfact>
</mgrwt>
</event>
<event>
 4    1  0.2731969E-009  0.1303078E+04  0.7818608E-02  0.9027128E-01
         -1   -1    0    0    0  501 -0.00000000000E+00  0.00000000000E+00  0.13728215983E+04  0.13728215983E+04  0.50400000000E-02 0.  1.
          1   -1    0    0  501    0  0.00000000000E+00 -0.00000000000E+00 -0.15642940576E+04  0.15642940576E+04  0.50400000000E-02 0. -1.
    8880022    1    1    2    0    0 -0.70102254982E+03 -0.10877440631E+04  0.57612955853E+03  0.14247584649E+04  0.15294330000E+03 0.  0.
    8880022    1    1    2    0    0  0.70102254982E+03  0.10877440631E+04 -0.76760201783E+03  0.15123571909E+04  0.15294330000E+03 0.  0.
<mgrwt>
<rscale>  0 0.13030777E+04</rscale>
<asrwt>0</asrwt>
<pdfrwt beam="1">  1        1 0.24066062E+00 0.13030777E+04</pdfrwt>
<pdfrwt beam="2">  1       -1 0.21120332E+00 0.13030777E+04</pdfrwt>
<totfact> 0.72078265E-01</totfact>
</mgrwt>
</event>
<event>
 4    1  0.2731969E-009  0.3591289E+03  0.7818608E-02  0.1058929E+00
          1   -1    0    0  501    0  0.00000000000E+00  0.00000000000E+00  0.11850993675E+04  0.11850993675E+04  0.50400000000E-02 0. -1.
         -1   -1    0    0    0  501 -0.00000000000E+00 -0.00000000000E+00 -0.27449530081E+03  0.27449530086E+03  0.50400000000E-02 0.  1.
    8880022    1    1    2    0    0  0.74565981011E+01  0.32484810573E+03  0.10222608296E+04  0.10835085368E+04  0.15294330000E+03 0.  0.
    8880022    1    1    2    0    0 -0.74565981011E+01 -0.32484810573E+03 -0.11165676287E+03  0.37608613157E+03  0.15294330000E+03 0.  0.
<mgrwt>
<rscale>  0 0.35912887E+03</rscale>
<asrwt>0</asrwt>
<pdfrwt beam="1">  1        1 0.18232298E+00 0.35912887E+03</pdfrwt>
<pdfrwt beam="2">  1       -1 0.42230047E-01 0.35912887E+03</pdfrwt>
<totfact> 0.65261945E+01</totfact>
</mgrwt>
</event>
<event>
 4    1  0.2731969E-009  0.6874832E+03  0.7818608E-02  0.9738880E-01
          1   -1    0    0  501    0  0.00000000000E+00  0.00000000000E+00  0.19550045506E+04  0.19550045506E+04  0.50400000000E-02 0. -1.
         -1   -1    0    0    0  501 -0.00000000000E+00 -0.00000000000E+00 -0.61268115296E+03  0.61268115298E+03  0.50400000000E-02 0.  1.
    8880022    1    1    2    0    0 -0.49349879184E+03  0.45354210009E+03 -0.32777513807E+03  0.76162306179E+03  0.15294330000E+03 0.  0.
    8880022    1    1    2    0    0  0.49349879184E+03 -0.45354210009E+03  0.16700985357E+04  0.18060626418E+04  0.15294330000E+03 0.  0.
<mgrwt>
<rscale>  0 0.68748320E+03</rscale>
<asrwt>0</asrwt>
<pdfrwt beam="1">  1        1 0.30076992E+00 0.68748320E+03</pdfrwt>
<pdfrwt beam="2">  1       -1 0.94258641E-01 0.68748320E+03</pdfrwt>
<totfact> 0.37046014E+00</totfact>
</mgrwt>
</event>
<event>
 4    1  0.2731969E-009  0.8314582E+03  0.7818608E-02  0.9515567E-01
          1   -1    0    0  501    0  0.00000000000E+00  0.00000000000E+00  0.10208922199E+04  0.10208922199E+04  0.50400000000E-02 0. -1.
         -1   -1    0    0    0  501 -0.00000000000E+00 -0.00000000000E+00 -0.93338837601E+03  0.93338837602E+03  0.50400000000E-02 0.  1.
    8880022    1    1    2    0    0 -0.86777194293E+02 -0.81265046017E+03 -0.46819698084E+03  0.95421754215E+03  0.15294330000E+03 0.  1.
    8880022    1    1    2    0    0  0.86777194293E+02  0.81265046017E+03  0.55570082470E+03  0.10000630537E+04  0.15294330000E+03 0.  0.
<mgrwt>
<rscale>  0 0.83145818E+03</rscale>
<asrwt>0</asrwt>
<pdfrwt beam="1">  1        1 0.15706034E+00 0.83145818E+03</pdfrwt>
<pdfrwt beam="2">  1       -1 0.14359821E+00 0.83145818E+03</pdfrwt>
<totfact> 0.58489882E+00</totfact>
</mgrwt>
</event>
<event>
 4    1  0.2731969E-009  0.7183129E+03  0.7818608E-02  0.9686417E-01
         -1   -1    0    0    0  501 -0.00000000000E+00  0.00000000000E+00  0.32030239840E+03  0.32030239844E+03  0.50400000000E-02 0.  1.
          1   -1    0    0  501    0  0.00000000000E+00 -0.00000000000E+00 -0.22433439509E+04  0.22433439509E+04  0.50400000000E-02 0. -1.
    8880022    1    1    2    0    0  0.61789247682E+03 -0.33285226140E+03 -0.16421225445E+04  0.17923559482E+04  0.15294330000E+03 0.  0.
    8880022    1    1    2    0    0 -0.61789247682E+03  0.33285226140E+03 -0.28091900798E+03  0.77129040114E+03  0.15294330000E+03 0.  0.
<mgrwt>
<rscale>  0 0.71831288E+03</rscale>
<asrwt>0</asrwt>
<pdfrwt beam="1">  1        1 0.34512983E+00 0.71831288E+03</pdfrwt>
<pdfrwt beam="2">  1       -1 0.49277294E-01 0.71831288E+03</pdfrwt>
<totfact> 0.88684325E+00</totfact>
</mgrwt>
</event>
<event>
 4    1  0.2731969E-009  0.6716623E+03  0.7818608E-02  0.9766959E-01
          1   -1    0    0  501    0  0.00000000000E+00  0.00000000000E+00  0.24596579084E+04  0.24596579084E+04  0.50400000000E-02 0. -1.
         -1   -1    0    0    0  501 -0.00000000000E+00 -0.00000000000E+00 -0.78944273286E+03  0.78944273288E+03  0.50400000000E-02 0.  1.
    8880022    1    1    2    0    0  0.26650931285E+03  0.59725320485E+03 -0.58827042348E+03  0.89285628670E+03  0.15294330000E+03 0.  0.
    8880022    1    1    2    0    0 -0.26650931285E+03 -0.59725320485E+03  0.22584855990E+04  0.23562443545E+04  0.15294330000E+03 0.  0.
<mgrwt>
<rscale>  0 0.67166231E+03</rscale>
<asrwt>0</asrwt>
<pdfrwt beam="1">  1        1 0.37840890E+00 0.67166231E+03</pdfrwt>
<pdfrwt beam="2">  1       -1 0.12145273E+00 0.67166231E+03</pdfrwt>
<totfact> 0.94407433E-01</totfact>
</mgrwt>
</event>
<event>
 4    1  0.2731969E-009  0.1470604E+04  0.7818608E-02  0.8904239E-01
         -1   -1    0    0    0  501 -0.00000000000E+00  0.00000000000E+00  0.14695074299E+04  0.14695074299E+04  0.50400000000E-02 0.  1.
          1   -1    0    0  501    0  0.00000000000E+00 -0.00000000000E+00 -0.15562635877E+04  0.15562635877E+04  0.50400000000E-02 0. -1.
    8880022    1    1    2    0    0  0.12281442052E+04 -0.79432199616E+03 -0.39603353649E+03  0.15229969919E+04  0.15294330000E+03 0.  0.
    8880022    1    1    2    0    0 -0.12281442052E+04  0.79432199616E+03  0.30927737863E+03  0.15027740257E+04  0.15294330000E+03 0.  0.
<mgrwt>
<rscale>  0 0.14706044E+04</rscale>
<asrwt>0</asrwt>
<pdfrwt beam="1">  1        1 0.23942517E+00 0.14706044E+04</pdfrwt>
<pdfrwt beam="2">  1       -1 0.22607807E+00 0.14706044E+04</pdfrwt>
<totfact> 0.56890753E-01</totfact>
</mgrwt>
</event>
<event>
 4    1  0.2731969E-009  0.6983009E+03  0.7818608E-02  0.9720142E-01
          1   -1    0    0  501    0  0.00000000000E+00  0.00000000000E+00  0.82534126112E+03  0.82534126113E+03  0.50400000000E-02 0. -1.
         -1   -1    0    0    0  501 -0.00000000000E+00 -0.00000000000E+00 -0.73135822777E+03  0.73135822779E+03  0.50400000000E-02 0.  1.
    8880022    1    1    2    0    0 -0.51149675766E+03 -0.45011502042E+03 -0.29421274549E+03  0.75775012856E+03  0.15294330000E+03 0.  0.
    8880022    1    1    2    0    0  0.51149675766E+03  0.45011502042E+03  0.38819577884E+03  0.79894936036E+03  0.15294330000E+03 0.  0.
<mgrwt>
<rscale>  0 0.69830088E+03</rscale>
<asrwt>0</asrwt>
<pdfrwt beam="1">  1        1 0.12697558E+00 0.69830088E+03</pdfrwt>
<pdfrwt beam="2">  1       -1 0.11251665E+00 0.69830088E+03</pdfrwt>
<totfact> 0.15745370E+01</totfact>
</mgrwt>
</event>
<event>
 4    1  0.2731969E-009  0.1022347E+04  0.7818608E-02  0.9284369E-01
         -1   -1    0    0    0  501 -0.00000000000E+00  0.00000000000E+00  0.73413731988E+03  0.73413731990E+03  0.50400000000E-02 0.  1.
          1   -1    0    0  501    0  0.00000000000E+00 -0.00000000000E+00 -0.21689526286E+04  0.21689526286E+04  0.50400000000E-02 0. -1.
    8880022    1    1    2    0    0  0.85558096187E+03  0.53831522430E+03 -0.15682640414E+04  0.18720699292E+04  0.15294330000E+03 0.  0.
    8880022    1    1    2    0    0 -0.85558096187E+03 -0.53831522430E+03  0.13344873270E+03  0.10310200194E+04  0.15294330000E+03 0.  0.
<mgrwt>
<rscale>  0 0.10223472E+04</rscale>
<asrwt>0</asrwt>
<pdfrwt beam="1">  1        1 0.33368502E+00 0.10223472E+04</pdfrwt>
<pdfrwt beam="2">  1       -1 0.11294420E+00 0.10223472E+04</pdfrwt>
<totfact> 0.16557570E+00</totfact>
</mgrwt>
</event>
<event>
 4    1  0.2731969E-009  0.3789078E+03  0.7818608E-02  0.1051338E+00
          1   -1    0    0  501    0  0.00000000000E+00  0.00000000000E+00  0.46476318495E+04  0.46476318495E+04  0.50400000000E-02 0. -1.
         -1   -1    0    0    0  501 -0.00000000000E+00 -0.00000000000E+00 -0.13787690131E+03  0.13787690141E+03  0.50400000000E-02 0.  1.
    8880022    1    1    2    0    0 -0.75891232550E+02  0.33826023107E+03  0.14714664729E+03  0.40647663146E+03  0.15294330000E+03 0.  0.
    8880022    1    1    2    0    0  0.75891232550E+02 -0.33826023107E+03  0.43626083009E+04  0.43790321194E+04  0.15294330000E+03 0.  0.
<mgrwt>
<rscale>  0 0.37890779E+03</rscale>
<asrwt>0</asrwt>
<pdfrwt beam="1">  1        1 0.71502032E+00 0.37890779E+03</pdfrwt>
<pdfrwt beam="2">  1       -1 0.21211830E-01 0.37890779E+03</pdfrwt>
<totfact> 0.54056777E-01</totfact>
</mgrwt>
</event>
<event>
 4    1  0.2731969E-009  0.4657715E+03  0.7818608E-02  0.1023120E+00
          1   -1    0    0  501    0  0.00000000000E+00  0.00000000000E+00  0.11307709792E+04  0.11307709792E+04  0.50400000000E-02 0. -1.
         -1   -1    0    0    0  501 -0.00000000000E+00 -0.00000000000E+00 -0.26822065175E+03  0.26822065180E+03  0.50400000000E-02 0.  1.
    8880022    1    1    2    0    0 -0.25038679693E+03  0.36174290252E+03  0.80451707373E+03  0.92961865867E+03  0.15294330000E+03 0.  0.
    8880022    1    1    2    0    0  0.25038679693E+03 -0.36174290252E+03  0.58033253701E+02  0.46937297232E+03  0.15294330000E+03 0.  0.
<mgrwt>
<rscale>  0 0.46577154E+03</rscale>
<asrwt>0</asrwt>
<pdfrwt beam="1">  1        1 0.17396477E+00 0.46577154E+03</pdfrwt>
<pdfrwt beam="2">  1       -1 0.41264715E-01 0.46577154E+03</pdfrwt>
<totfact> 0.73087704E+01</totfact>
</mgrwt>
</event>
<event>
 4    1  0.2731969E-009  0.2908809E+03  0.7818608E-02  0.1089890E+00
         -1   -1    0    0    0  501 -0.00000000000E+00  0.00000000000E+00  0.10578824411E+04  0.10578824411E+04  0.50400000000E-02 0.  1.
          1   -1    0    0  501    0  0.00000000000E+00 -0.00000000000E+00 -0.97798893718E+03  0.97798893719E+03  0.50400000000E-02 0. -1.
    8880022    1    1    2    0    0  0.43232901002E+02  0.24362058101E+03  0.10153701674E+04  0.10562141360E+04  0.15294330000E+03 0.  0.
    8880022    1    1    2    0    0 -0.43232901002E+02 -0.24362058101E+03 -0.93547666354E+03  0.97965724224E+03  0.15294330000E+03 0.  0.
<mgrwt>
<rscale>  0 0.29088095E+03</rscale>
<asrwt>0</asrwt>
<pdfrwt beam="1">  1        1 0.15045984E+00 0.29088095E+03</pdfrwt>
<pdfrwt beam="2">  1       -1 0.16275114E+00 0.29088095E+03</pdfrwt>
<totfact> 0.51038212E+00</totfact>
</mgrwt>
</event>
<event>
 4    1  0.2731969E-009  0.2224159E+04  0.7818608E-02  0.8508440E-01
          1   -1    0    0  501    0  0.00000000000E+00  0.00000000000E+00  0.29247179656E+04  0.29247179656E+04  0.50400000000E-02 0. -1.
         -1   -1    0    0    0  501 -0.00000000000E+00 -0.00000000000E+00 -0.25338843081E+04  0.25338843081E+04  0.50400000000E-02 0.  1.
    8880022    1    1    2    0    0  0.16867031375E+04  0.14417082361E+04  0.17691741351E+04  0.28419815069E+04  0.15294330000E+03 0.  0.
    8880022    1    1    2    0    0 -0.16867031375E+04 -0.14417082361E+04 -0.13783404776E+04  0.26166207668E+04  0.15294330000E+03 0.  0.
<mgrwt>
<rscale>  0 0.22241587E+04</rscale>
<asrwt>0</asrwt>
<pdfrwt beam="1">  1        1 0.44995661E+00 0.22241587E+04</pdfrwt>
<pdfrwt beam="2">  1       -1 0.38982836E+00 0.22241587E+04</pdfrwt>
<totfact> 0.48874345E-03</totfact>
</mgrwt>
</event>
<event>
 4    1  0.2731969E-009  0.2045805E+03  0.7818608E-02  0.1145931E+00
          1   -1    0    0  501    0  0.00000000000E+00  0.00000000000E+00  0.38282189854E+03  0.38282189858E+03  0.50400000000E-02 0. -1.
         -1   -1    0    0    0  501 -0.00000000000E+00 -0.00000000000E+00 -0.33897359205E+03  0.33897359208E+03  0.50400000000E-02 0.  1.
    8880022    1    1    2    0    0  0.11421762698E+03  0.73592602672E+02 -0.27512628619E+03  0.34285224784E+03  0.15294330000E+03 0.  0.
    8880022    1    1    2    0    0 -0.11421762698E+03 -0.73592602672E+02  0.31897459269E+03  0.37894324282E+03  0.15294330000E+03 0.  0.
<mgrwt>
<rscale>  0 0.20458052E+03</rscale>
<asrwt>0</asrwt>
<pdfrwt beam="1">  1        1 0.58895677E-01 0.20458052E+03</pdfrwt>
<pdfrwt beam="2">  1       -1 0.52149783E-01 0.20458052E+03</pdfrwt>
<totfact> 0.24730153E+02</totfact>
</mgrwt>
</event>
<event>
 4    1  0.2731969E-009  0.3331459E+03  0.7818608E-02  0.1069753E+00
          1   -1    0    0  501    0  0.00000000000E+00  0.00000000000E+00  0.12599435657E+04  0.12599435657E+04  0.50400000000E-02 0. -1.
         -1   -1    0    0    0  501 -0.00000000000E+00 -0.00000000000E+00 -0.21854275863E+03  0.21854275868E+03  0.50400000000E-02 0.  1.
    8880022    1    1    2    0    0 -0.29552326363E+03 -0.16141914385E+02  0.10918484105E+04  0.11415424500E+04  0.15294330000E+03 0.  0.
    8880022    1    1    2    0    0  0.29552326363E+03  0.16141914385E+02 -0.50447603427E+02  0.33694387434E+03  0.15294330000E+03 0.  0.
<mgrwt>
<rscale>  0 0.33314593E+03</rscale>
<asrwt>0</asrwt>
<pdfrwt beam="1">  1        1 0.19383747E+00 0.33314593E+03</pdfrwt>
<pdfrwt beam="2">  1       -1 0.33621962E-01 0.33314593E+03</pdfrwt>
<totfact> 0.87099970E+01</totfact>
</mgrwt>
</event>
<event>
 4    1  0.2731969E-009  0.5785369E+03  0.7818608E-02  0.9950964E-01
         -1   -1    0    0    0  501 -0.00000000000E+00  0.00000000000E+00  0.22258707359E+04  0.22258707359E+04  0.50400000000E-02 0.  1.
          1   -1    0    0  501    0  0.00000000000E+00 -0.00000000000E+00 -0.51483815194E+03  0.51483815197E+03  0.50400000000E-02 0. -1.
    8880022    1    1    2    0    0 -0.43034658375E+03 -0.35512693420E+03 -0.29747793158E+03  0.65053677401E+03  0.15294330000E+03 0.  0.
    8880022    1    1    2    0    0  0.43034658375E+03  0.35512693420E+03  0.20085105156E+04  0.20901721139E+04  0.15294330000E+03 0.  0.
<mgrwt>
<rscale>  0 0.57853693E+03</rscale>
<asrwt>0</asrwt>
<pdfrwt beam="1">  1        1 0.79205869E-01 0.57853693E+03</pdfrwt>
<pdfrwt beam="2">  1       -1 0.34244165E+00 0.57853693E+03</pdfrwt>
<totfact> 0.81948302E-01</totfact>
</mgrwt>
</event>
<event>
 4    1  0.2731969E-009  0.5809484E+03  0.7818608E-02  0.9945740E-01
          1   -1    0    0  501    0  0.00000000000E+00  0.00000000000E+00  0.22654343355E+04  0.22654343355E+04  0.50400000000E-02 0. -1.
         -1   -1    0    0    0  501 -0.00000000000E+00 -0.00000000000E+00 -0.63196654271E+03  0.63196654273E+03  0.50400000000E-02 0.  1.
    8880022    1    1    2    0    0 -0.28579454723E+03  0.48211084378E+03  0.20832179662E+04  0.21627062067E+04  0.15294330000E+03 0.  0.
    8880022    1    1    2    0    0  0.28579454723E+03 -0.48211084378E+03 -0.44975017337E+03  0.73469467153E+03  0.15294330000E+03 0.  0.
<mgrwt>
<rscale>  0 0.58094840E+03</rscale>
<asrwt>0</asrwt>
<pdfrwt beam="1">  1        1 0.34852835E+00 0.58094840E+03</pdfrwt>
<pdfrwt beam="2">  1       -1 0.97225624E-01 0.58094840E+03</pdfrwt>
<totfact> 0.21985889E+00</totfact>
</mgrwt>
</event>
<event>
 4    1  0.2731969E-009  0.8702628E+03  0.7818608E-02  0.9463537E-01
         -1   -1    0    0    0  501 -0.00000000000E+00  0.00000000000E+00  0.22563815432E+04  0.22563815432E+04  0.50400000000E-02 0.  1.
          1   -1    0    0  501    0  0.00000000000E+00 -0.00000000000E+00 -0.48525502197E+03  0.48525502200E+03  0.50400000000E-02 0. -1.
    8880022    1    1    2    0    0  0.83110291065E+03  0.20792715631E+03  0.16467059222E+04  0.18625245763E+04  0.15294330000E+03 0.  0.
    8880022    1    1    2    0    0 -0.83110291065E+03 -0.20792715631E+03  0.12442059903E+03  0.87911198882E+03  0.15294330000E+03 0.  0.
<mgrwt>
<rscale>  0 0.87026284E+03</rscale>
<asrwt>0</asrwt>
<pdfrwt beam="1">  1        1 0.74654617E-01 0.87026284E+03</pdfrwt>
<pdfrwt beam="2">  1       -1 0.34713563E+00 0.87026284E+03</pdfrwt>
<totfact> 0.78046444E-01</totfact>
</mgrwt>
</event>
<event>
 4    1  0.2731969E-009  0.5216160E+03  0.7818608E-02  0.1008286E+00
         -1   -1    0    0    0  501 -0.00000000000E+00  0.00000000000E+00  0.30284266059E+03  0.30284266063E+03  0.50400000000E-02 0.  1.
          1   -1    0    0  501    0  0.00000000000E+00 -0.00000000000E+00 -0.10718528046E+04  0.10718528046E+04  0.50400000000E-02 0. -1.
    8880022    1    1    2    0    0  0.45627846293E+03  0.20125000764E+03 -0.66098314779E+03  0.84201067451E+03  0.15294330000E+03 0.  0.
    8880022    1    1    2    0    0 -0.45627846293E+03 -0.20125000764E+03 -0.10802699617E+03  0.53268479069E+03  0.15294330000E+03 0.  0.
<mgrwt>
<rscale>  0 0.52161600E+03</rscale>
<asrwt>0</asrwt>
<pdfrwt beam="1">  1        1 0.16490043E+00 0.52161600E+03</pdfrwt>
<pdfrwt beam="2">  1       -1 0.46591179E-01 0.52161600E+03</pdfrwt>
<totfact> 0.64137253E+01</totfact>
</mgrwt>
</event>
<event>
 4    1  0.2731969E-009  0.1064312E+04  0.7818608E-02  0.9240691E-01
          1   -1    0    0  501    0  0.00000000000E+00  0.00000000000E+00  0.40656113132E+04  0.40656113133E+04  0.50400000000E-02 0. -1.
         -1   -1    0    0    0  501 -0.00000000000E+00 -0.00000000000E+00 -0.57145454602E+03  0.57145454604E+03  0.50400000000E-02 0.  1.
    8880022    1    1    2    0    0  0.99380059624E+03  0.34889630864E+03  0.34067941025E+04  0.35691744100E+04  0.15294330000E+03 0.  0.
    8880022    1    1    2    0    0 -0.99380059624E+03 -0.34889630864E+03  0.87362664759E+02  0.10678914493E+04  0.15294330000E+03 0.  0.
<mgrwt>
<rscale>  0 0.10643119E+04</rscale>
<asrwt>0</asrwt>
<pdfrwt beam="1">  1        1 0.62547864E+00 0.10643119E+04</pdfrwt>
<pdfrwt beam="2">  1       -1 0.87916088E-01 0.10643119E+04</pdfrwt>
<totfact> 0.11130929E-01</totfact>
</mgrwt>
</event>
<event>
 4    1  0.2731969E-009  0.1227049E+04  0.7818608E-02  0.9089504E-01
         -1   -1    0    0    0  501 -0.00000000000E+00  0.00000000000E+00  0.11625315314E+04  0.11625315314E+04  0.50400000000E-02 0.  1.
          1   -1    0    0  501    0  0.00000000000E+00 -0.00000000000E+00 -0.17770927255E+04  0.17770927255E+04  0.50400000000E-02 0. -1.
    8880022    1    1    2    0    0  0.57012125292E+03  0.10757417689E+04 -0.10727105474E+04  0.16298337854E+04  0.15294330000E+03 0.  0.
    8880022    1    1    2    0    0 -0.57012125292E+03 -0.10757417689E+04  0.45814935335E+03  0.13097904715E+04  0.15294330000E+03 0.  0.
<mgrwt>
<rscale>  0 0.12270494E+04</rscale>
<asrwt>0</asrwt>
<pdfrwt beam="1">  1        1 0.27339888E+00 0.12270494E+04</pdfrwt>
<pdfrwt beam="2">  1       -1 0.17885100E+00 0.12270494E+04</pdfrwt>
<totfact> 0.87547049E-01</totfact>
</mgrwt>
</event>
<event>
 4    1  0.2731969E-009  0.3993030E+03  0.7818608E-02  0.1044021E+00
          1   -1    0    0  501    0  0.00000000000E+00  0.00000000000E+00  0.14512908348E+04  0.14512908348E+04  0.50400000000E-02 0. -1.
         -1   -1    0    0    0  501 -0.00000000000E+00 -0.00000000000E+00 -0.40121100631E+03  0.40121100634E+03  0.50400000000E-02 0.  1.
    8880022    1    1    2    0    0 -0.26634812651E+03 -0.25516635469E+03  0.13143514000E+04  0.13736675175E+04  0.15294330000E+03 0.  0.
    8880022    1    1    2    0    0  0.26634812651E+03  0.25516635469E+03 -0.26427157143E+03  0.47883432369E+03  0.15294330000E+03 0.  0.
<mgrwt>
<rscale>  0 0.39930295E+03</rscale>
<asrwt>0</asrwt>
<pdfrwt beam="1">  1        1 0.22327551E+00 0.39930295E+03</pdfrwt>
<pdfrwt beam="2">  1       -1 0.61724770E-01 0.39930295E+03</pdfrwt>
<totfact> 0.20740936E+01</totfact>
</mgrwt>
</event>
<event>
 4    1  0.2731969E-009  0.1063551E+04  0.7818608E-02  0.9241464E-01
          1   -1    0    0  501    0  0.00000000000E+00  0.00000000000E+00  0.12039779793E+04  0.12039779793E+04  0.50400000000E-02 0. -1.
         -1   -1    0    0    0  501 -0.00000000000E+00 -0.00000000000E+00 -0.12703718926E+04  0.12703718926E+04  0.50400000000E-02 0.  1.
    8880022    1    1    2    0    0  0.94674684313E+03 -0.45980355369E+03 -0.66458135996E+03  0.12541167928E+04  0.15294330000E+03 0.  0.
    8880022    1    1    2    0    0 -0.94674684313E+03  0.45980355369E+03  0.59818744672E+03  0.12202330791E+04  0.15294330000E+03 0.  0.
<mgrwt>
<rscale>  0 0.10635509E+04</rscale>
<asrwt>0</asrwt>
<pdfrwt beam="1">  1        1 0.18522738E+00 0.10635509E+04</pdfrwt>
<pdfrwt beam="2">  1       -1 0.19544183E+00 0.10635509E+04</pdfrwt>
<totfact> 0.17118750E+00</totfact>
</mgrwt>
</event>
<event>
 4    1  0.2731969E-009  0.9443978E+03  0.7818608E-02  0.9371723E-01
         -1   -1    0    0    0  501 -0.00000000000E+00  0.00000000000E+00  0.11636399892E+04  0.11636399892E+04  0.50400000000E-02 0.  1.
          1   -1    0    0  501    0  0.00000000000E+00 -0.00000000000E+00 -0.25684461261E+04  0.25684461261E+04  0.50400000000E-02 0. -1.
    8880022    1    1    2    0    0 -0.26919887948E+02  0.93154220129E+03  0.86060697441E+03  0.12777055884E+04  0.15294330000E+03 0.  0.
    8880022    1    1    2    0    0  0.26919887948E+02 -0.93154220129E+03 -0.22654131113E+04  0.24543805270E+04  0.15294330000E+03 0.  0.
<mgrwt>
<rscale>  0 0.94439780E+03</rscale>
<asrwt>0</asrwt>
<pdfrwt beam="1">  1        1 0.39514556E+00 0.94439780E+03</pdfrwt>
<pdfrwt beam="2">  1       -1 0.17902154E+00 0.94439780E+03</pdfrwt>
<totfact> 0.26483659E-01</totfact>
</mgrwt>
</event>
<event>
 4    1  0.2731969E-009  0.7995240E+03  0.7818608E-02  0.9560706E-01
         -1   -1    0    0    0  501 -0.00000000000E+00  0.00000000000E+00  0.15061374528E+04  0.15061374528E+04  0.50400000000E-02 0.  1.
          1   -1    0    0  501    0  0.00000000000E+00 -0.00000000000E+00 -0.69907027169E+03  0.69907027170E+03  0.50400000000E-02 0. -1.
    8880022    1    1    2    0    0  0.78075034995E+03  0.79220267595E+02  0.10946435280E+04  0.13555379250E+04  0.15294330000E+03 0.  0.
    8880022    1    1    2    0    0 -0.78075034995E+03 -0.79220267595E+02 -0.28757634695E+03  0.84966979944E+03  0.15294330000E+03 0.  0.
<mgrwt>
<rscale>  0 0.79952399E+03</rscale>
<asrwt>0</asrwt>
<pdfrwt beam="1">  1        1 0.10754927E+00 0.79952399E+03</pdfrwt>
<pdfrwt beam="2">  1       -1 0.23171345E+00 0.79952399E+03</pdfrwt>
<totfact> 0.25968272E+00</totfact>
</mgrwt>
</event>
<event>
 4    1  0.2731969E-009  0.6005135E+03  0.7818608E-02  0.9904341E-01
         -1   -1    0    0    0  501 -0.00000000000E+00  0.00000000000E+00  0.41467706914E+03  0.41467706917E+03  0.50400000000E-02 0.  1.
          1   -1    0    0  501    0  0.00000000000E+00 -0.00000000000E+00 -0.17004605165E+04  0.17004605165E+04  0.50400000000E-02 0. -1.
    8880022    1    1    2    0    0 -0.34583623362E+03  0.46649979404E+03 -0.13821242570E+04  0.15069452123E+04  0.15294330000E+03 0.  0.
    8880022    1    1    2    0    0  0.34583623362E+03 -0.46649979404E+03  0.96340809642E+02  0.60819237330E+03  0.15294330000E+03 0.  0.
<mgrwt>
<rscale>  0 0.60051346E+03</rscale>
<asrwt>0</asrwt>
<pdfrwt beam="1">  1        1 0.26160931E+00 0.60051346E+03</pdfrwt>
<pdfrwt beam="2">  1       -1 0.63796473E-01 0.60051346E+03</pdfrwt>
<totfact> 0.12652580E+01</totfact>
</mgrwt>
</event>
<event>
 4    1  0.2731969E-009  0.7008900E+03  0.7818608E-02  0.9715711E-01
          1   -1    0    0  501    0  0.00000000000E+00  0.00000000000E+00  0.13212897458E+04  0.13212897458E+04  0.50400000000E-02 0. -1.
         -1   -1    0    0    0  501 -0.00000000000E+00 -0.00000000000E+00 -0.57163552901E+03  0.57163552904E+03  0.50400000000E-02 0.  1.
    8880022    1    1    2    0    0 -0.19545643824E+03 -0.65547840487E+03  0.93443958391E+03  0.11680856764E+04  0.15294330000E+03 0.  0.
    8880022    1    1    2    0    0  0.19545643824E+03  0.65547840487E+03 -0.18478536713E+03  0.72483959841E+03  0.15294330000E+03 0.  0.
<mgrwt>
<rscale>  0 0.70089001E+03</rscale>
<asrwt>0</asrwt>
<pdfrwt beam="1">  1        1 0.20327534E+00 0.70089001E+03</pdfrwt>
<pdfrwt beam="2">  1       -1 0.87943929E-01 0.70089001E+03</pdfrwt>
<totfact> 0.11577710E+01</totfact>
</mgrwt>
</event>
<event>
 4    1  0.2731969E-009  0.7711913E+03  0.7818608E-02  0.9602679E-01
         -1   -1    0    0    0  501 -0.00000000000E+00  0.00000000000E+00  0.12211600500E+04  0.12211600500E+04  0.50400000000E-02 0.  1.
          1   -1    0    0  501    0  0.00000000000E+00 -0.00000000000E+00 -0.31393422134E+04  0.31393422134E+04  0.50400000000E-02 0. -1.
    8880022    1    1    2    0    0 -0.61679011854E+03 -0.43693734592E+03 -0.29631011115E+04  0.30618138651E+04  0.15294330000E+03 0.  0.
    8880022    1    1    2    0    0  0.61679011854E+03  0.43693734592E+03  0.10449189481E+04  0.12986883982E+04  0.15294330000E+03 0.  0.
<mgrwt>
<rscale>  0 0.77119125E+03</rscale>
<asrwt>0</asrwt>
<pdfrwt beam="1">  1        1 0.48297572E+00 0.77119125E+03</pdfrwt>
<pdfrwt beam="2">  1       -1 0.18787078E+00 0.77119125E+03</pdfrwt>
<totfact> 0.94096204E-02</totfact>
</mgrwt>
</event>
<event>
 4    1  0.2731969E-009  0.7258123E+03  0.7818608E-02  0.9674080E-01
         -1   -1    0    0    0  501 -0.00000000000E+00  0.00000000000E+00  0.60038152324E+03  0.60038152326E+03  0.50400000000E-02 0.  1.
          1   -1    0    0  501    0  0.00000000000E+00 -0.00000000000E+00 -0.15466080756E+04  0.15466080756E+04  0.50400000000E-02 0. -1.
    8880022    1    1    2    0    0 -0.18275056727E+03 -0.68557574102E+03 -0.11792273121E+04  0.13846951192E+04  0.15294330000E+03 0. -1.
    8880022    1    1    2    0    0  0.18275056727E+03  0.68557574102E+03  0.23300075982E+03  0.76229447959E+03  0.15294330000E+03 0.  0.
<mgrwt>
<rscale>  0 0.72581232E+03</rscale>
<asrwt>0</asrwt>
<pdfrwt beam="1">  1        1 0.23793970E+00 0.72581232E+03</pdfrwt>
<pdfrwt beam="2">  1       -1 0.92366389E-01 0.72581232E+03</pdfrwt>
<totfact> 0.72357360E+00</totfact>
</mgrwt>
</event>
<event>
 4    1  0.2731969E-009  0.4903428E+03  0.7818608E-02  0.1016331E+00
          1   -1    0    0  501    0  0.00000000000E+00  0.00000000000E+00  0.70831597644E+03  0.70831597646E+03  0.50400000000E-02 0. -1.
         -1   -1    0    0    0  501 -0.00000000000E+00 -0.00000000000E+00 -0.15161169906E+04  0.15161169906E+04  0.50400000000E-02 0.  1.
    8880022    1    1    2    0    0 -0.44886389224E+03 -0.12476217006E+03  0.57592835309E+03  0.75639243369E+03  0.15294330000E+03 0. -1.
    8880022    1    1    2    0    0  0.44886389224E+03  0.12476217006E+03 -0.13837293672E+04  0.14680405334E+04  0.15294330000E+03 0.  0.
<mgrwt>
<rscale>  0 0.49034278E+03</rscale>
<asrwt>0</asrwt>
<pdfrwt beam="1">  1        1 0.10897169E+00 0.49034278E+03</pdfrwt>
<pdfrwt beam="2">  1       -1 0.23324877E+00 0.49034278E+03</pdfrwt>
<totfact> 0.26460427E+00</totfact>
</mgrwt>
</event>
<event>
 4    1  0.2731969E-009  0.6977024E+03  0.7818608E-02  0.9721170E-01
          1   -1    0    0  501    0  0.00000000000E+00  0.00000000000E+00  0.95064173095E+03  0.95064173096E+03  0.50400000000E-02 0. -1.
         -1   -1    0    0    0  501 -0.00000000000E+00 -0.00000000000E+00 -0.92661181033E+03  0.92661181034E+03  0.50400000000E-02 0.  1.
    8880022    1    1    2    0    0  0.44970337473E+03  0.51104189414E+03 -0.61580017419E+03  0.93059037732E+03  0.15294330000E+03 0.  0.
    8880022    1    1    2    0    0 -0.44970337473E+03 -0.51104189414E+03  0.63983009481E+03  0.94666316399E+03  0.15294330000E+03 0.  0.
<mgrwt>
<rscale>  0 0.69770237E+03</rscale>
<asrwt>0</asrwt>
<pdfrwt beam="1">  1        1 0.14625257E+00 0.69770237E+03</pdfrwt>
<pdfrwt beam="2">  1       -1 0.14255566E+00 0.69770237E+03</pdfrwt>
<totfact> 0.68984187E+00</totfact>
</mgrwt>
</event>
<event>
 4    1  0.2731969E-009  0.1065200E+04  0.7818608E-02  0.9239790E-01
         -1   -1    0    0    0  501 -0.00000000000E+00  0.00000000000E+00  0.12837873988E+04  0.12837873988E+04  0.50400000000E-02 0.  1.
          1   -1    0    0  501    0  0.00000000000E+00 -0.00000000000E+00 -0.13650004270E+04  0.13650004270E+04  0.50400000000E-02 0. -1.
    8880022    1    1    2    0    0 -0.38906607363E+02  0.10534445020E+04 -0.82692762762E+03  0.13485028725E+04  0.15294330000E+03 0.  0.
    8880022    1    1    2    0    0  0.38906607363E+02 -0.10534445020E+04  0.74571459944E+03  0.13002849533E+04  0.15294330000E+03 0.  0.
<mgrwt>
<rscale>  0 0.10651998E+04</rscale>
<asrwt>0</asrwt>
<pdfrwt beam="1">  1        1 0.21000007E+00 0.10651998E+04</pdfrwt>
<pdfrwt beam="2">  1       -1 0.19750575E+00 0.10651998E+04</pdfrwt>
<totfact> 0.12694571E+00</totfact>
</mgrwt>
</event>
<event>
 4    1  0.2731969E-009  0.1309101E+04  0.7818608E-02  0.9022379E-01
         -1   -1    0    0    0  501 -0.00000000000E+00  0.00000000000E+00  0.25770040025E+04  0.25770040025E+04  0.50400000000E-02 0.  1.
          1   -1    0    0  501    0  0.00000000000E+00 -0.00000000000E+00 -0.14516089595E+04  0.14516089595E+04  0.50400000000E-02 0. -1.
    8880022    1    1    2    0    0 -0.63674000145E+03 -0.11335408717E+04  0.20454758839E+04  0.24285213571E+04  0.15294330000E+03 0.  0.
    8880022    1    1    2    0    0  0.63674000145E+03  0.11335408717E+04 -0.92008084093E+03  0.16000916049E+04  0.15294330000E+03 0.  0.
<mgrwt>
<rscale>  0 0.13091006E+04</rscale>
<asrwt>0</asrwt>
<pdfrwt beam="1">  1        1 0.22332446E+00 0.13091006E+04</pdfrwt>
<pdfrwt beam="2">  1       -1 0.39646215E+00 0.13091006E+04</pdfrwt>
<totfact> 0.52041605E-02</totfact>
</mgrwt>
</event>
<event>
 4    1  0.2731969E-009  0.1665100E+04  0.7818608E-02  0.8781523E-01
          1   -1    0    0  501    0  0.00000000000E+00  0.00000000000E+00  0.17451354583E+04  0.17451354583E+04  0.50400000000E-02 0. -1.
         -1   -1    0    0    0  501 -0.00000000000E+00 -0.00000000000E+00 -0.18488858218E+04  0.18488858218E+04  0.50400000000E-02 0.  1.
    8880022    1    1    2    0    0 -0.27312183353E+03  0.16354116903E+04  0.62219919568E+03  0.17775518066E+04  0.15294330000E+03 0.  0.
    8880022    1    1    2    0    0  0.27312183353E+03 -0.16354116903E+04 -0.72594955919E+03  0.18164694736E+04  0.15294330000E+03 0.  0.
<mgrwt>
<rscale>  0 0.16651002E+04</rscale>
<asrwt>0</asrwt>
<pdfrwt beam="1">  1        1 0.26848238E+00 0.16651002E+04</pdfrwt>
<pdfrwt beam="2">  1       -1 0.28444397E+00 0.16651002E+04</pdfrwt>
<totfact> 0.17133105E-01</totfact>
</mgrwt>
</event>
<event>
 4    1  0.2731969E-009  0.4430156E+03  0.7818608E-02  0.1029826E+00
          1   -1    0    0  501    0  0.00000000000E+00  0.00000000000E+00  0.12564114359E+04  0.12564114360E+04  0.50400000000E-02 0. -1.
         -1   -1    0    0    0  501 -0.00000000000E+00 -0.00000000000E+00 -0.27064792009E+03  0.27064792014E+03  0.50400000000E-02 0.  1.
    8880022    1    1    2    0    0  0.99440696751E+02 -0.40371114387E+03 -0.36081471259E+01  0.44303026037E+03  0.15294330000E+03 0.  0.
    8880022    1    1    2    0    0 -0.99440696751E+02  0.40371114387E+03  0.98937166298E+03  0.10840290957E+04  0.15294330000E+03 0. -1.
<mgrwt>
<rscale>  0 0.44301557E+03</rscale>
<asrwt>0</asrwt>
<pdfrwt beam="1">  1        1 0.19329407E+00 0.44301557E+03</pdfrwt>
<pdfrwt beam="2">  1       -1 0.41638141E-01 0.44301557E+03</pdfrwt>
<totfact> 0.58686296E+01</totfact>
</mgrwt>
</event>
<event>
 4    1  0.2731969E-009  0.8986742E+03  0.7818608E-02  0.9427240E-01
          1   -1    0    0  501    0  0.00000000000E+00  0.00000000000E+00  0.10338291170E+04  0.10338291170E+04  0.50400000000E-02 0. -1.
         -1   -1    0    0    0  501 -0.00000000000E+00 -0.00000000000E+00 -0.82450075061E+03  0.82450075062E+03  0.50400000000E-02 0.  1.
    8880022    1    1    2    0    0 -0.67754590630E+03 -0.57022385821E+03  0.31762659332E+03  0.95315371762E+03  0.15294330000E+03 0.  0.
    8880022    1    1    2    0    0  0.67754590630E+03  0.57022385821E+03 -0.10829822691E+03  0.90517615003E+03  0.15294330000E+03 0.  0.
<mgrwt>
<rscale>  0 0.89867422E+03</rscale>
<asrwt>0</asrwt>
<pdfrwt beam="1">  1        1 0.15905063E+00 0.89867422E+03</pdfrwt>
<pdfrwt beam="2">  1       -1 0.12684627E+00 0.89867422E+03</pdfrwt>
<totfact> 0.77918016E+00</totfact>
</mgrwt>
</event>
<event>
 4    1  0.2731969E-009  0.7560140E+03  0.7818608E-02  0.9625962E-01
          1   -1    0    0  501    0  0.00000000000E+00  0.00000000000E+00  0.22467038162E+04  0.22467038162E+04  0.50400000000E-02 0. -1.
         -1   -1    0    0    0  501 -0.00000000000E+00 -0.00000000000E+00 -0.28515021482E+03  0.28515021486E+03  0.50400000000E-02 0.  1.
    8880022    1    1    2    0    0  0.63169003717E+03 -0.38617778080E+03  0.13965046761E+04  0.15880121362E+04  0.15294330000E+03 0.  0.
    8880022    1    1    2    0    0 -0.63169003717E+03  0.38617778080E+03  0.56504892526E+03  0.94384189481E+03  0.15294330000E+03 0.  0.
<mgrwt>
<rscale>  0 0.75601404E+03</rscale>
<asrwt>0</asrwt>
<pdfrwt beam="1">  1        1 0.34564675E+00 0.75601404E+03</pdfrwt>
<pdfrwt beam="2">  1       -1 0.43869263E-01 0.75601404E+03</pdfrwt>
<totfact> 0.10894938E+01</totfact>
</mgrwt>
</event>
<event>
 4    1  0.2731969E-009  0.1429003E+04  0.7818608E-02  0.8933088E-01
          1   -1    0    0  501    0  0.00000000000E+00  0.00000000000E+00  0.24027050095E+04  0.24027050095E+04  0.50400000000E-02 0. -1.
         -1   -1    0    0    0  501 -0.00000000000E+00 -0.00000000000E+00 -0.16227476794E+04  0.16227476794E+04  0.50400000000E-02 0.  1.
    8880022    1    1    2    0    0 -0.49523301061E+02 -0.14199314670E+04  0.17789947862E+04  0.22818571451E+04  0.15294330000E+03 0.  0.
    8880022    1    1    2    0    0  0.49523301061E+02  0.14199314670E+04 -0.99903745609E+03  0.17435955437E+04  0.15294330000E+03 0.  0.
<mgrwt>
<rscale>  0 0.14290030E+04</rscale>
<asrwt>0</asrwt>
<pdfrwt beam="1">  1        1 0.36964693E+00 0.14290030E+04</pdfrwt>
<pdfrwt beam="2">  1       -1 0.24965349E+00 0.14290030E+04</pdfrwt>
<totfact> 0.10559167E-01</totfact>
</mgrwt>
</event>
<event>
 4    1  0.2731969E-009  0.1119013E+04  0.7818608E-02  0.9186856E-01
          1   -1    0    0  501    0  0.00000000000E+00  0.00000000000E+00  0.18396442725E+04  0.18396442725E+04  0.50400000000E-02 0. -1.
         -1   -1    0    0    0  501 -0.00000000000E+00 -0.00000000000E+00 -0.10941676402E+04  0.10941676402E+04  0.50400000000E-02 0.  1.
    8880022    1    1    2    0    0 -0.81124668840E+03  0.75543237486E+03  0.12745103976E+04  0.16960447132E+04  0.15294330000E+03 0.  0.
    8880022    1    1    2    0    0  0.81124668840E+03 -0.75543237486E+03 -0.52903376535E+03  0.12377671996E+04  0.15294330000E+03 0.  0.
<mgrwt>
<rscale>  0 0.11190134E+04</rscale>
<asrwt>0</asrwt>
<pdfrwt beam="1">  1        1 0.28302219E+00 0.11190134E+04</pdfrwt>
<pdfrwt beam="2">  1       -1 0.16833348E+00 0.11190134E+04</pdfrwt>
<totfact> 0.96142688E-01</totfact>
</mgrwt>
</event>
<event>
 4    1  0.2731969E-009  0.1060336E+04  0.7818608E-02  0.9244738E-01
          1   -1    0    0  501    0  0.00000000000E+00  0.00000000000E+00  0.16920055941E+04  0.16920055941E+04  0.50400000000E-02 0. -1.
         -1   -1    0    0    0  501 -0.00000000000E+00 -0.00000000000E+00 -0.11896813969E+04  0.11896813969E+04  0.50400000000E-02 0.  1.
    8880022    1    1    2    0    0 -0.31466649720E+03  0.10009520115E+04 -0.70616979421E+03  0.12739652134E+04  0.15294330000E+03 0.  0.
    8880022    1    1    2    0    0  0.31466649720E+03 -0.10009520115E+04  0.12084939915E+04  0.16077217776E+04  0.15294330000E+03 0. -1.
<mgrwt>
<rscale>  0 0.10603356E+04</rscale>
<asrwt>0</asrwt>
<pdfrwt beam="1">  1        1 0.26030855E+00 0.10603356E+04</pdfrwt>
<pdfrwt beam="2">  1       -1 0.18302791E+00 0.10603356E+04</pdfrwt>
<totfact> 0.95464593E-01</totfact>
</mgrwt>
</event>
<event>
 4    1  0.2731969E-009  0.1206651E+04  0.7818608E-02  0.9107055E-01
         -1   -1    0    0    0  501 -0.00000000000E+00  0.00000000000E+00  0.13586330578E+04  0.13586330578E+04  0.50400000000E-02 0.  1.
          1   -1    0    0  501    0  0.00000000000E+00 -0.00000000000E+00 -0.17802262495E+04  0.17802262495E+04  0.50400000000E-02 0. -1.
    8880022    1    1    2    0    0 -0.24957128010E+03 -0.11706106920E+04  0.77933128418E+03  0.14364414780E+04  0.15294330000E+03 0.  0.
    8880022    1    1    2    0    0  0.24957128010E+03  0.11706106920E+04 -0.12009244758E+04  0.17024178294E+04  0.15294330000E+03 0.  1.
<mgrwt>
<rscale>  0 0.12066511E+04</rscale>
<asrwt>0</asrwt>
<pdfrwt beam="1">  1        1 0.27388096E+00 0.12066511E+04</pdfrwt>
<pdfrwt beam="2">  1       -1 0.20902047E+00 0.12066511E+04</pdfrwt>
<totfact> 0.53745354E-01</totfact>
</mgrwt>
</event>
<event>
 4    1  0.2731969E-009  0.1947389E+04  0.7818608E-02  0.8631621E-01
         -1   -1    0    0    0  501 -0.00000000000E+00  0.00000000000E+00  0.21538327287E+04  0.21538327287E+04  0.50400000000E-02 0.  1.
          1   -1    0    0  501    0  0.00000000000E+00 -0.00000000000E+00 -0.23296983312E+04  0.23296983312E+04  0.50400000000E-02 0. -1.
    8880022    1    1    2    0    0 -0.16513483093E+04 -0.10207753635E+04  0.10199226277E+04  0.21983101239E+04  0.15294330000E+03 0.  0.
    8880022    1    1    2    0    0  0.16513483093E+04  0.10207753635E+04 -0.11957882303E+04  0.22852209359E+04  0.15294330000E+03 0.  0.
<mgrwt>
<rscale>  0 0.19473893E+04</rscale>
<asrwt>0</asrwt>
<pdfrwt beam="1">  1        1 0.35841513E+00 0.19473893E+04</pdfrwt>
<pdfrwt beam="2">  1       -1 0.33135888E+00 0.19473893E+04</pdfrwt>
<totfact> 0.32688227E-02</totfact>
</mgrwt>
</event>
<event>
 4    1  0.2731969E-009  0.4930560E+03  0.7818608E-02  0.1015607E+00
          1   -1    0    0  501    0  0.00000000000E+00  0.00000000000E+00  0.63829897521E+03  0.63829897523E+03  0.50400000000E-02 0. -1.
         -1   -1    0    0    0  501 -0.00000000000E+00 -0.00000000000E+00 -0.10428735967E+04  0.10428735967E+04  0.50400000000E-02 0.  1.
    8880022    1    1    2    0    0 -0.63048179819E+02 -0.46447553661E+03  0.46744159550E+03  0.67941584858E+03  0.15294330000E+03 0.  0.
    8880022    1    1    2    0    0  0.63048179819E+02  0.46447553661E+03 -0.87201621695E+03  0.10017567233E+04  0.15294330000E+03 0.  0.
<mgrwt>
<rscale>  0 0.49305603E+03</rscale>
<asrwt>0</asrwt>
<pdfrwt beam="1">  1        1 0.98199842E-01 0.49305603E+03</pdfrwt>
<pdfrwt beam="2">  1       -1 0.16044209E+00 0.49305603E+03</pdfrwt>
<totfact> 0.97490405E+00</totfact>
</mgrwt>
</event>
<event>
 4    1  0.2731969E-009  0.6712608E+03  0.7818608E-02  0.9767683E-01
          1   -1    0    0  501    0  0.00000000000E+00  0.00000000000E+00  0.24786942027E+04  0.24786942027E+04  0.50400000000E-02 0. -1.
         -1   -1    0    0    0  501 -0.00000000000E+00 -0.00000000000E+00 -0.59294039845E+03  0.59294039847E+03  0.50400000000E-02 0.  1.
    8880022    1    1    2    0    0  0.64603416580E+03 -0.99193012385E+02 -0.33602339240E+03  0.75066821589E+03  0.15294330000E+03 0.  0.
    8880022    1    1    2    0    0 -0.64603416580E+03  0.99193012385E+02  0.22217771966E+04  0.23209663853E+04  0.15294330000E+03 0.  0.
<mgrwt>
<rscale>  0 0.67126079E+03</rscale>
<asrwt>0</asrwt>
<pdfrwt beam="1">  1        1 0.38133757E+00 0.67126079E+03</pdfrwt>
<pdfrwt beam="2">  1       -1 0.91221601E-01 0.67126079E+03</pdfrwt>
<totfact> 0.17794934E+00</totfact>
</mgrwt>
</event>
<event>
 4    1  0.2731969E-009  0.6754967E+03  0.7818608E-02  0.9760079E-01
          1   -1    0    0  501    0  0.00000000000E+00  0.00000000000E+00  0.28116216360E+04  0.28116216360E+04  0.50400000000E-02 0. -1.
         -1   -1    0    0    0  501 -0.00000000000E+00 -0.00000000000E+00 -0.35566689612E+03  0.35566689615E+03  0.50400000000E-02 0.  1.
    8880022    1    1    2    0    0 -0.38711309770E+03  0.53202220905E+03  0.60256350377E+02  0.67817893075E+03  0.15294330000E+03 0.  0.
    8880022    1    1    2    0    0  0.38711309770E+03 -0.53202220905E+03  0.23956983895E+04  0.24891096014E+04  0.15294330000E+03 0.  0.
<mgrwt>
<rscale>  0 0.67549673E+03</rscale>
<asrwt>0</asrwt>
<pdfrwt beam="1">  1        1 0.43255717E+00 0.67549673E+03</pdfrwt>
<pdfrwt beam="2">  1       -1 0.54717985E-01 0.67549673E+03</pdfrwt>
<totfact> 0.29933244E+00</totfact>
</mgrwt>
</event>
<event>
 4    1  0.2731969E-009  0.4856942E+03  0.7818608E-02  0.1017582E+00
          1   -1    0    0  501    0  0.00000000000E+00  0.00000000000E+00  0.26512935667E+04  0.26512935668E+04  0.50400000000E-02 0. -1.
         -1   -1    0    0    0  501 -0.00000000000E+00 -0.00000000000E+00 -0.11851797373E+03  0.11851797383E+03  0.50400000000E-02 0.  1.
    8880022    1    1    2    0    0  0.20935063637E+03 -0.41070615579E+03  0.57494684066E+03  0.75263720207E+03  0.15294330000E+03 0.  0.
    8880022    1    1    2    0    0 -0.20935063637E+03  0.41070615579E+03  0.19578287524E+04  0.20171743385E+04  0.15294330000E+03 0.  0.
<mgrwt>
<rscale>  0 0.48569423E+03</rscale>
<asrwt>0</asrwt>
<pdfrwt beam="1">  1        1 0.40789130E+00 0.48569423E+03</pdfrwt>
<pdfrwt beam="2">  1       -1 0.18233535E-01 0.48569423E+03</pdfrwt>
<totfact> 0.27833152E+01</totfact>
</mgrwt>
</event>
<event>
 4    1  0.2731969E-009  0.3552848E+03  0.7818608E-02  0.1060467E+00
         -1   -1    0    0    0  501 -0.00000000000E+00  0.00000000000E+00  0.32150173555E+03  0.32150173559E+03  0.50400000000E-02 0.  1.
          1   -1    0    0  501    0  0.00000000000E+00 -0.00000000000E+00 -0.58511476103E+03  0.58511476105E+03  0.50400000000E-02 0. -1.
    8880022    1    1    2    0    0 -0.18961209739E+03  0.25861720875E+03  0.12820057317E+03  0.37770709302E+03  0.15294330000E+03 0.  1.
    8880022    1    1    2    0    0  0.18961209739E+03 -0.25861720875E+03 -0.39181359865E+03  0.52890940362E+03  0.15294330000E+03 0.  0.
<mgrwt>
<rscale>  0 0.35528476E+03</rscale>
<asrwt>0</asrwt>
<pdfrwt beam="1">  1        1 0.90017656E-01 0.35528476E+03</pdfrwt>
<pdfrwt beam="2">  1       -1 0.49461805E-01 0.35528476E+03</pdfrwt>
<totfact> 0.15267547E+02</totfact>
</mgrwt>
</event>
<event>
 4    1  0.2731969E-009  0.9395152E+03  0.7818608E-02  0.9377490E-01
          1   -1    0    0  501    0  0.00000000000E+00  0.00000000000E+00  0.30224682520E+04  0.30224682520E+04  0.50400000000E-02 0. -1.
         -1   -1    0    0    0  501 -0.00000000000E+00 -0.00000000000E+00 -0.52045508158E+03  0.52045508160E+03  0.50400000000E-02 0.  1.
    8880022    1    1    2    0    0 -0.29573167509E+02 -0.92651096279E+03  0.24245529913E+04  0.26002203747E+04  0.15294330000E+03 0.  0.
    8880022    1    1    2    0    0  0.29573167509E+02  0.92651096279E+03  0.77460179149E+02  0.94270295893E+03  0.15294330000E+03 0.  0.
<mgrwt>
<rscale>  0 0.93951519E+03</rscale>
<asrwt>0</asrwt>
<pdfrwt beam="1">  1        1 0.46499512E+00 0.93951519E+03</pdfrwt>
<pdfrwt beam="2">  1       -1 0.80070012E-01 0.93951519E+03</pdfrwt>
<totfact> 0.93145270E-01</totfact>
</mgrwt>
</event>
<event>
 4    1  0.2731969E-009  0.1281474E+04  0.7818608E-02  0.9044387E-01
          1   -1    0    0  501    0  0.00000000000E+00  0.00000000000E+00  0.18811419148E+04  0.18811419148E+04  0.50400000000E-02 0. -1.
         -1   -1    0    0    0  501 -0.00000000000E+00 -0.00000000000E+00 -0.24014935339E+04  0.24014935339E+04  0.50400000000E-02 0.  1.
    8880022    1    1    2    0    0  0.35221277737E+03 -0.12225913829E+04 -0.19685258574E+04  0.23488868075E+04  0.15294330000E+03 0.  1.
    8880022    1    1    2    0    0 -0.35221277737E+03  0.12225913829E+04  0.14481742384E+04  0.19337486413E+04  0.15294330000E+03 0.  0.
<mgrwt>
<rscale>  0 0.12814738E+04</rscale>
<asrwt>0</asrwt>
<pdfrwt beam="1">  1        1 0.28940645E+00 0.12814738E+04</pdfrwt>
<pdfrwt beam="2">  1       -1 0.36946054E+00 0.12814738E+04</pdfrwt>
<totfact> 0.40376635E-02</totfact>
</mgrwt>
</event>
<event>
 4    1  0.2731969E-009  0.7982964E+03  0.7818608E-02  0.9562486E-01
          1   -1    0    0  501    0  0.00000000000E+00  0.00000000000E+00  0.18524964567E+04  0.18524964567E+04  0.50400000000E-02 0. -1.
         -1   -1    0    0    0  501 -0.00000000000E+00 -0.00000000000E+00 -0.17715534878E+04  0.17715534878E+04  0.50400000000E-02 0.  1.
    8880022    1    1    2    0    0  0.56239462769E+02 -0.78148740861E+03 -0.15861321353E+04  0.17756948642E+04  0.15294330000E+03 0.  0.
    8880022    1    1    2    0    0 -0.56239462769E+02  0.78148740861E+03  0.16670751042E+04  0.18483550804E+04  0.15294330000E+03 0.  0.
<mgrwt>
<rscale>  0 0.79829637E+03</rscale>
<asrwt>0</asrwt>
<pdfrwt beam="1">  1        1 0.28499945E+00 0.79829637E+03</pdfrwt>
<pdfrwt beam="2">  1       -1 0.27254669E+00 0.79829637E+03</pdfrwt>
<totfact> 0.19822488E-01</totfact>
</mgrwt>
</event>
<event>
 4    1  0.2731969E-009  0.1442548E+04  0.7818608E-02  0.8923583E-01
          1   -1    0    0  501    0  0.00000000000E+00  0.00000000000E+00  0.15465535264E+04  0.15465535264E+04  0.50400000000E-02 0. -1.
         -1   -1    0    0    0  501 -0.00000000000E+00 -0.00000000000E+00 -0.13930848025E+04  0.13930848025E+04  0.50400000000E-02 0.  1.
    8880022    1    1    2    0    0  0.26422108341E+03  0.14098721383E+04  0.34828050411E+03  0.14839956839E+04  0.15294330000E+03 0.  0.
    8880022    1    1    2    0    0 -0.26422108341E+03 -0.14098721383E+04 -0.19481178026E+03  0.14556426450E+04  0.15294330000E+03 0.  0.
<mgrwt>
<rscale>  0 0.14425477E+04</rscale>
<asrwt>0</asrwt>
<pdfrwt beam="1">  1        1 0.23793131E+00 0.14425477E+04</pdfrwt>
<pdfrwt beam="2">  1       -1 0.21432074E+00 0.14425477E+04</pdfrwt>
<totfact> 0.69518995E-01</totfact>
</mgrwt>
</event>
<event>
 4    1  0.2731969E-009  0.1217065E+04  0.7818608E-02  0.9098049E-01
         -1   -1    0    0    0  501 -0.00000000000E+00  0.00000000000E+00  0.11396274273E+04  0.11396274273E+04  0.50400000000E-02 0.  1.
          1   -1    0    0  501    0  0.00000000000E+00 -0.00000000000E+00 -0.14681390730E+04  0.14681390730E+04  0.50400000000E-02 0. -1.
    8880022    1    1    2    0    0  0.54421095832E+03 -0.10778170516E+04 -0.60582004564E+03  0.13595090087E+04  0.15294330000E+03 0.  0.
    8880022    1    1    2    0    0 -0.54421095832E+03  0.10778170516E+04  0.27730839989E+03  0.12482574917E+04  0.15294330000E+03 0.  0.
<mgrwt>
<rscale>  0 0.12170648E+04</rscale>
<asrwt>0</asrwt>
<pdfrwt beam="1">  1        1 0.22586755E+00 0.12170648E+04</pdfrwt>
<pdfrwt beam="2">  1       -1 0.17532730E+00 0.12170648E+04</pdfrwt>
<totfact> 0.15147548E+00</totfact>
</mgrwt>
</event>
<event>
 4    1  0.2731969E-009  0.7037454E+03  0.7818608E-02  0.9710848E-01
          1   -1    0    0  501    0  0.00000000000E+00  0.00000000000E+00  0.15150968892E+04  0.15150968892E+04  0.50400000000E-02 0. -1.
         -1   -1    0    0    0  501 -0.00000000000E+00 -0.00000000000E+00 -0.33197763513E+03  0.33197763517E+03  0.50400000000E-02 0.  1.
    8880022    1    1    2    0    0  0.44127799125E+03  0.52644058058E+03  0.70598110417E+03  0.99682843203E+03  0.15294330000E+03 0.  0.
    8880022    1    1    2    0    0 -0.44127799125E+03 -0.52644058058E+03  0.47713814990E+03  0.85024609234E+03  0.15294330000E+03 0.  0.
<mgrwt>
<rscale>  0 0.70374541E+03</rscale>
<asrwt>0</asrwt>
<pdfrwt beam="1">  1        1 0.23309183E+00 0.70374541E+03</pdfrwt>
<pdfrwt beam="2">  1       -1 0.51073482E-01 0.70374541E+03</pdfrwt>
<totfact> 0.25583364E+01</totfact>
</mgrwt>
</event>
<event>
 4    1  0.2731969E-009  0.1050676E+04  0.7818608E-02  0.9254646E-01
         -1   -1    0    0    0  501 -0.00000000000E+00  0.00000000000E+00  0.82922930020E+03  0.82922930021E+03  0.50400000000E-02 0.  1.
          1   -1    0    0  501    0  0.00000000000E+00 -0.00000000000E+00 -0.29542954660E+04  0.29542954660E+04  0.50400000000E-02 0. -1.
    8880022    1    1    2    0    0 -0.63088001997E+03  0.82614730780E+03 -0.24647121935E+04  0.26793146183E+04  0.15294330000E+03 0.  0.
    8880022    1    1    2    0    0  0.63088001997E+03 -0.82614730780E+03  0.33964602768E+03  0.11042101480E+04  0.15294330000E+03 0.  0.
<mgrwt>
<rscale>  0 0.10506763E+04</rscale>
<asrwt>0</asrwt>
<pdfrwt beam="1">  1        1 0.45450699E+00 0.10506763E+04</pdfrwt>
<pdfrwt beam="2">  1       -1 0.12757374E+00 0.10506763E+04</pdfrwt>
<totfact> 0.34921484E-01</totfact>
</mgrwt>
</event>
<event>
 4    1  0.2731969E-009  0.9526059E+03  0.7818608E-02  0.9362110E-01
         -1   -1    0    0    0  501 -0.00000000000E+00  0.00000000000E+00  0.23798193769E+04  0.23798193769E+04  0.50400000000E-02 0.  1.
          1   -1    0    0  501    0  0.00000000000E+00 -0.00000000000E+00 -0.39819657801E+03  0.39819657804E+03  0.50400000000E-02 0. -1.
    8880022    1    1    2    0    0 -0.93992254482E+03 -0.24738404848E+02  0.12768190156E+04  0.15930238010E+04  0.15294330000E+03 0.  0.
    8880022    1    1    2    0    0  0.93992254482E+03  0.24738404848E+02  0.70480378325E+03  0.11849921539E+04  0.15294330000E+03 0.  0.
<mgrwt>
<rscale>  0 0.95260592E+03</rscale>
<asrwt>0</asrwt>
<pdfrwt beam="1">  1        1 0.61261010E-01 0.95260592E+03</pdfrwt>
<pdfrwt beam="2">  1       -1 0.36612607E+00 0.95260592E+03</pdfrwt>
<totfact> 0.75423740E-01</totfact>
</mgrwt>
</event>
<event>
 4    1  0.2731969E-009  0.1396831E+04  0.7818608E-02  0.8956115E-01
         -1   -1    0    0    0  501 -0.00000000000E+00  0.00000000000E+00  0.69947372002E+03  0.69947372004E+03  0.50400000000E-02 0.  1.
          1   -1    0    0  501    0  0.00000000000E+00 -0.00000000000E+00 -0.36249202507E+04  0.36249202507E+04  0.50400000000E-02 0. -1.
    8880022    1    1    2    0    0 -0.82573305890E+03  0.11162039755E+04 -0.25007650539E+04  0.28644308174E+04  0.15294330000E+03 0.  0.
    8880022    1    1    2    0    0  0.82573305890E+03 -0.11162039755E+04 -0.42468147676E+03  0.14599631534E+04  0.15294330000E+03 0.  0.
<mgrwt>
<rscale>  0 0.13968314E+04</rscale>
<asrwt>0</asrwt>
<pdfrwt beam="1">  1        1 0.55768003E+00 0.13968314E+04</pdfrwt>
<pdfrwt beam="2">  1       -1 0.10761134E+00 0.13968314E+04</pdfrwt>
<totfact> 0.15592344E-01</totfact>
</mgrwt>
</event>
<event>
 4    1  0.2731969E-009  0.6378689E+03  0.7818608E-02  0.9829812E-01
          1   -1    0    0  501    0  0.00000000000E+00  0.00000000000E+00  0.20314009513E+04  0.20314009513E+04  0.50400000000E-02 0. -1.
         -1   -1    0    0    0  501 -0.00000000000E+00 -0.00000000000E+00 -0.33846534593E+03  0.33846534597E+03  0.50400000000E-02 0.  1.
    8880022    1    1    2    0    0  0.27655964433E+03 -0.55407571439E+03  0.89380034584E+02  0.64410059598E+03  0.15294330000E+03 0.  0.
    8880022    1    1    2    0    0 -0.27655964433E+03  0.55407571439E+03  0.16035555708E+04  0.17257657013E+04  0.15294330000E+03 0.  0.
<mgrwt>
<rscale>  0 0.63786894E+03</rscale>
<asrwt>0</asrwt>
<pdfrwt beam="1">  1        1 0.31252322E+00 0.63786894E+03</pdfrwt>
<pdfrwt beam="2">  1       -1 0.52071592E-01 0.63786894E+03</pdfrwt>
<totfact> 0.11229658E+01</totfact>
</mgrwt>
</event>
<event>
 4    1  0.2731969E-009  0.2397892E+03  0.7818608E-02  0.1119933E+00
          1   -1    0    0  501    0  0.00000000000E+00  0.00000000000E+00  0.10810027346E+04  0.10810027346E+04  0.50400000000E-02 0. -1.
         -1   -1    0    0    0  501 -0.00000000000E+00 -0.00000000000E+00 -0.37680188559E+03  0.37680188562E+03  0.50400000000E-02 0.  1.
    8880022    1    1    2    0    0 -0.10559806693E+03  0.15151327234E+03 -0.32339873542E+03  0.40259858236E+03  0.15294330000E+03 0.  0.
    8880022    1    1    2    0    0  0.10559806693E+03 -0.15151327234E+03  0.10275995844E+04  0.10552060379E+04  0.15294330000E+03 0.  0.
<mgrwt>
<rscale>  0 0.23978923E+03</rscale>
<asrwt>0</asrwt>
<pdfrwt beam="1">  1        1 0.16630811E+00 0.23978923E+03</pdfrwt>
<pdfrwt beam="2">  1       -1 0.57969521E-01 0.23978923E+03</pdfrwt>
<totfact> 0.44407193E+01</totfact>
</mgrwt>
</event>
<event>
 4    1  0.2731969E-009  0.1053422E+04  0.7818608E-02  0.9251819E-01
          1   -1    0    0  501    0  0.00000000000E+00  0.00000000000E+00  0.13450227944E+04  0.13450227944E+04  0.50400000000E-02 0. -1.
         -1   -1    0    0    0  501 -0.00000000000E+00 -0.00000000000E+00 -0.11805115544E+04  0.11805115544E+04  0.50400000000E-02 0.  1.
    8880022    1    1    2    0    0 -0.58365644113E+03 -0.86351055738E+03  0.77518803084E+03  0.13079042244E+04  0.15294330000E+03 0. -1.
    8880022    1    1    2    0    0  0.58365644113E+03  0.86351055738E+03 -0.61067679087E+03  0.12176301244E+04  0.15294330000E+03 0.  0.
<mgrwt>
<rscale>  0 0.10534216E+04</rscale>
<asrwt>0</asrwt>
<pdfrwt beam="1">  1        1 0.20692658E+00 0.10534216E+04</pdfrwt>
<pdfrwt beam="2">  1       -1 0.18161716E+00 0.10534216E+04</pdfrwt>
<totfact> 0.16986135E+00</totfact>
</mgrwt>
</event>
<event>
 4    1  0.2731969E-009  0.1610344E+04  0.7818608E-02  0.8814218E-01
          1   -1    0    0  501    0  0.00000000000E+00  0.00000000000E+00  0.19542198681E+04  0.19542198681E+04  0.50400000000E-02 0. -1.
         -1   -1    0    0    0  501 -0.00000000000E+00 -0.00000000000E+00 -0.17980804346E+04  0.17980804347E+04  0.50400000000E-02 0.  1.
    8880022    1    1    2    0    0  0.11820834657E+04  0.10828186190E+04  0.10383989562E+04  0.19161110424E+04  0.15294330000E+03 0.  0.
    8880022    1    1    2    0    0 -0.11820834657E+04 -0.10828186190E+04 -0.88225952273E+03  0.18361892604E+04  0.15294330000E+03 0.  0.
<mgrwt>
<rscale>  0 0.16103444E+04</rscale>
<asrwt>0</asrwt>
<pdfrwt beam="1">  1        1 0.30064921E+00 0.16103444E+04</pdfrwt>
<pdfrwt beam="2">  1       -1 0.27662776E+00 0.16103444E+04</pdfrwt>
<totfact> 0.13946500E-01</totfact>
</mgrwt>
</event>
<event>
 4    1  0.2731969E-009  0.5203015E+03  0.7818608E-02  0.1008612E+00
         -1   -1    0    0    0  501 -0.00000000000E+00  0.00000000000E+00  0.55499447921E+03  0.55499447923E+03  0.50400000000E-02 0.  1.
          1   -1    0    0  501    0  0.00000000000E+00 -0.00000000000E+00 -0.10422407645E+04  0.10422407645E+04  0.50400000000E-02 0. -1.
    8880022    1    1    2    0    0 -0.25031662965E+03  0.42972504742E+03  0.33887070854E+03  0.62092434450E+03  0.15294330000E+03 0.  0.
    8880022    1    1    2    0    0  0.25031662965E+03 -0.42972504742E+03 -0.82611699379E+03  0.97631089920E+03  0.15294330000E+03 0. -1.
<mgrwt>
<rscale>  0 0.52030153E+03</rscale>
<asrwt>0</asrwt>
<pdfrwt beam="1">  1        1 0.16034473E+00 0.52030153E+03</pdfrwt>
<pdfrwt beam="2">  1       -1 0.85383766E-01 0.52030153E+03</pdfrwt>
<totfact> 0.20259357E+01</totfact>
</mgrwt>
</event>
<event>
 4    1  0.2731969E-009  0.1004252E+04  0.7818608E-02  0.9303893E-01
         -1   -1    0    0    0  501 -0.00000000000E+00  0.00000000000E+00  0.10797325036E+04  0.10797325036E+04  0.50400000000E-02 0.  1.
          1   -1    0    0  501    0  0.00000000000E+00 -0.00000000000E+00 -0.21201005528E+04  0.21201005528E+04  0.50400000000E-02 0. -1.
    8880022    1    1    2    0    0  0.99241004000E+03  0.15926269052E+02 -0.17168443484E+04  0.19889890656E+04  0.15294330000E+03 0.  0.
    8880022    1    1    2    0    0 -0.99241004000E+03 -0.15926269052E+02  0.67647629924E+03  0.12108439908E+04  0.15294330000E+03 0.  0.
<mgrwt>
<rscale>  0 0.10042525E+04</rscale>
<asrwt>0</asrwt>
<pdfrwt beam="1">  1        1 0.32616932E+00 0.10042525E+04</pdfrwt>
<pdfrwt beam="2">  1       -1 0.16611269E+00 0.10042525E+04</pdfrwt>
<totfact> 0.65724308E-01</totfact>
</mgrwt>
</event>
<event>
 4    1  0.2731969E-009  0.9996061E+03  0.7818608E-02  0.9308977E-01
         -1   -1    0    0    0  501 -0.00000000000E+00  0.00000000000E+00  0.30206296268E+04  0.30206296268E+04  0.50400000000E-02 0.  1.
          1   -1    0    0  501    0  0.00000000000E+00 -0.00000000000E+00 -0.85058964753E+03  0.85058964754E+03  0.50400000000E-02 0. -1.
    8880022    1    1    2    0    0  0.47742413862E+03 -0.86480453144E+03 -0.42809939048E+03  0.10874196186E+04  0.15294330000E+03 0.  0.
    8880022    1    1    2    0    0 -0.47742413862E+03  0.86480453144E+03  0.25981393697E+04  0.27837996557E+04  0.15294330000E+03 0.  0.
<mgrwt>
<rscale>  0 0.99960609E+03</rscale>
<asrwt>0</asrwt>
<pdfrwt beam="1">  1        1 0.13085994E+00 0.99960609E+03</pdfrwt>
<pdfrwt beam="2">  1       -1 0.46471225E+00 0.99960609E+03</pdfrwt>
<totfact> 0.52594645E-02</totfact>
</mgrwt>
</event>
<event>
 4    1  0.2731969E-009  0.5673662E+03  0.7818608E-02  0.9975524E-01
         -1   -1    0    0    0  501 -0.00000000000E+00  0.00000000000E+00  0.23737174556E+03  0.23737174561E+03  0.50400000000E-02 0.  1.
          1   -1    0    0  501    0  0.00000000000E+00 -0.00000000000E+00 -0.25418414316E+04  0.25418414316E+04  0.50400000000E-02 0. -1.
    8880022    1    1    2    0    0 -0.48883108529E+03 -0.24404286602E+03 -0.20314111802E+03  0.60263647189E+03  0.15294330000E+03 0.  0.
    8880022    1    1    2    0    0  0.48883108529E+03  0.24404286602E+03 -0.21013285681E+04  0.21765767054E+04  0.15294330000E+03 0.  0.
<mgrwt>
<rscale>  0 0.56736620E+03</rscale>
<asrwt>0</asrwt>
<pdfrwt beam="1">  1        1 0.39105251E+00 0.56736620E+03</pdfrwt>
<pdfrwt beam="2">  1       -1 0.36518732E-01 0.56736620E+03</pdfrwt>
<totfact> 0.99432683E+00</totfact>
</mgrwt>
</event>
<event>
 4    1  0.2731969E-009  0.7284100E+03  0.7818608E-02  0.9669844E-01
         -1   -1    0    0    0  501 -0.00000000000E+00  0.00000000000E+00  0.83621673040E+03  0.83621673042E+03  0.50400000000E-02 0.  1.
          1   -1    0    0  501    0  0.00000000000E+00 -0.00000000000E+00 -0.10282504017E+04  0.10282504017E+04  0.50400000000E-02 0. -1.
    8880022    1    1    2    0    0 -0.71214656688E+03 -0.60621501580E+01 -0.67289583443E+03  0.99165010936E+03  0.15294330000E+03 0.  0.
    8880022    1    1    2    0    0  0.71214656688E+03  0.60621501580E+01  0.48086216310E+03  0.87281702280E+03  0.15294330000E+03 0.  0.
<mgrwt>
<rscale>  0 0.72841001E+03</rscale>
<asrwt>0</asrwt>
<pdfrwt beam="1">  1        1 0.15819237E+00 0.72841001E+03</pdfrwt>
<pdfrwt beam="2">  1       -1 0.12864873E+00 0.72841001E+03</pdfrwt>
<totfact> 0.77703595E+00</totfact>
</mgrwt>
</event>
<event>
 4    1  0.2731969E-009  0.1270069E+04  0.7818608E-02  0.9053643E-01
         -1   -1    0    0    0  501 -0.00000000000E+00  0.00000000000E+00  0.19580161228E+04  0.19580161228E+04  0.50400000000E-02 0.  1.
          1   -1    0    0  501    0  0.00000000000E+00 -0.00000000000E+00 -0.15953378809E+04  0.15953378809E+04  0.50400000000E-02 0. -1.
    8880022    1    1    2    0    0  0.80724249512E+03 -0.96852650399E+03 -0.10541867848E+04  0.16505712542E+04  0.15294330000E+03 0.  0.
    8880022    1    1    2    0    0 -0.80724249512E+03  0.96852650399E+03  0.14168650267E+04  0.19027827495E+04  0.15294330000E+03 0.  0.
<mgrwt>
<rscale>  0 0.12700692E+04</rscale>
<asrwt>0</asrwt>
<pdfrwt beam="1">  1        1 0.24543660E+00 0.12700692E+04</pdfrwt>
<pdfrwt beam="2">  1       -1 0.30123325E+00 0.12700692E+04</pdfrwt>
<totfact> 0.17752660E-01</totfact>
</mgrwt>
</event>
<event>
 4    1  0.2731969E-009  0.1690567E+04  0.7818608E-02  0.8766763E-01
          1   -1    0    0  501    0  0.00000000000E+00  0.00000000000E+00  0.35123336468E+04  0.35123336468E+04  0.50400000000E-02 0. -1.
         -1   -1    0    0    0  501 -0.00000000000E+00 -0.00000000000E+00 -0.10333529577E+04  0.10333529577E+04  0.50400000000E-02 0.  1.
    8880022    1    1    2    0    0  0.15939546055E+04 -0.54215726097E+03  0.22873540558E+04  0.28442935871E+04  0.15294330000E+03 0.  0.
    8880022    1    1    2    0    0 -0.15939546055E+04  0.54215726097E+03  0.19162663333E+03  0.17013930174E+04  0.15294330000E+03 0.  0.
<mgrwt>
<rscale>  0 0.16905672E+04</rscale>
<asrwt>0</asrwt>
<pdfrwt beam="1">  1        1 0.54035902E+00 0.16905672E+04</pdfrwt>
<pdfrwt beam="2">  1       -1 0.15897738E+00 0.16905672E+04</pdfrwt>
<totfact> 0.67769510E-02</totfact>
</mgrwt>
</event>
<event>
 4    1  0.2731969E-009  0.3279002E+03  0.7818608E-02  0.1072070E+00
          1   -1    0    0  501    0  0.00000000000E+00  0.00000000000E+00  0.14681536755E+04  0.14681536756E+04  0.50400000000E-02 0. -1.
         -1   -1    0    0    0  501 -0.00000000000E+00 -0.00000000000E+00 -0.22276677193E+03  0.22276677198E+03  0.50400000000E-02 0.  1.
    8880022    1    1    2    0    0  0.28481299272E+03 -0.54849213145E+02  0.13153794359E+04  0.13556332802E+04  0.15294330000E+03 0.  0.
    8880022    1    1    2    0    0 -0.28481299272E+03  0.54849213145E+02 -0.69992532262E+02  0.33528716735E+03  0.15294330000E+03 0.  1.
<mgrwt>
<rscale>  0 0.32790018E+03</rscale>
<asrwt>0</asrwt>
<pdfrwt beam="1">  1        1 0.22586979E+00 0.32790018E+03</pdfrwt>
<pdfrwt beam="2">  1       -1 0.34271812E-01 0.32790018E+03</pdfrwt>
<totfact> 0.60818006E+01</totfact>
</mgrwt>
</event>
<event>
 4    1  0.2731969E-009  0.1279025E+04  0.7818608E-02  0.9046366E-01
         -1   -1    0    0    0  501 -0.00000000000E+00  0.00000000000E+00  0.74004802288E+03  0.74004802289E+03  0.50400000000E-02 0.  1.
          1   -1    0    0  501    0  0.00000000000E+00 -0.00000000000E+00 -0.34744463370E+04  0.34744463370E+04  0.50400000000E-02 0. -1.
    8880022    1    1    2    0    0 -0.82161899596E+03 -0.96822270973E+03 -0.26381547636E+04  0.29318535434E+04  0.15294330000E+03 0.  0.
    8880022    1    1    2    0    0  0.82161899596E+03  0.96822270973E+03 -0.96243550535E+02  0.12826408165E+04  0.15294330000E+03 0.  0.
<mgrwt>
<rscale>  0 0.12790249E+04</rscale>
<asrwt>0</asrwt>
<pdfrwt beam="1">  1        1 0.53453019E+00 0.12790249E+04</pdfrwt>
<pdfrwt beam="2">  1       -1 0.11385354E+00 0.12790249E+04</pdfrwt>
<totfact> 0.18224898E-01</totfact>
</mgrwt>
</event>
<event>
 4    1  0.2731969E-009  0.1055906E+04  0.7818608E-02  0.9249268E-01
         -1   -1    0    0    0  501 -0.00000000000E+00  0.00000000000E+00  0.72285211627E+03  0.72285211629E+03  0.50400000000E-02 0.  1.
          1   -1    0    0  501    0  0.00000000000E+00 -0.00000000000E+00 -0.24663827813E+04  0.24663827813E+04  0.50400000000E-02 0. -1.
    8880022    1    1    2    0    0  0.45692394962E+03 -0.93955645496E+03 -0.18477766137E+04  0.21281954551E+04  0.15294330000E+03 0.  0.
    8880022    1    1    2    0    0 -0.45692394962E+03  0.93955645496E+03  0.10424594866E+03  0.10610394425E+04  0.15294330000E+03 0.  0.
<mgrwt>
<rscale>  0 0.10559060E+04</rscale>
<asrwt>0</asrwt>
<pdfrwt beam="1">  1        1 0.37944350E+00 0.10559060E+04</pdfrwt>
<pdfrwt beam="2">  1       -1 0.11120802E+00 0.10559060E+04</pdfrwt>
<totfact> 0.10727022E+00</totfact>
</mgrwt>
</event>
<event>
 4    1  0.2731969E-009  0.8007968E+03  0.7818608E-02  0.9558865E-01
          1   -1    0    0  501    0  0.00000000000E+00  0.00000000000E+00  0.32664043658E+04  0.32664043658E+04  0.50400000000E-02 0. -1.
         -1   -1    0    0    0  501 -0.00000000000E+00 -0.00000000000E+00 -0.46504942158E+03  0.46504942160E+03  0.50400000000E-02 0.  1.
    8880022    1    1    2    0    0  0.24769296793E+03  0.74601072689E+03  0.28189262746E+04  0.29304642646E+04  0.15294330000E+03 0.  0.
    8880022    1    1    2    0    0 -0.24769296793E+03 -0.74601072689E+03 -0.17571330439E+02  0.80098952282E+03  0.15294330000E+03 0.  0.
<mgrwt>
<rscale>  0 0.80079677E+03</rscale>
<asrwt>0</asrwt>
<pdfrwt beam="1">  1        1 0.50252376E+00 0.80079677E+03</pdfrwt>
<pdfrwt beam="2">  1       -1 0.71546063E-01 0.80079677E+03</pdfrwt>
<totfact> 0.80257505E-01</totfact>
</mgrwt>
</event>
<event>
 4    1  0.2731969E-009  0.1053404E+04  0.7818608E-02  0.9251837E-01
         -1   -1    0    0    0  501 -0.00000000000E+00  0.00000000000E+00  0.80128082252E+03  0.80128082254E+03  0.50400000000E-02 0.  1.
          1   -1    0    0  501    0  0.00000000000E+00 -0.00000000000E+00 -0.23861925804E+04  0.23861925804E+04  0.50400000000E-02 0. -1.
    8880022    1    1    2    0    0  0.10229681712E+04 -0.19950880457E+03  0.23995760717E+03  0.10803883323E+04  0.15294330000E+03 0.  0.
    8880022    1    1    2    0    0 -0.10229681712E+04  0.19950880457E+03 -0.18248693650E+04  0.21070850706E+04  0.15294330000E+03 0.  0.
<mgrwt>
<rscale>  0 0.10534037E+04</rscale>
<asrwt>0</asrwt>
<pdfrwt beam="1">  1        1 0.36710655E+00 0.10534037E+04</pdfrwt>
<pdfrwt beam="2">  1       -1 0.12327397E+00 0.10534037E+04</pdfrwt>
<totfact> 0.94827549E-01</totfact>
</mgrwt>
</event>
<event>
 4    1  0.2731969E-009  0.8966071E+03  0.7818608E-02  0.9429833E-01
         -1   -1    0    0    0  501 -0.00000000000E+00  0.00000000000E+00  0.12808294802E+04  0.12808294803E+04  0.50400000000E-02 0.  1.
          1   -1    0    0  501    0  0.00000000000E+00 -0.00000000000E+00 -0.19253028802E+04  0.19253028803E+04  0.50400000000E-02 0. -1.
    8880022    1    1    2    0    0  0.56795770238E+03 -0.67671019534E+03 -0.16383166641E+04  0.18676149991E+04  0.15294330000E+03 0. -1.
    8880022    1    1    2    0    0 -0.56795770238E+03  0.67671019534E+03  0.99384326407E+03  0.13385173614E+04  0.15294330000E+03 0.  0.
<mgrwt>
<rscale>  0 0.89660710E+03</rscale>
<asrwt>0</asrwt>
<pdfrwt beam="1">  1        1 0.29620044E+00 0.89660710E+03</pdfrwt>
<pdfrwt beam="2">  1       -1 0.19705069E+00 0.89660710E+03</pdfrwt>
<totfact> 0.54439074E-01</totfact>
</mgrwt>
</event>
<event>
 4    1  0.2731969E-009  0.9936099E+03  0.7818608E-02  0.9315581E-01
         -1   -1    0    0    0  501 -0.00000000000E+00  0.00000000000E+00  0.12345721914E+04  0.12345721914E+04  0.50400000000E-02 0.  1.
          1   -1    0    0  501    0  0.00000000000E+00 -0.00000000000E+00 -0.13064334387E+04  0.13064334387E+04  0.50400000000E-02 0. -1.
    8880022    1    1    2    0    0 -0.47824199523E+03  0.85741095514E+03  0.75535097025E+03  0.12481248709E+04  0.15294330000E+03 0.  0.
    8880022    1    1    2    0    0  0.47824199523E+03 -0.85741095514E+03 -0.82721221755E+03  0.12928807593E+04  0.15294330000E+03 0.  0.
<mgrwt>
<rscale>  0 0.99360989E+03</rscale>
<asrwt>0</asrwt>
<pdfrwt beam="1">  1        1 0.20098976E+00 0.99360989E+03</pdfrwt>
<pdfrwt beam="2">  1       -1 0.18993418E+00 0.99360989E+03</pdfrwt>
<totfact> 0.15928998E+00</totfact>
</mgrwt>
</event>
<event>
 4    1  0.2731969E-009  0.1097018E+04  0.7818608E-02  0.9208103E-01
         -1   -1    0    0    0  501 -0.00000000000E+00  0.00000000000E+00  0.18726963004E+04  0.18726963004E+04  0.50400000000E-02 0.  1.
          1   -1    0    0  501    0  0.00000000000E+00 -0.00000000000E+00 -0.14201540276E+04  0.14201540276E+04  0.50400000000E-02 0. -1.
    8880022    1    1    2    0    0  0.43919673109E+03 -0.99356078141E+03 -0.99196515771E+03  0.14790007850E+04  0.15294330000E+03 0.  0.
    8880022    1    1    2    0    0 -0.43919673109E+03  0.99356078141E+03  0.14445074305E+04  0.18138495430E+04  0.15294330000E+03 0.  0.
<mgrwt>
<rscale>  0 0.10970180E+04</rscale>
<asrwt>0</asrwt>
<pdfrwt beam="1">  1        1 0.21848524E+00 0.10970180E+04</pdfrwt>
<pdfrwt beam="2">  1       -1 0.28810712E+00 0.10970180E+04</pdfrwt>
<totfact> 0.29287892E-01</totfact>
</mgrwt>
</event>
<event>
 4    1  0.2731969E-009  0.1017989E+04  0.7818608E-02  0.9289032E-01
         -1   -1    0    0    0  501 -0.00000000000E+00  0.00000000000E+00  0.73230551841E+03  0.73230551843E+03  0.50400000000E-02 0.  1.
          1   -1    0    0  501    0  0.00000000000E+00 -0.00000000000E+00 -0.17525947148E+04  0.17525947148E+04  0.50400000000E-02 0. -1.
    8880022    1    1    2    0    0  0.92731738602E+03 -0.39114297362E+03  0.35057132291E+02  0.10185926643E+04  0.15294330000E+03 0.  0.
    8880022    1    1    2    0    0 -0.92731738602E+03  0.39114297362E+03 -0.10553463286E+04  0.14663075689E+04  0.15294330000E+03 0.  0.
<mgrwt>
<rscale>  0 0.10179892E+04</rscale>
<asrwt>0</asrwt>
<pdfrwt beam="1">  1        1 0.26962995E+00 0.10179892E+04</pdfrwt>
<pdfrwt beam="2">  1       -1 0.11266239E+00 0.10179892E+04</pdfrwt>
<totfact> 0.31816713E+00</totfact>
</mgrwt>
</event>
<event>
 4    1  0.2731969E-009  0.6221793E+03  0.7818608E-02  0.9860430E-01
         -1   -1    0    0    0  501 -0.00000000000E+00  0.00000000000E+00  0.18446997272E+03  0.18446997279E+03  0.50400000000E-02 0.  1.
          1   -1    0    0  501    0  0.00000000000E+00 -0.00000000000E+00 -0.28250694426E+04  0.28250694426E+04  0.50400000000E-02 0. -1.
    8880022    1    1    2    0    0  0.52922362190E+03  0.28920205050E+03 -0.55716874509E+03  0.83519107485E+03  0.15294330000E+03 0.  1.
    8880022    1    1    2    0    0 -0.52922362190E+03 -0.28920205050E+03 -0.20834307247E+04  0.21743483405E+04  0.15294330000E+03 0.  0.
<mgrwt>
<rscale>  0 0.62217933E+03</rscale>
<asrwt>0</asrwt>
<pdfrwt beam="1">  1        1 0.43462603E+00 0.62217933E+03</pdfrwt>
<pdfrwt beam="2">  1       -1 0.28379998E-01 0.62217933E+03</pdfrwt>
<totfact> 0.97522624E+00</totfact>
</mgrwt>
</event>
<event>
 4    1  0.2731969E-009  0.8234353E+03  0.7818608E-02  0.9526702E-01
         -1   -1    0    0    0  501 -0.00000000000E+00  0.00000000000E+00  0.73099043304E+03  0.73099043306E+03  0.50400000000E-02 0.  1.
          1   -1    0    0  501    0  0.00000000000E+00 -0.00000000000E+00 -0.19391953845E+04  0.19391953845E+04  0.50400000000E-02 0. -1.
    8880022    1    1    2    0    0  0.17721756571E+02  0.80891280645E+03  0.36019341391E+03  0.89876856728E+03  0.15294330000E+03 0.  0.
    8880022    1    1    2    0    0 -0.17721756571E+02 -0.80891280645E+03 -0.15683983653E+04  0.17714172503E+04  0.15294330000E+03 0.  0.
<mgrwt>
<rscale>  0 0.82343527E+03</rscale>
<asrwt>0</asrwt>
<pdfrwt beam="1">  1        1 0.29833775E+00 0.82343527E+03</pdfrwt>
<pdfrwt beam="2">  1       -1 0.11246007E+00 0.82343527E+03</pdfrwt>
<totfact> 0.24641050E+00</totfact>
</mgrwt>
</event>
<event>
 4    1  0.2731969E-009  0.1095483E+04  0.7818608E-02  0.9209605E-01
         -1   -1    0    0    0  501 -0.00000000000E+00  0.00000000000E+00  0.16754114056E+04  0.16754114057E+04  0.50400000000E-02 0.  1.
          1   -1    0    0  501    0  0.00000000000E+00 -0.00000000000E+00 -0.77982235502E+03  0.77982235504E+03  0.50400000000E-02 0. -1.
    8880022    1    1    2    0    0 -0.33840609921E+03  0.10306178255E+04  0.97400773778E+02  0.10998046890E+04  0.15294330000E+03 0.  0.
    8880022    1    1    2    0    0  0.33840609921E+03 -0.10306178255E+04  0.79818827685E+03  0.13554290717E+04  0.15294330000E+03 0.  0.
<mgrwt>
<rscale>  0 0.10954832E+04</rscale>
<asrwt>0</asrwt>
<pdfrwt beam="1">  1        1 0.11997267E+00 0.10954832E+04</pdfrwt>
<pdfrwt beam="2">  1       -1 0.25775560E+00 0.10954832E+04</pdfrwt>
<totfact> 0.14242061E+00</totfact>
</mgrwt>
</event>
<event>
 4    1  0.2731969E-009  0.1009353E+04  0.7818608E-02  0.9298346E-01
          1   -1    0    0  501    0  0.00000000000E+00  0.00000000000E+00  0.15814304830E+04  0.15814304830E+04  0.50400000000E-02 0. -1.
         -1   -1    0    0    0  501 -0.00000000000E+00 -0.00000000000E+00 -0.82792948564E+03  0.82792948565E+03  0.50400000000E-02 0.  1.
    8880022    1    1    2    0    0  0.95682990834E+03 -0.28262736088E+03  0.94421365167E+03  0.13821478834E+04  0.15294330000E+03 0.  0.
    8880022    1    1    2    0    0 -0.95682990834E+03  0.28262736088E+03 -0.19071265428E+03  0.10272120853E+04  0.15294330000E+03 0.  0.
<mgrwt>
<rscale>  0 0.10093529E+04</rscale>
<asrwt>0</asrwt>
<pdfrwt beam="1">  1        1 0.24329700E+00 0.10093529E+04</pdfrwt>
<pdfrwt beam="2">  1       -1 0.12737377E+00 0.10093529E+04</pdfrwt>
<totfact> 0.30833073E+00</totfact>
</mgrwt>
</event>
<event>
 4    1  0.2731969E-009  0.9336568E+03  0.7818608E-02  0.9384460E-01
         -1   -1    0    0    0  501 -0.00000000000E+00  0.00000000000E+00  0.72255141749E+03  0.72255141750E+03  0.50400000000E-02 0.  1.
          1   -1    0    0  501    0  0.00000000000E+00 -0.00000000000E+00 -0.21714574940E+04  0.21714574940E+04  0.50400000000E-02 0. -1.
    8880022    1    1    2    0    0 -0.48856923081E+03 -0.78078389610E+03 -0.16890852545E+04  0.19299544129E+04  0.15294330000E+03 0.  0.
    8880022    1    1    2    0    0  0.48856923081E+03  0.78078389610E+03  0.24017917804E+03  0.96405449860E+03  0.15294330000E+03 0.  0.
<mgrwt>
<rscale>  0 0.93365681E+03</rscale>
<asrwt>0</asrwt>
<pdfrwt beam="1">  1        1 0.33407038E+00 0.93365681E+03</pdfrwt>
<pdfrwt beam="2">  1       -1 0.11116176E+00 0.93365681E+03</pdfrwt>
<totfact> 0.17364975E+00</totfact>
</mgrwt>
</event>
<event>
 4    1  0.2731969E-009  0.1120767E+04  0.7818608E-02  0.9185184E-01
          1   -1    0    0  501    0  0.00000000000E+00  0.00000000000E+00  0.21937083722E+04  0.21937083722E+04  0.50400000000E-02 0. -1.
         -1   -1    0    0    0  501 -0.00000000000E+00 -0.00000000000E+00 -0.19939544824E+04  0.19939544824E+04  0.50400000000E-02 0.  1.
    8880022    1    1    2    0    0 -0.54431216783E+01  0.11102694691E+04 -0.16679312600E+04  0.20095059748E+04  0.15294330000E+03 0.  0.
    8880022    1    1    2    0    0  0.54431216783E+01 -0.11102694691E+04  0.18676851498E+04  0.21781568799E+04  0.15294330000E+03 0.  0.
<mgrwt>
<rscale>  0 0.11207674E+04</rscale>
<asrwt>0</asrwt>
<pdfrwt beam="1">  1        1 0.33749360E+00 0.11207674E+04</pdfrwt>
<pdfrwt beam="2">  1       -1 0.30676223E+00 0.11207674E+04</pdfrwt>
<totfact> 0.65801989E-02</totfact>
</mgrwt>
</event>
<event>
 4    1  0.2731969E-009  0.9450543E+03  0.7818608E-02  0.9370950E-01
          1   -1    0    0  501    0  0.00000000000E+00  0.00000000000E+00  0.16705881616E+04  0.16705881616E+04  0.50400000000E-02 0. -1.
         -1   -1    0    0    0  501 -0.00000000000E+00 -0.00000000000E+00 -0.88765044581E+03  0.88765044582E+03  0.50400000000E-02 0.  1.
    8880022    1    1    2    0    0  0.72092087489E+03 -0.59161570220E+03  0.11981407694E+04  0.15259977075E+04  0.15294330000E+03 0.  0.
    8880022    1    1    2    0    0 -0.72092087489E+03  0.59161570220E+03 -0.41520305355E+03  0.10322409000E+04  0.15294330000E+03 0.  0.
<mgrwt>
<rscale>  0 0.94505434E+03</rscale>
<asrwt>0</asrwt>
<pdfrwt beam="1">  1        1 0.25701356E+00 0.94505434E+03</pdfrwt>
<pdfrwt beam="2">  1       -1 0.13656161E+00 0.94505434E+03</pdfrwt>
<totfact> 0.22658524E+00</totfact>
</mgrwt>
</event>
<event>
 4    1  0.2731969E-009  0.6066074E+03  0.7818608E-02  0.9891792E-01
         -1   -1    0    0    0  501 -0.00000000000E+00  0.00000000000E+00  0.55726346137E+03  0.55726346140E+03  0.50400000000E-02 0.  1.
          1   -1    0    0  501    0  0.00000000000E+00 -0.00000000000E+00 -0.14936020786E+04  0.14936020786E+04  0.50400000000E-02 0. -1.
    8880022    1    1    2    0    0 -0.18476113973E+03  0.55717523257E+03  0.29775453344E+03  0.67574428132E+03  0.15294330000E+03 0.  0.
    8880022    1    1    2    0    0  0.18476113973E+03 -0.55717523257E+03 -0.12340931506E+04  0.13751212587E+04  0.15294330000E+03 0. -1.
<mgrwt>
<rscale>  0 0.60660743E+03</rscale>
<asrwt>0</asrwt>
<pdfrwt beam="1">  1        1 0.22978493E+00 0.60660743E+03</pdfrwt>
<pdfrwt beam="2">  1       -1 0.85732841E-01 0.60660743E+03</pdfrwt>
<totfact> 0.94508101E+00</totfact>
</mgrwt>
</event>
<event>
 4    1  0.2731969E-009  0.4208225E+03  0.7818608E-02  0.1036799E+00
          1   -1    0    0  501    0  0.00000000000E+00  0.00000000000E+00  0.86285501727E+03  0.86285501729E+03  0.50400000000E-02 0. -1.
         -1   -1    0    0    0  501 -0.00000000000E+00 -0.00000000000E+00 -0.49952911389E+03  0.49952911391E+03  0.50400000000E-02 0.  1.
    8880022    1    1    2    0    0  0.38926673796E+03  0.46597789273E+02  0.70451273183E+03  0.82062768023E+03  0.15294330000E+03 0.  0.
    8880022    1    1    2    0    0 -0.38926673796E+03 -0.46597789273E+02 -0.34118682844E+03  0.54175645097E+03  0.15294330000E+03 0.  0.
<mgrwt>
<rscale>  0 0.42082253E+03</rscale>
<asrwt>0</asrwt>
<pdfrwt beam="1">  1        1 0.13274692E+00 0.42082253E+03</pdfrwt>
<pdfrwt beam="2">  1       -1 0.76850633E-01 0.42082253E+03</pdfrwt>
<totfact> 0.35602466E+01</totfact>
</mgrwt>
</event>
<event>
 4    1  0.2731969E-009  0.7305699E+03  0.7818608E-02  0.9666336E-01
          1   -1    0    0  501    0  0.00000000000E+00  0.00000000000E+00  0.22178584602E+04  0.22178584602E+04  0.50400000000E-02 0. -1.
         -1   -1    0    0    0  501 -0.00000000000E+00 -0.00000000000E+00 -0.28997692894E+03  0.28997692898E+03  0.50400000000E-02 0.  1.
    8880022    1    1    2    0    0  0.54850972811E+03  0.45768741532E+03  0.14810949043E+04  0.16514764487E+04  0.15294330000E+03 0.  0.
    8880022    1    1    2    0    0 -0.54850972811E+03 -0.45768741532E+03  0.44678662701E+03  0.85635894055E+03  0.15294330000E+03 0.  0.
<mgrwt>
<rscale>  0 0.73056988E+03</rscale>
<asrwt>0</asrwt>
<pdfrwt beam="1">  1        1 0.34120900E+00 0.73056988E+03</pdfrwt>
<pdfrwt beam="2">  1       -1 0.44611835E-01 0.73056988E+03</pdfrwt>
<totfact> 0.11088287E+01</totfact>
</mgrwt>
</event>
<event>
 4    1  0.2731969E-009  0.6995048E+03  0.7818608E-02  0.9718080E-01
          1   -1    0    0  501    0  0.00000000000E+00  0.00000000000E+00  0.82251066880E+03  0.82251066881E+03  0.50400000000E-02 0. -1.
         -1   -1    0    0    0  501 -0.00000000000E+00 -0.00000000000E+00 -0.68108981412E+03  0.68108981414E+03  0.50400000000E-02 0.  1.
    8880022    1    1    2    0    0 -0.16207700818E+03 -0.66305828460E+03 -0.19673959077E+03  0.72664528138E+03  0.15294330000E+03 0.  0.
    8880022    1    1    2    0    0  0.16207700818E+03  0.66305828460E+03  0.33816044545E+03  0.77695520157E+03  0.15294330000E+03 0.  0.
<mgrwt>
<rscale>  0 0.69950475E+03</rscale>
<asrwt>0</asrwt>
<pdfrwt beam="1">  1        1 0.12654010E+00 0.69950475E+03</pdfrwt>
<pdfrwt beam="2">  1       -1 0.10478305E+00 0.69950475E+03</pdfrwt>
<totfact> 0.18705740E+01</totfact>
</mgrwt>
</event>
<event>
 4    1  0.2731969E-009  0.6584599E+03  0.7818608E-02  0.9791033E-01
         -1   -1    0    0    0  501 -0.00000000000E+00  0.00000000000E+00  0.20254587555E+04  0.20254587555E+04  0.50400000000E-02 0.  1.
          1   -1    0    0  501    0  0.00000000000E+00 -0.00000000000E+00 -0.58138089398E+03  0.58138089400E+03  0.50400000000E-02 0. -1.
    8880022    1    1    2    0    0  0.48445899848E+03  0.41890000079E+03  0.17580797180E+04  0.18773421850E+04  0.15294330000E+03 0.  0.
    8880022    1    1    2    0    0 -0.48445899848E+03 -0.41890000079E+03 -0.31400185643E+03  0.72949746451E+03  0.15294330000E+03 0.  0.
<mgrwt>
<rscale>  0 0.65845986E+03</rscale>
<asrwt>0</asrwt>
<pdfrwt beam="1">  1        1 0.89443213E-01 0.65845986E+03</pdfrwt>
<pdfrwt beam="2">  1       -1 0.31160904E+00 0.65845986E+03</pdfrwt>
<totfact> 0.10717060E+00</totfact>
</mgrwt>
</event>
<event>
 4    1  0.2731969E-009  0.8010370E+03  0.7818608E-02  0.9558517E-01
         -1   -1    0    0    0  501 -0.00000000000E+00  0.00000000000E+00  0.29905766518E+03  0.29905766522E+03  0.50400000000E-02 0.  1.
          1   -1    0    0  501    0  0.00000000000E+00 -0.00000000000E+00 -0.25645012113E+04  0.25645012113E+04  0.50400000000E-02 0. -1.
    8880022    1    1    2    0    0 -0.33464222436E+03 -0.71153576948E+03 -0.55405727080E+03  0.97398135604E+03  0.15294330000E+03 0.  0.
    8880022    1    1    2    0    0  0.33464222436E+03  0.71153576948E+03 -0.17113862753E+04  0.18895775205E+04  0.15294330000E+03 0.  0.
<mgrwt>
<rscale>  0 0.80103697E+03</rscale>
<asrwt>0</asrwt>
<pdfrwt beam="1">  1        1 0.39453863E+00 0.80103697E+03</pdfrwt>
<pdfrwt beam="2">  1       -1 0.46008873E-01 0.80103697E+03</pdfrwt>
<totfact> 0.60227762E+00</totfact>
</mgrwt>
</event>
<event>
 4    1  0.2731969E-009  0.1117102E+04  0.7818608E-02  0.9188681E-01
          1   -1    0    0  501    0  0.00000000000E+00  0.00000000000E+00  0.67665056036E+03  0.67665056038E+03  0.50400000000E-02 0. -1.
         -1   -1    0    0    0  501 -0.00000000000E+00 -0.00000000000E+00 -0.32954152777E+04  0.32954152777E+04  0.50400000000E-02 0.  1.
    8880022    1    1    2    0    0 -0.10419758367E+04 -0.37257570029E+03 -0.26273012002E+04  0.28549307428E+04  0.15294330000E+03 0.  0.
    8880022    1    1    2    0    0  0.10419758367E+04  0.37257570029E+03  0.85364828306E+01  0.11171350953E+04  0.15294330000E+03 0.  0.
<mgrwt>
<rscale>  0 0.11171025E+04</rscale>
<asrwt>0</asrwt>
<pdfrwt beam="1">  1        1 0.10410009E+00 0.11171025E+04</pdfrwt>
<pdfrwt beam="2">  1       -1 0.50698696E+00 0.11171025E+04</pdfrwt>
<totfact> 0.38463373E-02</totfact>
</mgrwt>
</event>
<event>
 4    1  0.2731969E-009  0.4924191E+03  0.7818608E-02  0.1015777E+00
          1   -1    0    0  501    0  0.00000000000E+00  0.00000000000E+00  0.65789853807E+03  0.65789853809E+03  0.50400000000E-02 0. -1.
         -1   -1    0    0    0  501 -0.00000000000E+00 -0.00000000000E+00 -0.13262492868E+04  0.13262492869E+04  0.50400000000E-02 0.  1.
    8880022    1    1    2    0    0 -0.46569219295E+03  0.47071561415E+02  0.50885503245E+03  0.70810313340E+03  0.15294330000E+03 0.  0.
    8880022    1    1    2    0    0  0.46569219295E+03 -0.47071561415E+02 -0.11772057812E+04  0.12760446915E+04  0.15294330000E+03 0.  0.
<mgrwt>
<rscale>  0 0.49241913E+03</rscale>
<asrwt>0</asrwt>
<pdfrwt beam="1">  1        1 0.10121516E+00 0.49241913E+03</pdfrwt>
<pdfrwt beam="2">  1       -1 0.20403835E+00 0.49241913E+03</pdfrwt>
<totfact> 0.45963782E+00</totfact>
</mgrwt>
</event>
<event>
 4    1  0.2731969E-009  0.1258008E+04  0.7818608E-02  0.9063544E-01
          1   -1    0    0  501    0  0.00000000000E+00  0.00000000000E+00  0.31656278601E+04  0.31656278601E+04  0.50400000000E-02 0. -1.
         -1   -1    0    0    0  501 -0.00000000000E+00 -0.00000000000E+00 -0.52082190873E+03  0.52082190875E+03  0.50400000000E-02 0.  1.
    8880022    1    1    2    0    0 -0.12484595431E+04 -0.23277549240E+02  0.95321483550E+03  0.15783546023E+04  0.15294330000E+03 0.  0.
    8880022    1    1    2    0    0  0.12484595431E+04  0.23277549240E+02  0.16915911159E+04  0.21080951666E+04  0.15294330000E+03 0.  0.
<mgrwt>
<rscale>  0 0.12580082E+04</rscale>
<asrwt>0</asrwt>
<pdfrwt beam="1">  1        1 0.48701967E+00 0.12580082E+04</pdfrwt>
<pdfrwt beam="2">  1       -1 0.80126447E-01 0.12580082E+04</pdfrwt>
<totfact> 0.69584454E-01</totfact>
</mgrwt>
</event>
<event>
 4    1  0.2731969E-009  0.7743539E+03  0.7818608E-02  0.9597899E-01
         -1   -1    0    0    0  501 -0.00000000000E+00  0.00000000000E+00  0.77661361750E+03  0.77661361751E+03  0.50400000000E-02 0.  1.
          1   -1    0    0  501    0  0.00000000000E+00 -0.00000000000E+00 -0.10312376691E+04  0.10312376691E+04  0.50400000000E-02 0. -1.
    8880022    1    1    2    0    0  0.37411920763E+03 -0.66050525667E+03  0.32581283499E+03  0.84010596479E+03  0.15294330000E+03 0.  0.
    8880022    1    1    2    0    0 -0.37411920763E+03  0.66050525667E+03 -0.58043688659E+03  0.96774532184E+03  0.15294330000E+03 0.  0.
<mgrwt>
<rscale>  0 0.77435394E+03</rscale>
<asrwt>0</asrwt>
<pdfrwt beam="1">  1        1 0.15865195E+00 0.77435394E+03</pdfrwt>
<pdfrwt beam="2">  1       -1 0.11947902E+00 0.77435394E+03</pdfrwt>
<totfact> 0.92194072E+00</totfact>
</mgrwt>
</event>
<event>
 4    1  0.2731969E-009  0.1506230E+04  0.7818608E-02  0.8880321E-01
          1   -1    0    0  501    0  0.00000000000E+00  0.00000000000E+00  0.26410656558E+04  0.26410656558E+04  0.50400000000E-02 0. -1.
         -1   -1    0    0    0  501 -0.00000000000E+00 -0.00000000000E+00 -0.15764490544E+04  0.15764490544E+04  0.50400000000E-02 0.  1.
    8880022    1    1    2    0    0  0.58094752015E+02 -0.14973179108E+04  0.19548866474E+04  0.24678552193E+04  0.15294330000E+03 0.  0.
    8880022    1    1    2    0    0 -0.58094752015E+02  0.14973179108E+04 -0.89027004596E+03  0.17496594909E+04  0.15294330000E+03 0.  0.
<mgrwt>
<rscale>  0 0.15062296E+04</rscale>
<asrwt>0</asrwt>
<pdfrwt beam="1">  1        1 0.40631779E+00 0.15062296E+04</pdfrwt>
<pdfrwt beam="2">  1       -1 0.24253063E+00 0.15062296E+04</pdfrwt>
<totfact> 0.79477650E-02</totfact>
</mgrwt>
</event>
<event>
 4    1  0.2731969E-009  0.5208743E+03  0.7818608E-02  0.1008470E+00
          1   -1    0    0  501    0  0.00000000000E+00  0.00000000000E+00  0.93571665988E+03  0.93571665990E+03  0.50400000000E-02 0. -1.
         -1   -1    0    0    0  501 -0.00000000000E+00 -0.00000000000E+00 -0.83971609768E+03  0.83971609769E+03  0.50400000000E-02 0.  1.
    8880022    1    1    2    0    0 -0.28078387492E+03 -0.41119191926E+03 -0.67028571390E+03  0.84887747653E+03  0.15294330000E+03 0.  0.
    8880022    1    1    2    0    0  0.28078387492E+03  0.41119191926E+03  0.76628627611E+03  0.92655528106E+03  0.15294330000E+03 0.  0.
<mgrwt>
<rscale>  0 0.52087430E+03</rscale>
<asrwt>0</asrwt>
<pdfrwt beam="1">  1        1 0.14395641E+00 0.52087430E+03</pdfrwt>
<pdfrwt beam="2">  1       -1 0.12918709E+00 0.52087430E+03</pdfrwt>
<totfact> 0.94083926E+00</totfact>
</mgrwt>
</event>
<event>
 4    1  0.2731969E-009  0.3151936E+03  0.7818608E-02  0.1077883E+00
          1   -1    0    0  501    0  0.00000000000E+00  0.00000000000E+00  0.19540060170E+04  0.19540060171E+04  0.50400000000E-02 0. -1.
         -1   -1    0    0    0  501 -0.00000000000E+00 -0.00000000000E+00 -0.24213023459E+03  0.24213023464E+03  0.50400000000E-02 0.  1.
    8880022    1    1    2    0    0  0.26190344314E+03 -0.85801788150E+02 -0.12005817473E+03  0.33728471462E+03  0.15294330000E+03 0.  0.
    8880022    1    1    2    0    0 -0.26190344314E+03  0.85801788150E+02  0.18319339572E+04  0.18588515371E+04  0.15294330000E+03 0. -1.
<mgrwt>
<rscale>  0 0.31519361E+03</rscale>
<asrwt>0</asrwt>
<pdfrwt beam="1">  1        1 0.30061632E+00 0.31519361E+03</pdfrwt>
<pdfrwt beam="2">  1       -1 0.37250804E-01 0.31519361E+03</pdfrwt>
<totfact> 0.25252329E+01</totfact>
</mgrwt>
</event>
<event>
 4    1  0.2731969E-009  0.7484965E+03  0.7818608E-02  0.9637712E-01
         -1   -1    0    0    0  501 -0.00000000000E+00  0.00000000000E+00  0.14294038758E+04  0.14294038758E+04  0.50400000000E-02 0.  1.
          1   -1    0    0  501    0  0.00000000000E+00 -0.00000000000E+00 -0.45792662604E+03  0.45792662607E+03  0.50400000000E-02 0. -1.
    8880022    1    1    2    0    0  0.38832438334E+03  0.62133689043E+03  0.84394483683E+03  0.11280469399E+04  0.15294330000E+03 0.  0.
    8880022    1    1    2    0    0 -0.38832438334E+03 -0.62133689043E+03  0.12753241297E+03  0.75928356197E+03  0.15294330000E+03 0.  0.
<mgrwt>
<rscale>  0 0.74849650E+03</rscale>
<asrwt>0</asrwt>
<pdfrwt beam="1">  1        1 0.70450252E-01 0.74849650E+03</pdfrwt>
<pdfrwt beam="2">  1       -1 0.21990828E+00 0.74849650E+03</pdfrwt>
<totfact> 0.57120557E+00</totfact>
</mgrwt>
</event>
<event>
 4    1  0.2731969E-009  0.6803546E+03  0.7818608E-02  0.9751431E-01
         -1   -1    0    0    0  501 -0.00000000000E+00  0.00000000000E+00  0.31325307499E+03  0.31325307503E+03  0.50400000000E-02 0.  1.
          1   -1    0    0  501    0  0.00000000000E+00 -0.00000000000E+00 -0.29812833245E+04  0.29812833245E+04  0.50400000000E-02 0. -1.
    8880022    1    1    2    0    0 -0.55946517185E+03  0.35565362391E+03 -0.16416074751E+03  0.69987940587E+03  0.15294330000E+03 0.  0.
    8880022    1    1    2    0    0  0.55946517185E+03 -0.35565362391E+03 -0.25038695020E+04  0.25946569937E+04  0.15294330000E+03 0.  0.
<mgrwt>
<rscale>  0 0.68035464E+03</rscale>
<asrwt>0</asrwt>
<pdfrwt beam="1">  1        1 0.45865895E+00 0.68035464E+03</pdfrwt>
<pdfrwt beam="2">  1       -1 0.48192783E-01 0.68035464E+03</pdfrwt>
<totfact> 0.28879343E+00</totfact>
</mgrwt>
</event>
<event>
 4    1  0.2731969E-009  0.1068670E+04  0.7818608E-02  0.9236278E-01
          1   -1    0    0  501    0  0.00000000000E+00  0.00000000000E+00  0.17274969376E+04  0.17274969376E+04  0.50400000000E-02 0. -1.
         -1   -1    0    0    0  501 -0.00000000000E+00 -0.00000000000E+00 -0.11761882257E+04  0.11761882257E+04  0.50400000000E-02 0.  1.
    8880022    1    1    2    0    0  0.99565631846E+03  0.35683751597E+03 -0.68511687120E+03  0.12694255778E+04  0.15294330000E+03 0.  0.
    8880022    1    1    2    0    0 -0.99565631846E+03 -0.35683751597E+03  0.12364255832E+04  0.16342595856E+04  0.15294330000E+03 0.  0.
<mgrwt>
<rscale>  0 0.10686703E+04</rscale>
<asrwt>0</asrwt>
<pdfrwt beam="1">  1        1 0.26576876E+00 0.10686703E+04</pdfrwt>
<pdfrwt beam="2">  1       -1 0.18095203E+00 0.10686703E+04</pdfrwt>
<totfact> 0.93338887E-01</totfact>
</mgrwt>
</event>
<event>
 4    1  0.2731969E-009  0.3601527E+03  0.7818608E-02  0.1058523E+00
         -1   -1    0    0    0  501 -0.00000000000E+00  0.00000000000E+00  0.26687011345E+03  0.26687011350E+03  0.50400000000E-02 0.  1.
          1   -1    0    0  501    0  0.00000000000E+00 -0.00000000000E+00 -0.12024888592E+04  0.12024888592E+04  0.50400000000E-02 0. -1.
    8880022    1    1    2    0    0  0.81894938368E+02 -0.31561292090E+03 -0.10348961575E+04  0.10957737023E+04  0.15294330000E+03 0.  0.
    8880022    1    1    2    0    0 -0.81894938368E+02  0.31561292090E+03  0.99277411777E+02  0.37358527042E+03  0.15294330000E+03 0.  1.
<mgrwt>
<rscale>  0 0.36015268E+03</rscale>
<asrwt>0</asrwt>
<pdfrwt beam="1">  1        1 0.18499828E+00 0.36015268E+03</pdfrwt>
<pdfrwt beam="2">  1       -1 0.41056941E-01 0.36015268E+03</pdfrwt>
<totfact> 0.66730761E+01</totfact>
</mgrwt>
</event>
<event>
 4    1  0.2731969E-009  0.5582080E+03  0.7818608E-02  0.9996117E-01
          1   -1    0    0  501    0  0.00000000000E+00  0.00000000000E+00  0.21925798870E+04  0.21925798870E+04  0.50400000000E-02 0. -1.
         -1   -1    0    0    0  501 -0.00000000000E+00 -0.00000000000E+00 -0.48538591447E+03  0.48538591450E+03  0.50400000000E-02 0.  1.
    8880022    1    1    2    0    0  0.64851889769E+02 -0.53291536297E+03  0.19796286665E+04  0.20568242176E+04  0.15294330000E+03 0. -1.
    8880022    1    1    2    0    0 -0.64851889769E+02  0.53291536297E+03 -0.27243469403E+03  0.62114158388E+03  0.15294330000E+03 0.  0.
<mgrwt>
<rscale>  0 0.55820803E+03</rscale>
<asrwt>0</asrwt>
<pdfrwt beam="1">  1        1 0.33731998E+00 0.55820803E+03</pdfrwt>
<pdfrwt beam="2">  1       -1 0.74674756E-01 0.55820803E+03</pdfrwt>
<totfact> 0.43664299E+00</totfact>
</mgrwt>
</event>
<event>
 4    1  0.2731969E-009  0.1143027E+04  0.7818608E-02  0.9164240E-01
          1   -1    0    0  501    0  0.00000000000E+00  0.00000000000E+00  0.33855389577E+04  0.33855389577E+04  0.50400000000E-02 0. -1.
         -1   -1    0    0    0  501 -0.00000000000E+00 -0.00000000000E+00 -0.44370574023E+03  0.44370574025E+03  0.50400000000E-02 0.  1.
    8880022    1    1    2    0    0  0.84830835682E+03 -0.75066174940E+03  0.77990516082E+03  0.13837499207E+04  0.15294330000E+03 0.  0.
    8880022    1    1    2    0    0 -0.84830835682E+03  0.75066174940E+03  0.21619280567E+04  0.24454947772E+04  0.15294330000E+03 0.  0.
<mgrwt>
<rscale>  0 0.11430275E+04</rscale>
<asrwt>0</asrwt>
<pdfrwt beam="1">  1        1 0.52085215E+00 0.11430275E+04</pdfrwt>
<pdfrwt beam="2">  1       -1 0.68262421E-01 0.11430275E+04</pdfrwt>
<totfact> 0.67595785E-01</totfact>
</mgrwt>
</event>
<event>
 4    1  0.2731969E-009  0.8844673E+03  0.7818608E-02  0.9445209E-01
         -1   -1    0    0    0  501 -0.00000000000E+00  0.00000000000E+00  0.12153267293E+04  0.12153267293E+04  0.50400000000E-02 0.  1.
          1   -1    0    0  501    0  0.00000000000E+00 -0.00000000000E+00 -0.73573651008E+03  0.73573651010E+03  0.50400000000E-02 0. -1.
    8880022    1    1    2    0    0 -0.77131209605E+03  0.40493014462E+03 -0.10527367421E+03  0.89071037438E+03  0.15294330000E+03 0.  0.
    8880022    1    1    2    0    0  0.77131209605E+03 -0.40493014462E+03  0.58486389345E+03  0.10603528650E+04  0.15294330000E+03 0.  0.
<mgrwt>
<rscale>  0 0.88446731E+03</rscale>
<asrwt>0</asrwt>
<pdfrwt beam="1">  1        1 0.11319023E+00 0.88446731E+03</pdfrwt>
<pdfrwt beam="2">  1       -1 0.18697334E+00 0.88446731E+03</pdfrwt>
<totfact> 0.47641366E+00</totfact>
</mgrwt>
</event>
<event>
 4    1  0.2731969E-009  0.2069917E+04  0.7818608E-02  0.8574612E-01
         -1   -1    0    0    0  501 -0.00000000000E+00  0.00000000000E+00  0.14387285883E+04  0.14387285883E+04  0.50400000000E-02 0.  1.
          1   -1    0    0  501    0  0.00000000000E+00 -0.00000000000E+00 -0.38563956029E+04  0.38563956029E+04  0.50400000000E-02 0. -1.
    8880022    1    1    2    0    0  0.20558704870E+04  0.18590765627E+03  0.54728282019E+02  0.20706404695E+04  0.15294330000E+03 0.  0.
    8880022    1    1    2    0    0 -0.20558704870E+04 -0.18590765627E+03 -0.24723952966E+04  0.32244837217E+04  0.15294330000E+03 0.  0.
<mgrwt>
<rscale>  0 0.20699171E+04</rscale>
<asrwt>0</asrwt>
<pdfrwt beam="1">  1        1 0.59329163E+00 0.20699171E+04</pdfrwt>
<pdfrwt beam="2">  1       -1 0.22134286E+00 0.20699171E+04</pdfrwt>
<totfact> 0.12192009E-02</totfact>
</mgrwt>
</event>
<event>
 4    1  0.2731969E-009  0.5146380E+03  0.7818608E-02  0.1010027E+00
         -1   -1    0    0    0  501 -0.00000000000E+00  0.00000000000E+00  0.12966918200E+03  0.12966918210E+03  0.50400000000E-02 0.  1.
          1   -1    0    0  501    0  0.00000000000E+00 -0.00000000000E+00 -0.33244128088E+04  0.33244128088E+04  0.50400000000E-02 0. -1.
    8880022    1    1    2    0    0  0.11054721810E+03  0.47879009408E+03 -0.26698056557E+04  0.27189546766E+04  0.15294330000E+03 0.  0.
    8880022    1    1    2    0    0 -0.11054721810E+03 -0.47879009408E+03 -0.52493797112E+03  0.73512731425E+03  0.15294330000E+03 0.  0.
<mgrwt>
<rscale>  0 0.51463802E+03</rscale>
<asrwt>0</asrwt>
<pdfrwt beam="1">  1        1 0.51144806E+00 0.51463802E+03</pdfrwt>
<pdfrwt beam="2">  1       -1 0.19949107E-01 0.51463802E+03</pdfrwt>
<totfact> 0.79165753E+00</totfact>
</mgrwt>
</event>
<event>
 4    1  0.2731969E-009  0.1200729E+04  0.7818608E-02  0.9112219E-01
          1   -1    0    0  501    0  0.00000000000E+00  0.00000000000E+00  0.39335655853E+04  0.39335655853E+04  0.50400000000E-02 0. -1.
         -1   -1    0    0    0  501 -0.00000000000E+00 -0.00000000000E+00 -0.61229388070E+03  0.61229388072E+03  0.50400000000E-02 0.  1.
    8880022    1    1    2    0    0 -0.11081812010E+04 -0.43622554618E+03  0.22061250093E+03  0.12208275186E+04  0.15294330000E+03 0.  0.
    8880022    1    1    2    0    0  0.11081812010E+04  0.43622554618E+03  0.31006592037E+04  0.33250319475E+04  0.15294330000E+03 0.  0.
<mgrwt>
<rscale>  0 0.12007289E+04</rscale>
<asrwt>0</asrwt>
<pdfrwt beam="1">  1        1 0.60516394E+00 0.12007289E+04</pdfrwt>
<pdfrwt beam="2">  1       -1 0.94199058E-01 0.12007289E+04</pdfrwt>
<totfact> 0.12132985E-01</totfact>
</mgrwt>
</event>
<event>
 4    1  0.2731969E-009  0.6317178E+03  0.7818608E-02  0.9841702E-01
         -1   -1    0    0    0  501 -0.00000000000E+00  0.00000000000E+00  0.83897373020E+03  0.83897373021E+03  0.50400000000E-02 0.  1.
          1   -1    0    0  501    0  0.00000000000E+00 -0.00000000000E+00 -0.80862501886E+03  0.80862501888E+03  0.50400000000E-02 0. -1.
    8880022    1    1    2    0    0  0.52544575843E+03  0.31556692795E+03  0.54379764105E+03  0.83353659697E+03  0.15294330000E+03 0.  0.
    8880022    1    1    2    0    0 -0.52544575843E+03 -0.31556692795E+03 -0.51344892972E+03  0.81406215212E+03  0.15294330000E+03 0. -1.
<mgrwt>
<rscale>  0 0.63171780E+03</rscale>
<asrwt>0</asrwt>
<pdfrwt beam="1">  1        1 0.12440385E+00 0.63171780E+03</pdfrwt>
<pdfrwt beam="2">  1       -1 0.12907288E+00 0.63171780E+03</pdfrwt>
<totfact> 0.11757670E+01</totfact>
</mgrwt>
</event>
<event>
 4    1  0.2731969E-009  0.7120226E+03  0.7818608E-02  0.9696890E-01
          1   -1    0    0  501    0  0.00000000000E+00  0.00000000000E+00  0.19019400616E+04  0.19019400616E+04  0.50400000000E-02 0. -1.
         -1   -1    0    0    0  501 -0.00000000000E+00 -0.00000000000E+00 -0.44988181576E+03  0.44988181579E+03  0.50400000000E-02 0.  1.
    8880022    1    1    2    0    0  0.68799256724E+03 -0.10124614271E+03  0.14766754428E+04  0.16393738348E+04  0.15294330000E+03 0.  0.
    8880022    1    1    2    0    0 -0.68799256724E+03  0.10124614271E+03 -0.24617196919E+02  0.71244804259E+03  0.15294330000E+03 0.  0.
<mgrwt>
<rscale>  0 0.71202262E+03</rscale>
<asrwt>0</asrwt>
<pdfrwt beam="1">  1        1 0.29260616E+00 0.71202262E+03</pdfrwt>
<pdfrwt beam="2">  1       -1 0.69212587E-01 0.71202262E+03</pdfrwt>
<totfact> 0.77206818E+00</totfact>
</mgrwt>
</event>
<event>
 4    1  0.2731969E-009  0.7145416E+03  0.7818608E-02  0.9692682E-01
          1   -1    0    0  501    0  0.00000000000E+00  0.00000000000E+00  0.24995148679E+04  0.24995148679E+04  0.50400000000E-02 0. -1.
         -1   -1    0    0    0  501 -0.00000000000E+00 -0.00000000000E+00 -0.24516882197E+03  0.24516882202E+03  0.50400000000E-02 0.  1.
    8880022    1    1    2    0    0 -0.14859433959E+03 -0.68198075254E+03  0.16877023072E+04  0.18327325924E+04  0.15294330000E+03 0.  0.
    8880022    1    1    2    0    0  0.14859433959E+03  0.68198075254E+03  0.56664373879E+03  0.91195109755E+03  0.15294330000E+03 0.  0.
<mgrwt>
<rscale>  0 0.71454159E+03</rscale>
<asrwt>0</asrwt>
<pdfrwt beam="1">  1        1 0.38454074E+00 0.71454159E+03</pdfrwt>
<pdfrwt beam="2">  1       -1 0.37718281E-01 0.71454159E+03</pdfrwt>
<totfact> 0.97434323E+00</totfact>
</mgrwt>
</event>
<event>
 4    1  0.2731969E-009  0.8560288E+03  0.7818608E-02  0.9482281E-01
          1   -1    0    0  501    0  0.00000000000E+00  0.00000000000E+00  0.20941373573E+04  0.20941373573E+04  0.50400000000E-02 0. -1.
         -1   -1    0    0    0  501 -0.00000000000E+00 -0.00000000000E+00 -0.12033639635E+04  0.12033639635E+04  0.50400000000E-02 0.  1.
    8880022    1    1    2    0    0 -0.40678252330E+03  0.73751038349E+03 -0.94310541400E+03  0.12736691336E+04  0.15294330000E+03 0.  1.
    8880022    1    1    2    0    0  0.40678252330E+03 -0.73751038349E+03  0.18338788078E+04  0.20238321871E+04  0.15294330000E+03 0.  0.
<mgrwt>
<rscale>  0 0.85602876E+03</rscale>
<asrwt>0</asrwt>
<pdfrwt beam="1">  1        1 0.32217497E+00 0.85602876E+03</pdfrwt>
<pdfrwt beam="2">  1       -1 0.18513292E+00 0.85602876E+03</pdfrwt>
<totfact> 0.51192320E-01</totfact>
</mgrwt>
</event>
<event>
 4    1  0.2731969E-009  0.8625026E+03  0.7818608E-02  0.9473708E-01
         -1   -1    0    0    0  501 -0.00000000000E+00  0.00000000000E+00  0.86837030109E+03  0.86837030110E+03  0.50400000000E-02 0.  1.
          1   -1    0    0  501    0  0.00000000000E+00 -0.00000000000E+00 -0.20714789676E+04  0.20714789676E+04  0.50400000000E-02 0. -1.
    8880022    1    1    2    0    0 -0.84870337667E+03 -0.14888269796E+02  0.52410761590E+03  0.10092569188E+04  0.15294330000E+03 0.  0.
    8880022    1    1    2    0    0  0.84870337667E+03  0.14888269796E+02 -0.17272162824E+04  0.19305923499E+04  0.15294330000E+03 0.  0.
<mgrwt>
<rscale>  0 0.86250260E+03</rscale>
<asrwt>0</asrwt>
<pdfrwt beam="1">  1        1 0.31868907E+00 0.86250260E+03</pdfrwt>
<pdfrwt beam="2">  1       -1 0.13359543E+00 0.86250260E+03</pdfrwt>
<totfact> 0.13051990E+00</totfact>
</mgrwt>
</event>
<event>
 4    1  0.2731969E-009  0.4443140E+03  0.7818608E-02  0.1029431E+00
          1   -1    0    0  501    0  0.00000000000E+00  0.00000000000E+00  0.58418048771E+03  0.58418048774E+03  0.50400000000E-02 0. -1.
         -1   -1    0    0    0  501 -0.00000000000E+00 -0.00000000000E+00 -0.20024936498E+04  0.20024936498E+04  0.50400000000E-02 0.  1.
    8880022    1    1    2    0    0 -0.24508394743E+03 -0.33757534894E+03  0.47001154079E+03  0.64678107502E+03  0.15294330000E+03 0.  0.
    8880022    1    1    2    0    0  0.24508394743E+03  0.33757534894E+03 -0.18883247028E+04  0.19398930625E+04  0.15294330000E+03 0.  0.
<mgrwt>
<rscale>  0 0.44431398E+03</rscale>
<asrwt>0</asrwt>
<pdfrwt beam="1">  1        1 0.89873923E-01 0.44431398E+03</pdfrwt>
<pdfrwt beam="2">  1       -1 0.30807594E+00 0.44431398E+03</pdfrwt>
<totfact> 0.11863623E+00</totfact>
</mgrwt>
</event>
<event>
 4    1  0.2731969E-009  0.8671008E+03  0.7818608E-02  0.9467668E-01
          1   -1    0    0  501    0  0.00000000000E+00  0.00000000000E+00  0.29403014593E+04  0.29403014593E+04  0.50400000000E-02 0. -1.
         -1   -1    0    0    0  501 -0.00000000000E+00 -0.00000000000E+00 -0.65316800780E+03  0.65316800782E+03  0.50400000000E-02 0.  1.
    8880022    1    1    2    0    0 -0.81376694991E+03  0.25740138988E+03 -0.25801126297E+03  0.90467319465E+03  0.15294330000E+03 0.  0.
    8880022    1    1    2    0    0  0.81376694991E+03 -0.25740138988E+03  0.25451447145E+04  0.26887962725E+04  0.15294330000E+03 0.  0.
<mgrwt>
<rscale>  0 0.86710079E+03</rscale>
<asrwt>0</asrwt>
<pdfrwt beam="1">  1        1 0.45235407E+00 0.86710079E+03</pdfrwt>
<pdfrwt beam="2">  1       -1 0.10048738E+00 0.86710079E+03</pdfrwt>
<totfact> 0.65521187E-01</totfact>
</mgrwt>
</event>
<event>
 4    1  0.2731969E-009  0.5976295E+03  0.7818608E-02  0.9910336E-01
         -1   -1    0    0    0  501 -0.00000000000E+00  0.00000000000E+00  0.47225718547E+03  0.47225718550E+03  0.50400000000E-02 0.  1.
          1   -1    0    0  501    0  0.00000000000E+00 -0.00000000000E+00 -0.32244402094E+04  0.32244402094E+04  0.50400000000E-02 0. -1.
    8880022    1    1    2    0    0 -0.57726336654E+03  0.23158443496E+02  0.24103123869E+03  0.64440439081E+03  0.15294330000E+03 0.  1.
    8880022    1    1    2    0    0  0.57726336654E+03 -0.23158443496E+02 -0.29932142626E+04  0.30522930041E+04  0.15294330000E+03 0.  0.
<mgrwt>
<rscale>  0 0.59762945E+03</rscale>
<asrwt>0</asrwt>
<pdfrwt beam="1">  1        1 0.49606771E+00 0.59762945E+03</pdfrwt>
<pdfrwt beam="2">  1       -1 0.72654954E-01 0.59762945E+03</pdfrwt>
<totfact> 0.87885625E-01</totfact>
</mgrwt>
</event>
<event>
 4    1  0.2731969E-009  0.9043717E+03  0.7818608E-02  0.9420133E-01
         -1   -1    0    0    0  501 -0.00000000000E+00  0.00000000000E+00  0.65230641850E+03  0.65230641852E+03  0.50400000000E-02 0.  1.
          1   -1    0    0  501    0  0.00000000000E+00 -0.00000000000E+00 -0.19306483624E+04  0.19306483625E+04  0.50400000000E-02 0. -1.
    8880022    1    1    2    0    0 -0.60252678931E+03  0.65685467470E+03 -0.14038301290E+04  0.16699183452E+04  0.15294330000E+03 0.  0.
    8880022    1    1    2    0    0  0.60252678931E+03 -0.65685467470E+03  0.12548818502E+03  0.91303643580E+03  0.15294330000E+03 0.  0.
<mgrwt>
<rscale>  0 0.90437174E+03</rscale>
<asrwt>0</asrwt>
<pdfrwt beam="1">  1        1 0.29702282E+00 0.90437174E+03</pdfrwt>
<pdfrwt beam="2">  1       -1 0.10035483E+00 0.90437174E+03</pdfrwt>
<totfact> 0.32156342E+00</totfact>
</mgrwt>
</event>
<event>
 4    1  0.2731969E-009  0.1072172E+04  0.7818608E-02  0.9232748E-01
         -1   -1    0    0    0  501 -0.00000000000E+00  0.00000000000E+00  0.26254453869E+04  0.26254453869E+04  0.50400000000E-02 0.  1.
          1   -1    0    0  501    0  0.00000000000E+00 -0.00000000000E+00 -0.49781808391E+03  0.49781808393E+03  0.50400000000E-02 0. -1.
    8880022    1    1    2    0    0 -0.10612035328E+04 -0.27633176449E+01  0.16058170979E+04  0.19308549347E+04  0.15294330000E+03 0.  0.
    8880022    1    1    2    0    0  0.10612035328E+04  0.27633176449E+01  0.52181020508E+03  0.11924085361E+04  0.15294330000E+03 0. -1.
<mgrwt>
<rscale>  0 0.10721717E+04</rscale>
<asrwt>0</asrwt>
<pdfrwt beam="1">  1        1 0.76587397E-01 0.10721717E+04</pdfrwt>
<pdfrwt beam="2">  1       -1 0.40391468E+00 0.10721717E+04</pdfrwt>
<totfact> 0.30445595E-01</totfact>
</mgrwt>
</event>
<event>
 4    1  0.2731969E-009  0.4099219E+03  0.7818608E-02  0.1040397E+00
         -1   -1    0    0    0  501 -0.00000000000E+00  0.00000000000E+00  0.10443040743E+03  0.10443040755E+03  0.50400000000E-02 0.  1.
          1   -1    0    0  501    0  0.00000000000E+00 -0.00000000000E+00 -0.20143149702E+04  0.20143149702E+04  0.50400000000E-02 0. -1.
    8880022    1    1    2    0    0  0.23562494138E+03 -0.29853846894E+03 -0.47977870638E+03  0.63104959436E+03  0.15294330000E+03 0.  0.
    8880022    1    1    2    0    0 -0.23562494138E+03  0.29853846894E+03 -0.14301058564E+04  0.14876957834E+04  0.15294330000E+03 0. -1.
<mgrwt>
<rscale>  0 0.40992192E+03</rscale>
<asrwt>0</asrwt>
<pdfrwt beam="1">  1        1 0.30989458E+00 0.40992192E+03</pdfrwt>
<pdfrwt beam="2">  1       -1 0.16066218E-01 0.40992192E+03</pdfrwt>
<totfact> 0.92555107E+01</totfact>
</mgrwt>
</event>
<event>
 4    1  0.2731969E-009  0.1406728E+04  0.7818608E-02  0.8948963E-01
          1   -1    0    0  501    0  0.00000000000E+00  0.00000000000E+00  0.27729118180E+04  0.27729118180E+04  0.50400000000E-02 0. -1.
         -1   -1    0    0    0  501 -0.00000000000E+00 -0.00000000000E+00 -0.85260664151E+03  0.85260664153E+03  0.50400000000E-02 0.  1.
    8880022    1    1    2    0    0  0.12461532331E+04 -0.63450349767E+03  0.16919786062E+04  0.22003808365E+04  0.15294330000E+03 0.  0.
    8880022    1    1    2    0    0 -0.12461532331E+04  0.63450349767E+03  0.22832657029E+03  0.14251376230E+04  0.15294330000E+03 0.  0.
<mgrwt>
<rscale>  0 0.14067282E+04</rscale>
<asrwt>0</asrwt>
<pdfrwt beam="1">  1        1 0.42660181E+00 0.14067282E+04</pdfrwt>
<pdfrwt beam="2">  1       -1 0.13117026E+00 0.14067282E+04</pdfrwt>
<totfact> 0.41632388E-01</totfact>
</mgrwt>
</event>
<event>
 4    1  0.2731969E-009  0.1085178E+04  0.7818608E-02  0.9219760E-01
         -1   -1    0    0    0  501 -0.00000000000E+00  0.00000000000E+00  0.62553041654E+03  0.62553041656E+03  0.50400000000E-02 0.  1.
          1   -1    0    0  501    0  0.00000000000E+00 -0.00000000000E+00 -0.42420847418E+04  0.42420847418E+04  0.50400000000E-02 0. -1.
    8880022    1    1    2    0    0 -0.10633231516E+03 -0.10690711299E+04 -0.36234039274E+04  0.37824155398E+04  0.15294330000E+03 0.  0.
    8880022    1    1    2    0    0  0.10633231516E+03  0.10690711299E+04  0.68496021107E+01  0.10851996185E+04  0.15294330000E+03 0.  0.
<mgrwt>
<rscale>  0 0.10851780E+04</rscale>
<asrwt>0</asrwt>
<pdfrwt beam="1">  1        1 0.65262840E+00 0.10851780E+04</pdfrwt>
<pdfrwt beam="2">  1       -1 0.96235451E-01 0.10851780E+04</pdfrwt>
<totfact> 0.62722941E-02</totfact>
</mgrwt>
</event>
<event>
 4    1  0.2731969E-009  0.1597083E+03  0.7818608E-02  0.1189026E+00
          1   -1    0    0  501    0  0.00000000000E+00  0.00000000000E+00  0.16432243866E+04  0.16432243866E+04  0.50400000000E-02 0. -1.
         -1   -1    0    0    0  501 -0.00000000000E+00 -0.00000000000E+00 -0.74556712038E+02  0.74556712208E+02  0.50400000000E-02 0.  1.
    8880022    1    1    2    0    0 -0.18279526299E+02  0.42201292871E+02  0.15486038154E+04  0.15568174332E+04  0.15294330000E+03 0. -1.
    8880022    1    1    2    0    0  0.18279526299E+02 -0.42201292871E+02  0.20063859197E+02  0.16096366566E+03  0.15294330000E+03 0.  0.
<mgrwt>
<rscale>  0 0.15970831E+03</rscale>
<asrwt>0</asrwt>
<pdfrwt beam="1">  1        1 0.25280376E+00 0.15970831E+03</pdfrwt>
<pdfrwt beam="2">  1       -1 0.11470263E-01 0.15970831E+03</pdfrwt>
<totfact> 0.29143622E+02</totfact>
</mgrwt>
</event>
<event>
 4    1  0.2731969E-009  0.1168328E+04  0.7818608E-02  0.9141039E-01
          1   -1    0    0  501    0  0.00000000000E+00  0.00000000000E+00  0.21856520462E+04  0.21856520462E+04  0.50400000000E-02 0. -1.
         -1   -1    0    0    0  501 -0.00000000000E+00 -0.00000000000E+00 -0.84810890910E+03  0.84810890911E+03  0.50400000000E-02 0.  1.
    8880022    1    1    2    0    0  0.11515775788E+04  0.12437393076E+03  0.14476095255E+04  0.18602593330E+04  0.15294330000E+03 0.  0.
    8880022    1    1    2    0    0 -0.11515775788E+04 -0.12437393076E+03 -0.11006638842E+03  0.11735016223E+04  0.15294330000E+03 0.  0.
<mgrwt>
<rscale>  0 0.11683285E+04</rscale>
<asrwt>0</asrwt>
<pdfrwt beam="1">  1        1 0.33625416E+00 0.11683285E+04</pdfrwt>
<pdfrwt beam="2">  1       -1 0.13047830E+00 0.11683285E+04</pdfrwt>
<totfact> 0.11075684E+00</totfact>
</mgrwt>
</event>
<event>
 4    1  0.2731969E-009  0.3851988E+03  0.7818608E-02  0.1049029E+00
          1   -1    0    0  501    0  0.00000000000E+00  0.00000000000E+00  0.37244935921E+03  0.37244935924E+03  0.50400000000E-02 0. -1.
         -1   -1    0    0    0  501 -0.00000000000E+00 -0.00000000000E+00 -0.77196826923E+03  0.77196826925E+03  0.50400000000E-02 0.  1.
    8880022    1    1    2    0    0 -0.23671799420E+03 -0.26258530472E+03  0.19830072652E+03  0.43324506020E+03  0.15294330000E+03 0. -1.
    8880022    1    1    2    0    0  0.23671799420E+03  0.26258530472E+03 -0.59781963655E+03  0.71117256829E+03  0.15294330000E+03 0.  0.
<mgrwt>
<rscale>  0 0.38519879E+03</rscale>
<asrwt>0</asrwt>
<pdfrwt beam="1">  1        1 0.57299902E-01 0.38519879E+03</pdfrwt>
<pdfrwt beam="2">  1       -1 0.11876435E+00 0.38519879E+03</pdfrwt>
<totfact> 0.44617746E+01</totfact>
</mgrwt>
</event>
<event>
 4    1  0.2731969E-009  0.1007486E+04  0.7818608E-02  0.9300372E-01
          1   -1    0    0  501    0  0.00000000000E+00  0.00000000000E+00  0.20901829480E+04  0.20901829480E+04  0.50400000000E-02 0. -1.
         -1   -1    0    0    0  501 -0.00000000000E+00 -0.00000000000E+00 -0.58835054302E+03  0.58835054305E+03  0.50400000000E-02 0.  1.
    8880022    1    1    2    0    0  0.78787151774E+03  0.60901213629E+03  0.19128162303E+03  0.10254840920E+04  0.15294330000E+03 0.  0.
    8880022    1    1    2    0    0 -0.78787151774E+03 -0.60901213629E+03  0.13105507819E+04  0.16530493990E+04  0.15294330000E+03 0. -1.
<mgrwt>
<rscale>  0 0.10074865E+04</rscale>
<asrwt>0</asrwt>
<pdfrwt beam="1">  1        1 0.32156661E+00 0.10074865E+04</pdfrwt>
<pdfrwt beam="2">  1       -1 0.90515467E-01 0.10074865E+04</pdfrwt>
<totfact> 0.31221052E+00</totfact>
</mgrwt>
</event>
<event>
 4    1  0.2731969E-009  0.1024334E+04  0.7818608E-02  0.9282251E-01
          1   -1    0    0  501    0  0.00000000000E+00  0.00000000000E+00  0.13127278136E+04  0.13127278136E+04  0.50400000000E-02 0. -1.
         -1   -1    0    0    0  501 -0.00000000000E+00 -0.00000000000E+00 -0.11585054189E+04  0.11585054189E+04  0.50400000000E-02 0.  1.
    8880022    1    1    2    0    0 -0.32179980794E+03  0.96037150215E+03  0.76514154670E+03  0.12785545659E+04  0.15294330000E+03 0.  0.
    8880022    1    1    2    0    0  0.32179980794E+03 -0.96037150215E+03 -0.61091915195E+03  0.11926786666E+04  0.15294330000E+03 0.  0.
<mgrwt>
<rscale>  0 0.10243340E+04</rscale>
<asrwt>0</asrwt>
<pdfrwt beam="1">  1        1 0.20195812E+00 0.10243340E+04</pdfrwt>
<pdfrwt beam="2">  1       -1 0.17823160E+00 0.10243340E+04</pdfrwt>
<totfact> 0.19011140E+00</totfact>
</mgrwt>
</event>
<event>
 4    1  0.2731969E-009  0.1291062E+04  0.7818608E-02  0.9036683E-01
         -1   -1    0    0    0  501 -0.00000000000E+00  0.00000000000E+00  0.73570830954E+03  0.73570830956E+03  0.50400000000E-02 0.  1.
          1   -1    0    0  501    0  0.00000000000E+00 -0.00000000000E+00 -0.29101955245E+04  0.29101955245E+04  0.50400000000E-02 0. -1.
    8880022    1    1    2    0    0 -0.12598648205E+04 -0.23704402906E+03 -0.22932013899E+03  0.13112698490E+04  0.15294330000E+03 0.  0.
    8880022    1    1    2    0    0  0.12598648205E+04  0.23704402906E+03 -0.19451670760E+04  0.23346339850E+04  0.15294330000E+03 0.  0.
<mgrwt>
<rscale>  0 0.12910619E+04</rscale>
<asrwt>0</asrwt>
<pdfrwt beam="1">  1        1 0.44772239E+00 0.12910619E+04</pdfrwt>
<pdfrwt beam="2">  1       -1 0.11318589E+00 0.12910619E+04</pdfrwt>
<totfact> 0.48604810E-01</totfact>
</mgrwt>
</event>
<event>
 4    1  0.2731969E-009  0.1373651E+04  0.7818608E-02  0.8973115E-01
         -1   -1    0    0    0  501 -0.00000000000E+00  0.00000000000E+00  0.73503293716E+03  0.73503293717E+03  0.50400000000E-02 0.  1.
          1   -1    0    0  501    0  0.00000000000E+00 -0.00000000000E+00 -0.32593408237E+04  0.32593408237E+04  0.50400000000E-02 0. -1.
    8880022    1    1    2    0    0  0.21041888248E+03  0.13487951670E+04 -0.21825544004E+04  0.25788485555E+04  0.15294330000E+03 0.  0.
    8880022    1    1    2    0    0 -0.21041888248E+03 -0.13487951670E+04 -0.34175348614E+03  0.14155252053E+04  0.15294330000E+03 0.  0.
<mgrwt>
<rscale>  0 0.13736507E+04</rscale>
<asrwt>0</asrwt>
<pdfrwt beam="1">  1        1 0.50143704E+00 0.13736507E+04</pdfrwt>
<pdfrwt beam="2">  1       -1 0.11308199E+00 0.13736507E+04</pdfrwt>
<totfact> 0.26702748E-01</totfact>
</mgrwt>
</event>
<event>
 4    1  0.2731969E-009  0.7913040E+03  0.7818608E-02  0.9572690E-01
          1   -1    0    0  501    0  0.00000000000E+00  0.00000000000E+00  0.15696629965E+04  0.15696629965E+04  0.50400000000E-02 0. -1.
         -1   -1    0    0    0  501 -0.00000000000E+00 -0.00000000000E+00 -0.21687263346E+04  0.21687263346E+04  0.50400000000E-02 0.  1.
    8880022    1    1    2    0    0  0.73845458971E+03  0.23969804857E+03  0.13890250462E+04  0.15986095732E+04  0.15294330000E+03 0.  0.
    8880022    1    1    2    0    0 -0.73845458971E+03 -0.23969804857E+03 -0.19880883843E+04  0.21397797579E+04  0.15294330000E+03 0.  0.
<mgrwt>
<rscale>  0 0.79130398E+03</rscale>
<asrwt>0</asrwt>
<pdfrwt beam="1">  1        1 0.24148661E+00 0.79130398E+03</pdfrwt>
<pdfrwt beam="2">  1       -1 0.33365021E+00 0.79130398E+03</pdfrwt>
<totfact> 0.12484350E-01</totfact>
</mgrwt>
</event>
<event>
 4    1  0.2731969E-009  0.3587542E+03  0.7818608E-02  0.1059078E+00
          1   -1    0    0  501    0  0.00000000000E+00  0.00000000000E+00  0.19302162755E+04  0.19302162755E+04  0.50400000000E-02 0. -1.
         -1   -1    0    0    0  501 -0.00000000000E+00 -0.00000000000E+00 -0.61305504688E+03  0.61305504690E+03  0.50400000000E-02 0.  1.
    8880022    1    1    2    0    0  0.10995767095E+03  0.30532312407E+03 -0.54191024623E+03  0.64990096743E+03  0.15294330000E+03 0.  1.
    8880022    1    1    2    0    0 -0.10995767095E+03 -0.30532312407E+03  0.18590714748E+04  0.18933703550E+04  0.15294330000E+03 0.  0.
<mgrwt>
<rscale>  0 0.35875417E+03</rscale>
<asrwt>0</asrwt>
<pdfrwt beam="1">  1        1 0.29695635E+00 0.35875417E+03</pdfrwt>
<pdfrwt beam="2">  1       -1 0.94316161E-01 0.35875417E+03</pdfrwt>
<totfact> 0.42077956E+00</totfact>
</mgrwt>
</event>
<event>
 4    1  0.2731969E-009  0.5521363E+03  0.7818608E-02  0.1001001E+00
          1   -1    0    0  501    0  0.00000000000E+00  0.00000000000E+00  0.15135649858E+04  0.15135649858E+04  0.50400000000E-02 0. -1.
         -1   -1    0    0    0  501 -0.00000000000E+00 -0.00000000000E+00 -0.67945408729E+03  0.67945408731E+03  0.50400000000E-02 0.  1.
    8880022    1    1    2    0    0 -0.48137511592E+03  0.22302665054E+03  0.13367933949E+04  0.14463302261E+04  0.15294330000E+03 0.  0.
    8880022    1    1    2    0    0  0.48137511592E+03 -0.22302665054E+03 -0.50268249643E+03  0.74668884705E+03  0.15294330000E+03 0.  0.
<mgrwt>
<rscale>  0 0.55213634E+03</rscale>
<asrwt>0</asrwt>
<pdfrwt beam="1">  1        1 0.23285615E+00 0.55213634E+03</pdfrwt>
<pdfrwt beam="2">  1       -1 0.10453140E+00 0.55213634E+03</pdfrwt>
<totfact> 0.59568252E+00</totfact>
</mgrwt>
</event>
<event>
 4    1  0.2731969E-009  0.8224909E+03  0.7818608E-02  0.9528021E-01
          1   -1    0    0  501    0  0.00000000000E+00  0.00000000000E+00  0.14188854382E+04  0.14188854382E+04  0.50400000000E-02 0. -1.
         -1   -1    0    0    0  501 -0.00000000000E+00 -0.00000000000E+00 -0.27013145681E+04  0.27013145681E+04  0.50400000000E-02 0.  1.
    8880022    1    1    2    0    0  0.40817879726E+03 -0.69748814842E+03 -0.25106937706E+04  0.26419830640E+04  0.15294330000E+03 0.  0.
    8880022    1    1    2    0    0 -0.40817879726E+03  0.69748814842E+03  0.12282646407E+04  0.14782169423E+04  0.15294330000E+03 0.  0.
<mgrwt>
<rscale>  0 0.82249091E+03</rscale>
<asrwt>0</asrwt>
<pdfrwt beam="1">  1        1 0.21829007E+00 0.82249091E+03</pdfrwt>
<pdfrwt beam="2">  1       -1 0.41558686E+00 0.82249091E+03</pdfrwt>
<totfact> 0.44667365E-02</totfact>
</mgrwt>
</event>
<event>
 4    1  0.2731969E-009  0.5458056E+03  0.7818608E-02  0.1002469E+00
          1   -1    0    0  501    0  0.00000000000E+00  0.00000000000E+00  0.24879916714E+03  0.24879916719E+03  0.50400000000E-02 0. -1.
         -1   -1    0    0    0  501 -0.00000000000E+00 -0.00000000000E+00 -0.21496904803E+04  0.21496904803E+04  0.50400000000E-02 0.  1.
    8880022    1    1    2    0    0  0.35270267608E+03 -0.38744413826E+03 -0.15224470089E+03  0.56664119154E+03  0.15294330000E+03 0.  0.
    8880022    1    1    2    0    0 -0.35270267608E+03  0.38744413826E+03 -0.17486466122E+04  0.18318484559E+04  0.15294330000E+03 0.  0.
<mgrwt>
<rscale>  0 0.54580563E+03</rscale>
<asrwt>0</asrwt>
<pdfrwt beam="1">  1        1 0.38276796E-01 0.54580563E+03</pdfrwt>
<pdfrwt beam="2">  1       -1 0.33072160E+00 0.54580563E+03</pdfrwt>
<totfact> 0.25501560E+00</totfact>
</mgrwt>
</event>
<event>
 4    1  0.2731969E-009  0.1783824E+04  0.7818608E-02  0.8714949E-01
          1   -1    0    0  501    0  0.00000000000E+00  0.00000000000E+00  0.21410011798E+04  0.21410011798E+04  0.50400000000E-02 0. -1.
         -1   -1    0    0    0  501 -0.00000000000E+00 -0.00000000000E+00 -0.17752362848E+04  0.17752362848E+04  0.50400000000E-02 0.  1.
    8880022    1    1    2    0    0 -0.16871764640E+04 -0.55863402335E+03 -0.60718073435E+03  0.18843291883E+04  0.15294330000E+03 0.  0.
    8880022    1    1    2    0    0  0.16871764640E+04  0.55863402335E+03  0.97294562932E+03  0.20319082763E+04  0.15294330000E+03 0.  0.
<mgrwt>
<rscale>  0 0.17838240E+04</rscale>
<asrwt>0</asrwt>
<pdfrwt beam="1">  1        1 0.32938480E+00 0.17838240E+04</pdfrwt>
<pdfrwt beam="2">  1       -1 0.27311327E+00 0.17838240E+04</pdfrwt>
<totfact> 0.10752152E-01</totfact>
</mgrwt>
</event>
<event>
 4    1  0.2731969E-009  0.6381777E+03  0.7818608E-02  0.9829219E-01
         -1   -1    0    0    0  501 -0.00000000000E+00  0.00000000000E+00  0.13913559356E+04  0.13913559356E+04  0.50400000000E-02 0.  1.
          1   -1    0    0  501    0  0.00000000000E+00 -0.00000000000E+00 -0.12845186133E+04  0.12845186133E+04  0.50400000000E-02 0. -1.
    8880022    1    1    2    0    0  0.39226313197E+03  0.47959225055E+03  0.12290696045E+04  0.13848764700E+04  0.15294330000E+03 0.  0.
    8880022    1    1    2    0    0 -0.39226313197E+03 -0.47959225055E+03 -0.11222322822E+04  0.12909980789E+04  0.15294330000E+03 0.  0.
<mgrwt>
<rscale>  0 0.63817767E+03</rscale>
<asrwt>0</asrwt>
<pdfrwt beam="1">  1        1 0.19761825E+00 0.63817767E+03</pdfrwt>
<pdfrwt beam="2">  1       -1 0.21405476E+00 0.63817767E+03</pdfrwt>
<totfact> 0.12052190E+00</totfact>
</mgrwt>
</event>
<event>
 4    1  0.2731969E-009  0.4279962E+03  0.7818608E-02  0.1034495E+00
         -1   -1    0    0    0  501 -0.00000000000E+00  0.00000000000E+00  0.12803125837E+04  0.12803125837E+04  0.50400000000E-02 0.  1.
          1   -1    0    0  501    0  0.00000000000E+00 -0.00000000000E+00 -0.65182115110E+03  0.65182115112E+03  0.50400000000E-02 0. -1.
    8880022    1    1    2    0    0 -0.31855751404E+03 -0.24147514182E+03  0.11677260339E+04  0.12436900245E+04  0.15294330000E+03 0.  1.
    8880022    1    1    2    0    0  0.31855751404E+03  0.24147514182E+03 -0.53923460135E+03  0.68844371024E+03  0.15294330000E+03 0.  0.
<mgrwt>
<rscale>  0 0.42799625E+03</rscale>
<asrwt>0</asrwt>
<pdfrwt beam="1">  1        1 0.10028018E+00 0.42799625E+03</pdfrwt>
<pdfrwt beam="2">  1       -1 0.19697117E+00 0.42799625E+03</pdfrwt>
<totfact> 0.52855516E+00</totfact>
</mgrwt>
</event>
<event>
 4    1  0.2731969E-009  0.7771412E+03  0.7818608E-02  0.9593707E-01
          1   -1    0    0  501    0  0.00000000000E+00  0.00000000000E+00  0.85524923690E+03  0.85524923691E+03  0.50400000000E-02 0. -1.
         -1   -1    0    0    0  501 -0.00000000000E+00 -0.00000000000E+00 -0.76384655423E+03  0.76384655425E+03  0.50400000000E-02 0.  1.
    8880022    1    1    2    0    0  0.76070826255E+03  0.43355492569E+02 -0.17675873738E+03  0.79698937490E+03  0.15294330000E+03 0.  0.
    8880022    1    1    2    0    0 -0.76070826255E+03 -0.43355492569E+02  0.26816142004E+03  0.82210641626E+03  0.15294330000E+03 0.  0.
<mgrwt>
<rscale>  0 0.77714118E+03</rscale>
<asrwt>0</asrwt>
<pdfrwt beam="1">  1        1 0.13157681E+00 0.77714118E+03</pdfrwt>
<pdfrwt beam="2">  1       -1 0.11751485E+00 0.77714118E+03</pdfrwt>
<totfact> 0.13257996E+01</totfact>
</mgrwt>
</event>
<event>
 4    1  0.2731969E-009  0.6512198E+03  0.7818608E-02  0.9804493E-01
          1   -1    0    0  501    0  0.00000000000E+00  0.00000000000E+00  0.27929369431E+04  0.27929369431E+04  0.50400000000E-02 0. -1.
         -1   -1    0    0    0  501 -0.00000000000E+00 -0.00000000000E+00 -0.38311246383E+03  0.38311246387E+03  0.50400000000E-02 0.  1.
    8880022    1    1    2    0    0 -0.18648715056E+03 -0.60491162186E+03 -0.28912602757E+02  0.65186127297E+03  0.15294330000E+03 0.  0.
    8880022    1    1    2    0    0  0.18648715056E+03  0.60491162186E+03  0.24387370820E+04  0.25241881340E+04  0.15294330000E+03 0.  0.
<mgrwt>
<rscale>  0 0.65121976E+03</rscale>
<asrwt>0</asrwt>
<pdfrwt beam="1">  1        1 0.42968260E+00 0.65121976E+03</pdfrwt>
<pdfrwt beam="2">  1       -1 0.58940379E-01 0.65121976E+03</pdfrwt>
<totfact> 0.26849496E+00</totfact>
</mgrwt>
</event>
<event>
 4    1  0.2731969E-009  0.8759518E+03  0.7818608E-02  0.9456152E-01
          1   -1    0    0  501    0  0.00000000000E+00  0.00000000000E+00  0.14946190230E+04  0.14946190230E+04  0.50400000000E-02 0. -1.
         -1   -1    0    0    0  501 -0.00000000000E+00 -0.00000000000E+00 -0.89931695694E+03  0.89931695696E+03  0.50400000000E-02 0.  1.
    8880022    1    1    2    0    0 -0.47701595249E+03  0.71857889911E+03  0.10817851597E+04  0.13919592803E+04  0.15294330000E+03 0.  0.
    8880022    1    1    2    0    0  0.47701595249E+03 -0.71857889911E+03 -0.48648309369E+03  0.10019766996E+04  0.15294330000E+03 0.  0.
<mgrwt>
<rscale>  0 0.87595177E+03</rscale>
<asrwt>0</asrwt>
<pdfrwt beam="1">  1        1 0.22994139E+00 0.87595177E+03</pdfrwt>
<pdfrwt beam="2">  1       -1 0.13835646E+00 0.87595177E+03</pdfrwt>
<totfact> 0.29183474E+00</totfact>
</mgrwt>
</event>
<event>
 4    1  0.2731969E-009  0.8184132E+03  0.7818608E-02  0.9533741E-01
          1   -1    0    0  501    0  0.00000000000E+00  0.00000000000E+00  0.17235312554E+04  0.17235312554E+04  0.50400000000E-02 0. -1.
         -1   -1    0    0    0  501 -0.00000000000E+00 -0.00000000000E+00 -0.44280608034E+03  0.44280608036E+03  0.50400000000E-02 0.  1.
    8880022    1    1    2    0    0 -0.73282176691E+03 -0.33072764809E+03  0.10192671061E+04  0.13071746654E+04  0.15294330000E+03 0.  0.
    8880022    1    1    2    0    0  0.73282176691E+03  0.33072764809E+03  0.26145806891E+03  0.85916267033E+03  0.15294330000E+03 0.  0.
<mgrwt>
<rscale>  0 0.81841320E+03</rscale>
<asrwt>0</asrwt>
<pdfrwt beam="1">  1        1 0.26515865E+00 0.81841320E+03</pdfrwt>
<pdfrwt beam="2">  1       -1 0.68124012E-01 0.81841320E+03</pdfrwt>
<totfact> 0.10331292E+01</totfact>
</mgrwt>
</event>
<event>
 4    1  0.2731969E-009  0.2082943E+03  0.7818608E-02  0.1142924E+00
         -1   -1    0    0    0  501 -0.00000000000E+00  0.00000000000E+00  0.57265668314E+03  0.57265668316E+03  0.50400000000E-02 0.  1.
          1   -1    0    0  501    0  0.00000000000E+00 -0.00000000000E+00 -0.21054564368E+04  0.21054564368E+04  0.50400000000E-02 0. -1.
    8880022    1    1    2    0    0 -0.14028205351E+03  0.17771163965E+02  0.54834338228E+03  0.58657223486E+03  0.15294330000E+03 0.  0.
    8880022    1    1    2    0    0  0.14028205351E+03 -0.17771163965E+02 -0.20811431360E+04  0.20915408851E+04  0.15294330000E+03 0. -1.
<mgrwt>
<rscale>  0 0.20829432E+03</rscale>
<asrwt>0</asrwt>
<pdfrwt beam="1">  1        1 0.32391637E+00 0.20829432E+03</pdfrwt>
<pdfrwt beam="2">  1       -1 0.88101029E-01 0.20829432E+03</pdfrwt>
<totfact> 0.40649746E+00</totfact>
</mgrwt>
</event>
<event>
 4    1  0.2731969E-009  0.5125322E+03  0.7818608E-02  0.1010559E+00
         -1   -1    0    0    0  501 -0.00000000000E+00  0.00000000000E+00  0.60348938992E+03  0.60348938994E+03  0.50400000000E-02 0.  1.
          1   -1    0    0  501    0  0.00000000000E+00 -0.00000000000E+00 -0.29706172730E+04  0.29706172730E+04  0.50400000000E-02 0. -1.
    8880022    1    1    2    0    0 -0.99332080069E+01  0.48907962922E+03 -0.28345055018E+04  0.28804705596E+04  0.15294330000E+03 0. -1.
    8880022    1    1    2    0    0  0.99332080069E+01 -0.48907962922E+03  0.46737761869E+03  0.69363610330E+03  0.15294330000E+03 0.  0.
<mgrwt>
<rscale>  0 0.51253215E+03</rscale>
<asrwt>0</asrwt>
<pdfrwt beam="1">  1        1 0.45701803E+00 0.51253215E+03</pdfrwt>
<pdfrwt beam="2">  1       -1 0.92844523E-01 0.51253215E+03</pdfrwt>
<totfact> 0.81717167E-01</totfact>
</mgrwt>
</event>
<event>
 4    1  0.2731969E-009  0.3071750E+03  0.7818608E-02  0.1081708E+00
          1   -1    0    0  501    0  0.00000000000E+00  0.00000000000E+00  0.22987460031E+03  0.22987460037E+03  0.50400000000E-02 0. -1.
         -1   -1    0    0    0  501 -0.00000000000E+00 -0.00000000000E+00 -0.55451163801E+03  0.55451163803E+03  0.50400000000E-02 0.  1.
    8880022    1    1    2    0    0  0.25461367598E+03 -0.78337292316E+02 -0.36220777058E+03  0.47492207513E+03  0.15294330000E+03 0.  0.
    8880022    1    1    2    0    0 -0.25461367598E+03  0.78337292316E+02  0.37570732879E+02  0.30946416327E+03  0.15294330000E+03 0.  0.
<mgrwt>
<rscale>  0 0.30717505E+03</rscale>
<asrwt>0</asrwt>
<pdfrwt beam="1">  1        1 0.35365323E-01 0.30717505E+03</pdfrwt>
<pdfrwt beam="2">  1       -1 0.85309483E-01 0.30717505E+03</pdfrwt>
<totfact> 0.17572513E+02</totfact>
</mgrwt>
</event>
<event>
 4    1  0.2731969E-009  0.4934426E+03  0.7818608E-02  0.1015505E+00
          1   -1    0    0  501    0  0.00000000000E+00  0.00000000000E+00  0.17284395324E+04  0.17284395324E+04  0.50400000000E-02 0. -1.
         -1   -1    0    0    0  501 -0.00000000000E+00 -0.00000000000E+00 -0.49573354118E+03  0.49573354121E+03  0.50400000000E-02 0.  1.
    8880022    1    1    2    0    0 -0.41160671643E+02  0.46733260280E+03  0.15572563183E+04  0.16335644635E+04  0.15294330000E+03 0.  0.
    8880022    1    1    2    0    0  0.41160671643E+02 -0.46733260280E+03 -0.32455032707E+03  0.59060861012E+03  0.15294330000E+03 0.  0.
<mgrwt>
<rscale>  0 0.49344262E+03</rscale>
<asrwt>0</asrwt>
<pdfrwt beam="1">  1        1 0.26591377E+00 0.49344262E+03</pdfrwt>
<pdfrwt beam="2">  1       -1 0.76266700E-01 0.49344262E+03</pdfrwt>
<totfact> 0.86271434E+00</totfact>
</mgrwt>
</event>
<event>
 4    1  0.2731969E-009  0.6993712E+03  0.7818608E-02  0.9718308E-01
         -1   -1    0    0    0  501 -0.00000000000E+00  0.00000000000E+00  0.30794841683E+03  0.30794841687E+03  0.50400000000E-02 0.  1.
          1   -1    0    0  501    0  0.00000000000E+00 -0.00000000000E+00 -0.23400542167E+04  0.23400542167E+04  0.50400000000E-02 0. -1.
    8880022    1    1    2    0    0  0.60620924427E+03  0.31343065745E+03 -0.26562644864E+03  0.74811595899E+03  0.15294330000E+03 0.  0.
    8880022    1    1    2    0    0 -0.60620924427E+03 -0.31343065745E+03 -0.17664793512E+04  0.18998866745E+04  0.15294330000E+03 0.  0.
<mgrwt>
<rscale>  0 0.69937120E+03</rscale>
<asrwt>0</asrwt>
<pdfrwt beam="1">  1        1 0.36000833E+00 0.69937120E+03</pdfrwt>
<pdfrwt beam="2">  1       -1 0.47376681E-01 0.69937120E+03</pdfrwt>
<totfact> 0.82474297E+00</totfact>
</mgrwt>
</event>
<event>
 4    1  0.2731969E-009  0.1118182E+04  0.7818608E-02  0.9187649E-01
         -1   -1    0    0    0  501 -0.00000000000E+00  0.00000000000E+00  0.90020725409E+03  0.90020725411E+03  0.50400000000E-02 0.  1.
          1   -1    0    0  501    0  0.00000000000E+00 -0.00000000000E+00 -0.29618362616E+04  0.29618362616E+04  0.50400000000E-02 0. -1.
    8880022    1    1    2    0    0  0.82043638188E+03 -0.74419390792E+03 -0.24380181689E+04  0.26822126452E+04  0.15294330000E+03 0.  0.
    8880022    1    1    2    0    0 -0.82043638188E+03  0.74419390792E+03  0.37638916133E+03  0.11798308705E+04  0.15294330000E+03 0.  0.
<mgrwt>
<rscale>  0 0.11181825E+04</rscale>
<asrwt>0</asrwt>
<pdfrwt beam="1">  1        1 0.45566711E+00 0.11181825E+04</pdfrwt>
<pdfrwt beam="2">  1       -1 0.13849343E+00 0.11181825E+04</pdfrwt>
<totfact> 0.27639759E-01</totfact>
</mgrwt>
</event>
<event>
 4    1  0.2731969E-009  0.6043892E+03  0.7818608E-02  0.9896342E-01
          1   -1    0    0  501    0  0.00000000000E+00  0.00000000000E+00  0.12177748000E+04  0.12177748001E+04  0.50400000000E-02 0. -1.
         -1   -1    0    0    0  501 -0.00000000000E+00 -0.00000000000E+00 -0.42136318507E+03  0.42136318510E+03  0.50400000000E-02 0.  1.
    8880022    1    1    2    0    0 -0.47720121183E+03  0.33789586353E+03  0.83812057569E+03  0.10333113585E+04  0.15294330000E+03 0.  0.
    8880022    1    1    2    0    0  0.47720121183E+03 -0.33789586353E+03 -0.41708960707E+02  0.60582662667E+03  0.15294330000E+03 0.  0.
<mgrwt>
<rscale>  0 0.60438917E+03</rscale>
<asrwt>0</asrwt>
<pdfrwt beam="1">  1        1 0.18734997E+00 0.60438917E+03</pdfrwt>
<pdfrwt beam="2">  1       -1 0.64825106E-01 0.60438917E+03</pdfrwt>
<totfact> 0.26276981E+01</totfact>
</mgrwt>
</event>
<event>
 4    1  0.2731969E-009  0.2648349E+03  0.7818608E-02  0.1104273E+00
         -1   -1    0    0    0  501 -0.00000000000E+00  0.00000000000E+00  0.10024831280E+04  0.10024831280E+04  0.50400000000E-02 0.  1.
          1   -1    0    0  501    0  0.00000000000E+00 -0.00000000000E+00 -0.53074712408E+03  0.53074712411E+03  0.50400000000E-02 0. -1.
    8880022    1    1    2    0    0 -0.19295101293E+03 -0.97548960299E+02  0.95017010375E+03  0.98638773923E+03  0.15294330000E+03 0.  0.
    8880022    1    1    2    0    0  0.19295101293E+03  0.97548960299E+02 -0.47843409981E+03  0.54684251290E+03  0.15294330000E+03 0. -1.
<mgrwt>
<rscale>  0 0.26483494E+03</rscale>
<asrwt>0</asrwt>
<pdfrwt beam="1">  1        1 0.81653405E-01 0.26483494E+03</pdfrwt>
<pdfrwt beam="2">  1       -1 0.15422817E+00 0.26483494E+03</pdfrwt>
<totfact> 0.14899753E+01</totfact>
</mgrwt>
</event>
<event>
 4    1  0.3299627E-009  0.2421446E+04  0.7818608E-02  0.8431518E-01
          1   -1    0    0  501    0  0.00000000000E+00  0.00000000000E+00  0.27999951857E+04  0.27999951857E+04  0.50400000000E-02 0. -1.
         -1   -1    0    0    0  501 -0.00000000000E+00 -0.00000000000E+00 -0.27123676055E+04  0.27123676055E+04  0.50400000000E-02 0.  1.
    8880022    1    1    2    0    0 -0.98268088850E+03  0.22077920974E+04 -0.12721096500E+04  0.27352627458E+04  0.15294330000E+03 0.  0.
    8880022    1    1    2    0    0  0.98268088850E+03 -0.22077920974E+04  0.13597372302E+04  0.27771000454E+04  0.15294330000E+03 0.  0.
<mgrwt>
<rscale>  0 0.24214457E+04</rscale>
<asrwt>0</asrwt>
<pdfrwt beam="1">  1        1 0.43076849E+00 0.24214457E+04</pdfrwt>
<pdfrwt beam="2">  1       -1 0.41728732E+00 0.24214457E+04</pdfrwt>
<totfact> 0.38134606E-03</totfact>
</mgrwt>
</event>
<event>
 4    1  0.2731969E-009  0.1556841E+04  0.7818608E-02  0.8847510E-01
          1   -1    0    0  501    0  0.00000000000E+00  0.00000000000E+00  0.17479607187E+04  0.17479607187E+04  0.50400000000E-02 0. -1.
         -1   -1    0    0    0  501 -0.00000000000E+00 -0.00000000000E+00 -0.17618260181E+04  0.17618260181E+04  0.50400000000E-02 0.  1.
    8880022    1    1    2    0    0 -0.11582485560E+04 -0.10289905390E+04  0.80291919382E+03  0.17516940748E+04  0.15294330000E+03 0.  0.
    8880022    1    1    2    0    0  0.11582485560E+04  0.10289905390E+04 -0.81678449319E+03  0.17580926620E+04  0.15294330000E+03 0.  0.
<mgrwt>
<rscale>  0 0.15568407E+04</rscale>
<asrwt>0</asrwt>
<pdfrwt beam="1">  1        1 0.26891703E+00 0.15568407E+04</pdfrwt>
<pdfrwt beam="2">  1       -1 0.27105016E+00 0.15568407E+04</pdfrwt>
<totfact> 0.21084909E-01</totfact>
</mgrwt>
</event>
<event>
 4    1  0.2731969E-009  0.7687974E+03  0.7818608E-02  0.9606313E-01
         -1   -1    0    0    0  501 -0.00000000000E+00  0.00000000000E+00  0.89961350178E+03  0.89961350179E+03  0.50400000000E-02 0.  1.
          1   -1    0    0  501    0  0.00000000000E+00 -0.00000000000E+00 -0.87421543547E+03  0.87421543549E+03  0.50400000000E-02 0. -1.
    8880022    1    1    2    0    0  0.69397271450E+02  0.75022778835E+03 -0.42939451952E+03  0.88058447755E+03  0.15294330000E+03 0.  0.
    8880022    1    1    2    0    0 -0.69397271450E+02 -0.75022778835E+03  0.45479258583E+03  0.89324445973E+03  0.15294330000E+03 0.  0.
<mgrwt>
<rscale>  0 0.76879735E+03</rscale>
<asrwt>0</asrwt>
<pdfrwt beam="1">  1        1 0.13449468E+00 0.76879735E+03</pdfrwt>
<pdfrwt beam="2">  1       -1 0.13840208E+00 0.76879735E+03</pdfrwt>
<totfact> 0.85015919E+00</totfact>
</mgrwt>
</event>
<event>
 4    1  0.2731969E-009  0.2966283E+03  0.7818608E-02  0.1086938E+00
         -1   -1    0    0    0  501 -0.00000000000E+00  0.00000000000E+00  0.28160842352E+03  0.28160842357E+03  0.50400000000E-02 0.  1.
          1   -1    0    0  501    0  0.00000000000E+00 -0.00000000000E+00 -0.21390510991E+04  0.21390510991E+04  0.50400000000E-02 0. -1.
    8880022    1    1    2    0    0 -0.11798996111E+03  0.22511121653E+03 -0.20471674854E+04  0.20685461216E+04  0.15294330000E+03 0.  0.
    8880022    1    1    2    0    0  0.11798996111E+03 -0.22511121653E+03  0.18972480986E+03  0.35211340108E+03  0.15294330000E+03 0.  0.
<mgrwt>
<rscale>  0 0.29662829E+03</rscale>
<asrwt>0</asrwt>
<pdfrwt beam="1">  1        1 0.32908477E+00 0.29662829E+03</pdfrwt>
<pdfrwt beam="2">  1       -1 0.43324374E-01 0.29662829E+03</pdfrwt>
<totfact> 0.14696208E+01</totfact>
</mgrwt>
</event>
<event>
 4    1  0.2731969E-009  0.1470866E+04  0.7818608E-02  0.8904061E-01
          1   -1    0    0  501    0  0.00000000000E+00  0.00000000000E+00  0.31506564104E+04  0.31506564104E+04  0.50400000000E-02 0. -1.
         -1   -1    0    0    0  501 -0.00000000000E+00 -0.00000000000E+00 -0.76339654511E+03  0.76339654513E+03  0.50400000000E-02 0.  1.
    8880022    1    1    2    0    0 -0.14406834916E+04  0.25393955183E+03  0.18140819910E+04  0.23354527061E+04  0.15294330000E+03 0.  0.
    8880022    1    1    2    0    0  0.14406834916E+04 -0.25393955183E+03  0.57317787428E+03  0.15786002495E+04  0.15294330000E+03 0.  0.
<mgrwt>
<rscale>  0 0.14708657E+04</rscale>
<asrwt>0</asrwt>
<pdfrwt beam="1">  1        1 0.48471637E+00 0.14708657E+04</pdfrwt>
<pdfrwt beam="2">  1       -1 0.11744562E+00 0.14708657E+04</pdfrwt>
<totfact> 0.29007691E-01</totfact>
</mgrwt>
</event>
<event>
 4    1  0.2731969E-009  0.5085230E+03  0.7818608E-02  0.1011578E+00
          1   -1    0    0  501    0  0.00000000000E+00  0.00000000000E+00  0.13902959947E+04  0.13902959947E+04  0.50400000000E-02 0. -1.
         -1   -1    0    0    0  501 -0.00000000000E+00 -0.00000000000E+00 -0.78584999306E+03  0.78584999308E+03  0.50400000000E-02 0.  1.
    8880022    1    1    2    0    0  0.31014181135E+03 -0.37284848739E+03 -0.64840235501E+03  0.82402742957E+03  0.15294330000E+03 0.  0.
    8880022    1    1    2    0    0 -0.31014181135E+03  0.37284848739E+03  0.12528483566E+04  0.13521185582E+04  0.15294330000E+03 0.  0.
<mgrwt>
<rscale>  0 0.50852295E+03</rscale>
<asrwt>0</asrwt>
<pdfrwt beam="1">  1        1 0.21389169E+00 0.50852295E+03</pdfrwt>
<pdfrwt beam="2">  1       -1 0.12090000E+00 0.50852295E+03</pdfrwt>
<totfact> 0.51814288E+00</totfact>
</mgrwt>
</event>
<event>
 4    1  0.2731969E-009  0.2724039E+03  0.7818608E-02  0.1099912E+00
         -1   -1    0    0    0  501 -0.00000000000E+00  0.00000000000E+00  0.50305757906E+03  0.50305757909E+03  0.50400000000E-02 0.  1.
          1   -1    0    0  501    0  0.00000000000E+00 -0.00000000000E+00 -0.42427367523E+03  0.42427367526E+03  0.50400000000E-02 0. -1.
    8880022    1    1    2    0    0 -0.47989815044E+02  0.22024802757E+03 -0.33509764982E+03  0.43184986271E+03  0.15294330000E+03 0.  0.
    8880022    1    1    2    0    0  0.47989815044E+02 -0.22024802757E+03  0.41388155365E+03  0.49548139164E+03  0.15294330000E+03 0.  0.
<mgrwt>
<rscale>  0 0.27240387E+03</rscale>
<asrwt>0</asrwt>
<pdfrwt beam="1">  1        1 0.65272874E-01 0.27240387E+03</pdfrwt>
<pdfrwt beam="2">  1       -1 0.77393473E-01 0.27240387E+03</pdfrwt>
<totfact> 0.99186705E+01</totfact>
</mgrwt>
</event>
<event>
 4    1  0.2731969E-009  0.4191371E+03  0.7818608E-02  0.1037348E+00
         -1   -1    0    0    0  501 -0.00000000000E+00  0.00000000000E+00  0.53324041568E+03  0.53324041571E+03  0.50400000000E-02 0.  1.
          1   -1    0    0  501    0  0.00000000000E+00 -0.00000000000E+00 -0.25434126765E+04  0.25434126765E+04  0.50400000000E-02 0. -1.
    8880022    1    1    2    0    0  0.18710144051E+03  0.34245776272E+03 -0.24403286464E+04  0.24760613530E+04  0.15294330000E+03 0.  0.
    8880022    1    1    2    0    0 -0.18710144051E+03 -0.34245776272E+03  0.43015638552E+03  0.60059173929E+03  0.15294330000E+03 0.  0.
<mgrwt>
<rscale>  0 0.41913712E+03</rscale>
<asrwt>0</asrwt>
<pdfrwt beam="1">  1        1 0.39129425E+00 0.41913712E+03</pdfrwt>
<pdfrwt beam="2">  1       -1 0.82036988E-01 0.41913712E+03</pdfrwt>
<totfact> 0.21789847E+00</totfact>
</mgrwt>
</event>
<event>
 4    1  0.2731969E-009  0.9239964E+03  0.7818608E-02  0.9396072E-01
          1   -1    0    0  501    0  0.00000000000E+00  0.00000000000E+00  0.14314288858E+04  0.14314288858E+04  0.50400000000E-02 0. -1.
         -1   -1    0    0    0  501 -0.00000000000E+00 -0.00000000000E+00 -0.11566728294E+04  0.11566728295E+04  0.50400000000E-02 0.  1.
    8880022    1    1    2    0    0 -0.76182368814E+03 -0.50000227216E+03  0.10379703497E+04  0.13896588444E+04  0.15294330000E+03 0.  0.
    8880022    1    1    2    0    0  0.76182368814E+03  0.50000227216E+03 -0.76321429338E+03  0.11984428708E+04  0.15294330000E+03 0.  0.
<mgrwt>
<rscale>  0 0.92399635E+03</rscale>
<asrwt>0</asrwt>
<pdfrwt beam="1">  1        1 0.22021983E+00 0.92399635E+03</pdfrwt>
<pdfrwt beam="2">  1       -1 0.17794967E+00 0.92399635E+03</pdfrwt>
<totfact> 0.15991573E+00</totfact>
</mgrwt>
</event>
<event>
 4    1  0.2731969E-009  0.4221288E+03  0.7818608E-02  0.1036376E+00
         -1   -1    0    0    0  501 -0.00000000000E+00  0.00000000000E+00  0.46098344551E+03  0.46098344553E+03  0.50400000000E-02 0.  1.
          1   -1    0    0  501    0  0.00000000000E+00 -0.00000000000E+00 -0.15861903564E+04  0.15861903564E+04  0.50400000000E-02 0. -1.
    8880022    1    1    2    0    0 -0.38111729312E+03 -0.97727440825E+02 -0.14527730967E+04  0.15128590044E+04  0.15294330000E+03 0.  0.
    8880022    1    1    2    0    0  0.38111729312E+03  0.97727440825E+02  0.32756618576E+03  0.53431479754E+03  0.15294330000E+03 0.  0.
<mgrwt>
<rscale>  0 0.42212877E+03</rscale>
<asrwt>0</asrwt>
<pdfrwt beam="1">  1        1 0.24402928E+00 0.42212877E+03</pdfrwt>
<pdfrwt beam="2">  1       -1 0.70920531E-01 0.42212877E+03</pdfrwt>
<totfact> 0.12686971E+01</totfact>
</mgrwt>
</event>
<event>
 4    1  0.2731969E-009  0.7847412E+03  0.7818608E-02  0.9582370E-01
          1   -1    0    0  501    0  0.00000000000E+00  0.00000000000E+00  0.27199329430E+04  0.27199329430E+04  0.50400000000E-02 0. -1.
         -1   -1    0    0    0  501 -0.00000000000E+00 -0.00000000000E+00 -0.41394970619E+03  0.41394970622E+03  0.50400000000E-02 0.  1.
    8880022    1    1    2    0    0 -0.76139906067E+03  0.11268807994E+03  0.22076846701E+04  0.23430088323E+04  0.15294330000E+03 0.  0.
    8880022    1    1    2    0    0  0.76139906067E+03 -0.11268807994E+03  0.98298566716E+02  0.79087381685E+03  0.15294330000E+03 0.  0.
<mgrwt>
<rscale>  0 0.78474122E+03</rscale>
<asrwt>0</asrwt>
<pdfrwt beam="1">  1        1 0.41845122E+00 0.78474122E+03</pdfrwt>
<pdfrwt beam="2">  1       -1 0.63684570E-01 0.78474122E+03</pdfrwt>
<totfact> 0.25184616E+00</totfact>
</mgrwt>
</event>
<event>
 4    1  0.2731969E-009  0.7905629E+03  0.7818608E-02  0.9573778E-01
          1   -1    0    0  501    0  0.00000000000E+00  0.00000000000E+00  0.34690916572E+04  0.34690916572E+04  0.50400000000E-02 0. -1.
         -1   -1    0    0    0  501 -0.00000000000E+00 -0.00000000000E+00 -0.22918244157E+03  0.22918244163E+03  0.50400000000E-02 0.  1.
    8880022    1    1    2    0    0  0.99939997913E+02 -0.76916194923E+03  0.76473394127E+03  0.10999126153E+04  0.15294330000E+03 0.  0.
    8880022    1    1    2    0    0 -0.99939997913E+02  0.76916194923E+03  0.24751752744E+04  0.25983614835E+04  0.15294330000E+03 0.  0.
<mgrwt>
<rscale>  0 0.79056294E+03</rscale>
<asrwt>0</asrwt>
<pdfrwt beam="1">  1        1 0.53370642E+00 0.79056294E+03</pdfrwt>
<pdfrwt beam="2">  1       -1 0.35258836E-01 0.79056294E+03</pdfrwt>
<totfact> 0.21769058E+00</totfact>
</mgrwt>
</event>
<event>
 4    1  0.2731969E-009  0.1512965E+04  0.7818608E-02  0.8875877E-01
         -1   -1    0    0    0  501 -0.00000000000E+00  0.00000000000E+00  0.16395001611E+04  0.16395001611E+04  0.50400000000E-02 0.  1.
          1   -1    0    0  501    0  0.00000000000E+00 -0.00000000000E+00 -0.16373035029E+04  0.16373035029E+04  0.50400000000E-02 0. -1.
    8880022    1    1    2    0    0  0.14357953560E+04 -0.45184470115E+03 -0.62762732107E+03  0.16379803556E+04  0.15294330000E+03 0.  0.
    8880022    1    1    2    0    0 -0.14357953560E+04  0.45184470115E+03  0.62982397932E+03  0.16388233084E+04  0.15294330000E+03 0.  0.
<mgrwt>
<rscale>  0 0.15129652E+04</rscale>
<asrwt>0</asrwt>
<pdfrwt beam="1">  1        1 0.25189285E+00 0.15129652E+04</pdfrwt>
<pdfrwt beam="2">  1       -1 0.25223079E+00 0.15129652E+04</pdfrwt>
<totfact> 0.33459756E-01</totfact>
</mgrwt>
</event>
<event>
 4    1  0.2731969E-009  0.6502131E+03  0.7818608E-02  0.9806379E-01
         -1   -1    0    0    0  501 -0.00000000000E+00  0.00000000000E+00  0.50611242779E+03  0.50611242781E+03  0.50400000000E-02 0.  1.
          1   -1    0    0  501    0  0.00000000000E+00 -0.00000000000E+00 -0.19520189811E+04  0.19520189811E+04  0.50400000000E-02 0. -1.
    8880022    1    1    2    0    0 -0.63187689463E+03  0.10819018916E+02  0.20664820625E+03  0.68226138341E+03  0.15294330000E+03 0.  0.
    8880022    1    1    2    0    0  0.63187689463E+03 -0.10819018916E+02 -0.16525547596E+04  0.17758700255E+04  0.15294330000E+03 0.  0.
<mgrwt>
<rscale>  0 0.65021313E+03</rscale>
<asrwt>0</asrwt>
<pdfrwt beam="1">  1        1 0.30031061E+00 0.65021313E+03</pdfrwt>
<pdfrwt beam="2">  1       -1 0.77863452E-01 0.65021313E+03</pdfrwt>
<totfact> 0.56682296E+00</totfact>
</mgrwt>
</event>
<event>
 4    1  0.2731969E-009  0.6919939E+03  0.7818608E-02  0.9731022E-01
         -1   -1    0    0    0  501 -0.00000000000E+00  0.00000000000E+00  0.35193161077E+03  0.35193161081E+03  0.50400000000E-02 0.  1.
          1   -1    0    0  501    0  0.00000000000E+00 -0.00000000000E+00 -0.20169101337E+04  0.20169101337E+04  0.50400000000E-02 0. -1.
    8880022    1    1    2    0    0  0.31564816009E+02 -0.67414213466E+03 -0.15081068062E+04  0.16592895309E+04  0.15294330000E+03 0.  0.
    8880022    1    1    2    0    0 -0.31564816009E+02  0.67414213466E+03 -0.15687171669E+03  0.70955221362E+03  0.15294330000E+03 0.  0.
<mgrwt>
<rscale>  0 0.69199394E+03</rscale>
<asrwt>0</asrwt>
<pdfrwt beam="1">  1        1 0.31029386E+00 0.69199394E+03</pdfrwt>
<pdfrwt beam="2">  1       -1 0.54143326E-01 0.69199394E+03</pdfrwt>
<totfact> 0.10554376E+01</totfact>
</mgrwt>
</event>
<event>
 4    1  0.2731969E-009  0.4904704E+03  0.7818608E-02  0.1016297E+00
          1   -1    0    0  501    0  0.00000000000E+00  0.00000000000E+00  0.53918031483E+03  0.53918031485E+03  0.50400000000E-02 0. -1.
         -1   -1    0    0    0  501 -0.00000000000E+00 -0.00000000000E+00 -0.14936009076E+04  0.14936009076E+04  0.50400000000E-02 0.  1.
    8880022    1    1    2    0    0 -0.42796901934E+03 -0.18442358363E+03  0.37394328773E+03  0.61676152212E+03  0.15294330000E+03 0. -1.
    8880022    1    1    2    0    0  0.42796901934E+03  0.18442358363E+03 -0.13283638805E+04  0.14160197003E+04  0.15294330000E+03 0.  0.
<mgrwt>
<rscale>  0 0.49047038E+03</rscale>
<asrwt>0</asrwt>
<pdfrwt beam="1">  1        1 0.82950818E-01 0.49047038E+03</pdfrwt>
<pdfrwt beam="2">  1       -1 0.22978475E+00 0.49047038E+03</pdfrwt>
<totfact> 0.41230127E+00</totfact>
</mgrwt>
</event>
<event>
 4    1  0.2731969E-009  0.7011122E+03  0.7818608E-02  0.9715332E-01
          1   -1    0    0  501    0  0.00000000000E+00  0.00000000000E+00  0.98107202957E+03  0.98107202958E+03  0.50400000000E-02 0. -1.
         -1   -1    0    0    0  501 -0.00000000000E+00 -0.00000000000E+00 -0.51267446909E+03  0.51267446911E+03  0.50400000000E-02 0.  1.
    8880022    1    1    2    0    0  0.55088778312E+03  0.40581935387E+03  0.12169661114E+03  0.71159568277E+03  0.15294330000E+03 0.  0.
    8880022    1    1    2    0    0 -0.55088778312E+03 -0.40581935387E+03  0.34670094934E+03  0.78215081592E+03  0.15294330000E+03 0.  0.
<mgrwt>
<rscale>  0 0.70111222E+03</rscale>
<asrwt>0</asrwt>
<pdfrwt beam="1">  1        1 0.15093416E+00 0.70111222E+03</pdfrwt>
<pdfrwt beam="2">  1       -1 0.78872997E-01 0.70111222E+03</pdfrwt>
<totfact> 0.26020310E+01</totfact>
</mgrwt>
</event>
<event>
 4    1  0.2731969E-009  0.8027126E+03  0.7818608E-02  0.9556099E-01
          1   -1    0    0  501    0  0.00000000000E+00  0.00000000000E+00  0.48302978899E+04  0.48302978899E+04  0.50400000000E-02 0. -1.
         -1   -1    0    0    0  501 -0.00000000000E+00 -0.00000000000E+00 -0.19646811870E+03  0.19646811877E+03  0.50400000000E-02 0.  1.
    8880022    1    1    2    0    0  0.33456439382E+03 -0.71345816520E+03  0.37409729235E+04  0.38261241426E+04  0.15294330000E+03 0.  0.
    8880022    1    1    2    0    0 -0.33456439382E+03  0.71345816520E+03  0.89285684769E+03  0.12006418661E+04  0.15294330000E+03 0.  0.
<mgrwt>
<rscale>  0 0.80271261E+03</rscale>
<asrwt>0</asrwt>
<pdfrwt beam="1">  1        1 0.74312277E+00 0.80271261E+03</pdfrwt>
<pdfrwt beam="2">  1       -1 0.30225864E-01 0.80271261E+03</pdfrwt>
<totfact> 0.16003125E-01</totfact>
</mgrwt>
</event>
<event>
 4    1  0.2731969E-009  0.5827336E+03  0.7818608E-02  0.9941890E-01
         -1   -1    0    0    0  501 -0.00000000000E+00  0.00000000000E+00  0.41972277145E+03  0.41972277148E+03  0.50400000000E-02 0.  1.
          1   -1    0    0  501    0  0.00000000000E+00 -0.00000000000E+00 -0.15135124130E+04  0.15135124130E+04  0.50400000000E-02 0. -1.
    8880022    1    1    2    0    0  0.31561010213E+03  0.46537834275E+03 -0.12063562177E+04  0.13397289709E+04  0.15294330000E+03 0.  0.
    8880022    1    1    2    0    0 -0.31561010213E+03 -0.46537834275E+03  0.11256657617E+03  0.59350621358E+03  0.15294330000E+03 0.  0.
<mgrwt>
<rscale>  0 0.58273355E+03</rscale>
<asrwt>0</asrwt>
<pdfrwt beam="1">  1        1 0.23284806E+00 0.58273355E+03</pdfrwt>
<pdfrwt beam="2">  1       -1 0.64572735E-01 0.58273355E+03</pdfrwt>
<totfact> 0.16557671E+01</totfact>
</mgrwt>
</event>
<event>
 4    1  0.2731969E-009  0.1143530E+04  0.7818608E-02  0.9163773E-01
         -1   -1    0    0    0  501 -0.00000000000E+00  0.00000000000E+00  0.70798043426E+03  0.70798043428E+03  0.50400000000E-02 0.  1.
          1   -1    0    0  501    0  0.00000000000E+00 -0.00000000000E+00 -0.23199166132E+04  0.23199166132E+04  0.50400000000E-02 0. -1.
    8880022    1    1    2    0    0  0.96486418173E+03  0.59439585265E+03 -0.14894916917E+04  0.18778302563E+04  0.15294330000E+03 0.  0.
    8880022    1    1    2    0    0 -0.96486418173E+03 -0.59439585265E+03 -0.12244448732E+03  0.11500667912E+04  0.15294330000E+03 0.  0.
<mgrwt>
<rscale>  0 0.11435300E+04</rscale>
<asrwt>0</asrwt>
<pdfrwt beam="1">  1        1 0.35691024E+00 0.11435300E+04</pdfrwt>
<pdfrwt beam="2">  1       -1 0.10892007E+00 0.11435300E+04</pdfrwt>
<totfact> 0.14019716E+00</totfact>
</mgrwt>
</event>
<event>
 4    1  0.2731969E-009  0.2603310E+03  0.7818608E-02  0.1106945E+00
          1   -1    0    0  501    0  0.00000000000E+00  0.00000000000E+00  0.26534588925E+03  0.26534588929E+03  0.50400000000E-02 0. -1.
         -1   -1    0    0    0  501 -0.00000000000E+00 -0.00000000000E+00 -0.51043913701E+03  0.51043913703E+03  0.50400000000E-02 0.  1.
    8880022    1    1    2    0    0  0.15292600170E+03 -0.14489377257E+03  0.15163199686E+03  0.30127144374E+03  0.15294330000E+03 0.  0.
    8880022    1    1    2    0    0 -0.15292600170E+03  0.14489377257E+03 -0.39672524462E+03  0.47451358259E+03  0.15294330000E+03 0.  0.
<mgrwt>
<rscale>  0 0.26033098E+03</rscale>
<asrwt>0</asrwt>
<pdfrwt beam="1">  1        1 0.40822445E-01 0.26033098E+03</pdfrwt>
<pdfrwt beam="2">  1       -1 0.78529097E-01 0.26033098E+03</pdfrwt>
<totfact> 0.17524061E+02</totfact>
</mgrwt>
</event>
<event>
 4    1  0.2731969E-009  0.8120092E+03  0.7818608E-02  0.9542795E-01
          1   -1    0    0  501    0  0.00000000000E+00  0.00000000000E+00  0.13605844647E+04  0.13605844647E+04  0.50400000000E-02 0. -1.
         -1   -1    0    0    0  501 -0.00000000000E+00 -0.00000000000E+00 -0.21291761070E+04  0.21291761070E+04  0.50400000000E-02 0.  1.
    8880022    1    1    2    0    0 -0.53763264692E+03  0.58899787045E+03  0.11492081781E+04  0.14071383884E+04  0.15294330000E+03 0.  0.
    8880022    1    1    2    0    0  0.53763264692E+03 -0.58899787045E+03 -0.19177998204E+04  0.20826221834E+04  0.15294330000E+03 0.  0.
<mgrwt>
<rscale>  0 0.81200924E+03</rscale>
<asrwt>0</asrwt>
<pdfrwt beam="1">  1        1 0.20932069E+00 0.81200924E+03</pdfrwt>
<pdfrwt beam="2">  1       -1 0.32756556E+00 0.81200924E+03</pdfrwt>
<totfact> 0.18957727E-01</totfact>
</mgrwt>
</event>
<event>
 4    1  0.2731969E-009  0.4096764E+03  0.7818608E-02  0.1040480E+00
          1   -1    0    0  501    0  0.00000000000E+00  0.00000000000E+00  0.23368408669E+04  0.23368408669E+04  0.50400000000E-02 0. -1.
         -1   -1    0    0    0  501 -0.00000000000E+00 -0.00000000000E+00 -0.21663701178E+03  0.21663701184E+03  0.50400000000E-02 0.  1.
    8880022    1    1    2    0    0 -0.29753204061E+03  0.23646933525E+03  0.21039655612E+04  0.21434798337E+04  0.15294330000E+03 0.  0.
    8880022    1    1    2    0    0  0.29753204061E+03 -0.23646933525E+03  0.16238293867E+02  0.40999804500E+03  0.15294330000E+03 0.  0.
<mgrwt>
<rscale>  0 0.40967635E+03</rscale>
<asrwt>0</asrwt>
<pdfrwt beam="1">  1        1 0.35951397E+00 0.40967635E+03</pdfrwt>
<pdfrwt beam="2">  1       -1 0.33328772E-01 0.40967635E+03</pdfrwt>
<totfact> 0.16695612E+01</totfact>
</mgrwt>
</event>
<event>
 4    1  0.2731969E-009  0.1522177E+04  0.7818608E-02  0.8869838E-01
          1   -1    0    0  501    0  0.00000000000E+00  0.00000000000E+00  0.31063012402E+04  0.31063012402E+04  0.50400000000E-02 0. -1.
         -1   -1    0    0    0  501 -0.00000000000E+00 -0.00000000000E+00 -0.10656254823E+04  0.10656254823E+04  0.50400000000E-02 0.  1.
    8880022    1    1    2    0    0  0.54751809642E+03  0.14120391573E+04  0.21629161521E+04  0.26448494440E+04  0.15294330000E+03 0.  0.
    8880022    1    1    2    0    0 -0.54751809642E+03 -0.14120391573E+04 -0.12224039426E+03  0.15270772785E+04  0.15294330000E+03 0.  0.
<mgrwt>
<rscale>  0 0.15221768E+04</rscale>
<asrwt>0</asrwt>
<pdfrwt beam="1">  1        1 0.47789248E+00 0.15221768E+04</pdfrwt>
<pdfrwt beam="2">  1       -1 0.16394239E+00 0.15221768E+04</pdfrwt>
<totfact> 0.12923687E-01</totfact>
</mgrwt>
</event>
<event>
 4    1  0.3140379E-009  0.1433305E+04  0.7818608E-02  0.8930057E-01
          1   -1    0    0  501    0  0.00000000000E+00  0.00000000000E+00  0.48295391502E+04  0.48295391502E+04  0.50400000000E-02 0. -1.
         -1   -1    0    0    0  501 -0.00000000000E+00 -0.00000000000E+00 -0.11276172342E+04  0.11276172343E+04  0.50400000000E-02 0.  1.
    8880022    1    1    2    0    0 -0.46545306234E+03  0.13469687981E+04  0.42015232127E+04  0.44392747669E+04  0.15294330000E+03 0.  0.
    8880022    1    1    2    0    0  0.46545306234E+03 -0.13469687981E+04 -0.49960129671E+03  0.15178816176E+04  0.15294330000E+03 0.  0.
<mgrwt>
<rscale>  0 0.14333050E+04</rscale>
<asrwt>0</asrwt>
<pdfrwt beam="1">  1        1 0.74300601E+00 0.14333050E+04</pdfrwt>
<pdfrwt beam="2">  1       -1 0.17347958E+00 0.14333050E+04</pdfrwt>
<totfact> 0.32118210E-03</totfact>
</mgrwt>
</event>
<event>
 4    1  0.2731969E-009  0.6495413E+03  0.7818608E-02  0.9807640E-01
         -1   -1    0    0    0  501 -0.00000000000E+00  0.00000000000E+00  0.50980096113E+03  0.50980096116E+03  0.50400000000E-02 0.  1.
          1   -1    0    0  501    0  0.00000000000E+00 -0.00000000000E+00 -0.10858623051E+04  0.10858623051E+04  0.50400000000E-02 0. -1.
    8880022    1    1    2    0    0 -0.38092211967E+03 -0.50339904135E+03 -0.67713542272E+03  0.93830500894E+03  0.15294330000E+03 0.  0.
    8880022    1    1    2    0    0  0.38092211967E+03  0.50339904135E+03  0.10107407874E+03  0.65735825734E+03  0.15294330000E+03 0.  0.
<mgrwt>
<rscale>  0 0.64954131E+03</rscale>
<asrwt>0</asrwt>
<pdfrwt beam="1">  1        1 0.16705574E+00 0.64954131E+03</pdfrwt>
<pdfrwt beam="2">  1       -1 0.78430918E-01 0.64954131E+03</pdfrwt>
<totfact> 0.22053192E+01</totfact>
</mgrwt>
</event>
<event>
 4    1  0.2731969E-009  0.7045371E+03  0.7818608E-02  0.9709505E-01
          1   -1    0    0  501    0  0.00000000000E+00  0.00000000000E+00  0.27352492144E+04  0.27352492144E+04  0.50400000000E-02 0. -1.
         -1   -1    0    0    0  501 -0.00000000000E+00 -0.00000000000E+00 -0.73805892722E+03  0.73805892724E+03  0.50400000000E-02 0.  1.
    8880022    1    1    2    0    0  0.68279735522E+03  0.82271396183E+02  0.25067089389E+04  0.26038360487E+04  0.15294330000E+03 0.  0.
    8880022    1    1    2    0    0 -0.68279735522E+03 -0.82271396183E+02 -0.50951865176E+03  0.86947209295E+03  0.15294330000E+03 0.  0.
<mgrwt>
<rscale>  0 0.70453706E+03</rscale>
<asrwt>0</asrwt>
<pdfrwt beam="1">  1        1 0.42080757E+00 0.70453706E+03</pdfrwt>
<pdfrwt beam="2">  1       -1 0.11354753E+00 0.70453706E+03</pdfrwt>
<totfact> 0.71222827E-01</totfact>
</mgrwt>
</event>
<event>
 4    1  0.2731969E-009  0.9180847E+03  0.7818608E-02  0.9403253E-01
         -1   -1    0    0    0  501 -0.00000000000E+00  0.00000000000E+00  0.15426409809E+04  0.15426409809E+04  0.50400000000E-02 0.  1.
          1   -1    0    0  501    0  0.00000000000E+00 -0.00000000000E+00 -0.94127841592E+03  0.94127841593E+03  0.50400000000E-02 0. -1.
    8880022    1    1    2    0    0  0.20335874662E+03 -0.88211850518E+03  0.11051091682E+04  0.14367135287E+04  0.15294330000E+03 0.  0.
    8880022    1    1    2    0    0 -0.20335874662E+03  0.88211850518E+03 -0.50374660319E+03  0.10472058681E+04  0.15294330000E+03 0.  0.
<mgrwt>
<rscale>  0 0.91808469E+03</rscale>
<asrwt>0</asrwt>
<pdfrwt beam="1">  1        1 0.14481206E+00 0.91808469E+03</pdfrwt>
<pdfrwt beam="2">  1       -1 0.23732938E+00 0.91808469E+03</pdfrwt>
<totfact> 0.14488179E+00</totfact>
</mgrwt>
</event>
<event>
 4    1  0.2731969E-009  0.3800660E+03  0.7818608E-02  0.1050909E+00
         -1   -1    0    0    0  501 -0.00000000000E+00  0.00000000000E+00  0.27493005849E+03  0.27493005853E+03  0.50400000000E-02 0.  1.
          1   -1    0    0  501    0  0.00000000000E+00 -0.00000000000E+00 -0.72404287468E+03  0.72404287470E+03  0.50400000000E-02 0. -1.
    8880022    1    1    2    0    0  0.34289919750E+03  0.58980386749E+02 -0.48617604710E+03  0.61710400052E+03  0.15294330000E+03 0.  0.
    8880022    1    1    2    0    0 -0.34289919750E+03 -0.58980386749E+02  0.37063230904E+02  0.38186893271E+03  0.15294330000E+03 0.  0.
<mgrwt>
<rscale>  0 0.38006605E+03</rscale>
<asrwt>0</asrwt>
<pdfrwt beam="1">  1        1 0.11139121E+00 0.38006605E+03</pdfrwt>
<pdfrwt beam="2">  1       -1 0.42296932E-01 0.38006605E+03</pdfrwt>
<totfact> 0.14912770E+02</totfact>
</mgrwt>
</event>
<event>
 4    1  0.2731969E-009  0.2759426E+03  0.7818608E-02  0.1097926E+00
         -1   -1    0    0    0  501 -0.00000000000E+00  0.00000000000E+00  0.63851476445E+03  0.63851476447E+03  0.50400000000E-02 0.  1.
          1   -1    0    0  501    0  0.00000000000E+00 -0.00000000000E+00 -0.78090309080E+03  0.78090309081E+03  0.50400000000E-02 0. -1.
    8880022    1    1    2    0    0 -0.12884990329E+03  0.19013252220E+03  0.58208097380E+03  0.64417589729E+03  0.15294330000E+03 0.  0.
    8880022    1    1    2    0    0  0.12884990329E+03 -0.19013252220E+03 -0.72446930014E+03  0.77524195800E+03  0.15294330000E+03 0. -1.
<mgrwt>
<rscale>  0 0.27594261E+03</rscale>
<asrwt>0</asrwt>
<pdfrwt beam="1">  1        1 0.12013894E+00 0.27594261E+03</pdfrwt>
<pdfrwt beam="2">  1       -1 0.98233041E-01 0.27594261E+03</pdfrwt>
<totfact> 0.25487303E+01</totfact>
</mgrwt>
</event>
<event>
 4    1  0.2731969E-009  0.8264544E+03  0.7818608E-02  0.9522496E-01
          1   -1    0    0  501    0  0.00000000000E+00  0.00000000000E+00  0.17591143430E+04  0.17591143430E+04  0.50400000000E-02 0. -1.
         -1   -1    0    0    0  501 -0.00000000000E+00 -0.00000000000E+00 -0.48553395038E+03  0.48553395040E+03  0.50400000000E-02 0.  1.
    8880022    1    1    2    0    0  0.80857589989E+03  0.76421353795E+02  0.13448839088E+03  0.83732549794E+03  0.15294330000E+03 0.  0.
    8880022    1    1    2    0    0 -0.80857589989E+03 -0.76421353795E+02  0.11390920017E+04  0.14073227955E+04  0.15294330000E+03 0.  0.
<mgrwt>
<rscale>  0 0.82645439E+03</rscale>
<asrwt>0</asrwt>
<pdfrwt beam="1">  1        1 0.27063298E+00 0.82645439E+03</pdfrwt>
<pdfrwt beam="2">  1       -1 0.74697531E-01 0.82645439E+03</pdfrwt>
<totfact> 0.80775070E+00</totfact>
</mgrwt>
</event>
<event>
 4    1  0.2731969E-009  0.5918033E+03  0.7818608E-02  0.9922559E-01
          1   -1    0    0  501    0  0.00000000000E+00  0.00000000000E+00  0.13380225756E+04  0.13380225756E+04  0.50400000000E-02 0. -1.
         -1   -1    0    0    0  501 -0.00000000000E+00 -0.00000000000E+00 -0.14433129095E+04  0.14433129095E+04  0.50400000000E-02 0.  1.
    8880022    1    1    2    0    0 -0.16969719678E+03  0.54593251627E+03  0.12056167441E+04  0.13430349354E+04  0.15294330000E+03 0.  0.
    8880022    1    1    2    0    0  0.16969719678E+03 -0.54593251627E+03 -0.13109070780E+04  0.14383005497E+04  0.15294330000E+03 0.  0.
<mgrwt>
<rscale>  0 0.59180326E+03</rscale>
<asrwt>0</asrwt>
<pdfrwt beam="1">  1        1 0.20584963E+00 0.59180326E+03</pdfrwt>
<pdfrwt beam="2">  1       -1 0.22204814E+00 0.59180326E+03</pdfrwt>
<totfact> 0.98993847E-01</totfact>
</mgrwt>
</event>
<event>
 4    1  0.2731969E-009  0.1155537E+04  0.7818608E-02  0.9152691E-01
          1   -1    0    0  501    0  0.00000000000E+00  0.00000000000E+00  0.16583379037E+04  0.16583379037E+04  0.50400000000E-02 0. -1.
         -1   -1    0    0    0  501 -0.00000000000E+00 -0.00000000000E+00 -0.16949565051E+04  0.16949565051E+04  0.50400000000E-02 0.  1.
    8880022    1    1    2    0    0  0.66758302466E+03  0.93070205209E+03  0.11964834967E+04  0.16633814401E+04  0.15294330000E+03 0.  0.
    8880022    1    1    2    0    0 -0.66758302466E+03 -0.93070205209E+03 -0.12331020980E+04  0.16899129687E+04  0.15294330000E+03 0.  0.
<mgrwt>
<rscale>  0 0.11555367E+04</rscale>
<asrwt>0</asrwt>
<pdfrwt beam="1">  1        1 0.25512891E+00 0.11555367E+04</pdfrwt>
<pdfrwt beam="2">  1       -1 0.26076254E+00 0.11555367E+04</pdfrwt>
<totfact> 0.29837844E-01</totfact>
</mgrwt>
</event>
<event>
 4    1  0.2731969E-009  0.1748125E+04  0.7818608E-02  0.8734383E-01
          1   -1    0    0  501    0  0.00000000000E+00  0.00000000000E+00  0.21460644837E+04  0.21460644837E+04  0.50400000000E-02 0. -1.
         -1   -1    0    0    0  501 -0.00000000000E+00 -0.00000000000E+00 -0.15358612927E+04  0.15358612927E+04  0.50400000000E-02 0.  1.
    8880022    1    1    2    0    0  0.12843535465E+04 -0.11760042034E+04 -0.19178584779E+03  0.17586140518E+04  0.15294330000E+03 0.  0.
    8880022    1    1    2    0    0 -0.12843535465E+04  0.11760042034E+04  0.80198903877E+03  0.19233117246E+04  0.15294330000E+03 0.  0.
<mgrwt>
<rscale>  0 0.17481252E+04</rscale>
<asrwt>0</asrwt>
<pdfrwt beam="1">  1        1 0.33016377E+00 0.17481252E+04</pdfrwt>
<pdfrwt beam="2">  1       -1 0.23628635E+00 0.17481252E+04</pdfrwt>
<totfact> 0.18663219E-01</totfact>
</mgrwt>
</event>
<event>
 4    1  0.2731969E-009  0.4659343E+03  0.7818608E-02  0.1023074E+00
         -1   -1    0    0    0  501 -0.00000000000E+00  0.00000000000E+00  0.69991689379E+03  0.69991689380E+03  0.50400000000E-02 0.  1.
          1   -1    0    0  501    0  0.00000000000E+00 -0.00000000000E+00 -0.62006547960E+03  0.62006547962E+03  0.50400000000E-02 0. -1.
    8880022    1    1    2    0    0  0.24642598369E+03 -0.36466060367E+03  0.50650496361E+03  0.68821657382E+03  0.15294330000E+03 0.  0.
    8880022    1    1    2    0    0 -0.24642598369E+03  0.36466060367E+03 -0.42665354942E+03  0.63176579961E+03  0.15294330000E+03 0.  0.
<mgrwt>
<rscale>  0 0.46593430E+03</rscale>
<asrwt>0</asrwt>
<pdfrwt beam="1">  1        1 0.95394690E-01 0.46593430E+03</pdfrwt>
<pdfrwt beam="2">  1       -1 0.10767952E+00 0.46593430E+03</pdfrwt>
<totfact> 0.27869520E+01</totfact>
</mgrwt>
</event>
<event>
 4    1  0.2731969E-009  0.6111239E+03  0.7818608E-02  0.9882593E-01
         -1   -1    0    0    0  501 -0.00000000000E+00  0.00000000000E+00  0.37341671176E+03  0.37341671179E+03  0.50400000000E-02 0.  1.
          1   -1    0    0  501    0  0.00000000000E+00 -0.00000000000E+00 -0.11487645886E+04  0.11487645886E+04  0.50400000000E-02 0. -1.
    8880022    1    1    2    0    0  0.36638353553E+03 -0.46458998354E+03 -0.66142313550E+03  0.90052926943E+03  0.15294330000E+03 0.  0.
    8880022    1    1    2    0    0 -0.36638353553E+03  0.46458998354E+03 -0.11392474134E+03  0.62165203097E+03  0.15294330000E+03 0.  0.
<mgrwt>
<rscale>  0 0.61112388E+03</rscale>
<asrwt>0</asrwt>
<pdfrwt beam="1">  1        1 0.17673301E+00 0.61112388E+03</pdfrwt>
<pdfrwt beam="2">  1       -1 0.57448725E-01 0.61112388E+03</pdfrwt>
<totfact> 0.37365246E+01</totfact>
</mgrwt>
</event>
<event>
 4    1  0.2731969E-009  0.5477571E+03  0.7818608E-02  0.1002014E+00
         -1   -1    0    0    0  501 -0.00000000000E+00  0.00000000000E+00  0.82589813155E+03  0.82589813157E+03  0.50400000000E-02 0.  1.
          1   -1    0    0  501    0  0.00000000000E+00 -0.00000000000E+00 -0.13875452598E+04  0.13875452598E+04  0.50400000000E-02 0. -1.
    8880022    1    1    2    0    0  0.16970213001E+03  0.49784272563E+03  0.67004313026E+03  0.86544534305E+03  0.15294330000E+03 0.  0.
    8880022    1    1    2    0    0 -0.16970213001E+03 -0.49784272563E+03 -0.12316902585E+04  0.13479980483E+04  0.15294330000E+03 0. -1.
<mgrwt>
<rscale>  0 0.54775710E+03</rscale>
<asrwt>0</asrwt>
<pdfrwt beam="1">  1        1 0.21346850E+00 0.54775710E+03</pdfrwt>
<pdfrwt beam="2">  1       -1 0.12706125E+00 0.54775710E+03</pdfrwt>
<totfact> 0.45630924E+00</totfact>
</mgrwt>
</event>
<event>
 4    1  0.2731969E-009  0.1045853E+04  0.7818608E-02  0.9259636E-01
          1   -1    0    0  501    0  0.00000000000E+00  0.00000000000E+00  0.12430346763E+04  0.12430346763E+04  0.50400000000E-02 0. -1.
         -1   -1    0    0    0  501 -0.00000000000E+00 -0.00000000000E+00 -0.14958112874E+04  0.14958112874E+04  0.50400000000E-02 0.  1.
    8880022    1    1    2    0    0  0.37486138869E+03  0.96431092820E+03 -0.10050884249E+04  0.14505209484E+04  0.15294330000E+03 0.  0.
    8880022    1    1    2    0    0 -0.37486138869E+03 -0.96431092820E+03  0.75231181377E+03  0.12883250153E+04  0.15294330000E+03 0. -1.
<mgrwt>
<rscale>  0 0.10458529E+04</rscale>
<asrwt>0</asrwt>
<pdfrwt beam="1">  1        1 0.19123610E+00 0.10458529E+04</pdfrwt>
<pdfrwt beam="2">  1       -1 0.23012481E+00 0.10458529E+04</pdfrwt>
<totfact> 0.93723875E-01</totfact>
</mgrwt>
</event>
<event>
 4    1  0.2731969E-009  0.7763256E+03  0.7818608E-02  0.9594931E-01
         -1   -1    0    0    0  501 -0.00000000000E+00  0.00000000000E+00  0.29200067700E+04  0.29200067700E+04  0.50400000000E-02 0.  1.
          1   -1    0    0  501    0  0.00000000000E+00 -0.00000000000E+00 -0.58947171522E+03  0.58947171524E+03  0.50400000000E-02 0. -1.
    8880022    1    1    2    0    0 -0.32364380429E+03  0.68887193984E+03  0.25798317725E+04  0.26941071784E+04  0.15294330000E+03 0.  0.
    8880022    1    1    2    0    0  0.32364380429E+03 -0.68887193984E+03 -0.24929671767E+03  0.81537130684E+03  0.15294330000E+03 0.  0.
<mgrwt>
<rscale>  0 0.77632565E+03</rscale>
<asrwt>0</asrwt>
<pdfrwt beam="1">  1        1 0.90687955E-01 0.77632565E+03</pdfrwt>
<pdfrwt beam="2">  1       -1 0.44923182E+00 0.77632565E+03</pdfrwt>
<totfact> 0.12338788E-01</totfact>
</mgrwt>
</event>
<event>
 4    1  0.2731969E-009  0.6621925E+03  0.7818608E-02  0.9784166E-01
         -1   -1    0    0    0  501 -0.00000000000E+00  0.00000000000E+00  0.43837736128E+03  0.43837736131E+03  0.50400000000E-02 0.  1.
          1   -1    0    0  501    0  0.00000000000E+00 -0.00000000000E+00 -0.12281230891E+04  0.12281230891E+04  0.50400000000E-02 0. -1.
    8880022    1    1    2    0    0  0.47442797029E+03 -0.43591904965E+03 -0.75377405011E+03  0.10033315945E+04  0.15294330000E+03 0.  0.
    8880022    1    1    2    0    0 -0.47442797029E+03  0.43591904965E+03 -0.35971677676E+02  0.66316885591E+03  0.15294330000E+03 0.  0.
<mgrwt>
<rscale>  0 0.66219255E+03</rscale>
<asrwt>0</asrwt>
<pdfrwt beam="1">  1        1 0.18894201E+00 0.66219255E+03</pdfrwt>
<pdfrwt beam="2">  1       -1 0.67442672E-01 0.66219255E+03</pdfrwt>
<totfact> 0.23658355E+01</totfact>
</mgrwt>
</event>
<event>
 4    1  0.2731969E-009  0.6987932E+03  0.7818608E-02  0.9719298E-01
         -1   -1    0    0    0  501 -0.00000000000E+00  0.00000000000E+00  0.18589180779E+04  0.18589180779E+04  0.50400000000E-02 0.  1.
          1   -1    0    0  501    0  0.00000000000E+00 -0.00000000000E+00 -0.49938664869E+03  0.49938664872E+03  0.50400000000E-02 0. -1.
    8880022    1    1    2    0    0 -0.66006655731E+03 -0.17097512116E+03  0.14915694820E+04  0.16471464794E+04  0.15294330000E+03 0.  0.
    8880022    1    1    2    0    0  0.66006655731E+03  0.17097512116E+03 -0.13203805278E+03  0.71115824718E+03  0.15294330000E+03 0. -1.
<mgrwt>
<rscale>  0 0.69879325E+03</rscale>
<asrwt>0</asrwt>
<pdfrwt beam="1">  1        1 0.76828715E-01 0.69879325E+03</pdfrwt>
<pdfrwt beam="2">  1       -1 0.28598740E+00 0.69879325E+03</pdfrwt>
<totfact> 0.19151712E+00</totfact>
</mgrwt>
</event>
<event>
 4    1  0.2731969E-009  0.1703723E+04  0.7818608E-02  0.8759244E-01
          1   -1    0    0  501    0  0.00000000000E+00  0.00000000000E+00  0.17206612752E+04  0.17206612752E+04  0.50400000000E-02 0. -1.
         -1   -1    0    0    0  501 -0.00000000000E+00 -0.00000000000E+00 -0.22071132612E+04  0.22071132612E+04  0.50400000000E-02 0.  1.
    8880022    1    1    2    0    0  0.15727217177E+04 -0.63704442043E+03 -0.11966229562E+04  0.20819647805E+04  0.15294330000E+03 0.  0.
    8880022    1    1    2    0    0 -0.15727217177E+04  0.63704442043E+03  0.71017097018E+03  0.18458097559E+04  0.15294330000E+03 0.  0.
<mgrwt>
<rscale>  0 0.17037226E+04</rscale>
<asrwt>0</asrwt>
<pdfrwt beam="1">  1        1 0.26471712E+00 0.17037226E+04</pdfrwt>
<pdfrwt beam="2">  1       -1 0.33955589E+00 0.17037226E+04</pdfrwt>
<totfact> 0.77475903E-02</totfact>
</mgrwt>
</event>
<event>
 4    1  0.2731969E-009  0.7215044E+03  0.7818608E-02  0.9681147E-01
         -1   -1    0    0    0  501 -0.00000000000E+00  0.00000000000E+00  0.63669778331E+03  0.63669778333E+03  0.50400000000E-02 0.  1.
          1   -1    0    0  501    0  0.00000000000E+00 -0.00000000000E+00 -0.12811424401E+04  0.12811424402E+04  0.50400000000E-02 0. -1.
    8880022    1    1    2    0    0  0.53804490790E+03  0.45572426361E+03  0.25457757460E+03  0.76510020380E+03  0.15294330000E+03 0.  0.
    8880022    1    1    2    0    0 -0.53804490790E+03 -0.45572426361E+03 -0.89902223144E+03  0.11527400197E+04  0.15294330000E+03 0.  0.
<mgrwt>
<rscale>  0 0.72150439E+03</rscale>
<asrwt>0</asrwt>
<pdfrwt beam="1">  1        1 0.19709884E+00 0.72150439E+03</pdfrwt>
<pdfrwt beam="2">  1       -1 0.97953505E-01 0.72150439E+03</pdfrwt>
<totfact> 0.96978114E+00</totfact>
</mgrwt>
</event>
<event>
 4    1  0.2731969E-009  0.3582312E+03  0.7818608E-02  0.1059286E+00
         -1   -1    0    0    0  501 -0.00000000000E+00  0.00000000000E+00  0.97748589243E+03  0.97748589244E+03  0.50400000000E-02 0.  1.
          1   -1    0    0  501    0  0.00000000000E+00 -0.00000000000E+00 -0.25040581934E+03  0.25040581939E+03  0.50400000000E-02 0. -1.
    8880022    1    1    2    0    0  0.27212922470E+03  0.17573728124E+03 -0.59908946499E+02  0.36320605975E+03  0.15294330000E+03 0. -1.
    8880022    1    1    2    0    0 -0.27212922470E+03 -0.17573728124E+03  0.78698901959E+03  0.86468565208E+03  0.15294330000E+03 0.  0.
<mgrwt>
<rscale>  0 0.35823115E+03</rscale>
<asrwt>0</asrwt>
<pdfrwt beam="1">  1        1 0.38523972E-01 0.35823115E+03</pdfrwt>
<pdfrwt beam="2">  1       -1 0.15038245E+00 0.35823115E+03</pdfrwt>
<totfact> 0.41100302E+01</totfact>
</mgrwt>
</event>
<event>
 4    1  0.2731969E-009  0.1231664E+04  0.7818608E-02  0.9085584E-01
         -1   -1    0    0    0  501 -0.00000000000E+00  0.00000000000E+00  0.29716496563E+04  0.29716496563E+04  0.50400000000E-02 0.  1.
          1   -1    0    0  501    0  0.00000000000E+00 -0.00000000000E+00 -0.61055804758E+03  0.61055804760E+03  0.50400000000E-02 0. -1.
    8880022    1    1    2    0    0  0.35883366280E+03 -0.11682646827E+04  0.45543174540E+03  0.13131693318E+04  0.15294330000E+03 0.  0.
    8880022    1    1    2    0    0 -0.35883366280E+03  0.11682646827E+04  0.19056598633E+04  0.22690383721E+04  0.15294330000E+03 0.  0.
<mgrwt>
<rscale>  0 0.12316638E+04</rscale>
<asrwt>0</asrwt>
<pdfrwt beam="1">  1        1 0.93932007E-01 0.12316638E+04</pdfrwt>
<pdfrwt beam="2">  1       -1 0.45717687E+00 0.12316638E+04</pdfrwt>
<totfact> 0.95528927E-02</totfact>
</mgrwt>
</event>
<event>
 4    1  0.2731969E-009  0.7715856E+03  0.7818608E-02  0.9602082E-01
          1   -1    0    0  501    0  0.00000000000E+00  0.00000000000E+00  0.15961770008E+04  0.15961770009E+04  0.50400000000E-02 0. -1.
         -1   -1    0    0    0  501 -0.00000000000E+00 -0.00000000000E+00 -0.12453156189E+04  0.12453156189E+04  0.50400000000E-02 0.  1.
    8880022    1    1    2    0    0 -0.54234738242E+03 -0.52707875716E+03  0.13645303934E+04  0.15675737772E+04  0.15294330000E+03 0.  0.
    8880022    1    1    2    0    0  0.54234738242E+03  0.52707875716E+03 -0.10136690115E+04  0.12739188425E+04  0.15294330000E+03 0.  0.
<mgrwt>
<rscale>  0 0.77158561E+03</rscale>
<asrwt>0</asrwt>
<pdfrwt beam="1">  1        1 0.24556569E+00 0.77158561E+03</pdfrwt>
<pdfrwt beam="2">  1       -1 0.19158702E+00 0.77158561E+03</pdfrwt>
<totfact> 0.10142492E+00</totfact>
</mgrwt>
</event>
<event>
 4    1  0.2731969E-009  0.3948553E+03  0.7818608E-02  0.1045576E+00
          1   -1    0    0  501    0  0.00000000000E+00  0.00000000000E+00  0.90364913323E+03  0.90364913325E+03  0.50400000000E-02 0. -1.
         -1   -1    0    0    0  501 -0.00000000000E+00 -0.00000000000E+00 -0.14535150822E+04  0.14535150822E+04  0.50400000000E-02 0.  1.
    8880022    1    1    2    0    0 -0.60218987107E+02 -0.35901628281E+03 -0.13813563487E+04  0.14366823005E+04  0.15294330000E+03 0.  0.
    8880022    1    1    2    0    0  0.60218987107E+02  0.35901628281E+03  0.83149039973E+03  0.92048191486E+03  0.15294330000E+03 0.  0.
<mgrwt>
<rscale>  0 0.39485525E+03</rscale>
<asrwt>0</asrwt>
<pdfrwt beam="1">  1        1 0.13902294E+00 0.39485525E+03</pdfrwt>
<pdfrwt beam="2">  1       -1 0.22361771E+00 0.39485525E+03</pdfrwt>
<totfact> 0.21447875E+00</totfact>
</mgrwt>
</event>
<event>
 4    1  0.2731969E-009  0.1248370E+04  0.7818608E-02  0.9071541E-01
         -1   -1    0    0    0  501 -0.00000000000E+00  0.00000000000E+00  0.14720112703E+04  0.14720112704E+04  0.50400000000E-02 0.  1.
          1   -1    0    0  501    0  0.00000000000E+00 -0.00000000000E+00 -0.12712769573E+04  0.12712769573E+04  0.50400000000E-02 0. -1.
    8880022    1    1    2    0    0 -0.12292950139E+04 -0.15449617294E+03  0.66125169476E+03  0.14126856534E+04  0.15294330000E+03 0.  0.
    8880022    1    1    2    0    0  0.12292950139E+04  0.15449617294E+03 -0.46051738169E+03  0.13306025742E+04  0.15294330000E+03 0.  0.
<mgrwt>
<rscale>  0 0.12483697E+04</rscale>
<asrwt>0</asrwt>
<pdfrwt beam="1">  1        1 0.19558107E+00 0.12483697E+04</pdfrwt>
<pdfrwt beam="2">  1       -1 0.22646327E+00 0.12483697E+04</pdfrwt>
<totfact> 0.92107023E-01</totfact>
</mgrwt>
</event>
<event>
 4    1  0.2731969E-009  0.8959963E+03  0.7818608E-02  0.9430600E-01
         -1   -1    0    0    0  501 -0.00000000000E+00  0.00000000000E+00  0.74829289693E+03  0.74829289695E+03  0.50400000000E-02 0.  1.
          1   -1    0    0  501    0  0.00000000000E+00 -0.00000000000E+00 -0.18004553349E+04  0.18004553349E+04  0.50400000000E-02 0. -1.
    8880022    1    1    2    0    0 -0.75720346275E+03  0.45393896334E+03  0.28404444992E+03  0.93994179021E+03  0.15294330000E+03 0.  0.
    8880022    1    1    2    0    0  0.75720346275E+03 -0.45393896334E+03 -0.13362068879E+04  0.16088064417E+04  0.15294330000E+03 0.  0.
<mgrwt>
<rscale>  0 0.89599627E+03</rscale>
<asrwt>0</asrwt>
<pdfrwt beam="1">  1        1 0.27699313E+00 0.89599627E+03</pdfrwt>
<pdfrwt beam="2">  1       -1 0.11512198E+00 0.89599627E+03</pdfrwt>
<totfact> 0.28535898E+00</totfact>
</mgrwt>
</event>
<event>
 4    1  0.2731969E-009  0.2878540E+03  0.7818608E-02  0.1091475E+00
         -1   -1    0    0    0  501 -0.00000000000E+00  0.00000000000E+00  0.15771008474E+04  0.15771008474E+04  0.50400000000E-02 0.  1.
          1   -1    0    0  501    0  0.00000000000E+00 -0.00000000000E+00 -0.52745848788E+03  0.52745848790E+03  0.50400000000E-02 0. -1.
    8880022    1    1    2    0    0 -0.96566974909E+02  0.22392658132E+03 -0.47367600417E+03  0.55428233276E+03  0.15294330000E+03 0. -1.
    8880022    1    1    2    0    0  0.96566974909E+02 -0.22392658132E+03  0.15233183637E+04  0.15502770026E+04  0.15294330000E+03 0.  0.
<mgrwt>
<rscale>  0 0.28785404E+03</rscale>
<asrwt>0</asrwt>
<pdfrwt beam="1">  1        1 0.81147461E-01 0.28785404E+03</pdfrwt>
<pdfrwt beam="2">  1       -1 0.24263090E+00 0.28785404E+03</pdfrwt>
<totfact> 0.37435383E+00</totfact>
</mgrwt>
</event>
<event>
 4    1  0.2731969E-009  0.1067238E+04  0.7818608E-02  0.9237725E-01
         -1   -1    0    0    0  501 -0.00000000000E+00  0.00000000000E+00  0.19404956596E+04  0.19404956596E+04  0.50400000000E-02 0.  1.
          1   -1    0    0  501    0  0.00000000000E+00 -0.00000000000E+00 -0.25277886395E+04  0.25277886395E+04  0.50400000000E-02 0. -1.
    8880022    1    1    2    0    0  0.10495040825E+04 -0.11894272987E+03 -0.22512906769E+04  0.24914468802E+04  0.15294330000E+03 0.  0.
    8880022    1    1    2    0    0 -0.10495040825E+04  0.11894272987E+03  0.16639976970E+04  0.19768374189E+04  0.15294330000E+03 0.  0.
<mgrwt>
<rscale>  0 0.10672384E+04</rscale>
<asrwt>0</asrwt>
<pdfrwt beam="1">  1        1 0.38889056E+00 0.10672384E+04</pdfrwt>
<pdfrwt beam="2">  1       -1 0.29853779E+00 0.10672384E+04</pdfrwt>
<totfact> 0.44426983E-02</totfact>
</mgrwt>
</event>
<event>
 4    1  0.2731969E-009  0.1168250E+04  0.7818608E-02  0.9141110E-01
          1   -1    0    0  501    0  0.00000000000E+00  0.00000000000E+00  0.32087689156E+04  0.32087689156E+04  0.50400000000E-02 0. -1.
         -1   -1    0    0    0  501 -0.00000000000E+00 -0.00000000000E+00 -0.70666450512E+03  0.70666450514E+03  0.50400000000E-02 0.  1.
    8880022    1    1    2    0    0  0.11333005363E+04 -0.23884267267E+03  0.24862867874E+04  0.27470765497E+04  0.15294330000E+03 0.  0.
    8880022    1    1    2    0    0 -0.11333005363E+04  0.23884267267E+03  0.15817623170E+02  0.11683568711E+04  0.15294330000E+03 0.  1.
<mgrwt>
<rscale>  0 0.11682498E+04</rscale>
<asrwt>0</asrwt>
<pdfrwt beam="1">  1        1 0.49365675E+00 0.11682498E+04</pdfrwt>
<pdfrwt beam="2">  1       -1 0.10871762E+00 0.11682498E+04</pdfrwt>
<totfact> 0.32964092E-01</totfact>
</mgrwt>
</event>
<event>
 4    1  0.2731969E-009  0.3260654E+03  0.7818608E-02  0.1072891E+00
          1   -1    0    0  501    0  0.00000000000E+00  0.00000000000E+00  0.12622499466E+04  0.12622499466E+04  0.50400000000E-02 0. -1.
         -1   -1    0    0    0  501 -0.00000000000E+00 -0.00000000000E+00 -0.13178334603E+03  0.13178334613E+03  0.50400000000E-02 0.  1.
    8880022    1    1    2    0    0  0.61848793203E+02 -0.28125031696E+03  0.14653059918E+03  0.35747710909E+03  0.15294330000E+03 0.  0.
    8880022    1    1    2    0    0 -0.61848793203E+02  0.28125031696E+03  0.98393600137E+03  0.10365561836E+04  0.15294330000E+03 0.  0.
<mgrwt>
<rscale>  0 0.32606543E+03</rscale>
<asrwt>0</asrwt>
<pdfrwt beam="1">  1        1 0.19419229E+00 0.32606543E+03</pdfrwt>
<pdfrwt beam="2">  1       -1 0.20274362E-01 0.32606543E+03</pdfrwt>
<totfact> 0.20404449E+02</totfact>
</mgrwt>
</event>
<event>
 4    1  0.2731969E-009  0.9861067E+03  0.7818608E-02  0.9323915E-01
          1   -1    0    0  501    0  0.00000000000E+00  0.00000000000E+00  0.30991226624E+04  0.30991226624E+04  0.50400000000E-02 0. -1.
         -1   -1    0    0    0  501 -0.00000000000E+00 -0.00000000000E+00 -0.54144704310E+03  0.54144704312E+03  0.50400000000E-02 0.  1.
    8880022    1    1    2    0    0  0.55886597245E+03 -0.79792451744E+03  0.98455666195E+02  0.99100952666E+03  0.15294330000E+03 0.  0.
    8880022    1    1    2    0    0 -0.55886597245E+03  0.79792451744E+03  0.24592199531E+04  0.26495601789E+04  0.15294330000E+03 0.  0.
<mgrwt>
<rscale>  0 0.98610667E+03</rscale>
<asrwt>0</asrwt>
<pdfrwt beam="1">  1        1 0.47678809E+00 0.98610667E+03</pdfrwt>
<pdfrwt beam="2">  1       -1 0.83299547E-01 0.98610667E+03</pdfrwt>
<totfact> 0.74659228E-01</totfact>
</mgrwt>
</event>
<event>
 4    1  0.2731969E-009  0.2536712E+03  0.7818608E-02  0.1111006E+00
         -1   -1    0    0    0  501 -0.00000000000E+00  0.00000000000E+00  0.22645969780E+03  0.22645969786E+03  0.50400000000E-02 0.  1.
          1   -1    0    0  501    0  0.00000000000E+00 -0.00000000000E+00 -0.18740943025E+04  0.18740943025E+04  0.50400000000E-02 0. -1.
    8880022    1    1    2    0    0 -0.19560629825E+03 -0.51919156124E+02 -0.17912009836E+04  0.18090743598E+04  0.15294330000E+03 0. -1.
    8880022    1    1    2    0    0  0.19560629825E+03  0.51919156124E+02  0.14356637890E+03  0.29147964055E+03  0.15294330000E+03 0.  0.
<mgrwt>
<rscale>  0 0.25367120E+03</rscale>
<asrwt>0</asrwt>
<pdfrwt beam="1">  1        1 0.28832219E+00 0.25367120E+03</pdfrwt>
<pdfrwt beam="2">  1       -1 0.34839955E-01 0.25367120E+03</pdfrwt>
<totfact> 0.32734002E+01</totfact>
</mgrwt>
</event>
<event>
 4    1  0.2731969E-009  0.1087988E+04  0.7818608E-02  0.9216980E-01
          1   -1    0    0  501    0  0.00000000000E+00  0.00000000000E+00  0.18722802678E+04  0.18722802678E+04  0.50400000000E-02 0. -1.
         -1   -1    0    0    0  501 -0.00000000000E+00 -0.00000000000E+00 -0.12496443484E+04  0.12496443485E+04  0.50400000000E-02 0.  1.
    8880022    1    1    2    0    0  0.56907245548E+03  0.91459377058E+03 -0.78588405973E+03  0.13421365926E+04  0.15294330000E+03 0.  0.
    8880022    1    1    2    0    0 -0.56907245548E+03 -0.91459377058E+03  0.14085199791E+04  0.17797880237E+04  0.15294330000E+03 0.  0.
<mgrwt>
<rscale>  0 0.10879875E+04</rscale>
<asrwt>0</asrwt>
<pdfrwt beam="1">  1        1 0.28804311E+00 0.10879875E+04</pdfrwt>
<pdfrwt beam="2">  1       -1 0.19225298E+00 0.10879875E+04</pdfrwt>
<totfact> 0.61795907E-01</totfact>
</mgrwt>
</event>
<event>
 4    1  0.2731969E-009  0.4705894E+03  0.7818608E-02  0.1021754E+00
         -1   -1    0    0    0  501 -0.00000000000E+00  0.00000000000E+00  0.31487885757E+03  0.31487885761E+03  0.50400000000E-02 0.  1.
          1   -1    0    0  501    0  0.00000000000E+00 -0.00000000000E+00 -0.16274049495E+04  0.16274049495E+04  0.50400000000E-02 0. -1.
    8880022    1    1    2    0    0 -0.19610300246E+03 -0.39950756852E+03  0.75542165333E+02  0.47661405417E+03  0.15294330000E+03 0.  0.
    8880022    1    1    2    0    0  0.19610300246E+03  0.39950756852E+03 -0.13880682573E+04  0.14656697529E+04  0.15294330000E+03 0. -1.
<mgrwt>
<rscale>  0 0.47058935E+03</rscale>
<asrwt>0</asrwt>
<pdfrwt beam="1">  1        1 0.25036999E+00 0.47058935E+03</pdfrwt>
<pdfrwt beam="2">  1       -1 0.48442902E-01 0.47058935E+03</pdfrwt>
<totfact> 0.24684875E+01</totfact>
</mgrwt>
</event>
<event>
 4    1  0.2731969E-009  0.5621038E+03  0.7818608E-02  0.9987306E-01
          1   -1    0    0  501    0  0.00000000000E+00  0.00000000000E+00  0.74286498035E+03  0.74286498037E+03  0.50400000000E-02 0. -1.
         -1   -1    0    0    0  501 -0.00000000000E+00 -0.00000000000E+00 -0.22212580975E+04  0.22212580975E+04  0.50400000000E-02 0.  1.
    8880022    1    1    2    0    0 -0.47607709158E+03 -0.25674826892E+03 -0.20718325223E+04  0.21467302402E+04  0.15294330000E+03 0.  0.
    8880022    1    1    2    0    0  0.47607709158E+03  0.25674826892E+03  0.59343940506E+03  0.81739283776E+03  0.15294330000E+03 0.  0.
<mgrwt>
<rscale>  0 0.56210384E+03</rscale>
<asrwt>0</asrwt>
<pdfrwt beam="1">  1        1 0.11428692E+00 0.56210384E+03</pdfrwt>
<pdfrwt beam="2">  1       -1 0.34173201E+00 0.56210384E+03</pdfrwt>
<totfact> 0.48986909E-01</totfact>
</mgrwt>
</event>
<event>
 4    1  0.2731969E-009  0.8794846E+03  0.7818608E-02  0.9451596E-01
         -1   -1    0    0    0  501 -0.00000000000E+00  0.00000000000E+00  0.98396325458E+03  0.98396325460E+03  0.50400000000E-02 0.  1.
          1   -1    0    0  501    0  0.00000000000E+00 -0.00000000000E+00 -0.97858604616E+03  0.97858604618E+03  0.50400000000E-02 0. -1.
    8880022    1    1    2    0    0 -0.34958108535E+03  0.79239800214E+03  0.43789079941E+03  0.98246706522E+03  0.15294330000E+03 0.  0.
    8880022    1    1    2    0    0  0.34958108535E+03 -0.79239800214E+03 -0.43251359099E+03  0.98008223555E+03  0.15294330000E+03 0.  0.
<mgrwt>
<rscale>  0 0.87948461E+03</rscale>
<asrwt>0</asrwt>
<pdfrwt beam="1">  1        1 0.15055170E+00 0.87948461E+03</pdfrwt>
<pdfrwt beam="2">  1       -1 0.15137896E+00 0.87948461E+03</pdfrwt>
<totfact> 0.54457184E+00</totfact>
</mgrwt>
</event>
<event>
 4    1  0.2731969E-009  0.7399355E+03  0.7818608E-02  0.9651274E-01
         -1   -1    0    0    0  501 -0.00000000000E+00  0.00000000000E+00  0.72631458142E+03  0.72631458144E+03  0.50400000000E-02 0.  1.
          1   -1    0    0  501    0  0.00000000000E+00 -0.00000000000E+00 -0.16250188760E+04  0.16250188760E+04  0.50400000000E-02 0. -1.
    8880022    1    1    2    0    0 -0.38484038437E+03  0.61319712378E+03 -0.13101788396E+04  0.15046837139E+04  0.15294330000E+03 0.  0.
    8880022    1    1    2    0    0  0.38484038437E+03 -0.61319712378E+03  0.41147454502E+03  0.84664974357E+03  0.15294330000E+03 0.  0.
<mgrwt>
<rscale>  0 0.73993546E+03</rscale>
<asrwt>0</asrwt>
<pdfrwt beam="1">  1        1 0.25000290E+00 0.73993546E+03</pdfrwt>
<pdfrwt beam="2">  1       -1 0.11174071E+00 0.73993546E+03</pdfrwt>
<totfact> 0.41273582E+00</totfact>
</mgrwt>
</event>
<event>
 4    1  0.2731969E-009  0.1141253E+04  0.7818608E-02  0.9165891E-01
         -1   -1    0    0    0  501 -0.00000000000E+00  0.00000000000E+00  0.48739566865E+03  0.48739566868E+03  0.50400000000E-02 0.  1.
          1   -1    0    0  501    0  0.00000000000E+00 -0.00000000000E+00 -0.27280455855E+04  0.27280455855E+04  0.50400000000E-02 0. -1.
    8880022    1    1    2    0    0 -0.32029342335E+03  0.10846560053E+04 -0.13501853015E+04  0.17678966396E+04  0.15294330000E+03 0.  0.
    8880022    1    1    2    0    0  0.32029342335E+03 -0.10846560053E+04 -0.89046461540E+03  0.14475446146E+04  0.15294330000E+03 0.  0.
<mgrwt>
<rscale>  0 0.11412529E+04</rscale>
<asrwt>0</asrwt>
<pdfrwt beam="1">  1        1 0.41969931E+00 0.11412529E+04</pdfrwt>
<pdfrwt beam="2">  1       -1 0.74983950E-01 0.11412529E+04</pdfrwt>
<totfact> 0.16812899E+00</totfact>
</mgrwt>
</event>
<event>
 4    1  0.2731969E-009  0.2190059E+04  0.7818608E-02  0.8522577E-01
         -1   -1    0    0    0  501 -0.00000000000E+00  0.00000000000E+00  0.21479492179E+04  0.21479492179E+04  0.50400000000E-02 0.  1.
          1   -1    0    0  501    0  0.00000000000E+00 -0.00000000000E+00 -0.27966667254E+04  0.27966667254E+04  0.50400000000E-02 0. -1.
    8880022    1    1    2    0    0 -0.16789675985E+04 -0.13978684211E+04  0.78557054941E+03  0.23266888621E+04  0.15294330000E+03 0.  0.
    8880022    1    1    2    0    0  0.16789675985E+04  0.13978684211E+04 -0.14342880569E+04  0.26179270813E+04  0.15294330000E+03 0.  0.
<mgrwt>
<rscale>  0 0.21900594E+04</rscale>
<asrwt>0</asrwt>
<pdfrwt beam="1">  1        1 0.43025642E+00 0.21900594E+04</pdfrwt>
<pdfrwt beam="2">  1       -1 0.33045373E+00 0.21900594E+04</pdfrwt>
<totfact> 0.15185784E-02</totfact>
</mgrwt>
</event>
<event>
 4    1  0.2731969E-009  0.6293680E+03  0.7818608E-02  0.9846283E-01
          1   -1    0    0  501    0  0.00000000000E+00  0.00000000000E+00  0.11910362348E+04  0.11910362348E+04  0.50400000000E-02 0. -1.
         -1   -1    0    0    0  501 -0.00000000000E+00 -0.00000000000E+00 -0.92531909631E+03  0.92531909633E+03  0.50400000000E-02 0.  1.
    8880022    1    1    2    0    0 -0.41001088525E+03 -0.45233116818E+03  0.97978936870E+03  0.11645133197E+04  0.15294330000E+03 0.  0.
    8880022    1    1    2    0    0  0.41001088525E+03  0.45233116818E+03 -0.71407223022E+03  0.95184201143E+03  0.15294330000E+03 0.  0.
<mgrwt>
<rscale>  0 0.62936799E+03</rscale>
<asrwt>0</asrwt>
<pdfrwt beam="1">  1        1 0.18323634E+00 0.62936799E+03</pdfrwt>
<pdfrwt beam="2">  1       -1 0.14235679E+00 0.62936799E+03</pdfrwt>
<totfact> 0.46190159E+00</totfact>
</mgrwt>
</event>
<event>
 4    1  0.2731969E-009  0.1335963E+04  0.7818608E-02  0.9001523E-01
          1   -1    0    0  501    0  0.00000000000E+00  0.00000000000E+00  0.11962371429E+04  0.11962371429E+04  0.50400000000E-02 0. -1.
         -1   -1    0    0    0  501 -0.00000000000E+00 -0.00000000000E+00 -0.19510562803E+04  0.19510562803E+04  0.50400000000E-02 0.  1.
    8880022    1    1    2    0    0  0.74727322358E+03 -0.10968078632E+04  0.38590072102E+03  0.13905810940E+04  0.15294330000E+03 0.  0.
    8880022    1    1    2    0    0 -0.74727322358E+03  0.10968078632E+04 -0.11407198584E+04  0.17567123293E+04  0.15294330000E+03 0.  0.
<mgrwt>
<rscale>  0 0.13359627E+04</rscale>
<asrwt>0</asrwt>
<pdfrwt beam="1">  1        1 0.18403648E+00 0.13359627E+04</pdfrwt>
<pdfrwt beam="2">  1       -1 0.30016251E+00 0.13359627E+04</pdfrwt>
<totfact> 0.34260189E-01</totfact>
</mgrwt>
</event>
<event>
 4    1  0.2731969E-009  0.8083228E+03  0.7818608E-02  0.9548048E-01
         -1   -1    0    0    0  501 -0.00000000000E+00  0.00000000000E+00  0.13341901401E+04  0.13341901401E+04  0.50400000000E-02 0.  1.
          1   -1    0    0  501    0  0.00000000000E+00 -0.00000000000E+00 -0.10477951428E+04  0.10477951428E+04  0.50400000000E-02 0. -1.
    8880022    1    1    2    0    0  0.26919411896E+03  0.74667834834E+03  0.10123889615E+04  0.12954987811E+04  0.15294330000E+03 0.  0.
    8880022    1    1    2    0    0 -0.26919411896E+03 -0.74667834834E+03 -0.72599396416E+03  0.10864865018E+04  0.15294330000E+03 0.  0.
<mgrwt>
<rscale>  0 0.80832276E+03</rscale>
<asrwt>0</asrwt>
<pdfrwt beam="1">  1        1 0.16119925E+00 0.80832276E+03</pdfrwt>
<pdfrwt beam="2">  1       -1 0.20526002E+00 0.80832276E+03</pdfrwt>
<totfact> 0.19890333E+00</totfact>
</mgrwt>
</event>
<event>
 4    1  0.2731969E-009  0.1095799E+04  0.7818608E-02  0.9209296E-01
         -1   -1    0    0    0  501 -0.00000000000E+00  0.00000000000E+00  0.11656382083E+04  0.11656382083E+04  0.50400000000E-02 0.  1.
          1   -1    0    0  501    0  0.00000000000E+00 -0.00000000000E+00 -0.24412987993E+04  0.24412987993E+04  0.50400000000E-02 0. -1.
    8880022    1    1    2    0    0  0.82178232037E+03 -0.70855995139E+03 -0.20089817981E+04  0.22884018233E+04  0.15294330000E+03 0.  0.
    8880022    1    1    2    0    0 -0.82178232037E+03  0.70855995139E+03  0.73332120704E+03  0.13185351844E+04  0.15294330000E+03 0.  0.
<mgrwt>
<rscale>  0 0.10957988E+04</rscale>
<asrwt>0</asrwt>
<pdfrwt beam="1">  1        1 0.37558443E+00 0.10957988E+04</pdfrwt>
<pdfrwt beam="2">  1       -1 0.17932896E+00 0.10957988E+04</pdfrwt>
<totfact> 0.31356027E-01</totfact>
</mgrwt>
</event>
<event>
 4    1  0.2731969E-009  0.1587237E+04  0.7818608E-02  0.8828427E-01
          1   -1    0    0  501    0  0.00000000000E+00  0.00000000000E+00  0.16020130026E+04  0.16020130026E+04  0.50400000000E-02 0. -1.
         -1   -1    0    0    0  501 -0.00000000000E+00 -0.00000000000E+00 -0.21801542016E+04  0.21801542017E+04  0.50400000000E-02 0.  1.
    8880022    1    1    2    0    0 -0.24982442966E+02  0.15796536402E+04 -0.12873694823E+04  0.20436833371E+04  0.15294330000E+03 0.  0.
    8880022    1    1    2    0    0  0.24982442966E+02 -0.15796536402E+04  0.70922828321E+03  0.17384838671E+04  0.15294330000E+03 0.  0.
<mgrwt>
<rscale>  0 0.15872370E+04</rscale>
<asrwt>0</asrwt>
<pdfrwt beam="1">  1        1 0.24646354E+00 0.15872370E+04</pdfrwt>
<pdfrwt beam="2">  1       -1 0.33540834E+00 0.15872370E+04</pdfrwt>
<totfact> 0.10093749E-01</totfact>
</mgrwt>
</event>
<event>
 4    1  0.2731969E-009  0.1058897E+04  0.7818608E-02  0.9246206E-01
         -1   -1    0    0    0  501 -0.00000000000E+00  0.00000000000E+00  0.68977317713E+03  0.68977317715E+03  0.50400000000E-02 0.  1.
          1   -1    0    0  501    0  0.00000000000E+00 -0.00000000000E+00 -0.35596357347E+04  0.35596357347E+04  0.50400000000E-02 0. -1.
    8880022    1    1    2    0    0 -0.86071871207E+03  0.59752372686E+03  0.13121836958E+03  0.10669963538E+04  0.15294330000E+03 0.  0.
    8880022    1    1    2    0    0  0.86071871207E+03 -0.59752372686E+03 -0.30010809271E+04  0.31824125581E+04  0.15294330000E+03 0.  0.
<mgrwt>
<rscale>  0 0.10588970E+04</rscale>
<asrwt>0</asrwt>
<pdfrwt beam="1">  1        1 0.54763625E+00 0.10588970E+04</pdfrwt>
<pdfrwt beam="2">  1       -1 0.10611895E+00 0.10588970E+04</pdfrwt>
<totfact> 0.19160969E-01</totfact>
</mgrwt>
</event>
<event>
 4    1  0.2731969E-009  0.9040923E+03  0.7818608E-02  0.9420480E-01
         -1   -1    0    0    0  501 -0.00000000000E+00  0.00000000000E+00  0.45972534206E+03  0.45972534209E+03  0.50400000000E-02 0.  1.
          1   -1    0    0  501    0  0.00000000000E+00 -0.00000000000E+00 -0.20167831717E+04  0.20167831717E+04  0.50400000000E-02 0. -1.
    8880022    1    1    2    0    0 -0.86833727385E+03  0.19995414441E+03 -0.12046169512E+04  0.15061490408E+04  0.15294330000E+03 0.  0.
    8880022    1    1    2    0    0  0.86833727385E+03 -0.19995414441E+03 -0.35244087846E+03  0.97035947300E+03  0.15294330000E+03 0.  0.
<mgrwt>
<rscale>  0 0.90409233E+03</rscale>
<asrwt>0</asrwt>
<pdfrwt beam="1">  1        1 0.31027433E+00 0.90409233E+03</pdfrwt>
<pdfrwt beam="2">  1       -1 0.70726977E-01 0.90409233E+03</pdfrwt>
<totfact> 0.60067340E+00</totfact>
</mgrwt>
</event>
<event>
 4    1  0.2731969E-009  0.1128728E+04  0.7818608E-02  0.9177635E-01
          1   -1    0    0  501    0  0.00000000000E+00  0.00000000000E+00  0.36828953552E+04  0.36828953552E+04  0.50400000000E-02 0. -1.
         -1   -1    0    0    0  501 -0.00000000000E+00 -0.00000000000E+00 -0.59492476519E+03  0.59492476521E+03  0.50400000000E-02 0.  1.
    8880022    1    1    2    0    0 -0.50807033294E+03  0.99624275566E+03  0.16024064305E+03  0.11400455290E+04  0.15294330000E+03 0.  0.
    8880022    1    1    2    0    0  0.50807033294E+03 -0.99624275566E+03  0.29277299470E+04  0.31377745915E+04  0.15294330000E+03 0.  0.
<mgrwt>
<rscale>  0 0.11287279E+04</rscale>
<asrwt>0</asrwt>
<pdfrwt beam="1">  1        1 0.56659930E+00 0.11287279E+04</pdfrwt>
<pdfrwt beam="2">  1       -1 0.91526884E-01 0.11287279E+04</pdfrwt>
<totfact> 0.21163013E-01</totfact>
</mgrwt>
</event>
<event>
 4    1  0.2731969E-009  0.8215605E+03  0.7818608E-02  0.9529323E-01
         -1   -1    0    0    0  501 -0.00000000000E+00  0.00000000000E+00  0.62592343255E+03  0.62592343257E+03  0.50400000000E-02 0.  1.
          1   -1    0    0  501    0  0.00000000000E+00 -0.00000000000E+00 -0.25307315193E+04  0.25307315193E+04  0.50400000000E-02 0. -1.
    8880022    1    1    2    0    0 -0.24213808018E+03 -0.77002537484E+03  0.24327644478E+03  0.85682262422E+03  0.15294330000E+03 0.  0.
    8880022    1    1    2    0    0  0.24213808018E+03  0.77002537484E+03 -0.21480845315E+04  0.22998323276E+04  0.15294330000E+03 0.  0.
<mgrwt>
<rscale>  0 0.82156045E+03</rscale>
<asrwt>0</asrwt>
<pdfrwt beam="1">  1        1 0.38934330E+00 0.82156045E+03</pdfrwt>
<pdfrwt beam="2">  1       -1 0.96295914E-01 0.82156045E+03</pdfrwt>
<totfact> 0.14079111E+00</totfact>
</mgrwt>
</event>
<event>
 4    1  0.2731969E-009  0.1209597E+04  0.7818608E-02  0.9104497E-01
         -1   -1    0    0    0  501 -0.00000000000E+00  0.00000000000E+00  0.95600571344E+03  0.95600571345E+03  0.50400000000E-02 0.  1.
          1   -1    0    0  501    0  0.00000000000E+00 -0.00000000000E+00 -0.16725616118E+04  0.16725616118E+04  0.50400000000E-02 0. -1.
    8880022    1    1    2    0    0  0.11299136391E+04 -0.40376868549E+03  0.24813213142E+02  0.12098517809E+04  0.15294330000E+03 0.  0.
    8880022    1    1    2    0    0 -0.11299136391E+04  0.40376868549E+03 -0.74136911146E+03  0.14187155443E+04  0.15294330000E+03 0.  0.
<mgrwt>
<rscale>  0 0.12095973E+04</rscale>
<asrwt>0</asrwt>
<pdfrwt beam="1">  1        1 0.25731717E+00 0.12095973E+04</pdfrwt>
<pdfrwt beam="2">  1       -1 0.14707780E+00 0.12095973E+04</pdfrwt>
<totfact> 0.17946713E+00</totfact>
</mgrwt>
</event>
<event>
 4    1  0.2731969E-009  0.4921195E+03  0.7818608E-02  0.1015857E+00
          1   -1    0    0  501    0  0.00000000000E+00  0.00000000000E+00  0.23929793275E+04  0.23929793275E+04  0.50400000000E-02 0. -1.
         -1   -1    0    0    0  501 -0.00000000000E+00 -0.00000000000E+00 -0.83063694738E+03  0.83063694740E+03  0.50400000000E-02 0.  1.
    8880022    1    1    2    0    0 -0.45398251186E+03  0.11264924722E+03  0.22915994151E+04  0.23438450261E+04  0.15294330000E+03 0.  0.
    8880022    1    1    2    0    0  0.45398251186E+03 -0.11264924722E+03 -0.72925703505E+03  0.87977124876E+03  0.15294330000E+03 0.  0.
<mgrwt>
<rscale>  0 0.49211953E+03</rscale>
<asrwt>0</asrwt>
<pdfrwt beam="1">  1        1 0.36815066E+00 0.49211953E+03</pdfrwt>
<pdfrwt beam="2">  1       -1 0.12779030E+00 0.49211953E+03</pdfrwt>
<totfact> 0.97392625E-01</totfact>
</mgrwt>
</event>
<event>
 4    1  0.2731969E-009  0.4561856E+03  0.7818608E-02  0.1025893E+00
         -1   -1    0    0    0  501 -0.00000000000E+00  0.00000000000E+00  0.11819052388E+04  0.11819052388E+04  0.50400000000E-02 0.  1.
          1   -1    0    0  501    0  0.00000000000E+00 -0.00000000000E+00 -0.18427025901E+04  0.18427025901E+04  0.50400000000E-02 0. -1.
    8880022    1    1    2    0    0 -0.18786132528E+03  0.38655111426E+03 -0.17686361158E+04  0.18265210113E+04  0.15294330000E+03 0.  0.
    8880022    1    1    2    0    0  0.18786132528E+03 -0.38655111426E+03  0.11078387645E+04  0.11980868176E+04  0.15294330000E+03 0.  0.
<mgrwt>
<rscale>  0 0.45618559E+03</rscale>
<asrwt>0</asrwt>
<pdfrwt beam="1">  1        1 0.28349271E+00 0.45618559E+03</pdfrwt>
<pdfrwt beam="2">  1       -1 0.18183158E+00 0.45618559E+03</pdfrwt>
<totfact> 0.88459506E-01</totfact>
</mgrwt>
</event>
<event>
 4    1  0.2731969E-009  0.7511971E+03  0.7818608E-02  0.9633474E-01
          1   -1    0    0  501    0  0.00000000000E+00  0.00000000000E+00  0.18644869377E+04  0.18644869377E+04  0.50400000000E-02 0. -1.
         -1   -1    0    0    0  501 -0.00000000000E+00 -0.00000000000E+00 -0.36961350171E+03  0.36961350174E+03  0.50400000000E-02 0.  1.
    8880022    1    1    2    0    0  0.73508052036E+02 -0.73177998142E+03  0.27199162230E+03  0.79892206788E+03  0.15294330000E+03 0.  0.
    8880022    1    1    2    0    0 -0.73508052036E+02  0.73177998142E+03  0.12228818137E+04  0.14351783716E+04  0.15294330000E+03 0.  0.
<mgrwt>
<rscale>  0 0.75119706E+03</rscale>
<asrwt>0</asrwt>
<pdfrwt beam="1">  1        1 0.28684415E+00 0.75119706E+03</pdfrwt>
<pdfrwt beam="2">  1       -1 0.56863615E-01 0.75119706E+03</pdfrwt>
<totfact> 0.12020710E+01</totfact>
</mgrwt>
</event>
<event>
 4    1  0.2731969E-009  0.5138420E+03  0.7818608E-02  0.1010228E+00
         -1   -1    0    0    0  501 -0.00000000000E+00  0.00000000000E+00  0.68296950449E+03  0.68296950451E+03  0.50400000000E-02 0.  1.
          1   -1    0    0  501    0  0.00000000000E+00 -0.00000000000E+00 -0.18294569939E+04  0.18294569939E+04  0.50400000000E-02 0. -1.
    8880022    1    1    2    0    0 -0.48933888141E+03 -0.34487926622E+02 -0.16888589899E+04  0.17652983597E+04  0.15294330000E+03 0.  0.
    8880022    1    1    2    0    0  0.48933888141E+03  0.34487926622E+02  0.54237150056E+03  0.74712813866E+03  0.15294330000E+03 0.  1.
<mgrwt>
<rscale>  0 0.51384201E+03</rscale>
<asrwt>0</asrwt>
<pdfrwt beam="1">  1        1 0.28145492E+00 0.51384201E+03</pdfrwt>
<pdfrwt beam="2">  1       -1 0.10507223E+00 0.51384201E+03</pdfrwt>
<totfact> 0.36539032E+00</totfact>
</mgrwt>
</event>
<event>
 4    1  0.2731969E-009  0.1047278E+04  0.7818608E-02  0.9258159E-01
         -1   -1    0    0    0  501 -0.00000000000E+00  0.00000000000E+00  0.82345039081E+03  0.82345039083E+03  0.50400000000E-02 0.  1.
          1   -1    0    0  501    0  0.00000000000E+00 -0.00000000000E+00 -0.25157916699E+04  0.25157916699E+04  0.50400000000E-02 0. -1.
    8880022    1    1    2    0    0  0.22807986129E+03 -0.10106330809E+04 -0.19914940777E+04  0.22500755458E+04  0.15294330000E+03 0.  0.
    8880022    1    1    2    0    0 -0.22807986129E+03  0.10106330809E+04  0.29915279858E+03  0.10891665149E+04  0.15294330000E+03 0.  0.
<mgrwt>
<rscale>  0 0.10472780E+04</rscale>
<asrwt>0</asrwt>
<pdfrwt beam="1">  1        1 0.38704487E+00 0.10472780E+04</pdfrwt>
<pdfrwt beam="2">  1       -1 0.12668468E+00 0.10472780E+04</pdfrwt>
<totfact> 0.72261956E-01</totfact>
</mgrwt>
</event>
<event>
 4    1  0.2731969E-009  0.1485233E+04  0.7818608E-02  0.8894332E-01
          1   -1    0    0  501    0  0.00000000000E+00  0.00000000000E+00  0.10232930634E+04  0.10232930634E+04  0.50400000000E-02 0. -1.
         -1   -1    0    0    0  501 -0.00000000000E+00 -0.00000000000E+00 -0.28195785334E+04  0.28195785334E+04  0.50400000000E-02 0.  1.
    8880022    1    1    2    0    0 -0.45399274304E+03  0.14058508097E+04  0.34202142002E+02  0.14856269213E+04  0.15294330000E+03 0.  0.
    8880022    1    1    2    0    0  0.45399274304E+03 -0.14058508097E+04 -0.18304876120E+04  0.23572446756E+04  0.15294330000E+03 0.  0.
<mgrwt>
<rscale>  0 0.14852332E+04</rscale>
<asrwt>0</asrwt>
<pdfrwt beam="1">  1        1 0.15742970E+00 0.14852332E+04</pdfrwt>
<pdfrwt beam="2">  1       -1 0.43378131E+00 0.14852332E+04</pdfrwt>
<totfact> 0.57939554E-02</totfact>
</mgrwt>
</event>
<event>
 4    1  0.6853984E-009  0.1126197E+04  0.7818608E-02  0.9180028E-01
         -1   -1    0    0    0  501 -0.00000000000E+00  0.00000000000E+00  0.26355997451E+04  0.26355997451E+04  0.50400000000E-02 0.  1.
          1   -1    0    0  501    0  0.00000000000E+00 -0.00000000000E+00 -0.19419064200E+04  0.19419064200E+04  0.50400000000E-02 0. -1.
    8880022    1    1    2    0    0 -0.80191690955E+03  0.77579464825E+03  0.23318551301E+04  0.25895690890E+04  0.15294330000E+03 0.  0.
    8880022    1    1    2    0    0  0.80191690955E+03 -0.77579464825E+03 -0.16381618050E+04  0.19879370761E+04  0.15294330000E+03 0.  0.
<mgrwt>
<rscale>  0 0.11261970E+04</rscale>
<asrwt>0</asrwt>
<pdfrwt beam="1">  1        1 0.29875484E+00 0.11261970E+04</pdfrwt>
<pdfrwt beam="2">  1       -1 0.40547688E+00 0.11261970E+04</pdfrwt>
<totfact> 0.21555935E-02</totfact>
</mgrwt>
</event>
<event>
 4    1  0.2731969E-009  0.6962074E+03  0.7818608E-02  0.9723740E-01
         -1   -1    0    0    0  501 -0.00000000000E+00  0.00000000000E+00  0.47293450399E+03  0.47293450402E+03  0.50400000000E-02 0.  1.
          1   -1    0    0  501    0  0.00000000000E+00 -0.00000000000E+00 -0.29166582986E+04  0.29166582987E+04  0.50400000000E-02 0. -1.
    8880022    1    1    2    0    0  0.14471279620E+03 -0.66360477068E+03  0.14306375875E+03  0.71075451256E+03  0.15294330000E+03 0.  0.
    8880022    1    1    2    0    0 -0.14471279620E+03  0.66360477068E+03 -0.25867875534E+04  0.26788382901E+04  0.15294330000E+03 0.  0.
<mgrwt>
<rscale>  0 0.69620740E+03</rscale>
<asrwt>0</asrwt>
<pdfrwt beam="1">  1        1 0.44871665E+00 0.69620740E+03</pdfrwt>
<pdfrwt beam="2">  1       -1 0.72759156E-01 0.69620740E+03</pdfrwt>
<totfact> 0.14240686E+00</totfact>
</mgrwt>
</event>
<event>
 4    1  0.2731969E-009  0.1586728E+04  0.7818608E-02  0.8828743E-01
          1   -1    0    0  501    0  0.00000000000E+00  0.00000000000E+00  0.25036018326E+04  0.25036018326E+04  0.50400000000E-02 0. -1.
         -1   -1    0    0    0  501 -0.00000000000E+00 -0.00000000000E+00 -0.16676897171E+04  0.16676897171E+04  0.50400000000E-02 0.  1.
    8880022    1    1    2    0    0 -0.20313642524E+03  0.15662216520E+04  0.17320617595E+04  0.23489879229E+04  0.15294330000E+03 0.  0.
    8880022    1    1    2    0    0  0.20313642524E+03 -0.15662216520E+04 -0.89614964398E+03  0.18223036267E+04  0.15294330000E+03 0.  0.
<mgrwt>
<rscale>  0 0.15867282E+04</rscale>
<asrwt>0</asrwt>
<pdfrwt beam="1">  1        1 0.38516951E+00 0.15867282E+04</pdfrwt>
<pdfrwt beam="2">  1       -1 0.25656765E+00 0.15867282E+04</pdfrwt>
<totfact> 0.79374065E-02</totfact>
</mgrwt>
</event>
<event>
 4    1  0.2731969E-009  0.1028378E+04  0.7818608E-02  0.9277957E-01
          1   -1    0    0  501    0  0.00000000000E+00  0.00000000000E+00  0.26823249292E+04  0.26823249292E+04  0.50400000000E-02 0. -1.
         -1   -1    0    0    0  501 -0.00000000000E+00 -0.00000000000E+00 -0.40151915126E+03  0.40151915129E+03  0.50400000000E-02 0.  1.
    8880022    1    1    2    0    0  0.63154407275E+03  0.79707036357E+03  0.93322306206E+03  0.13886921966E+04  0.15294330000E+03 0.  0.
    8880022    1    1    2    0    0 -0.63154407275E+03 -0.79707036357E+03  0.13475827159E+04  0.16951518839E+04  0.15294330000E+03 0.  0.
<mgrwt>
<rscale>  0 0.10283777E+04</rscale>
<asrwt>0</asrwt>
<pdfrwt beam="1">  1        1 0.41266535E+00 0.10283777E+04</pdfrwt>
<pdfrwt beam="2">  1       -1 0.61772180E-01 0.10283777E+04</pdfrwt>
<totfact> 0.27324950E+00</totfact>
</mgrwt>
</event>
<event>
 4    1  0.2731969E-009  0.4612217E+03  0.7818608E-02  0.1024428E+00
         -1   -1    0    0    0  501 -0.00000000000E+00  0.00000000000E+00  0.61631368064E+03  0.61631368066E+03  0.50400000000E-02 0.  1.
          1   -1    0    0  501    0  0.00000000000E+00 -0.00000000000E+00 -0.44277810258E+03  0.44277810260E+03  0.50400000000E-02 0. -1.
    8880022    1    1    2    0    0  0.55251285135E+02  0.43160289880E+03 -0.16187782704E+03  0.48880451171E+03  0.15294330000E+03 0. -1.
    8880022    1    1    2    0    0 -0.55251285135E+02 -0.43160289880E+03  0.33541340511E+03  0.57028727156E+03  0.15294330000E+03 0.  0.
<mgrwt>
<rscale>  0 0.46122166E+03</rscale>
<asrwt>0</asrwt>
<pdfrwt beam="1">  1        1 0.68119708E-01 0.46122166E+03</pdfrwt>
<pdfrwt beam="2">  1       -1 0.94817489E-01 0.46122166E+03</pdfrwt>
<totfact> 0.59103579E+01</totfact>
</mgrwt>
</event>
<event>
 4    1  0.2731969E-009  0.8701748E+03  0.7818608E-02  0.9463652E-01
          1   -1    0    0  501    0  0.00000000000E+00  0.00000000000E+00  0.36472965545E+04  0.36472965545E+04  0.50400000000E-02 0. -1.
         -1   -1    0    0    0  501 -0.00000000000E+00 -0.00000000000E+00 -0.77480593126E+03  0.77480593128E+03  0.50400000000E-02 0.  1.
    8880022    1    1    2    0    0  0.79029752496E+03  0.33051840008E+03  0.33280227725E+04  0.34399040420E+04  0.15294330000E+03 0.  0.
    8880022    1    1    2    0    0 -0.79029752496E+03 -0.33051840008E+03 -0.45553214934E+03  0.98219844373E+03  0.15294330000E+03 0.  0.
<mgrwt>
<rscale>  0 0.87017484E+03</rscale>
<asrwt>0</asrwt>
<pdfrwt beam="1">  1        1 0.56112255E+00 0.87017484E+03</pdfrwt>
<pdfrwt beam="2">  1       -1 0.11920091E+00 0.87017484E+03</pdfrwt>
<totfact> 0.12869849E-01</totfact>
</mgrwt>
</event>
<event>
 4    1  0.2731969E-009  0.1182858E+04  0.7818608E-02  0.9127995E-01
         -1   -1    0    0    0  501 -0.00000000000E+00  0.00000000000E+00  0.57451587990E+03  0.57451587992E+03  0.50400000000E-02 0.  1.
          1   -1    0    0  501    0  0.00000000000E+00 -0.00000000000E+00 -0.49844992914E+04  0.49844992914E+04  0.50400000000E-02 0. -1.
    8880022    1    1    2    0    0 -0.67768841121E+03  0.95734008461E+03 -0.21727798144E+03  0.12026483254E+04  0.15294330000E+03 0.  0.
    8880022    1    1    2    0    0  0.67768841121E+03 -0.95734008461E+03 -0.41927054301E+04  0.43563668459E+04  0.15294330000E+03 0.  0.
<mgrwt>
<rscale>  0 0.11828581E+04</rscale>
<asrwt>0</asrwt>
<pdfrwt beam="1">  1        1 0.76684601E+00 0.11828581E+04</pdfrwt>
<pdfrwt beam="2">  1       -1 0.88387062E-01 0.11828581E+04</pdfrwt>
<totfact> 0.11975342E-02</totfact>
</mgrwt>
</event>
<event>
 4    1  0.2731969E-009  0.1213639E+04  0.7818608E-02  0.9101001E-01
          1   -1    0    0  501    0  0.00000000000E+00  0.00000000000E+00  0.30996567321E+04  0.30996567321E+04  0.50400000000E-02 0. -1.
         -1   -1    0    0    0  501 -0.00000000000E+00 -0.00000000000E+00 -0.82151757056E+03  0.82151757057E+03  0.50400000000E-02 0.  1.
    8880022    1    1    2    0    0  0.11538810083E+04 -0.34363846250E+03  0.24120518676E+04  0.27001693723E+04  0.15294330000E+03 0.  0.
    8880022    1    1    2    0    0 -0.11538810083E+04  0.34363846250E+03 -0.13391270604E+03  0.12210049304E+04  0.15294330000E+03 0.  0.
<mgrwt>
<rscale>  0 0.12136393E+04</rscale>
<asrwt>0</asrwt>
<pdfrwt beam="1">  1        1 0.47687027E+00 0.12136393E+04</pdfrwt>
<pdfrwt beam="2">  1       -1 0.12638732E+00 0.12136393E+04</pdfrwt>
<totfact> 0.27310858E-01</totfact>
</mgrwt>
</event>
<event>
 4    1  0.2731969E-009  0.7974917E+03  0.7818608E-02  0.9563655E-01
         -1   -1    0    0    0  501 -0.00000000000E+00  0.00000000000E+00  0.61919247403E+03  0.61919247405E+03  0.50400000000E-02 0.  1.
          1   -1    0    0  501    0  0.00000000000E+00 -0.00000000000E+00 -0.11395362033E+04  0.11395362033E+04  0.50400000000E-02 0. -1.
    8880022    1    1    2    0    0 -0.35789324006E+03  0.69607019601E+03  0.16009507955E+02  0.79765233430E+03  0.15294330000E+03 0.  0.
    8880022    1    1    2    0    0  0.35789324006E+03 -0.69607019601E+03 -0.53635323718E+03  0.96107634302E+03  0.15294330000E+03 0.  0.
<mgrwt>
<rscale>  0 0.79749166E+03</rscale>
<asrwt>0</asrwt>
<pdfrwt beam="1">  1        1 0.17531326E+00 0.79749166E+03</pdfrwt>
<pdfrwt beam="2">  1       -1 0.95260381E-01 0.79749166E+03</pdfrwt>
<totfact> 0.12934056E+01</totfact>
</mgrwt>
</event>
<event>
 4    1  0.4564399E-009  0.1699216E+04  0.7818608E-02  0.8761812E-01
         -1   -1    0    0    0  501 -0.00000000000E+00  0.00000000000E+00  0.22199982006E+04  0.22199982006E+04  0.50400000000E-02 0.  1.
          1   -1    0    0  501    0  0.00000000000E+00 -0.00000000000E+00 -0.26604286332E+04  0.26604286332E+04  0.50400000000E-02 0. -1.
    8880022    1    1    2    0    0 -0.15115228764E+04  0.76107901560E+03  0.15243763115E+04  0.22827740724E+04  0.15294330000E+03 0.  0.
    8880022    1    1    2    0    0  0.15115228764E+04 -0.76107901560E+03 -0.19648067441E+04  0.25976527613E+04  0.15294330000E+03 0.  0.
<mgrwt>
<rscale>  0 0.16992158E+04</rscale>
<asrwt>0</asrwt>
<pdfrwt beam="1">  1        1 0.40929671E+00 0.16992158E+04</pdfrwt>
<pdfrwt beam="2">  1       -1 0.34153819E+00 0.16992158E+04</pdfrwt>
<totfact> 0.16982689E-02</totfact>
</mgrwt>
</event>
<event>
 4    1  0.2731969E-009  0.1586118E+04  0.7818608E-02  0.8829122E-01
         -1   -1    0    0    0  501 -0.00000000000E+00  0.00000000000E+00  0.16530489737E+04  0.16530489738E+04  0.50400000000E-02 0.  1.
          1   -1    0    0  501    0  0.00000000000E+00 -0.00000000000E+00 -0.18117717524E+04  0.18117717525E+04  0.50400000000E-02 0. -1.
    8880022    1    1    2    0    0 -0.62889126046E+03 -0.14480584957E+04  0.61359304444E+03  0.17006662522E+04  0.15294330000E+03 0.  0.
    8880022    1    1    2    0    0  0.62889126046E+03  0.14480584957E+04 -0.77231582314E+03  0.17641544740E+04  0.15294330000E+03 0.  0.
<mgrwt>
<rscale>  0 0.15861177E+04</rscale>
<asrwt>0</asrwt>
<pdfrwt beam="1">  1        1 0.27873412E+00 0.15861177E+04</pdfrwt>
<pdfrwt beam="2">  1       -1 0.25431523E+00 0.15861177E+04</pdfrwt>
<totfact> 0.24428219E-01</totfact>
</mgrwt>
</event>
<event>
 4    1  0.2731969E-009  0.1033390E+04  0.7818608E-02  0.9272663E-01
          1   -1    0    0  501    0  0.00000000000E+00  0.00000000000E+00  0.15584796779E+04  0.15584796780E+04  0.50400000000E-02 0. -1.
         -1   -1    0    0    0  501 -0.00000000000E+00 -0.00000000000E+00 -0.91000131176E+03  0.91000131177E+03  0.50400000000E-02 0.  1.
    8880022    1    1    2    0    0  0.52115576057E+03 -0.87914721397E+03 -0.28918797495E+03  0.10730910905E+04  0.15294330000E+03 0.  0.
    8880022    1    1    2    0    0 -0.52115576057E+03  0.87914721397E+03  0.93766634114E+03  0.13953898992E+04  0.15294330000E+03 0.  0.
<mgrwt>
<rscale>  0 0.10333900E+04</rscale>
<asrwt>0</asrwt>
<pdfrwt beam="1">  1        1 0.23976610E+00 0.10333900E+04</pdfrwt>
<pdfrwt beam="2">  1       -1 0.14000020E+00 0.10333900E+04</pdfrwt>
<totfact> 0.25017968E+00</totfact>
</mgrwt>
</event>
<event>
 4    1  0.2731969E-009  0.9958063E+03  0.7818608E-02  0.9313156E-01
         -1   -1    0    0    0  501 -0.00000000000E+00  0.00000000000E+00  0.13878573711E+04  0.13878573711E+04  0.50400000000E-02 0.  1.
          1   -1    0    0  501    0  0.00000000000E+00 -0.00000000000E+00 -0.12113794249E+04  0.12113794249E+04  0.50400000000E-02 0. -1.
    8880022    1    1    2    0    0 -0.96454423255E+03 -0.19466099033E+03 -0.74409833089E+03  0.12431059716E+04  0.15294330000E+03 0.  0.
    8880022    1    1    2    0    0  0.96454423255E+03  0.19466099033E+03  0.92057627716E+03  0.13561308244E+04  0.15294330000E+03 0.  0.
<mgrwt>
<rscale>  0 0.99580627E+03</rscale>
<asrwt>0</asrwt>
<pdfrwt beam="1">  1        1 0.18636607E+00 0.99580627E+03</pdfrwt>
<pdfrwt beam="2">  1       -1 0.21351652E+00 0.99580627E+03</pdfrwt>
<totfact> 0.12841092E+00</totfact>
</mgrwt>
</event>
<event>
 4    1  0.2731969E-009  0.1176621E+04  0.7818608E-02  0.9133569E-01
         -1   -1    0    0    0  501 -0.00000000000E+00  0.00000000000E+00  0.82241550225E+03  0.82241550226E+03  0.50400000000E-02 0.  1.
          1   -1    0    0  501    0  0.00000000000E+00 -0.00000000000E+00 -0.21299816922E+04  0.21299816922E+04  0.50400000000E-02 0. -1.
    8880022    1    1    2    0    0  0.11626956097E+04 -0.95839870322E+02 -0.13297367382E+04  0.17755668975E+04  0.15294330000E+03 0.  0.
    8880022    1    1    2    0    0 -0.11626956097E+04  0.95839870322E+02  0.22170548241E+02  0.11768302970E+04  0.15294330000E+03 0.  0.
<mgrwt>
<rscale>  0 0.11766214E+04</rscale>
<asrwt>0</asrwt>
<pdfrwt beam="1">  1        1 0.32768949E+00 0.11766214E+04</pdfrwt>
<pdfrwt beam="2">  1       -1 0.12652546E+00 0.11766214E+04</pdfrwt>
<totfact> 0.13042822E+00</totfact>
</mgrwt>
</event>
<event>
 4    1  0.2731969E-009  0.1087043E+04  0.7818608E-02  0.9217913E-01
         -1   -1    0    0    0  501 -0.00000000000E+00  0.00000000000E+00  0.76138192284E+03  0.76138192285E+03  0.50400000000E-02 0.  1.
          1   -1    0    0  501    0  0.00000000000E+00 -0.00000000000E+00 -0.15980367171E+04  0.15980367171E+04  0.50400000000E-02 0. -1.
    8880022    1    1    2    0    0  0.92241189065E+03  0.55446180235E+03 -0.61856384396E+03  0.12507135837E+04  0.15294330000E+03 0.  0.
    8880022    1    1    2    0    0 -0.92241189065E+03 -0.55446180235E+03 -0.21809095031E+03  0.11087050563E+04  0.15294330000E+03 0.  0.
<mgrwt>
<rscale>  0 0.10870433E+04</rscale>
<asrwt>0</asrwt>
<pdfrwt beam="1">  1        1 0.24585180E+00 0.10870433E+04</pdfrwt>
<pdfrwt beam="2">  1       -1 0.11713568E+00 0.10870433E+04</pdfrwt>
<totfact> 0.36593872E+00</totfact>
</mgrwt>
</event>
<event>
 4    1  0.2731969E-009  0.2717829E+03  0.7818608E-02  0.1100264E+00
         -1   -1    0    0    0  501 -0.00000000000E+00  0.00000000000E+00  0.35825705908E+03  0.35825705912E+03  0.50400000000E-02 0.  1.
          1   -1    0    0  501    0  0.00000000000E+00 -0.00000000000E+00 -0.13798211389E+04  0.13798211390E+04  0.50400000000E-02 0. -1.
    8880022    1    1    2    0    0  0.63304437784E+02  0.21556168609E+03 -0.13122668955E+04  0.13401157974E+04  0.15294330000E+03 0. -1.
    8880022    1    1    2    0    0 -0.63304437784E+02 -0.21556168609E+03  0.29070281562E+03  0.39796240070E+03  0.15294330000E+03 0.  0.
<mgrwt>
<rscale>  0 0.27178290E+03</rscale>
<asrwt>0</asrwt>
<pdfrwt beam="1">  1        1 0.21228017E+00 0.27178290E+03</pdfrwt>
<pdfrwt beam="2">  1       -1 0.55116472E-01 0.27178290E+03</pdfrwt>
<totfact> 0.29942325E+01</totfact>
</mgrwt>
</event>
<event>
 4    1  0.2731969E-009  0.1158153E+04  0.7818608E-02  0.9150295E-01
         -1   -1    0    0    0  501 -0.00000000000E+00  0.00000000000E+00  0.71147209535E+03  0.71147209537E+03  0.50400000000E-02 0.  1.
          1   -1    0    0  501    0  0.00000000000E+00 -0.00000000000E+00 -0.24588597556E+04  0.24588597556E+04  0.50400000000E-02 0. -1.
    8880022    1    1    2    0    0  0.53955689307E+03  0.10133140285E+04 -0.10808368177E+03  0.11631855813E+04  0.15294330000E+03 0.  1.
    8880022    1    1    2    0    0 -0.53955689307E+03 -0.10133140285E+04 -0.16393039784E+04  0.20071462697E+04  0.15294330000E+03 0.  0.
<mgrwt>
<rscale>  0 0.11581531E+04</rscale>
<asrwt>0</asrwt>
<pdfrwt beam="1">  1        1 0.37828611E+00 0.11581531E+04</pdfrwt>
<pdfrwt beam="2">  1       -1 0.10945725E+00 0.11581531E+04</pdfrwt>
<totfact> 0.11110244E+00</totfact>
</mgrwt>
</event>
<event>
 4    1  0.2731969E-009  0.5941572E+03  0.7818608E-02  0.9917603E-01
         -1   -1    0    0    0  501 -0.00000000000E+00  0.00000000000E+00  0.99091748926E+03  0.99091748927E+03  0.50400000000E-02 0.  1.
          1   -1    0    0  501    0  0.00000000000E+00 -0.00000000000E+00 -0.16109432267E+04  0.16109432267E+04  0.50400000000E-02 0. -1.
    8880022    1    1    2    0    0 -0.50027514137E+03 -0.28170170783E+03  0.83809117406E+03  0.10273361370E+04  0.15294330000E+03 0.  0.
    8880022    1    1    2    0    0  0.50027514137E+03  0.28170170783E+03 -0.14581169115E+04  0.15745245790E+04  0.15294330000E+03 0.  0.
<mgrwt>
<rscale>  0 0.59415715E+03</rscale>
<asrwt>0</asrwt>
<pdfrwt beam="1">  1        1 0.24783742E+00 0.59415715E+03</pdfrwt>
<pdfrwt beam="2">  1       -1 0.15244884E+00 0.59415715E+03</pdfrwt>
<totfact> 0.19869933E+00</totfact>
</mgrwt>
</event>
<event>
 4    1  0.2731969E-009  0.8055350E+03  0.7818608E-02  0.9552040E-01
          1   -1    0    0  501    0  0.00000000000E+00  0.00000000000E+00  0.20024557888E+04  0.20024557889E+04  0.50400000000E-02 0. -1.
         -1   -1    0    0    0  501 -0.00000000000E+00 -0.00000000000E+00 -0.52712629254E+03  0.52712629257E+03  0.50400000000E-02 0.  1.
    8880022    1    1    2    0    0  0.27368531244E+03  0.74201838026E+03 -0.47382827321E+02  0.80692732773E+03  0.15294330000E+03 0.  0.
    8880022    1    1    2    0    0 -0.27368531244E+03 -0.74201838026E+03  0.15227123236E+04  0.17226547537E+04  0.15294330000E+03 0.  0.
<mgrwt>
<rscale>  0 0.80553497E+03</rscale>
<asrwt>0</asrwt>
<pdfrwt beam="1">  1        1 0.30807012E+00 0.80553497E+03</pdfrwt>
<pdfrwt beam="2">  1       -1 0.81096353E-01 0.80553497E+03</pdfrwt>
<totfact> 0.46795882E+00</totfact>
</mgrwt>
</event>
<event>
 4    1  0.2731969E-009  0.9699437E+03  0.7818608E-02  0.9342139E-01
          1   -1    0    0  501    0  0.00000000000E+00  0.00000000000E+00  0.16688334708E+04  0.16688334708E+04  0.50400000000E-02 0. -1.
         -1   -1    0    0    0  501 -0.00000000000E+00 -0.00000000000E+00 -0.96989713979E+03  0.96989713980E+03  0.50400000000E-02 0.  1.
    8880022    1    1    2    0    0 -0.77998671828E+02  0.95462834405E+03 -0.50431670059E+03  0.10932182104E+04  0.15294330000E+03 0.  0.
    8880022    1    1    2    0    0  0.77998671828E+02 -0.95462834405E+03  0.12032530316E+04  0.15455124002E+04  0.15294330000E+03 0.  0.
<mgrwt>
<rscale>  0 0.96994367E+03</rscale>
<asrwt>0</asrwt>
<pdfrwt beam="1">  1        1 0.25674361E+00 0.96994367E+03</pdfrwt>
<pdfrwt beam="2">  1       -1 0.14921494E+00 0.96994367E+03</pdfrwt>
<totfact> 0.17918377E+00</totfact>
</mgrwt>
</event>
<event>
 4    1  0.2731969E-009  0.2472228E+03  0.7818608E-02  0.1115073E+00
         -1   -1    0    0    0  501 -0.00000000000E+00  0.00000000000E+00  0.43471176024E+02  0.43471176317E+02  0.50400000000E-02 0.  1.
          1   -1    0    0  501    0  0.00000000000E+00 -0.00000000000E+00 -0.31334968035E+04  0.31334968035E+04  0.50400000000E-02 0. -1.
    8880022    1    1    2    0    0  0.18661662716E+03  0.53867583335E+02 -0.36555961945E+03  0.44130824879E+03  0.15294330000E+03 0.  0.
    8880022    1    1    2    0    0 -0.18661662716E+03 -0.53867583335E+02 -0.27244660081E+04  0.27356597311E+04  0.15294330000E+03 0.  0.
<mgrwt>
<rscale>  0 0.24722284E+03</rscale>
<asrwt>0</asrwt>
<pdfrwt beam="1">  1        1 0.48207626E+00 0.24722284E+03</pdfrwt>
<pdfrwt beam="2">  1       -1 0.66878757E-02 0.24722284E+03</pdfrwt>
<totfact> 0.66586708E+01</totfact>
</mgrwt>
</event>
<event>
 4    1  0.2731969E-009  0.6199018E+03  0.7818608E-02  0.9864955E-01
         -1   -1    0    0    0  501 -0.00000000000E+00  0.00000000000E+00  0.14309879729E+03  0.14309879738E+03  0.50400000000E-02 0.  1.
          1   -1    0    0  501    0  0.00000000000E+00 -0.00000000000E+00 -0.34912998521E+04  0.34912998521E+04  0.50400000000E-02 0. -1.
    8880022    1    1    2    0    0  0.59393692334E+03 -0.90141350500E+02 -0.80103214761E+03  0.10128823656E+04  0.15294330000E+03 0.  0.
    8880022    1    1    2    0    0 -0.59393692334E+03  0.90141350500E+02 -0.25471689072E+04  0.26215162839E+04  0.15294330000E+03 0.  0.
<mgrwt>
<rscale>  0 0.61990175E+03</rscale>
<asrwt>0</asrwt>
<pdfrwt beam="1">  1        1 0.53712299E+00 0.61990175E+03</pdfrwt>
<pdfrwt beam="2">  1       -1 0.22015202E-01 0.61990175E+03</pdfrwt>
<totfact> 0.48947039E+00</totfact>
</mgrwt>
</event>
<event>
 4    1  0.2731969E-009  0.4860961E+03  0.7818608E-02  0.1017473E+00
          1   -1    0    0  501    0  0.00000000000E+00  0.00000000000E+00  0.12465137336E+04  0.12465137336E+04  0.50400000000E-02 0. -1.
         -1   -1    0    0    0  501 -0.00000000000E+00 -0.00000000000E+00 -0.90435921194E+03  0.90435921195E+03  0.50400000000E-02 0.  1.
    8880022    1    1    2    0    0 -0.25140828745E+03  0.38690000421E+03 -0.78502919240E+03  0.92334187936E+03  0.15294330000E+03 0.  0.
    8880022    1    1    2    0    0  0.25140828745E+03 -0.38690000421E+03  0.11271837141E+04  0.12275310662E+04  0.15294330000E+03 0.  0.
<mgrwt>
<rscale>  0 0.48609607E+03</rscale>
<asrwt>0</asrwt>
<pdfrwt beam="1">  1        1 0.19177134E+00 0.48609607E+03</pdfrwt>
<pdfrwt beam="2">  1       -1 0.13913219E+00 0.48609607E+03</pdfrwt>
<totfact> 0.46211642E+00</totfact>
</mgrwt>
</event>
<event>
 4    1  0.2731969E-009  0.9992229E+03  0.7818608E-02  0.9309398E-01
          1   -1    0    0  501    0  0.00000000000E+00  0.00000000000E+00  0.76380541261E+03  0.76380541263E+03  0.50400000000E-02 0. -1.
         -1   -1    0    0    0  501 -0.00000000000E+00 -0.00000000000E+00 -0.13799787283E+04  0.13799787283E+04  0.50400000000E-02 0.  1.
    8880022    1    1    2    0    0  0.68560453803E+03  0.71063432722E+03 -0.55424655378E+03  0.11426441375E+04  0.15294330000E+03 0.  0.
    8880022    1    1    2    0    0 -0.68560453803E+03 -0.71063432722E+03 -0.61926761893E+02  0.10011400034E+04  0.15294330000E+03 0.  0.
<mgrwt>
<rscale>  0 0.99922289E+03</rscale>
<asrwt>0</asrwt>
<pdfrwt beam="1">  1        1 0.11750853E+00 0.99922289E+03</pdfrwt>
<pdfrwt beam="2">  1       -1 0.21230442E+00 0.99922289E+03</pdfrwt>
<totfact> 0.29660967E+00</totfact>
</mgrwt>
</event>
<event>
 4    1  0.2731969E-009  0.8783378E+03  0.7818608E-02  0.9453073E-01
          1   -1    0    0  501    0  0.00000000000E+00  0.00000000000E+00  0.15094923658E+04  0.15094923658E+04  0.50400000000E-02 0. -1.
         -1   -1    0    0    0  501 -0.00000000000E+00 -0.00000000000E+00 -0.10736369555E+04  0.10736369555E+04  0.50400000000E-02 0.  1.
    8880022    1    1    2    0    0 -0.44436401267E+03  0.74204196068E+03 -0.71698090072E+03  0.11338160839E+04  0.15294330000E+03 0.  0.
    8880022    1    1    2    0    0  0.44436401267E+03 -0.74204196068E+03  0.11528363110E+04  0.14493132374E+04  0.15294330000E+03 0.  0.
<mgrwt>
<rscale>  0 0.87833781E+03</rscale>
<asrwt>0</asrwt>
<pdfrwt beam="1">  1        1 0.23222959E+00 0.87833781E+03</pdfrwt>
<pdfrwt beam="2">  1       -1 0.16517492E+00 0.87833781E+03</pdfrwt>
<totfact> 0.17638423E+00</totfact>
</mgrwt>
</event>
<event>
 4    1  0.2731969E-009  0.7927415E+03  0.7818608E-02  0.9570583E-01
         -1   -1    0    0    0  501 -0.00000000000E+00  0.00000000000E+00  0.94278037273E+03  0.94278037274E+03  0.50400000000E-02 0.  1.
          1   -1    0    0  501    0  0.00000000000E+00 -0.00000000000E+00 -0.10650852061E+04  0.10650852061E+04  0.50400000000E-02 0. -1.
    8880022    1    1    2    0    0  0.44094927613E+03  0.64078947521E+03  0.55293352814E+03  0.96652705871E+03  0.15294330000E+03 0.  0.
    8880022    1    1    2    0    0 -0.44094927613E+03 -0.64078947521E+03 -0.67523836150E+03  0.10413385201E+04  0.15294330000E+03 0.  0.
<mgrwt>
<rscale>  0 0.79274149E+03</rscale>
<asrwt>0</asrwt>
<pdfrwt beam="1">  1        1 0.16385926E+00 0.79274149E+03</pdfrwt>
<pdfrwt beam="2">  1       -1 0.14504313E+00 0.79274149E+03</pdfrwt>
<totfact> 0.52993341E+00</totfact>
</mgrwt>
</event>
<event>
 4    1  0.2731969E-009  0.1203029E+04  0.7818608E-02  0.9110209E-01
          1   -1    0    0  501    0  0.00000000000E+00  0.00000000000E+00  0.26010850967E+04  0.26010850967E+04  0.50400000000E-02 0. -1.
         -1   -1    0    0    0  501 -0.00000000000E+00 -0.00000000000E+00 -0.13246866511E+04  0.13246866511E+04  0.50400000000E-02 0.  1.
    8880022    1    1    2    0    0  0.11470007068E+04  0.32905364060E+03 -0.85664634859E+03  0.14768620584E+04  0.15294330000E+03 0.  0.
    8880022    1    1    2    0    0 -0.11470007068E+04 -0.32905364060E+03  0.21330447942E+04  0.24489096894E+04  0.15294330000E+03 0.  0.
<mgrwt>
<rscale>  0 0.12030289E+04</rscale>
<asrwt>0</asrwt>
<pdfrwt beam="1">  1        1 0.40016693E+00 0.12030289E+04</pdfrwt>
<pdfrwt beam="2">  1       -1 0.20379795E+00 0.12030289E+04</pdfrwt>
<totfact> 0.16098596E-01</totfact>
</mgrwt>
</event>
<event>
 4    1  0.2731969E-009  0.1038846E+04  0.7818608E-02  0.9266936E-01
         -1   -1    0    0    0  501 -0.00000000000E+00  0.00000000000E+00  0.16044646132E+04  0.16044646132E+04  0.50400000000E-02 0.  1.
          1   -1    0    0  501    0  0.00000000000E+00 -0.00000000000E+00 -0.12224043983E+04  0.12224043984E+04  0.50400000000E-02 0. -1.
    8880022    1    1    2    0    0 -0.10189845209E+04  0.13220912244E+03 -0.75687119735E+03  0.12853226709E+04  0.15294330000E+03 0.  0.
    8880022    1    1    2    0    0  0.10189845209E+04 -0.13220912244E+03  0.11389314122E+04  0.15415463407E+04  0.15294330000E+03 0.  0.
<mgrwt>
<rscale>  0 0.10388457E+04</rscale>
<asrwt>0</asrwt>
<pdfrwt beam="1">  1        1 0.18806222E+00 0.10388457E+04</pdfrwt>
<pdfrwt beam="2">  1       -1 0.24684071E+00 0.10388457E+04</pdfrwt>
<totfact> 0.75462610E-01</totfact>
</mgrwt>
</event>
<event>
 4    1  0.2731969E-009  0.9316110E+03  0.7818608E-02  0.9386907E-01
         -1   -1    0    0    0  501 -0.00000000000E+00  0.00000000000E+00  0.90756719597E+03  0.90756719598E+03  0.50400000000E-02 0.  1.
          1   -1    0    0  501    0  0.00000000000E+00 -0.00000000000E+00 -0.21307307995E+04  0.21307307995E+04  0.50400000000E-02 0. -1.
    8880022    1    1    2    0    0  0.86866100042E+03  0.29989244110E+03  0.51626811743E+03  0.10650970998E+04  0.15294330000E+03 0.  0.
    8880022    1    1    2    0    0 -0.86866100042E+03 -0.29989244110E+03 -0.17394317210E+04  0.19732008957E+04  0.15294330000E+03 0.  0.
<mgrwt>
<rscale>  0 0.93161100E+03</rscale>
<asrwt>0</asrwt>
<pdfrwt beam="1">  1        1 0.32780474E+00 0.93161100E+03</pdfrwt>
<pdfrwt beam="2">  1       -1 0.13962572E+00 0.93161100E+03</pdfrwt>
<totfact> 0.10499299E+00</totfact>
</mgrwt>
</event>
<event>
 4    1  0.2731969E-009  0.6002217E+03  0.7818608E-02  0.9904946E-01
          1   -1    0    0  501    0  0.00000000000E+00  0.00000000000E+00  0.11664406646E+04  0.11664406646E+04  0.50400000000E-02 0. -1.
         -1   -1    0    0    0  501 -0.00000000000E+00 -0.00000000000E+00 -0.46797499121E+03  0.46797499124E+03  0.50400000000E-02 0.  1.
    8880022    1    1    2    0    0  0.74930328274E+02 -0.57555178303E+03 -0.12728337787E+03  0.61356916508E+03  0.15294330000E+03 0.  0.
    8880022    1    1    2    0    0 -0.74930328274E+02  0.57555178303E+03  0.82574905124E+03  0.10208464907E+04  0.15294330000E+03 0.  0.
<mgrwt>
<rscale>  0 0.60022168E+03</rscale>
<asrwt>0</asrwt>
<pdfrwt beam="1">  1        1 0.17945241E+00 0.60022168E+03</pdfrwt>
<pdfrwt beam="2">  1       -1 0.71996154E-01 0.60022168E+03</pdfrwt>
<totfact> 0.23150622E+01</totfact>
</mgrwt>
</event>
<event>
 4    1  0.2731969E-009  0.4326860E+03  0.7818608E-02  0.1033015E+00
          1   -1    0    0  501    0  0.00000000000E+00  0.00000000000E+00  0.31779759276E+03  0.31779759280E+03  0.50400000000E-02 0. -1.
         -1   -1    0    0    0  501 -0.00000000000E+00 -0.00000000000E+00 -0.12201099582E+04  0.12201099582E+04  0.50400000000E-02 0.  1.
    8880022    1    1    2    0    0  0.53179200384E+02  0.40124492558E+03  0.10183222766E+03  0.44450756266E+03  0.15294330000E+03 0.  0.
    8880022    1    1    2    0    0 -0.53179200384E+02 -0.40124492558E+03 -0.10041445931E+04  0.10933999884E+04  0.15294330000E+03 0.  0.
<mgrwt>
<rscale>  0 0.43268600E+03</rscale>
<asrwt>0</asrwt>
<pdfrwt beam="1">  1        1 0.48891938E-01 0.43268600E+03</pdfrwt>
<pdfrwt beam="2">  1       -1 0.18770922E+00 0.43268600E+03</pdfrwt>
<totfact> 0.16036451E+01</totfact>
</mgrwt>
</event>
<event>
 4    1  0.2731969E-009  0.3720748E+03  0.7818608E-02  0.1053902E+00
         -1   -1    0    0    0  501 -0.00000000000E+00  0.00000000000E+00  0.25897193682E+03  0.25897193687E+03  0.50400000000E-02 0.  1.
          1   -1    0    0  501    0  0.00000000000E+00 -0.00000000000E+00 -0.25011313516E+04  0.25011313516E+04  0.50400000000E-02 0. -1.
    8880022    1    1    2    0    0  0.60743020589E+02 -0.33370387431E+03 -0.23447950523E+04  0.23741321531E+04  0.15294330000E+03 0.  0.
    8880022    1    1    2    0    0 -0.60743020589E+02  0.33370387431E+03  0.10263563744E+03  0.38597113541E+03  0.15294330000E+03 0.  0.
<mgrwt>
<rscale>  0 0.37207478E+03</rscale>
<asrwt>0</asrwt>
<pdfrwt beam="1">  1        1 0.38478942E+00 0.37207478E+03</pdfrwt>
<pdfrwt beam="2">  1       -1 0.39841838E-01 0.37207478E+03</pdfrwt>
<totfact> 0.95698967E+00</totfact>
</mgrwt>
</event>
<event>
 4    1  0.2731969E-009  0.1051871E+04  0.7818608E-02  0.9253415E-01
          1   -1    0    0  501    0  0.00000000000E+00  0.00000000000E+00  0.17982071915E+04  0.17982071915E+04  0.50400000000E-02 0. -1.
         -1   -1    0    0    0  501 -0.00000000000E+00 -0.00000000000E+00 -0.72810760730E+03  0.72810760731E+03  0.50400000000E-02 0.  1.
    8880022    1    1    2    0    0 -0.23641186506E+03 -0.10134842416E+04  0.10322525637E+04  0.14737631716E+04  0.15294330000E+03 0.  0.
    8880022    1    1    2    0    0  0.23641186506E+03  0.10134842416E+04  0.37847020460E+02  0.10525516271E+04  0.15294330000E+03 0.  0.
<mgrwt>
<rscale>  0 0.10518710E+04</rscale>
<asrwt>0</asrwt>
<pdfrwt beam="1">  1        1 0.27664726E+00 0.10518710E+04</pdfrwt>
<pdfrwt beam="2">  1       -1 0.11201656E+00 0.10518710E+04</pdfrwt>
<totfact> 0.29912103E+00</totfact>
</mgrwt>
</event>
<event>
 4    1  0.2731969E-009  0.7200499E+03  0.7818608E-02  0.9683545E-01
          1   -1    0    0  501    0  0.00000000000E+00  0.00000000000E+00  0.75146183556E+03  0.75146183558E+03  0.50400000000E-02 0. -1.
         -1   -1    0    0    0  501 -0.00000000000E+00 -0.00000000000E+00 -0.11494136849E+04  0.11494136849E+04  0.50400000000E-02 0.  1.
    8880022    1    1    2    0    0  0.26440173092E+03 -0.65205213395E+03 -0.79988751425E+03  0.10762397266E+04  0.15294330000E+03 0.  1.
    8880022    1    1    2    0    0 -0.26440173092E+03  0.65205213395E+03  0.40193566494E+03  0.82463579383E+03  0.15294330000E+03 0.  0.
<mgrwt>
<rscale>  0 0.72004994E+03</rscale>
<asrwt>0</asrwt>
<pdfrwt beam="1">  1        1 0.11560951E+00 0.72004994E+03</pdfrwt>
<pdfrwt beam="2">  1       -1 0.17683287E+00 0.72004994E+03</pdfrwt>
<totfact> 0.55685409E+00</totfact>
</mgrwt>
</event>
<event>
 4    1  0.2731969E-009  0.3225892E+03  0.7818608E-02  0.1074464E+00
         -1   -1    0    0    0  501 -0.00000000000E+00  0.00000000000E+00  0.18072704657E+03  0.18072704664E+03  0.50400000000E-02 0.  1.
          1   -1    0    0  501    0  0.00000000000E+00 -0.00000000000E+00 -0.11260842373E+04  0.11260842373E+04  0.50400000000E-02 0. -1.
    8880022    1    1    2    0    0 -0.26247016869E+03 -0.10854285902E+03 -0.92943899187E+03  0.98382957585E+03  0.15294330000E+03 0.  0.
    8880022    1    1    2    0    0  0.26247016869E+03  0.10854285902E+03 -0.15918198856E+02  0.32298170810E+03  0.15294330000E+03 0.  0.
<mgrwt>
<rscale>  0 0.32258920E+03</rscale>
<asrwt>0</asrwt>
<pdfrwt beam="1">  1        1 0.17324372E+00 0.32258920E+03</pdfrwt>
<pdfrwt beam="2">  1       -1 0.27804162E-01 0.32258920E+03</pdfrwt>
<totfact> 0.15047628E+02</totfact>
</mgrwt>
</event>
<event>
 4    1  0.2731969E-009  0.7495112E+03  0.7818608E-02  0.9636118E-01
          1   -1    0    0  501    0  0.00000000000E+00  0.00000000000E+00  0.38208925595E+04  0.38208925595E+04  0.50400000000E-02 0. -1.
         -1   -1    0    0    0  501 -0.00000000000E+00 -0.00000000000E+00 -0.45359151888E+03  0.45359151891E+03  0.50400000000E-02 0.  1.
    8880022    1    1    2    0    0 -0.55524683854E+03  0.47966267290E+03  0.34406982495E+04  0.35213877135E+04  0.15294330000E+03 0.  0.
    8880022    1    1    2    0    0  0.55524683854E+03 -0.47966267290E+03 -0.73397208946E+02  0.75309636487E+03  0.15294330000E+03 0.  0.
<mgrwt>
<rscale>  0 0.74951116E+03</rscale>
<asrwt>0</asrwt>
<pdfrwt beam="1">  1        1 0.58782963E+00 0.74951116E+03</pdfrwt>
<pdfrwt beam="2">  1       -1 0.69783310E-01 0.74951116E+03</pdfrwt>
<totfact> 0.31505213E-01</totfact>
</mgrwt>
</event>
<event>
 4    1  0.2731969E-009  0.7750428E+03  0.7818608E-02  0.9596861E-01
          1   -1    0    0  501    0  0.00000000000E+00  0.00000000000E+00  0.18641403124E+04  0.18641403124E+04  0.50400000000E-02 0. -1.
         -1   -1    0    0    0  501 -0.00000000000E+00 -0.00000000000E+00 -0.81148948671E+03  0.81148948673E+03  0.50400000000E-02 0.  1.
    8880022    1    1    2    0    0  0.30500569751E+03 -0.69589593594E+03  0.15651015905E+04  0.17464919899E+04  0.15294330000E+03 0.  0.
    8880022    1    1    2    0    0 -0.30500569751E+03  0.69589593594E+03 -0.51245076482E+03  0.92913780924E+03  0.15294330000E+03 0.  0.
<mgrwt>
<rscale>  0 0.77504276E+03</rscale>
<asrwt>0</asrwt>
<pdfrwt beam="1">  1        1 0.28679081E+00 0.77504276E+03</pdfrwt>
<pdfrwt beam="2">  1       -1 0.12484454E+00 0.77504276E+03</pdfrwt>
<totfact> 0.21655702E+00</totfact>
</mgrwt>
</event>
<event>
 4    1  0.2731969E-009  0.5815897E+03  0.7818608E-02  0.9944355E-01
          1   -1    0    0  501    0  0.00000000000E+00  0.00000000000E+00  0.10136749007E+04  0.10136749007E+04  0.50400000000E-02 0. -1.
         -1   -1    0    0    0  501 -0.00000000000E+00 -0.00000000000E+00 -0.46212775763E+03  0.46212775766E+03  0.50400000000E-02 0.  1.
    8880022    1    1    2    0    0  0.53927991732E+03  0.15502297696E+03 -0.11324880570E+03  0.59251320460E+03  0.15294330000E+03 0.  0.
    8880022    1    1    2    0    0 -0.53927991732E+03 -0.15502297696E+03  0.66479594875E+03  0.88328945374E+03  0.15294330000E+03 0.  0.
<mgrwt>
<rscale>  0 0.58158972E+03</rscale>
<asrwt>0</asrwt>
<pdfrwt beam="1">  1        1 0.15594998E+00 0.58158972E+03</pdfrwt>
<pdfrwt beam="2">  1       -1 0.71096579E-01 0.58158972E+03</pdfrwt>
<totfact> 0.30949229E+01</totfact>
</mgrwt>
</event>
<event>
 4    1  0.2731969E-009  0.1535347E+03  0.7818608E-02  0.1196196E+00
         -1   -1    0    0    0  501 -0.00000000000E+00  0.00000000000E+00  0.21170242639E+03  0.21170242645E+03  0.50400000000E-02 0.  1.
          1   -1    0    0  501    0  0.00000000000E+00 -0.00000000000E+00 -0.13437188693E+04  0.13437188693E+04  0.50400000000E-02 0. -1.
    8880022    1    1    2    0    0  0.13420142041E+02  0.10714898154E+01 -0.13107990724E+04  0.13197602469E+04  0.15294330000E+03 0.  0.
    8880022    1    1    2    0    0 -0.13420142041E+02 -0.10714898154E+01  0.17878262947E+03  0.23566104879E+03  0.15294330000E+03 0.  1.
<mgrwt>
<rscale>  0 0.15353469E+03</rscale>
<asrwt>0</asrwt>
<pdfrwt beam="1">  1        1 0.20672597E+00 0.15353469E+03</pdfrwt>
<pdfrwt beam="2">  1       -1 0.32569605E-01 0.15353469E+03</pdfrwt>
<totfact> 0.85204973E+01</totfact>
</mgrwt>
</event>
<event>
 4    1  0.2731969E-009  0.9008308E+03  0.7818608E-02  0.9424544E-01
          1   -1    0    0  501    0  0.00000000000E+00  0.00000000000E+00  0.10446937184E+04  0.10446937184E+04  0.50400000000E-02 0. -1.
         -1   -1    0    0    0  501 -0.00000000000E+00 -0.00000000000E+00 -0.14123386338E+04  0.14123386339E+04  0.50400000000E-02 0.  1.
    8880022    1    1    2    0    0  0.24934223283E+03  0.85201693573E+03 -0.10079409120E+04  0.13518287402E+04  0.15294330000E+03 0.  0.
    8880022    1    1    2    0    0 -0.24934223283E+03 -0.85201693573E+03  0.64029599649E+03  0.11052036120E+04  0.15294330000E+03 0.  0.
<mgrwt>
<rscale>  0 0.90083076E+03</rscale>
<asrwt>0</asrwt>
<pdfrwt beam="1">  1        1 0.16072211E+00 0.90083076E+03</pdfrwt>
<pdfrwt beam="2">  1       -1 0.21728287E+00 0.90083076E+03</pdfrwt>
<totfact> 0.16354593E+00</totfact>
</mgrwt>
</event>
<event>
 4    1  0.2731969E-009  0.6105752E+03  0.7818608E-02  0.9883706E-01
         -1   -1    0    0    0  501 -0.00000000000E+00  0.00000000000E+00  0.90099194021E+03  0.90099194022E+03  0.50400000000E-02 0.  1.
          1   -1    0    0  501    0  0.00000000000E+00 -0.00000000000E+00 -0.45408107349E+03  0.45408107352E+03  0.50400000000E-02 0. -1.
    8880022    1    1    2    0    0 -0.11117393629E+03  0.58056074711E+03  0.21578687853E+02  0.61095639614E+03  0.15294330000E+03 0.  0.
    8880022    1    1    2    0    0  0.11117393629E+03 -0.58056074711E+03  0.42533217886E+03  0.74411661760E+03  0.15294330000E+03 0.  0.
<mgrwt>
<rscale>  0 0.61057520E+03</rscale>
<asrwt>0</asrwt>
<pdfrwt beam="1">  1        1 0.69858628E-01 0.61057520E+03</pdfrwt>
<pdfrwt beam="2">  1       -1 0.13861414E+00 0.61057520E+03</pdfrwt>
<totfact> 0.22666875E+01</totfact>
</mgrwt>
</event>
<event>
 4    1  0.2731969E-009  0.6868706E+03  0.7818608E-02  0.9739952E-01
         -1   -1    0    0    0  501 -0.00000000000E+00  0.00000000000E+00  0.26798510066E+04  0.26798510066E+04  0.50400000000E-02 0.  1.
          1   -1    0    0  501    0  0.00000000000E+00 -0.00000000000E+00 -0.14222715358E+04  0.14222715359E+04  0.50400000000E-02 0. -1.
    8880022    1    1    2    0    0 -0.57205395827E+02 -0.66717851689E+03  0.25487169843E+04  0.26396495127E+04  0.15294330000E+03 0.  0.
    8880022    1    1    2    0    0  0.57205395827E+02  0.66717851689E+03 -0.12911375136E+04  0.14624730297E+04  0.15294330000E+03 0.  0.
<mgrwt>
<rscale>  0 0.68687065E+03</rscale>
<asrwt>0</asrwt>
<pdfrwt beam="1">  1        1 0.21881101E+00 0.68687065E+03</pdfrwt>
<pdfrwt beam="2">  1       -1 0.41228477E+00 0.68687065E+03</pdfrwt>
<totfact> 0.48624073E-02</totfact>
</mgrwt>
</event>
<event>
 4    1  0.2731969E-009  0.3247154E+03  0.7818608E-02  0.1073499E+00
          1   -1    0    0  501    0  0.00000000000E+00  0.00000000000E+00  0.20661581302E+04  0.20661581302E+04  0.50400000000E-02 0. -1.
         -1   -1    0    0    0  501 -0.00000000000E+00 -0.00000000000E+00 -0.50720754586E+03  0.50720754589E+03  0.50400000000E-02 0.  1.
    8880022    1    1    2    0    0 -0.19127215230E+03 -0.21322155720E+03  0.19997136402E+04  0.20259059121E+04  0.15294330000E+03 0.  0.
    8880022    1    1    2    0    0  0.19127215230E+03  0.21322155720E+03 -0.44076305592E+03  0.54745976398E+03  0.15294330000E+03 0.  1.
<mgrwt>
<rscale>  0 0.32471545E+03</rscale>
<asrwt>0</asrwt>
<pdfrwt beam="1">  1        1 0.31787048E+00 0.32471545E+03</pdfrwt>
<pdfrwt beam="2">  1       -1 0.78031930E-01 0.32471545E+03</pdfrwt>
<totfact> 0.52114633E+00</totfact>
</mgrwt>
</event>
<event>
 4    1  0.2731969E-009  0.5401286E+03  0.7818608E-02  0.1003805E+00
         -1   -1    0    0    0  501 -0.00000000000E+00  0.00000000000E+00  0.13402793547E+04  0.13402793547E+04  0.50400000000E-02 0.  1.
          1   -1    0    0  501    0  0.00000000000E+00 -0.00000000000E+00 -0.14151894890E+04  0.14151894890E+04  0.50400000000E-02 0. -1.
    8880022    1    1    2    0    0 -0.47830028766E+03  0.19893747419E+03  0.12299033758E+04  0.13432800344E+04  0.15294330000E+03 0.  0.
    8880022    1    1    2    0    0  0.47830028766E+03 -0.19893747419E+03 -0.13048135102E+04  0.14121888093E+04  0.15294330000E+03 0.  0.
<mgrwt>
<rscale>  0 0.54012863E+03</rscale>
<asrwt>0</asrwt>
<pdfrwt beam="1">  1        1 0.21772146E+00 0.54012863E+03</pdfrwt>
<pdfrwt beam="2">  1       -1 0.20619682E+00 0.54012863E+03</pdfrwt>
<totfact> 0.11322284E+00</totfact>
</mgrwt>
</event>
<event>
 4    1  0.2731969E-009  0.7028519E+03  0.7818608E-02  0.9712367E-01
          1   -1    0    0  501    0  0.00000000000E+00  0.00000000000E+00  0.91947159154E+03  0.91947159156E+03  0.50400000000E-02 0. -1.
         -1   -1    0    0    0  501 -0.00000000000E+00 -0.00000000000E+00 -0.13171110945E+04  0.13171110945E+04  0.50400000000E-02 0.  1.
    8880022    1    1    2    0    0  0.11373792147E+03  0.67651520471E+03 -0.10593139399E+04  0.12712776303E+04  0.15294330000E+03 0.  0.
    8880022    1    1    2    0    0 -0.11373792147E+03 -0.67651520471E+03  0.66167443701E+03  0.96530505572E+03  0.15294330000E+03 0.  0.
<mgrwt>
<rscale>  0 0.70285190E+03</rscale>
<asrwt>0</asrwt>
<pdfrwt beam="1">  1        1 0.14145717E+00 0.70285190E+03</pdfrwt>
<pdfrwt beam="2">  1       -1 0.20263248E+00 0.70285190E+03</pdfrwt>
<totfact> 0.26593782E+00</totfact>
</mgrwt>
</event>
<event>
 4    1  0.2731969E-009  0.1469226E+04  0.7818608E-02  0.8905179E-01
         -1   -1    0    0    0  501 -0.00000000000E+00  0.00000000000E+00  0.16459938231E+04  0.16459938231E+04  0.50400000000E-02 0.  1.
          1   -1    0    0  501    0  0.00000000000E+00 -0.00000000000E+00 -0.15406447519E+04  0.15406447519E+04  0.50400000000E-02 0. -1.
    8880022    1    1    2    0    0  0.63425127464E+03  0.13164186106E+04  0.66723147836E+03  0.16136363086E+04  0.15294330000E+03 0.  0.
    8880022    1    1    2    0    0 -0.63425127464E+03 -0.13164186106E+04 -0.56188240720E+03  0.15730022664E+04  0.15294330000E+03 0.  0.
<mgrwt>
<rscale>  0 0.14692257E+04</rscale>
<asrwt>0</asrwt>
<pdfrwt beam="1">  1        1 0.23702227E+00 0.14692257E+04</pdfrwt>
<pdfrwt beam="2">  1       -1 0.25322982E+00 0.14692257E+04</pdfrwt>
<totfact> 0.38630473E-01</totfact>
</mgrwt>
</event>
<event>
 4    1  0.2731969E-009  0.9794206E+03  0.7818608E-02  0.9331408E-01
         -1   -1    0    0    0  501 -0.00000000000E+00  0.00000000000E+00  0.15905848026E+04  0.15905848026E+04  0.50400000000E-02 0.  1.
          1   -1    0    0  501    0  0.00000000000E+00 -0.00000000000E+00 -0.82667787584E+03  0.82667787585E+03  0.50400000000E-02 0. -1.
    8880022    1    1    2    0    0  0.80066066810E+03  0.54296920710E+03 -0.24661193811E+03  0.10099911714E+04  0.15294330000E+03 0.  0.
    8880022    1    1    2    0    0 -0.80066066810E+03 -0.54296920710E+03  0.10105188649E+04  0.14072715071E+04  0.15294330000E+03 0.  0.
<mgrwt>
<rscale>  0 0.97942060E+03</rscale>
<asrwt>0</asrwt>
<pdfrwt beam="1">  1        1 0.12718121E+00 0.97942060E+03</pdfrwt>
<pdfrwt beam="2">  1       -1 0.24470535E+00 0.97942060E+03</pdfrwt>
<totfact> 0.15993210E+00</totfact>
</mgrwt>
</event>
<event>
 4    1  0.2731969E-009  0.5171166E+03  0.7818608E-02  0.1009405E+00
         -1   -1    0    0    0  501 -0.00000000000E+00  0.00000000000E+00  0.14190604786E+03  0.14190604795E+03  0.50400000000E-02 0.  1.
          1   -1    0    0  501    0  0.00000000000E+00 -0.00000000000E+00 -0.24578525655E+04  0.24578525655E+04  0.50400000000E-02 0. -1.
    8880022    1    1    2    0    0 -0.47486423662E+03 -0.13609505956E+03 -0.53010424577E+03  0.74055389599E+03  0.15294330000E+03 0.  0.
    8880022    1    1    2    0    0  0.47486423662E+03  0.13609505956E+03 -0.17858422718E+04  0.18592047174E+04  0.15294330000E+03 0.  0.
<mgrwt>
<rscale>  0 0.51711658E+03</rscale>
<asrwt>0</asrwt>
<pdfrwt beam="1">  1        1 0.37813113E+00 0.51711658E+03</pdfrwt>
<pdfrwt beam="2">  1       -1 0.21831702E-01 0.51711658E+03</pdfrwt>
<totfact> 0.27778046E+01</totfact>
</mgrwt>
</event>
<event>
 4    1  0.2731969E-009  0.4163070E+03  0.7818608E-02  0.1038275E+00
         -1   -1    0    0    0  501 -0.00000000000E+00  0.00000000000E+00  0.14152462291E+04  0.14152462292E+04  0.50400000000E-02 0.  1.
          1   -1    0    0  501    0  0.00000000000E+00 -0.00000000000E+00 -0.45706055587E+03  0.45706055590E+03  0.50400000000E-02 0. -1.
    8880022    1    1    2    0    0  0.23763641196E+03 -0.30569390125E+03  0.12800757979E+04  0.13460704019E+04  0.15294330000E+03 0.  0.
    8880022    1    1    2    0    0 -0.23763641196E+03  0.30569390125E+03 -0.32189012464E+03  0.52623638311E+03  0.15294330000E+03 0.  0.
<mgrwt>
<rscale>  0 0.41630695E+03</rscale>
<asrwt>0</asrwt>
<pdfrwt beam="1">  1        1 0.70317010E-01 0.41630695E+03</pdfrwt>
<pdfrwt beam="2">  1       -1 0.21773018E+00 0.41630695E+03</pdfrwt>
<totfact> 0.62954945E+00</totfact>
</mgrwt>
</event>
<event>
 4    1  0.2731969E-009  0.3177738E+03  0.7818608E-02  0.1076678E+00
          1   -1    0    0  501    0  0.00000000000E+00  0.00000000000E+00  0.12384903156E+04  0.12384903156E+04  0.50400000000E-02 0. -1.
         -1   -1    0    0    0  501 -0.00000000000E+00 -0.00000000000E+00 -0.83101709226E+02  0.83101709379E+02  0.50400000000E-02 0.  1.
    8880022    1    1    2    0    0 -0.25729652214E+03  0.10670994227E+03  0.66842883979E+03  0.74011977339E+03  0.15294330000E+03 0.  0.
    8880022    1    1    2    0    0  0.25729652214E+03 -0.10670994227E+03  0.48695976655E+03  0.58147225157E+03  0.15294330000E+03 0.  0.
<mgrwt>
<rscale>  0 0.31777376E+03</rscale>
<asrwt>0</asrwt>
<pdfrwt beam="1">  1        1 0.19053695E+00 0.31777376E+03</pdfrwt>
<pdfrwt beam="2">  1       -1 0.12784879E-01 0.31777376E+03</pdfrwt>
<totfact> 0.44559972E+02</totfact>
</mgrwt>
</event>
<event>
 4    1  0.2731969E-009  0.5558308E+03  0.7818608E-02  0.1000153E+00
         -1   -1    0    0    0  501 -0.00000000000E+00  0.00000000000E+00  0.84317844011E+03  0.84317844012E+03  0.50400000000E-02 0.  1.
          1   -1    0    0  501    0  0.00000000000E+00 -0.00000000000E+00 -0.48314290855E+03  0.48314290857E+03  0.50400000000E-02 0. -1.
    8880022    1    1    2    0    0  0.48454454400E+03 -0.22532830179E+03  0.50598957361E+03  0.75164709826E+03  0.15294330000E+03 0.  0.
    8880022    1    1    2    0    0 -0.48454454400E+03  0.22532830179E+03 -0.14595404205E+03  0.57467425043E+03  0.15294330000E+03 0.  0.
<mgrwt>
<rscale>  0 0.55583083E+03</rscale>
<asrwt>0</asrwt>
<pdfrwt beam="1">  1        1 0.74329678E-01 0.55583083E+03</pdfrwt>
<pdfrwt beam="2">  1       -1 0.12971976E+00 0.55583083E+03</pdfrwt>
<totfact> 0.24847728E+01</totfact>
</mgrwt>
</event>
<event>
 4    1  0.2731969E-009  0.3186445E+03  0.7818608E-02  0.1076275E+00
          1   -1    0    0  501    0  0.00000000000E+00  0.00000000000E+00  0.25105719459E+03  0.25105719464E+03  0.50400000000E-02 0. -1.
         -1   -1    0    0    0  501 -0.00000000000E+00 -0.00000000000E+00 -0.20700595580E+04  0.20700595580E+04  0.50400000000E-02 0.  1.
    8880022    1    1    2    0    0 -0.20683398245E+03 -0.18804878834E+03  0.13153344922E+03  0.34472502719E+03  0.15294330000E+03 0.  0.
    8880022    1    1    2    0    0  0.20683398245E+03  0.18804878834E+03 -0.19505358127E+04  0.19763917255E+04  0.15294330000E+03 0.  1.
<mgrwt>
<rscale>  0 0.31864447E+03</rscale>
<asrwt>0</asrwt>
<pdfrwt beam="1">  1        1 0.38624185E-01 0.31864447E+03</pdfrwt>
<pdfrwt beam="2">  1       -1 0.31847069E+00 0.31864447E+03</pdfrwt>
<totfact> 0.32191499E+00</totfact>
</mgrwt>
</event>
<event>
 4    1  0.2731969E-009  0.6912097E+03  0.7818608E-02  0.9732384E-01
         -1   -1    0    0    0  501 -0.00000000000E+00  0.00000000000E+00  0.27512830369E+03  0.27512830374E+03  0.50400000000E-02 0.  1.
          1   -1    0    0  501    0  0.00000000000E+00 -0.00000000000E+00 -0.24918612282E+04  0.24918612282E+04  0.50400000000E-02 0. -1.
    8880022    1    1    2    0    0 -0.66638593569E+03 -0.10153326366E+03 -0.18700628420E+04  0.19937166060E+04  0.15294330000E+03 0.  0.
    8880022    1    1    2    0    0  0.66638593569E+03  0.10153326366E+03 -0.34667008252E+03  0.77327292598E+03  0.15294330000E+03 0.  0.
<mgrwt>
<rscale>  0 0.69120972E+03</rscale>
<asrwt>0</asrwt>
<pdfrwt beam="1">  1        1 0.38336325E+00 0.69120972E+03</pdfrwt>
<pdfrwt beam="2">  1       -1 0.42327433E-01 0.69120972E+03</pdfrwt>
<totfact> 0.80313814E+00</totfact>
</mgrwt>
</event>
<event>
 4    1  0.2731969E-009  0.4867453E+03  0.7818608E-02  0.1017298E+00
         -1   -1    0    0    0  501 -0.00000000000E+00  0.00000000000E+00  0.23574557420E+03  0.23574557425E+03  0.50400000000E-02 0.  1.
          1   -1    0    0  501    0  0.00000000000E+00 -0.00000000000E+00 -0.15398787822E+04  0.15398787822E+04  0.50400000000E-02 0. -1.
    8880022    1    1    2    0    0  0.40896288343E+03 -0.21512491485E+03 -0.11753189261E+04  0.12721224784E+04  0.15294330000E+03 0. -1.
    8880022    1    1    2    0    0 -0.40896288343E+03  0.21512491485E+03 -0.12881428197E+03  0.50350187812E+03  0.15294330000E+03 0.  1.
<mgrwt>
<rscale>  0 0.48674534E+03</rscale>
<asrwt>0</asrwt>
<pdfrwt beam="1">  1        1 0.23690442E+00 0.48674534E+03</pdfrwt>
<pdfrwt beam="2">  1       -1 0.36268551E-01 0.48674534E+03</pdfrwt>
<totfact> 0.47681347E+01</totfact>
</mgrwt>
</event>
<event>
 4    1  0.2731969E-009  0.6138325E+03  0.7818608E-02  0.9877116E-01
          1   -1    0    0  501    0  0.00000000000E+00  0.00000000000E+00  0.32926447840E+04  0.32926447840E+04  0.50400000000E-02 0. -1.
         -1   -1    0    0    0  501 -0.00000000000E+00 -0.00000000000E+00 -0.43312251895E+03  0.43312251898E+03  0.50400000000E-02 0.  1.
    8880022    1    1    2    0    0  0.34531006793E+03 -0.48390041590E+03 -0.16819039267E+03  0.63645763152E+03  0.15294330000E+03 0.  0.
    8880022    1    1    2    0    0 -0.34531006793E+03  0.48390041590E+03  0.30277126577E+04  0.30893096715E+04  0.15294330000E+03 0.  0.
<mgrwt>
<rscale>  0 0.61383248E+03</rscale>
<asrwt>0</asrwt>
<pdfrwt beam="1">  1        1 0.50656073E+00 0.61383248E+03</pdfrwt>
<pdfrwt beam="2">  1       -1 0.66634234E-01 0.61383248E+03</pdfrwt>
<totfact> 0.92879358E-01</totfact>
</mgrwt>
</event>
<event>
 4    1  0.2731969E-009  0.6018299E+03  0.7818608E-02  0.9901617E-01
         -1   -1    0    0    0  501 -0.00000000000E+00  0.00000000000E+00  0.64834146725E+03  0.64834146727E+03  0.50400000000E-02 0.  1.
          1   -1    0    0  501    0  0.00000000000E+00 -0.00000000000E+00 -0.21894108773E+04  0.21894108773E+04  0.50400000000E-02 0. -1.
    8880022    1    1    2    0    0  0.47679297659E+03  0.33388033738E+03 -0.19950813170E+04  0.20838782921E+04  0.15294330000E+03 0.  0.
    8880022    1    1    2    0    0 -0.47679297659E+03 -0.33388033738E+03  0.45401190695E+03  0.75387405239E+03  0.15294330000E+03 0.  0.
<mgrwt>
<rscale>  0 0.60182994E+03</rscale>
<asrwt>0</asrwt>
<pdfrwt beam="1">  1        1 0.33683244E+00 0.60182994E+03</pdfrwt>
<pdfrwt beam="2">  1       -1 0.99744842E-01 0.60182994E+03</pdfrwt>
<totfact> 0.23202905E+00</totfact>
</mgrwt>
</event>
<event>
 4    1  0.2731969E-009  0.1416410E+04  0.7818608E-02  0.8942025E-01
         -1   -1    0    0    0  501 -0.00000000000E+00  0.00000000000E+00  0.20128042721E+04  0.20128042721E+04  0.50400000000E-02 0.  1.
          1   -1    0    0  501    0  0.00000000000E+00 -0.00000000000E+00 -0.19540010345E+04  0.19540010345E+04  0.50400000000E-02 0. -1.
    8880022    1    1    2    0    0  0.98590143036E+03  0.10053977025E+04 -0.13588445073E+04  0.19628235322E+04  0.15294330000E+03 0.  0.
    8880022    1    1    2    0    0 -0.98590143036E+03 -0.10053977025E+04  0.14176477449E+04  0.20039817744E+04  0.15294330000E+03 0.  0.
<mgrwt>
<rscale>  0 0.14164102E+04</rscale>
<asrwt>0</asrwt>
<pdfrwt beam="1">  1        1 0.30061554E+00 0.14164102E+04</pdfrwt>
<pdfrwt beam="2">  1       -1 0.30966220E+00 0.14164102E+04</pdfrwt>
<totfact> 0.87344353E-02</totfact>
</mgrwt>
</event>
<event>
 4    1  0.2731969E-009  0.9547812E+03  0.7818608E-02  0.9359579E-01
          1   -1    0    0  501    0  0.00000000000E+00  0.00000000000E+00  0.10494163482E+04  0.10494163482E+04  0.50400000000E-02 0. -1.
         -1   -1    0    0    0  501 -0.00000000000E+00 -0.00000000000E+00 -0.10859915122E+04  0.10859915122E+04  0.50400000000E-02 0.  1.
    8880022    1    1    2    0    0  0.91881727411E+03 -0.20973870579E+03  0.45932838086E+03  0.10595233468E+04  0.15294330000E+03 0.  0.
    8880022    1    1    2    0    0 -0.91881727411E+03  0.20973870579E+03 -0.49590354480E+03  0.10758845136E+04  0.15294330000E+03 0.  0.
<mgrwt>
<rscale>  0 0.95478121E+03</rscale>
<asrwt>0</asrwt>
<pdfrwt beam="1">  1        1 0.16144867E+00 0.95478121E+03</pdfrwt>
<pdfrwt beam="2">  1       -1 0.16707562E+00 0.95478121E+03</pdfrwt>
<totfact> 0.36141583E+00</totfact>
</mgrwt>
</event>
<event>
 4    1  0.2731969E-009  0.5273320E+03  0.7818608E-02  0.1006881E+00
          1   -1    0    0  501    0  0.00000000000E+00  0.00000000000E+00  0.38615918709E+04  0.38615918710E+04  0.50400000000E-02 0. -1.
         -1   -1    0    0    0  501 -0.00000000000E+00 -0.00000000000E+00 -0.39456334580E+03  0.39456334584E+03  0.50400000000E-02 0.  1.
    8880022    1    1    2    0    0 -0.35539741980E+03 -0.35830159741E+03  0.36576196723E+04  0.36954378200E+04  0.15294330000E+03 0.  0.
    8880022    1    1    2    0    0  0.35539741980E+03  0.35830159741E+03 -0.19059114719E+03  0.56071739683E+03  0.15294330000E+03 0.  0.
<mgrwt>
<rscale>  0 0.52733198E+03</rscale>
<asrwt>0</asrwt>
<pdfrwt beam="1">  1        1 0.59409106E+00 0.52733198E+03</pdfrwt>
<pdfrwt beam="2">  1       -1 0.60702053E-01 0.52733198E+03</pdfrwt>
<totfact> 0.41285644E-01</totfact>
</mgrwt>
</event>
<event>
 4    1  0.2731969E-009  0.8140531E+03  0.7818608E-02  0.9539896E-01
          1   -1    0    0  501    0  0.00000000000E+00  0.00000000000E+00  0.10224879617E+04  0.10224879617E+04  0.50400000000E-02 0. -1.
         -1   -1    0    0    0  501 -0.00000000000E+00 -0.00000000000E+00 -0.77917706717E+03  0.77917706718E+03  0.50400000000E-02 0.  1.
    8880022    1    1    2    0    0 -0.45799210255E+03 -0.65538843365E+03  0.49112309582E+03  0.95072830673E+03  0.15294330000E+03 0.  0.
    8880022    1    1    2    0    0  0.45799210255E+03  0.65538843365E+03 -0.24781220131E+03  0.85093672214E+03  0.15294330000E+03 0.  0.
<mgrwt>
<rscale>  0 0.81405308E+03</rscale>
<asrwt>0</asrwt>
<pdfrwt beam="1">  1        1 0.15730584E+00 0.81405308E+03</pdfrwt>
<pdfrwt beam="2">  1       -1 0.11987340E+00 0.81405308E+03</pdfrwt>
<totfact> 0.92394591E+00</totfact>
</mgrwt>
</event>
<event>
 4    1  0.2731969E-009  0.7790506E+03  0.7818608E-02  0.9590846E-01
          1   -1    0    0  501    0  0.00000000000E+00  0.00000000000E+00  0.39552955633E+03  0.39552955636E+03  0.50400000000E-02 0. -1.
         -1   -1    0    0    0  501 -0.00000000000E+00 -0.00000000000E+00 -0.28950850970E+04  0.28950850970E+04  0.50400000000E-02 0.  1.
    8880022    1    1    2    0    0  0.12102981367E+03 -0.75424130557E+03 -0.23777214263E+04  0.25020949217E+04  0.15294330000E+03 0.  0.
    8880022    1    1    2    0    0 -0.12102981367E+03  0.75424130557E+03 -0.12183411435E+03  0.78851973169E+03  0.15294330000E+03 0.  0.
<mgrwt>
<rscale>  0 0.77905059E+03</rscale>
<asrwt>0</asrwt>
<pdfrwt beam="1">  1        1 0.60850703E-01 0.77905059E+03</pdfrwt>
<pdfrwt beam="2">  1       -1 0.44539769E+00 0.77905059E+03</pdfrwt>
<totfact> 0.22648483E-01</totfact>
</mgrwt>
</event>
<event>
 4    1  0.2731969E-009  0.9681040E+03  0.7818608E-02  0.9344237E-01
         -1   -1    0    0    0  501 -0.00000000000E+00  0.00000000000E+00  0.14496627080E+04  0.14496627080E+04  0.50400000000E-02 0.  1.
          1   -1    0    0  501    0  0.00000000000E+00 -0.00000000000E+00 -0.13782111473E+04  0.13782111473E+04  0.50400000000E-02 0. -1.
    8880022    1    1    2    0    0 -0.65168808112E+03 -0.69938276501E+03  0.10659653903E+04  0.14399678723E+04  0.15294330000E+03 0.  0.
    8880022    1    1    2    0    0  0.65168808112E+03  0.69938276501E+03 -0.99451382960E+03  0.13879059829E+04  0.15294330000E+03 0.  0.
<mgrwt>
<rscale>  0 0.96810395E+03</rscale>
<asrwt>0</asrwt>
<pdfrwt beam="1">  1        1 0.21203248E+00 0.96810395E+03</pdfrwt>
<pdfrwt beam="2">  1       -1 0.22302503E+00 0.96810395E+03</pdfrwt>
<totfact> 0.84677526E-01</totfact>
</mgrwt>
</event>
<event>
 4    1  0.2731969E-009  0.5151226E+03  0.7818608E-02  0.1009905E+00
          1   -1    0    0  501    0  0.00000000000E+00  0.00000000000E+00  0.34621676926E+04  0.34621676926E+04  0.50400000000E-02 0. -1.
         -1   -1    0    0    0  501 -0.00000000000E+00 -0.00000000000E+00 -0.14256769869E+03  0.14256769878E+03  0.50400000000E-02 0.  1.
    8880022    1    1    2    0    0  0.16440258223E+03  0.46360694469E+03  0.43417791815E+03  0.67369260486E+03  0.15294330000E+03 0.  1.
    8880022    1    1    2    0    0 -0.16440258223E+03 -0.46360694469E+03  0.28854220757E+04  0.29310427865E+04  0.15294330000E+03 0.  0.
<mgrwt>
<rscale>  0 0.51512257E+03</rscale>
<asrwt>0</asrwt>
<pdfrwt beam="1">  1        1 0.53264116E+00 0.51512257E+03</pdfrwt>
<pdfrwt beam="2">  1       -1 0.21933493E-01 0.51512257E+03</pdfrwt>
<totfact> 0.53244759E+00</totfact>
</mgrwt>
</event>
<event>
 4    1  0.2731969E-009  0.8023602E+03  0.7818608E-02  0.9556607E-01
          1   -1    0    0  501    0  0.00000000000E+00  0.00000000000E+00  0.33289297854E+04  0.33289297854E+04  0.50400000000E-02 0. -1.
         -1   -1    0    0    0  501 -0.00000000000E+00 -0.00000000000E+00 -0.98532237577E+03  0.98532237578E+03  0.50400000000E-02 0.  1.
    8880022    1    1    2    0    0 -0.41557150945E+03 -0.66909687928E+03  0.31056875553E+04  0.32076591399E+04  0.15294330000E+03 0.  0.
    8880022    1    1    2    0    0  0.41557150945E+03  0.66909687928E+03 -0.76208014569E+03  0.11065930213E+04  0.15294330000E+03 0.  0.
<mgrwt>
<rscale>  0 0.80236025E+03</rscale>
<asrwt>0</asrwt>
<pdfrwt beam="1">  1        1 0.51214305E+00 0.80236025E+03</pdfrwt>
<pdfrwt beam="2">  1       -1 0.15158806E+00 0.80236025E+03</pdfrwt>
<totfact> 0.12468765E-01</totfact>
</mgrwt>
</event>
<event>
 4    1  0.2731969E-009  0.7153844E+03  0.7818608E-02  0.9691279E-01
         -1   -1    0    0    0  501 -0.00000000000E+00  0.00000000000E+00  0.64633740756E+03  0.64633740758E+03  0.50400000000E-02 0.  1.
          1   -1    0    0  501    0  0.00000000000E+00 -0.00000000000E+00 -0.13061804611E+04  0.13061804611E+04  0.50400000000E-02 0. -1.
    8880022    1    1    2    0    0 -0.69618670556E+03  0.60887389602E+02  0.28271440239E+03  0.76922187277E+03  0.15294330000E+03 0.  0.
    8880022    1    1    2    0    0  0.69618670556E+03 -0.60887389602E+02 -0.94255745594E+03  0.11832959959E+04  0.15294330000E+03 0.  0.
<mgrwt>
<rscale>  0 0.71538441E+03</rscale>
<asrwt>0</asrwt>
<pdfrwt beam="1">  1        1 0.20095084E+00 0.71538441E+03</pdfrwt>
<pdfrwt beam="2">  1       -1 0.99436525E-01 0.71538441E+03</pdfrwt>
<totfact> 0.90072003E+00</totfact>
</mgrwt>
</event>
<event>
 4    1  0.2731969E-009  0.1454620E+04  0.7818608E-02  0.8915204E-01
         -1   -1    0    0    0  501 -0.00000000000E+00  0.00000000000E+00  0.15922421723E+04  0.15922421723E+04  0.50400000000E-02 0.  1.
          1   -1    0    0  501    0  0.00000000000E+00 -0.00000000000E+00 -0.18614289273E+04  0.18614289273E+04  0.50400000000E-02 0. -1.
    8880022    1    1    2    0    0  0.14096878665E+04 -0.32451200684E+03  0.78904545204E+03  0.16548450990E+04  0.15294330000E+03 0.  0.
    8880022    1    1    2    0    0 -0.14096878665E+04  0.32451200684E+03 -0.10582322071E+04  0.17988260006E+04  0.15294330000E+03 0.  0.
<mgrwt>
<rscale>  0 0.14546201E+04</rscale>
<asrwt>0</asrwt>
<pdfrwt beam="1">  1        1 0.28637368E+00 0.14546201E+04</pdfrwt>
<pdfrwt beam="2">  1       -1 0.24496033E+00 0.14546201E+04</pdfrwt>
<totfact> 0.26418214E-01</totfact>
</mgrwt>
</event>
<event>
 4    1  0.2731969E-009  0.4753605E+03  0.7818608E-02  0.1020418E+00
         -1   -1    0    0    0  501 -0.00000000000E+00  0.00000000000E+00  0.94236618004E+03  0.94236618005E+03  0.50400000000E-02 0.  1.
          1   -1    0    0  501    0  0.00000000000E+00 -0.00000000000E+00 -0.11317991574E+04  0.11317991574E+04  0.50400000000E-02 0. -1.
    8880022    1    1    2    0    0 -0.36471622452E+03 -0.26373853997E+03 -0.10154076367E+04  0.11211691503E+04  0.15294330000E+03 0.  0.
    8880022    1    1    2    0    0  0.36471622452E+03  0.26373853997E+03  0.82597465933E+03  0.95299618718E+03  0.15294330000E+03 0.  1.
<mgrwt>
<rscale>  0 0.47536049E+03</rscale>
<asrwt>0</asrwt>
<pdfrwt beam="1">  1        1 0.17412295E+00 0.47536049E+03</pdfrwt>
<pdfrwt beam="2">  1       -1 0.14497941E+00 0.47536049E+03</pdfrwt>
<totfact> 0.50323115E+00</totfact>
</mgrwt>
</event>
<event>
 4    1  0.2731969E-009  0.5606853E+03  0.7818608E-02  0.9990505E-01
          1   -1    0    0  501    0  0.00000000000E+00  0.00000000000E+00  0.36255092207E+03  0.36255092211E+03  0.50400000000E-02 0. -1.
         -1   -1    0    0    0  501 -0.00000000000E+00 -0.00000000000E+00 -0.11605163861E+04  0.11605163861E+04  0.50400000000E-02 0.  1.
    8880022    1    1    2    0    0  0.47497653604E+02  0.53732697583E+03 -0.78190051238E+03  0.96215194763E+03  0.15294330000E+03 0.  0.
    8880022    1    1    2    0    0 -0.47497653604E+02 -0.53732697583E+03 -0.16064951642E+02  0.56091536058E+03  0.15294330000E+03 0.  0.
<mgrwt>
<rscale>  0 0.56068526E+03</rscale>
<asrwt>0</asrwt>
<pdfrwt beam="1">  1        1 0.55777065E-01 0.56068526E+03</pdfrwt>
<pdfrwt beam="2">  1       -1 0.17854098E+00 0.56068526E+03</pdfrwt>
<totfact> 0.15350559E+01</totfact>
</mgrwt>
</event>
<event>
 4    1  0.2731969E-009  0.4320583E+03  0.7818608E-02  0.1033212E+00
         -1   -1    0    0    0  501 -0.00000000000E+00  0.00000000000E+00  0.45499344348E+03  0.45499344350E+03  0.50400000000E-02 0.  1.
          1   -1    0    0  501    0  0.00000000000E+00 -0.00000000000E+00 -0.14885590189E+04  0.14885590189E+04  0.50400000000E-02 0. -1.
    8880022    1    1    2    0    0  0.21813341103E+03  0.34014786393E+03  0.31029994606E+03  0.53194028225E+03  0.15294330000E+03 0.  0.
    8880022    1    1    2    0    0 -0.21813341103E+03 -0.34014786393E+03 -0.13438655215E+04  0.14116121802E+04  0.15294330000E+03 0.  0.
<mgrwt>
<rscale>  0 0.43205834E+03</rscale>
<asrwt>0</asrwt>
<pdfrwt beam="1">  1        1 0.22900908E+00 0.43205834E+03</pdfrwt>
<pdfrwt beam="2">  1       -1 0.69998992E-01 0.43205834E+03</pdfrwt>
<totfact> 0.15110215E+01</totfact>
</mgrwt>
</event>
<event>
 4    1  0.2731969E-009  0.1388917E+04  0.7818608E-02  0.8961880E-01
          1   -1    0    0  501    0  0.00000000000E+00  0.00000000000E+00  0.34456893527E+04  0.34456893527E+04  0.50400000000E-02 0. -1.
         -1   -1    0    0    0  501 -0.00000000000E+00 -0.00000000000E+00 -0.10670595955E+04  0.10670595955E+04  0.50400000000E-02 0.  1.
    8880022    1    1    2    0    0 -0.12459464120E+04 -0.59440507355E+03 -0.36632044929E+03  0.14364129551E+04  0.15294330000E+03 0.  0.
    8880022    1    1    2    0    0  0.12459464120E+04  0.59440507355E+03  0.27449502065E+04  0.30763359930E+04  0.15294330000E+03 0.  0.
<mgrwt>
<rscale>  0 0.13889174E+04</rscale>
<asrwt>0</asrwt>
<pdfrwt beam="1">  1        1 0.53010605E+00 0.13889174E+04</pdfrwt>
<pdfrwt beam="2">  1       -1 0.16416302E+00 0.13889174E+04</pdfrwt>
<totfact> 0.72657069E-02</totfact>
</mgrwt>
</event>
<event>
 4    1  0.2731969E-009  0.7094675E+03  0.7818608E-02  0.9701177E-01
          1   -1    0    0  501    0  0.00000000000E+00  0.00000000000E+00  0.79301613847E+03  0.79301613849E+03  0.50400000000E-02 0. -1.
         -1   -1    0    0    0  501 -0.00000000000E+00 -0.00000000000E+00 -0.69835287344E+03  0.69835287345E+03  0.50400000000E-02 0.  1.
    8880022    1    1    2    0    0 -0.68612174823E+03  0.95861655341E+02  0.27242064389E+03  0.75997182224E+03  0.15294330000E+03 0.  0.
    8880022    1    1    2    0    0  0.68612174823E+03 -0.95861655341E+02 -0.17775737885E+03  0.73139718971E+03  0.15294330000E+03 0.  0.
<mgrwt>
<rscale>  0 0.70946752E+03</rscale>
<asrwt>0</asrwt>
<pdfrwt beam="1">  1        1 0.12200248E+00 0.70946752E+03</pdfrwt>
<pdfrwt beam="2">  1       -1 0.10743890E+00 0.70946752E+03</pdfrwt>
<totfact> 0.18685583E+01</totfact>
</mgrwt>
</event>
<event>
 4    1  0.2731969E-009  0.6652531E+03  0.7818608E-02  0.9778571E-01
         -1   -1    0    0    0  501 -0.00000000000E+00  0.00000000000E+00  0.17251312401E+04  0.17251312401E+04  0.50400000000E-02 0.  1.
          1   -1    0    0  501    0  0.00000000000E+00 -0.00000000000E+00 -0.49862635514E+03  0.49862635517E+03  0.50400000000E-02 0. -1.
    8880022    1    1    2    0    0 -0.54315644451E+03  0.35235082788E+03  0.13879939110E+04  0.15391844526E+04  0.15294330000E+03 0.  1.
    8880022    1    1    2    0    0  0.54315644451E+03 -0.35235082788E+03 -0.16148902606E+03  0.68457314267E+03  0.15294330000E+03 0.  0.
<mgrwt>
<rscale>  0 0.66525310E+03</rscale>
<asrwt>0</asrwt>
<pdfrwt beam="1">  1        1 0.76711746E-01 0.66525310E+03</pdfrwt>
<pdfrwt beam="2">  1       -1 0.26540481E+00 0.66525310E+03</pdfrwt>
<totfact> 0.26128587E+00</totfact>
</mgrwt>
</event>
<event>
 4    1  0.2731969E-009  0.3683300E+03  0.7818608E-02  0.1055333E+00
          1   -1    0    0  501    0  0.00000000000E+00  0.00000000000E+00  0.18757286650E+04  0.18757286650E+04  0.50400000000E-02 0. -1.
         -1   -1    0    0    0  501 -0.00000000000E+00 -0.00000000000E+00 -0.34141513524E+03  0.34141513528E+03  0.50400000000E-02 0.  1.
    8880022    1    1    2    0    0 -0.64524969864E+02 -0.32880364444E+03  0.17513248277E+04  0.17896384030E+04  0.15294330000E+03 0.  0.
    8880022    1    1    2    0    0  0.64524969864E+02  0.32880364444E+03 -0.21701129788E+03  0.42750539734E+03  0.15294330000E+03 0.  0.
<mgrwt>
<rscale>  0 0.36832996E+03</rscale>
<asrwt>0</asrwt>
<pdfrwt beam="1">  1        1 0.28857365E+00 0.36832996E+03</pdfrwt>
<pdfrwt beam="2">  1       -1 0.52525403E-01 0.36832996E+03</pdfrwt>
<totfact> 0.14923416E+01</totfact>
</mgrwt>
</event>
<event>
 4    1  0.2731969E-009  0.1263956E+04  0.7818608E-02  0.9058647E-01
         -1   -1    0    0    0  501 -0.00000000000E+00  0.00000000000E+00  0.16981108371E+04  0.16981108371E+04  0.50400000000E-02 0.  1.
          1   -1    0    0  501    0  0.00000000000E+00 -0.00000000000E+00 -0.17347029756E+04  0.17347029756E+04  0.50400000000E-02 0. -1.
    8880022    1    1    2    0    0 -0.11883571112E+04  0.40249308061E+03  0.11428611832E+04  0.17040295305E+04  0.15294330000E+03 0.  0.
    8880022    1    1    2    0    0  0.11883571112E+04 -0.40249308061E+03 -0.11794533217E+04  0.17287842823E+04  0.15294330000E+03 0.  0.
<mgrwt>
<rscale>  0 0.12639561E+04</rscale>
<asrwt>0</asrwt>
<pdfrwt beam="1">  1        1 0.26687738E+00 0.12639561E+04</pdfrwt>
<pdfrwt beam="2">  1       -1 0.26124782E+00 0.12639561E+04</pdfrwt>
<totfact> 0.25861169E-01</totfact>
</mgrwt>
</event>
<event>
 4    1  0.2731969E-009  0.6669663E+03  0.7818608E-02  0.9775454E-01
         -1   -1    0    0    0  501 -0.00000000000E+00  0.00000000000E+00  0.46712469736E+03  0.46712469739E+03  0.50400000000E-02 0.  1.
          1   -1    0    0  501    0  0.00000000000E+00 -0.00000000000E+00 -0.14463350430E+04  0.14463350430E+04  0.50400000000E-02 0. -1.
    8880022    1    1    2    0    0  0.34254158428E+03 -0.55146861136E+03  0.69550397634E+02  0.67058278915E+03  0.15294330000E+03 0.  0.
    8880022    1    1    2    0    0 -0.34254158428E+03  0.55146861136E+03 -0.10487607433E+04  0.12428769513E+04  0.15294330000E+03 0.  0.
<mgrwt>
<rscale>  0 0.66696628E+03</rscale>
<asrwt>0</asrwt>
<pdfrwt beam="1">  1        1 0.22251308E+00 0.66696628E+03</pdfrwt>
<pdfrwt beam="2">  1       -1 0.71865339E-01 0.66696628E+03</pdfrwt>
<totfact> 0.14609278E+01</totfact>
</mgrwt>
</event>
<event>
 4    1  0.2731969E-009  0.9801442E+03  0.7818608E-02  0.9330594E-01
         -1   -1    0    0    0  501 -0.00000000000E+00  0.00000000000E+00  0.68557230281E+03  0.68557230283E+03  0.50400000000E-02 0.  1.
          1   -1    0    0  501    0  0.00000000000E+00 -0.00000000000E+00 -0.18585666851E+04  0.18585666851E+04  0.50400000000E-02 0. -1.
    8880022    1    1    2    0    0 -0.88798784349E+03 -0.38570541692E+03 -0.12174738415E+04  0.15629860161E+04  0.15294330000E+03 0.  0.
    8880022    1    1    2    0    0  0.88798784349E+03  0.38570541692E+03  0.44479459192E+02  0.98115297183E+03  0.15294330000E+03 0.  0.
<mgrwt>
<rscale>  0 0.98014424E+03</rscale>
<asrwt>0</asrwt>
<pdfrwt beam="1">  1        1 0.28593333E+00 0.98014424E+03</pdfrwt>
<pdfrwt beam="2">  1       -1 0.10547266E+00 0.98014424E+03</pdfrwt>
<totfact> 0.31695177E+00</totfact>
</mgrwt>
</event>
<event>
 4    1  0.2731969E-009  0.6857986E+03  0.7818608E-02  0.9741832E-01
          1   -1    0    0  501    0  0.00000000000E+00  0.00000000000E+00  0.19334771587E+04  0.19334771587E+04  0.50400000000E-02 0. -1.
         -1   -1    0    0    0  501 -0.00000000000E+00 -0.00000000000E+00 -0.38897074357E+03  0.38897074360E+03  0.50400000000E-02 0.  1.
    8880022    1    1    2    0    0 -0.40710473185E+03 -0.53027703760E+03  0.14830037143E+04  0.16338970803E+04  0.15294330000E+03 0.  0.
    8880022    1    1    2    0    0  0.40710473185E+03  0.53027703760E+03  0.61502700838E+02  0.68855082204E+03  0.15294330000E+03 0.  0.
<mgrwt>
<rscale>  0 0.68579855E+03</rscale>
<asrwt>0</asrwt>
<pdfrwt beam="1">  1        1 0.29745803E+00 0.68579855E+03</pdfrwt>
<pdfrwt beam="2">  1       -1 0.59841651E-01 0.68579855E+03</pdfrwt>
<totfact> 0.98869466E+00</totfact>
</mgrwt>
</event>
<event>
 4    1  0.2731969E-009  0.1006992E+04  0.7818608E-02  0.9300909E-01
          1   -1    0    0  501    0  0.00000000000E+00  0.00000000000E+00  0.26937970245E+04  0.26937970245E+04  0.50400000000E-02 0. -1.
         -1   -1    0    0    0  501 -0.00000000000E+00 -0.00000000000E+00 -0.59507358185E+03  0.59507358187E+03  0.50400000000E-02 0.  1.
    8880022    1    1    2    0    0 -0.73733868991E+03  0.66856009880E+03  0.20461373119E+04  0.22805066327E+04  0.15294330000E+03 0.  0.
    8880022    1    1    2    0    0  0.73733868991E+03 -0.66856009880E+03  0.52586130738E+02  0.10083639737E+04  0.15294330000E+03 0.  0.
<mgrwt>
<rscale>  0 0.10069919E+04</rscale>
<asrwt>0</asrwt>
<pdfrwt beam="1">  1        1 0.41443031E+00 0.10069919E+04</pdfrwt>
<pdfrwt beam="2">  1       -1 0.91549783E-01 0.10069919E+04</pdfrwt>
<totfact> 0.11771775E+00</totfact>
</mgrwt>
</event>
<event>
 4    1  0.2731969E-009  0.6896585E+03  0.7818608E-02  0.9735083E-01
         -1   -1    0    0    0  501 -0.00000000000E+00  0.00000000000E+00  0.57572168920E+03  0.57572168922E+03  0.50400000000E-02 0.  1.
          1   -1    0    0  501    0  0.00000000000E+00 -0.00000000000E+00 -0.21183756559E+04  0.21183756559E+04  0.50400000000E-02 0. -1.
    8880022    1    1    2    0    0 -0.45694450096E+03 -0.49339530616E+03  0.28076093814E+03  0.74461772910E+03  0.15294330000E+03 0.  0.
    8880022    1    1    2    0    0  0.45694450096E+03  0.49339530616E+03 -0.18234149048E+04  0.19494796160E+04  0.15294330000E+03 0.  0.
<mgrwt>
<rscale>  0 0.68965851E+03</rscale>
<asrwt>0</asrwt>
<pdfrwt beam="1">  1        1 0.32590394E+00 0.68965851E+03</pdfrwt>
<pdfrwt beam="2">  1       -1 0.88572569E-01 0.68965851E+03</pdfrwt>
<totfact> 0.33049875E+00</totfact>
</mgrwt>
</event>
<event>
 4    1  0.2731969E-009  0.3901152E+03  0.7818608E-02  0.1047257E+00
         -1   -1    0    0    0  501 -0.00000000000E+00  0.00000000000E+00  0.12671888828E+03  0.12671888838E+03  0.50400000000E-02 0.  1.
          1   -1    0    0  501    0  0.00000000000E+00 -0.00000000000E+00 -0.14966436337E+04  0.14966436337E+04  0.50400000000E-02 0. -1.
    8880022    1    1    2    0    0 -0.35229207810E+03 -0.68472544330E+02 -0.32421108949E+03  0.50725011699E+03  0.15294330000E+03 0.  0.
    8880022    1    1    2    0    0  0.35229207810E+03  0.68472544330E+02 -0.10457136560E+04  0.11161124051E+04  0.15294330000E+03 0.  0.
<mgrwt>
<rscale>  0 0.39011518E+03</rscale>
<asrwt>0</asrwt>
<pdfrwt beam="1">  1        1 0.23025285E+00 0.39011518E+03</pdfrwt>
<pdfrwt beam="2">  1       -1 0.19495215E-01 0.39011518E+03</pdfrwt>
<totfact> 0.14908633E+02</totfact>
</mgrwt>
</event>
<event>
 4    1  0.2731969E-009  0.1297397E+04  0.7818608E-02  0.9031632E-01
          1   -1    0    0  501    0  0.00000000000E+00  0.00000000000E+00  0.12449976336E+04  0.12449976336E+04  0.50400000000E-02 0. -1.
         -1   -1    0    0    0  501 -0.00000000000E+00 -0.00000000000E+00 -0.28665344476E+04  0.28665344476E+04  0.50400000000E-02 0.  1.
    8880022    1    1    2    0    0 -0.40968812085E+03 -0.12214761552E+04 -0.23050564236E+04  0.26450945395E+04  0.15294330000E+03 0.  0.
    8880022    1    1    2    0    0  0.40968812085E+03  0.12214761552E+04  0.68351960962E+03  0.14664375417E+04  0.15294330000E+03 0.  0.
<mgrwt>
<rscale>  0 0.12973974E+04</rscale>
<asrwt>0</asrwt>
<pdfrwt beam="1">  1        1 0.19153810E+00 0.12973974E+04</pdfrwt>
<pdfrwt beam="2">  1       -1 0.44100530E+00 0.12973974E+04</pdfrwt>
<totfact> 0.36093087E-02</totfact>
</mgrwt>
</event>
<event>
 4    1  0.2731969E-009  0.7372875E+03  0.7818608E-02  0.9655508E-01
          1   -1    0    0  501    0  0.00000000000E+00  0.00000000000E+00  0.80745834786E+03  0.80745834788E+03  0.50400000000E-02 0. -1.
         -1   -1    0    0    0  501 -0.00000000000E+00 -0.00000000000E+00 -0.86200444704E+03  0.86200444706E+03  0.50400000000E-02 0.  1.
    8880022    1    1    2    0    0 -0.60856868752E+03 -0.38709854971E+03 -0.41791713928E+03  0.84749485127E+03  0.15294330000E+03 0.  0.
    8880022    1    1    2    0    0  0.60856868752E+03  0.38709854971E+03  0.36337104010E+03  0.82196794366E+03  0.15294330000E+03 0.  0.
<mgrwt>
<rscale>  0 0.73728745E+03</rscale>
<asrwt>0</asrwt>
<pdfrwt beam="1">  1        1 0.12422436E+00 0.73728745E+03</pdfrwt>
<pdfrwt beam="2">  1       -1 0.13261607E+00 0.73728745E+03</pdfrwt>
<totfact> 0.10842262E+01</totfact>
</mgrwt>
</event>
<event>
 4    1  0.2731969E-009  0.4537057E+03  0.7818608E-02  0.1026623E+00
         -1   -1    0    0    0  501 -0.00000000000E+00  0.00000000000E+00  0.19066002630E+04  0.19066002630E+04  0.50400000000E-02 0.  1.
          1   -1    0    0  501    0  0.00000000000E+00 -0.00000000000E+00 -0.31464154042E+03  0.31464154046E+03  0.50400000000E-02 0. -1.
    8880022    1    1    2    0    0  0.35000060378E+03 -0.24486083318E+03  0.16961023596E+04  0.17557369159E+04  0.15294330000E+03 0.  0.
    8880022    1    1    2    0    0 -0.35000060378E+03  0.24486083318E+03 -0.10414363703E+03  0.46550488764E+03  0.15294330000E+03 0.  0.
<mgrwt>
<rscale>  0 0.45370575E+03</rscale>
<asrwt>0</asrwt>
<pdfrwt beam="1">  1        1 0.48406391E-01 0.45370575E+03</pdfrwt>
<pdfrwt beam="2">  1       -1 0.29332311E+00 0.45370575E+03</pdfrwt>
<totfact> 0.33370745E+00</totfact>
</mgrwt>
</event>
<event>
 4    1  0.2731969E-009  0.9573972E+03  0.7818608E-02  0.9356546E-01
         -1   -1    0    0    0  501 -0.00000000000E+00  0.00000000000E+00  0.11959467730E+04  0.11959467731E+04  0.50400000000E-02 0.  1.
          1   -1    0    0  501    0  0.00000000000E+00 -0.00000000000E+00 -0.83007700475E+03  0.83007700477E+03  0.50400000000E-02 0. -1.
    8880022    1    1    2    0    0 -0.81025328187E+03  0.48652575298E+03 -0.97572788304E+02  0.96235637428E+03  0.15294330000E+03 0.  0.
    8880022    1    1    2    0    0  0.81025328187E+03 -0.48652575298E+03  0.46344255660E+03  0.10636674035E+04  0.15294330000E+03 0.  0.
<mgrwt>
<rscale>  0 0.95739717E+03</rscale>
<asrwt>0</asrwt>
<pdfrwt beam="1">  1        1 0.12770415E+00 0.95739717E+03</pdfrwt>
<pdfrwt beam="2">  1       -1 0.18399181E+00 0.95739717E+03</pdfrwt>
<totfact> 0.40916989E+00</totfact>
</mgrwt>
</event>
<event>
 4    1  0.2731969E-009  0.1303155E+04  0.7818608E-02  0.9027067E-01
          1   -1    0    0  501    0  0.00000000000E+00  0.00000000000E+00  0.28636173907E+04  0.28636173907E+04  0.50400000000E-02 0. -1.
         -1   -1    0    0    0  501 -0.00000000000E+00 -0.00000000000E+00 -0.10898137522E+04  0.10898137522E+04  0.50400000000E-02 0.  1.
    8880022    1    1    2    0    0 -0.12842758716E+04 -0.15955239930E+03 -0.44769907159E+03  0.13779142188E+04  0.15294330000E+03 0.  0.
    8880022    1    1    2    0    0  0.12842758716E+04  0.15955239930E+03  0.22215027101E+04  0.25755169242E+04  0.15294330000E+03 0.  0.
<mgrwt>
<rscale>  0 0.13031551E+04</rscale>
<asrwt>0</asrwt>
<pdfrwt beam="1">  1        1 0.44055651E+00 0.13031551E+04</pdfrwt>
<pdfrwt beam="2">  1       -1 0.16766366E+00 0.13031551E+04</pdfrwt>
<totfact> 0.18730503E-01</totfact>
</mgrwt>
</event>
<event>
 4    1  0.2731969E-009  0.1840753E+03  0.7818608E-02  0.1163916E+00
         -1   -1    0    0    0  501 -0.00000000000E+00  0.00000000000E+00  0.50353052406E+03  0.50353052408E+03  0.50400000000E-02 0.  1.
          1   -1    0    0  501    0  0.00000000000E+00 -0.00000000000E+00 -0.10765588089E+03  0.10765588101E+03  0.50400000000E-02 0. -1.
    8880022    1    1    2    0    0 -0.15587131062E+02 -0.10123786261E+03  0.38505713158E+03  0.42679352277E+03  0.15294330000E+03 0.  0.
    8880022    1    1    2    0    0  0.15587131062E+02  0.10123786261E+03  0.10817511587E+02  0.18439288233E+03  0.15294330000E+03 0. -1.
<mgrwt>
<rscale>  0 0.18407530E+03</rscale>
<asrwt>0</asrwt>
<pdfrwt beam="1">  1        1 0.16562444E-01 0.18407530E+03</pdfrwt>
<pdfrwt beam="2">  1       -1 0.77466233E-01 0.18407530E+03</pdfrwt>
<totfact> 0.57052197E+02</totfact>
</mgrwt>
</event>
<event>
 4    1  0.2731969E-009  0.7674687E+03  0.7818608E-02  0.9608336E-01
         -1   -1    0    0    0  501 -0.00000000000E+00  0.00000000000E+00  0.85360808468E+03  0.85360808470E+03  0.50400000000E-02 0.  1.
          1   -1    0    0  501    0  0.00000000000E+00 -0.00000000000E+00 -0.78265756632E+03  0.78265756634E+03  0.50400000000E-02 0. -1.
    8880022    1    1    2    0    0 -0.60996708796E+03 -0.43995079234E+03 -0.24599157915E+03  0.80592807254E+03  0.15294330000E+03 0.  0.
    8880022    1    1    2    0    0  0.60996708796E+03  0.43995079234E+03  0.31694209751E+03  0.83033757850E+03  0.15294330000E+03 0.  0.
<mgrwt>
<rscale>  0 0.76746870E+03</rscale>
<asrwt>0</asrwt>
<pdfrwt beam="1">  1        1 0.12040886E+00 0.76746870E+03</pdfrwt>
<pdfrwt beam="2">  1       -1 0.13132432E+00 0.76746870E+03</pdfrwt>
<totfact> 0.11634749E+01</totfact>
</mgrwt>
</event>
<event>
 4    1  0.2731969E-009  0.1285624E+04  0.7818608E-02  0.9041044E-01
         -1   -1    0    0    0  501 -0.00000000000E+00  0.00000000000E+00  0.84467020349E+03  0.84467020350E+03  0.50400000000E-02 0.  1.
          1   -1    0    0  501    0  0.00000000000E+00 -0.00000000000E+00 -0.23464460588E+04  0.23464460588E+04  0.50400000000E-02 0. -1.
    8880022    1    1    2    0    0 -0.12143126674E+04 -0.39355160641E+03 -0.10067400636E+03  0.12895600140E+04  0.15294330000E+03 0.  0.
    8880022    1    1    2    0    0  0.12143126674E+04  0.39355160641E+03 -0.14011018490E+04  0.19015562483E+04  0.15294330000E+03 0.  0.
<mgrwt>
<rscale>  0 0.12856243E+04</rscale>
<asrwt>0</asrwt>
<pdfrwt beam="1">  1        1 0.36099170E+00 0.12856243E+04</pdfrwt>
<pdfrwt beam="2">  1       -1 0.12994926E+00 0.12856243E+04</pdfrwt>
<totfact> 0.85659536E-01</totfact>
</mgrwt>
</event>
<event>
 4    1  0.2731969E-009  0.1096823E+04  0.7818608E-02  0.9208294E-01
          1   -1    0    0  501    0  0.00000000000E+00  0.00000000000E+00  0.18582821833E+04  0.18582821833E+04  0.50400000000E-02 0. -1.
         -1   -1    0    0    0  501 -0.00000000000E+00 -0.00000000000E+00 -0.88621469552E+03  0.88621469553E+03  0.50400000000E-02 0.  1.
    8880022    1    1    2    0    0 -0.10681206344E+04  0.19684278714E+03 -0.22634210703E+03  0.11199335583E+04  0.15294330000E+03 0.  0.
    8880022    1    1    2    0    0  0.10681206344E+04 -0.19684278714E+03  0.11984095948E+04  0.16245633205E+04  0.15294330000E+03 0.  0.
<mgrwt>
<rscale>  0 0.10968229E+04</rscale>
<asrwt>0</asrwt>
<pdfrwt beam="1">  1        1 0.28588957E+00 0.10968229E+04</pdfrwt>
<pdfrwt beam="2">  1       -1 0.13634072E+00 0.10968229E+04</pdfrwt>
<totfact> 0.16628457E+00</totfact>
</mgrwt>
</event>
<event>
 4    1  0.2731969E-009  0.4932692E+03  0.7818608E-02  0.1015551E+00
         -1   -1    0    0    0  501 -0.00000000000E+00  0.00000000000E+00  0.89090758517E+03  0.89090758518E+03  0.50400000000E-02 0.  1.
          1   -1    0    0  501    0  0.00000000000E+00 -0.00000000000E+00 -0.40627118449E+03  0.40627118452E+03  0.50400000000E-02 0. -1.
    8880022    1    1    2    0    0 -0.27927385024E+03 -0.37673459617E+03 -0.12900577456E+03  0.50985976725E+03  0.15294330000E+03 0.  0.
    8880022    1    1    2    0    0  0.27927385024E+03  0.37673459617E+03  0.61364217524E+03  0.78731900245E+03  0.15294330000E+03 0.  0.
<mgrwt>
<rscale>  0 0.49326919E+03</rscale>
<asrwt>0</asrwt>
<pdfrwt beam="1">  1        1 0.62503260E-01 0.49326919E+03</pdfrwt>
<pdfrwt beam="2">  1       -1 0.13706270E+00 0.49326919E+03</pdfrwt>
<totfact> 0.27484776E+01</totfact>
</mgrwt>
</event>
<event>
 4    1  0.2731969E-009  0.2384211E+03  0.7818608E-02  0.1120849E+00
         -1   -1    0    0    0  501 -0.00000000000E+00  0.00000000000E+00  0.19653004311E+04  0.19653004311E+04  0.50400000000E-02 0.  1.
          1   -1    0    0  501    0  0.00000000000E+00 -0.00000000000E+00 -0.38071700259E+03  0.38071700263E+03  0.50400000000E-02 0. -1.
    8880022    1    1    2    0    0 -0.11438521583E+03 -0.14271997318E+03 -0.33527855490E+03  0.41140774268E+03  0.15294330000E+03 0. -1.
    8880022    1    1    2    0    0  0.11438521583E+03  0.14271997318E+03  0.19198619834E+04  0.19346096910E+04  0.15294330000E+03 0.  0.
<mgrwt>
<rscale>  0 0.23842110E+03</rscale>
<asrwt>0</asrwt>
<pdfrwt beam="1">  1        1 0.58571847E-01 0.23842110E+03</pdfrwt>
<pdfrwt beam="2">  1       -1 0.30235391E+00 0.23842110E+03</pdfrwt>
<totfact> 0.24849219E+00</totfact>
</mgrwt>
</event>
<event>
 4    1  0.2731969E-009  0.8776030E+03  0.7818608E-02  0.9454020E-01
         -1   -1    0    0    0  501 -0.00000000000E+00  0.00000000000E+00  0.62032736667E+03  0.62032736669E+03  0.50400000000E-02 0.  1.
          1   -1    0    0  501    0  0.00000000000E+00 -0.00000000000E+00 -0.17490062612E+04  0.17490062612E+04  0.50400000000E-02 0. -1.
    8880022    1    1    2    0    0 -0.27627739235E+02 -0.86373143699E+03  0.73757104539E+02  0.88069691194E+03  0.15294330000E+03 0.  0.
    8880022    1    1    2    0    0  0.27627739235E+02  0.86373143699E+03 -0.12024359991E+04  0.14886367160E+04  0.15294330000E+03 0.  0.
<mgrwt>
<rscale>  0 0.87760295E+03</rscale>
<asrwt>0</asrwt>
<pdfrwt beam="1">  1        1 0.26907788E+00 0.87760295E+03</pdfrwt>
<pdfrwt beam="2">  1       -1 0.95434980E-01 0.87760295E+03</pdfrwt>
<totfact> 0.47935290E+00</totfact>
</mgrwt>
</event>
<event>
 4    1  0.2731969E-009  0.2628335E+03  0.7818608E-02  0.1105453E+00
         -1   -1    0    0    0  501 -0.00000000000E+00  0.00000000000E+00  0.20190276071E+03  0.20190276077E+03  0.50400000000E-02 0.  1.
          1   -1    0    0  501    0  0.00000000000E+00 -0.00000000000E+00 -0.17232617150E+04  0.17232617150E+04  0.50400000000E-02 0. -1.
    8880022    1    1    2    0    0  0.21020308327E+03 -0.38787352698E+02 -0.16224195767E+04  0.16435713342E+04  0.15294330000E+03 0.  0.
    8880022    1    1    2    0    0 -0.21020308327E+03  0.38787352698E+02  0.10106062239E+03  0.28159314153E+03  0.15294330000E+03 0.  0.
<mgrwt>
<rscale>  0 0.26283350E+03</rscale>
<asrwt>0</asrwt>
<pdfrwt beam="1">  1        1 0.26511718E+00 0.26283350E+03</pdfrwt>
<pdfrwt beam="2">  1       -1 0.31061964E-01 0.26283350E+03</pdfrwt>
<totfact> 0.49849805E+01</totfact>
</mgrwt>
</event>
<event>
 4    1  0.2731969E-009  0.8902105E+03  0.7818608E-02  0.9437902E-01
          1   -1    0    0  501    0  0.00000000000E+00  0.00000000000E+00  0.11728666145E+04  0.11728666145E+04  0.50400000000E-02 0. -1.
         -1   -1    0    0    0  501 -0.00000000000E+00 -0.00000000000E+00 -0.10477686471E+04  0.10477686471E+04  0.50400000000E-02 0.  1.
    8880022    1    1    2    0    0 -0.10316746903E+03  0.87088430554E+03  0.72421930891E+03  0.11475923757E+04  0.15294330000E+03 0.  0.
    8880022    1    1    2    0    0  0.10316746903E+03 -0.87088430554E+03 -0.59912134143E+03  0.10730428859E+04  0.15294330000E+03 0.  0.
<mgrwt>
<rscale>  0 0.89021045E+03</rscale>
<asrwt>0</asrwt>
<pdfrwt beam="1">  1        1 0.18044102E+00 0.89021045E+03</pdfrwt>
<pdfrwt beam="2">  1       -1 0.16119518E+00 0.89021045E+03</pdfrwt>
<totfact> 0.32604554E+00</totfact>
</mgrwt>
</event>
<event>
 4    1  0.2731969E-009  0.6456796E+03  0.7818608E-02  0.9814920E-01
         -1   -1    0    0    0  501 -0.00000000000E+00  0.00000000000E+00  0.43815391646E+03  0.43815391649E+03  0.50400000000E-02 0.  1.
          1   -1    0    0  501    0  0.00000000000E+00 -0.00000000000E+00 -0.22224644289E+04  0.22224644289E+04  0.50400000000E-02 0. -1.
    8880022    1    1    2    0    0 -0.58655824436E+03  0.22239581894E+03 -0.18981654712E+04  0.20049773773E+04  0.15294330000E+03 0.  0.
    8880022    1    1    2    0    0  0.58655824436E+03 -0.22239581894E+03  0.11385495884E+03  0.65564096804E+03  0.15294330000E+03 0.  0.
<mgrwt>
<rscale>  0 0.64567959E+03</rscale>
<asrwt>0</asrwt>
<pdfrwt beam="1">  1        1 0.34191760E+00 0.64567959E+03</pdfrwt>
<pdfrwt beam="2">  1       -1 0.67408296E-01 0.64567959E+03</pdfrwt>
<totfact> 0.50401384E+00</totfact>
</mgrwt>
</event>
<event>
 4    1  0.2731969E-009  0.3117802E+03  0.7818608E-02  0.1079496E+00
         -1   -1    0    0    0  501 -0.00000000000E+00  0.00000000000E+00  0.83317931327E+02  0.83317931479E+02  0.50400000000E-02 0.  1.
          1   -1    0    0  501    0  0.00000000000E+00 -0.00000000000E+00 -0.29210250855E+04  0.29210250855E+04  0.50400000000E-02 0. -1.
    8880022    1    1    2    0    0 -0.10915533409E+02 -0.27147021102E+03 -0.25829987496E+04  0.26017473777E+04  0.15294330000E+03 0.  0.
    8880022    1    1    2    0    0  0.10915533409E+02  0.27147021102E+03 -0.25470840462E+03  0.40259563925E+03  0.15294330000E+03 0.  0.
<mgrwt>
<rscale>  0 0.31178017E+03</rscale>
<asrwt>0</asrwt>
<pdfrwt beam="1">  1        1 0.44938840E+00 0.31178017E+03</pdfrwt>
<pdfrwt beam="2">  1       -1 0.12818146E-01 0.31178017E+03</pdfrwt>
<totfact> 0.33534190E+01</totfact>
</mgrwt>
</event>
<event>
 4    1  0.2731969E-009  0.4593162E+03  0.7818608E-02  0.1024980E+00
          1   -1    0    0  501    0  0.00000000000E+00  0.00000000000E+00  0.15395298885E+04  0.15395298885E+04  0.50400000000E-02 0. -1.
         -1   -1    0    0    0  501 -0.00000000000E+00 -0.00000000000E+00 -0.19868105221E+04  0.19868105221E+04  0.50400000000E-02 0.  1.
    8880022    1    1    2    0    0 -0.18479416200E+02  0.43271028402E+03 -0.19249187065E+04  0.19789601710E+04  0.15294330000E+03 0.  0.
    8880022    1    1    2    0    0  0.18479416200E+02 -0.43271028402E+03  0.14776380728E+04  0.15473802396E+04  0.15294330000E+03 0.  0.
<mgrwt>
<rscale>  0 0.45931616E+03</rscale>
<asrwt>0</asrwt>
<pdfrwt beam="1">  1        1 0.23685075E+00 0.45931616E+03</pdfrwt>
<pdfrwt beam="2">  1       -1 0.30566316E+00 0.45931616E+03</pdfrwt>
<totfact> 0.22024060E-01</totfact>
</mgrwt>
</event>
<event>
 4    1  0.2731969E-009  0.1177468E+04  0.7818608E-02  0.9132811E-01
          1   -1    0    0  501    0  0.00000000000E+00  0.00000000000E+00  0.18792184539E+04  0.18792184539E+04  0.50400000000E-02 0. -1.
         -1   -1    0    0    0  501 -0.00000000000E+00 -0.00000000000E+00 -0.26336963914E+04  0.26336963914E+04  0.50400000000E-02 0.  1.
    8880022    1    1    2    0    0 -0.53021942995E+03 -0.10401474520E+04 -0.22917374388E+04  0.25765270244E+04  0.15294330000E+03 0.  0.
    8880022    1    1    2    0    0  0.53021942995E+03  0.10401474520E+04  0.15372595013E+04  0.19363878209E+04  0.15294330000E+03 0.  0.
<mgrwt>
<rscale>  0 0.11774681E+04</rscale>
<asrwt>0</asrwt>
<pdfrwt beam="1">  1        1 0.28911053E+00 0.11774681E+04</pdfrwt>
<pdfrwt beam="2">  1       -1 0.40518406E+00 0.11774681E+04</pdfrwt>
<totfact> 0.23638792E-02</totfact>
</mgrwt>
</event>
<event>
 4    1  0.2731969E-009  0.1995412E+03  0.7818608E-02  0.1150127E+00
          1   -1    0    0  501    0  0.00000000000E+00  0.00000000000E+00  0.80390925273E+03  0.80390925275E+03  0.50400000000E-02 0. -1.
         -1   -1    0    0    0  501 -0.00000000000E+00 -0.00000000000E+00 -0.52732052034E+03  0.52732052037E+03  0.50400000000E-02 0.  1.
    8880022    1    1    2    0    0 -0.75931096764E+02 -0.10324481319E+03  0.77187951898E+03  0.79725445608E+03  0.15294330000E+03 0.  0.
    8880022    1    1    2    0    0  0.75931096764E+02  0.10324481319E+03 -0.49529078659E+03  0.53397531704E+03  0.15294330000E+03 0.  0.
<mgrwt>
<rscale>  0 0.19954116E+03</rscale>
<asrwt>0</asrwt>
<pdfrwt beam="1">  1        1 0.12367835E+00 0.19954116E+03</pdfrwt>
<pdfrwt beam="2">  1       -1 0.81126234E-01 0.19954116E+03</pdfrwt>
<totfact> 0.37737922E+01</totfact>
</mgrwt>
</event>
<event>
 4    1  0.2731969E-009  0.4808563E+03  0.7818608E-02  0.1018900E+00
         -1   -1    0    0    0  501 -0.00000000000E+00  0.00000000000E+00  0.43669955093E+03  0.43669955096E+03  0.50400000000E-02 0.  1.
          1   -1    0    0  501    0  0.00000000000E+00 -0.00000000000E+00 -0.83047437071E+03  0.83047437072E+03  0.50400000000E-02 0. -1.
    8880022    1    1    2    0    0  0.27484027559E+03 -0.36372230829E+03 -0.57832530561E+03  0.75211894455E+03  0.15294330000E+03 0.  0.
    8880022    1    1    2    0    0 -0.27484027559E+03  0.36372230829E+03  0.18455048584E+03  0.51505497713E+03  0.15294330000E+03 0.  0.
<mgrwt>
<rscale>  0 0.48085627E+03</rscale>
<asrwt>0</asrwt>
<pdfrwt beam="1">  1        1 0.12776529E+00 0.48085627E+03</pdfrwt>
<pdfrwt beam="2">  1       -1 0.67184546E-01 0.48085627E+03</pdfrwt>
<totfact> 0.49319723E+01</totfact>
</mgrwt>
</event>
<event>
 4    1  0.2731969E-009  0.1185525E+04  0.7818608E-02  0.9125621E-01
          1   -1    0    0  501    0  0.00000000000E+00  0.00000000000E+00  0.22875765037E+04  0.22875765037E+04  0.50400000000E-02 0. -1.
         -1   -1    0    0    0  501 -0.00000000000E+00 -0.00000000000E+00 -0.15292407024E+04  0.15292407024E+04  0.50400000000E-02 0.  1.
    8880022    1    1    2    0    0 -0.54459138190E+03 -0.10418728648E+04  0.18552410963E+04  0.22016789089E+04  0.15294330000E+03 0.  0.
    8880022    1    1    2    0    0  0.54459138190E+03  0.10418728648E+04 -0.10969052950E+04  0.16151382971E+04  0.15294330000E+03 0.  0.
<mgrwt>
<rscale>  0 0.11855254E+04</rscale>
<asrwt>0</asrwt>
<pdfrwt beam="1">  1        1 0.35193485E+00 0.11855254E+04</pdfrwt>
<pdfrwt beam="2">  1       -1 0.23526780E+00 0.11855254E+04</pdfrwt>
<totfact> 0.16312393E-01</totfact>
</mgrwt>
</event>
<event>
 4    1  0.2731969E-009  0.8880283E+03  0.7818608E-02  0.9440672E-01
         -1   -1    0    0    0  501 -0.00000000000E+00  0.00000000000E+00  0.16305296872E+04  0.16305296872E+04  0.50400000000E-02 0.  1.
          1   -1    0    0  501    0  0.00000000000E+00 -0.00000000000E+00 -0.78937408781E+03  0.78937408782E+03  0.50400000000E-02 0. -1.
    8880022    1    1    2    0    0 -0.42941867756E+03 -0.76210385595E+03  0.11735803343E+04  0.14716946497E+04  0.15294330000E+03 0.  0.
    8880022    1    1    2    0    0  0.42941867756E+03  0.76210385595E+03 -0.33242473494E+03  0.94820912530E+03  0.15294330000E+03 0.  0.
<mgrwt>
<rscale>  0 0.88802834E+03</rscale>
<asrwt>0</asrwt>
<pdfrwt beam="1">  1        1 0.12144217E+00 0.88802834E+03</pdfrwt>
<pdfrwt beam="2">  1       -1 0.25085072E+00 0.88802834E+03</pdfrwt>
<totfact> 0.15924565E+00</totfact>
</mgrwt>
</event>
<event>
 4    1  0.2731969E-009  0.6015314E+03  0.7818608E-02  0.9902234E-01
          1   -1    0    0  501    0  0.00000000000E+00  0.00000000000E+00  0.15694451216E+04  0.15694451216E+04  0.50400000000E-02 0. -1.
         -1   -1    0    0    0  501 -0.00000000000E+00 -0.00000000000E+00 -0.37513329530E+03  0.37513329533E+03  0.50400000000E-02 0.  1.
    8880022    1    1    2    0    0 -0.36277077611E+03 -0.45480295294E+03 -0.64555347383E+01  0.60156603042E+03  0.15294330000E+03 0.  0.
    8880022    1    1    2    0    0  0.36277077611E+03  0.45480295294E+03  0.12007673611E+04  0.13430123865E+04  0.15294330000E+03 0.  0.
<mgrwt>
<rscale>  0 0.60153139E+03</rscale>
<asrwt>0</asrwt>
<pdfrwt beam="1">  1        1 0.24145310E+00 0.60153139E+03</pdfrwt>
<pdfrwt beam="2">  1       -1 0.57712814E-01 0.60153139E+03</pdfrwt>
<totfact> 0.18871045E+01</totfact>
</mgrwt>
</event>
<event>
 4    1  0.2731969E-009  0.1571683E+04  0.7818608E-02  0.8838136E-01
          1   -1    0    0  501    0  0.00000000000E+00  0.00000000000E+00  0.17328644567E+04  0.17328644567E+04  0.50400000000E-02 0. -1.
         -1   -1    0    0    0  501 -0.00000000000E+00 -0.00000000000E+00 -0.17108268943E+04  0.17108268943E+04  0.50400000000E-02 0.  1.
    8880022    1    1    2    0    0 -0.15488078528E+04 -0.21906632786E+03 -0.69216248434E+03  0.17173457365E+04  0.15294330000E+03 0.  0.
    8880022    1    1    2    0    0  0.15488078528E+04  0.21906632786E+03  0.71420004678E+03  0.17263456145E+04  0.15294330000E+03 0.  0.
<mgrwt>
<rscale>  0 0.15716830E+04</rscale>
<asrwt>0</asrwt>
<pdfrwt beam="1">  1        1 0.26659453E+00 0.15716830E+04</pdfrwt>
<pdfrwt beam="2">  1       -1 0.26320414E+00 0.15716830E+04</pdfrwt>
<totfact> 0.24242372E-01</totfact>
</mgrwt>
</event>
<event>
 4    1  0.2731969E-009  0.1077183E+04  0.7818608E-02  0.9227720E-01
         -1   -1    0    0    0  501 -0.00000000000E+00  0.00000000000E+00  0.65866382944E+03  0.65866382946E+03  0.50400000000E-02 0.  1.
          1   -1    0    0  501    0  0.00000000000E+00 -0.00000000000E+00 -0.18291482034E+04  0.18291482034E+04  0.50400000000E-02 0. -1.
    8880022    1    1    2    0    0  0.16477935732E+03  0.10534610141E+04 -0.82422332132E+03  0.13563436442E+04  0.15294330000E+03 0.  0.
    8880022    1    1    2    0    0 -0.16477935732E+03 -0.10534610141E+04 -0.34626105265E+03  0.11314683886E+04  0.15294330000E+03 0.  0.
<mgrwt>
<rscale>  0 0.10771834E+04</rscale>
<asrwt>0</asrwt>
<pdfrwt beam="1">  1        1 0.28140741E+00 0.10771834E+04</pdfrwt>
<pdfrwt beam="2">  1       -1 0.10133290E+00 0.10771834E+04</pdfrwt>
<totfact> 0.35955699E+00</totfact>
</mgrwt>
</event>
<event>
 4    1  0.2731969E-009  0.2736194E+03  0.7818608E-02  0.1099226E+00
         -1   -1    0    0    0  501 -0.00000000000E+00  0.00000000000E+00  0.84612939002E+03  0.84612939003E+03  0.50400000000E-02 0.  1.
          1   -1    0    0  501    0  0.00000000000E+00 -0.00000000000E+00 -0.62889370448E+03  0.62889370450E+03  0.50400000000E-02 0. -1.
    8880022    1    1    2    0    0  0.19294242904E+03 -0.11936972267E+03  0.79228136917E+03  0.83819886219E+03  0.15294330000E+03 0.  0.
    8880022    1    1    2    0    0 -0.19294242904E+03  0.11936972267E+03 -0.57504568364E+03  0.63682423234E+03  0.15294330000E+03 0.  0.
<mgrwt>
<rscale>  0 0.27361938E+03</rscale>
<asrwt>0</asrwt>
<pdfrwt beam="1">  1        1 0.96752878E-01 0.27361938E+03</pdfrwt>
<pdfrwt beam="2">  1       -1 0.13017375E+00 0.27361938E+03</pdfrwt>
<totfact> 0.18147160E+01</totfact>
</mgrwt>
</event>
<event>
 4    1  0.2731969E-009  0.3061291E+03  0.7818608E-02  0.1082216E+00
         -1   -1    0    0    0  501 -0.00000000000E+00  0.00000000000E+00  0.96821493775E+03  0.96821493776E+03  0.50400000000E-02 0.  1.
          1   -1    0    0  501    0  0.00000000000E+00 -0.00000000000E+00 -0.14863851919E+03  0.14863851928E+03  0.50400000000E-02 0. -1.
    8880022    1    1    2    0    0  0.25540338165E+03  0.71361524445E+02  0.73959703475E+03  0.80044911228E+03  0.15294330000E+03 0.  0.
    8880022    1    1    2    0    0 -0.25540338165E+03 -0.71361524445E+02  0.79979383808E+02  0.31640434476E+03  0.15294330000E+03 0.  0.
<mgrwt>
<rscale>  0 0.30612907E+03</rscale>
<asrwt>0</asrwt>
<pdfrwt beam="1">  1        1 0.22867464E-01 0.30612907E+03</pdfrwt>
<pdfrwt beam="2">  1       -1 0.14895615E+00 0.30612907E+03</pdfrwt>
<totfact> 0.82730430E+01</totfact>
</mgrwt>
</event>
<event>
 4    1  0.2731969E-009  0.2518153E+03  0.7818608E-02  0.1112163E+00
          1   -1    0    0  501    0  0.00000000000E+00  0.00000000000E+00  0.90450428555E+03  0.90450428556E+03  0.50400000000E-02 0. -1.
         -1   -1    0    0    0  501 -0.00000000000E+00 -0.00000000000E+00 -0.46432627819E+03  0.46432627822E+03  0.50400000000E-02 0.  1.
    8880022    1    1    2    0    0 -0.66243964948E+02 -0.18876180492E+03 -0.41054545047E+03  0.48162070326E+03  0.15294330000E+03 0.  0.
    8880022    1    1    2    0    0  0.66243964948E+02  0.18876180492E+03  0.85072345783E+03  0.88720986052E+03  0.15294330000E+03 0. -1.
<mgrwt>
<rscale>  0 0.25181528E+03</rscale>
<asrwt>0</asrwt>
<pdfrwt beam="1">  1        1 0.13915451E+00 0.25181528E+03</pdfrwt>
<pdfrwt beam="2">  1       -1 0.71434812E-01 0.25181528E+03</pdfrwt>
<totfact> 0.39873246E+01</totfact>
</mgrwt>
</event>
<event>
 4    1  0.2731969E-009  0.6011839E+03  0.7818608E-02  0.9902953E-01
         -1   -1    0    0    0  501 -0.00000000000E+00  0.00000000000E+00  0.66665533757E+03  0.66665533759E+03  0.50400000000E-02 0.  1.
          1   -1    0    0  501    0  0.00000000000E+00 -0.00000000000E+00 -0.60890631861E+03  0.60890631863E+03  0.50400000000E-02 0. -1.
    8880022    1    1    2    0    0  0.36748270331E+03 -0.45054071155E+03 -0.18231246942E+03  0.62821967457E+03  0.15294330000E+03 0.  0.
    8880022    1    1    2    0    0 -0.36748270331E+03  0.45054071155E+03  0.24006148837E+03  0.64734198165E+03  0.15294330000E+03 0.  0.
<mgrwt>
<rscale>  0 0.60118393E+03</rscale>
<asrwt>0</asrwt>
<pdfrwt beam="1">  1        1 0.93677895E-01 0.60118393E+03</pdfrwt>
<pdfrwt beam="2">  1       -1 0.10256236E+00 0.60118393E+03</pdfrwt>
<totfact> 0.31386483E+01</totfact>
</mgrwt>
</event>
<event>
 4    1  0.2731969E-009  0.9038862E+03  0.7818608E-02  0.9420736E-01
         -1   -1    0    0    0  501 -0.00000000000E+00  0.00000000000E+00  0.43465631286E+03  0.43465631289E+03  0.50400000000E-02 0.  1.
          1   -1    0    0  501    0  0.00000000000E+00 -0.00000000000E+00 -0.24653629394E+04  0.24653629394E+04  0.50400000000E-02 0. -1.
    8880022    1    1    2    0    0 -0.49273397259E+03 -0.74218050844E+03 -0.17221028567E+04  0.19449032307E+04  0.15294330000E+03 0.  0.
    8880022    1    1    2    0    0  0.49273397259E+03  0.74218050844E+03 -0.30860376982E+03  0.95511602155E+03  0.15294330000E+03 0.  0.
<mgrwt>
<rscale>  0 0.90388624E+03</rscale>
<asrwt>0</asrwt>
<pdfrwt beam="1">  1        1 0.37928660E+00 0.90388624E+03</pdfrwt>
<pdfrwt beam="2">  1       -1 0.66870204E-01 0.90388624E+03</pdfrwt>
<totfact> 0.33501961E+00</totfact>
</mgrwt>
</event>
<event>
 4    1  0.2731969E-009  0.3186153E+03  0.7818608E-02  0.1076288E+00
          1   -1    0    0  501    0  0.00000000000E+00  0.00000000000E+00  0.11751478335E+04  0.11751478335E+04  0.50400000000E-02 0. -1.
         -1   -1    0    0    0  501 -0.00000000000E+00 -0.00000000000E+00 -0.43193157450E+03  0.43193157453E+03  0.50400000000E-02 0.  1.
    8880022    1    1    2    0    0 -0.31954392133E+01 -0.27948855365E+03 -0.34710049396E+03  0.47116288943E+03  0.15294330000E+03 0.  0.
    8880022    1    1    2    0    0  0.31954392133E+01  0.27948855365E+03  0.10903167530E+04  0.11359165186E+04  0.15294330000E+03 0. -1.
<mgrwt>
<rscale>  0 0.31861531E+03</rscale>
<asrwt>0</asrwt>
<pdfrwt beam="1">  1        1 0.18079197E+00 0.31861531E+03</pdfrwt>
<pdfrwt beam="2">  1       -1 0.66451012E-01 0.31861531E+03</pdfrwt>
<totfact> 0.28435293E+01</totfact>
</mgrwt>
</event>
<event>
 4    1  0.2731969E-009  0.1410041E+04  0.7818608E-02  0.8946582E-01
         -1   -1    0    0    0  501 -0.00000000000E+00  0.00000000000E+00  0.14425476885E+04  0.14425476885E+04  0.50400000000E-02 0.  1.
          1   -1    0    0  501    0  0.00000000000E+00 -0.00000000000E+00 -0.33587881231E+04  0.33587881231E+04  0.50400000000E-02 0. -1.
    8880022    1    1    2    0    0 -0.13980461542E+04 -0.10144508875E+03 -0.28015666679E+04  0.31363978706E+04  0.15294330000E+03 0.  0.
    8880022    1    1    2    0    0  0.13980461542E+04  0.10144508875E+03  0.88532623323E+03  0.16649379410E+04  0.15294330000E+03 0.  0.
<mgrwt>
<rscale>  0 0.14100411E+04</rscale>
<asrwt>0</asrwt>
<pdfrwt beam="1">  1        1 0.51673663E+00 0.14100411E+04</pdfrwt>
<pdfrwt beam="2">  1       -1 0.22193041E+00 0.14100411E+04</pdfrwt>
<totfact> 0.33094462E-02</totfact>
</mgrwt>
</event>
<event>
 4    1  0.2731969E-009  0.1045001E+04  0.7818608E-02  0.9260521E-01
          1   -1    0    0  501    0  0.00000000000E+00  0.00000000000E+00  0.15534518486E+04  0.15534518486E+04  0.50400000000E-02 0. -1.
         -1   -1    0    0    0  501 -0.00000000000E+00 -0.00000000000E+00 -0.14008617930E+04  0.14008617930E+04  0.50400000000E-02 0.  1.
    8880022    1    1    2    0    0  0.68979226784E+03  0.76994920243E+03 -0.96631921802E+03  0.14233058811E+04  0.15294330000E+03 0.  0.
    8880022    1    1    2    0    0 -0.68979226784E+03 -0.76994920243E+03  0.11189092736E+04  0.15310077605E+04  0.15294330000E+03 0.  0.
<mgrwt>
<rscale>  0 0.10450009E+04</rscale>
<asrwt>0</asrwt>
<pdfrwt beam="1">  1        1 0.23899259E+00 0.10450009E+04</pdfrwt>
<pdfrwt beam="2">  1       -1 0.21551720E+00 0.10450009E+04</pdfrwt>
<totfact> 0.70979906E-01</totfact>
</mgrwt>
</event>
<event>
 4    1  0.2731969E-009  0.1290454E+04  0.7818608E-02  0.9037170E-01
          1   -1    0    0  501    0  0.00000000000E+00  0.00000000000E+00  0.29209811438E+04  0.29209811438E+04  0.50400000000E-02 0. -1.
         -1   -1    0    0    0  501 -0.00000000000E+00 -0.00000000000E+00 -0.99608491284E+03  0.99608491286E+03  0.50400000000E-02 0.  1.
    8880022    1    1    2    0    0 -0.30236107773E+03  0.12451735285E+04  0.22432336093E+04  0.25879273592E+04  0.15294330000E+03 0.  0.
    8880022    1    1    2    0    0  0.30236107773E+03 -0.12451735285E+04 -0.31833737841E+03  0.13291386974E+04  0.15294330000E+03 0.  0.
<mgrwt>
<rscale>  0 0.12904538E+04</rscale>
<asrwt>0</asrwt>
<pdfrwt beam="1">  1        1 0.44938171E+00 0.12904538E+04</pdfrwt>
<pdfrwt beam="2">  1       -1 0.15324383E+00 0.12904538E+04</pdfrwt>
<totfact> 0.21969841E-01</totfact>
</mgrwt>
</event>
<event>
 4    1  0.2731969E-009  0.4382855E+03  0.7818608E-02  0.1031274E+00
          1   -1    0    0  501    0  0.00000000000E+00  0.00000000000E+00  0.29993871342E+04  0.29993871342E+04  0.50400000000E-02 0. -1.
         -1   -1    0    0    0  501 -0.00000000000E+00 -0.00000000000E+00 -0.22366455700E+03  0.22366455706E+03  0.50400000000E-02 0.  1.
    8880022    1    1    2    0    0 -0.88207308463E+02  0.40115088274E+03  0.26471659642E+02  0.43908423084E+03  0.15294330000E+03 0.  1.
    8880022    1    1    2    0    0  0.88207308463E+02 -0.40115088274E+03  0.27492509176E+04  0.27839674605E+04  0.15294330000E+03 0.  0.
<mgrwt>
<rscale>  0 0.43828554E+03</rscale>
<asrwt>0</asrwt>
<pdfrwt beam="1">  1        1 0.46144417E+00 0.43828554E+03</pdfrwt>
<pdfrwt beam="2">  1       -1 0.34409932E-01 0.43828554E+03</pdfrwt>
<totfact> 0.55111613E+00</totfact>
</mgrwt>
</event>
<event>
 4    1  0.2731969E-009  0.6936762E+03  0.7818608E-02  0.9728108E-01
         -1   -1    0    0    0  501 -0.00000000000E+00  0.00000000000E+00  0.66841183444E+03  0.66841183446E+03  0.50400000000E-02 0.  1.
          1   -1    0    0  501    0  0.00000000000E+00 -0.00000000000E+00 -0.15037593059E+04  0.15037593059E+04  0.50400000000E-02 0. -1.
    8880022    1    1    2    0    0 -0.52154849822E+03  0.43102460026E+03  0.36646909466E+03  0.78452934450E+03  0.15294330000E+03 0.  0.
    8880022    1    1    2    0    0  0.52154849822E+03 -0.43102460026E+03 -0.12018165661E+04  0.13876417959E+04  0.15294330000E+03 0.  0.
<mgrwt>
<rscale>  0 0.69367622E+03</rscale>
<asrwt>0</asrwt>
<pdfrwt beam="1">  1        1 0.23134758E+00 0.69367622E+03</pdfrwt>
<pdfrwt beam="2">  1       -1 0.10283259E+00 0.69367622E+03</pdfrwt>
<totfact> 0.61071714E+00</totfact>
</mgrwt>
</event>
<event>
 4    1  0.2731969E-009  0.6048200E+03  0.7818608E-02  0.9895456E-01
         -1   -1    0    0    0  501 -0.00000000000E+00  0.00000000000E+00  0.18162277413E+04  0.18162277413E+04  0.50400000000E-02 0.  1.
          1   -1    0    0  501    0  0.00000000000E+00 -0.00000000000E+00 -0.55070210993E+03  0.55070210995E+03  0.50400000000E-02 0. -1.
    8880022    1    1    2    0    0  0.14176209104E+03 -0.56773150575E+03  0.15752840493E+04  0.16874024541E+04  0.15294330000E+03 0.  0.
    8880022    1    1    2    0    0 -0.14176209104E+03  0.56773150575E+03 -0.30975841790E+03  0.67952739720E+03  0.15294330000E+03 0.  0.
<mgrwt>
<rscale>  0 0.60481998E+03</rscale>
<asrwt>0</asrwt>
<pdfrwt beam="1">  1        1 0.84723402E-01 0.60481998E+03</pdfrwt>
<pdfrwt beam="2">  1       -1 0.27941965E+00 0.60481998E+03</pdfrwt>
<totfact> 0.18765001E+00</totfact>
</mgrwt>
</event>
<event>
 4    1  0.2731969E-009  0.6593924E+03  0.7818608E-02  0.9789313E-01
         -1   -1    0    0    0  501 -0.00000000000E+00  0.00000000000E+00  0.13437491099E+04  0.13437491100E+04  0.50400000000E-02 0.  1.
          1   -1    0    0  501    0  0.00000000000E+00 -0.00000000000E+00 -0.18686169836E+04  0.18686169836E+04  0.50400000000E-02 0. -1.
    8880022    1    1    2    0    0  0.32450683579E+03 -0.55326486006E+03 -0.17229474711E+04  0.18448160702E+04  0.15294330000E+03 0.  0.
    8880022    1    1    2    0    0 -0.32450683579E+03  0.55326486006E+03  0.11980795974E+04  0.13675500234E+04  0.15294330000E+03 0.  0.
<mgrwt>
<rscale>  0 0.65939241E+03</rscale>
<asrwt>0</asrwt>
<pdfrwt beam="1">  1        1 0.28747954E+00 0.65939241E+03</pdfrwt>
<pdfrwt beam="2">  1       -1 0.20673063E+00 0.65939241E+03</pdfrwt>
<totfact> 0.53802580E-01</totfact>
</mgrwt>
</event>
<event>
 4    1  0.2731969E-009  0.6565847E+03  0.7818608E-02  0.9794501E-01
         -1   -1    0    0    0  501 -0.00000000000E+00  0.00000000000E+00  0.31226619289E+03  0.31226619293E+03  0.50400000000E-02 0.  1.
          1   -1    0    0  501    0  0.00000000000E+00 -0.00000000000E+00 -0.21776233382E+04  0.21776233382E+04  0.50400000000E-02 0. -1.
    8880022    1    1    2    0    0  0.26039051592E+03  0.58301675002E+03 -0.17948937682E+03  0.68067601764E+03  0.15294330000E+03 0.  0.
    8880022    1    1    2    0    0 -0.26039051592E+03 -0.58301675002E+03 -0.16858677685E+04  0.18092135135E+04  0.15294330000E+03 0.  0.
<mgrwt>
<rscale>  0 0.65658465E+03</rscale>
<asrwt>0</asrwt>
<pdfrwt beam="1">  1        1 0.33501897E+00 0.65658465E+03</pdfrwt>
<pdfrwt beam="2">  1       -1 0.48040954E-01 0.65658465E+03</pdfrwt>
<totfact> 0.10409727E+01</totfact>
</mgrwt>
</event>
<event>
 4    1  0.2731969E-009  0.1058129E+04  0.7818608E-02  0.9246991E-01
          1   -1    0    0  501    0  0.00000000000E+00  0.00000000000E+00  0.13105940572E+04  0.13105940572E+04  0.50400000000E-02 0. -1.
         -1   -1    0    0    0  501 -0.00000000000E+00 -0.00000000000E+00 -0.11569264134E+04  0.11569264134E+04  0.50400000000E-02 0.  1.
    8880022    1    1    2    0    0  0.46105110789E+03  0.94004133686E+03 -0.55417141596E+03  0.11944636664E+04  0.15294330000E+03 0.  0.
    8880022    1    1    2    0    0 -0.46105110789E+03 -0.94004133686E+03  0.70783905974E+03  0.12730568042E+04  0.15294330000E+03 0.  0.
<mgrwt>
<rscale>  0 0.10581292E+04</rscale>
<asrwt>0</asrwt>
<pdfrwt beam="1">  1        1 0.20162985E+00 0.10581292E+04</pdfrwt>
<pdfrwt beam="2">  1       -1 0.17798868E+00 0.10581292E+04</pdfrwt>
<totfact> 0.19069772E+00</totfact>
</mgrwt>
</event>
<event>
 4    1  0.2731969E-009  0.7785698E+03  0.7818608E-02  0.9591565E-01
         -1   -1    0    0    0  501 -0.00000000000E+00  0.00000000000E+00  0.75235040667E+03  0.75235040669E+03  0.50400000000E-02 0.  1.
          1   -1    0    0  501    0  0.00000000000E+00 -0.00000000000E+00 -0.19764993874E+04  0.19764993874E+04  0.50400000000E-02 0. -1.
    8880022    1    1    2    0    0  0.73828344701E+03 -0.19420841354E+03  0.43805286809E+03  0.89334278096E+03  0.15294330000E+03 0.  0.
    8880022    1    1    2    0    0 -0.73828344701E+03  0.19420841354E+03 -0.16622018488E+04  0.18355070131E+04  0.15294330000E+03 0.  0.
<mgrwt>
<rscale>  0 0.77856985E+03</rscale>
<asrwt>0</asrwt>
<pdfrwt beam="1">  1        1 0.30407683E+00 0.77856985E+03</pdfrwt>
<pdfrwt beam="2">  1       -1 0.11574622E+00 0.77856985E+03</pdfrwt>
<totfact> 0.21894143E+00</totfact>
</mgrwt>
</event>
<event>
 4    1  0.2731969E-009  0.1291066E+04  0.7818608E-02  0.9036680E-01
         -1   -1    0    0    0  501 -0.00000000000E+00  0.00000000000E+00  0.12738133351E+04  0.12738133351E+04  0.50400000000E-02 0.  1.
          1   -1    0    0  501    0  0.00000000000E+00 -0.00000000000E+00 -0.23107149967E+04  0.23107149967E+04  0.50400000000E-02 0. -1.
    8880022    1    1    2    0    0 -0.75735456801E+02 -0.12797362617E+04 -0.16987654041E+04  0.21336954586E+04  0.15294330000E+03 0.  0.
    8880022    1    1    2    0    0  0.75735456801E+02  0.12797362617E+04  0.66186374251E+03  0.14508328731E+04  0.15294330000E+03 0.  0.
<mgrwt>
<rscale>  0 0.12910664E+04</rscale>
<asrwt>0</asrwt>
<pdfrwt beam="1">  1        1 0.35549461E+00 0.12910664E+04</pdfrwt>
<pdfrwt beam="2">  1       -1 0.19597128E+00 0.12910664E+04</pdfrwt>
<totfact> 0.28520617E-01</totfact>
</mgrwt>
</event>
<event>
 4    1  0.2731969E-009  0.8178182E+03  0.7818608E-02  0.9534578E-01
          1   -1    0    0  501    0  0.00000000000E+00  0.00000000000E+00  0.94074184379E+03  0.94074184381E+03  0.50400000000E-02 0. -1.
         -1   -1    0    0    0  501 -0.00000000000E+00 -0.00000000000E+00 -0.12467467175E+04  0.12467467175E+04  0.50400000000E-02 0.  1.
    8880022    1    1    2    0    0  0.33974425036E+03 -0.72801697935E+03  0.56400567215E+03  0.99344296722E+03  0.15294330000E+03 0.  0.
    8880022    1    1    2    0    0 -0.33974425036E+03  0.72801697935E+03 -0.87001054586E+03  0.11940455941E+04  0.15294330000E+03 0.  0.
<mgrwt>
<rscale>  0 0.81781815E+03</rscale>
<asrwt>0</asrwt>
<pdfrwt beam="1">  1        1 0.14472951E+00 0.81781815E+03</pdfrwt>
<pdfrwt beam="2">  1       -1 0.19180719E+00 0.81781815E+03</pdfrwt>
<totfact> 0.29778116E+00</totfact>
</mgrwt>
</event>
<event>
 4    1  0.2731969E-009  0.2491813E+04  0.7818608E-02  0.8405908E-01
         -1   -1    0    0    0  501 -0.00000000000E+00  0.00000000000E+00  0.47090270520E+04  0.47090270520E+04  0.50400000000E-02 0.  1.
          1   -1    0    0  501    0  0.00000000000E+00 -0.00000000000E+00 -0.15391434952E+04  0.15391434952E+04  0.50400000000E-02 0. -1.
    8880022    1    1    2    0    0 -0.16189689803E+04  0.18880354428E+04  0.40225210129E+03  0.25240714725E+04  0.15294330000E+03 0.  0.
    8880022    1    1    2    0    0  0.16189689803E+04 -0.18880354428E+04  0.27676314555E+04  0.37240990747E+04  0.15294330000E+03 0.  0.
<mgrwt>
<rscale>  0 0.24918126E+04</rscale>
<asrwt>0</asrwt>
<pdfrwt beam="1">  1        1 0.23679131E+00 0.24918126E+04</pdfrwt>
<pdfrwt beam="2">  1       -1 0.72446570E+00 0.24918126E+04</pdfrwt>
<totfact> 0.83519350E-04</totfact>
</mgrwt>
</event>
<event>
 4    1  0.2731969E-009  0.1049326E+04  0.7818608E-02  0.9256040E-01
          1   -1    0    0  501    0  0.00000000000E+00  0.00000000000E+00  0.13040119350E+04  0.13040119350E+04  0.50400000000E-02 0. -1.
         -1   -1    0    0    0  501 -0.00000000000E+00 -0.00000000000E+00 -0.11041225595E+04  0.11041225595E+04  0.50400000000E-02 0.  1.
    8880022    1    1    2    0    0 -0.79905360503E+02 -0.10350405316E+04  0.68394248283E+03  0.12525425109E+04  0.15294330000E+03 0.  0.
    8880022    1    1    2    0    0  0.79905360503E+02  0.10350405316E+04 -0.48405310736E+03  0.11555919836E+04  0.15294330000E+03 0.  0.
<mgrwt>
<rscale>  0 0.10493262E+04</rscale>
<asrwt>0</asrwt>
<pdfrwt beam="1">  1        1 0.20061722E+00 0.10493262E+04</pdfrwt>
<pdfrwt beam="2">  1       -1 0.16986501E+00 0.10493262E+04</pdfrwt>
<totfact> 0.22116506E+00</totfact>
</mgrwt>
</event>
<event>
 4    1  0.2731969E-009  0.6150882E+03  0.7818608E-02  0.9874588E-01
          1   -1    0    0  501    0  0.00000000000E+00  0.00000000000E+00  0.19336530046E+03  0.19336530053E+03  0.50400000000E-02 0. -1.
         -1   -1    0    0    0  501 -0.00000000000E+00 -0.00000000000E+00 -0.27268492371E+04  0.27268492371E+04  0.50400000000E-02 0.  1.
    8880022    1    1    2    0    0 -0.18145116543E+03 -0.56746574653E+03 -0.49071445287E+03  0.78685082843E+03  0.15294330000E+03 0.  0.
    8880022    1    1    2    0    0  0.18145116543E+03  0.56746574653E+03 -0.20427694838E+04  0.21333637092E+04  0.15294330000E+03 0.  1.
<mgrwt>
<rscale>  0 0.61508825E+03</rscale>
<asrwt>0</asrwt>
<pdfrwt beam="1">  1        1 0.29748510E-01 0.61508825E+03</pdfrwt>
<pdfrwt beam="2">  1       -1 0.41951524E+00 0.61508825E+03</pdfrwt>
<totfact> 0.89477850E-01</totfact>
</mgrwt>
</event>
<event>
 4    1  0.2731969E-009  0.1193668E+04  0.7818608E-02  0.9118417E-01
         -1   -1    0    0    0  501 -0.00000000000E+00  0.00000000000E+00  0.12639633693E+04  0.12639633693E+04  0.50400000000E-02 0.  1.
          1   -1    0    0  501    0  0.00000000000E+00 -0.00000000000E+00 -0.14716082092E+04  0.14716082092E+04  0.50400000000E-02 0. -1.
    8880022    1    1    2    0    0 -0.43397225765E+03  0.11014170116E+04  0.55779525830E+03  0.13175653900E+04  0.15294330000E+03 0.  0.
    8880022    1    1    2    0    0  0.43397225765E+03 -0.11014170116E+04 -0.76544009824E+03  0.14180061885E+04  0.15294330000E+03 0.  0.
<mgrwt>
<rscale>  0 0.11936679E+04</rscale>
<asrwt>0</asrwt>
<pdfrwt beam="1">  1        1 0.22640126E+00 0.11936679E+04</pdfrwt>
<pdfrwt beam="2">  1       -1 0.19445590E+00 0.11936679E+04</pdfrwt>
<totfact> 0.11039737E+00</totfact>
</mgrwt>
</event>
<event>
 4    1  0.2731969E-009  0.6957893E+03  0.7818608E-02  0.9724460E-01
         -1   -1    0    0    0  501 -0.00000000000E+00  0.00000000000E+00  0.10753548595E+04  0.10753548596E+04  0.50400000000E-02 0.  1.
          1   -1    0    0  501    0  0.00000000000E+00 -0.00000000000E+00 -0.15001790748E+04  0.15001790748E+04  0.50400000000E-02 0. -1.
    8880022    1    1    2    0    0 -0.54598183608E+03 -0.40328016055E+03  0.86493697344E+03  0.11100624641E+04  0.15294330000E+03 0.  0.
    8880022    1    1    2    0    0  0.54598183608E+03  0.40328016055E+03 -0.12897611887E+04  0.14654714702E+04  0.15294330000E+03 0. -1.
<mgrwt>
<rscale>  0 0.69578927E+03</rscale>
<asrwt>0</asrwt>
<pdfrwt beam="1">  1        1 0.23079678E+00 0.69578927E+03</pdfrwt>
<pdfrwt beam="2">  1       -1 0.16543921E+00 0.69578927E+03</pdfrwt>
<totfact> 0.18426365E+00</totfact>
</mgrwt>
</event>
<event>
 4    1  0.2731969E-009  0.1475112E+04  0.7818608E-02  0.8901174E-01
          1   -1    0    0  501    0  0.00000000000E+00  0.00000000000E+00  0.14104108887E+04  0.14104108887E+04  0.50400000000E-02 0. -1.
         -1   -1    0    0    0  501 -0.00000000000E+00 -0.00000000000E+00 -0.20979316315E+04  0.20979316315E+04  0.50400000000E-02 0.  1.
    8880022    1    1    2    0    0 -0.14666082837E+04 -0.40290038523E+02 -0.12461245249E+04  0.19310052122E+04  0.15294330000E+03 0.  0.
    8880022    1    1    2    0    0  0.14666082837E+04  0.40290038523E+02  0.55860378211E+03  0.15773373081E+04  0.15294330000E+03 0.  0.
<mgrwt>
<rscale>  0 0.14751118E+04</rscale>
<asrwt>0</asrwt>
<pdfrwt beam="1">  1        1 0.21698629E+00 0.14751118E+04</pdfrwt>
<pdfrwt beam="2">  1       -1 0.32275871E+00 0.14751118E+04</pdfrwt>
<totfact> 0.16844940E-01</totfact>
</mgrwt>
</event>
<event>
 4    1  0.2731969E-009  0.3889082E+03  0.7818608E-02  0.1047689E+00
         -1   -1    0    0    0  501 -0.00000000000E+00  0.00000000000E+00  0.13753911078E+03  0.13753911087E+03  0.50400000000E-02 0.  1.
          1   -1    0    0  501    0  0.00000000000E+00 -0.00000000000E+00 -0.31702807102E+04  0.31702807102E+04  0.50400000000E-02 0. -1.
    8880022    1    1    2    0    0 -0.55828435704E+02 -0.35318711613E+03 -0.17974230691E+03  0.42843541303E+03  0.15294330000E+03 0.  0.
    8880022    1    1    2    0    0  0.55828435704E+02  0.35318711613E+03 -0.28529992925E+04  0.28793844080E+04  0.15294330000E+03 0.  0.
<mgrwt>
<rscale>  0 0.38890822E+03</rscale>
<asrwt>0</asrwt>
<pdfrwt beam="1">  1        1 0.48773544E+00 0.38890822E+03</pdfrwt>
<pdfrwt beam="2">  1       -1 0.21159866E-01 0.38890822E+03</pdfrwt>
<totfact> 0.96747280E+00</totfact>
</mgrwt>
</event>
<event>
 4    1  0.2731969E-009  0.7121879E+03  0.7818608E-02  0.9696613E-01
          1   -1    0    0  501    0  0.00000000000E+00  0.00000000000E+00  0.48222356806E+04  0.48222356806E+04  0.50400000000E-02 0. -1.
         -1   -1    0    0    0  501 -0.00000000000E+00 -0.00000000000E+00 -0.49263707356E+03  0.49263707359E+03  0.50400000000E-02 0.  1.
    8880022    1    1    2    0    0  0.81496154663E+02  0.69078097040E+03 -0.19193213439E+03  0.73759715937E+03  0.15294330000E+03 0.  0.
    8880022    1    1    2    0    0 -0.81496154663E+02 -0.69078097040E+03  0.45215307414E+04  0.45772755948E+04  0.15294330000E+03 0.  0.
<mgrwt>
<rscale>  0 0.71218791E+03</rscale>
<asrwt>0</asrwt>
<pdfrwt beam="1">  1        1 0.74188238E+00 0.71218791E+03</pdfrwt>
<pdfrwt beam="2">  1       -1 0.75790323E-01 0.71218791E+03</pdfrwt>
<totfact> 0.29503912E-02</totfact>
</mgrwt>
</event>
<event>
 4    1  0.2731969E-009  0.1012249E+04  0.7818608E-02  0.9295212E-01
          1   -1    0    0  501    0  0.00000000000E+00  0.00000000000E+00  0.33803664630E+04  0.33803664630E+04  0.50400000000E-02 0. -1.
         -1   -1    0    0    0  501 -0.00000000000E+00 -0.00000000000E+00 -0.61183421611E+03  0.61183421613E+03  0.50400000000E-02 0.  1.
    8880022    1    1    2    0    0 -0.84786531074E+03 -0.53139469753E+03  0.28021664425E+04  0.29793932829E+04  0.15294330000E+03 0.  0.
    8880022    1    1    2    0    0  0.84786531074E+03  0.53139469753E+03 -0.33634195602E+02  0.10128073962E+04  0.15294330000E+03 0.  0.
<mgrwt>
<rscale>  0 0.10122488E+04</rscale>
<asrwt>0</asrwt>
<pdfrwt beam="1">  1        1 0.52005637E+00 0.10122488E+04</pdfrwt>
<pdfrwt beam="2">  1       -1 0.94128342E-01 0.10122488E+04</pdfrwt>
<totfact> 0.35034574E-01</totfact>
</mgrwt>
</event>
<event>
 4    1  0.2731969E-009  0.8040258E+03  0.7818608E-02  0.9554208E-01
         -1   -1    0    0    0  501 -0.00000000000E+00  0.00000000000E+00  0.10938958444E+04  0.10938958444E+04  0.50400000000E-02 0.  1.
          1   -1    0    0  501    0  0.00000000000E+00 -0.00000000000E+00 -0.22255375373E+04  0.22255375373E+04  0.50400000000E-02 0. -1.
    8880022    1    1    2    0    0  0.33315456811E+03 -0.71559340921E+03 -0.19882091980E+04  0.21446289566E+04  0.15294330000E+03 0.  0.
    8880022    1    1    2    0    0 -0.33315456811E+03  0.71559340921E+03  0.85656750504E+03  0.11748044251E+04  0.15294330000E+03 0.  0.
<mgrwt>
<rscale>  0 0.80402584E+03</rscale>
<asrwt>0</asrwt>
<pdfrwt beam="1">  1        1 0.34239039E+00 0.80402584E+03</pdfrwt>
<pdfrwt beam="2">  1       -1 0.16829167E+00 0.80402584E+03</pdfrwt>
<totfact> 0.55844244E-01</totfact>
</mgrwt>
</event>
<event>
 4    1  0.2731969E-009  0.9909415E+03  0.7818608E-02  0.9318536E-01
          1   -1    0    0  501    0  0.00000000000E+00  0.00000000000E+00  0.16364229601E+04  0.16364229601E+04  0.50400000000E-02 0. -1.
         -1   -1    0    0    0  501 -0.00000000000E+00 -0.00000000000E+00 -0.96238044652E+03  0.96238044654E+03  0.50400000000E-02 0.  1.
    8880022    1    1    2    0    0 -0.78773818183E+03 -0.58141368147E+03 -0.46026025881E+03  0.10926135964E+04  0.15294330000E+03 0.  0.
    8880022    1    1    2    0    0  0.78773818183E+03  0.58141368147E+03  0.11343027724E+04  0.15061898103E+04  0.15294330000E+03 0.  0.
<mgrwt>
<rscale>  0 0.99094145E+03</rscale>
<asrwt>0</asrwt>
<pdfrwt beam="1">  1        1 0.25175738E+00 0.99094145E+03</pdfrwt>
<pdfrwt beam="2">  1       -1 0.14805853E+00 0.99094145E+03</pdfrwt>
<totfact> 0.19190406E+00</totfact>
</mgrwt>
</event>
<event>
 4    1  0.2731969E-009  0.1423815E+04  0.7818608E-02  0.8936758E-01
         -1   -1    0    0    0  501 -0.00000000000E+00  0.00000000000E+00  0.10762052369E+04  0.10762052369E+04  0.50400000000E-02 0.  1.
          1   -1    0    0  501    0  0.00000000000E+00 -0.00000000000E+00 -0.21582283903E+04  0.21582283903E+04  0.50400000000E-02 0. -1.
    8880022    1    1    2    0    0  0.11353706792E+04  0.84545296634E+03  0.35771271000E+02  0.14242642081E+04  0.15294330000E+03 0.  0.
    8880022    1    1    2    0    0 -0.11353706792E+04 -0.84545296634E+03 -0.11177944244E+04  0.18101694191E+04  0.15294330000E+03 0.  0.
<mgrwt>
<rscale>  0 0.14238149E+04</rscale>
<asrwt>0</asrwt>
<pdfrwt beam="1">  1        1 0.33203514E+00 0.14238149E+04</pdfrwt>
<pdfrwt beam="2">  1       -1 0.16557004E+00 0.14238149E+04</pdfrwt>
<totfact> 0.59023595E-01</totfact>
</mgrwt>
</event>
<event>
 4    1  0.2731969E-009  0.4126570E+03  0.7818608E-02  0.1039483E+00
         -1   -1    0    0    0  501 -0.00000000000E+00  0.00000000000E+00  0.92794525543E+03  0.92794525544E+03  0.50400000000E-02 0.  1.
          1   -1    0    0  501    0  0.00000000000E+00 -0.00000000000E+00 -0.12189452314E+04  0.12189452314E+04  0.50400000000E-02 0. -1.
    8880022    1    1    2    0    0  0.31370290873E+03  0.22019228082E+03 -0.11348491510E+04  0.12075464397E+04  0.15294330000E+03 0. -1.
    8880022    1    1    2    0    0 -0.31370290873E+03 -0.22019228082E+03  0.84384917509E+03  0.93934404709E+03  0.15294330000E+03 0.  0.
<mgrwt>
<rscale>  0 0.41265701E+03</rscale>
<asrwt>0</asrwt>
<pdfrwt beam="1">  1        1 0.18753004E+00 0.41265701E+03</pdfrwt>
<pdfrwt beam="2">  1       -1 0.14276081E+00 0.41265701E+03</pdfrwt>
<totfact> 0.46173272E+00</totfact>
</mgrwt>
</event>
<event>
 4    1  0.2731969E-009  0.1466804E+04  0.7818608E-02  0.8906833E-01
         -1   -1    0    0    0  501 -0.00000000000E+00  0.00000000000E+00  0.91115887173E+03  0.91115887174E+03  0.50400000000E-02 0.  1.
          1   -1    0    0  501    0  0.00000000000E+00 -0.00000000000E+00 -0.25811055339E+04  0.25811055339E+04  0.50400000000E-02 0. -1.
    8880022    1    1    2    0    0  0.11742823485E+04 -0.86555370086E+03 -0.32540835877E+03  0.15024661381E+04  0.15294330000E+03 0.  0.
    8880022    1    1    2    0    0 -0.11742823485E+04  0.86555370086E+03 -0.13445383034E+04  0.19897982675E+04  0.15294330000E+03 0.  0.
<mgrwt>
<rscale>  0 0.14668040E+04</rscale>
<asrwt>0</asrwt>
<pdfrwt beam="1">  1        1 0.39709316E+00 0.14668040E+04</pdfrwt>
<pdfrwt beam="2">  1       -1 0.14017829E+00 0.14668040E+04</pdfrwt>
<totfact> 0.47453807E-01</totfact>
</mgrwt>
</event>
<event>
 4    1  0.2731969E-009  0.4950952E+03  0.7818608E-02  0.1015067E+00
          1   -1    0    0  501    0  0.00000000000E+00  0.00000000000E+00  0.57469578705E+03  0.57469578707E+03  0.50400000000E-02 0. -1.
         -1   -1    0    0    0  501 -0.00000000000E+00 -0.00000000000E+00 -0.10848298521E+04  0.10848298521E+04  0.50400000000E-02 0.  1.
    8880022    1    1    2    0    0  0.13453528306E+03  0.45125147735E+03 -0.90144762623E+03  0.10284586108E+04  0.15294330000E+03 0.  0.
    8880022    1    1    2    0    0 -0.13453528306E+03 -0.45125147735E+03  0.39131356117E+03  0.63106702843E+03  0.15294330000E+03 0.  0.
<mgrwt>
<rscale>  0 0.49509523E+03</rscale>
<asrwt>0</asrwt>
<pdfrwt beam="1">  1        1 0.88414737E-01 0.49509523E+03</pdfrwt>
<pdfrwt beam="2">  1       -1 0.16689690E+00 0.49509523E+03</pdfrwt>
<totfact> 0.10141256E+01</totfact>
</mgrwt>
</event>
<event>
 4    1  0.2731969E-009  0.4638274E+03  0.7818608E-02  0.1023677E+00
         -1   -1    0    0    0  501 -0.00000000000E+00  0.00000000000E+00  0.35830163910E+03  0.35830163913E+03  0.50400000000E-02 0.  1.
          1   -1    0    0  501    0  0.00000000000E+00 -0.00000000000E+00 -0.20714117949E+04  0.20714117949E+04  0.50400000000E-02 0. -1.
    8880022    1    1    2    0    0  0.35808332328E+03  0.25203284339E+03  0.16719782863E+03  0.49304258181E+03  0.15294330000E+03 0.  0.
    8880022    1    1    2    0    0 -0.35808332328E+03 -0.25203284339E+03 -0.18803079844E+04  0.19366708522E+04  0.15294330000E+03 0.  0.
<mgrwt>
<rscale>  0 0.46382742E+03</rscale>
<asrwt>0</asrwt>
<pdfrwt beam="1">  1        1 0.31867873E+00 0.46382742E+03</pdfrwt>
<pdfrwt beam="2">  1       -1 0.55123331E-01 0.46382742E+03</pdfrwt>
<totfact> 0.98473385E+00</totfact>
</mgrwt>
</event>
<event>
 4    1  0.2731969E-009  0.9424029E+03  0.7818608E-02  0.9374075E-01
         -1   -1    0    0    0  501 -0.00000000000E+00  0.00000000000E+00  0.26806557648E+03  0.26806557652E+03  0.50400000000E-02 0.  1.
          1   -1    0    0  501    0  0.00000000000E+00 -0.00000000000E+00 -0.39098445743E+04  0.39098445743E+04  0.50400000000E-02 0. -1.
    8880022    1    1    2    0    0  0.77514858396E+03 -0.51368891519E+03 -0.26370020954E+04  0.28003398602E+04  0.15294330000E+03 0.  0.
    8880022    1    1    2    0    0 -0.77514858396E+03  0.51368891519E+03 -0.10047769024E+04  0.13775702906E+04  0.15294330000E+03 0.  0.
<mgrwt>
<rscale>  0 0.94240293E+03</rscale>
<asrwt>0</asrwt>
<pdfrwt beam="1">  1        1 0.60151451E+00 0.94240293E+03</pdfrwt>
<pdfrwt beam="2">  1       -1 0.41240861E-01 0.94240293E+03</pdfrwt>
<totfact> 0.70276039E-01</totfact>
</mgrwt>
</event>
<event>
 4    1  0.2731969E-009  0.2254569E+04  0.7818608E-02  0.8496052E-01
         -1   -1    0    0    0  501 -0.00000000000E+00  0.00000000000E+00  0.18435663345E+04  0.18435663346E+04  0.50400000000E-02 0.  1.
          1   -1    0    0  501    0  0.00000000000E+00 -0.00000000000E+00 -0.35875780212E+04  0.35875780212E+04  0.50400000000E-02 0. -1.
    8880022    1    1    2    0    0  0.16781883830E+04  0.14977898128E+04 -0.21784728181E+04  0.31350958589E+04  0.15294330000E+03 0.  0.
    8880022    1    1    2    0    0 -0.16781883830E+04 -0.14977898128E+04  0.43446113144E+03  0.22960484969E+04  0.15294330000E+03 0.  0.
<mgrwt>
<rscale>  0 0.22545692E+04</rscale>
<asrwt>0</asrwt>
<pdfrwt beam="1">  1        1 0.55193508E+00 0.22545692E+04</pdfrwt>
<pdfrwt beam="2">  1       -1 0.28362559E+00 0.22545692E+04</pdfrwt>
<totfact> 0.77304194E-03</totfact>
</mgrwt>
</event>
<event>
 4    1  0.2731969E-009  0.1080600E+04  0.7818608E-02  0.9224310E-01
         -1   -1    0    0    0  501 -0.00000000000E+00  0.00000000000E+00  0.19978906740E+04  0.19978906740E+04  0.50400000000E-02 0.  1.
          1   -1    0    0  501    0  0.00000000000E+00 -0.00000000000E+00 -0.14494674723E+04  0.14494674723E+04  0.50400000000E-02 0. -1.
    8880022    1    1    2    0    0  0.38774875250E+03  0.99697303609E+03  0.16057723843E+04  0.19355105096E+04  0.15294330000E+03 0.  0.
    8880022    1    1    2    0    0 -0.38774875250E+03 -0.99697303609E+03 -0.10573491826E+04  0.15118476367E+04  0.15294330000E+03 0.  0.
<mgrwt>
<rscale>  0 0.10805998E+04</rscale>
<asrwt>0</asrwt>
<pdfrwt beam="1">  1        1 0.22299500E+00 0.10805998E+04</pdfrwt>
<pdfrwt beam="2">  1       -1 0.30736779E+00 0.10805998E+04</pdfrwt>
<totfact> 0.21052913E-01</totfact>
</mgrwt>
</event>
<event>
 4    1  0.2731969E-009  0.3196243E+03  0.7818608E-02  0.1075822E+00
         -1   -1    0    0    0  501 -0.00000000000E+00  0.00000000000E+00  0.10210109821E+04  0.10210109821E+04  0.50400000000E-02 0.  1.
          1   -1    0    0  501    0  0.00000000000E+00 -0.00000000000E+00 -0.17167705409E+04  0.17167705409E+04  0.50400000000E-02 0. -1.
    8880022    1    1    2    0    0 -0.23434384954E+03  0.15443768969E+03  0.98052109251E+03  0.10313007833E+04  0.15294330000E+03 0.  0.
    8880022    1    1    2    0    0  0.23434384954E+03 -0.15443768969E+03 -0.16762806513E+04  0.17064807397E+04  0.15294330000E+03 0.  0.
<mgrwt>
<rscale>  0 0.31962430E+03</rscale>
<asrwt>0</asrwt>
<pdfrwt beam="1">  1        1 0.26411855E+00 0.31962430E+03</pdfrwt>
<pdfrwt beam="2">  1       -1 0.15707861E+00 0.31962430E+03</pdfrwt>
<totfact> 0.17146599E+00</totfact>
</mgrwt>
</event>
<event>
 4    1  0.2731969E-009  0.3766382E+03  0.7818608E-02  0.1052183E+00
         -1   -1    0    0    0  501 -0.00000000000E+00  0.00000000000E+00  0.56526277547E+02  0.56526277772E+02  0.50400000000E-02 0.  1.
          1   -1    0    0  501    0  0.00000000000E+00 -0.00000000000E+00 -0.25135991847E+04  0.25135991847E+04  0.50400000000E-02 0. -1.
    8880022    1    1    2    0    0 -0.27537959875E+02 -0.34308354612E+03 -0.11770482604E+04  0.12358393582E+04  0.15294330000E+03 0.  1.
    8880022    1    1    2    0    0  0.27537959875E+02  0.34308354612E+03 -0.12800246467E+04  0.13342861042E+04  0.15294330000E+03 0. -1.
<mgrwt>
<rscale>  0 0.37663817E+03</rscale>
<asrwt>0</asrwt>
<pdfrwt beam="1">  1        1 0.38670748E+00 0.37663817E+03</pdfrwt>
<pdfrwt beam="2">  1       -1 0.86963524E-02 0.37663817E+03</pdfrwt>
<totfact> 0.11475456E+02</totfact>
</mgrwt>
</event>
<event>
 4    1  0.2731969E-009  0.2840974E+03  0.7818608E-02  0.1093472E+00
          1   -1    0    0  501    0  0.00000000000E+00  0.00000000000E+00  0.30853836647E+04  0.30853836647E+04  0.50400000000E-02 0. -1.
         -1   -1    0    0    0  501 -0.00000000000E+00 -0.00000000000E+00 -0.43972042784E+03  0.43972042787E+03  0.50400000000E-02 0.  1.
    8880022    1    1    2    0    0 -0.13451021501E+03  0.19805731166E+03 -0.38648890191E+03  0.47967178462E+03  0.15294330000E+03 0.  1.
    8880022    1    1    2    0    0  0.13451021501E+03 -0.19805731166E+03  0.30321521388E+04  0.30454323079E+04  0.15294330000E+03 0.  0.
<mgrwt>
<rscale>  0 0.28409743E+03</rscale>
<asrwt>0</asrwt>
<pdfrwt beam="1">  1        1 0.47467441E+00 0.28409743E+03</pdfrwt>
<pdfrwt beam="2">  1       -1 0.67649297E-01 0.28409743E+03</pdfrwt>
<totfact> 0.14599813E+00</totfact>
</mgrwt>
</event>
<event>
 4    1  0.2731969E-009  0.8046137E+03  0.7818608E-02  0.9553363E-01
          1   -1    0    0  501    0  0.00000000000E+00  0.00000000000E+00  0.45009034827E+04  0.45009034827E+04  0.50400000000E-02 0. -1.
         -1   -1    0    0    0  501 -0.00000000000E+00 -0.00000000000E+00 -0.67044998536E+03  0.67044998538E+03  0.50400000000E-02 0.  1.
    8880022    1    1    2    0    0  0.27579738296E+03 -0.74023471090E+03 -0.37635941696E+03  0.88828468827E+03  0.15294330000E+03 0.  0.
    8880022    1    1    2    0    0 -0.27579738296E+03  0.74023471090E+03  0.42068129143E+04  0.42830687798E+04  0.15294330000E+03 0.  0.
<mgrwt>
<rscale>  0 0.80461374E+03</rscale>
<asrwt>0</asrwt>
<pdfrwt beam="1">  1        1 0.69244667E+00 0.80461374E+03</pdfrwt>
<pdfrwt beam="2">  1       -1 0.10314615E+00 0.80461374E+03</pdfrwt>
<totfact> 0.32224581E-02</totfact>
</mgrwt>
</event>
<event>
 4    1  0.2731969E-009  0.7389409E+03  0.7818608E-02  0.9652862E-01
         -1   -1    0    0    0  501 -0.00000000000E+00  0.00000000000E+00  0.14152688940E+04  0.14152688940E+04  0.50400000000E-02 0.  1.
          1   -1    0    0  501    0  0.00000000000E+00 -0.00000000000E+00 -0.60020297033E+03  0.60020297035E+03  0.50400000000E-02 0. -1.
    8880022    1    1    2    0    0 -0.67392075631E+03 -0.26167298403E+03  0.10098105745E+04  0.12512997186E+04  0.15294330000E+03 0.  0.
    8880022    1    1    2    0    0  0.67392075631E+03  0.26167298403E+03 -0.19474465082E+03  0.76417214578E+03  0.15294330000E+03 0.  0.
<mgrwt>
<rscale>  0 0.73894086E+03</rscale>
<asrwt>0</asrwt>
<pdfrwt beam="1">  1        1 0.92338920E-01 0.73894086E+03</pdfrwt>
<pdfrwt beam="2">  1       -1 0.21773367E+00 0.73894086E+03</pdfrwt>
<totfact> 0.40588195E+00</totfact>
</mgrwt>
</event>
<event>
 4    1  0.2731969E-009  0.6175725E+03  0.7818608E-02  0.9869605E-01
         -1   -1    0    0    0  501 -0.00000000000E+00  0.00000000000E+00  0.45124163176E+03  0.45124163178E+03  0.50400000000E-02 0.  1.
          1   -1    0    0  501    0  0.00000000000E+00 -0.00000000000E+00 -0.16752489190E+04  0.16752489190E+04  0.50400000000E-02 0. -1.
    8880022    1    1    2    0    0  0.26167448541E+03 -0.53808050086E+03 -0.13604176891E+04  0.14940321628E+04  0.15294330000E+03 0.  0.
    8880022    1    1    2    0    0 -0.26167448541E+03  0.53808050086E+03  0.13641040189E+03  0.63245838794E+03  0.15294330000E+03 0.  0.
<mgrwt>
<rscale>  0 0.61757252E+03</rscale>
<asrwt>0</asrwt>
<pdfrwt beam="1">  1        1 0.25773060E+00 0.61757252E+03</pdfrwt>
<pdfrwt beam="2">  1       -1 0.69421791E-01 0.61757252E+03</pdfrwt>
<totfact> 0.11062160E+01</totfact>
</mgrwt>
</event>
<event>
 4    1  0.2731969E-009  0.1027126E+04  0.7818608E-02  0.9279284E-01
         -1   -1    0    0    0  501 -0.00000000000E+00  0.00000000000E+00  0.21775036433E+04  0.21775036433E+04  0.50400000000E-02 0.  1.
          1   -1    0    0  501    0  0.00000000000E+00 -0.00000000000E+00 -0.53537277578E+03  0.53537277581E+03  0.50400000000E-02 0. -1.
    8880022    1    1    2    0    0  0.85438545620E+03 -0.54920097374E+03  0.40290842887E+03  0.11033236481E+04  0.15294330000E+03 0.  0.
    8880022    1    1    2    0    0 -0.85438545620E+03  0.54920097374E+03  0.12392224386E+04  0.16095527710E+04  0.15294330000E+03 0.  0.
<mgrwt>
<rscale>  0 0.10271260E+04</rscale>
<asrwt>0</asrwt>
<pdfrwt beam="1">  1        1 0.82365044E-01 0.10271260E+04</pdfrwt>
<pdfrwt beam="2">  1       -1 0.33500055E+00 0.10271260E+04</pdfrwt>
<totfact> 0.79825509E-01</totfact>
</mgrwt>
</event>
<event>
 4    1  0.2731969E-009  0.9333813E+03  0.7818608E-02  0.9384789E-01
         -1   -1    0    0    0  501 -0.00000000000E+00  0.00000000000E+00  0.76147265083E+03  0.76147265085E+03  0.50400000000E-02 0.  1.
          1   -1    0    0  501    0  0.00000000000E+00 -0.00000000000E+00 -0.29484113769E+04  0.29484113770E+04  0.50400000000E-02 0. -1.
    8880022    1    1    2    0    0 -0.93278457504E+02  0.91602842358E+03  0.35761306892E+03  0.99954374767E+03  0.15294330000E+03 0.  0.
    8880022    1    1    2    0    0  0.93278457504E+02 -0.91602842358E+03 -0.25445517950E+04  0.27103402801E+04  0.15294330000E+03 0.  0.
<mgrwt>
<rscale>  0 0.93338127E+03</rscale>
<asrwt>0</asrwt>
<pdfrwt beam="1">  1        1 0.45360175E+00 0.93338127E+03</pdfrwt>
<pdfrwt beam="2">  1       -1 0.11714964E+00 0.93338127E+03</pdfrwt>
<totfact> 0.44473997E-01</totfact>
</mgrwt>
</event>
<event>
 4    1  0.2731969E-009  0.7848639E+03  0.7818608E-02  0.9582188E-01
         -1   -1    0    0    0  501 -0.00000000000E+00  0.00000000000E+00  0.98744691389E+03  0.98744691390E+03  0.50400000000E-02 0.  1.
          1   -1    0    0  501    0  0.00000000000E+00 -0.00000000000E+00 -0.16915712006E+04  0.16915712006E+04  0.50400000000E-02 0. -1.
    8880022    1    1    2    0    0  0.44662333012E+03 -0.62701458884E+03 -0.14162810557E+04  0.16192169019E+04  0.15294330000E+03 0.  0.
    8880022    1    1    2    0    0 -0.44662333012E+03  0.62701458884E+03  0.71215676899E+03  0.10598012126E+04  0.15294330000E+03 0.  0.
<mgrwt>
<rscale>  0 0.78486390E+03</rscale>
<asrwt>0</asrwt>
<pdfrwt beam="1">  1        1 0.26024172E+00 0.78486390E+03</pdfrwt>
<pdfrwt beam="2">  1       -1 0.15191491E+00 0.78486390E+03</pdfrwt>
<totfact> 0.16993021E+00</totfact>
</mgrwt>
</event>
<event>
 4    1  0.2731969E-009  0.6623435E+03  0.7818608E-02  0.9783889E-01
          1   -1    0    0  501    0  0.00000000000E+00  0.00000000000E+00  0.13806325089E+04  0.13806325089E+04  0.50400000000E-02 0. -1.
         -1   -1    0    0    0  501 -0.00000000000E+00 -0.00000000000E+00 -0.73837166064E+03  0.73837166066E+03  0.50400000000E-02 0.  1.
    8880022    1    1    2    0    0  0.31886150167E+03  0.56003086442E+03 -0.47853632553E+03  0.81712660844E+03  0.15294330000E+03 0.  0.
    8880022    1    1    2    0    0 -0.31886150167E+03 -0.56003086442E+03  0.11207971738E+04  0.13018775611E+04  0.15294330000E+03 0.  0.
<mgrwt>
<rscale>  0 0.66234348E+03</rscale>
<asrwt>0</asrwt>
<pdfrwt beam="1">  1        1 0.21240500E+00 0.66234348E+03</pdfrwt>
<pdfrwt beam="2">  1       -1 0.11359564E+00 0.66234348E+03</pdfrwt>
<totfact> 0.59143194E+00</totfact>
</mgrwt>
</event>
<event>
 4    1  0.2731969E-009  0.6493665E+03  0.7818608E-02  0.9807969E-01
          1   -1    0    0  501    0  0.00000000000E+00  0.00000000000E+00  0.40895572869E+03  0.40895572872E+03  0.50400000000E-02 0. -1.
         -1   -1    0    0    0  501 -0.00000000000E+00 -0.00000000000E+00 -0.11617973954E+04  0.11617973954E+04  0.50400000000E-02 0.  1.
    8880022    1    1    2    0    0 -0.42126336887E+02 -0.62969084792E+03 -0.63983290109E+03  0.91162656090E+03  0.15294330000E+03 0. -1.
    8880022    1    1    2    0    0  0.42126336887E+02  0.62969084792E+03 -0.11300876562E+03  0.65912656322E+03  0.15294330000E+03 0.  0.
<mgrwt>
<rscale>  0 0.64936650E+03</rscale>
<asrwt>0</asrwt>
<pdfrwt beam="1">  1        1 0.62916267E-01 0.64936650E+03</pdfrwt>
<pdfrwt beam="2">  1       -1 0.17873806E+00 0.64936650E+03</pdfrwt>
<totfact> 0.12899425E+01</totfact>
</mgrwt>
</event>
<event>
 4    1  0.2731969E-009  0.1576995E+04  0.7818608E-02  0.8834807E-01
         -1   -1    0    0    0  501 -0.00000000000E+00  0.00000000000E+00  0.25190721987E+04  0.25190721987E+04  0.50400000000E-02 0.  1.
          1   -1    0    0  501    0  0.00000000000E+00 -0.00000000000E+00 -0.20623663520E+04  0.20623663520E+04  0.50400000000E-02 0. -1.
    8880022    1    1    2    0    0  0.15461381278E+04  0.27014670657E+03  0.18822935135E+04  0.24555942004E+04  0.15294330000E+03 0.  0.
    8880022    1    1    2    0    0 -0.15461381278E+04 -0.27014670657E+03 -0.14255876668E+04  0.21258443504E+04  0.15294330000E+03 0.  0.
<mgrwt>
<rscale>  0 0.15769952E+04</rscale>
<asrwt>0</asrwt>
<pdfrwt beam="1">  1        1 0.31728713E+00 0.15769952E+04</pdfrwt>
<pdfrwt beam="2">  1       -1 0.38754957E+00 0.15769952E+04</pdfrwt>
<totfact> 0.21960829E-02</totfact>
</mgrwt>
</event>
<event>
 4    1  0.2731969E-009  0.5725901E+03  0.7818608E-02  0.9963963E-01
         -1   -1    0    0    0  501 -0.00000000000E+00  0.00000000000E+00  0.26385365929E+03  0.26385365933E+03  0.50400000000E-02 0.  1.
          1   -1    0    0  501    0  0.00000000000E+00 -0.00000000000E+00 -0.31110620337E+04  0.31110620337E+04  0.50400000000E-02 0. -1.
    8880022    1    1    2    0    0 -0.40796690835E+01 -0.55177094042E+03 -0.11585945923E+03  0.58419421573E+03  0.15294330000E+03 0.  0.
    8880022    1    1    2    0    0  0.40796690835E+01  0.55177094042E+03 -0.27313489152E+04  0.27907214773E+04  0.15294330000E+03 0.  0.
<mgrwt>
<rscale>  0 0.57259014E+03</rscale>
<asrwt>0</asrwt>
<pdfrwt beam="1">  1        1 0.47862490E+00 0.57259014E+03</pdfrwt>
<pdfrwt beam="2">  1       -1 0.40592873E-01 0.57259014E+03</pdfrwt>
<totfact> 0.32818741E+00</totfact>
</mgrwt>
</event>
<event>
 4    1  0.2731969E-009  0.9899677E+03  0.7818608E-02  0.9319617E-01
          1   -1    0    0  501    0  0.00000000000E+00  0.00000000000E+00  0.18775587575E+04  0.18775587575E+04  0.50400000000E-02 0. -1.
         -1   -1    0    0    0  501 -0.00000000000E+00 -0.00000000000E+00 -0.75317547519E+03  0.75317547520E+03  0.50400000000E-02 0.  1.
    8880022    1    1    2    0    0 -0.96028022251E+03  0.18575859578E+03 -0.16658528861E+03  0.10038857869E+04  0.15294330000E+03 0.  0.
    8880022    1    1    2    0    0  0.96028022251E+03 -0.18575859578E+03  0.12909685709E+04  0.16268484458E+04  0.15294330000E+03 0.  0.
<mgrwt>
<rscale>  0 0.98996768E+03</rscale>
<asrwt>0</asrwt>
<pdfrwt beam="1">  1        1 0.28885520E+00 0.98996768E+03</pdfrwt>
<pdfrwt beam="2">  1       -1 0.11587315E+00 0.98996768E+03</pdfrwt>
<totfact> 0.24586729E+00</totfact>
</mgrwt>
</event>
<event>
 4    1  0.2731969E-009  0.8135897E+03  0.7818608E-02  0.9540552E-01
          1   -1    0    0  501    0  0.00000000000E+00  0.00000000000E+00  0.14893864096E+04  0.14893864096E+04  0.50400000000E-02 0. -1.
         -1   -1    0    0    0  501 -0.00000000000E+00 -0.00000000000E+00 -0.93503660278E+03  0.93503660280E+03  0.50400000000E-02 0.  1.
    8880022    1    1    2    0    0 -0.78201000771E+03  0.16430728873E+03 -0.60089832153E+03  0.10114380768E+04  0.15294330000E+03 0.  0.
    8880022    1    1    2    0    0  0.78201000771E+03 -0.16430728873E+03  0.11552481283E+04  0.14129849356E+04  0.15294330000E+03 0.  0.
<mgrwt>
<rscale>  0 0.81358969E+03</rscale>
<asrwt>0</asrwt>
<pdfrwt beam="1">  1        1 0.22913637E+00 0.81358969E+03</pdfrwt>
<pdfrwt beam="2">  1       -1 0.14385178E+00 0.81358969E+03</pdfrwt>
<totfact> 0.26839262E+00</totfact>
</mgrwt>
</event>
<event>
 4    1  0.2731969E-009  0.8334296E+03  0.7818608E-02  0.9512851E-01
          1   -1    0    0  501    0  0.00000000000E+00  0.00000000000E+00  0.27078031014E+04  0.27078031014E+04  0.50400000000E-02 0. -1.
         -1   -1    0    0    0  501 -0.00000000000E+00 -0.00000000000E+00 -0.11837622519E+04  0.11837622519E+04  0.50400000000E-02 0.  1.
    8880022    1    1    2    0    0  0.44070349556E+03 -0.69064728772E+03 -0.96008113685E+03  0.12713617461E+04  0.15294330000E+03 0.  0.
    8880022    1    1    2    0    0 -0.44070349556E+03  0.69064728772E+03  0.24841219864E+04  0.26202036072E+04  0.15294330000E+03 0.  0.
<mgrwt>
<rscale>  0 0.83342960E+03</rscale>
<asrwt>0</asrwt>
<pdfrwt beam="1">  1        1 0.41658509E+00 0.83342960E+03</pdfrwt>
<pdfrwt beam="2">  1       -1 0.18211727E+00 0.83342960E+03</pdfrwt>
<totfact> 0.20636655E-01</totfact>
</mgrwt>
</event>
<event>
 4    1  0.2731969E-009  0.8443320E+03  0.7818608E-02  0.9497976E-01
         -1   -1    0    0    0  501 -0.00000000000E+00  0.00000000000E+00  0.60559014339E+03  0.60559014341E+03  0.50400000000E-02 0.  1.
          1   -1    0    0  501    0  0.00000000000E+00 -0.00000000000E+00 -0.19991967801E+04  0.19991967801E+04  0.50400000000E-02 0. -1.
    8880022    1    1    2    0    0 -0.61253363959E+03 -0.56063132932E+03  0.13832130610E+03  0.85558715733E+03  0.15294330000E+03 0.  0.
    8880022    1    1    2    0    0  0.61253363959E+03  0.56063132932E+03 -0.15319279428E+04  0.17491997662E+04  0.15294330000E+03 0.  0.
<mgrwt>
<rscale>  0 0.84433204E+03</rscale>
<asrwt>0</asrwt>
<pdfrwt beam="1">  1        1 0.30756873E+00 0.84433204E+03</pdfrwt>
<pdfrwt beam="2">  1       -1 0.93167715E-01 0.84433204E+03</pdfrwt>
<totfact> 0.34533014E+00</totfact>
</mgrwt>
</event>
<event>
 4    1  0.2731969E-009  0.2327141E+03  0.7818608E-02  0.1124744E+00
          1   -1    0    0  501    0  0.00000000000E+00  0.00000000000E+00  0.21908195968E+04  0.21908195968E+04  0.50400000000E-02 0. -1.
         -1   -1    0    0    0  501 -0.00000000000E+00 -0.00000000000E+00 -0.36761615933E+03  0.36761615937E+03  0.50400000000E-02 0.  1.
    8880022    1    1    2    0    0 -0.10496279524E+03 -0.14052412327E+03 -0.32385881888E+03  0.39879870259E+03  0.15294330000E+03 0.  0.
    8880022    1    1    2    0    0  0.10496279524E+03  0.14052412327E+03  0.21470622563E+04  0.21596370536E+04  0.15294330000E+03 0.  0.
<mgrwt>
<rscale>  0 0.23271414E+03</rscale>
<asrwt>0</asrwt>
<pdfrwt beam="1">  1        1 0.33704917E+00 0.23271414E+03</pdfrwt>
<pdfrwt beam="2">  1       -1 0.56556331E-01 0.23271414E+03</pdfrwt>
<totfact> 0.85624400E+00</totfact>
</mgrwt>
</event>
<event>
 4    1  0.2731969E-009  0.5768234E+03  0.7818608E-02  0.9954692E-01
         -1   -1    0    0    0  501 -0.00000000000E+00  0.00000000000E+00  0.41476120736E+03  0.41476120739E+03  0.50400000000E-02 0.  1.
          1   -1    0    0  501    0  0.00000000000E+00 -0.00000000000E+00 -0.85438444969E+03  0.85438444970E+03  0.50400000000E-02 0. -1.
    8880022    1    1    2    0    0  0.36404872439E+03 -0.42047845766E+03 -0.37662641638E+03  0.68889238464E+03  0.15294330000E+03 0.  0.
    8880022    1    1    2    0    0 -0.36404872439E+03  0.42047845766E+03 -0.62996825947E+02  0.58025327245E+03  0.15294330000E+03 0.  0.
<mgrwt>
<rscale>  0 0.57682342E+03</rscale>
<asrwt>0</asrwt>
<pdfrwt beam="1">  1        1 0.13144376E+00 0.57682342E+03</pdfrwt>
<pdfrwt beam="2">  1       -1 0.63809416E-01 0.57682342E+03</pdfrwt>
<totfact> 0.51549642E+01</totfact>
</mgrwt>
</event>
<event>
 4    1  0.2731969E-009  0.1180550E+04  0.7818608E-02  0.9130053E-01
          1   -1    0    0  501    0  0.00000000000E+00  0.00000000000E+00  0.36237985062E+04  0.36237985062E+04  0.50400000000E-02 0. -1.
         -1   -1    0    0    0  501 -0.00000000000E+00 -0.00000000000E+00 -0.10455877400E+04  0.10455877400E+04  0.50400000000E-02 0.  1.
    8880022    1    1    2    0    0  0.10888981513E+04 -0.42966041994E+03  0.31454026854E+04  0.33596513163E+04  0.15294330000E+03 0.  0.
    8880022    1    1    2    0    0 -0.10888981513E+04  0.42966041994E+03 -0.56719191929E+03  0.13097349300E+04  0.15294330000E+03 0.  0.
<mgrwt>
<rscale>  0 0.11805503E+04</rscale>
<asrwt>0</asrwt>
<pdfrwt beam="1">  1        1 0.55750748E+00 0.11805503E+04</pdfrwt>
<pdfrwt beam="2">  1       -1 0.16085965E+00 0.11805503E+04</pdfrwt>
<totfact> 0.57663297E-02</totfact>
</mgrwt>
</event>
<event>
 4    1  0.2731969E-009  0.5075786E+03  0.7818608E-02  0.1011819E+00
         -1   -1    0    0    0  501 -0.00000000000E+00  0.00000000000E+00  0.29985104856E+03  0.29985104861E+03  0.50400000000E-02 0.  1.
          1   -1    0    0  501    0  0.00000000000E+00 -0.00000000000E+00 -0.11818722796E+04  0.11818722796E+04  0.50400000000E-02 0. -1.
    8880022    1    1    2    0    0  0.41701857550E+03 -0.24564185764E+03 -0.53910236936E+02  0.51043352280E+03  0.15294330000E+03 0.  0.
    8880022    1    1    2    0    0 -0.41701857550E+03  0.24564185764E+03 -0.82811099409E+03  0.97128980541E+03  0.15294330000E+03 0.  0.
<mgrwt>
<rscale>  0 0.50757863E+03</rscale>
<asrwt>0</asrwt>
<pdfrwt beam="1">  1        1 0.18182650E+00 0.50757863E+03</pdfrwt>
<pdfrwt beam="2">  1       -1 0.46130931E-01 0.50757863E+03</pdfrwt>
<totfact> 0.54383908E+01</totfact>
</mgrwt>
</event>
<event>
 4    1  0.2731969E-009  0.4961673E+03  0.7818608E-02  0.1014784E+00
          1   -1    0    0  501    0  0.00000000000E+00  0.00000000000E+00  0.17205274688E+04  0.17205274689E+04  0.50400000000E-02 0. -1.
         -1   -1    0    0    0  501 -0.00000000000E+00 -0.00000000000E+00 -0.14747590652E+03  0.14747590660E+03  0.50400000000E-02 0.  1.
    8880022    1    1    2    0    0  0.28776813170E+03 -0.37413879131E+03  0.94768502730E+03  0.10697143996E+04  0.15294330000E+03 0.  0.
    8880022    1    1    2    0    0 -0.28776813170E+03  0.37413879131E+03  0.62536653503E+03  0.79828897583E+03  0.15294330000E+03 0.  0.
<mgrwt>
<rscale>  0 0.49616730E+03</rscale>
<asrwt>0</asrwt>
<pdfrwt beam="1">  1        1 0.26469654E+00 0.49616730E+03</pdfrwt>
<pdfrwt beam="2">  1       -1 0.22688600E-01 0.49616730E+03</pdfrwt>
<totfact> 0.80827704E+01</totfact>
</mgrwt>
</event>
<event>
 4    1  0.2731969E-009  0.7193366E+03  0.7818608E-02  0.9684724E-01
          1   -1    0    0  501    0  0.00000000000E+00  0.00000000000E+00  0.18074825860E+04  0.18074825860E+04  0.50400000000E-02 0. -1.
         -1   -1    0    0    0  501 -0.00000000000E+00 -0.00000000000E+00 -0.46653464506E+03  0.46653464509E+03  0.50400000000E-02 0.  1.
    8880022    1    1    2    0    0 -0.53617833406E+03  0.45449560963E+03  0.13772237834E+04  0.15537665422E+04  0.15294330000E+03 0.  0.
    8880022    1    1    2    0    0  0.53617833406E+03 -0.45449560963E+03 -0.36275842461E+02  0.72025068889E+03  0.15294330000E+03 0.  0.
<mgrwt>
<rscale>  0 0.71933658E+03</rscale>
<asrwt>0</asrwt>
<pdfrwt beam="1">  1        1 0.27807424E+00 0.71933658E+03</pdfrwt>
<pdfrwt beam="2">  1       -1 0.71774562E-01 0.71933658E+03</pdfrwt>
<totfact> 0.82775909E+00</totfact>
</mgrwt>
</event>
<event>
 4    1  0.2731969E-009  0.9096028E+03  0.7818608E-02  0.9413656E-01
          1   -1    0    0  501    0  0.00000000000E+00  0.00000000000E+00  0.25948679852E+04  0.25948679852E+04  0.50400000000E-02 0. -1.
         -1   -1    0    0    0  501 -0.00000000000E+00 -0.00000000000E+00 -0.49001181907E+03  0.49001181910E+03  0.50400000000E-02 0.  1.
    8880022    1    1    2    0    0  0.83053042845E+03  0.33794191042E+03  0.14082308393E+03  0.92043920027E+03  0.15294330000E+03 0.  0.
    8880022    1    1    2    0    0 -0.83053042845E+03 -0.33794191042E+03  0.19640330822E+04  0.21644406041E+04  0.15294330000E+03 0.  0.
<mgrwt>
<rscale>  0 0.90960276E+03</rscale>
<asrwt>0</asrwt>
<pdfrwt beam="1">  1        1 0.39921044E+00 0.90960276E+03</pdfrwt>
<pdfrwt beam="2">  1       -1 0.75386436E-01 0.90960276E+03</pdfrwt>
<totfact> 0.21298343E+00</totfact>
</mgrwt>
</event>
<event>
 4    1  0.2731969E-009  0.3782128E+03  0.7818608E-02  0.1051596E+00
          1   -1    0    0  501    0  0.00000000000E+00  0.00000000000E+00  0.26111658896E+03  0.26111658901E+03  0.50400000000E-02 0. -1.
         -1   -1    0    0    0  501 -0.00000000000E+00 -0.00000000000E+00 -0.12360800284E+04  0.12360800284E+04  0.50400000000E-02 0.  1.
    8880022    1    1    2    0    0 -0.86586751646E+02  0.33489699981E+03  0.71119378902E+02  0.38484137656E+03  0.15294330000E+03 0.  0.
    8880022    1    1    2    0    0  0.86586751646E+02 -0.33489699981E+03 -0.10460828183E+04  0.11123552408E+04  0.15294330000E+03 0.  0.
<mgrwt>
<rscale>  0 0.37821280E+03</rscale>
<asrwt>0</asrwt>
<pdfrwt beam="1">  1        1 0.40171784E-01 0.37821280E+03</pdfrwt>
<pdfrwt beam="2">  1       -1 0.19016616E+00 0.37821280E+03</pdfrwt>
<totfact> 0.20033802E+01</totfact>
</mgrwt>
</event>
<event>
 4    1  0.2731969E-009  0.1004840E+04  0.7818608E-02  0.9303252E-01
         -1   -1    0    0    0  501 -0.00000000000E+00  0.00000000000E+00  0.12135085387E+04  0.12135085387E+04  0.50400000000E-02 0.  1.
          1   -1    0    0  501    0  0.00000000000E+00 -0.00000000000E+00 -0.22462833516E+04  0.22462833516E+04  0.50400000000E-02 0. -1.
    8880022    1    1    2    0    0  0.37062174162E+02 -0.99244097217E+03  0.85622421575E+03  0.13201606905E+04  0.15294330000E+03 0.  0.
    8880022    1    1    2    0    0 -0.37062174162E+02  0.99244097217E+03 -0.18889990287E+04  0.21396311998E+04  0.15294330000E+03 0.  0.
<mgrwt>
<rscale>  0 0.10048405E+04</rscale>
<asrwt>0</asrwt>
<pdfrwt beam="1">  1        1 0.34558205E+00 0.10048405E+04</pdfrwt>
<pdfrwt beam="2">  1       -1 0.18669362E+00 0.10048405E+04</pdfrwt>
<totfact> 0.38320521E-01</totfact>
</mgrwt>
</event>
<event>
 4    1  0.2731969E-009  0.1450862E+04  0.7818608E-02  0.8917803E-01
          1   -1    0    0  501    0  0.00000000000E+00  0.00000000000E+00  0.19545323249E+04  0.19545323249E+04  0.50400000000E-02 0. -1.
         -1   -1    0    0    0  501 -0.00000000000E+00 -0.00000000000E+00 -0.17781630030E+04  0.17781630030E+04  0.50400000000E-02 0.  1.
    8880022    1    1    2    0    0  0.14353569732E+04 -0.14615272823E+03 -0.10837972732E+04  0.18109716847E+04  0.15294330000E+03 0.  0.
    8880022    1    1    2    0    0 -0.14353569732E+04  0.14615272823E+03  0.12601665952E+04  0.19217236432E+04  0.15294330000E+03 0.  0.
<mgrwt>
<rscale>  0 0.14508625E+04</rscale>
<asrwt>0</asrwt>
<pdfrwt beam="1">  1        1 0.30069728E+00 0.14508625E+04</pdfrwt>
<pdfrwt beam="2">  1       -1 0.27356354E+00 0.14508625E+04</pdfrwt>
<totfact> 0.14879177E-01</totfact>
</mgrwt>
</event>
<event>
 4    1  0.2731969E-009  0.7004929E+03  0.7818608E-02  0.9716390E-01
         -1   -1    0    0    0  501 -0.00000000000E+00  0.00000000000E+00  0.31544246060E+03  0.31544246064E+03  0.50400000000E-02 0.  1.
          1   -1    0    0  501    0  0.00000000000E+00 -0.00000000000E+00 -0.30932437662E+04  0.30932437663E+04  0.50400000000E-02 0. -1.
    8880022    1    1    2    0    0  0.68120529919E+03 -0.57079231352E+02 -0.25905649791E+04  0.26836015468E+04  0.15294330000E+03 0.  0.
    8880022    1    1    2    0    0 -0.68120529919E+03  0.57079231352E+02 -0.18723632659E+03  0.72508468009E+03  0.15294330000E+03 0.  0.
<mgrwt>
<rscale>  0 0.70049293E+03</rscale>
<asrwt>0</asrwt>
<pdfrwt beam="1">  1        1 0.47588364E+00 0.70049293E+03</pdfrwt>
<pdfrwt beam="2">  1       -1 0.48529611E-01 0.70049293E+03</pdfrwt>
<totfact> 0.23573747E+00</totfact>
</mgrwt>
</event>
<event>
 4    1  0.2731969E-009  0.3961596E+03  0.7818608E-02  0.1045118E+00
         -1   -1    0    0    0  501 -0.00000000000E+00  0.00000000000E+00  0.11847170752E+04  0.11847170752E+04  0.50400000000E-02 0.  1.
          1   -1    0    0  501    0  0.00000000000E+00 -0.00000000000E+00 -0.10789394584E+04  0.10789394584E+04  0.50400000000E-02 0. -1.
    8880022    1    1    2    0    0 -0.21355449917E+03  0.29655563019E+03  0.11129592601E+04  0.11813639293E+04  0.15294330000E+03 0.  0.
    8880022    1    1    2    0    0  0.21355449917E+03 -0.29655563019E+03 -0.10071816432E+04  0.10822926043E+04  0.15294330000E+03 0.  0.
<mgrwt>
<rscale>  0 0.39615959E+03</rscale>
<asrwt>0</asrwt>
<pdfrwt beam="1">  1        1 0.16599068E+00 0.39615959E+03</pdfrwt>
<pdfrwt beam="2">  1       -1 0.18226417E+00 0.39615959E+03</pdfrwt>
<totfact> 0.29882002E+00</totfact>
</mgrwt>
</event>
<event>
 4    1  0.2731969E-009  0.5326730E+03  0.7818608E-02  0.1005586E+00
          1   -1    0    0  501    0  0.00000000000E+00  0.00000000000E+00  0.11895665711E+04  0.11895665711E+04  0.50400000000E-02 0. -1.
         -1   -1    0    0    0  501 -0.00000000000E+00 -0.00000000000E+00 -0.67692961390E+03  0.67692961392E+03  0.50400000000E-02 0.  1.
    8880022    1    1    2    0    0 -0.46871697833E+03 -0.20162661117E+03  0.10073587976E+04  0.11395228371E+04  0.15294330000E+03 0.  0.
    8880022    1    1    2    0    0  0.46871697833E+03  0.20162661117E+03 -0.49472184046E+03  0.72697334789E+03  0.15294330000E+03 0.  0.
<mgrwt>
<rscale>  0 0.53267302E+03</rscale>
<asrwt>0</asrwt>
<pdfrwt beam="1">  1        1 0.18301024E+00 0.53267302E+03</pdfrwt>
<pdfrwt beam="2">  1       -1 0.10414302E+00 0.53267302E+03</pdfrwt>
<totfact> 0.10133560E+01</totfact>
</mgrwt>
</event>
<event>
 4    1  0.2731969E-009  0.5149407E+03  0.7818608E-02  0.1009951E+00
         -1   -1    0    0    0  501 -0.00000000000E+00  0.00000000000E+00  0.25252135856E+03  0.25252135861E+03  0.50400000000E-02 0.  1.
          1   -1    0    0  501    0  0.00000000000E+00 -0.00000000000E+00 -0.27383784051E+04  0.27383784051E+04  0.50400000000E-02 0. -1.
    8880022    1    1    2    0    0 -0.54339628870E+02 -0.48869158902E+03 -0.68702699397E+02  0.51950358840E+03  0.15294330000E+03 0.  0.
    8880022    1    1    2    0    0  0.54339628870E+02  0.48869158902E+03 -0.24171543472E+04  0.24713961753E+04  0.15294330000E+03 0.  0.
<mgrwt>
<rscale>  0 0.51494069E+03</rscale>
<asrwt>0</asrwt>
<pdfrwt beam="1">  1        1 0.42128896E+00 0.51494069E+03</pdfrwt>
<pdfrwt beam="2">  1       -1 0.38849442E-01 0.51494069E+03</pdfrwt>
<totfact> 0.66111127E+00</totfact>
</mgrwt>
</event>
<event>
 4    1  0.2731969E-009  0.4358615E+03  0.7818608E-02  0.1032024E+00
         -1   -1    0    0    0  501 -0.00000000000E+00  0.00000000000E+00  0.11885455585E+04  0.11885455585E+04  0.50400000000E-02 0.  1.
          1   -1    0    0  501    0  0.00000000000E+00 -0.00000000000E+00 -0.16750731810E+04  0.16750731810E+04  0.50400000000E-02 0. -1.
    8880022    1    1    2    0    0  0.24651217424E+03 -0.32529274403E+03  0.11185203112E+04  0.12004428187E+04  0.15294330000E+03 0.  0.
    8880022    1    1    2    0    0 -0.24651217424E+03  0.32529274403E+03 -0.16050479336E+04  0.16631759208E+04  0.15294330000E+03 0.  0.
<mgrwt>
<rscale>  0 0.43586153E+03</rscale>
<asrwt>0</asrwt>
<pdfrwt beam="1">  1        1 0.25770357E+00 0.43586153E+03</pdfrwt>
<pdfrwt beam="2">  1       -1 0.18285316E+00 0.43586153E+03</pdfrwt>
<totfact> 0.11318403E+00</totfact>
</mgrwt>
</event>
<event>
 4    1  0.2731969E-009  0.4163781E+03  0.7818608E-02  0.1038252E+00
          1   -1    0    0  501    0  0.00000000000E+00  0.00000000000E+00  0.35747430383E+04  0.35747430383E+04  0.50400000000E-02 0. -1.
         -1   -1    0    0    0  501 -0.00000000000E+00 -0.00000000000E+00 -0.11057399813E+03  0.11057399824E+03  0.50400000000E-02 0.  1.
    8880022    1    1    2    0    0 -0.27282777693E+03 -0.27485289537E+03  0.31127148027E+04  0.31404401294E+04  0.15294330000E+03 0.  0.
    8880022    1    1    2    0    0  0.27282777693E+03  0.27485289537E+03  0.35145423748E+03  0.54487690722E+03  0.15294330000E+03 0.  0.
<mgrwt>
<rscale>  0 0.41637815E+03</rscale>
<asrwt>0</asrwt>
<pdfrwt beam="1">  1        1 0.54996040E+00 0.41637815E+03</pdfrwt>
<pdfrwt beam="2">  1       -1 0.17011386E-01 0.41637815E+03</pdfrwt>
<totfact> 0.68334531E+00</totfact>
</mgrwt>
</event>
<event>
 4    1  0.2731969E-009  0.6010723E+03  0.7818608E-02  0.9903184E-01
         -1   -1    0    0    0  501 -0.00000000000E+00  0.00000000000E+00  0.46255121143E+03  0.46255121146E+03  0.50400000000E-02 0.  1.
          1   -1    0    0  501    0  0.00000000000E+00 -0.00000000000E+00 -0.19980284642E+04  0.19980284642E+04  0.50400000000E-02 0. -1.
    8880022    1    1    2    0    0  0.55079134164E+03 -0.18580931147E+03 -0.17278980071E+04  0.18294587665E+04  0.15294330000E+03 0.  0.
    8880022    1    1    2    0    0 -0.55079134164E+03  0.18580931147E+03  0.19242075437E+03  0.63112090916E+03  0.15294330000E+03 0.  0.
<mgrwt>
<rscale>  0 0.60107225E+03</rscale>
<asrwt>0</asrwt>
<pdfrwt beam="1">  1        1 0.30738899E+00 0.60107225E+03</pdfrwt>
<pdfrwt beam="2">  1       -1 0.71161726E-01 0.60107225E+03</pdfrwt>
<totfact> 0.64306838E+00</totfact>
</mgrwt>
</event>
<event>
 4    1  0.2731969E-009  0.2723841E+03  0.7818608E-02  0.1099923E+00
         -1   -1    0    0    0  501 -0.00000000000E+00  0.00000000000E+00  0.57963025301E+03  0.57963025304E+03  0.50400000000E-02 0.  1.
          1   -1    0    0  501    0  0.00000000000E+00 -0.00000000000E+00 -0.99852285209E+03  0.99852285210E+03  0.50400000000E-02 0. -1.
    8880022    1    1    2    0    0 -0.20655223974E+03  0.90208850989E+02  0.52732047201E+03  0.59351495158E+03  0.15294330000E+03 0.  0.
    8880022    1    1    2    0    0  0.20655223974E+03 -0.90208850989E+02 -0.94621307108E+03  0.98463815356E+03  0.15294330000E+03 0.  0.
<mgrwt>
<rscale>  0 0.27238414E+03</rscale>
<asrwt>0</asrwt>
<pdfrwt beam="1">  1        1 0.15361890E+00 0.27238414E+03</pdfrwt>
<pdfrwt beam="2">  1       -1 0.89173885E-01 0.27238414E+03</pdfrwt>
<totfact> 0.21155917E+01</totfact>
</mgrwt>
</event>
<event>
 4    1  0.2731969E-009  0.7837426E+03  0.7818608E-02  0.9583852E-01
         -1   -1    0    0    0  501 -0.00000000000E+00  0.00000000000E+00  0.85345669969E+03  0.85345669970E+03  0.50400000000E-02 0.  1.
          1   -1    0    0  501    0  0.00000000000E+00 -0.00000000000E+00 -0.10111462181E+04  0.10111462181E+04  0.50400000000E-02 0. -1.
    8880022    1    1    2    0    0 -0.68263840771E+03 -0.35336319024E+03  0.42166376469E+03  0.88997343970E+03  0.15294330000E+03 0.  0.
    8880022    1    1    2    0    0  0.68263840771E+03  0.35336319024E+03 -0.57935328306E+03  0.97462947806E+03  0.15294330000E+03 0.  0.
<mgrwt>
<rscale>  0 0.78374256E+03</rscale>
<asrwt>0</asrwt>
<pdfrwt beam="1">  1        1 0.15556096E+00 0.78374256E+03</pdfrwt>
<pdfrwt beam="2">  1       -1 0.13130103E+00 0.78374256E+03</pdfrwt>
<totfact> 0.75483445E+00</totfact>
</mgrwt>
</event>
<event>
 4    1  0.2731969E-009  0.9262337E+03  0.7818608E-02  0.9393369E-01
          1   -1    0    0  501    0  0.00000000000E+00  0.00000000000E+00  0.17534665476E+04  0.17534665477E+04  0.50400000000E-02 0. -1.
         -1   -1    0    0    0  501 -0.00000000000E+00 -0.00000000000E+00 -0.16581121726E+04  0.16581121726E+04  0.50400000000E-02 0.  1.
    8880022    1    1    2    0    0 -0.35610655483E+03 -0.84125229522E+03 -0.13845021484E+04  0.16657596329E+04  0.15294330000E+03 0.  0.
    8880022    1    1    2    0    0  0.35610655483E+03  0.84125229522E+03  0.14798565235E+04  0.17458190873E+04  0.15294330000E+03 0.  0.
<mgrwt>
<rscale>  0 0.92623375E+03</rscale>
<asrwt>0</asrwt>
<pdfrwt beam="1">  1        1 0.26976408E+00 0.92623375E+03</pdfrwt>
<pdfrwt beam="2">  1       -1 0.25509418E+00 0.92623375E+03</pdfrwt>
<totfact> 0.29103157E-01</totfact>
</mgrwt>
</event>
<event>
 4    1  0.2731969E-009  0.7066383E+03  0.7818608E-02  0.9705947E-01
          1   -1    0    0  501    0  0.00000000000E+00  0.00000000000E+00  0.19536053868E+04  0.19536053868E+04  0.50400000000E-02 0. -1.
         -1   -1    0    0    0  501 -0.00000000000E+00 -0.00000000000E+00 -0.46352136981E+03  0.46352136983E+03  0.50400000000E-02 0.  1.
    8880022    1    1    2    0    0 -0.46915031989E+03  0.50581019330E+03  0.15544848812E+04  0.17075599179E+04  0.15294330000E+03 0.  0.
    8880022    1    1    2    0    0  0.46915031989E+03 -0.50581019330E+03 -0.64400864223E+02  0.70956683873E+03  0.15294330000E+03 0.  0.
<mgrwt>
<rscale>  0 0.70663826E+03</rscale>
<asrwt>0</asrwt>
<pdfrwt beam="1">  1        1 0.30055468E+00 0.70663826E+03</pdfrwt>
<pdfrwt beam="2">  1       -1 0.71310979E-01 0.70663826E+03</pdfrwt>
<totfact> 0.67149230E+00</totfact>
</mgrwt>
</event>
<event>
 4    1  0.2731969E-009  0.1426828E+04  0.7818608E-02  0.8934625E-01
          1   -1    0    0  501    0  0.00000000000E+00  0.00000000000E+00  0.22061406523E+04  0.22061406523E+04  0.50400000000E-02 0. -1.
         -1   -1    0    0    0  501 -0.00000000000E+00 -0.00000000000E+00 -0.14770923317E+04  0.14770923317E+04  0.50400000000E-02 0.  1.
    8880022    1    1    2    0    0  0.14176075919E+04  0.53234621924E+02  0.14926641275E+04  0.20649172042E+04  0.15294330000E+03 0.  0.
    8880022    1    1    2    0    0 -0.14176075919E+04 -0.53234621924E+02 -0.76361580687E+03  0.16183157798E+04  0.15294330000E+03 0.  0.
<mgrwt>
<rscale>  0 0.14268276E+04</rscale>
<asrwt>0</asrwt>
<pdfrwt beam="1">  1        1 0.33940625E+00 0.14268276E+04</pdfrwt>
<pdfrwt beam="2">  1       -1 0.22724498E+00 0.14268276E+04</pdfrwt>
<totfact> 0.20235591E-01</totfact>
</mgrwt>
</event>
<event>
 4    1  0.2731969E-009  0.8083027E+03  0.7818608E-02  0.9548076E-01
         -1   -1    0    0    0  501 -0.00000000000E+00  0.00000000000E+00  0.50463332773E+03  0.50463332776E+03  0.50400000000E-02 0.  1.
          1   -1    0    0  501    0  0.00000000000E+00 -0.00000000000E+00 -0.26691760308E+04  0.26691760308E+04  0.50400000000E-02 0. -1.
    8880022    1    1    2    0    0  0.62704737869E+03  0.48659343556E+03 -0.22210240482E+04  0.23635357121E+04  0.15294330000E+03 0.  0.
    8880022    1    1    2    0    0 -0.62704737869E+03 -0.48659343556E+03  0.56481345215E+02  0.81027364638E+03  0.15294330000E+03 0.  0.
<mgrwt>
<rscale>  0 0.80830269E+03</rscale>
<asrwt>0</asrwt>
<pdfrwt beam="1">  1        1 0.41064246E+00 0.80830269E+03</pdfrwt>
<pdfrwt beam="2">  1       -1 0.77635898E-01 0.80830269E+03</pdfrwt>
<totfact> 0.18109479E+00</totfact>
</mgrwt>
</event>
<event>
 4    1  0.2731969E-009  0.9566419E+03  0.7818608E-02  0.9357421E-01
          1   -1    0    0  501    0  0.00000000000E+00  0.00000000000E+00  0.17585853353E+04  0.17585853353E+04  0.50400000000E-02 0. -1.
         -1   -1    0    0    0  501 -0.00000000000E+00 -0.00000000000E+00 -0.13875910045E+04  0.13875910045E+04  0.50400000000E-02 0.  1.
    8880022    1    1    2    0    0  0.88411447173E+03 -0.33183379284E+03 -0.10581016271E+04  0.14264441004E+04  0.15294330000E+03 0.  0.
    8880022    1    1    2    0    0 -0.88411447173E+03  0.33183379284E+03  0.14290959579E+04  0.17197322394E+04  0.15294330000E+03 0.  0.
<mgrwt>
<rscale>  0 0.95664190E+03</rscale>
<asrwt>0</asrwt>
<pdfrwt beam="1">  1        1 0.27055159E+00 0.95664190E+03</pdfrwt>
<pdfrwt beam="2">  1       -1 0.21347554E+00 0.95664190E+03</pdfrwt>
<totfact> 0.53898429E-01</totfact>
</mgrwt>
</event>
<event>
 4    1  0.2731969E-009  0.2321543E+03  0.7818608E-02  0.1125133E+00
         -1   -1    0    0    0  501 -0.00000000000E+00  0.00000000000E+00  0.95459001885E+03  0.95459001887E+03  0.50400000000E-02 0.  1.
          1   -1    0    0  501    0  0.00000000000E+00 -0.00000000000E+00 -0.23580733310E+03  0.23580733315E+03  0.50400000000E-02 0. -1.
    8880022    1    1    2    0    0 -0.14243356985E+03  0.10107745024E+03 -0.15968523495E+03  0.28177118384E+03  0.15294330000E+03 0.  0.
    8880022    1    1    2    0    0  0.14243356985E+03 -0.10107745024E+03  0.87846792071E+03  0.90862616818E+03  0.15294330000E+03 0.  0.
<mgrwt>
<rscale>  0 0.23215431E+03</rscale>
<asrwt>0</asrwt>
<pdfrwt beam="1">  1        1 0.36278052E-01 0.23215431E+03</pdfrwt>
<pdfrwt beam="2">  1       -1 0.14686000E+00 0.23215431E+03</pdfrwt>
<totfact> 0.48417435E+01</totfact>
</mgrwt>
</event>
<event>
 4    1  0.2731969E-009  0.4882486E+03  0.7818608E-02  0.1016893E+00
         -1   -1    0    0    0  501 -0.00000000000E+00  0.00000000000E+00  0.69189563618E+03  0.69189563620E+03  0.50400000000E-02 0.  1.
          1   -1    0    0  501    0  0.00000000000E+00 -0.00000000000E+00 -0.16151656750E+04  0.16151656751E+04  0.50400000000E-02 0. -1.
    8880022    1    1    2    0    0 -0.28733614114E+03  0.36391340025E+03  0.56149112059E+03  0.74408262472E+03  0.15294330000E+03 0.  0.
    8880022    1    1    2    0    0  0.28733614114E+03 -0.36391340025E+03 -0.14847611595E+04  0.15629786865E+04  0.15294330000E+03 0.  0.
<mgrwt>
<rscale>  0 0.48824858E+03</rscale>
<asrwt>0</asrwt>
<pdfrwt beam="1">  1        1 0.24848703E+00 0.48824858E+03</pdfrwt>
<pdfrwt beam="2">  1       -1 0.10644548E+00 0.48824858E+03</pdfrwt>
<totfact> 0.49573616E+00</totfact>
</mgrwt>
</event>
<event>
 4    1  0.2731969E-009  0.6464575E+03  0.7818608E-02  0.9813449E-01
          1   -1    0    0  501    0  0.00000000000E+00  0.00000000000E+00  0.15349983070E+04  0.15349983070E+04  0.50400000000E-02 0. -1.
         -1   -1    0    0    0  501 -0.00000000000E+00 -0.00000000000E+00 -0.34146025842E+03  0.34146025846E+03  0.50400000000E-02 0.  1.
    8880022    1    1    2    0    0 -0.37607153378E+03 -0.50307637507E+03  0.10191612899E+04  0.12068956150E+04  0.15294330000E+03 0.  0.
    8880022    1    1    2    0    0  0.37607153378E+03  0.50307637507E+03  0.17437675871E+03  0.66956295049E+03  0.15294330000E+03 0.  0.
<mgrwt>
<rscale>  0 0.64645749E+03</rscale>
<asrwt>0</asrwt>
<pdfrwt beam="1">  1        1 0.23615358E+00 0.64645749E+03</pdfrwt>
<pdfrwt beam="2">  1       -1 0.52532348E-01 0.64645749E+03</pdfrwt>
<totfact> 0.23695986E+01</totfact>
</mgrwt>
</event>
<event>
 4    1  0.2731969E-009  0.1613009E+04  0.7818608E-02  0.8812595E-01
         -1   -1    0    0    0  501 -0.00000000000E+00  0.00000000000E+00  0.16798527298E+04  0.16798527298E+04  0.50400000000E-02 0.  1.
          1   -1    0    0  501    0  0.00000000000E+00 -0.00000000000E+00 -0.19683406116E+04  0.19683406116E+04  0.50400000000E-02 0. -1.
    8880022    1    1    2    0    0  0.13584747800E+04 -0.85612720723E+03  0.69787104480E+03  0.17575048140E+04  0.15294330000E+03 0.  0.
    8880022    1    1    2    0    0 -0.13584747800E+04  0.85612720723E+03 -0.98635892659E+03  0.18906885275E+04  0.15294330000E+03 0.  0.
<mgrwt>
<rscale>  0 0.16130094E+04</rscale>
<asrwt>0</asrwt>
<pdfrwt beam="1">  1        1 0.30282163E+00 0.16130094E+04</pdfrwt>
<pdfrwt beam="2">  1       -1 0.25843888E+00 0.16130094E+04</pdfrwt>
<totfact> 0.17905321E-01</totfact>
</mgrwt>
</event>
<event>
 4    1  0.2731969E-009  0.1021526E+04  0.7818608E-02  0.9285246E-01
         -1   -1    0    0    0  501 -0.00000000000E+00  0.00000000000E+00  0.13618356591E+04  0.13618356591E+04  0.50400000000E-02 0.  1.
          1   -1    0    0  501    0  0.00000000000E+00 -0.00000000000E+00 -0.27323509119E+04  0.27323509119E+04  0.50400000000E-02 0. -1.
    8880022    1    1    2    0    0 -0.55376384802E+02 -0.10084923131E+04  0.10512297088E+04  0.14658099615E+04  0.15294330000E+03 0.  0.
    8880022    1    1    2    0    0  0.55376384802E+02  0.10084923131E+04 -0.24217449615E+04  0.26283766095E+04  0.15294330000E+03 0.  0.
<mgrwt>
<rscale>  0 0.10215258E+04</rscale>
<asrwt>0</asrwt>
<pdfrwt beam="1">  1        1 0.42036168E+00 0.10215258E+04</pdfrwt>
<pdfrwt beam="2">  1       -1 0.20951318E+00 0.10215258E+04</pdfrwt>
<totfact> 0.12307647E-01</totfact>
</mgrwt>
</event>
<event>
 4    1  0.2731969E-009  0.1186939E+04  0.7818608E-02  0.9124366E-01
         -1   -1    0    0    0  501 -0.00000000000E+00  0.00000000000E+00  0.16370996217E+04  0.16370996217E+04  0.50400000000E-02 0.  1.
          1   -1    0    0  501    0  0.00000000000E+00 -0.00000000000E+00 -0.10277374302E+04  0.10277374302E+04  0.50400000000E-02 0. -1.
    8880022    1    1    2    0    0 -0.49837039454E+03  0.10663297096E+04  0.84206835400E+03  0.14553016407E+04  0.15294330000E+03 0.  0.
    8880022    1    1    2    0    0  0.49837039454E+03 -0.10663297096E+04 -0.23270616254E+03  0.12095354112E+04  0.15294330000E+03 0.  0.
<mgrwt>
<rscale>  0 0.11869388E+04</rscale>
<asrwt>0</asrwt>
<pdfrwt beam="1">  1        1 0.15811345E+00 0.11869388E+04</pdfrwt>
<pdfrwt beam="2">  1       -1 0.25186148E+00 0.11869388E+04</pdfrwt>
<totfact> 0.96014442E-01</totfact>
</mgrwt>
</event>
<event>
 4    1  0.2731969E-009  0.3357288E+03  0.7818608E-02  0.1068630E+00
          1   -1    0    0  501    0  0.00000000000E+00  0.00000000000E+00  0.25452626308E+04  0.25452626308E+04  0.50400000000E-02 0. -1.
         -1   -1    0    0    0  501 -0.00000000000E+00 -0.00000000000E+00 -0.16722121855E+03  0.16722121863E+03  0.50400000000E-02 0.  1.
    8880022    1    1    2    0    0  0.17059884363E+03  0.24539392390E+03  0.26144214505E+02  0.33674518007E+03  0.15294330000E+03 0.  0.
    8880022    1    1    2    0    0 -0.17059884363E+03 -0.24539392390E+03  0.23518971978E+04  0.23757386694E+04  0.15294330000E+03 0.  0.
<mgrwt>
<rscale>  0 0.33572875E+03</rscale>
<asrwt>0</asrwt>
<pdfrwt beam="1">  1        1 0.39157883E+00 0.33572875E+03</pdfrwt>
<pdfrwt beam="2">  1       -1 0.25726344E-01 0.33572875E+03</pdfrwt>
<totfact> 0.19329337E+01</totfact>
</mgrwt>
</event>
<event>
 4    1  0.2731969E-009  0.7539574E+03  0.7818608E-02  0.9629162E-01
         -1   -1    0    0    0  501 -0.00000000000E+00  0.00000000000E+00  0.36561459042E+03  0.36561459045E+03  0.50400000000E-02 0.  1.
          1   -1    0    0  501    0  0.00000000000E+00 -0.00000000000E+00 -0.18491206997E+04  0.18491206997E+04  0.50400000000E-02 0. -1.
    8880022    1    1    2    0    0 -0.18154665068E+03  0.71561230573E+03 -0.29994745693E+03  0.81143101273E+03  0.15294330000E+03 0.  0.
    8880022    1    1    2    0    0  0.18154665068E+03 -0.71561230573E+03 -0.11835586524E+04  0.14033042775E+04  0.15294330000E+03 0.  0.
<mgrwt>
<rscale>  0 0.75395743E+03</rscale>
<asrwt>0</asrwt>
<pdfrwt beam="1">  1        1 0.28448010E+00 0.75395743E+03</pdfrwt>
<pdfrwt beam="2">  1       -1 0.56248400E-01 0.75395743E+03</pdfrwt>
<totfact> 0.12566494E+01</totfact>
</mgrwt>
</event>
<event>
 4    1  0.2731969E-009  0.1249385E+04  0.7818608E-02  0.9070695E-01
         -1   -1    0    0    0  501 -0.00000000000E+00  0.00000000000E+00  0.16498246731E+04  0.16498246731E+04  0.50400000000E-02 0.  1.
          1   -1    0    0  501    0  0.00000000000E+00 -0.00000000000E+00 -0.11714907352E+04  0.11714907352E+04  0.50400000000E-02 0. -1.
    8880022    1    1    2    0    0  0.75329210345E+03 -0.98494826923E+03 -0.37953644124E+03  0.13057609465E+04  0.15294330000E+03 0.  0.
    8880022    1    1    2    0    0 -0.75329210345E+03  0.98494826923E+03  0.85787037921E+03  0.15155544618E+04  0.15294330000E+03 0.  0.
<mgrwt>
<rscale>  0 0.12493853E+04</rscale>
<asrwt>0</asrwt>
<pdfrwt beam="1">  1        1 0.18022934E+00 0.12493853E+04</pdfrwt>
<pdfrwt beam="2">  1       -1 0.25381918E+00 0.12493853E+04</pdfrwt>
<totfact> 0.72014845E-01</totfact>
</mgrwt>
</event>
<event>
 4    1  0.2731969E-009  0.6390821E+03  0.7818608E-02  0.9827484E-01
         -1   -1    0    0    0  501 -0.00000000000E+00  0.00000000000E+00  0.58707199185E+03  0.58707199187E+03  0.50400000000E-02 0.  1.
          1   -1    0    0  501    0  0.00000000000E+00 -0.00000000000E+00 -0.93799708947E+03  0.93799708949E+03  0.50400000000E-02 0. -1.
    8880022    1    1    2    0    0 -0.43990941726E+03  0.43762303430E+03  0.21209218987E+03  0.67335649218E+03  0.15294330000E+03 0.  0.
    8880022    1    1    2    0    0  0.43990941726E+03 -0.43762303430E+03 -0.56301728749E+03  0.85171258918E+03  0.15294330000E+03 0.  0.
<mgrwt>
<rscale>  0 0.63908205E+03</rscale>
<asrwt>0</asrwt>
<pdfrwt beam="1">  1        1 0.14430724E+00 0.63908205E+03</pdfrwt>
<pdfrwt beam="2">  1       -1 0.90318768E-01 0.63908205E+03</pdfrwt>
<totfact> 0.21186923E+01</totfact>
</mgrwt>
</event>
<event>
 4    1  0.2731969E-009  0.6440641E+03  0.7818608E-02  0.9817982E-01
          1   -1    0    0  501    0  0.00000000000E+00  0.00000000000E+00  0.36764904495E+04  0.36764904495E+04  0.50400000000E-02 0. -1.
         -1   -1    0    0    0  501 -0.00000000000E+00 -0.00000000000E+00 -0.28749487375E+03  0.28749487380E+03  0.50400000000E-02 0.  1.
    8880022    1    1    2    0    0  0.61070957121E+03 -0.13587050712E+03  0.14963573534E+03  0.66121817986E+03  0.15294330000E+03 0.  0.
    8880022    1    1    2    0    0 -0.61070957121E+03  0.13587050712E+03  0.32393598404E+04  0.33027671434E+04  0.15294330000E+03 0. -1.
<mgrwt>
<rscale>  0 0.64406415E+03</rscale>
<asrwt>0</asrwt>
<pdfrwt beam="1">  1        1 0.56561392E+00 0.64406415E+03</pdfrwt>
<pdfrwt beam="2">  1       -1 0.44229981E-01 0.64406415E+03</pdfrwt>
<totfact> 0.10265474E+00</totfact>
</mgrwt>
</event>
<event>
 4    1  0.2731969E-009  0.8378653E+03  0.7818608E-02  0.9506770E-01
          1   -1    0    0  501    0  0.00000000000E+00  0.00000000000E+00  0.16303826464E+04  0.16303826464E+04  0.50400000000E-02 0. -1.
         -1   -1    0    0    0  501 -0.00000000000E+00 -0.00000000000E+00 -0.64893101885E+03  0.64893101887E+03  0.50400000000E-02 0.  1.
    8880022    1    1    2    0    0 -0.81460071532E+03 -0.12268789505E+03 -0.17034423194E+03  0.85500611423E+03  0.15294330000E+03 0.  0.
    8880022    1    1    2    0    0  0.81460071532E+03  0.12268789505E+03  0.11517958595E+04  0.14243075510E+04  0.15294330000E+03 0.  0.
<mgrwt>
<rscale>  0 0.83786532E+03</rscale>
<asrwt>0</asrwt>
<pdfrwt beam="1">  1        1 0.25082810E+00 0.83786532E+03</pdfrwt>
<pdfrwt beam="2">  1       -1 0.99835541E-01 0.83786532E+03</pdfrwt>
<totfact> 0.52366987E+00</totfact>
</mgrwt>
</event>
<event>
 4    1  0.2731969E-009  0.5256187E+03  0.7818608E-02  0.1007300E+00
          1   -1    0    0  501    0  0.00000000000E+00  0.00000000000E+00  0.23616703817E+03  0.23616703822E+03  0.50400000000E-02 0. -1.
         -1   -1    0    0    0  501 -0.00000000000E+00 -0.00000000000E+00 -0.21394168934E+04  0.21394168935E+04  0.50400000000E-02 0.  1.
    8880022    1    1    2    0    0 -0.13899195662E+03 -0.48328523785E+03 -0.17512497669E+04  0.18284285013E+04  0.15294330000E+03 0.  0.
    8880022    1    1    2    0    0  0.13899195662E+03  0.48328523785E+03 -0.15200008833E+03  0.54715543038E+03  0.15294330000E+03 0.  0.
<mgrwt>
<rscale>  0 0.52561872E+03</rscale>
<asrwt>0</asrwt>
<pdfrwt beam="1">  1        1 0.36333392E-01 0.52561872E+03</pdfrwt>
<pdfrwt beam="2">  1       -1 0.32914105E+00 0.52561872E+03</pdfrwt>
<totfact> 0.28037294E+00</totfact>
</mgrwt>
</event>
<event>
 4    1  0.2731969E-009  0.7052283E+03  0.7818608E-02  0.9708333E-01
         -1   -1    0    0    0  501 -0.00000000000E+00  0.00000000000E+00  0.73388220798E+03  0.73388220800E+03  0.50400000000E-02 0.  1.
          1   -1    0    0  501    0  0.00000000000E+00 -0.00000000000E+00 -0.19827449893E+04  0.19827449893E+04  0.50400000000E-02 0. -1.
    8880022    1    1    2    0    0 -0.32727421077E+03  0.60567890287E+03  0.47756580231E+03  0.85171362028E+03  0.15294330000E+03 0.  0.
    8880022    1    1    2    0    0  0.32727421077E+03 -0.60567890287E+03 -0.17264285836E+04  0.18649135770E+04  0.15294330000E+03 0. -1.
<mgrwt>
<rscale>  0 0.70522833E+03</rscale>
<asrwt>0</asrwt>
<pdfrwt beam="1">  1        1 0.30503769E+00 0.70522833E+03</pdfrwt>
<pdfrwt beam="2">  1       -1 0.11290496E+00 0.70522833E+03</pdfrwt>
<totfact> 0.23342932E+00</totfact>
</mgrwt>
</event>
<event>
 4    1  0.2731969E-009  0.1214922E+04  0.7818608E-02  0.9099895E-01
          1   -1    0    0  501    0  0.00000000000E+00  0.00000000000E+00  0.18642259294E+04  0.18642259294E+04  0.50400000000E-02 0. -1.
         -1   -1    0    0    0  501 -0.00000000000E+00 -0.00000000000E+00 -0.14711006122E+04  0.14711006122E+04  0.50400000000E-02 0.  1.
    8880022    1    1    2    0    0 -0.19008634241E+03  0.11901728919E+04  0.13298189593E+04  0.18012369216E+04  0.15294330000E+03 0.  0.
    8880022    1    1    2    0    0  0.19008634241E+03 -0.11901728919E+04 -0.93669364210E+03  0.15340896201E+04  0.15294330000E+03 0.  0.
<mgrwt>
<rscale>  0 0.12149222E+04</rscale>
<asrwt>0</asrwt>
<pdfrwt beam="1">  1        1 0.28680399E+00 0.12149222E+04</pdfrwt>
<pdfrwt beam="2">  1       -1 0.22632317E+00 0.12149222E+04</pdfrwt>
<totfact> 0.36025360E-01</totfact>
</mgrwt>
</event>
<event>
 4    1  0.2731969E-009  0.6780526E+03  0.7818608E-02  0.9755519E-01
          1   -1    0    0  501    0  0.00000000000E+00  0.00000000000E+00  0.17952362274E+04  0.17952362274E+04  0.50400000000E-02 0. -1.
         -1   -1    0    0    0  501 -0.00000000000E+00 -0.00000000000E+00 -0.12419911607E+04  0.12419911607E+04  0.50400000000E-02 0.  1.
    8880022    1    1    2    0    0 -0.19067183050E+03 -0.63246182105E+03  0.16296391035E+04  0.17650719426E+04  0.15294330000E+03 0.  0.
    8880022    1    1    2    0    0  0.19067183050E+03  0.63246182105E+03 -0.10763940367E+04  0.12721554455E+04  0.15294330000E+03 0.  0.
<mgrwt>
<rscale>  0 0.67805262E+03</rscale>
<asrwt>0</asrwt>
<pdfrwt beam="1">  1        1 0.27619019E+00 0.67805262E+03</pdfrwt>
<pdfrwt beam="2">  1       -1 0.19107556E+00 0.67805262E+03</pdfrwt>
<totfact> 0.76700852E-01</totfact>
</mgrwt>
</event>
<event>
 4    1  0.2731969E-009  0.5401385E+03  0.7818608E-02  0.1003803E+00
         -1   -1    0    0    0  501 -0.00000000000E+00  0.00000000000E+00  0.91462054272E+03  0.91462054274E+03  0.50400000000E-02 0.  1.
          1   -1    0    0  501    0  0.00000000000E+00 -0.00000000000E+00 -0.29437689116E+04  0.29437689116E+04  0.50400000000E-02 0. -1.
    8880022    1    1    2    0    0  0.51325948890E+03 -0.70161446627E+02  0.80710143282E+03  0.97116543771E+03  0.15294330000E+03 0.  1.
    8880022    1    1    2    0    0 -0.51325948890E+03  0.70161446627E+02 -0.28362498017E+04  0.28872240166E+04  0.15294330000E+03 0.  0.
<mgrwt>
<rscale>  0 0.54013849E+03</rscale>
<asrwt>0</asrwt>
<pdfrwt beam="1">  1        1 0.45288752E+00 0.54013849E+03</pdfrwt>
<pdfrwt beam="2">  1       -1 0.14071085E+00 0.54013849E+03</pdfrwt>
<totfact> 0.31388757E-01</totfact>
</mgrwt>
</event>
<event>
 4    1  0.2731969E-009  0.5121451E+03  0.7818608E-02  0.1010657E+00
         -1   -1    0    0    0  501 -0.00000000000E+00  0.00000000000E+00  0.26346946471E+03  0.26346946476E+03  0.50400000000E-02 0.  1.
          1   -1    0    0  501    0  0.00000000000E+00 -0.00000000000E+00 -0.21060960126E+04  0.21060960126E+04  0.50400000000E-02 0. -1.
    8880022    1    1    2    0    0 -0.18932510099E+03 -0.45061847180E+03 -0.17816553403E+04  0.18538037667E+04  0.15294330000E+03 0.  0.
    8880022    1    1    2    0    0  0.18932510099E+03  0.45061847180E+03 -0.60971207620E+02  0.51576171064E+03  0.15294330000E+03 0.  0.
<mgrwt>
<rscale>  0 0.51214515E+03</rscale>
<asrwt>0</asrwt>
<pdfrwt beam="1">  1        1 0.32401476E+00 0.51214515E+03</pdfrwt>
<pdfrwt beam="2">  1       -1 0.40533765E-01 0.51214515E+03</pdfrwt>
<totfact> 0.16351549E+01</totfact>
</mgrwt>
</event>
<event>
 4    1  0.2731969E-009  0.7628301E+03  0.7818608E-02  0.9615434E-01
          1   -1    0    0  501    0  0.00000000000E+00  0.00000000000E+00  0.19000967459E+04  0.19000967459E+04  0.50400000000E-02 0. -1.
         -1   -1    0    0    0  501 -0.00000000000E+00 -0.00000000000E+00 -0.39026569754E+03  0.39026569757E+03  0.50400000000E-02 0.  1.
    8880022    1    1    2    0    0 -0.71938236283E+03 -0.20250221619E+03  0.12862490661E+04  0.14954418894E+04  0.15294330000E+03 0.  0.
    8880022    1    1    2    0    0  0.71938236283E+03  0.20250221619E+03  0.22358198228E+03  0.79492055410E+03  0.15294330000E+03 0.  0.
<mgrwt>
<rscale>  0 0.76283012E+03</rscale>
<asrwt>0</asrwt>
<pdfrwt beam="1">  1        1 0.29232258E+00 0.76283012E+03</pdfrwt>
<pdfrwt beam="2">  1       -1 0.60040876E-01 0.76283012E+03</pdfrwt>
<totfact> 0.10211369E+01</totfact>
</mgrwt>
</event>
<event>
 4    1  0.2731969E-009  0.7990152E+03  0.7818608E-02  0.9561444E-01
         -1   -1    0    0    0  501 -0.00000000000E+00  0.00000000000E+00  0.47687816984E+03  0.47687816987E+03  0.50400000000E-02 0.  1.
          1   -1    0    0  501    0  0.00000000000E+00 -0.00000000000E+00 -0.23168368514E+04  0.23168368514E+04  0.50400000000E-02 0. -1.
    8880022    1    1    2    0    0  0.35151527651E+02  0.78345259107E+03 -0.18275719527E+04  0.19946038423E+04  0.15294330000E+03 0.  0.
    8880022    1    1    2    0    0 -0.35151527651E+02 -0.78345259107E+03 -0.12386728882E+02  0.79911117901E+03  0.15294330000E+03 0.  0.
<mgrwt>
<rscale>  0 0.79901517E+03</rscale>
<asrwt>0</asrwt>
<pdfrwt beam="1">  1        1 0.35643643E+00 0.79901517E+03</pdfrwt>
<pdfrwt beam="2">  1       -1 0.73365874E-01 0.79901517E+03</pdfrwt>
<totfact> 0.35559002E+00</totfact>
</mgrwt>
</event>
<event>
 4    1  0.2731969E-009  0.4381276E+03  0.7818608E-02  0.1031323E+00
          1   -1    0    0  501    0  0.00000000000E+00  0.00000000000E+00  0.10572719717E+04  0.10572719717E+04  0.50400000000E-02 0. -1.
         -1   -1    0    0    0  501 -0.00000000000E+00 -0.00000000000E+00 -0.85806703831E+03  0.85806703832E+03  0.50400000000E-02 0.  1.
    8880022    1    1    2    0    0 -0.69340311613E+02  0.40466786156E+03  0.94994120444E+03  0.10461090296E+04  0.15294330000E+03 0.  0.
    8880022    1    1    2    0    0  0.69340311613E+02 -0.40466786156E+03 -0.75073627109E+03  0.86922998035E+03  0.15294330000E+03 0.  0.
<mgrwt>
<rscale>  0 0.43812762E+03</rscale>
<asrwt>0</asrwt>
<pdfrwt beam="1">  1        1 0.16265723E+00 0.43812762E+03</pdfrwt>
<pdfrwt beam="2">  1       -1 0.13201031E+00 0.43812762E+03</pdfrwt>
<totfact> 0.73312393E+00</totfact>
</mgrwt>
</event>
<event>
 4    1  0.2731969E-009  0.7021564E+03  0.7818608E-02  0.9713552E-01
         -1   -1    0    0    0  501 -0.00000000000E+00  0.00000000000E+00  0.10741728018E+04  0.10741728018E+04  0.50400000000E-02 0.  1.
          1   -1    0    0  501    0  0.00000000000E+00 -0.00000000000E+00 -0.85968788447E+03  0.85968788448E+03  0.50400000000E-02 0. -1.
    8880022    1    1    2    0    0  0.59971122349E+03 -0.33162984339E+03 -0.55290182728E+03  0.89371359407E+03  0.15294330000E+03 0.  0.
    8880022    1    1    2    0    0 -0.59971122349E+03  0.33162984339E+03  0.76738674456E+03  0.10401470922E+04  0.15294330000E+03 0.  0.
<mgrwt>
<rscale>  0 0.70215636E+03</rscale>
<asrwt>0</asrwt>
<pdfrwt beam="1">  1        1 0.13225967E+00 0.70215636E+03</pdfrwt>
<pdfrwt beam="2">  1       -1 0.16525735E+00 0.70215636E+03</pdfrwt>
<totfact> 0.54698352E+00</totfact>
</mgrwt>
</event>
<event>
 4    1  0.2731969E-009  0.5103705E+03  0.7818608E-02  0.1011107E+00
         -1   -1    0    0    0  501 -0.00000000000E+00  0.00000000000E+00  0.26980925525E+03  0.26980925530E+03  0.50400000000E-02 0.  1.
          1   -1    0    0  501    0  0.00000000000E+00 -0.00000000000E+00 -0.34865423573E+04  0.34865423573E+04  0.50400000000E-02 0. -1.
    8880022    1    1    2    0    0 -0.22787667688E+03  0.43030059757E+03 -0.11251808820E+02  0.51049450571E+03  0.15294330000E+03 0.  0.
    8880022    1    1    2    0    0  0.22787667688E+03 -0.43030059757E+03 -0.32054812932E+04  0.32458571069E+04  0.15294330000E+03 0.  0.
<mgrwt>
<rscale>  0 0.51037049E+03</rscale>
<asrwt>0</asrwt>
<pdfrwt beam="1">  1        1 0.53639110E+00 0.51037049E+03</pdfrwt>
<pdfrwt beam="2">  1       -1 0.41509119E-01 0.51037049E+03</pdfrwt>
<totfact> 0.16882388E+00</totfact>
</mgrwt>
</event>
<event>
 4    1  0.2731969E-009  0.1224546E+04  0.7818608E-02  0.9091639E-01
          1   -1    0    0  501    0  0.00000000000E+00  0.00000000000E+00  0.16300566861E+04  0.16300566862E+04  0.50400000000E-02 0. -1.
         -1   -1    0    0    0  501 -0.00000000000E+00 -0.00000000000E+00 -0.11865480284E+04  0.11865480284E+04  0.50400000000E-02 0.  1.
    8880022    1    1    2    0    0 -0.11937931773E+04 -0.22578339679E+03  0.88934620450E+03  0.15134228150E+04  0.15294330000E+03 0.  0.
    8880022    1    1    2    0    0  0.11937931773E+04  0.22578339679E+03 -0.44583754676E+03  0.13031818996E+04  0.15294330000E+03 0.  0.
<mgrwt>
<rscale>  0 0.12245456E+04</rscale>
<asrwt>0</asrwt>
<pdfrwt beam="1">  1        1 0.25077795E+00 0.12245456E+04</pdfrwt>
<pdfrwt beam="2">  1       -1 0.18254585E+00 0.12245456E+04</pdfrwt>
<totfact> 0.10376727E+00</totfact>
</mgrwt>
</event>
<event>
 4    1  0.2731969E-009  0.6231764E+03  0.7818608E-02  0.9858456E-01
          1   -1    0    0  501    0  0.00000000000E+00  0.00000000000E+00  0.17562237542E+04  0.17562237542E+04  0.50400000000E-02 0. -1.
         -1   -1    0    0    0  501 -0.00000000000E+00 -0.00000000000E+00 -0.81751431899E+03  0.81751431900E+03  0.50400000000E-02 0.  1.
    8880022    1    1    2    0    0  0.20873263426E+03 -0.56691084687E+03 -0.62977965112E+03  0.88598605118E+03  0.15294330000E+03 0.  0.
    8880022    1    1    2    0    0 -0.20873263426E+03  0.56691084687E+03  0.15684890863E+04  0.16877520220E+04  0.15294330000E+03 0.  0.
<mgrwt>
<rscale>  0 0.62317644E+03</rscale>
<asrwt>0</asrwt>
<pdfrwt beam="1">  1        1 0.27018827E+00 0.62317644E+03</pdfrwt>
<pdfrwt beam="2">  1       -1 0.12577144E+00 0.62317644E+03</pdfrwt>
<totfact> 0.25904647E+00</totfact>
</mgrwt>
</event>
<event>
 4    1  0.2731969E-009  0.1013897E+04  0.7818608E-02  0.9293433E-01
          1   -1    0    0  501    0  0.00000000000E+00  0.00000000000E+00  0.28979387213E+04  0.28979387213E+04  0.50400000000E-02 0. -1.
         -1   -1    0    0    0  501 -0.00000000000E+00 -0.00000000000E+00 -0.15507385120E+04  0.15507385120E+04  0.50400000000E-02 0.  1.
    8880022    1    1    2    0    0  0.14092957888E+03  0.99233737171E+03 -0.12798338038E+04  0.16327770282E+04  0.15294330000E+03 0.  0.
    8880022    1    1    2    0    0 -0.14092957888E+03 -0.99233737171E+03  0.26270340132E+04  0.28159002051E+04  0.15294330000E+03 0.  0.
<mgrwt>
<rscale>  0 0.10138966E+04</rscale>
<asrwt>0</asrwt>
<pdfrwt beam="1">  1        1 0.44583673E+00 0.10138966E+04</pdfrwt>
<pdfrwt beam="2">  1       -1 0.23857516E+00 0.10138966E+04</pdfrwt>
<totfact> 0.60335417E-02</totfact>
</mgrwt>
</event>
<event>
 4    1  0.2731969E-009  0.1038039E+04  0.7818608E-02  0.9267781E-01
          1   -1    0    0  501    0  0.00000000000E+00  0.00000000000E+00  0.29712572802E+04  0.29712572802E+04  0.50400000000E-02 0. -1.
         -1   -1    0    0    0  501 -0.00000000000E+00 -0.00000000000E+00 -0.45338491360E+03  0.45338491363E+03  0.50400000000E-02 0.  1.
    8880022    1    1    2    0    0  0.10026293670E+04  0.22106052143E+03  0.49291634669E+03  0.11491264419E+04  0.15294330000E+03 0.  0.
    8880022    1    1    2    0    0 -0.10026293670E+04 -0.22106052143E+03  0.20249560199E+04  0.22755157519E+04  0.15294330000E+03 0.  0.
<mgrwt>
<rscale>  0 0.10380390E+04</rscale>
<asrwt>0</asrwt>
<pdfrwt beam="1">  1        1 0.45711649E+00 0.10380390E+04</pdfrwt>
<pdfrwt beam="2">  1       -1 0.69751527E-01 0.10380390E+04</pdfrwt>
<totfact> 0.13317846E+00</totfact>
</mgrwt>
</event>
<event>
 4    1  0.2731969E-009  0.1315203E+04  0.7818608E-02  0.9017595E-01
         -1   -1    0    0    0  501 -0.00000000000E+00  0.00000000000E+00  0.20514082693E+04  0.20514082693E+04  0.50400000000E-02 0.  1.
          1   -1    0    0  501    0  0.00000000000E+00 -0.00000000000E+00 -0.22224488459E+04  0.22224488459E+04  0.50400000000E-02 0. -1.
    8880022    1    1    2    0    0  0.10596609935E+04 -0.76386258962E+03 -0.17689482424E+04  0.22042996653E+04  0.15294330000E+03 0.  0.
    8880022    1    1    2    0    0 -0.10596609935E+04  0.76386258962E+03  0.15979076658E+04  0.20695574499E+04  0.15294330000E+03 0.  0.
<mgrwt>
<rscale>  0 0.13152031E+04</rscale>
<asrwt>0</asrwt>
<pdfrwt beam="1">  1        1 0.34191521E+00 0.13152031E+04</pdfrwt>
<pdfrwt beam="2">  1       -1 0.31560127E+00 0.13152031E+04</pdfrwt>
<totfact> 0.53318227E-02</totfact>
</mgrwt>
</event>
<event>
 4    1  0.2731969E-009  0.1365007E+04  0.7818608E-02  0.8979545E-01
          1   -1    0    0  501    0  0.00000000000E+00  0.00000000000E+00  0.28163125104E+04  0.28163125104E+04  0.50400000000E-02 0. -1.
         -1   -1    0    0    0  501 -0.00000000000E+00 -0.00000000000E+00 -0.79631595041E+03  0.79631595043E+03  0.50400000000E-02 0.  1.
    8880022    1    1    2    0    0 -0.77529596661E+03  0.11129994923E+04  0.26701900098E+03  0.13908783216E+04  0.15294330000E+03 0.  0.
    8880022    1    1    2    0    0  0.77529596661E+03 -0.11129994923E+04  0.17529775591E+04  0.22217501392E+04  0.15294330000E+03 0.  0.
<mgrwt>
<rscale>  0 0.13650067E+04</rscale>
<asrwt>0</asrwt>
<pdfrwt beam="1">  1        1 0.43327884E+00 0.13650067E+04</pdfrwt>
<pdfrwt beam="2">  1       -1 0.12251015E+00 0.13650067E+04</pdfrwt>
<totfact> 0.46306373E-01</totfact>
</mgrwt>
</event>
<event>
 4    1  0.2731969E-009  0.7380933E+03  0.7818608E-02  0.9654217E-01
         -1   -1    0    0    0  501 -0.00000000000E+00  0.00000000000E+00  0.18995485299E+04  0.18995485299E+04  0.50400000000E-02 0.  1.
          1   -1    0    0  501    0  0.00000000000E+00 -0.00000000000E+00 -0.13297110530E+04  0.13297110530E+04  0.50400000000E-02 0. -1.
    8880022    1    1    2    0    0 -0.47041617049E+03  0.54781268316E+03 -0.11450248897E+04  0.13623009067E+04  0.15294330000E+03 0.  0.
    8880022    1    1    2    0    0  0.47041617049E+03 -0.54781268316E+03  0.17148623667E+04  0.18669586763E+04  0.15294330000E+03 0.  0.
<mgrwt>
<rscale>  0 0.73809333E+03</rscale>
<asrwt>0</asrwt>
<pdfrwt beam="1">  1        1 0.20457093E+00 0.73809333E+03</pdfrwt>
<pdfrwt beam="2">  1       -1 0.29223823E+00 0.73809333E+03</pdfrwt>
<totfact> 0.34177729E-01</totfact>
</mgrwt>
</event>
<event>
 4    1  0.2731969E-009  0.9549890E+03  0.7818608E-02  0.9359338E-01
         -1   -1    0    0    0  501 -0.00000000000E+00  0.00000000000E+00  0.10204849945E+04  0.10204849946E+04  0.50400000000E-02 0.  1.
          1   -1    0    0  501    0  0.00000000000E+00 -0.00000000000E+00 -0.11415313644E+04  0.11415313645E+04  0.50400000000E-02 0. -1.
    8880022    1    1    2    0    0 -0.60197058268E+03  0.72542661169E+03  0.44317007475E+03  0.10528075415E+04  0.15294330000E+03 0.  0.
    8880022    1    1    2    0    0  0.60197058268E+03 -0.72542661169E+03 -0.56421644465E+03  0.11092088175E+04  0.15294330000E+03 0.  0.
<mgrwt>
<rscale>  0 0.95498901E+03</rscale>
<asrwt>0</asrwt>
<pdfrwt beam="1">  1        1 0.17562021E+00 0.95498901E+03</pdfrwt>
<pdfrwt beam="2">  1       -1 0.15699769E+00 0.95498901E+03</pdfrwt>
<totfact> 0.36680971E+00</totfact>
</mgrwt>
</event>
<event>
 4    1  0.2731969E-009  0.5163814E+03  0.7818608E-02  0.1009589E+00
          1   -1    0    0  501    0  0.00000000000E+00  0.00000000000E+00  0.54965752978E+03  0.54965752980E+03  0.50400000000E-02 0. -1.
         -1   -1    0    0    0  501 -0.00000000000E+00 -0.00000000000E+00 -0.14960648025E+04  0.14960648026E+04  0.50400000000E-02 0.  1.
    8880022    1    1    2    0    0  0.34829656766E+03  0.34920993117E+03 -0.13140279503E+04  0.14118495607E+04  0.15294330000E+03 0.  0.
    8880022    1    1    2    0    0 -0.34829656766E+03 -0.34920993117E+03  0.36762067749E+03  0.63387277162E+03  0.15294330000E+03 0.  0.
<mgrwt>
<rscale>  0 0.51638138E+03</rscale>
<asrwt>0</asrwt>
<pdfrwt beam="1">  1        1 0.84562698E-01 0.51638138E+03</pdfrwt>
<pdfrwt beam="2">  1       -1 0.23016381E+00 0.51638138E+03</pdfrwt>
<totfact> 0.39681166E+00</totfact>
</mgrwt>
</event>
<event>
 4    1  0.2731969E-009  0.1628883E+03  0.7818608E-02  0.1185474E+00
         -1   -1    0    0    0  501 -0.00000000000E+00  0.00000000000E+00  0.16306800611E+03  0.16306800619E+03  0.50400000000E-02 0.  1.
          1   -1    0    0  501    0  0.00000000000E+00 -0.00000000000E+00 -0.29500887331E+04  0.29500887331E+04  0.50400000000E-02 0. -1.
    8880022    1    1    2    0    0 -0.77058989900E+01 -0.55511768060E+02  0.11953357738E+03  0.20204174422E+03  0.15294330000E+03 0.  0.
    8880022    1    1    2    0    0  0.77058989900E+01  0.55511768060E+02 -0.29065543043E+04  0.29111149950E+04  0.15294330000E+03 0. -1.
<mgrwt>
<rscale>  0 0.16288828E+03</rscale>
<asrwt>0</asrwt>
<pdfrwt beam="1">  1        1 0.45385977E+00 0.16288828E+03</pdfrwt>
<pdfrwt beam="2">  1       -1 0.25087388E-01 0.16288828E+03</pdfrwt>
<totfact> 0.11745483E+01</totfact>
</mgrwt>
</event>
<event>
 4    1  0.2731969E-009  0.4354530E+03  0.7818608E-02  0.1032151E+00
         -1   -1    0    0    0  501 -0.00000000000E+00  0.00000000000E+00  0.10882454228E+03  0.10882454240E+03  0.50400000000E-02 0.  1.
          1   -1    0    0  501    0  0.00000000000E+00 -0.00000000000E+00 -0.31328681753E+04  0.31328681753E+04  0.50400000000E-02 0. -1.
    8880022    1    1    2    0    0 -0.40765513744E+03  0.67031863478E+01 -0.43221412605E+03  0.61353756818E+03  0.15294330000E+03 0.  0.
    8880022    1    1    2    0    0  0.40765513744E+03 -0.67031863478E+01 -0.25918295070E+04  0.26281551495E+04  0.15294330000E+03 0.  0.
<mgrwt>
<rscale>  0 0.43545298E+03</rscale>
<asrwt>0</asrwt>
<pdfrwt beam="1">  1        1 0.48197965E+00 0.43545298E+03</pdfrwt>
<pdfrwt beam="2">  1       -1 0.16742240E-01 0.43545298E+03</pdfrwt>
<totfact> 0.14891571E+01</totfact>
</mgrwt>
</event>
<event>
 4    1  0.2731969E-009  0.6842167E+03  0.7818608E-02  0.9744611E-01
          1   -1    0    0  501    0  0.00000000000E+00  0.00000000000E+00  0.10314293828E+04  0.10314293828E+04  0.50400000000E-02 0. -1.
         -1   -1    0    0    0  501 -0.00000000000E+00 -0.00000000000E+00 -0.10480931450E+04  0.10480931451E+04  0.50400000000E-02 0.  1.
    8880022    1    1    2    0    0 -0.65063233635E+03  0.14641874328E+03  0.77456075800E+03  0.10334877388E+04  0.15294330000E+03 0.  0.
    8880022    1    1    2    0    0  0.65063233635E+03 -0.14641874328E+03 -0.79122452022E+03  0.10460347891E+04  0.15294330000E+03 0.  1.
<mgrwt>
<rscale>  0 0.68421673E+03</rscale>
<asrwt>0</asrwt>
<pdfrwt beam="1">  1        1 0.15868144E+00 0.68421673E+03</pdfrwt>
<pdfrwt beam="2">  1       -1 0.16124510E+00 0.68421673E+03</pdfrwt>
<totfact> 0.42925113E+00</totfact>
</mgrwt>
</event>
<event>
 4    1  0.2731969E-009  0.1008320E+04  0.7818608E-02  0.9299466E-01
          1   -1    0    0  501    0  0.00000000000E+00  0.00000000000E+00  0.14238237718E+04  0.14238237718E+04  0.50400000000E-02 0. -1.
         -1   -1    0    0    0  501 -0.00000000000E+00 -0.00000000000E+00 -0.12075975080E+04  0.12075975080E+04  0.50400000000E-02 0.  1.
    8880022    1    1    2    0    0 -0.55221226296E+03 -0.82968669542E+03 -0.73300094314E+03  0.12465955365E+04  0.15294330000E+03 0.  0.
    8880022    1    1    2    0    0  0.55221226296E+03  0.82968669542E+03  0.94922720692E+03  0.13848257433E+04  0.15294330000E+03 0.  0.
<mgrwt>
<rscale>  0 0.10083204E+04</rscale>
<asrwt>0</asrwt>
<pdfrwt beam="1">  1        1 0.21904981E+00 0.10083204E+04</pdfrwt>
<pdfrwt beam="2">  1       -1 0.18578423E+00 0.10083204E+04</pdfrwt>
<totfact> 0.14054648E+00</totfact>
</mgrwt>
</event>
<event>
 4    1  0.2731969E-009  0.1027990E+04  0.7818608E-02  0.9278368E-01
          1   -1    0    0  501    0  0.00000000000E+00  0.00000000000E+00  0.17732150058E+04  0.17732150058E+04  0.50400000000E-02 0. -1.
         -1   -1    0    0    0  501 -0.00000000000E+00 -0.00000000000E+00 -0.61778845255E+03  0.61778845257E+03  0.50400000000E-02 0.  1.
    8880022    1    1    2    0    0 -0.10142967262E+04 -0.67625406218E+02  0.80244061772E+03  0.13040987855E+04  0.15294330000E+03 0.  0.
    8880022    1    1    2    0    0  0.10142967262E+04  0.67625406218E+02  0.35298593557E+03  0.10869046729E+04  0.15294330000E+03 0.  0.
<mgrwt>
<rscale>  0 0.10279896E+04</rscale>
<asrwt>0</asrwt>
<pdfrwt beam="1">  1        1 0.27280231E+00 0.10279896E+04</pdfrwt>
<pdfrwt beam="2">  1       -1 0.95044377E-01 0.10279896E+04</pdfrwt>
<totfact> 0.45666190E+00</totfact>
</mgrwt>
</event>
<event>
 4    1  0.2731969E-009  0.7554843E+03  0.7818608E-02  0.9626785E-01
          1   -1    0    0  501    0  0.00000000000E+00  0.00000000000E+00  0.26201942732E+04  0.26201942732E+04  0.50400000000E-02 0. -1.
         -1   -1    0    0    0  501 -0.00000000000E+00 -0.00000000000E+00 -0.47187425718E+03  0.47187425720E+03  0.50400000000E-02 0.  1.
    8880022    1    1    2    0    0 -0.68826677866E+03  0.27139214963E+03 -0.60225831200E+02  0.75788103370E+03  0.15294330000E+03 0.  0.
    8880022    1    1    2    0    0  0.68826677866E+03 -0.27139214963E+03  0.22085458472E+04  0.23341874967E+04  0.15294330000E+03 0.  0.
<mgrwt>
<rscale>  0 0.75548429E+03</rscale>
<asrwt>0</asrwt>
<pdfrwt beam="1">  1        1 0.40310680E+00 0.75548429E+03</pdfrwt>
<pdfrwt beam="2">  1       -1 0.72596042E-01 0.75548429E+03</pdfrwt>
<totfact> 0.22754564E+00</totfact>
</mgrwt>
</event>
<event>
 4    1  0.2731969E-009  0.9702837E+03  0.7818608E-02  0.9341751E-01
          1   -1    0    0  501    0  0.00000000000E+00  0.00000000000E+00  0.15948517810E+04  0.15948517810E+04  0.50400000000E-02 0. -1.
         -1   -1    0    0    0  501 -0.00000000000E+00 -0.00000000000E+00 -0.78540513915E+03  0.78540513917E+03  0.50400000000E-02 0.  1.
    8880022    1    1    2    0    0 -0.69155746350E+03  0.66317957210E+03 -0.18844054158E+03  0.98841305177E+03  0.15294330000E+03 0.  0.
    8880022    1    1    2    0    0  0.69155746350E+03 -0.66317957210E+03  0.99788718346E+03  0.13918438684E+04  0.15294330000E+03 0.  0.
<mgrwt>
<rscale>  0 0.97028373E+03</rscale>
<asrwt>0</asrwt>
<pdfrwt beam="1">  1        1 0.24536181E+00 0.97028373E+03</pdfrwt>
<pdfrwt beam="2">  1       -1 0.12083156E+00 0.97028373E+03</pdfrwt>
<totfact> 0.34594348E+00</totfact>
</mgrwt>
</event>
<event>
 4    1  0.2731969E-009  0.3255645E+03  0.7818608E-02  0.1073116E+00
          1   -1    0    0  501    0  0.00000000000E+00  0.00000000000E+00  0.41119063057E+03  0.41119063060E+03  0.50400000000E-02 0. -1.
         -1   -1    0    0    0  501 -0.00000000000E+00 -0.00000000000E+00 -0.45814899370E+03  0.45814899373E+03  0.50400000000E-02 0.  1.
    8880022    1    1    2    0    0 -0.36320868738E+02  0.28509895715E+03  0.26398457022E+03  0.41914213245E+03  0.15294330000E+03 0.  0.
    8880022    1    1    2    0    0  0.36320868738E+02 -0.28509895715E+03 -0.31094293335E+03  0.45019749187E+03  0.15294330000E+03 0.  0.
<mgrwt>
<rscale>  0 0.32556455E+03</rscale>
<asrwt>0</asrwt>
<pdfrwt beam="1">  1        1 0.63260097E-01 0.32556455E+03</pdfrwt>
<pdfrwt beam="2">  1       -1 0.70484461E-01 0.32556455E+03</pdfrwt>
<totfact> 0.12399959E+02</totfact>
</mgrwt>
</event>
<event>
 4    1  0.2731969E-009  0.9557616E+03  0.7818608E-02  0.9358441E-01
         -1   -1    0    0    0  501 -0.00000000000E+00  0.00000000000E+00  0.12711705940E+04  0.12711705940E+04  0.50400000000E-02 0.  1.
          1   -1    0    0  501    0  0.00000000000E+00 -0.00000000000E+00 -0.98254786287E+03  0.98254786288E+03  0.50400000000E-02 0. -1.
    8880022    1    1    2    0    0  0.86444226359E+03 -0.37792620648E+03  0.72834896890E+03  0.12016540759E+04  0.15294330000E+03 0.  0.
    8880022    1    1    2    0    0 -0.86444226359E+03  0.37792620648E+03 -0.43972623775E+03  0.10520643810E+04  0.15294330000E+03 0. -1.
<mgrwt>
<rscale>  0 0.95576163E+03</rscale>
<asrwt>0</asrwt>
<pdfrwt beam="1">  1        1 0.15116121E+00 0.95576163E+03</pdfrwt>
<pdfrwt beam="2">  1       -1 0.19556471E+00 0.95576163E+03</pdfrwt>
<totfact> 0.25475296E+00</totfact>
</mgrwt>
</event>
<event>
 4    1  0.2731969E-009  0.7001496E+03  0.7818608E-02  0.9716976E-01
         -1   -1    0    0    0  501 -0.00000000000E+00  0.00000000000E+00  0.92239574707E+03  0.92239574708E+03  0.50400000000E-02 0.  1.
          1   -1    0    0  501    0  0.00000000000E+00 -0.00000000000E+00 -0.17160217584E+04  0.17160217584E+04  0.50400000000E-02 0. -1.
    8880022    1    1    2    0    0  0.66532832382E+03 -0.15542202989E+03  0.69924206398E+03  0.98951953134E+03  0.15294330000E+03 0.  0.
    8880022    1    1    2    0    0 -0.66532832382E+03  0.15542202989E+03 -0.14928680753E+04  0.16488979741E+04  0.15294330000E+03 0.  0.
<mgrwt>
<rscale>  0 0.70014958E+03</rscale>
<asrwt>0</asrwt>
<pdfrwt beam="1">  1        1 0.26400335E+00 0.70014958E+03</pdfrwt>
<pdfrwt beam="2">  1       -1 0.14190704E+00 0.70014958E+03</pdfrwt>
<totfact> 0.19940673E+00</totfact>
</mgrwt>
</event>
<event>
 4    1  0.2731969E-009  0.1255957E+04  0.7818608E-02  0.9065240E-01
         -1   -1    0    0    0  501 -0.00000000000E+00  0.00000000000E+00  0.10045534741E+04  0.10045534741E+04  0.50400000000E-02 0.  1.
          1   -1    0    0  501    0  0.00000000000E+00 -0.00000000000E+00 -0.21731328216E+04  0.21731328216E+04  0.50400000000E-02 0. -1.
    8880022    1    1    2    0    0  0.35906399868E+03  0.11937797960E+04 -0.14211327895E+04  0.18965883093E+04  0.15294330000E+03 0. -1.
    8880022    1    1    2    0    0 -0.35906399868E+03 -0.11937797960E+04  0.25255344203E+03  0.12810979863E+04  0.15294330000E+03 0.  0.
<mgrwt>
<rscale>  0 0.12559573E+04</rscale>
<asrwt>0</asrwt>
<pdfrwt beam="1">  1        1 0.33432812E+00 0.12559573E+04</pdfrwt>
<pdfrwt beam="2">  1       -1 0.15454669E+00 0.12559573E+04</pdfrwt>
<totfact> 0.71387026E-01</totfact>
</mgrwt>
</event>
<event>
 4    1  0.2731969E-009  0.4804672E+03  0.7818608E-02  0.1019007E+00
          1   -1    0    0  501    0  0.00000000000E+00  0.00000000000E+00  0.12214672717E+04  0.12214672717E+04  0.50400000000E-02 0. -1.
         -1   -1    0    0    0  501 -0.00000000000E+00 -0.00000000000E+00 -0.16931450722E+04  0.16931450722E+04  0.50400000000E-02 0.  1.
    8880022    1    1    2    0    0  0.45021121651E+03  0.69042849580E+02 -0.16094051103E+04  0.16795932593E+04  0.15294330000E+03 0.  1.
    8880022    1    1    2    0    0 -0.45021121651E+03 -0.69042849580E+02  0.11377273098E+04  0.12350190845E+04  0.15294330000E+03 0.  0.
<mgrwt>
<rscale>  0 0.48046718E+03</rscale>
<asrwt>0</asrwt>
<pdfrwt beam="1">  1        1 0.18791804E+00 0.48046718E+03</pdfrwt>
<pdfrwt beam="2">  1       -1 0.26048386E+00 0.48046718E+03</pdfrwt>
<totfact> 0.69865491E-01</totfact>
</mgrwt>
</event>
<event>
 4    1  0.2731969E-009  0.1052649E+04  0.7818608E-02  0.9252614E-01
         -1   -1    0    0    0  501 -0.00000000000E+00  0.00000000000E+00  0.21029011198E+04  0.21029011198E+04  0.50400000000E-02 0.  1.
          1   -1    0    0  501    0  0.00000000000E+00 -0.00000000000E+00 -0.66342301582E+03  0.66342301584E+03  0.50400000000E-02 0. -1.
    8880022    1    1    2    0    0  0.54012345184E+03 -0.89047421593E+03  0.92342150330E+02  0.10566912502E+04  0.15294330000E+03 0.  0.
    8880022    1    1    2    0    0 -0.54012345184E+03  0.89047421593E+03  0.13471359537E+04  0.17096328855E+04  0.15294330000E+03 0.  0.
<mgrwt>
<rscale>  0 0.10526487E+04</rscale>
<asrwt>0</asrwt>
<pdfrwt beam="1">  1        1 0.10206508E+00 0.10526487E+04</pdfrwt>
<pdfrwt beam="2">  1       -1 0.32352325E+00 0.10526487E+04</pdfrwt>
<totfact> 0.69214977E-01</totfact>
</mgrwt>
</event>
<event>
 4    1  0.2731969E-009  0.1966690E+04  0.7818608E-02  0.8622354E-01
          1   -1    0    0  501    0  0.00000000000E+00  0.00000000000E+00  0.13110481210E+04  0.13110481210E+04  0.50400000000E-02 0. -1.
         -1   -1    0    0    0  501 -0.00000000000E+00 -0.00000000000E+00 -0.38087980791E+04  0.38087980791E+04  0.50400000000E-02 0.  1.
    8880022    1    1    2    0    0  0.18465007648E+04 -0.65948037962E+03 -0.33459859551E+02  0.19669750026E+04  0.15294330000E+03 0.  0.
    8880022    1    1    2    0    0 -0.18465007648E+04  0.65948037962E+03 -0.24642900985E+04  0.31528711975E+04  0.15294330000E+03 0.  0.
<mgrwt>
<rscale>  0 0.19666904E+04</rscale>
<asrwt>0</asrwt>
<pdfrwt beam="1">  1        1 0.20169971E+00 0.19666904E+04</pdfrwt>
<pdfrwt beam="2">  1       -1 0.58596893E+00 0.19666904E+04</pdfrwt>
<totfact> 0.39123004E-03</totfact>
</mgrwt>
</event>
<event>
 4    1  0.2731969E-009  0.6373529E+03  0.7818608E-02  0.9830804E-01
          1   -1    0    0  501    0  0.00000000000E+00  0.00000000000E+00  0.15607907000E+04  0.15607907000E+04  0.50400000000E-02 0. -1.
         -1   -1    0    0    0  501 -0.00000000000E+00 -0.00000000000E+00 -0.41926034469E+03  0.41926034472E+03  0.50400000000E-02 0.  1.
    8880022    1    1    2    0    0 -0.30981570342E+03 -0.53557568484E+03  0.11804383694E+04  0.13415116404E+04  0.15294330000E+03 0.  0.
    8880022    1    1    2    0    0  0.30981570342E+03  0.53557568484E+03 -0.38908014126E+02  0.63853940431E+03  0.15294330000E+03 0.  0.
<mgrwt>
<rscale>  0 0.63735291E+03</rscale>
<asrwt>0</asrwt>
<pdfrwt beam="1">  1        1 0.24012165E+00 0.63735291E+03</pdfrwt>
<pdfrwt beam="2">  1       -1 0.64501590E-01 0.63735291E+03</pdfrwt>
<totfact> 0.15269259E+01</totfact>
</mgrwt>
</event>
<event>
 4    1  0.2731969E-009  0.4607601E+03  0.7818608E-02  0.1024561E+00
         -1   -1    0    0    0  501 -0.00000000000E+00  0.00000000000E+00  0.11327929092E+03  0.11327929104E+03  0.50400000000E-02 0.  1.
          1   -1    0    0  501    0  0.00000000000E+00 -0.00000000000E+00 -0.46634207189E+04  0.46634207189E+04  0.50400000000E-02 0. -1.
    8880022    1    1    2    0    0 -0.44483577820E+02 -0.43235338953E+03 -0.41221805305E+04  0.41478515187E+04  0.15294330000E+03 0.  0.
    8880022    1    1    2    0    0  0.44483577820E+02  0.43235338953E+03 -0.42796089744E+03  0.62884849120E+03  0.15294330000E+03 0.  0.
<mgrwt>
<rscale>  0 0.46076013E+03</rscale>
<asrwt>0</asrwt>
<pdfrwt beam="1">  1        1 0.71744919E+00 0.46076013E+03</pdfrwt>
<pdfrwt beam="2">  1       -1 0.17427587E-01 0.46076013E+03</pdfrwt>
<totfact> 0.69140360E-01</totfact>
</mgrwt>
</event>
<event>
 4    1  0.2731969E-009  0.7312127E+03  0.7818608E-02  0.9665295E-01
         -1   -1    0    0    0  501 -0.00000000000E+00  0.00000000000E+00  0.44734052231E+03  0.44734052234E+03  0.50400000000E-02 0.  1.
          1   -1    0    0  501    0  0.00000000000E+00 -0.00000000000E+00 -0.15918866268E+04  0.15918866268E+04  0.50400000000E-02 0. -1.
    8880022    1    1    2    0    0  0.59729120239E+03  0.39309481701E+03 -0.63305168349E+02  0.73394789527E+03  0.15294330000E+03 0.  0.
    8880022    1    1    2    0    0 -0.59729120239E+03 -0.39309481701E+03 -0.10812409362E+04  0.13052792539E+04  0.15294330000E+03 0.  0.
<mgrwt>
<rscale>  0 0.73121267E+03</rscale>
<asrwt>0</asrwt>
<pdfrwt beam="1">  1        1 0.24490563E+00 0.73121267E+03</pdfrwt>
<pdfrwt beam="2">  1       -1 0.68821620E-01 0.73121267E+03</pdfrwt>
<totfact> 0.12575129E+01</totfact>
</mgrwt>
</event>
<event>
 4    1  0.2731969E-009  0.7976303E+03  0.7818608E-02  0.9563454E-01
         -1   -1    0    0    0  501 -0.00000000000E+00  0.00000000000E+00  0.52880277697E+03  0.52880277700E+03  0.50400000000E-02 0.  1.
          1   -1    0    0  501    0  0.00000000000E+00 -0.00000000000E+00 -0.19743980707E+04  0.19743980707E+04  0.50400000000E-02 0. -1.
    8880022    1    1    2    0    0  0.14142576636E+03 -0.76994878515E+03 -0.15050617285E+04  0.17033569323E+04  0.15294330000E+03 0.  0.
    8880022    1    1    2    0    0 -0.14142576636E+03  0.76994878515E+03  0.59466434785E+02  0.79984391541E+03  0.15294330000E+03 0.  0.
<mgrwt>
<rscale>  0 0.79763026E+03</rscale>
<asrwt>0</asrwt>
<pdfrwt beam="1">  1        1 0.30375355E+00 0.79763026E+03</pdfrwt>
<pdfrwt beam="2">  1       -1 0.81354274E-01 0.79763026E+03</pdfrwt>
<totfact> 0.48597175E+00</totfact>
</mgrwt>
</event>
<event>
 4    1  0.2731969E-009  0.3110332E+03  0.7818608E-02  0.1079852E+00
         -1   -1    0    0    0  501 -0.00000000000E+00  0.00000000000E+00  0.34294031782E+03  0.34294031786E+03  0.50400000000E-02 0.  1.
          1   -1    0    0  501    0  0.00000000000E+00 -0.00000000000E+00 -0.52195595990E+03  0.52195595992E+03  0.50400000000E-02 0. -1.
    8880022    1    1    2    0    0 -0.61194676458E+02 -0.26382804154E+03 -0.38266266573E+03  0.49312512883E+03  0.15294330000E+03 0.  0.
    8880022    1    1    2    0    0  0.61194676458E+02  0.26382804154E+03  0.20364702365E+03  0.37177114895E+03  0.15294330000E+03 0.  0.
<mgrwt>
<rscale>  0 0.31103324E+03</rscale>
<asrwt>0</asrwt>
<pdfrwt beam="1">  1        1 0.80300917E-01 0.31103324E+03</pdfrwt>
<pdfrwt beam="2">  1       -1 0.52760049E-01 0.31103324E+03</pdfrwt>
<totfact> 0.15916607E+02</totfact>
</mgrwt>
</event>
<event>
 4    1  0.2731969E-009  0.6270607E+03  0.7818608E-02  0.9850801E-01
         -1   -1    0    0    0  501 -0.00000000000E+00  0.00000000000E+00  0.34781631467E+03  0.34781631471E+03  0.50400000000E-02 0.  1.
          1   -1    0    0  501    0  0.00000000000E+00 -0.00000000000E+00 -0.16930227538E+04  0.16930227538E+04  0.50400000000E-02 0. -1.
    8880022    1    1    2    0    0 -0.27971769251E+03  0.53997358419E+03 -0.12607947686E+04  0.14081223529E+04  0.15294330000E+03 0.  0.
    8880022    1    1    2    0    0  0.27971769251E+03 -0.53997358419E+03 -0.84411670529E+02  0.63271671565E+03  0.15294330000E+03 0.  0.
<mgrwt>
<rscale>  0 0.62706069E+03</rscale>
<asrwt>0</asrwt>
<pdfrwt beam="1">  1        1 0.26046503E+00 0.62706069E+03</pdfrwt>
<pdfrwt beam="2">  1       -1 0.53510203E-01 0.62706069E+03</pdfrwt>
<totfact> 0.17953988E+01</totfact>
</mgrwt>
</event>
<event>
 4    1  0.2731969E-009  0.9703610E+03  0.7818608E-02  0.9341663E-01
          1   -1    0    0  501    0  0.00000000000E+00  0.00000000000E+00  0.24001095113E+04  0.24001095113E+04  0.50400000000E-02 0. -1.
         -1   -1    0    0    0  501 -0.00000000000E+00 -0.00000000000E+00 -0.66524085816E+03  0.66524085817E+03  0.50400000000E-02 0.  1.
    8880022    1    1    2    0    0 -0.14244895016E+03  0.94758485251E+03 -0.11427412794E+03  0.97706652048E+03  0.15294330000E+03 0.  0.
    8880022    1    1    2    0    0  0.14244895016E+03 -0.94758485251E+03  0.18491427811E+04  0.20882838490E+04  0.15294330000E+03 0.  0.
<mgrwt>
<rscale>  0 0.97036097E+03</rscale>
<asrwt>0</asrwt>
<pdfrwt beam="1">  1        1 0.36924761E+00 0.97036097E+03</pdfrwt>
<pdfrwt beam="2">  1       -1 0.10234475E+00 0.97036097E+03</pdfrwt>
<totfact> 0.14663811E+00</totfact>
</mgrwt>
</event>
<event>
 4    1  0.2731969E-009  0.8878201E+03  0.7818608E-02  0.9440936E-01
          1   -1    0    0  501    0  0.00000000000E+00  0.00000000000E+00  0.13320425793E+04  0.13320425793E+04  0.50400000000E-02 0. -1.
         -1   -1    0    0    0  501 -0.00000000000E+00 -0.00000000000E+00 -0.95741947564E+03  0.95741947565E+03  0.50400000000E-02 0.  1.
    8880022    1    1    2    0    0 -0.26841279028E+02  0.87413529002E+03 -0.52014837390E+03  0.10289698457E+04  0.15294330000E+03 0.  0.
    8880022    1    1    2    0    0  0.26841279028E+02 -0.87413529002E+03  0.89477147759E+03  0.12604922093E+04  0.15294330000E+03 0.  0.
<mgrwt>
<rscale>  0 0.88782015E+03</rscale>
<asrwt>0</asrwt>
<pdfrwt beam="1">  1        1 0.20492963E+00 0.88782015E+03</pdfrwt>
<pdfrwt beam="2">  1       -1 0.14729530E+00 0.88782015E+03</pdfrwt>
<totfact> 0.32060507E+00</totfact>
</mgrwt>
</event>
<event>
 4    1  0.2731969E-009  0.1412726E+04  0.7818608E-02  0.8944658E-01
          1   -1    0    0  501    0  0.00000000000E+00  0.00000000000E+00  0.11010697625E+04  0.11010697625E+04  0.50400000000E-02 0. -1.
         -1   -1    0    0    0  501 -0.00000000000E+00 -0.00000000000E+00 -0.19999933348E+04  0.19999933348E+04  0.50400000000E-02 0.  1.
    8880022    1    1    2    0    0  0.11359196754E+04  0.82588703086E+03  0.25160515074E+02  0.14129499642E+04  0.15294330000E+03 0.  0.
    8880022    1    1    2    0    0 -0.11359196754E+04 -0.82588703086E+03 -0.92408408735E+03  0.16881131331E+04  0.15294330000E+03 0.  0.
<mgrwt>
<rscale>  0 0.14127259E+04</rscale>
<asrwt>0</asrwt>
<pdfrwt beam="1">  1        1 0.16939535E+00 0.14127259E+04</pdfrwt>
<pdfrwt beam="2">  1       -1 0.30769128E+00 0.14127259E+04</pdfrwt>
<totfact> 0.35742490E-01</totfact>
</mgrwt>
</event>
<event>
 4    1  0.2731969E-009  0.6361903E+03  0.7818608E-02  0.9833043E-01
         -1   -1    0    0    0  501 -0.00000000000E+00  0.00000000000E+00  0.35960191765E+03  0.35960191768E+03  0.50400000000E-02 0.  1.
          1   -1    0    0  501    0  0.00000000000E+00 -0.00000000000E+00 -0.33422939663E+04  0.33422939663E+04  0.50400000000E-02 0. -1.
    8880022    1    1    2    0    0 -0.55878862253E+03 -0.26287215834E+03  0.16069073854E+02  0.63639324670E+03  0.15294330000E+03 0.  1.
    8880022    1    1    2    0    0  0.55878862253E+03  0.26287215834E+03 -0.29987611225E+04  0.30655026373E+04  0.15294330000E+03 0.  0.
<mgrwt>
<rscale>  0 0.63619034E+03</rscale>
<asrwt>0</asrwt>
<pdfrwt beam="1">  1        1 0.51419905E+00 0.63619034E+03</pdfrwt>
<pdfrwt beam="2">  1       -1 0.55323374E-01 0.63619034E+03</pdfrwt>
<totfact> 0.12227260E+00</totfact>
</mgrwt>
</event>
<event>
 4    1  0.2731969E-009  0.4011446E+03  0.7818608E-02  0.1043384E+00
          1   -1    0    0  501    0  0.00000000000E+00  0.00000000000E+00  0.33811482389E+03  0.33811482392E+03  0.50400000000E-02 0. -1.
         -1   -1    0    0    0  501 -0.00000000000E+00 -0.00000000000E+00 -0.11341405304E+04  0.11341405305E+04  0.50400000000E-02 0.  1.
    8880022    1    1    2    0    0  0.19417314785E+03 -0.31594634677E+03 -0.95880781711E+03  0.10393408433E+04  0.15294330000E+03 0.  0.
    8880022    1    1    2    0    0 -0.19417314785E+03  0.31594634677E+03  0.16278211055E+03  0.43291451109E+03  0.15294330000E+03 0. -1.
<mgrwt>
<rscale>  0 0.40114456E+03</rscale>
<asrwt>0</asrwt>
<pdfrwt beam="1">  1        1 0.52017666E-01 0.40114456E+03</pdfrwt>
<pdfrwt beam="2">  1       -1 0.17448316E+00 0.40114456E+03</pdfrwt>
<totfact> 0.18458768E+01</totfact>
</mgrwt>
</event>
<event>
 4    1  0.2731969E-009  0.9530073E+03  0.7818608E-02  0.9361642E-01
          1   -1    0    0  501    0  0.00000000000E+00  0.00000000000E+00  0.27727248629E+04  0.27727248629E+04  0.50400000000E-02 0. -1.
         -1   -1    0    0    0  501 -0.00000000000E+00 -0.00000000000E+00 -0.33960864976E+03  0.33960864979E+03  0.50400000000E-02 0.  1.
    8880022    1    1    2    0    0  0.80255571179E+03 -0.49064811473E+03  0.15097193335E+04  0.17853502071E+04  0.15294330000E+03 0.  0.
    8880022    1    1    2    0    0 -0.80255571179E+03  0.49064811473E+03  0.92339687962E+03  0.13269833056E+04  0.15294330000E+03 0.  0.
<mgrwt>
<rscale>  0 0.95300729E+03</rscale>
<asrwt>0</asrwt>
<pdfrwt beam="1">  1        1 0.42657304E+00 0.95300729E+03</pdfrwt>
<pdfrwt beam="2">  1       -1 0.52247486E-01 0.95300729E+03</pdfrwt>
<totfact> 0.33136276E+00</totfact>
</mgrwt>
</event>
<event>
 4    1  0.2731969E-009  0.4098787E+03  0.7818608E-02  0.1040412E+00
          1   -1    0    0  501    0  0.00000000000E+00  0.00000000000E+00  0.21275825061E+03  0.21275825067E+03  0.50400000000E-02 0. -1.
         -1   -1    0    0    0  501 -0.00000000000E+00 -0.00000000000E+00 -0.12682265696E+04  0.12682265696E+04  0.50400000000E-02 0.  1.
    8880022    1    1    2    0    0  0.12635341499E+03 -0.35866936562E+03 -0.98262420683E+03  0.10646834667E+04  0.15294330000E+03 0.  0.
    8880022    1    1    2    0    0 -0.12635341499E+03  0.35866936562E+03 -0.72844112124E+02  0.41630135359E+03  0.15294330000E+03 0.  0.
<mgrwt>
<rscale>  0 0.40987870E+03</rscale>
<asrwt>0</asrwt>
<pdfrwt beam="1">  1        1 0.32732039E-01 0.40987870E+03</pdfrwt>
<pdfrwt beam="2">  1       -1 0.19511178E+00 0.40987870E+03</pdfrwt>
<totfact> 0.23917560E+01</totfact>
</mgrwt>
</event>
<event>
 4    1  0.2731969E-009  0.9948320E+03  0.7818608E-02  0.9314231E-01
         -1   -1    0    0    0  501 -0.00000000000E+00  0.00000000000E+00  0.11215667922E+04  0.11215667922E+04  0.50400000000E-02 0.  1.
          1   -1    0    0  501    0  0.00000000000E+00 -0.00000000000E+00 -0.10511089148E+04  0.10511089148E+04  0.50400000000E-02 0. -1.
    8880022    1    1    2    0    0 -0.58564833459E+03 -0.78950306493E+03 -0.39996908324E+03  0.10722247814E+04  0.15294330000E+03 0.  0.
    8880022    1    1    2    0    0  0.58564833459E+03  0.78950306493E+03  0.47042696068E+03  0.11004509256E+04  0.15294330000E+03 0.  0.
<mgrwt>
<rscale>  0 0.99483200E+03</rscale>
<asrwt>0</asrwt>
<pdfrwt beam="1">  1        1 0.16170906E+00 0.99483200E+03</pdfrwt>
<pdfrwt beam="2">  1       -1 0.17254874E+00 0.99483200E+03</pdfrwt>
<totfact> 0.32681789E+00</totfact>
</mgrwt>
</event>
<event>
 4    1  0.2731969E-009  0.1614846E+03  0.7818608E-02  0.1187031E+00
         -1   -1    0    0    0  501 -0.00000000000E+00  0.00000000000E+00  0.42055085167E+02  0.42055085469E+02  0.50400000000E-02 0.  1.
          1   -1    0    0  501    0  0.00000000000E+00 -0.00000000000E+00 -0.16281085421E+04  0.16281085421E+04  0.50400000000E-02 0. -1.
    8880022    1    1    2    0    0  0.10439511849E+02  0.50760534678E+02 -0.14501170017E+04  0.14590807335E+04  0.15294330000E+03 0.  0.
    8880022    1    1    2    0    0 -0.10439511849E+02 -0.50760534678E+02 -0.13593645523E+03  0.21108289406E+03  0.15294330000E+03 0.  0.
<mgrwt>
<rscale>  0 0.16148458E+03</rscale>
<asrwt>0</asrwt>
<pdfrwt beam="1">  1        1 0.25047819E+00 0.16148458E+03</pdfrwt>
<pdfrwt beam="2">  1       -1 0.64700144E-02 0.16148458E+03</pdfrwt>
<totfact> 0.71190441E+02</totfact>
</mgrwt>
</event>
<event>
 4    1  0.5101286E-009  0.2239829E+04  0.7818608E-02  0.8502031E-01
         -1   -1    0    0    0  501 -0.00000000000E+00  0.00000000000E+00  0.29070181001E+04  0.29070181001E+04  0.50400000000E-02 0.  1.
          1   -1    0    0  501    0  0.00000000000E+00 -0.00000000000E+00 -0.26484262305E+04  0.26484262305E+04  0.50400000000E-02 0. -1.
    8880022    1    1    2    0    0 -0.18978338019E+04 -0.11796897480E+04 -0.15102205567E+04  0.27014068231E+04  0.15294330000E+03 0.  0.
    8880022    1    1    2    0    0  0.18978338019E+04  0.11796897480E+04  0.17688124263E+04  0.28540375074E+04  0.15294330000E+03 0.  0.
<mgrwt>
<rscale>  0 0.22398287E+04</rscale>
<asrwt>0</asrwt>
<pdfrwt beam="1">  1        1 0.40745019E+00 0.22398287E+04</pdfrwt>
<pdfrwt beam="2">  1       -1 0.44723355E+00 0.22398287E+04</pdfrwt>
<totfact> 0.30859401E-03</totfact>
</mgrwt>
</event>
<event>
 4    1  0.2731969E-009  0.5461861E+03  0.7818608E-02  0.1002381E+00
         -1   -1    0    0    0  501 -0.00000000000E+00  0.00000000000E+00  0.52955736601E+03  0.52955736604E+03  0.50400000000E-02 0.  1.
          1   -1    0    0  501    0  0.00000000000E+00 -0.00000000000E+00 -0.13357153544E+04  0.13357153544E+04  0.50400000000E-02 0. -1.
    8880022    1    1    2    0    0  0.25306196010E+03 -0.45922457042E+03 -0.11122818145E+04  0.12391489215E+04  0.15294330000E+03 0.  0.
    8880022    1    1    2    0    0 -0.25306196010E+03  0.45922457042E+03  0.30612382610E+03  0.62612379898E+03  0.15294330000E+03 0.  0.
<mgrwt>
<rscale>  0 0.54618606E+03</rscale>
<asrwt>0</asrwt>
<pdfrwt beam="1">  1        1 0.20549467E+00 0.54618606E+03</pdfrwt>
<pdfrwt beam="2">  1       -1 0.81470365E-01 0.54618606E+03</pdfrwt>
<totfact> 0.13692711E+01</totfact>
</mgrwt>
</event>
<event>
 4    1  0.2731969E-009  0.5944441E+03  0.7818608E-02  0.9917000E-01
          1   -1    0    0  501    0  0.00000000000E+00  0.00000000000E+00  0.10955102082E+04  0.10955102082E+04  0.50400000000E-02 0. -1.
         -1   -1    0    0    0  501 -0.00000000000E+00 -0.00000000000E+00 -0.12762808758E+04  0.12762808758E+04  0.50400000000E-02 0.  1.
    8880022    1    1    2    0    0 -0.21688758728E+02 -0.57402239085E+03  0.93475845329E+03  0.11077622157E+04  0.15294330000E+03 0.  0.
    8880022    1    1    2    0    0  0.21688758728E+02  0.57402239085E+03 -0.11155291208E+04  0.12640288683E+04  0.15294330000E+03 0.  0.
<mgrwt>
<rscale>  0 0.59444408E+03</rscale>
<asrwt>0</asrwt>
<pdfrwt beam="1">  1        1 0.16854003E+00 0.59444408E+03</pdfrwt>
<pdfrwt beam="2">  1       -1 0.19635090E+00 0.59444408E+03</pdfrwt>
<totfact> 0.21960142E+00</totfact>
</mgrwt>
</event>
<event>
 4    1  0.2731969E-009  0.7915780E+03  0.7818608E-02  0.9572288E-01
          1   -1    0    0  501    0  0.00000000000E+00  0.00000000000E+00  0.24202705798E+04  0.24202705798E+04  0.50400000000E-02 0. -1.
         -1   -1    0    0    0  501 -0.00000000000E+00 -0.00000000000E+00 -0.88981831211E+03  0.88981831213E+03  0.50400000000E-02 0.  1.
    8880022    1    1    2    0    0  0.55831019085E+03 -0.53990173535E+03  0.21588555338E+04  0.22994027533E+04  0.15294330000E+03 0.  0.
    8880022    1    1    2    0    0 -0.55831019085E+03  0.53990173535E+03 -0.62840326609E+03  0.10106861387E+04  0.15294330000E+03 0.  0.
<mgrwt>
<rscale>  0 0.79157805E+03</rscale>
<asrwt>0</asrwt>
<pdfrwt beam="1">  1        1 0.37234932E+00 0.79157805E+03</pdfrwt>
<pdfrwt beam="2">  1       -1 0.13689512E+00 0.79157805E+03</pdfrwt>
<totfact> 0.72331545E-01</totfact>
</mgrwt>
</event>
<event>
 4    1  0.2731969E-009  0.7223188E+03  0.7818608E-02  0.9679807E-01
          1   -1    0    0  501    0  0.00000000000E+00  0.00000000000E+00  0.23310332506E+04  0.23310332506E+04  0.50400000000E-02 0. -1.
         -1   -1    0    0    0  501 -0.00000000000E+00 -0.00000000000E+00 -0.41679112944E+03  0.41679112947E+03  0.50400000000E-02 0.  1.
    8880022    1    1    2    0    0 -0.68461952708E+03  0.17218863221E+03  0.18919665217E+04  0.20251621649E+04  0.15294330000E+03 0.  0.
    8880022    1    1    2    0    0  0.68461952708E+03 -0.17218863221E+03  0.22275599492E+02  0.72266221519E+03  0.15294330000E+03 0.  1.
<mgrwt>
<rscale>  0 0.72231882E+03</rscale>
<asrwt>0</asrwt>
<pdfrwt beam="1">  1        1 0.35862050E+00 0.72231882E+03</pdfrwt>
<pdfrwt beam="2">  1       -1 0.64121712E-01 0.72231882E+03</pdfrwt>
<totfact> 0.46397270E+00</totfact>
</mgrwt>
</event>
<event>
 4    1  0.2731969E-009  0.4774561E+03  0.7818608E-02  0.1019837E+00
          1   -1    0    0  501    0  0.00000000000E+00  0.00000000000E+00  0.83492569185E+03  0.83492569187E+03  0.50400000000E-02 0. -1.
         -1   -1    0    0    0  501 -0.00000000000E+00 -0.00000000000E+00 -0.14870525546E+04  0.14870525546E+04  0.50400000000E-02 0.  1.
    8880022    1    1    2    0    0  0.44385168315E+03 -0.86996368814E+02 -0.13750680242E+04  0.14556017343E+04  0.15294330000E+03 0.  0.
    8880022    1    1    2    0    0 -0.44385168315E+03  0.86996368814E+02  0.72294116146E+03  0.86637651213E+03  0.15294330000E+03 0.  0.
<mgrwt>
<rscale>  0 0.47745611E+03</rscale>
<asrwt>0</asrwt>
<pdfrwt beam="1">  1        1 0.12845011E+00 0.47745611E+03</pdfrwt>
<pdfrwt beam="2">  1       -1 0.22877732E+00 0.47745611E+03</pdfrwt>
<totfact> 0.22004539E+00</totfact>
</mgrwt>
</event>
<event>
 4    1  0.2731969E-009  0.6258626E+03  0.7818608E-02  0.9853156E-01
         -1   -1    0    0    0  501 -0.00000000000E+00  0.00000000000E+00  0.44675473724E+03  0.44675473727E+03  0.50400000000E-02 0.  1.
          1   -1    0    0  501    0  0.00000000000E+00 -0.00000000000E+00 -0.19412115511E+04  0.19412115511E+04  0.50400000000E-02 0. -1.
    8880022    1    1    2    0    0 -0.46167134310E+03  0.39391870817E+03  0.13691223985E+03  0.64066293175E+03  0.15294330000E+03 0.  0.
    8880022    1    1    2    0    0  0.46167134310E+03 -0.39391870817E+03 -0.16313690537E+04  0.17473033567E+04  0.15294330000E+03 0. -1.
<mgrwt>
<rscale>  0 0.62586263E+03</rscale>
<asrwt>0</asrwt>
<pdfrwt beam="1">  1        1 0.29864793E+00 0.62586263E+03</pdfrwt>
<pdfrwt beam="2">  1       -1 0.68731499E-01 0.62586263E+03</pdfrwt>
<totfact> 0.74918200E+00</totfact>
</mgrwt>
</event>
<event>
 4    1  0.2731969E-009  0.5445613E+03  0.7818608E-02  0.1002761E+00
          1   -1    0    0  501    0  0.00000000000E+00  0.00000000000E+00  0.16435321892E+04  0.16435321892E+04  0.50400000000E-02 0. -1.
         -1   -1    0    0    0  501 -0.00000000000E+00 -0.00000000000E+00 -0.44924431583E+03  0.44924431586E+03  0.50400000000E-02 0.  1.
    8880022    1    1    2    0    0 -0.51478309759E+03 -0.90297646019E+02  0.14065669969E+04  0.15083029113E+04  0.15294330000E+03 0. -1.
    8880022    1    1    2    0    0  0.51478309759E+03  0.90297646019E+02 -0.21227912357E+03  0.58447359372E+03  0.15294330000E+03 0.  0.
<mgrwt>
<rscale>  0 0.54456125E+03</rscale>
<asrwt>0</asrwt>
<pdfrwt beam="1">  1        1 0.25285110E+00 0.54456125E+03</pdfrwt>
<pdfrwt beam="2">  1       -1 0.69114510E-01 0.54456125E+03</pdfrwt>
<totfact> 0.11891253E+01</totfact>
</mgrwt>
</event>
<event>
 4    1  0.2731969E-009  0.5305241E+03  0.7818608E-02  0.1006105E+00
          1   -1    0    0  501    0  0.00000000000E+00  0.00000000000E+00  0.49151885188E+03  0.49151885191E+03  0.50400000000E-02 0. -1.
         -1   -1    0    0    0  501 -0.00000000000E+00 -0.00000000000E+00 -0.89502580807E+03  0.89502580809E+03  0.50400000000E-02 0.  1.
    8880022    1    1    2    0    0 -0.98095170802E+02  0.49843909530E+03  0.21433370089E+03  0.57218422087E+03  0.15294330000E+03 0.  0.
    8880022    1    1    2    0    0  0.98095170802E+02 -0.49843909530E+03 -0.61784065708E+03  0.81436043913E+03  0.15294330000E+03 0.  0.
<mgrwt>
<rscale>  0 0.53052413E+03</rscale>
<asrwt>0</asrwt>
<pdfrwt beam="1">  1        1 0.75618285E-01 0.53052413E+03</pdfrwt>
<pdfrwt beam="2">  1       -1 0.13769628E+00 0.53052413E+03</pdfrwt>
<totfact> 0.20950820E+01</totfact>
</mgrwt>
</event>
<event>
 4    1  0.2731969E-009  0.2551356E+03  0.7818608E-02  0.1110102E+00
          1   -1    0    0  501    0  0.00000000000E+00  0.00000000000E+00  0.26208932007E+04  0.26208932007E+04  0.50400000000E-02 0. -1.
         -1   -1    0    0    0  501 -0.00000000000E+00 -0.00000000000E+00 -0.46436088227E+02  0.46436088500E+02  0.50400000000E-02 0.  1.
    8880022    1    1    2    0    0 -0.12270802905E+02 -0.20384293784E+03  0.37765002840E+03  0.45575619894E+03  0.15294330000E+03 0.  0.
    8880022    1    1    2    0    0  0.12270802905E+02  0.20384293784E+03  0.21968070841E+04  0.22115730903E+04  0.15294330000E+03 0.  0.
<mgrwt>
<rscale>  0 0.25513559E+03</rscale>
<asrwt>0</asrwt>
<pdfrwt beam="1">  1        1 0.40321435E+00 0.25513559E+03</pdfrwt>
<pdfrwt beam="2">  1       -1 0.71440134E-02 0.25513559E+03</pdfrwt>
<totfact> 0.13552775E+02</totfact>
</mgrwt>
</event>
<event>
 4    1  0.2731969E-009  0.9921539E+03  0.7818608E-02  0.9317192E-01
          1   -1    0    0  501    0  0.00000000000E+00  0.00000000000E+00  0.73836188848E+03  0.73836188849E+03  0.50400000000E-02 0. -1.
         -1   -1    0    0    0  501 -0.00000000000E+00 -0.00000000000E+00 -0.13826070515E+04  0.13826070515E+04  0.50400000000E-02 0.  1.
    8880022    1    1    2    0    0  0.76791291776E+03 -0.60933357721E+03 -0.52263313372E+03  0.11213896303E+04  0.15294330000E+03 0.  0.
    8880022    1    1    2    0    0 -0.76791291776E+03  0.60933357721E+03 -0.12161202929E+03  0.99957930964E+03  0.15294330000E+03 0.  0.
<mgrwt>
<rscale>  0 0.99215387E+03</rscale>
<asrwt>0</asrwt>
<pdfrwt beam="1">  1        1 0.11359414E+00 0.99215387E+03</pdfrwt>
<pdfrwt beam="2">  1       -1 0.21270878E+00 0.99215387E+03</pdfrwt>
<totfact> 0.31106862E+00</totfact>
</mgrwt>
</event>
<event>
 4    1  0.2731969E-009  0.9446259E+03  0.7818608E-02  0.9371454E-01
         -1   -1    0    0    0  501 -0.00000000000E+00  0.00000000000E+00  0.11710356162E+04  0.11710356162E+04  0.50400000000E-02 0.  1.
          1   -1    0    0  501    0  0.00000000000E+00 -0.00000000000E+00 -0.10229188058E+04  0.10229188058E+04  0.50400000000E-02 0. -1.
    8880022    1    1    2    0    0 -0.16889582151E+03 -0.91673363727E+03 -0.47997713192E+03  0.10595735276E+04  0.15294330000E+03 0.  0.
    8880022    1    1    2    0    0  0.16889582151E+03  0.91673363727E+03  0.62809394235E+03  0.11343808944E+04  0.15294330000E+03 0.  0.
<mgrwt>
<rscale>  0 0.94462586E+03</rscale>
<asrwt>0</asrwt>
<pdfrwt beam="1">  1        1 0.15737212E+00 0.94462586E+03</pdfrwt>
<pdfrwt beam="2">  1       -1 0.18015932E+00 0.94462586E+03</pdfrwt>
<totfact> 0.30459453E+00</totfact>
</mgrwt>
</event>
<event>
 4    1  0.2731969E-009  0.1134727E+04  0.7818608E-02  0.9171990E-01
          1   -1    0    0  501    0  0.00000000000E+00  0.00000000000E+00  0.15630187626E+04  0.15630187626E+04  0.50400000000E-02 0. -1.
         -1   -1    0    0    0  501 -0.00000000000E+00 -0.00000000000E+00 -0.10956545244E+04  0.10956545244E+04  0.50400000000E-02 0.  1.
    8880022    1    1    2    0    0 -0.92035504493E+03  0.64587910541E+03 -0.42849098815E+03  0.12129342140E+04  0.15294330000E+03 0.  0.
    8880022    1    1    2    0    0  0.92035504493E+03 -0.64587910541E+03  0.89585522642E+03  0.14457390730E+04  0.15294330000E+03 0.  0.
<mgrwt>
<rscale>  0 0.11347268E+04</rscale>
<asrwt>0</asrwt>
<pdfrwt beam="1">  1        1 0.24046442E+00 0.11347268E+04</pdfrwt>
<pdfrwt beam="2">  1       -1 0.16856223E+00 0.11347268E+04</pdfrwt>
<totfact> 0.14745339E+00</totfact>
</mgrwt>
</event>
<event>
 4    1  0.2731969E-009  0.1301930E+04  0.7818608E-02  0.9028036E-01
          1   -1    0    0  501    0  0.00000000000E+00  0.00000000000E+00  0.17577874167E+04  0.17577874167E+04  0.50400000000E-02 0. -1.
         -1   -1    0    0    0  501 -0.00000000000E+00 -0.00000000000E+00 -0.10738112033E+04  0.10738112033E+04  0.50400000000E-02 0.  1.
    8880022    1    1    2    0    0 -0.12834842085E+04 -0.15587897778E+03 -0.11016073921E+03  0.13065821867E+04  0.15294330000E+03 0.  0.
    8880022    1    1    2    0    0  0.12834842085E+04  0.15587897778E+03  0.79413695262E+03  0.15250164333E+04  0.15294330000E+03 0.  0.
<mgrwt>
<rscale>  0 0.13019300E+04</rscale>
<asrwt>0</asrwt>
<pdfrwt beam="1">  1        1 0.27042883E+00 0.13019300E+04</pdfrwt>
<pdfrwt beam="2">  1       -1 0.16520173E+00 0.13019300E+04</pdfrwt>
<totfact> 0.11265731E+00</totfact>
</mgrwt>
</event>
<event>
 4    1  0.2731969E-009  0.1305688E+04  0.7818608E-02  0.9025067E-01
         -1   -1    0    0    0  501 -0.00000000000E+00  0.00000000000E+00  0.92816157899E+03  0.92816157900E+03  0.50400000000E-02 0.  1.
          1   -1    0    0  501    0  0.00000000000E+00 -0.00000000000E+00 -0.23963232900E+04  0.23963232900E+04  0.50400000000E-02 0. -1.
    8880022    1    1    2    0    0  0.11116200614E+04 -0.66762975355E+03  0.69152965846E+02  0.13075176612E+04  0.15294330000E+03 0.  0.
    8880022    1    1    2    0    0 -0.11116200614E+04  0.66762975355E+03 -0.15373146768E+04  0.20169672078E+04  0.15294330000E+03 0.  0.
<mgrwt>
<rscale>  0 0.13056877E+04</rscale>
<asrwt>0</asrwt>
<pdfrwt beam="1">  1        1 0.36866512E+00 0.13056877E+04</pdfrwt>
<pdfrwt beam="2">  1       -1 0.14279409E+00 0.13056877E+04</pdfrwt>
<totfact> 0.61840792E-01</totfact>
</mgrwt>
</event>
<event>
 4    1  0.2731969E-009  0.5481020E+03  0.7818608E-02  0.1001934E+00
          1   -1    0    0  501    0  0.00000000000E+00  0.00000000000E+00  0.19687867288E+04  0.19687867288E+04  0.50400000000E-02 0. -1.
         -1   -1    0    0    0  501 -0.00000000000E+00 -0.00000000000E+00 -0.42417256963E+03  0.42417256966E+03  0.50400000000E-02 0.  1.
    8880022    1    1    2    0    0  0.52379606840E+03 -0.51592818308E+02  0.17296896806E+04  0.18144536876E+04  0.15294330000E+03 0.  0.
    8880022    1    1    2    0    0 -0.52379606840E+03  0.51592818308E+02 -0.18507552144E+03  0.57850561088E+03  0.15294330000E+03 0.  0.
<mgrwt>
<rscale>  0 0.54810199E+03</rscale>
<asrwt>0</asrwt>
<pdfrwt beam="1">  1        1 0.30289027E+00 0.54810199E+03</pdfrwt>
<pdfrwt beam="2">  1       -1 0.65257318E-01 0.54810199E+03</pdfrwt>
<totfact> 0.81067886E+00</totfact>
</mgrwt>
</event>
<event>
 4    1  0.2731969E-009  0.9315185E+03  0.7818608E-02  0.9387017E-01
          1   -1    0    0  501    0  0.00000000000E+00  0.00000000000E+00  0.97719064561E+03  0.97719064563E+03  0.50400000000E-02 0. -1.
         -1   -1    0    0    0  501 -0.00000000000E+00 -0.00000000000E+00 -0.14741738928E+04  0.14741738928E+04  0.50400000000E-02 0.  1.
    8880022    1    1    2    0    0  0.40579277545E+03  0.82441933816E+03 -0.10213925712E+04  0.13823781897E+04  0.15294330000E+03 0.  0.
    8880022    1    1    2    0    0 -0.40579277545E+03 -0.82441933816E+03  0.52440932401E+03  0.10689863488E+04  0.15294330000E+03 0.  0.
<mgrwt>
<rscale>  0 0.93151848E+03</rscale>
<asrwt>0</asrwt>
<pdfrwt beam="1">  1        1 0.15033702E+00 0.93151848E+03</pdfrwt>
<pdfrwt beam="2">  1       -1 0.22679598E+00 0.93151848E+03</pdfrwt>
<totfact> 0.15880694E+00</totfact>
</mgrwt>
</event>
<event>
 4    1  0.2731969E-009  0.1407008E+04  0.7818608E-02  0.8948761E-01
         -1   -1    0    0    0  501 -0.00000000000E+00  0.00000000000E+00  0.10984848265E+04  0.10984848265E+04  0.50400000000E-02 0.  1.
          1   -1    0    0  501    0  0.00000000000E+00 -0.00000000000E+00 -0.31314025591E+04  0.31314025591E+04  0.50400000000E-02 0. -1.
    8880022    1    1    2    0    0 -0.13442069214E+04 -0.38650664710E+03 -0.23943903696E+04  0.27771886019E+04  0.15294330000E+03 0.  0.
    8880022    1    1    2    0    0  0.13442069214E+04  0.38650664710E+03  0.36147263691E+03  0.14526987837E+04  0.15294330000E+03 0.  0.
<mgrwt>
<rscale>  0 0.14070079E+04</rscale>
<asrwt>0</asrwt>
<pdfrwt beam="1">  1        1 0.48175424E+00 0.14070079E+04</pdfrwt>
<pdfrwt beam="2">  1       -1 0.16899767E+00 0.14070079E+04</pdfrwt>
<totfact> 0.11529247E-01</totfact>
</mgrwt>
</event>
<event>
 4    1  0.2731969E-009  0.7535590E+03  0.7818608E-02  0.9629783E-01
          1   -1    0    0  501    0  0.00000000000E+00  0.00000000000E+00  0.78151356337E+03  0.78151356339E+03  0.50400000000E-02 0. -1.
         -1   -1    0    0    0  501 -0.00000000000E+00 -0.00000000000E+00 -0.16043815523E+04  0.16043815523E+04  0.50400000000E-02 0.  1.
    8880022    1    1    2    0    0  0.35594727451E+03  0.64634433432E+03 -0.12938221790E+04  0.14972731696E+04  0.15294330000E+03 0.  0.
    8880022    1    1    2    0    0 -0.35594727451E+03 -0.64634433432E+03  0.47095419009E+03  0.88862194600E+03  0.15294330000E+03 0.  0.
<mgrwt>
<rscale>  0 0.75355897E+03</rscale>
<asrwt>0</asrwt>
<pdfrwt beam="1">  1        1 0.12023286E+00 0.75355897E+03</pdfrwt>
<pdfrwt beam="2">  1       -1 0.24682793E+00 0.75355897E+03</pdfrwt>
<totfact> 0.17562099E+00</totfact>
</mgrwt>
</event>
<event>
 4    1  0.2731969E-009  0.7499568E+03  0.7818608E-02  0.9635418E-01
         -1   -1    0    0    0  501 -0.00000000000E+00  0.00000000000E+00  0.78032418216E+03  0.78032418217E+03  0.50400000000E-02 0.  1.
          1   -1    0    0  501    0  0.00000000000E+00 -0.00000000000E+00 -0.16110323095E+04  0.16110323095E+04  0.50400000000E-02 0. -1.
    8880022    1    1    2    0    0 -0.71470369643E+03 -0.16805420242E+03 -0.13041885356E+04  0.15044410849E+04  0.15294330000E+03 0.  0.
    8880022    1    1    2    0    0  0.71470369643E+03  0.16805420242E+03  0.47348040828E+03  0.88691540672E+03  0.15294330000E+03 0.  0.
<mgrwt>
<rscale>  0 0.74995683E+03</rscale>
<asrwt>0</asrwt>
<pdfrwt beam="1">  1        1 0.24785112E+00 0.74995683E+03</pdfrwt>
<pdfrwt beam="2">  1       -1 0.12004987E+00 0.74995683E+03</pdfrwt>
<totfact> 0.35449461E+00</totfact>
</mgrwt>
</event>
<event>
 4    1  0.2731969E-009  0.1818744E+04  0.7818608E-02  0.8696395E-01
         -1   -1    0    0    0  501 -0.00000000000E+00  0.00000000000E+00  0.12029386218E+04  0.12029386218E+04  0.50400000000E-02 0.  1.
          1   -1    0    0  501    0  0.00000000000E+00 -0.00000000000E+00 -0.28557011439E+04  0.28557011439E+04  0.50400000000E-02 0. -1.
    8880022    1    1    2    0    0  0.36052353564E+03  0.17760799947E+04 -0.43557255189E+03  0.18701744486E+04  0.15294330000E+03 0.  0.
    8880022    1    1    2    0    0 -0.36052353564E+03 -0.17760799947E+04 -0.12171899702E+04  0.21884653171E+04  0.15294330000E+03 0.  0.
<mgrwt>
<rscale>  0 0.18187438E+04</rscale>
<asrwt>0</asrwt>
<pdfrwt beam="1">  1        1 0.43933864E+00 0.18187438E+04</pdfrwt>
<pdfrwt beam="2">  1       -1 0.18506748E+00 0.18187438E+04</pdfrwt>
<totfact> 0.13300194E-01</totfact>
</mgrwt>
</event>
<event>
 4    1  0.2731969E-009  0.4918461E+03  0.7818608E-02  0.1015929E+00
         -1   -1    0    0    0  501 -0.00000000000E+00  0.00000000000E+00  0.70819133340E+03  0.70819133342E+03  0.50400000000E-02 0.  1.
          1   -1    0    0  501    0  0.00000000000E+00 -0.00000000000E+00 -0.23405830380E+04  0.23405830380E+04  0.50400000000E-02 0. -1.
    8880022    1    1    2    0    0  0.28681303773E+03 -0.36913299887E+03  0.59256955466E+03  0.77009818827E+03  0.15294330000E+03 0.  0.
    8880022    1    1    2    0    0 -0.28681303773E+03  0.36913299887E+03 -0.22249612592E+04  0.22786761831E+04  0.15294330000E+03 0.  0.
<mgrwt>
<rscale>  0 0.49184606E+03</rscale>
<asrwt>0</asrwt>
<pdfrwt beam="1">  1        1 0.36008969E+00 0.49184606E+03</pdfrwt>
<pdfrwt beam="2">  1       -1 0.10895251E+00 0.49184606E+03</pdfrwt>
<totfact> 0.15488920E+00</totfact>
</mgrwt>
</event>
<event>
 4    1  0.2731969E-009  0.4735262E+03  0.7818608E-02  0.1020930E+00
          1   -1    0    0  501    0  0.00000000000E+00  0.00000000000E+00  0.49547746428E+04  0.49547746428E+04  0.50400000000E-02 0. -1.
         -1   -1    0    0    0  501 -0.00000000000E+00 -0.00000000000E+00 -0.55708570656E+03  0.55708570659E+03  0.50400000000E-02 0.  1.
    8880022    1    1    2    0    0 -0.24872813568E+03  0.37278639687E+03 -0.44277636610E+03  0.64828847480E+03  0.15294330000E+03 0.  0.
    8880022    1    1    2    0    0  0.24872813568E+03 -0.37278639687E+03  0.48404653023E+04  0.48635718746E+04  0.15294330000E+03 0.  0.
<mgrwt>
<rscale>  0 0.47352617E+03</rscale>
<asrwt>0</asrwt>
<pdfrwt beam="1">  1        1 0.76227301E+00 0.47352617E+03</pdfrwt>
<pdfrwt beam="2">  1       -1 0.85705495E-01 0.47352617E+03</pdfrwt>
<totfact> 0.17626854E-02</totfact>
</mgrwt>
</event>
<event>
 4    1  0.2731969E-009  0.7477187E+03  0.7818608E-02  0.9638936E-01
         -1   -1    0    0    0  501 -0.00000000000E+00  0.00000000000E+00  0.63094021937E+03  0.63094021939E+03  0.50400000000E-02 0.  1.
          1   -1    0    0  501    0  0.00000000000E+00 -0.00000000000E+00 -0.18945697837E+04  0.18945697837E+04  0.50400000000E-02 0. -1.
    8880022    1    1    2    0    0 -0.11782451176E+03  0.72236351390E+03 -0.15530972078E+04  0.17237152467E+04  0.15294330000E+03 0.  0.
    8880022    1    1    2    0    0  0.11782451176E+03 -0.72236351390E+03  0.28946764346E+03  0.80179475641E+03  0.15294330000E+03 0.  0.
<mgrwt>
<rscale>  0 0.74771874E+03</rscale>
<asrwt>0</asrwt>
<pdfrwt beam="1">  1        1 0.29147227E+00 0.74771874E+03</pdfrwt>
<pdfrwt beam="2">  1       -1 0.97067727E-01 0.74771874E+03</pdfrwt>
<totfact> 0.37629222E+00</totfact>
</mgrwt>
</event>
<event>
 4    1  0.2731969E-009  0.3983429E+03  0.7818608E-02  0.1044355E+00
          1   -1    0    0  501    0  0.00000000000E+00  0.00000000000E+00  0.15147721675E+04  0.15147721676E+04  0.50400000000E-02 0. -1.
         -1   -1    0    0    0  501 -0.00000000000E+00 -0.00000000000E+00 -0.27105212376E+03  0.27105212381E+03  0.50400000000E-02 0.  1.
    8880022    1    1    2    0    0 -0.14923240212E+03 -0.33617717799E+03  0.13212625414E+04  0.13800042613E+04  0.15294330000E+03 0.  0.
    8880022    1    1    2    0    0  0.14923240212E+03  0.33617717799E+03 -0.77542497626E+02  0.40582003006E+03  0.15294330000E+03 0.  0.
<mgrwt>
<rscale>  0 0.39834289E+03</rscale>
<asrwt>0</asrwt>
<pdfrwt beam="1">  1        1 0.23304187E+00 0.39834289E+03</pdfrwt>
<pdfrwt beam="2">  1       -1 0.41700327E-01 0.39834289E+03</pdfrwt>
<totfact> 0.39282790E+01</totfact>
</mgrwt>
</event>
<event>
 4    1  0.2731969E-009  0.1856909E+04  0.7818608E-02  0.8676608E-01
         -1   -1    0    0    0  501 -0.00000000000E+00  0.00000000000E+00  0.21927099700E+04  0.21927099700E+04  0.50400000000E-02 0.  1.
          1   -1    0    0  501    0  0.00000000000E+00 -0.00000000000E+00 -0.24124425989E+04  0.24124425989E+04  0.50400000000E-02 0. -1.
    8880022    1    1    2    0    0  0.17588908222E+04 -0.57534447641E+03 -0.14684978182E+04  0.23674027300E+04  0.15294330000E+03 0.  0.
    8880022    1    1    2    0    0 -0.17588908222E+04  0.57534447641E+03  0.12487651892E+04  0.22377498389E+04  0.15294330000E+03 0.  0.
<mgrwt>
<rscale>  0 0.18569087E+04</rscale>
<asrwt>0</asrwt>
<pdfrwt beam="1">  1        1 0.37114502E+00 0.18569087E+04</pdfrwt>
<pdfrwt beam="2">  1       -1 0.33733999E+00 0.18569087E+04</pdfrwt>
<totfact> 0.26433206E-02</totfact>
</mgrwt>
</event>
<event>
 4    1  0.2731969E-009  0.8327918E+03  0.7818608E-02  0.9513729E-01
          1   -1    0    0  501    0  0.00000000000E+00  0.00000000000E+00  0.21600873515E+04  0.21600873515E+04  0.50400000000E-02 0. -1.
         -1   -1    0    0    0  501 -0.00000000000E+00 -0.00000000000E+00 -0.17556166029E+04  0.17556166029E+04  0.50400000000E-02 0.  1.
    8880022    1    1    2    0    0  0.70128950035E+03 -0.42230741229E+03  0.19720270187E+04  0.21406617503E+04  0.15294330000E+03 0.  0.
    8880022    1    1    2    0    0 -0.70128950035E+03  0.42230741229E+03 -0.15675562700E+04  0.17750422042E+04  0.15294330000E+03 0.  0.
<mgrwt>
<rscale>  0 0.83279179E+03</rscale>
<asrwt>0</asrwt>
<pdfrwt beam="1">  1        1 0.33232113E+00 0.83279179E+03</pdfrwt>
<pdfrwt beam="2">  1       -1 0.27009486E+00 0.83279179E+03</pdfrwt>
<totfact> 0.12677979E-01</totfact>
</mgrwt>
</event>
<event>
 4    1  0.2731969E-009  0.5310186E+03  0.7818608E-02  0.1005985E+00
         -1   -1    0    0    0  501 -0.00000000000E+00  0.00000000000E+00  0.11887427423E+04  0.11887427424E+04  0.50400000000E-02 0.  1.
          1   -1    0    0  501    0  0.00000000000E+00 -0.00000000000E+00 -0.71172450990E+03  0.71172450992E+03  0.50400000000E-02 0. -1.
    8880022    1    1    2    0    0  0.49270765304E+03 -0.12581039355E+03  0.10143980165E+04  0.11449821288E+04  0.15294330000E+03 0.  0.
    8880022    1    1    2    0    0 -0.49270765304E+03  0.12581039355E+03 -0.53737978402E+03  0.75548512346E+03  0.15294330000E+03 0.  0.
<mgrwt>
<rscale>  0 0.53101859E+03</rscale>
<asrwt>0</asrwt>
<pdfrwt beam="1">  1        1 0.10949608E+00 0.53101859E+03</pdfrwt>
<pdfrwt beam="2">  1       -1 0.18288350E+00 0.53101859E+03</pdfrwt>
<totfact> 0.56685749E+00</totfact>
</mgrwt>
</event>
<event>
 4    1  0.2731969E-009  0.9377761E+03  0.7818608E-02  0.9379554E-01
          1   -1    0    0  501    0  0.00000000000E+00  0.00000000000E+00  0.18617657975E+04  0.18617657975E+04  0.50400000000E-02 0. -1.
         -1   -1    0    0    0  501 -0.00000000000E+00 -0.00000000000E+00 -0.21065800048E+04  0.21065800048E+04  0.50400000000E-02 0.  1.
    8880022    1    1    2    0    0 -0.25834684282E+03 -0.88841953247E+03  0.16252079367E+04  0.18763594665E+04  0.15294330000E+03 0.  0.
    8880022    1    1    2    0    0  0.25834684282E+03  0.88841953247E+03 -0.18700221441E+04  0.20919863358E+04  0.15294330000E+03 0.  0.
<mgrwt>
<rscale>  0 0.93777610E+03</rscale>
<asrwt>0</asrwt>
<pdfrwt beam="1">  1        1 0.28642551E+00 0.93777610E+03</pdfrwt>
<pdfrwt beam="2">  1       -1 0.32408923E+00 0.93777610E+03</pdfrwt>
<totfact> 0.88330220E-02</totfact>
</mgrwt>
</event>
<event>
 4    1  0.2731969E-009  0.5146527E+03  0.7818608E-02  0.1010024E+00
          1   -1    0    0  501    0  0.00000000000E+00  0.00000000000E+00  0.12261199659E+04  0.12261199659E+04  0.50400000000E-02 0. -1.
         -1   -1    0    0    0  501 -0.00000000000E+00 -0.00000000000E+00 -0.34775867829E+03  0.34775867833E+03  0.50400000000E-02 0.  1.
    8880022    1    1    2    0    0  0.45438002292E+03 -0.18712162900E+03 -0.45167526009E+02  0.51663088147E+03  0.15294330000E+03 0.  0.
    8880022    1    1    2    0    0 -0.45438002292E+03  0.18712162900E+03  0.92352881357E+03  0.10572477627E+04  0.15294330000E+03 0.  0.
<mgrwt>
<rscale>  0 0.51465266E+03</rscale>
<asrwt>0</asrwt>
<pdfrwt beam="1">  1        1 0.18863384E+00 0.51465266E+03</pdfrwt>
<pdfrwt beam="2">  1       -1 0.53501335E-01 0.51465266E+03</pdfrwt>
<totfact> 0.38233379E+01</totfact>
</mgrwt>
</event>
<event>
 4    1  0.2731969E-009  0.5299376E+03  0.7818608E-02  0.1006247E+00
         -1   -1    0    0    0  501 -0.00000000000E+00  0.00000000000E+00  0.41166126151E+03  0.41166126154E+03  0.50400000000E-02 0.  1.
          1   -1    0    0  501    0  0.00000000000E+00 -0.00000000000E+00 -0.25636211756E+04  0.25636211756E+04  0.50400000000E-02 0. -1.
    8880022    1    1    2    0    0 -0.38419571303E+03 -0.33141487572E+03  0.19844629977E+03  0.56587520945E+03  0.15294330000E+03 0.  0.
    8880022    1    1    2    0    0  0.38419571303E+03  0.33141487572E+03 -0.23504062138E+04  0.24094072277E+04  0.15294330000E+03 0.  0.
<mgrwt>
<rscale>  0 0.52993756E+03</rscale>
<asrwt>0</asrwt>
<pdfrwt beam="1">  1        1 0.39440325E+00 0.52993756E+03</pdfrwt>
<pdfrwt beam="2">  1       -1 0.63332503E-01 0.52993756E+03</pdfrwt>
<totfact> 0.34577613E+00</totfact>
</mgrwt>
</event>
<event>
 4    1  0.2731969E-009  0.1778757E+03  0.7818608E-02  0.1169875E+00
          1   -1    0    0  501    0  0.00000000000E+00  0.00000000000E+00  0.33308432287E+03  0.33308432290E+03  0.50400000000E-02 0. -1.
         -1   -1    0    0    0  501 -0.00000000000E+00 -0.00000000000E+00 -0.77731054083E+03  0.77731054085E+03  0.50400000000E-02 0.  1.
    8880022    1    1    2    0    0  0.19985360248E+02 -0.88592955261E+02  0.29805568903E+03  0.34709793017E+03  0.15294330000E+03 0. -1.
    8880022    1    1    2    0    0 -0.19985360248E+02  0.88592955261E+02 -0.74228190700E+03  0.76329693358E+03  0.15294330000E+03 0.  0.
<mgrwt>
<rscale>  0 0.17787574E+03</rscale>
<asrwt>0</asrwt>
<pdfrwt beam="1">  1        1 0.51243742E-01 0.17787574E+03</pdfrwt>
<pdfrwt beam="2">  1       -1 0.11958624E+00 0.17787574E+03</pdfrwt>
<totfact> 0.53022209E+01</totfact>
</mgrwt>
</event>
<event>
 4    1  0.2731969E-009  0.1074047E+04  0.7818608E-02  0.9230864E-01
         -1   -1    0    0    0  501 -0.00000000000E+00  0.00000000000E+00  0.91744148160E+03  0.91744148162E+03  0.50400000000E-02 0.  1.
          1   -1    0    0  501    0  0.00000000000E+00 -0.00000000000E+00 -0.25085421763E+04  0.25085421763E+04  0.50400000000E-02 0. -1.
    8880022    1    1    2    0    0  0.10321519948E+04  0.25465016641E+03  0.41421383819E+03  0.11511512517E+04  0.15294330000E+03 0.  0.
    8880022    1    1    2    0    0 -0.10321519948E+04 -0.25465016641E+03 -0.20053145329E+04  0.22748324062E+04  0.15294330000E+03 0.  0.
<mgrwt>
<rscale>  0 0.10740466E+04</rscale>
<asrwt>0</asrwt>
<pdfrwt beam="1">  1        1 0.38592956E+00 0.10740466E+04</pdfrwt>
<pdfrwt beam="2">  1       -1 0.14114484E+00 0.10740466E+04</pdfrwt>
<totfact> 0.55167751E-01</totfact>
</mgrwt>
</event>
<event>
 4    1  0.2731969E-009  0.1407973E+04  0.7818608E-02  0.8948068E-01
         -1   -1    0    0    0  501 -0.00000000000E+00  0.00000000000E+00  0.11404048304E+04  0.11404048304E+04  0.50400000000E-02 0.  1.
          1   -1    0    0  501    0  0.00000000000E+00 -0.00000000000E+00 -0.18002706312E+04  0.18002706312E+04  0.50400000000E-02 0. -1.
    8880022    1    1    2    0    0  0.13068391461E+04  0.50116538897E+03 -0.57175904032E+02  0.14091330803E+04  0.15294330000E+03 0.  0.
    8880022    1    1    2    0    0 -0.13068391461E+04 -0.50116538897E+03 -0.60268989678E+03  0.15315423813E+04  0.15294330000E+03 0.  0.
<mgrwt>
<rscale>  0 0.14079726E+04</rscale>
<asrwt>0</asrwt>
<pdfrwt beam="1">  1        1 0.27696471E+00 0.14079726E+04</pdfrwt>
<pdfrwt beam="2">  1       -1 0.17544690E+00 0.14079726E+04</pdfrwt>
<totfact> 0.87506839E-01</totfact>
</mgrwt>
</event>
<event>
 4    1  0.2731969E-009  0.1730762E+03  0.7818608E-02  0.1174677E+00
          1   -1    0    0  501    0  0.00000000000E+00  0.00000000000E+00  0.15127095313E+04  0.15127095313E+04  0.50400000000E-02 0. -1.
         -1   -1    0    0    0  501 -0.00000000000E+00 -0.00000000000E+00 -0.11500024572E+03  0.11500024583E+03  0.50400000000E-02 0.  1.
    8880022    1    1    2    0    0 -0.78732160685E+02  0.19103884445E+02 -0.41621420490E+02  0.17801041314E+03  0.15294330000E+03 0.  1.
    8880022    1    1    2    0    0  0.78732160685E+02 -0.19103884445E+02  0.14393307061E+04  0.14496993640E+04  0.15294330000E+03 0.  0.
<mgrwt>
<rscale>  0 0.17307618E+03</rscale>
<asrwt>0</asrwt>
<pdfrwt beam="1">  1        1 0.23272454E+00 0.17307618E+03</pdfrwt>
<pdfrwt beam="2">  1       -1 0.17692346E-01 0.17307618E+03</pdfrwt>
<totfact> 0.17861353E+02</totfact>
</mgrwt>
</event>
<event>
 4    1  0.2731969E-009  0.1009418E+04  0.7818608E-02  0.9298275E-01
          1   -1    0    0  501    0  0.00000000000E+00  0.00000000000E+00  0.12792687486E+04  0.12792687486E+04  0.50400000000E-02 0. -1.
         -1   -1    0    0    0  501 -0.00000000000E+00 -0.00000000000E+00 -0.15432738956E+04  0.15432738956E+04  0.50400000000E-02 0.  1.
    8880022    1    1    2    0    0 -0.80812470583E+03 -0.58520752283E+03  0.84971467483E+03  0.13194468790E+04  0.15294330000E+03 0.  0.
    8880022    1    1    2    0    0  0.80812470583E+03  0.58520752283E+03 -0.11137198218E+04  0.15030957652E+04  0.15294330000E+03 0.  0.
<mgrwt>
<rscale>  0 0.10094182E+04</rscale>
<asrwt>0</asrwt>
<pdfrwt beam="1">  1        1 0.19681058E+00 0.10094182E+04</pdfrwt>
<pdfrwt beam="2">  1       -1 0.23742675E+00 0.10094182E+04</pdfrwt>
<totfact> 0.79451056E-01</totfact>
</mgrwt>
</event>
<event>
 4    1  0.2731969E-009  0.6726405E+03  0.7818608E-02  0.9765199E-01
          1   -1    0    0  501    0  0.00000000000E+00  0.00000000000E+00  0.15592085173E+04  0.15592085174E+04  0.50400000000E-02 0. -1.
         -1   -1    0    0    0  501 -0.00000000000E+00 -0.00000000000E+00 -0.11259744430E+04  0.11259744431E+04  0.50400000000E-02 0.  1.
    8880022    1    1    2    0    0 -0.39685007638E+03  0.52111768211E+03 -0.94010853087E+03  0.11559625100E+04  0.15294330000E+03 0.  0.
    8880022    1    1    2    0    0  0.39685007638E+03 -0.52111768211E+03  0.13733426052E+04  0.15292204504E+04  0.15294330000E+03 0.  0.
<mgrwt>
<rscale>  0 0.67264052E+03</rscale>
<asrwt>0</asrwt>
<pdfrwt beam="1">  1        1 0.23987823E+00 0.67264052E+03</pdfrwt>
<pdfrwt beam="2">  1       -1 0.17322684E+00 0.67264052E+03</pdfrwt>
<totfact> 0.14808649E+00</totfact>
</mgrwt>
</event>
<event>
 4    1  0.2731969E-009  0.5670858E+03  0.7818608E-02  0.9976148E-01
          1   -1    0    0  501    0  0.00000000000E+00  0.00000000000E+00  0.17859751618E+04  0.17859751618E+04  0.50400000000E-02 0. -1.
         -1   -1    0    0    0  501 -0.00000000000E+00 -0.00000000000E+00 -0.97527816882E+03  0.97527816884E+03  0.50400000000E-02 0.  1.
    8880022    1    1    2    0    0  0.26662325304E+02 -0.54542077112E+03  0.16520273494E+04  0.17466484230E+04  0.15294330000E+03 0.  0.
    8880022    1    1    2    0    0 -0.26662325304E+02  0.54542077112E+03 -0.84133035640E+03  0.10146049077E+04  0.15294330000E+03 0.  1.
<mgrwt>
<rscale>  0 0.56708584E+03</rscale>
<asrwt>0</asrwt>
<pdfrwt beam="1">  1        1 0.27476541E+00 0.56708584E+03</pdfrwt>
<pdfrwt beam="2">  1       -1 0.15004280E+00 0.56708584E+03</pdfrwt>
<totfact> 0.15950016E+00</totfact>
</mgrwt>
</event>
<event>
 4    1  0.2731969E-009  0.8944502E+03  0.7818608E-02  0.9432546E-01
          1   -1    0    0  501    0  0.00000000000E+00  0.00000000000E+00  0.22308454711E+04  0.22308454711E+04  0.50400000000E-02 0. -1.
         -1   -1    0    0    0  501 -0.00000000000E+00 -0.00000000000E+00 -0.55937752078E+03  0.55937752081E+03  0.50400000000E-02 0.  1.
    8880022    1    1    2    0    0  0.87920773909E+03 -0.60359879042E+02 -0.32316111425E-01  0.89445023201E+03  0.15294330000E+03 0.  0.
    8880022    1    1    2    0    0 -0.87920773909E+03  0.60359879042E+02  0.16715002664E+04  0.18957727599E+04  0.15294330000E+03 0.  0.
<mgrwt>
<rscale>  0 0.89445023E+03</rscale>
<asrwt>0</asrwt>
<pdfrwt beam="1">  1        1 0.34320699E+00 0.89445023E+03</pdfrwt>
<pdfrwt beam="2">  1       -1 0.86058081E-01 0.89445023E+03</pdfrwt>
<totfact> 0.28506253E+00</totfact>
</mgrwt>
</event>
<event>
 4    1  0.2731969E-009  0.8524959E+03  0.7818608E-02  0.9486993E-01
          1   -1    0    0  501    0  0.00000000000E+00  0.00000000000E+00  0.27286982172E+04  0.27286982173E+04  0.50400000000E-02 0. -1.
         -1   -1    0    0    0  501 -0.00000000000E+00 -0.00000000000E+00 -0.40729836332E+03  0.40729836335E+03  0.50400000000E-02 0.  1.
    8880022    1    1    2    0    0  0.66485606658E+03 -0.51119862859E+03  0.23825262321E+03  0.88516303166E+03  0.15294330000E+03 0.  0.
    8880022    1    1    2    0    0 -0.66485606658E+03  0.51119862859E+03  0.20831472307E+04  0.22508335489E+04  0.15294330000E+03 0.  0.
<mgrwt>
<rscale>  0 0.85249591E+03</rscale>
<asrwt>0</asrwt>
<pdfrwt beam="1">  1        1 0.41979974E+00 0.85249591E+03</pdfrwt>
<pdfrwt beam="2">  1       -1 0.62661284E-01 0.85249591E+03</pdfrwt>
<totfact> 0.25333876E+00</totfact>
</mgrwt>
</event>
<event>
 4    1  0.2731969E-009  0.1080229E+04  0.7818608E-02  0.9224680E-01
         -1   -1    0    0    0  501 -0.00000000000E+00  0.00000000000E+00  0.20950352702E+04  0.20950352702E+04  0.50400000000E-02 0.  1.
          1   -1    0    0  501    0  0.00000000000E+00 -0.00000000000E+00 -0.12082037475E+04  0.12082037475E+04  0.50400000000E-02 0. -1.
    8880022    1    1    2    0    0  0.71269275313E+03 -0.79722715765E+03 -0.76914879290E+03  0.13260782857E+04  0.15294330000E+03 0.  0.
    8880022    1    1    2    0    0 -0.71269275313E+03  0.79722715765E+03  0.16559803156E+04  0.19771607319E+04  0.15294330000E+03 0.  0.
<mgrwt>
<rscale>  0 0.10802286E+04</rscale>
<asrwt>0</asrwt>
<pdfrwt beam="1">  1        1 0.18587750E+00 0.10802286E+04</pdfrwt>
<pdfrwt beam="2">  1       -1 0.32231312E+00 0.10802286E+04</pdfrwt>
<totfact> 0.25017521E-01</totfact>
</mgrwt>
</event>
<event>
 4    1  0.2731969E-009  0.8244568E+03  0.7818608E-02  0.9525276E-01
         -1   -1    0    0    0  501 -0.00000000000E+00  0.00000000000E+00  0.52075091541E+03  0.52075091544E+03  0.50400000000E-02 0.  1.
          1   -1    0    0  501    0  0.00000000000E+00 -0.00000000000E+00 -0.23287230283E+04  0.23287230283E+04  0.50400000000E-02 0. -1.
    8880022    1    1    2    0    0  0.69495726101E+03  0.41637933323E+03 -0.18484954696E+04  0.20240218620E+04  0.15294330000E+03 0.  0.
    8880022    1    1    2    0    0 -0.69495726101E+03 -0.41637933323E+03  0.40523356709E+02  0.82545208173E+03  0.15294330000E+03 0.  0.
<mgrwt>
<rscale>  0 0.82445679E+03</rscale>
<asrwt>0</asrwt>
<pdfrwt beam="1">  1        1 0.35826508E+00 0.82445679E+03</pdfrwt>
<pdfrwt beam="2">  1       -1 0.80115527E-01 0.82445679E+03</pdfrwt>
<totfact> 0.28886582E+00</totfact>
</mgrwt>
</event>
<event>
 4    1  0.2731969E-009  0.7130603E+03  0.7818608E-02  0.9695154E-01
          1   -1    0    0  501    0  0.00000000000E+00  0.00000000000E+00  0.10440612082E+04  0.10440612082E+04  0.50400000000E-02 0. -1.
         -1   -1    0    0    0  501 -0.00000000000E+00 -0.00000000000E+00 -0.77976686001E+03  0.77976686003E+03  0.50400000000E-02 0.  1.
    8880022    1    1    2    0    0  0.66594283912E+03 -0.20392038466E+03  0.69091891700E+03  0.99288669602E+03  0.15294330000E+03 0.  0.
    8880022    1    1    2    0    0 -0.66594283912E+03  0.20392038466E+03 -0.42662456884E+03  0.83094137218E+03  0.15294330000E+03 0.  0.
<mgrwt>
<rscale>  0 0.71306033E+03</rscale>
<asrwt>0</asrwt>
<pdfrwt beam="1">  1        1 0.16062480E+00 0.71306033E+03</pdfrwt>
<pdfrwt beam="2">  1       -1 0.11996413E+00 0.71306033E+03</pdfrwt>
<totfact> 0.90033274E+00</totfact>
</mgrwt>
</event>
<event>
 4    1  0.2731969E-009  0.6872931E+03  0.7818608E-02  0.9739213E-01
         -1   -1    0    0    0  501 -0.00000000000E+00  0.00000000000E+00  0.29669925964E+03  0.29669925968E+03  0.50400000000E-02 0.  1.
          1   -1    0    0  501    0  0.00000000000E+00 -0.00000000000E+00 -0.32237921350E+04  0.32237921350E+04  0.50400000000E-02 0. -1.
    8880022    1    1    2    0    0 -0.60831089622E+03  0.28095905794E+03 -0.27158519035E+04  0.28014680711E+04  0.15294330000E+03 0.  0.
    8880022    1    1    2    0    0  0.60831089622E+03 -0.28095905794E+03 -0.21124097193E+03  0.71902332364E+03  0.15294330000E+03 0.  0.
<mgrwt>
<rscale>  0 0.68729309E+03</rscale>
<asrwt>0</asrwt>
<pdfrwt beam="1">  1        1 0.49596800E+00 0.68729309E+03</pdfrwt>
<pdfrwt beam="2">  1       -1 0.45646042E-01 0.68729309E+03</pdfrwt>
<totfact> 0.21282288E+00</totfact>
</mgrwt>
</event>
<event>
 4    1  0.2731969E-009  0.1559151E+04  0.7818608E-02  0.8846044E-01
         -1   -1    0    0    0  501 -0.00000000000E+00  0.00000000000E+00  0.95456566814E+03  0.95456566815E+03  0.50400000000E-02 0.  1.
          1   -1    0    0  501    0  0.00000000000E+00 -0.00000000000E+00 -0.29260343522E+04  0.29260343522E+04  0.50400000000E-02 0. -1.
    8880022    1    1    2    0    0 -0.43318931947E+03  0.14899350061E+04 -0.28707559057E+03  0.15853590624E+04  0.15294330000E+03 0.  0.
    8880022    1    1    2    0    0  0.43318931947E+03 -0.14899350061E+04 -0.16843930935E+04  0.22952409580E+04  0.15294330000E+03 0.  0.
<mgrwt>
<rscale>  0 0.15591507E+04</rscale>
<asrwt>0</asrwt>
<pdfrwt beam="1">  1        1 0.45015913E+00 0.15591507E+04</pdfrwt>
<pdfrwt beam="2">  1       -1 0.14685626E+00 0.15591507E+04</pdfrwt>
<totfact> 0.23619204E-01</totfact>
</mgrwt>
</event>
<event>
 4    1  0.2731969E-009  0.7560083E+03  0.7818608E-02  0.9625971E-01
         -1   -1    0    0    0  501 -0.00000000000E+00  0.00000000000E+00  0.62673240631E+03  0.62673240633E+03  0.50400000000E-02 0.  1.
          1   -1    0    0  501    0  0.00000000000E+00 -0.00000000000E+00 -0.27244456401E+04  0.27244456401E+04  0.50400000000E-02 0. -1.
    8880022    1    1    2    0    0 -0.39133770744E+03  0.62849958648E+03  0.31782365315E+03  0.82009783501E+03  0.15294330000E+03 0.  0.
    8880022    1    1    2    0    0  0.39133770744E+03 -0.62849958648E+03 -0.24155368869E+04  0.25310802114E+04  0.15294330000E+03 0. -1.
<mgrwt>
<rscale>  0 0.75600832E+03</rscale>
<asrwt>0</asrwt>
<pdfrwt beam="1">  1        1 0.41914548E+00 0.75600832E+03</pdfrwt>
<pdfrwt beam="2">  1       -1 0.96420372E-01 0.75600832E+03</pdfrwt>
<totfact> 0.10456799E+00</totfact>
</mgrwt>
</event>
<event>
 4    1  0.2731969E-009  0.8765386E+03  0.7818608E-02  0.9455394E-01
          1   -1    0    0  501    0  0.00000000000E+00  0.00000000000E+00  0.19762043307E+04  0.19762043307E+04  0.50400000000E-02 0. -1.
         -1   -1    0    0    0  501 -0.00000000000E+00 -0.00000000000E+00 -0.83752087284E+03  0.83752087285E+03  0.50400000000E-02 0.  1.
    8880022    1    1    2    0    0  0.61834475944E+03 -0.60214457465E+03  0.15991323247E+04  0.18236074620E+04  0.15294330000E+03 0.  0.
    8880022    1    1    2    0    0 -0.61834475944E+03  0.60214457465E+03 -0.46044886684E+03  0.99011774163E+03  0.15294330000E+03 0.  0.
<mgrwt>
<rscale>  0 0.87653864E+03</rscale>
<asrwt>0</asrwt>
<pdfrwt beam="1">  1        1 0.30403143E+00 0.87653864E+03</pdfrwt>
<pdfrwt beam="2">  1       -1 0.12884937E+00 0.87653864E+03</pdfrwt>
<totfact> 0.16532209E+00</totfact>
</mgrwt>
</event>
<event>
 4    1  0.2731969E-009  0.4883042E+03  0.7818608E-02  0.1016878E+00
         -1   -1    0    0    0  501 -0.00000000000E+00  0.00000000000E+00  0.36561393337E+03  0.36561393341E+03  0.50400000000E-02 0.  1.
          1   -1    0    0  501    0  0.00000000000E+00 -0.00000000000E+00 -0.21806044842E+04  0.21806044842E+04  0.50400000000E-02 0. -1.
    8880022    1    1    2    0    0 -0.45829789782E+03 -0.70798330709E+02 -0.19733577548E+04  0.20328752663E+04  0.15294330000E+03 0.  0.
    8880022    1    1    2    0    0  0.45829789782E+03  0.70798330709E+02  0.15836720393E+03  0.51334315138E+03  0.15294330000E+03 0.  0.
<mgrwt>
<rscale>  0 0.48830423E+03</rscale>
<asrwt>0</asrwt>
<pdfrwt beam="1">  1        1 0.33547760E+00 0.48830423E+03</pdfrwt>
<pdfrwt beam="2">  1       -1 0.56248299E-01 0.48830423E+03</pdfrwt>
<totfact> 0.79678907E+00</totfact>
</mgrwt>
</event>
<event>
 4    1  0.2731969E-009  0.1020486E+04  0.7818608E-02  0.9286357E-01
         -1   -1    0    0    0  501 -0.00000000000E+00  0.00000000000E+00  0.93730792970E+03  0.93730792972E+03  0.50400000000E-02 0.  1.
          1   -1    0    0  501    0  0.00000000000E+00 -0.00000000000E+00 -0.17909710762E+04  0.17909710762E+04  0.50400000000E-02 0. -1.
    8880022    1    1    2    0    0  0.83102303260E+03 -0.57218923860E+03  0.41368308206E+03  0.11011471976E+04  0.15294330000E+03 0.  0.
    8880022    1    1    2    0    0 -0.83102303260E+03  0.57218923860E+03 -0.12673462286E+04  0.16271318083E+04  0.15294330000E+03 0.  0.
<mgrwt>
<rscale>  0 0.10204859E+04</rscale>
<asrwt>0</asrwt>
<pdfrwt beam="1">  1        1 0.27553401E+00 0.10204859E+04</pdfrwt>
<pdfrwt beam="2">  1       -1 0.14420122E+00 0.10204859E+04</pdfrwt>
<totfact> 0.16107994E+00</totfact>
</mgrwt>
</event>
<event>
 4    1  0.2731969E-009  0.5438694E+03  0.7818608E-02  0.1002923E+00
         -1   -1    0    0    0  501 -0.00000000000E+00  0.00000000000E+00  0.47920087357E+03  0.47920087360E+03  0.50400000000E-02 0.  1.
          1   -1    0    0  501    0  0.00000000000E+00 -0.00000000000E+00 -0.14475429892E+04  0.14475429893E+04  0.50400000000E-02 0. -1.
    8880022    1    1    2    0    0 -0.38867928487E+02 -0.52047241576E+03 -0.12137797989E+04  0.13300583839E+04  0.15294330000E+03 0.  0.
    8880022    1    1    2    0    0  0.38867928487E+02  0.52047241576E+03  0.24543768320E+03  0.59668547894E+03  0.15294330000E+03 0.  0.
<mgrwt>
<rscale>  0 0.54386938E+03</rscale>
<asrwt>0</asrwt>
<pdfrwt beam="1">  1        1 0.22269892E+00 0.54386938E+03</pdfrwt>
<pdfrwt beam="2">  1       -1 0.73723212E-01 0.54386938E+03</pdfrwt>
<totfact> 0.14137345E+01</totfact>
</mgrwt>
</event>
<event>
 4    1  0.2731969E-009  0.1245123E+04  0.7818608E-02  0.9074252E-01
          1   -1    0    0  501    0  0.00000000000E+00  0.00000000000E+00  0.17429938879E+04  0.17429938880E+04  0.50400000000E-02 0. -1.
         -1   -1    0    0    0  501 -0.00000000000E+00 -0.00000000000E+00 -0.17546759864E+04  0.17546759864E+04  0.50400000000E-02 0.  1.
    8880022    1    1    2    0    0 -0.12179456660E+04 -0.20868017210E+03  0.12221962589E+04  0.17447333343E+04  0.15294330000E+03 0.  0.
    8880022    1    1    2    0    0  0.12179456660E+04  0.20868017210E+03 -0.12338783574E+04  0.17529365400E+04  0.15294330000E+03 0.  0.
<mgrwt>
<rscale>  0 0.12451228E+04</rscale>
<asrwt>0</asrwt>
<pdfrwt beam="1">  1        1 0.26815290E+00 0.12451228E+04</pdfrwt>
<pdfrwt beam="2">  1       -1 0.26995015E+00 0.12451228E+04</pdfrwt>
<totfact> 0.22482908E-01</totfact>
</mgrwt>
</event>
<event>
 4    1  0.2731969E-009  0.4855428E+03  0.7818608E-02  0.1017623E+00
         -1   -1    0    0    0  501 -0.00000000000E+00  0.00000000000E+00  0.56409749298E+03  0.56409749300E+03  0.50400000000E-02 0.  1.
          1   -1    0    0  501    0  0.00000000000E+00 -0.00000000000E+00 -0.15977321731E+04  0.15977321731E+04  0.50400000000E-02 0. -1.
    8880022    1    1    2    0    0  0.45666240254E+03 -0.61803149202E+02  0.41203044491E+03  0.63680524471E+03  0.15294330000E+03 0.  0.
    8880022    1    1    2    0    0 -0.45666240254E+03  0.61803149202E+02 -0.14456651250E+04  0.15250244214E+04  0.15294330000E+03 0.  0.
<mgrwt>
<rscale>  0 0.48554282E+03</rscale>
<asrwt>0</asrwt>
<pdfrwt beam="1">  1        1 0.24580495E+00 0.48554282E+03</pdfrwt>
<pdfrwt beam="2">  1       -1 0.86784230E-01 0.48554282E+03</pdfrwt>
<totfact> 0.80380861E+00</totfact>
</mgrwt>
</event>
<event>
 4    1  0.2731969E-009  0.1488154E+04  0.7818608E-02  0.8892369E-01
         -1   -1    0    0    0  501 -0.00000000000E+00  0.00000000000E+00  0.11065842051E+04  0.11065842051E+04  0.50400000000E-02 0.  1.
          1   -1    0    0  501    0  0.00000000000E+00 -0.00000000000E+00 -0.25271378137E+04  0.25271378137E+04  0.50400000000E-02 0. -1.
    8880022    1    1    2    0    0  0.45014338860E+03  0.14101705912E+04 -0.15390488051E+04  0.21408580159E+04  0.15294330000E+03 0.  0.
    8880022    1    1    2    0    0 -0.45014338860E+03 -0.14101705912E+04  0.11849519642E+03  0.14928640029E+04  0.15294330000E+03 0.  0.
<mgrwt>
<rscale>  0 0.14881538E+04</rscale>
<asrwt>0</asrwt>
<pdfrwt beam="1">  1        1 0.38879043E+00 0.14881538E+04</pdfrwt>
<pdfrwt beam="2">  1       -1 0.17024372E+00 0.14881538E+04</pdfrwt>
<totfact> 0.30173822E-01</totfact>
</mgrwt>
</event>
<event>
 4    1  0.2731969E-009  0.2885588E+03  0.7818608E-02  0.1091104E+00
         -1   -1    0    0    0  501 -0.00000000000E+00  0.00000000000E+00  0.11058282002E+03  0.11058282013E+03  0.50400000000E-02 0.  1.
          1   -1    0    0  501    0  0.00000000000E+00 -0.00000000000E+00 -0.87750096048E+03  0.87750096049E+03  0.50400000000E-02 0. -1.
    8880022    1    1    2    0    0 -0.14547178324E+03  0.19675496723E+03 -0.19734972738E+03  0.34958993802E+03  0.15294330000E+03 0.  1.
    8880022    1    1    2    0    0  0.14547178324E+03 -0.19675496723E+03 -0.56956841308E+03  0.63849384261E+03  0.15294330000E+03 0.  0.
<mgrwt>
<rscale>  0 0.28855885E+03</rscale>
<asrwt>0</asrwt>
<pdfrwt beam="1">  1        1 0.13500014E+00 0.28855885E+03</pdfrwt>
<pdfrwt beam="2">  1       -1 0.17012742E-01 0.28855885E+03</pdfrwt>
<totfact> 0.52412991E+02</totfact>
</mgrwt>
</event>
<event>
 4    1  0.2731969E-009  0.6252612E+03  0.7818608E-02  0.9854340E-01
         -1   -1    0    0    0  501 -0.00000000000E+00  0.00000000000E+00  0.70536342575E+03  0.70536342576E+03  0.50400000000E-02 0.  1.
          1   -1    0    0  501    0  0.00000000000E+00 -0.00000000000E+00 -0.15338787717E+04  0.15338787717E+04  0.50400000000E-02 0. -1.
    8880022    1    1    2    0    0 -0.57509050247E+03  0.19191369744E+03  0.48049929077E+03  0.78856272720E+03  0.15294330000E+03 0.  0.
    8880022    1    1    2    0    0  0.57509050247E+03 -0.19191369744E+03 -0.13090146367E+04  0.14506794702E+04  0.15294330000E+03 0.  0.
<mgrwt>
<rscale>  0 0.62526123E+03</rscale>
<asrwt>0</asrwt>
<pdfrwt beam="1">  1        1 0.23598135E+00 0.62526123E+03</pdfrwt>
<pdfrwt beam="2">  1       -1 0.10851745E+00 0.62526123E+03</pdfrwt>
<totfact> 0.52085373E+00</totfact>
</mgrwt>
</event>
<event>
 4    1  0.2731969E-009  0.7793552E+03  0.7818608E-02  0.9590390E-01
         -1   -1    0    0    0  501 -0.00000000000E+00  0.00000000000E+00  0.68247159212E+03  0.68247159214E+03  0.50400000000E-02 0.  1.
          1   -1    0    0  501    0  0.00000000000E+00 -0.00000000000E+00 -0.12305950567E+04  0.12305950567E+04  0.50400000000E-02 0. -1.
    8880022    1    1    2    0    0 -0.63611007289E+03 -0.42351732696E+03  0.22916820369E+03  0.81235009058E+03  0.15294330000E+03 0.  0.
    8880022    1    1    2    0    0  0.63611007289E+03  0.42351732696E+03 -0.77729166825E+03  0.11007165583E+04  0.15294330000E+03 0.  0.
<mgrwt>
<rscale>  0 0.77935525E+03</rscale>
<asrwt>0</asrwt>
<pdfrwt beam="1">  1        1 0.18932232E+00 0.77935525E+03</pdfrwt>
<pdfrwt beam="2">  1       -1 0.10499563E+00 0.77935525E+03</pdfrwt>
<totfact> 0.89122906E+00</totfact>
</mgrwt>
</event>
<event>
 4    1  0.2731969E-009  0.6931617E+03  0.7818608E-02  0.9728999E-01
         -1   -1    0    0    0  501 -0.00000000000E+00  0.00000000000E+00  0.18085375721E+04  0.18085375721E+04  0.50400000000E-02 0.  1.
          1   -1    0    0  501    0  0.00000000000E+00 -0.00000000000E+00 -0.86094918101E+03  0.86094918103E+03  0.50400000000E-02 0. -1.
    8880022    1    1    2    0    0 -0.37690713763E+03 -0.56126864760E+03 -0.63606931285E+03  0.94077484497E+03  0.15294330000E+03 0. -1.
    8880022    1    1    2    0    0  0.37690713763E+03  0.56126864760E+03  0.15836577039E+04  0.17287119081E+04  0.15294330000E+03 0.  0.
<mgrwt>
<rscale>  0 0.69316170E+03</rscale>
<asrwt>0</asrwt>
<pdfrwt beam="1">  1        1 0.13245372E+00 0.69316170E+03</pdfrwt>
<pdfrwt beam="2">  1       -1 0.27823655E+00 0.69316170E+03</pdfrwt>
<totfact> 0.95610797E-01</totfact>
</mgrwt>
</event>
<event>
 4    1  0.2731969E-009  0.1116320E+04  0.7818608E-02  0.9189430E-01
          1   -1    0    0  501    0  0.00000000000E+00  0.00000000000E+00  0.24765033056E+04  0.24765033056E+04  0.50400000000E-02 0. -1.
         -1   -1    0    0    0  501 -0.00000000000E+00 -0.00000000000E+00 -0.92162295644E+03  0.92162295645E+03  0.50400000000E-02 0.  1.
    8880022    1    1    2    0    0  0.10292930150E+04 -0.40414614751E+03  0.19222728254E+04  0.22229041112E+04  0.15294330000E+03 0.  0.
    8880022    1    1    2    0    0 -0.10292930150E+04  0.40414614751E+03 -0.36739247624E+03  0.11752221509E+04  0.15294330000E+03 0.  0.
<mgrwt>
<rscale>  0 0.11163198E+04</rscale>
<asrwt>0</asrwt>
<pdfrwt beam="1">  1        1 0.38100050E+00 0.11163198E+04</pdfrwt>
<pdfrwt beam="2">  1       -1 0.14178815E+00 0.11163198E+04</pdfrwt>
<totfact> 0.56977528E-01</totfact>
</mgrwt>
</event>
<event>
 4    1  0.2731969E-009  0.7821639E+03  0.7818608E-02  0.9586199E-01
          1   -1    0    0  501    0  0.00000000000E+00  0.00000000000E+00  0.81380526946E+03  0.81380526948E+03  0.50400000000E-02 0. -1.
         -1   -1    0    0    0  501 -0.00000000000E+00 -0.00000000000E+00 -0.99749473887E+03  0.99749473889E+03  0.50400000000E-02 0.  1.
    8880022    1    1    2    0    0 -0.47687231081E+03  0.60081742225E+03  0.35767077906E+03  0.86006326215E+03  0.15294330000E+03 0.  0.
    8880022    1    1    2    0    0  0.47687231081E+03 -0.60081742225E+03 -0.54136024848E+03  0.95123674621E+03  0.15294330000E+03 0.  0.
<mgrwt>
<rscale>  0 0.78216394E+03</rscale>
<asrwt>0</asrwt>
<pdfrwt beam="1">  1        1 0.12520081E+00 0.78216394E+03</pdfrwt>
<pdfrwt beam="2">  1       -1 0.15346073E+00 0.78216394E+03</pdfrwt>
<totfact> 0.72550845E+00</totfact>
</mgrwt>
</event>
<event>
 4    1  0.2731969E-009  0.6132654E+03  0.7818608E-02  0.9878260E-01
          1   -1    0    0  501    0  0.00000000000E+00  0.00000000000E+00  0.20501798729E+04  0.20501798729E+04  0.50400000000E-02 0. -1.
         -1   -1    0    0    0  501 -0.00000000000E+00 -0.00000000000E+00 -0.11748255293E+04  0.11748255293E+04  0.50400000000E-02 0.  1.
    8880022    1    1    2    0    0  0.30018300161E+03 -0.51243828962E+03 -0.10435921786E+04  0.12104458367E+04  0.15294330000E+03 0.  0.
    8880022    1    1    2    0    0 -0.30018300161E+03  0.51243828962E+03  0.19189465223E+04  0.20145595656E+04  0.15294330000E+03 0.  0.
<mgrwt>
<rscale>  0 0.61326543E+03</rscale>
<asrwt>0</asrwt>
<pdfrwt beam="1">  1        1 0.31541229E+00 0.61326543E+03</pdfrwt>
<pdfrwt beam="2">  1       -1 0.18074239E+00 0.61326543E+03</pdfrwt>
<totfact> 0.62350207E-01</totfact>
</mgrwt>
</event>
<event>
 4    1  0.2731969E-009  0.4366042E+03  0.7818608E-02  0.1031794E+00
         -1   -1    0    0    0  501 -0.00000000000E+00  0.00000000000E+00  0.14110758419E+04  0.14110758419E+04  0.50400000000E-02 0.  1.
          1   -1    0    0  501    0  0.00000000000E+00 -0.00000000000E+00 -0.98364376581E+03  0.98364376582E+03  0.50400000000E-02 0. -1.
    8880022    1    1    2    0    0  0.23692792019E+03 -0.33331175700E+03 -0.89838758777E+03  0.99886109024E+03  0.15294330000E+03 0.  0.
    8880022    1    1    2    0    0 -0.23692792019E+03  0.33331175700E+03  0.13258196638E+04  0.13958585174E+04  0.15294330000E+03 0.  0.
<mgrwt>
<rscale>  0 0.43660419E+03</rscale>
<asrwt>0</asrwt>
<pdfrwt beam="1">  1        1 0.15132981E+00 0.43660419E+03</pdfrwt>
<pdfrwt beam="2">  1       -1 0.21708859E+00 0.43660419E+03</pdfrwt>
<totfact> 0.20206706E+00</totfact>
</mgrwt>
</event>
<event>
 4    1  0.2731969E-009  0.9864094E+03  0.7818608E-02  0.9323578E-01
         -1   -1    0    0    0  501 -0.00000000000E+00  0.00000000000E+00  0.17296961060E+04  0.17296961060E+04  0.50400000000E-02 0.  1.
          1   -1    0    0  501    0  0.00000000000E+00 -0.00000000000E+00 -0.11435835420E+04  0.11435835420E+04  0.50400000000E-02 0. -1.
    8880022    1    1    2    0    0  0.78496742289E+03  0.57744090587E+03  0.13171095715E+04  0.16455336919E+04  0.15294330000E+03 0.  0.
    8880022    1    1    2    0    0 -0.78496742289E+03 -0.57744090587E+03 -0.73099700750E+03  0.12277459561E+04  0.15294330000E+03 0.  0.
<mgrwt>
<rscale>  0 0.98640940E+03</rscale>
<asrwt>0</asrwt>
<pdfrwt beam="1">  1        1 0.17593593E+00 0.98640940E+03</pdfrwt>
<pdfrwt beam="2">  1       -1 0.26610709E+00 0.98640940E+03</pdfrwt>
<totfact> 0.65223911E-01</totfact>
</mgrwt>
</event>
<event>
 4    1  0.2731969E-009  0.8485623E+03  0.7818608E-02  0.9492269E-01
          1   -1    0    0  501    0  0.00000000000E+00  0.00000000000E+00  0.35797001545E+04  0.35797001545E+04  0.50400000000E-02 0. -1.
         -1   -1    0    0    0  501 -0.00000000000E+00 -0.00000000000E+00 -0.49968150825E+03  0.49968150827E+03  0.50400000000E-02 0.  1.
    8880022    1    1    2    0    0  0.76598232551E+03 -0.33156815359E+03  0.31165766505E+04  0.32300322034E+04  0.15294330000E+03 0.  0.
    8880022    1    1    2    0    0 -0.76598232551E+03  0.33156815359E+03 -0.36558004256E+02  0.84934945938E+03  0.15294330000E+03 0.  0.
<mgrwt>
<rscale>  0 0.84856232E+03</rscale>
<asrwt>0</asrwt>
<pdfrwt beam="1">  1        1 0.55072312E+00 0.84856232E+03</pdfrwt>
<pdfrwt beam="2">  1       -1 0.76874076E-01 0.84856232E+03</pdfrwt>
<totfact> 0.39379937E-01</totfact>
</mgrwt>
</event>
<event>
 4    1  0.2731969E-009  0.1299960E+04  0.7818608E-02  0.9029597E-01
         -1   -1    0    0    0  501 -0.00000000000E+00  0.00000000000E+00  0.17742397556E+04  0.17742397556E+04  0.50400000000E-02 0.  1.
          1   -1    0    0  501    0  0.00000000000E+00 -0.00000000000E+00 -0.18844980764E+04  0.18844980764E+04  0.50400000000E-02 0. -1.
    8880022    1    1    2    0    0  0.10749511825E+04  0.71483166377E+03 -0.13416588112E+04  0.18681392804E+04  0.15294330000E+03 0.  0.
    8880022    1    1    2    0    0 -0.10749511825E+04 -0.71483166377E+03  0.12314004903E+04  0.17905985516E+04  0.15294330000E+03 0.  0.
<mgrwt>
<rscale>  0 0.12999600E+04</rscale>
<asrwt>0</asrwt>
<pdfrwt beam="1">  1        1 0.28992278E+00 0.12999600E+04</pdfrwt>
<pdfrwt beam="2">  1       -1 0.27295996E+00 0.12999600E+04</pdfrwt>
<totfact> 0.17095946E-01</totfact>
</mgrwt>
</event>
<event>
 4    1  0.2731969E-009  0.1303799E+04  0.7818608E-02  0.9026558E-01
         -1   -1    0    0    0  501 -0.00000000000E+00  0.00000000000E+00  0.22398148516E+04  0.22398148517E+04  0.50400000000E-02 0.  1.
          1   -1    0    0  501    0  0.00000000000E+00 -0.00000000000E+00 -0.87572529820E+03  0.87572529821E+03  0.50400000000E-02 0. -1.
    8880022    1    1    2    0    0 -0.64435055445E+03  0.11230812590E+04  0.11318038921E+03  0.13087018778E+04  0.15294330000E+03 0.  0.
    8880022    1    1    2    0    0  0.64435055445E+03 -0.11230812590E+04  0.12509091642E+04  0.18068382721E+04  0.15294330000E+03 0.  0.
<mgrwt>
<rscale>  0 0.13037986E+04</rscale>
<asrwt>0</asrwt>
<pdfrwt beam="1">  1        1 0.13472697E+00 0.13037986E+04</pdfrwt>
<pdfrwt beam="2">  1       -1 0.34458690E+00 0.13037986E+04</pdfrwt>
<totfact> 0.31398996E-01</totfact>
</mgrwt>
</event>
<event>
 4    1  0.2731969E-009  0.1207494E+04  0.7818608E-02  0.9106322E-01
         -1   -1    0    0    0  501 -0.00000000000E+00  0.00000000000E+00  0.22580889080E+04  0.22580889080E+04  0.50400000000E-02 0.  1.
          1   -1    0    0  501    0  0.00000000000E+00 -0.00000000000E+00 -0.12522217882E+04  0.12522217882E+04  0.50400000000E-02 0. -1.
    8880022    1    1    2    0    0  0.11972245322E+04  0.36116222344E+02  0.17244490879E+04  0.21051763042E+04  0.15294330000E+03 0.  0.
    8880022    1    1    2    0    0 -0.11972245322E+04 -0.36116222344E+02 -0.71858196810E+03  0.14051343921E+04  0.15294330000E+03 0.  0.
<mgrwt>
<rscale>  0 0.12074944E+04</rscale>
<asrwt>0</asrwt>
<pdfrwt beam="1">  1        1 0.19264951E+00 0.12074944E+04</pdfrwt>
<pdfrwt beam="2">  1       -1 0.34739829E+00 0.12074944E+04</pdfrwt>
<totfact> 0.15618696E-01</totfact>
</mgrwt>
</event>
<event>
 4    1  0.2731969E-009  0.2457741E+03  0.7818608E-02  0.1116005E+00
         -1   -1    0    0    0  501 -0.00000000000E+00  0.00000000000E+00  0.22392589772E+03  0.22392589778E+03  0.50400000000E-02 0.  1.
          1   -1    0    0  501    0  0.00000000000E+00 -0.00000000000E+00 -0.15352749366E+04  0.15352749366E+04  0.50400000000E-02 0. -1.
    8880022    1    1    2    0    0  0.16670567729E+03  0.96033646127E+02 -0.14542703183E+04  0.14748922183E+04  0.15294330000E+03 0.  0.
    8880022    1    1    2    0    0 -0.16670567729E+03 -0.96033646127E+02  0.14292127942E+03  0.28430861604E+03  0.15294330000E+03 0.  1.
<mgrwt>
<rscale>  0 0.24577408E+03</rscale>
<asrwt>0</asrwt>
<pdfrwt beam="1">  1        1 0.23619614E+00 0.24577408E+03</pdfrwt>
<pdfrwt beam="2">  1       -1 0.34450139E-01 0.24577408E+03</pdfrwt>
<totfact> 0.55688374E+01</totfact>
</mgrwt>
</event>
<event>
 4    1  0.2731969E-009  0.5489205E+03  0.7818608E-02  0.1001744E+00
         -1   -1    0    0    0  501 -0.00000000000E+00  0.00000000000E+00  0.14877833287E+04  0.14877833287E+04  0.50400000000E-02 0.  1.
          1   -1    0    0  501    0  0.00000000000E+00 -0.00000000000E+00 -0.86676728578E+03  0.86676728579E+03  0.50400000000E-02 0. -1.
    8880022    1    1    2    0    0  0.50343366871E+03 -0.15645006399E+03 -0.72009152651E+03  0.90545322402E+03  0.15294330000E+03 0.  0.
    8880022    1    1    2    0    0 -0.50343366871E+03  0.15645006399E+03  0.13411075694E+04  0.14490973905E+04  0.15294330000E+03 0.  0.
<mgrwt>
<rscale>  0 0.54892052E+03</rscale>
<asrwt>0</asrwt>
<pdfrwt beam="1">  1        1 0.13334882E+00 0.54892052E+03</pdfrwt>
<pdfrwt beam="2">  1       -1 0.22888974E+00 0.54892052E+03</pdfrwt>
<totfact> 0.20287023E+00</totfact>
</mgrwt>
</event>
<event>
 4    1  0.2731969E-009  0.4533827E+03  0.7818608E-02  0.1026718E+00
         -1   -1    0    0    0  501 -0.00000000000E+00  0.00000000000E+00  0.12359166363E+04  0.12359166363E+04  0.50400000000E-02 0.  1.
          1   -1    0    0  501    0  0.00000000000E+00 -0.00000000000E+00 -0.94133589372E+03  0.94133589373E+03  0.50400000000E-02 0. -1.
    8880022    1    1    2    0    0  0.30288876647E+03 -0.30070346892E+03 -0.84049414908E+03  0.95497971116E+03  0.15294330000E+03 0. -1.
    8880022    1    1    2    0    0 -0.30288876647E+03  0.30070346892E+03  0.11350748916E+04  0.12222728188E+04  0.15294330000E+03 0.  0.
<mgrwt>
<rscale>  0 0.45338266E+03</rscale>
<asrwt>0</asrwt>
<pdfrwt beam="1">  1        1 0.14482091E+00 0.45338266E+03</pdfrwt>
<pdfrwt beam="2">  1       -1 0.19014102E+00 0.45338266E+03</pdfrwt>
<totfact> 0.32920872E+00</totfact>
</mgrwt>
</event>
<event>
 4    1  0.2731969E-009  0.1319349E+04  0.7818608E-02  0.9014360E-01
         -1   -1    0    0    0  501 -0.00000000000E+00  0.00000000000E+00  0.13200339314E+04  0.13200339314E+04  0.50400000000E-02 0.  1.
          1   -1    0    0  501    0  0.00000000000E+00 -0.00000000000E+00 -0.17399538798E+04  0.17399538798E+04  0.50400000000E-02 0. -1.
    8880022    1    1    2    0    0  0.12415349272E+04 -0.41938220976E+03 -0.96281441578E+03  0.16333075845E+04  0.15294330000E+03 0.  0.
    8880022    1    1    2    0    0 -0.12415349272E+04  0.41938220976E+03  0.54289446735E+03  0.14266802267E+04  0.15294330000E+03 0.  0.
<mgrwt>
<rscale>  0 0.13193491E+04</rscale>
<asrwt>0</asrwt>
<pdfrwt beam="1">  1        1 0.26768521E+00 0.13193491E+04</pdfrwt>
<pdfrwt beam="2">  1       -1 0.20308214E+00 0.13193491E+04</pdfrwt>
<totfact> 0.61950467E-01</totfact>
</mgrwt>
</event>
<event>
 4    1  0.2731969E-009  0.2526592E+03  0.7818608E-02  0.1111636E+00
          1   -1    0    0  501    0  0.00000000000E+00  0.00000000000E+00  0.78741714817E+03  0.78741714819E+03  0.50400000000E-02 0. -1.
         -1   -1    0    0    0  501 -0.00000000000E+00 -0.00000000000E+00 -0.17878038286E+03  0.17878038293E+03  0.50400000000E-02 0.  1.
    8880022    1    1    2    0    0  0.26074308074E+02  0.19941194554E+03  0.66146313219E+03  0.70807494083E+03  0.15294330000E+03 0. -1.
    8880022    1    1    2    0    0 -0.26074308074E+02 -0.19941194554E+03 -0.52826366873E+02  0.25812259029E+03  0.15294330000E+03 0.  0.
<mgrwt>
<rscale>  0 0.25265915E+03</rscale>
<asrwt>0</asrwt>
<pdfrwt beam="1">  1        1 0.12114110E+00 0.25265915E+03</pdfrwt>
<pdfrwt beam="2">  1       -1 0.27504675E-01 0.25265915E+03</pdfrwt>
<totfact> 0.28285521E+02</totfact>
</mgrwt>
</event>
<event>
 4    1  0.2731969E-009  0.2652188E+03  0.7818608E-02  0.1104048E+00
         -1   -1    0    0    0  501 -0.00000000000E+00  0.00000000000E+00  0.51711776746E+03  0.51711776749E+03  0.50400000000E-02 0.  1.
          1   -1    0    0  501    0  0.00000000000E+00 -0.00000000000E+00 -0.83483420202E+03  0.83483420204E+03  0.50400000000E-02 0. -1.
    8880022    1    1    2    0    0  0.11581189830E+03  0.18313100748E+03  0.45960007348E+03  0.53063475409E+03  0.15294330000E+03 0.  0.
    8880022    1    1    2    0    0 -0.11581189830E+03 -0.18313100748E+03 -0.77731650804E+03  0.82131721544E+03  0.15294330000E+03 0. -1.
<mgrwt>
<rscale>  0 0.26521881E+03</rscale>
<asrwt>0</asrwt>
<pdfrwt beam="1">  1        1 0.12843603E+00 0.26521881E+03</pdfrwt>
<pdfrwt beam="2">  1       -1 0.79556579E-01 0.26521881E+03</pdfrwt>
<totfact> 0.36235634E+01</totfact>
</mgrwt>
</event>
<event>
 4    1  0.2731969E-009  0.7468530E+03  0.7818608E-02  0.9640300E-01
         -1   -1    0    0    0  501 -0.00000000000E+00  0.00000000000E+00  0.86925646590E+03  0.86925646591E+03  0.50400000000E-02 0.  1.
          1   -1    0    0  501    0  0.00000000000E+00 -0.00000000000E+00 -0.14898432148E+04  0.14898432149E+04  0.50400000000E-02 0. -1.
    8880022    1    1    2    0    0  0.15917774376E+03  0.71348453044E+03 -0.12002816549E+04  0.14136709070E+04  0.15294330000E+03 0.  0.
    8880022    1    1    2    0    0 -0.15917774376E+03 -0.71348453044E+03  0.57969490592E+03  0.94542877376E+03  0.15294330000E+03 0.  0.
<mgrwt>
<rscale>  0 0.74685299E+03</rscale>
<asrwt>0</asrwt>
<pdfrwt beam="1">  1        1 0.22920665E+00 0.74685299E+03</pdfrwt>
<pdfrwt beam="2">  1       -1 0.13373176E+00 0.74685299E+03</pdfrwt>
<totfact> 0.32776990E+00</totfact>
</mgrwt>
</event>
<event>
 4    1  0.2731969E-009  0.1085806E+04  0.7818608E-02  0.9219138E-01
          1   -1    0    0  501    0  0.00000000000E+00  0.00000000000E+00  0.85633859509E+03  0.85633859511E+03  0.50400000000E-02 0. -1.
         -1   -1    0    0    0  501 -0.00000000000E+00 -0.00000000000E+00 -0.32510550200E+04  0.32510550200E+04  0.50400000000E-02 0.  1.
    8880022    1    1    2    0    0 -0.62932951442E+03  0.87150835575E+03 -0.27567058876E+04  0.29628367244E+04  0.15294330000E+03 0.  0.
    8880022    1    1    2    0    0  0.62932951442E+03 -0.87150835575E+03  0.36198946270E+03  0.11445568907E+04  0.15294330000E+03 0.  0.
<mgrwt>
<rscale>  0 0.10858057E+04</rscale>
<asrwt>0</asrwt>
<pdfrwt beam="1">  1        1 0.13174440E+00 0.10858057E+04</pdfrwt>
<pdfrwt beam="2">  1       -1 0.50016231E+00 0.10858057E+04</pdfrwt>
<totfact> 0.29508034E-02</totfact>
</mgrwt>
</event>
<event>
 4    1  0.2731969E-009  0.2223718E+03  0.7818608E-02  0.1132127E+00
          1   -1    0    0  501    0  0.00000000000E+00  0.00000000000E+00  0.22830310206E+04  0.22830310206E+04  0.50400000000E-02 0. -1.
         -1   -1    0    0    0  501 -0.00000000000E+00 -0.00000000000E+00 -0.37462890765E+02  0.37462891104E+02  0.50400000000E-02 0.  1.
    8880022    1    1    2    0    0  0.85039512309E+02  0.13720736851E+03  0.36921094726E+03  0.43100575080E+03  0.15294330000E+03 0.  0.
    8880022    1    1    2    0    0 -0.85039512309E+02 -0.13720736851E+03  0.18763571826E+04  0.18894881609E+04  0.15294330000E+03 0.  0.
<mgrwt>
<rscale>  0 0.22237184E+03</rscale>
<asrwt>0</asrwt>
<pdfrwt beam="1">  1        1 0.35123561E+00 0.22237184E+03</pdfrwt>
<pdfrwt beam="2">  1       -1 0.57635206E-02 0.22237184E+03</pdfrwt>
<totfact> 0.31652589E+02</totfact>
</mgrwt>
</event>
<event>
 4    1  0.2731969E-009  0.6612802E+03  0.7818608E-02  0.9785840E-01
         -1   -1    0    0    0  501 -0.00000000000E+00  0.00000000000E+00  0.54993237805E+03  0.54993237807E+03  0.50400000000E-02 0.  1.
          1   -1    0    0  501    0  0.00000000000E+00 -0.00000000000E+00 -0.26735012831E+04  0.26735012831E+04  0.50400000000E-02 0. -1.
    8880022    1    1    2    0    0  0.52141344912E+03 -0.37686590432E+03  0.28914993357E+03  0.72173349088E+03  0.15294330000E+03 0.  1.
    8880022    1    1    2    0    0 -0.52141344912E+03  0.37686590432E+03 -0.24127188386E+04  0.25017001703E+04  0.15294330000E+03 0.  0.
<mgrwt>
<rscale>  0 0.66128023E+03</rscale>
<asrwt>0</asrwt>
<pdfrwt beam="1">  1        1 0.41130788E+00 0.66128023E+03</pdfrwt>
<pdfrwt beam="2">  1       -1 0.84604983E-01 0.66128023E+03</pdfrwt>
<totfact> 0.15457848E+00</totfact>
</mgrwt>
</event>
<event>
 4    1  0.2731969E-009  0.2782074E+03  0.7818608E-02  0.1096672E+00
          1   -1    0    0  501    0  0.00000000000E+00  0.00000000000E+00  0.11469940715E+04  0.11469940715E+04  0.50400000000E-02 0. -1.
         -1   -1    0    0    0  501 -0.00000000000E+00 -0.00000000000E+00 -0.18469819820E+04  0.18469819820E+04  0.50400000000E-02 0.  1.
    8880022    1    1    2    0    0 -0.18776644052E+03  0.13693605273E+03  0.11193931113E+04  0.11534471420E+04  0.15294330000E+03 0. -1.
    8880022    1    1    2    0    0  0.18776644052E+03 -0.13693605273E+03 -0.18193810218E+04  0.18405289115E+04  0.15294330000E+03 0.  0.
<mgrwt>
<rscale>  0 0.27820743E+03</rscale>
<asrwt>0</asrwt>
<pdfrwt beam="1">  1        1 0.17646063E+00 0.27820743E+03</pdfrwt>
<pdfrwt beam="2">  1       -1 0.28415108E+00 0.27820743E+03</pdfrwt>
<totfact> 0.61531191E-01</totfact>
</mgrwt>
</event>
<event>
 4    1  0.2731969E-009  0.2221753E+03  0.7818608E-02  0.1132272E+00
         -1   -1    0    0    0  501 -0.00000000000E+00  0.00000000000E+00  0.46440403489E+03  0.46440403492E+03  0.50400000000E-02 0.  1.
          1   -1    0    0  501    0  0.00000000000E+00 -0.00000000000E+00 -0.19797703899E+04  0.19797703899E+04  0.50400000000E-02 0. -1.
    8880022    1    1    2    0    0 -0.15292429771E+03  0.50836605115E+02  0.43114550910E+03  0.48502402444E+03  0.15294330000E+03 0.  0.
    8880022    1    1    2    0    0  0.15292429771E+03 -0.50836605115E+02 -0.19465118641E+04  0.19591504004E+04  0.15294330000E+03 0. -1.
<mgrwt>
<rscale>  0 0.22217528E+03</rscale>
<asrwt>0</asrwt>
<pdfrwt beam="1">  1        1 0.30458005E+00 0.22217528E+03</pdfrwt>
<pdfrwt beam="2">  1       -1 0.71446776E-01 0.22217528E+03</pdfrwt>
<totfact> 0.74830912E+00</totfact>
</mgrwt>
</event>
<event>
 4    1  0.2731969E-009  0.1938403E+03  0.7818608E-02  0.1155043E+00
          1   -1    0    0  501    0  0.00000000000E+00  0.00000000000E+00  0.10371218898E+04  0.10371218898E+04  0.50400000000E-02 0. -1.
         -1   -1    0    0    0  501 -0.00000000000E+00 -0.00000000000E+00 -0.10256596369E+03  0.10256596381E+03  0.50400000000E-02 0.  1.
    8880022    1    1    2    0    0  0.14094662505E+02 -0.11825295473E+03  0.89973314769E+01  0.19404902938E+03  0.15294330000E+03 0.  0.
    8880022    1    1    2    0    0 -0.14094662505E+02  0.11825295473E+03  0.92555859466E+03  0.94563882428E+03  0.15294330000E+03 0. -1.
<mgrwt>
<rscale>  0 0.19384033E+03</rscale>
<asrwt>0</asrwt>
<pdfrwt beam="1">  1        1 0.15955723E+00 0.19384033E+03</pdfrwt>
<pdfrwt beam="2">  1       -1 0.15779378E-01 0.19384033E+03</pdfrwt>
<totfact> 0.45086061E+02</totfact>
</mgrwt>
</event>
<event>
 4    1  0.2731969E-009  0.7766388E+03  0.7818608E-02  0.9594461E-01
          1   -1    0    0  501    0  0.00000000000E+00  0.00000000000E+00  0.11356000833E+04  0.11356000833E+04  0.50400000000E-02 0. -1.
         -1   -1    0    0    0  501 -0.00000000000E+00 -0.00000000000E+00 -0.62626962705E+03  0.62626962707E+03  0.50400000000E-02 0.  1.
    8880022    1    1    2    0    0 -0.47336654954E+03 -0.59640617209E+03 -0.88663772016E+02  0.78168352279E+03  0.15294330000E+03 0.  0.
    8880022    1    1    2    0    0  0.47336654954E+03  0.59640617209E+03  0.59799422830E+03  0.98018618763E+03  0.15294330000E+03 0.  0.
<mgrwt>
<rscale>  0 0.77663883E+03</rscale>
<asrwt>0</asrwt>
<pdfrwt beam="1">  1        1 0.17470770E+00 0.77663883E+03</pdfrwt>
<pdfrwt beam="2">  1       -1 0.96349175E-01 0.77663883E+03</pdfrwt>
<totfact> 0.12726608E+01</totfact>
</mgrwt>
</event>
<event>
 4    1  0.2731969E-009  0.5769334E+03  0.7818608E-02  0.9954452E-01
          1   -1    0    0  501    0  0.00000000000E+00  0.00000000000E+00  0.84665070426E+03  0.84665070428E+03  0.50400000000E-02 0. -1.
         -1   -1    0    0    0  501 -0.00000000000E+00 -0.00000000000E+00 -0.65731550789E+03  0.65731550791E+03  0.50400000000E-02 0.  1.
    8880022    1    1    2    0    0 -0.31993130374E+03  0.45508728371E+03  0.57139217986E+03  0.81199824577E+03  0.15294330000E+03 0.  0.
    8880022    1    1    2    0    0  0.31993130374E+03 -0.45508728371E+03 -0.38205698349E+03  0.69196796642E+03  0.15294330000E+03 0.  1.
<mgrwt>
<rscale>  0 0.57693338E+03</rscale>
<asrwt>0</asrwt>
<pdfrwt beam="1">  1        1 0.13025395E+00 0.57693338E+03</pdfrwt>
<pdfrwt beam="2">  1       -1 0.10112546E+00 0.57693338E+03</pdfrwt>
<totfact> 0.19704322E+01</totfact>
</mgrwt>
</event>
<event>
 4    1  0.2731969E-009  0.6254221E+03  0.7818608E-02  0.9854023E-01
         -1   -1    0    0    0  501 -0.00000000000E+00  0.00000000000E+00  0.46621920711E+03  0.46621920713E+03  0.50400000000E-02 0.  1.
          1   -1    0    0  501    0  0.00000000000E+00 -0.00000000000E+00 -0.43115224326E+04  0.43115224326E+04  0.50400000000E-02 0. -1.
    8880022    1    1    2    0    0 -0.59538528765E+03  0.11522811436E+03  0.22122879262E+03  0.66339655620E+03  0.15294330000E+03 0.  0.
    8880022    1    1    2    0    0  0.59538528765E+03 -0.11522811436E+03 -0.40665320181E+04  0.41143450835E+04  0.15294330000E+03 0.  0.
<mgrwt>
<rscale>  0 0.62542211E+03</rscale>
<asrwt>0</asrwt>
<pdfrwt beam="1">  1        1 0.66331112E+00 0.62542211E+03</pdfrwt>
<pdfrwt beam="2">  1       -1 0.71726035E-01 0.62542211E+03</pdfrwt>
<totfact> 0.11470290E-01</totfact>
</mgrwt>
</event>
<event>
 4    1  0.2731969E-009  0.6818785E+03  0.7818608E-02  0.9748734E-01
         -1   -1    0    0    0  501 -0.00000000000E+00  0.00000000000E+00  0.67718130869E+03  0.67718130871E+03  0.50400000000E-02 0.  1.
          1   -1    0    0  501    0  0.00000000000E+00 -0.00000000000E+00 -0.24256159942E+04  0.24256159942E+04  0.50400000000E-02 0. -1.
    8880022    1    1    2    0    0 -0.57233989102E+03  0.33762959482E+03 -0.21878173137E+04  0.22916157936E+04  0.15294330000E+03 0.  0.
    8880022    1    1    2    0    0  0.57233989102E+03 -0.33762959482E+03  0.43938262819E+03  0.81118150935E+03  0.15294330000E+03 0.  0.
<mgrwt>
<rscale>  0 0.68187854E+03</rscale>
<asrwt>0</asrwt>
<pdfrwt beam="1">  1        1 0.37317169E+00 0.68187854E+03</pdfrwt>
<pdfrwt beam="2">  1       -1 0.10418174E+00 0.68187854E+03</pdfrwt>
<totfact> 0.14291429E+00</totfact>
</mgrwt>
</event>
<event>
 4    1  0.2731969E-009  0.1765604E+03  0.7818608E-02  0.1171174E+00
          1   -1    0    0  501    0  0.00000000000E+00  0.00000000000E+00  0.11767534649E+04  0.11767534649E+04  0.50400000000E-02 0. -1.
         -1   -1    0    0    0  501 -0.00000000000E+00 -0.00000000000E+00 -0.29501768733E+03  0.29501768737E+03  0.50400000000E-02 0.  1.
    8880022    1    1    2    0    0 -0.21115647354E+02 -0.85650755516E+02  0.11429369799E+04  0.11564940621E+04  0.15294330000E+03 0.  0.
    8880022    1    1    2    0    0  0.21115647354E+02  0.85650755516E+02 -0.26120120237E+03  0.31527709022E+03  0.15294330000E+03 0.  1.
<mgrwt>
<rscale>  0 0.17656040E+03</rscale>
<asrwt>0</asrwt>
<pdfrwt beam="1">  1        1 0.18103899E+00 0.17656040E+03</pdfrwt>
<pdfrwt beam="2">  1       -1 0.45387337E-01 0.17656040E+03</pdfrwt>
<totfact> 0.61243130E+01</totfact>
</mgrwt>
</event>
<event>
 4    1  0.2731969E-009  0.3440229E+03  0.7818608E-02  0.1065095E+00
         -1   -1    0    0    0  501 -0.00000000000E+00  0.00000000000E+00  0.32536965519E+03  0.32536965522E+03  0.50400000000E-02 0.  1.
          1   -1    0    0  501    0  0.00000000000E+00 -0.00000000000E+00 -0.12783024754E+04  0.12783024754E+04  0.50400000000E-02 0. -1.
    8880022    1    1    2    0    0 -0.17848856931E+01 -0.30815084689E+03  0.20175911226E+03  0.39882141699E+03  0.15294330000E+03 0.  1.
    8880022    1    1    2    0    0  0.17848856931E+01  0.30815084689E+03 -0.11546919325E+04  0.12048507136E+04  0.15294330000E+03 0.  0.
<mgrwt>
<rscale>  0 0.34402294E+03</rscale>
<asrwt>0</asrwt>
<pdfrwt beam="1">  1        1 0.19666192E+00 0.34402294E+03</pdfrwt>
<pdfrwt beam="2">  1       -1 0.50056871E-01 0.34402294E+03</pdfrwt>
<totfact> 0.41218209E+01</totfact>
</mgrwt>
</event>
<event>
 4    1  0.2731969E-009  0.5518694E+03  0.7818608E-02  0.1001062E+00
          1   -1    0    0  501    0  0.00000000000E+00  0.00000000000E+00  0.79576760454E+03  0.79576760455E+03  0.50400000000E-02 0. -1.
         -1   -1    0    0    0  501 -0.00000000000E+00 -0.00000000000E+00 -0.12792430838E+04  0.12792430838E+04  0.50400000000E-02 0.  1.
    8880022    1    1    2    0    0 -0.53004528996E+03  0.14837518045E+02  0.62680948092E+03  0.83513468359E+03  0.15294330000E+03 0.  0.
    8880022    1    1    2    0    0  0.53004528996E+03 -0.14837518045E+02 -0.11102849602E+04  0.12398760047E+04  0.15294330000E+03 0.  1.
<mgrwt>
<rscale>  0 0.55186938E+03</rscale>
<asrwt>0</asrwt>
<pdfrwt beam="1">  1        1 0.12242579E+00 0.55186938E+03</pdfrwt>
<pdfrwt beam="2">  1       -1 0.19680663E+00 0.55186938E+03</pdfrwt>
<totfact> 0.38051597E+00</totfact>
</mgrwt>
</event>
<event>
 4    1  0.2731969E-009  0.8776635E+03  0.7818608E-02  0.9453942E-01
          1   -1    0    0  501    0  0.00000000000E+00  0.00000000000E+00  0.39751916210E+04  0.39751916210E+04  0.50400000000E-02 0. -1.
         -1   -1    0    0    0  501 -0.00000000000E+00 -0.00000000000E+00 -0.41793948092E+03  0.41793948095E+03  0.50400000000E-02 0.  1.
    8880022    1    1    2    0    0  0.22248093802E+03 -0.83510710589E+03  0.16994209299E+03  0.89396510786E+03  0.15294330000E+03 0.  0.
    8880022    1    1    2    0    0 -0.22248093802E+03  0.83510710589E+03  0.33873100471E+04  0.34991659941E+04  0.15294330000E+03 0.  0.
<mgrwt>
<rscale>  0 0.87766355E+03</rscale>
<asrwt>0</asrwt>
<pdfrwt beam="1">  1        1 0.61156795E+00 0.87766355E+03</pdfrwt>
<pdfrwt beam="2">  1       -1 0.64298380E-01 0.87766355E+03</pdfrwt>
<totfact> 0.26740235E-01</totfact>
</mgrwt>
</event>
<event>
 4    1  0.2731969E-009  0.1054073E+04  0.7818608E-02  0.9251149E-01
         -1   -1    0    0    0  501 -0.00000000000E+00  0.00000000000E+00  0.62062630332E+03  0.62062630334E+03  0.50400000000E-02 0.  1.
          1   -1    0    0  501    0  0.00000000000E+00 -0.00000000000E+00 -0.27960662210E+04  0.27960662210E+04  0.50400000000E-02 0. -1.
    8880022    1    1    2    0    0 -0.10407797114E+04  0.66745983713E+02 -0.63097240382E+02  0.10559594447E+04  0.15294330000E+03 0.  0.
    8880022    1    1    2    0    0  0.10407797114E+04 -0.66745983713E+02 -0.21123426773E+04  0.23607330796E+04  0.15294330000E+03 0.  0.
<mgrwt>
<rscale>  0 0.10540726E+04</rscale>
<asrwt>0</asrwt>
<pdfrwt beam="1">  1        1 0.43016402E+00 0.10540726E+04</pdfrwt>
<pdfrwt beam="2">  1       -1 0.95480972E-01 0.10540726E+04</pdfrwt>
<totfact> 0.90136428E-01</totfact>
</mgrwt>
</event>
<event>
 4    1  0.2731969E-009  0.1862017E+04  0.7818608E-02  0.8673997E-01
         -1   -1    0    0    0  501 -0.00000000000E+00  0.00000000000E+00  0.16818991067E+04  0.16818991067E+04  0.50400000000E-02 0.  1.
          1   -1    0    0  501    0  0.00000000000E+00 -0.00000000000E+00 -0.21129699160E+04  0.21129699160E+04  0.50400000000E-02 0. -1.
    8880022    1    1    2    0    0  0.18057665279E+04  0.42769583356E+03  0.80821394229E+02  0.18637704338E+04  0.15294330000E+03 0.  0.
    8880022    1    1    2    0    0 -0.18057665279E+04 -0.42769583356E+03 -0.51189220356E+03  0.19310985889E+04  0.15294330000E+03 0.  0.
<mgrwt>
<rscale>  0 0.18620172E+04</rscale>
<asrwt>0</asrwt>
<pdfrwt beam="1">  1        1 0.32507230E+00 0.18620172E+04</pdfrwt>
<pdfrwt beam="2">  1       -1 0.25875371E+00 0.18620172E+04</pdfrwt>
<totfact> 0.13828217E-01</totfact>
</mgrwt>
</event>
<event>
 4    1  0.2731969E-009  0.6948153E+03  0.7818608E-02  0.9726140E-01
         -1   -1    0    0    0  501 -0.00000000000E+00  0.00000000000E+00  0.15963938821E+04  0.15963938821E+04  0.50400000000E-02 0.  1.
          1   -1    0    0  501    0  0.00000000000E+00 -0.00000000000E+00 -0.73578218891E+03  0.73578218893E+03  0.50400000000E-02 0. -1.
    8880022    1    1    2    0    0 -0.76618552274E+02 -0.67342875472E+03 -0.46461849775E+03  0.83584609332E+03  0.15294330000E+03 0.  0.
    8880022    1    1    2    0    0  0.76618552274E+02  0.67342875472E+03  0.13252301909E+04  0.14963299777E+04  0.15294330000E+03 0.  0.
<mgrwt>
<rscale>  0 0.69481533E+03</rscale>
<asrwt>0</asrwt>
<pdfrwt beam="1">  1        1 0.11319726E+00 0.69481533E+03</pdfrwt>
<pdfrwt beam="2">  1       -1 0.24559906E+00 0.69481533E+03</pdfrwt>
<totfact> 0.19859981E+00</totfact>
</mgrwt>
</event>
<event>
 4    1  0.9967641E-009  0.1875969E+04  0.7818608E-02  0.8666911E-01
          1   -1    0    0  501    0  0.00000000000E+00  0.00000000000E+00  0.36239292085E+04  0.36239292085E+04  0.50400000000E-02 0. -1.
         -1   -1    0    0    0  501 -0.00000000000E+00 -0.00000000000E+00 -0.18615179353E+04  0.18615179353E+04  0.50400000000E-02 0.  1.
    8880022    1    1    2    0    0 -0.16235578356E+04  0.92732381101E+03 -0.10156798045E+04  0.21332760286E+04  0.15294330000E+03 0.  0.
    8880022    1    1    2    0    0  0.16235578356E+04 -0.92732381101E+03  0.27780910777E+04  0.33521711152E+04  0.15294330000E+03 0.  0.
<mgrwt>
<rscale>  0 0.18759694E+04</rscale>
<asrwt>0</asrwt>
<pdfrwt beam="1">  1        1 0.55752757E+00 0.18759694E+04</pdfrwt>
<pdfrwt beam="2">  1       -1 0.28638738E+00 0.18759694E+04</pdfrwt>
<totfact> 0.72465132E-03</totfact>
</mgrwt>
</event>
<event>
 4    1  0.2731969E-009  0.9970689E+03  0.7818608E-02  0.9311765E-01
         -1   -1    0    0    0  501 -0.00000000000E+00  0.00000000000E+00  0.73819995614E+03  0.73819995616E+03  0.50400000000E-02 0.  1.
          1   -1    0    0  501    0  0.00000000000E+00 -0.00000000000E+00 -0.20678420727E+04  0.20678420727E+04  0.50400000000E-02 0. -1.
    8880022    1    1    2    0    0  0.97244627747E+03  0.15843946817E+03 -0.14933558875E+04  0.17956219779E+04  0.15294330000E+03 0.  0.
    8880022    1    1    2    0    0 -0.97244627747E+03 -0.15843946817E+03  0.16371377095E+03  0.10104200510E+04  0.15294330000E+03 0.  0.
<mgrwt>
<rscale>  0 0.99706894E+03</rscale>
<asrwt>0</asrwt>
<pdfrwt beam="1">  1        1 0.31812955E+00 0.99706894E+03</pdfrwt>
<pdfrwt beam="2">  1       -1 0.11356922E+00 0.99706894E+03</pdfrwt>
<totfact> 0.19190784E+00</totfact>
</mgrwt>
</event>
<event>
 4    1  0.2731969E-009  0.6174482E+03  0.7818608E-02  0.9869854E-01
         -1   -1    0    0    0  501 -0.00000000000E+00  0.00000000000E+00  0.13918719668E+04  0.13918719668E+04  0.50400000000E-02 0.  1.
          1   -1    0    0  501    0  0.00000000000E+00 -0.00000000000E+00 -0.96213440224E+03  0.96213440225E+03  0.50400000000E-02 0. -1.
    8880022    1    1    2    0    0 -0.28730222132E+03  0.52469805953E+03 -0.78059627178E+03  0.99527524464E+03  0.15294330000E+03 0.  0.
    8880022    1    1    2    0    0  0.28730222132E+03 -0.52469805953E+03  0.12103338363E+04  0.13587311244E+04  0.15294330000E+03 0.  1.
<mgrwt>
<rscale>  0 0.61744819E+03</rscale>
<asrwt>0</asrwt>
<pdfrwt beam="1">  1        1 0.14802068E+00 0.61744819E+03</pdfrwt>
<pdfrwt beam="2">  1       -1 0.21413415E+00 0.61744819E+03</pdfrwt>
<totfact> 0.20939692E+00</totfact>
</mgrwt>
</event>
<event>
 4    1  0.2731969E-009  0.7896967E+03  0.7818608E-02  0.9575052E-01
          1   -1    0    0  501    0  0.00000000000E+00  0.00000000000E+00  0.10515332637E+04  0.10515332637E+04  0.50400000000E-02 0. -1.
         -1   -1    0    0    0  501 -0.00000000000E+00 -0.00000000000E+00 -0.19072158469E+04  0.19072158469E+04  0.50400000000E-02 0.  1.
    8880022    1    1    2    0    0 -0.30980227793E+03  0.71010685144E+03 -0.16558512498E+04  0.18345201570E+04  0.15294330000E+03 0.  0.
    8880022    1    1    2    0    0  0.30980227793E+03 -0.71010685144E+03  0.80016866663E+03  0.11242289535E+04  0.15294330000E+03 0.  0.
<mgrwt>
<rscale>  0 0.78969668E+03</rscale>
<asrwt>0</asrwt>
<pdfrwt beam="1">  1        1 0.16177435E+00 0.78969668E+03</pdfrwt>
<pdfrwt beam="2">  1       -1 0.29341782E+00 0.78969668E+03</pdfrwt>
<totfact> 0.52939174E-01</totfact>
</mgrwt>
</event>
<event>
 4    1  0.2731969E-009  0.4403750E+03  0.7818608E-02  0.1030632E+00
          1   -1    0    0  501    0  0.00000000000E+00  0.00000000000E+00  0.10624530490E+04  0.10624530490E+04  0.50400000000E-02 0. -1.
         -1   -1    0    0    0  501 -0.00000000000E+00 -0.00000000000E+00 -0.36904210159E+03  0.36904210162E+03  0.50400000000E-02 0.  1.
    8880022    1    1    2    0    0  0.30802419983E+03  0.27506279865E+03 -0.16212701671E+03  0.46927100214E+03  0.15294330000E+03 0.  1.
    8880022    1    1    2    0    0 -0.30802419983E+03 -0.27506279865E+03  0.85553796415E+03  0.96222414852E+03  0.15294330000E+03 0. -1.
<mgrwt>
<rscale>  0 0.44037496E+03</rscale>
<asrwt>0</asrwt>
<pdfrwt beam="1">  1        1 0.16345431E+00 0.44037496E+03</pdfrwt>
<pdfrwt beam="2">  1       -1 0.56775710E-01 0.44037496E+03</pdfrwt>
<totfact> 0.45436181E+01</totfact>
</mgrwt>
</event>
<event>
 4    1  0.2731969E-009  0.5317585E+03  0.7818608E-02  0.1005807E+00
          1   -1    0    0  501    0  0.00000000000E+00  0.00000000000E+00  0.23882837873E+04  0.23882837873E+04  0.50400000000E-02 0. -1.
         -1   -1    0    0    0  501 -0.00000000000E+00 -0.00000000000E+00 -0.44346362240E+03  0.44346362243E+03  0.50400000000E-02 0.  1.
    8880022    1    1    2    0    0  0.49807976987E+03 -0.10626397603E+03 -0.23980946808E+03  0.58333157274E+03  0.15294330000E+03 0.  1.
    8880022    1    1    2    0    0 -0.49807976987E+03  0.10626397603E+03  0.21846296329E+04  0.22484158370E+04  0.15294330000E+03 0.  0.
<mgrwt>
<rscale>  0 0.53175854E+03</rscale>
<asrwt>0</asrwt>
<pdfrwt beam="1">  1        1 0.36742827E+00 0.53175854E+03</pdfrwt>
<pdfrwt beam="2">  1       -1 0.68225174E-01 0.53175854E+03</pdfrwt>
<totfact> 0.39122599E+00</totfact>
</mgrwt>
</event>
<event>
 4    1  0.2731969E-009  0.9077701E+03  0.7818608E-02  0.9415920E-01
         -1   -1    0    0    0  501 -0.00000000000E+00  0.00000000000E+00  0.16152081869E+04  0.16152081869E+04  0.50400000000E-02 0.  1.
          1   -1    0    0  501    0  0.00000000000E+00 -0.00000000000E+00 -0.22203505770E+04  0.22203505770E+04  0.50400000000E-02 0. -1.
    8880022    1    1    2    0    0 -0.89394301076E+03 -0.38997097022E+02  0.13805198694E+04  0.16522353473E+04  0.15294330000E+03 0.  0.
    8880022    1    1    2    0    0  0.89394301076E+03  0.38997097022E+02 -0.19856622595E+04  0.21833234166E+04  0.15294330000E+03 0.  0.
<mgrwt>
<rscale>  0 0.90777009E+03</rscale>
<asrwt>0</asrwt>
<pdfrwt beam="1">  1        1 0.34159240E+00 0.90777009E+03</pdfrwt>
<pdfrwt beam="2">  1       -1 0.24849357E+00 0.90777009E+03</pdfrwt>
<totfact> 0.15637859E-01</totfact>
</mgrwt>
</event>
<event>
 4    1  0.2731969E-009  0.5674865E+03  0.7818608E-02  0.9975256E-01
         -1   -1    0    0    0  501 -0.00000000000E+00  0.00000000000E+00  0.22946225983E+03  0.22946225989E+03  0.50400000000E-02 0.  1.
          1   -1    0    0  501    0  0.00000000000E+00 -0.00000000000E+00 -0.16667090442E+04  0.16667090442E+04  0.50400000000E-02 0. -1.
    8880022    1    1    2    0    0 -0.46111337372E+03  0.29329796751E+03 -0.34183125526E+03  0.66248735932E+03  0.15294330000E+03 0.  0.
    8880022    1    1    2    0    0  0.46111337372E+03 -0.29329796751E+03 -0.10954155291E+04  0.12336839447E+04  0.15294330000E+03 0.  0.
<mgrwt>
<rscale>  0 0.56748647E+03</rscale>
<asrwt>0</asrwt>
<pdfrwt beam="1">  1        1 0.25641677E+00 0.56748647E+03</pdfrwt>
<pdfrwt beam="2">  1       -1 0.35301887E-01 0.56748647E+03</pdfrwt>
<totfact> 0.40575680E+01</totfact>
</mgrwt>
</event>
<event>
 4    1  0.2731969E-009  0.6279595E+03  0.7818608E-02  0.9849039E-01
          1   -1    0    0  501    0  0.00000000000E+00  0.00000000000E+00  0.32310537562E+04  0.32310537562E+04  0.50400000000E-02 0. -1.
         -1   -1    0    0    0  501 -0.00000000000E+00 -0.00000000000E+00 -0.74883154572E+03  0.74883154574E+03  0.50400000000E-02 0.  1.
    8880022    1    1    2    0    0  0.47025919099E+03  0.38703710881E+03  0.30616854609E+04  0.31254201230E+04  0.15294330000E+03 0.  0.
    8880022    1    1    2    0    0 -0.47025919099E+03 -0.38703710881E+03 -0.57946325050E+03  0.85446517893E+03  0.15294330000E+03 0.  0.
<mgrwt>
<rscale>  0 0.62795946E+03</rscale>
<asrwt>0</asrwt>
<pdfrwt beam="1">  1        1 0.49708520E+00 0.62795946E+03</pdfrwt>
<pdfrwt beam="2">  1       -1 0.11520485E+00 0.62795946E+03</pdfrwt>
<totfact> 0.31087108E-01</totfact>
</mgrwt>
</event>
<event>
 4    1  0.2731969E-009  0.6482774E+03  0.7818608E-02  0.9810017E-01
          1   -1    0    0  501    0  0.00000000000E+00  0.00000000000E+00  0.99216246388E+03  0.99216246390E+03  0.50400000000E-02 0. -1.
         -1   -1    0    0    0  501 -0.00000000000E+00 -0.00000000000E+00 -0.59914841228E+03  0.59914841231E+03  0.50400000000E-02 0.  1.
    8880022    1    1    2    0    0  0.62894791837E+03  0.36006013272E+02  0.62720892761E+03  0.90202805328E+03  0.15294330000E+03 0.  0.
    8880022    1    1    2    0    0 -0.62894791837E+03 -0.36006013272E+02 -0.23419487601E+03  0.68928282292E+03  0.15294330000E+03 0.  1.
<mgrwt>
<rscale>  0 0.64827739E+03</rscale>
<asrwt>0</asrwt>
<pdfrwt beam="1">  1        1 0.15264038E+00 0.64827739E+03</pdfrwt>
<pdfrwt beam="2">  1       -1 0.92176679E-01 0.64827739E+03</pdfrwt>
<totfact> 0.18346307E+01</totfact>
</mgrwt>
</event>
<event>
 4    1  0.2731969E-009  0.6655530E+03  0.7818608E-02  0.9778025E-01
         -1   -1    0    0    0  501 -0.00000000000E+00  0.00000000000E+00  0.18002428932E+04  0.18002428932E+04  0.50400000000E-02 0.  1.
          1   -1    0    0  501    0  0.00000000000E+00 -0.00000000000E+00 -0.12113695292E+04  0.12113695292E+04  0.50400000000E-02 0. -1.
    8880022    1    1    2    0    0 -0.60806742595E+03 -0.22321097907E+03 -0.10497665342E+04  0.12429684489E+04  0.15294330000E+03 0.  0.
    8880022    1    1    2    0    0  0.60806742595E+03  0.22321097907E+03  0.16386398982E+04  0.17686439734E+04  0.15294330000E+03 0.  1.
<mgrwt>
<rscale>  0 0.66555299E+03</rscale>
<asrwt>0</asrwt>
<pdfrwt beam="1">  1        1 0.18636454E+00 0.66555299E+03</pdfrwt>
<pdfrwt beam="2">  1       -1 0.27696045E+00 0.66555299E+03</pdfrwt>
<totfact> 0.52846991E-01</totfact>
</mgrwt>
</event>
<event>
 4    1  0.2731969E-009  0.1328655E+04  0.7818608E-02  0.9007145E-01
          1   -1    0    0  501    0  0.00000000000E+00  0.00000000000E+00  0.10323087619E+04  0.10323087619E+04  0.50400000000E-02 0. -1.
         -1   -1    0    0    0  501 -0.00000000000E+00 -0.00000000000E+00 -0.20266121745E+04  0.20266121745E+04  0.50400000000E-02 0.  1.
    8880022    1    1    2    0    0  0.12691542322E+04  0.36218749978E+03 -0.11016099321E+04  0.17259398442E+04  0.15294330000E+03 0.  0.
    8880022    1    1    2    0    0 -0.12691542322E+04 -0.36218749978E+03  0.10730651948E+03  0.13329810923E+04  0.15294330000E+03 0.  0.
<mgrwt>
<rscale>  0 0.13286549E+04</rscale>
<asrwt>0</asrwt>
<pdfrwt beam="1">  1        1 0.15881673E+00 0.13286549E+04</pdfrwt>
<pdfrwt beam="2">  1       -1 0.31178649E+00 0.13286549E+04</pdfrwt>
<totfact> 0.38346461E-01</totfact>
</mgrwt>
</event>
<event>
 4    1  0.2731969E-009  0.4453474E+03  0.7818608E-02  0.1029119E+00
         -1   -1    0    0    0  501 -0.00000000000E+00  0.00000000000E+00  0.10190095864E+04  0.10190095864E+04  0.50400000000E-02 0.  1.
          1   -1    0    0  501    0  0.00000000000E+00 -0.00000000000E+00 -0.93001118145E+03  0.93001118146E+03  0.50400000000E-02 0. -1.
    8880022    1    1    2    0    0  0.28272339910E+03  0.30823719540E+03 -0.82205819949E+03  0.93494065341E+03  0.15294330000E+03 0.  0.
    8880022    1    1    2    0    0 -0.28272339910E+03 -0.30823719540E+03  0.91105660440E+03  0.10140801144E+04  0.15294330000E+03 0.  0.
<mgrwt>
<rscale>  0 0.44534744E+03</rscale>
<asrwt>0</asrwt>
<pdfrwt beam="1">  1        1 0.14307864E+00 0.44534744E+03</pdfrwt>
<pdfrwt beam="2">  1       -1 0.15677071E+00 0.44534744E+03</pdfrwt>
<totfact> 0.58497118E+00</totfact>
</mgrwt>
</event>
<event>
 4    1  0.2731969E-009  0.1192828E+04  0.7818608E-02  0.9119157E-01
          1   -1    0    0  501    0  0.00000000000E+00  0.00000000000E+00  0.14796393021E+04  0.14796393021E+04  0.50400000000E-02 0. -1.
         -1   -1    0    0    0  501 -0.00000000000E+00 -0.00000000000E+00 -0.17883704455E+04  0.17883704455E+04  0.50400000000E-02 0.  1.
    8880022    1    1    2    0    0 -0.11452573818E+04 -0.29636690759E+03  0.95663383318E+03  0.15290479908E+04  0.15294330000E+03 0.  0.
    8880022    1    1    2    0    0  0.11452573818E+04  0.29636690759E+03 -0.12653649766E+04  0.17389617567E+04  0.15294330000E+03 0.  0.
<mgrwt>
<rscale>  0 0.11928283E+04</rscale>
<asrwt>0</asrwt>
<pdfrwt beam="1">  1        1 0.22763682E+00 0.11928283E+04</pdfrwt>
<pdfrwt beam="2">  1       -1 0.27513391E+00 0.11928283E+04</pdfrwt>
<totfact> 0.31805417E-01</totfact>
</mgrwt>
</event>
<event>
 4    1  0.2731969E-009  0.4502092E+03  0.7818608E-02  0.1027660E+00
         -1   -1    0    0    0  501 -0.00000000000E+00  0.00000000000E+00  0.26006233435E+03  0.26006233440E+03  0.50400000000E-02 0.  1.
          1   -1    0    0  501    0  0.00000000000E+00 -0.00000000000E+00 -0.84353038343E+03  0.84353038345E+03  0.50400000000E-02 0. -1.
    8880022    1    1    2    0    0  0.12687648888E+03  0.40397903691E+03 -0.44389923909E+03  0.63224591195E+03  0.15294330000E+03 0.  0.
    8880022    1    1    2    0    0 -0.12687648888E+03 -0.40397903691E+03 -0.13956880999E+03  0.47134680590E+03  0.15294330000E+03 0.  0.
<mgrwt>
<rscale>  0 0.45020924E+03</rscale>
<asrwt>0</asrwt>
<pdfrwt beam="1">  1        1 0.12977390E+00 0.45020924E+03</pdfrwt>
<pdfrwt beam="2">  1       -1 0.40009590E-01 0.45020924E+03</pdfrwt>
<totfact> 0.12899910E+02</totfact>
</mgrwt>
</event>
<event>
 4    1  0.2731969E-009  0.7965267E+03  0.7818608E-02  0.9565058E-01
          1   -1    0    0  501    0  0.00000000000E+00  0.00000000000E+00  0.37974682312E+04  0.37974682312E+04  0.50400000000E-02 0. -1.
         -1   -1    0    0    0  501 -0.00000000000E+00 -0.00000000000E+00 -0.49728003122E+03  0.49728003125E+03  0.50400000000E-02 0.  1.
    8880022    1    1    2    0    0 -0.51300912627E+03 -0.58981758373E+03 -0.99753789030E+02  0.80274878832E+03  0.15294330000E+03 0.  0.
    8880022    1    1    2    0    0  0.51300912627E+03  0.58981758373E+03  0.33999419890E+04  0.34919994741E+04  0.15294330000E+03 0.  0.
<mgrwt>
<rscale>  0 0.79652671E+03</rscale>
<asrwt>0</asrwt>
<pdfrwt beam="1">  1        1 0.58422587E+00 0.79652671E+03</pdfrwt>
<pdfrwt beam="2">  1       -1 0.76504621E-01 0.79652671E+03</pdfrwt>
<totfact> 0.26906432E-01</totfact>
</mgrwt>
</event>
<event>
 4    1  0.2731969E-009  0.1308349E+04  0.7818608E-02  0.9022970E-01
         -1   -1    0    0    0  501 -0.00000000000E+00  0.00000000000E+00  0.10123600868E+04  0.10123600869E+04  0.50400000000E-02 0.  1.
          1   -1    0    0  501    0  0.00000000000E+00 -0.00000000000E+00 -0.22147464866E+04  0.22147464866E+04  0.50400000000E-02 0. -1.
    8880022    1    1    2    0    0  0.40328152836E+03 -0.12352123316E+04 -0.13859453989E+04  0.19059438074E+04  0.15294330000E+03 0.  0.
    8880022    1    1    2    0    0 -0.40328152836E+03  0.12352123316E+04  0.18355899915E+03  0.13211627660E+04  0.15294330000E+03 0.  0.
<mgrwt>
<rscale>  0 0.13083490E+04</rscale>
<asrwt>0</asrwt>
<pdfrwt beam="1">  1        1 0.34073023E+00 0.13083490E+04</pdfrwt>
<pdfrwt beam="2">  1       -1 0.15574771E+00 0.13083490E+04</pdfrwt>
<totfact> 0.65043125E-01</totfact>
</mgrwt>
</event>
<event>
 4    1  0.2731969E-009  0.3456280E+03  0.7818608E-02  0.1064424E+00
          1   -1    0    0  501    0  0.00000000000E+00  0.00000000000E+00  0.15949068033E+04  0.15949068033E+04  0.50400000000E-02 0. -1.
         -1   -1    0    0    0  501 -0.00000000000E+00 -0.00000000000E+00 -0.15629679191E+03  0.15629679199E+03  0.50400000000E-02 0.  1.
    8880022    1    1    2    0    0  0.63183895102E+02  0.30343836483E+03  0.87424500200E+02  0.35651331265E+03  0.15294330000E+03 0.  1.
    8880022    1    1    2    0    0 -0.63183895102E+02 -0.30343836483E+03  0.13511855112E+04  0.13946902826E+04  0.15294330000E+03 0.  0.
<mgrwt>
<rscale>  0 0.34562798E+03</rscale>
<asrwt>0</asrwt>
<pdfrwt beam="1">  1        1 0.24537028E+00 0.34562798E+03</pdfrwt>
<pdfrwt beam="2">  1       -1 0.24045660E-01 0.34562798E+03</pdfrwt>
<totfact> 0.91308082E+01</totfact>
</mgrwt>
</event>
<event>
 4    1  0.2731969E-009  0.8235413E+03  0.7818608E-02  0.9526554E-01
         -1   -1    0    0    0  501 -0.00000000000E+00  0.00000000000E+00  0.21431540333E+04  0.21431540333E+04  0.50400000000E-02 0.  1.
          1   -1    0    0  501    0  0.00000000000E+00 -0.00000000000E+00 -0.44815943623E+03  0.44815943626E+03  0.50400000000E-02 0. -1.
    8880022    1    1    2    0    0 -0.54008393092E+03  0.60260927342E+03  0.14512496073E+03  0.83623052807E+03  0.15294330000E+03 0.  0.
    8880022    1    1    2    0    0  0.54008393092E+03 -0.60260927342E+03  0.15498696364E+04  0.17550829415E+04  0.15294330000E+03 0.  0.
<mgrwt>
<rscale>  0 0.82354128E+03</rscale>
<asrwt>0</asrwt>
<pdfrwt beam="1">  1        1 0.68947605E-01 0.82354128E+03</pdfrwt>
<pdfrwt beam="2">  1       -1 0.32971601E+00 0.82354128E+03</pdfrwt>
<totfact> 0.11381680E+00</totfact>
</mgrwt>
</event>
<event>
 4    1  0.2731969E-009  0.2363685E+03  0.7818608E-02  0.1122236E+00
          1   -1    0    0  501    0  0.00000000000E+00  0.00000000000E+00  0.90798254474E+03  0.90798254476E+03  0.50400000000E-02 0. -1.
         -1   -1    0    0    0  501 -0.00000000000E+00 -0.00000000000E+00 -0.13514862514E+04  0.13514862514E+04  0.50400000000E-02 0.  1.
    8880022    1    1    2    0    0 -0.16091745044E+03  0.81141785264E+02  0.88196500083E+03  0.91308944297E+03  0.15294330000E+03 0.  0.
    8880022    1    1    2    0    0  0.16091745044E+03 -0.81141785264E+02 -0.13254687075E+04  0.13463793532E+04  0.15294330000E+03 0.  0.
<mgrwt>
<rscale>  0 0.23636850E+03</rscale>
<asrwt>0</asrwt>
<pdfrwt beam="1">  1        1 0.13968962E+00 0.23636850E+03</pdfrwt>
<pdfrwt beam="2">  1       -1 0.20792096E+00 0.23636850E+03</pdfrwt>
<totfact> 0.28946424E+00</totfact>
</mgrwt>
</event>
<event>
 4    1  0.2731969E-009  0.1694771E+04  0.7818608E-02  0.8764352E-01
         -1   -1    0    0    0  501 -0.00000000000E+00  0.00000000000E+00  0.10628185807E+04  0.10628185807E+04  0.50400000000E-02 0.  1.
          1   -1    0    0  501    0  0.00000000000E+00 -0.00000000000E+00 -0.32661475726E+04  0.32661475726E+04  0.50400000000E-02 0. -1.
    8880022    1    1    2    0    0  0.11486580883E+04  0.12367058320E+04 -0.20248386498E+03  0.17068239767E+04  0.15294330000E+03 0.  0.
    8880022    1    1    2    0    0 -0.11486580883E+04 -0.12367058320E+04 -0.20008451269E+04  0.26221421765E+04  0.15294330000E+03 0.  0.
<mgrwt>
<rscale>  0 0.16947709E+04</rscale>
<asrwt>0</asrwt>
<pdfrwt beam="1">  1        1 0.50248424E+00 0.16947709E+04</pdfrwt>
<pdfrwt beam="2">  1       -1 0.16351055E+00 0.16947709E+04</pdfrwt>
<totfact> 0.96877153E-02</totfact>
</mgrwt>
</event>
<event>
 4    1  0.2731969E-009  0.1081422E+04  0.7818608E-02  0.9223491E-01
          1   -1    0    0  501    0  0.00000000000E+00  0.00000000000E+00  0.19329016652E+04  0.19329016652E+04  0.50400000000E-02 0. -1.
         -1   -1    0    0    0  501 -0.00000000000E+00 -0.00000000000E+00 -0.12138743924E+04  0.12138743925E+04  0.50400000000E-02 0.  1.
    8880022    1    1    2    0    0  0.24633206398E+03  0.10418263060E+04 -0.75478175092E+03  0.13187754480E+04  0.15294330000E+03 0.  0.
    8880022    1    1    2    0    0 -0.24633206398E+03 -0.10418263060E+04  0.14738090237E+04  0.18280006097E+04  0.15294330000E+03 0.  0.
<mgrwt>
<rscale>  0 0.10814218E+04</rscale>
<asrwt>0</asrwt>
<pdfrwt beam="1">  1        1 0.29736948E+00 0.10814218E+04</pdfrwt>
<pdfrwt beam="2">  1       -1 0.18674991E+00 0.10814218E+04</pdfrwt>
<totfact> 0.61537993E-01</totfact>
</mgrwt>
</event>
<event>
 4    1  0.2731969E-009  0.1032281E+04  0.7818608E-02  0.9273832E-01
          1   -1    0    0  501    0  0.00000000000E+00  0.00000000000E+00  0.23734989711E+04  0.23734989712E+04  0.50400000000E-02 0. -1.
         -1   -1    0    0    0  501 -0.00000000000E+00 -0.00000000000E+00 -0.55218995237E+03  0.55218995239E+03  0.50400000000E-02 0.  1.
    8880022    1    1    2    0    0 -0.94900148864E+03 -0.37630847683E+03  0.27815670072E+03  0.10690999478E+04  0.15294330000E+03 0.  0.
    8880022    1    1    2    0    0  0.94900148864E+03  0.37630847683E+03  0.15431523181E+04  0.18565889758E+04  0.15294330000E+03 0.  0.
<mgrwt>
<rscale>  0 0.10322808E+04</rscale>
<asrwt>0</asrwt>
<pdfrwt beam="1">  1        1 0.36515368E+00 0.10322808E+04</pdfrwt>
<pdfrwt beam="2">  1       -1 0.84952302E-01 0.10322808E+04</pdfrwt>
<totfact> 0.22984989E+00</totfact>
</mgrwt>
</event>
<event>
 4    1  0.2731969E-009  0.9645040E+03  0.7818608E-02  0.9348356E-01
         -1   -1    0    0    0  501 -0.00000000000E+00  0.00000000000E+00  0.11277085937E+04  0.11277085937E+04  0.50400000000E-02 0.  1.
          1   -1    0    0  501    0  0.00000000000E+00 -0.00000000000E+00 -0.20533225730E+04  0.20533225730E+04  0.50400000000E-02 0. -1.
    8880022    1    1    2    0    0  0.32018035466E+03  0.89686171819E+03  0.76740485241E+03  0.12325494966E+04  0.15294330000E+03 0.  0.
    8880022    1    1    2    0    0 -0.32018035466E+03 -0.89686171819E+03 -0.16930188317E+04  0.19484816701E+04  0.15294330000E+03 0.  0.
<mgrwt>
<rscale>  0 0.96450405E+03</rscale>
<asrwt>0</asrwt>
<pdfrwt beam="1">  1        1 0.31589578E+00 0.96450405E+03</pdfrwt>
<pdfrwt beam="2">  1       -1 0.17349363E+00 0.96450405E+03</pdfrwt>
<totfact> 0.64772315E-01</totfact>
</mgrwt>
</event>
<event>
 4    1  0.2731969E-009  0.6197969E+03  0.7818608E-02  0.9865164E-01
         -1   -1    0    0    0  501 -0.00000000000E+00  0.00000000000E+00  0.41565525997E+03  0.41565526000E+03  0.50400000000E-02 0.  1.
          1   -1    0    0  501    0  0.00000000000E+00 -0.00000000000E+00 -0.23725018725E+04  0.23725018725E+04  0.50400000000E-02 0. -1.
    8880022    1    1    2    0    0 -0.32272774263E+03  0.50656026776E+03  0.11079184038E+03  0.62962130336E+03  0.15294330000E+03 0.  0.
    8880022    1    1    2    0    0  0.32272774263E+03 -0.50656026776E+03 -0.20676384529E+04  0.21585358292E+04  0.15294330000E+03 0.  0.
<mgrwt>
<rscale>  0 0.61979686E+03</rscale>
<asrwt>0</asrwt>
<pdfrwt beam="1">  1        1 0.36500028E+00 0.61979686E+03</pdfrwt>
<pdfrwt beam="2">  1       -1 0.63946964E-01 0.61979686E+03</pdfrwt>
<totfact> 0.44674958E+00</totfact>
</mgrwt>
</event>
<event>
 4    1  0.2731969E-009  0.1652219E+03  0.7818608E-02  0.1182924E+00
          1   -1    0    0  501    0  0.00000000000E+00  0.00000000000E+00  0.11324378171E+04  0.11324378171E+04  0.50400000000E-02 0. -1.
         -1   -1    0    0    0  501 -0.00000000000E+00 -0.00000000000E+00 -0.13629639153E+03  0.13629639162E+03  0.50400000000E-02 0.  1.
    8880022    1    1    2    0    0  0.44445519032E+02 -0.43945487272E+02 -0.77470981225E+02  0.18248291964E+03  0.15294330000E+03 0.  0.
    8880022    1    1    2    0    0 -0.44445519032E+02  0.43945487272E+02  0.10736124068E+04  0.10862512891E+04  0.15294330000E+03 0. -1.
<mgrwt>
<rscale>  0 0.16522186E+03</rscale>
<asrwt>0</asrwt>
<pdfrwt beam="1">  1        1 0.17422120E+00 0.16522186E+03</pdfrwt>
<pdfrwt beam="2">  1       -1 0.20968676E-01 0.16522186E+03</pdfrwt>
<totfact> 0.24557039E+02</totfact>
</mgrwt>
</event>
<event>
 4    1  0.2731969E-009  0.1599536E+04  0.7818608E-02  0.8820833E-01
          1   -1    0    0  501    0  0.00000000000E+00  0.00000000000E+00  0.29445691992E+04  0.29445691992E+04  0.50400000000E-02 0. -1.
         -1   -1    0    0    0  501 -0.00000000000E+00 -0.00000000000E+00 -0.14086630925E+04  0.14086630925E+04  0.50400000000E-02 0.  1.
    8880022    1    1    2    0    0 -0.14939147489E+04  0.55076412650E+03  0.21153107071E+04  0.26519904677E+04  0.15294330000E+03 0.  0.
    8880022    1    1    2    0    0  0.14939147489E+04 -0.55076412650E+03 -0.57940460035E+03  0.17012418241E+04  0.15294330000E+03 0.  0.
<mgrwt>
<rscale>  0 0.15995356E+04</rscale>
<asrwt>0</asrwt>
<pdfrwt beam="1">  1        1 0.45301064E+00 0.15995356E+04</pdfrwt>
<pdfrwt beam="2">  1       -1 0.21671740E+00 0.15995356E+04</pdfrwt>
<totfact> 0.70941955E-02</totfact>
</mgrwt>
</event>
<event>
 4    1  0.2731969E-009  0.6702714E+03  0.7818608E-02  0.9769468E-01
         -1   -1    0    0    0  501 -0.00000000000E+00  0.00000000000E+00  0.10742417678E+04  0.10742417678E+04  0.50400000000E-02 0.  1.
          1   -1    0    0  501    0  0.00000000000E+00 -0.00000000000E+00 -0.87140887139E+03  0.87140887140E+03  0.50400000000E-02 0. -1.
    8880022    1    1    2    0    0 -0.53044621263E+03 -0.38013019401E+03  0.80297833709E+03  0.10459627201E+04  0.15294330000E+03 0.  0.
    8880022    1    1    2    0    0  0.53044621263E+03  0.38013019401E+03 -0.60014544068E+03  0.89968791916E+03  0.15294330000E+03 0.  0.
<mgrwt>
<rscale>  0 0.67027144E+03</rscale>
<asrwt>0</asrwt>
<pdfrwt beam="1">  1        1 0.13406290E+00 0.67027144E+03</pdfrwt>
<pdfrwt beam="2">  1       -1 0.16526796E+00 0.67027144E+03</pdfrwt>
<totfact> 0.53764052E+00</totfact>
</mgrwt>
</event>
<event>
 4    1  0.2731969E-009  0.4197717E+03  0.7818608E-02  0.1037141E+00
         -1   -1    0    0    0  501 -0.00000000000E+00  0.00000000000E+00  0.32047440075E+03  0.32047440079E+03  0.50400000000E-02 0.  1.
          1   -1    0    0  501    0  0.00000000000E+00 -0.00000000000E+00 -0.19040337399E+04  0.19040337399E+04  0.50400000000E-02 0. -1.
    8880022    1    1    2    0    0  0.39032318729E+03  0.21549969574E+02 -0.17297903537E+04  0.17799952002E+04  0.15294330000E+03 0.  0.
    8880022    1    1    2    0    0 -0.39032318729E+03 -0.21549969574E+02  0.14623101453E+03  0.44451294059E+03  0.15294330000E+03 0.  0.
<mgrwt>
<rscale>  0 0.41977166E+03</rscale>
<asrwt>0</asrwt>
<pdfrwt beam="1">  1        1 0.29292826E+00 0.41977166E+03</pdfrwt>
<pdfrwt beam="2">  1       -1 0.49303755E-01 0.41977166E+03</pdfrwt>
<totfact> 0.15862395E+01</totfact>
</mgrwt>
</event>
<event>
 4    1  0.2731969E-009  0.2208612E+03  0.7818608E-02  0.1133243E+00
         -1   -1    0    0    0  501 -0.00000000000E+00  0.00000000000E+00  0.27785788147E+03  0.27785788151E+03  0.50400000000E-02 0.  1.
          1   -1    0    0  501    0  0.00000000000E+00 -0.00000000000E+00 -0.11701684104E+04  0.11701684104E+04  0.50400000000E-02 0. -1.
    8880022    1    1    2    0    0  0.29291961951E+02  0.15662051482E+03  0.22134151216E+03  0.31268470176E+03  0.15294330000E+03 0.  0.
    8880022    1    1    2    0    0 -0.29291961951E+02 -0.15662051482E+03 -0.11136520411E+04  0.11353415902E+04  0.15294330000E+03 0. -1.
<mgrwt>
<rscale>  0 0.22086117E+03</rscale>
<asrwt>0</asrwt>
<pdfrwt beam="1">  1        1 0.18002591E+00 0.22086117E+03</pdfrwt>
<pdfrwt beam="2">  1       -1 0.42747367E-01 0.22086117E+03</pdfrwt>
<totfact> 0.67794514E+01</totfact>
</mgrwt>
</event>
<event>
 4    1  0.2731969E-009  0.1051661E+04  0.7818608E-02  0.9253631E-01
         -1   -1    0    0    0  501 -0.00000000000E+00  0.00000000000E+00  0.57036224530E+03  0.57036224532E+03  0.50400000000E-02 0.  1.
          1   -1    0    0  501    0  0.00000000000E+00 -0.00000000000E+00 -0.24705621821E+04  0.24705621821E+04  0.50400000000E-02 0. -1.
    8880022    1    1    2    0    0  0.87650111628E+03  0.56066394232E+03 -0.16553020278E+04  0.19611258805E+04  0.15294330000E+03 0.  0.
    8880022    1    1    2    0    0 -0.87650111628E+03 -0.56066394232E+03 -0.24489790902E+03  0.10797985469E+04  0.15294330000E+03 0.  0.
<mgrwt>
<rscale>  0 0.10516606E+04</rscale>
<asrwt>0</asrwt>
<pdfrwt beam="1">  1        1 0.38008648E+00 0.10516606E+04</pdfrwt>
<pdfrwt beam="2">  1       -1 0.87748039E-01 0.10516606E+04</pdfrwt>
<totfact> 0.18327598E+00</totfact>
</mgrwt>
</event>
<event>
 4    1  0.2731969E-009  0.1315046E+04  0.7818608E-02  0.9017718E-01
          1   -1    0    0  501    0  0.00000000000E+00  0.00000000000E+00  0.18301884891E+04  0.18301884891E+04  0.50400000000E-02 0. -1.
         -1   -1    0    0    0  501 -0.00000000000E+00 -0.00000000000E+00 -0.11464396628E+04  0.11464396628E+04  0.50400000000E-02 0.  1.
    8880022    1    1    2    0    0  0.10980260267E+04 -0.70731446898E+03 -0.28214541604E+03  0.13449730861E+04  0.15294330000E+03 0.  0.
    8880022    1    1    2    0    0 -0.10980260267E+04  0.70731446898E+03  0.96589424232E+03  0.16316550658E+04  0.15294330000E+03 0.  0.
<mgrwt>
<rscale>  0 0.13150462E+04</rscale>
<asrwt>0</asrwt>
<pdfrwt beam="1">  1        1 0.28156746E+00 0.13150462E+04</pdfrwt>
<pdfrwt beam="2">  1       -1 0.17637533E+00 0.13150462E+04</pdfrwt>
<totfact> 0.83077020E-01</totfact>
</mgrwt>
</event>
<event>
 4    1  0.2731969E-009  0.8314378E+03  0.7818608E-02  0.9515595E-01
          1   -1    0    0  501    0  0.00000000000E+00  0.00000000000E+00  0.10732079346E+04  0.10732079346E+04  0.50400000000E-02 0. -1.
         -1   -1    0    0    0  501 -0.00000000000E+00 -0.00000000000E+00 -0.10432047275E+04  0.10432047275E+04  0.50400000000E-02 0.  1.
    8880022    1    1    2    0    0 -0.78139726967E+03 -0.23940642814E+03  0.66950362638E+03  0.10674848428E+04  0.15294330000E+03 0.  0.
    8880022    1    1    2    0    0  0.78139726967E+03  0.23940642814E+03 -0.63950041931E+03  0.10489278193E+04  0.15294330000E+03 0.  0.
<mgrwt>
<rscale>  0 0.83143778E+03</rscale>
<asrwt>0</asrwt>
<pdfrwt beam="1">  1        1 0.16510891E+00 0.83143778E+03</pdfrwt>
<pdfrwt beam="2">  1       -1 0.16049304E+00 0.83143778E+03</pdfrwt>
<totfact> 0.39479640E+00</totfact>
</mgrwt>
</event>
<event>
 4    1  0.2731969E-009  0.5491270E+03  0.7818608E-02  0.1001696E+00
          1   -1    0    0  501    0  0.00000000000E+00  0.00000000000E+00  0.48770839855E+03  0.48770839857E+03  0.50400000000E-02 0. -1.
         -1   -1    0    0    0  501 -0.00000000000E+00 -0.00000000000E+00 -0.74456177112E+03  0.74456177114E+03  0.50400000000E-02 0.  1.
    8880022    1    1    2    0    0 -0.51640855410E+03 -0.10710258568E+03 -0.38217062855E+03  0.66902526182E+03  0.15294330000E+03 0.  0.
    8880022    1    1    2    0    0  0.51640855410E+03  0.10710258568E+03  0.12531725597E+03  0.56324490790E+03  0.15294330000E+03 0.  0.
<mgrwt>
<rscale>  0 0.54912695E+03</rscale>
<asrwt>0</asrwt>
<pdfrwt beam="1">  1        1 0.75032061E-01 0.54912695E+03</pdfrwt>
<pdfrwt beam="2">  1       -1 0.11454797E+00 0.54912695E+03</pdfrwt>
<totfact> 0.33256571E+01</totfact>
</mgrwt>
</event>
<event>
 4    1  0.2731969E-009  0.1387494E+04  0.7818608E-02  0.8962921E-01
          1   -1    0    0  501    0  0.00000000000E+00  0.00000000000E+00  0.33399608190E+04  0.33399608190E+04  0.50400000000E-02 0. -1.
         -1   -1    0    0    0  501 -0.00000000000E+00 -0.00000000000E+00 -0.10527432589E+04  0.10527432589E+04  0.50400000000E-02 0.  1.
    8880022    1    1    2    0    0 -0.12567639124E+04 -0.56770712243E+03 -0.33380707808E+03  0.14270829432E+04  0.15294330000E+03 0.  0.
    8880022    1    1    2    0    0  0.12567639124E+04  0.56770712243E+03  0.26210246382E+04  0.29656211348E+04  0.15294330000E+03 0.  0.
<mgrwt>
<rscale>  0 0.13874936E+04</rscale>
<asrwt>0</asrwt>
<pdfrwt beam="1">  1        1 0.51384013E+00 0.13874936E+04</pdfrwt>
<pdfrwt beam="2">  1       -1 0.16196050E+00 0.13874936E+04</pdfrwt>
<totfact> 0.91049170E-02</totfact>
</mgrwt>
</event>
<event>
 4    1  0.2731969E-009  0.3422436E+03  0.7818608E-02  0.1065844E+00
          1   -1    0    0  501    0  0.00000000000E+00  0.00000000000E+00  0.57790182486E+03  0.57790182488E+03  0.50400000000E-02 0. -1.
         -1   -1    0    0    0  501 -0.00000000000E+00 -0.00000000000E+00 -0.30793283982E+03  0.30793283986E+03  0.50400000000E-02 0.  1.
    8880022    1    1    2    0    0  0.26437525127E+03  0.15441752970E+03  0.39392859285E+03  0.52183372470E+03  0.15294330000E+03 0. -1.
    8880022    1    1    2    0    0 -0.26437525127E+03 -0.15441752970E+03 -0.12395960780E+03  0.36400094003E+03  0.15294330000E+03 0.  0.
<mgrwt>
<rscale>  0 0.34224363E+03</rscale>
<asrwt>0</asrwt>
<pdfrwt beam="1">  1        1 0.88907973E-01 0.34224363E+03</pdfrwt>
<pdfrwt beam="2">  1       -1 0.47374283E-01 0.34224363E+03</pdfrwt>
<totfact> 0.16852814E+02</totfact>
</mgrwt>
</event>
<event>
 4    1  0.2731969E-009  0.7143358E+03  0.7818608E-02  0.9693025E-01
         -1   -1    0    0    0  501 -0.00000000000E+00  0.00000000000E+00  0.48409519205E+03  0.48409519207E+03  0.50400000000E-02 0.  1.
          1   -1    0    0  501    0  0.00000000000E+00 -0.00000000000E+00 -0.15769223444E+04  0.15769223444E+04  0.50400000000E-02 0. -1.
    8880022    1    1    2    0    0 -0.24823418794E+03  0.65212253400E+03  0.46964363168E+02  0.71587800346E+03  0.15294330000E+03 0.  0.
    8880022    1    1    2    0    0  0.24823418794E+03 -0.65212253400E+03 -0.11397915155E+04  0.13451395330E+04  0.15294330000E+03 0.  0.
<mgrwt>
<rscale>  0 0.71433582E+03</rscale>
<asrwt>0</asrwt>
<pdfrwt beam="1">  1        1 0.24260343E+00 0.71433582E+03</pdfrwt>
<pdfrwt beam="2">  1       -1 0.74476184E-01 0.71433582E+03</pdfrwt>
<totfact> 0.10970490E+01</totfact>
</mgrwt>
</event>
<event>
 4    1  0.2731969E-009  0.7444024E+03  0.7818608E-02  0.9644173E-01
         -1   -1    0    0    0  501 -0.00000000000E+00  0.00000000000E+00  0.26261333095E+03  0.26261333100E+03  0.50400000000E-02 0.  1.
          1   -1    0    0  501    0  0.00000000000E+00 -0.00000000000E+00 -0.27944525667E+04  0.27944525667E+04  0.50400000000E-02 0. -1.
    8880022    1    1    2    0    0  0.46202434571E+03 -0.56327332088E+03 -0.50948235177E+03  0.90205723201E+03  0.15294330000E+03 0.  0.
    8880022    1    1    2    0    0 -0.46202434571E+03  0.56327332088E+03 -0.20223568839E+04  0.21550086657E+04  0.15294330000E+03 0.  0.
<mgrwt>
<rscale>  0 0.74440243E+03</rscale>
<asrwt>0</asrwt>
<pdfrwt beam="1">  1        1 0.42991576E+00 0.74440243E+03</pdfrwt>
<pdfrwt beam="2">  1       -1 0.40402053E-01 0.74440243E+03</pdfrwt>
<totfact> 0.53539276E+00</totfact>
</mgrwt>
</event>
<event>
 4    1  0.2731969E-009  0.8161031E+03  0.7818608E-02  0.9536997E-01
         -1   -1    0    0    0  501 -0.00000000000E+00  0.00000000000E+00  0.10501387321E+04  0.10501387321E+04  0.50400000000E-02 0.  1.
          1   -1    0    0  501    0  0.00000000000E+00 -0.00000000000E+00 -0.19294297772E+04  0.19294297772E+04  0.50400000000E-02 0. -1.
    8880022    1    1    2    0    0  0.40266448878E+03 -0.69317664903E+03  0.78096782499E+03  0.11295729078E+04  0.15294330000E+03 0.  0.
    8880022    1    1    2    0    0 -0.40266448878E+03  0.69317664903E+03 -0.16602588700E+04  0.18499956016E+04  0.15294330000E+03 0.  0.
<mgrwt>
<rscale>  0 0.81610306E+03</rscale>
<asrwt>0</asrwt>
<pdfrwt beam="1">  1        1 0.29683535E+00 0.81610306E+03</pdfrwt>
<pdfrwt beam="2">  1       -1 0.16155981E+00 0.81610306E+03</pdfrwt>
<totfact> 0.98746900E-01</totfact>
</mgrwt>
</event>
<event>
 4    1  0.2731969E-009  0.1020340E+04  0.7818608E-02  0.9286514E-01
          1   -1    0    0  501    0  0.00000000000E+00  0.00000000000E+00  0.14674295967E+04  0.14674295967E+04  0.50400000000E-02 0. -1.
         -1   -1    0    0    0  501 -0.00000000000E+00 -0.00000000000E+00 -0.15486001417E+04  0.15486001417E+04  0.50400000000E-02 0.  1.
    8880022    1    1    2    0    0 -0.40026012463E+02 -0.10080174389E+04  0.10694873968E+04  0.14781394331E+04  0.15294330000E+03 0.  0.
    8880022    1    1    2    0    0  0.40026012463E+02  0.10080174389E+04 -0.11506579418E+04  0.15378903052E+04  0.15294330000E+03 0.  0.
<mgrwt>
<rscale>  0 0.10203396E+04</rscale>
<asrwt>0</asrwt>
<pdfrwt beam="1">  1        1 0.22575840E+00 0.10203396E+04</pdfrwt>
<pdfrwt beam="2">  1       -1 0.23824617E+00 0.10203396E+04</pdfrwt>
<totfact> 0.57750749E-01</totfact>
</mgrwt>
</event>
<event>
 4    1  0.2731969E-009  0.7199852E+03  0.7818608E-02  0.9683652E-01
          1   -1    0    0  501    0  0.00000000000E+00  0.00000000000E+00  0.13452388493E+04  0.13452388493E+04  0.50400000000E-02 0. -1.
         -1   -1    0    0    0  501 -0.00000000000E+00 -0.00000000000E+00 -0.58043975141E+03  0.58043975143E+03  0.50400000000E-02 0.  1.
    8880022    1    1    2    0    0  0.85651848658E+02  0.69832001614E+03 -0.17581346006E+03  0.74114041171E+03  0.15294330000E+03 0.  0.
    8880022    1    1    2    0    0 -0.85651848658E+02 -0.69832001614E+03  0.94061255798E+03  0.11845381891E+04  0.15294330000E+03 0.  0.
<mgrwt>
<rscale>  0 0.71998523E+03</rscale>
<asrwt>0</asrwt>
<pdfrwt beam="1">  1        1 0.20695982E+00 0.71998523E+03</pdfrwt>
<pdfrwt beam="2">  1       -1 0.89298425E-01 0.71998523E+03</pdfrwt>
<totfact> 0.10740861E+01</totfact>
</mgrwt>
</event>
<event>
 4    1  0.2731969E-009  0.3701098E+03  0.7818608E-02  0.1054651E+00
          1   -1    0    0  501    0  0.00000000000E+00  0.00000000000E+00  0.99657247893E+03  0.99657247895E+03  0.50400000000E-02 0. -1.
         -1   -1    0    0    0  501 -0.00000000000E+00 -0.00000000000E+00 -0.29694829104E+03  0.29694829109E+03  0.50400000000E-02 0.  1.
    8880022    1    1    2    0    0  0.12313360730E+02 -0.33680560073E+03  0.82381143488E+03  0.90313153239E+03  0.15294330000E+03 0. -1.
    8880022    1    1    2    0    0 -0.12313360730E+02  0.33680560073E+03 -0.12418724699E+03  0.39038923765E+03  0.15294330000E+03 0.  0.
<mgrwt>
<rscale>  0 0.37010983E+03</rscale>
<asrwt>0</asrwt>
<pdfrwt beam="1">  1        1 0.15331884E+00 0.37010983E+03</pdfrwt>
<pdfrwt beam="2">  1       -1 0.45684352E-01 0.37010983E+03</pdfrwt>
<totfact> 0.77575483E+01</totfact>
</mgrwt>
</event>
<event>
 4    1  0.2731969E-009  0.8827961E+03  0.7818608E-02  0.9447346E-01
         -1   -1    0    0    0  501 -0.00000000000E+00  0.00000000000E+00  0.12875597650E+04  0.12875597651E+04  0.50400000000E-02 0.  1.
          1   -1    0    0  501    0  0.00000000000E+00 -0.00000000000E+00 -0.79149633008E+03  0.79149633010E+03  0.50400000000E-02 0. -1.
    8880022    1    1    2    0    0  0.86852399121E+03  0.40042335294E+02  0.75225785996E+03  0.11598365630E+04  0.15294330000E+03 0.  0.
    8880022    1    1    2    0    0 -0.86852399121E+03 -0.40042335294E+02 -0.25619442499E+03  0.91921953218E+03  0.15294330000E+03 0.  0.
<mgrwt>
<rscale>  0 0.88279611E+03</rscale>
<asrwt>0</asrwt>
<pdfrwt beam="1">  1        1 0.12176867E+00 0.88279611E+03</pdfrwt>
<pdfrwt beam="2">  1       -1 0.19808612E+00 0.88279611E+03</pdfrwt>
<totfact> 0.35552920E+00</totfact>
</mgrwt>
</event>
<event>
 4    1  0.2731969E-009  0.1418053E+04  0.7818608E-02  0.8940854E-01
          1   -1    0    0  501    0  0.00000000000E+00  0.00000000000E+00  0.23781390354E+04  0.23781390354E+04  0.50400000000E-02 0. -1.
         -1   -1    0    0    0  501 -0.00000000000E+00 -0.00000000000E+00 -0.13623742830E+04  0.13623742830E+04  0.50400000000E-02 0.  1.
    8880022    1    1    2    0    0  0.18387632705E+03  0.13977381413E+04 -0.64402517603E+03  0.15574474295E+04  0.15294330000E+03 0.  0.
    8880022    1    1    2    0    0 -0.18387632705E+03 -0.13977381413E+04  0.16597899284E+04  0.21830658888E+04  0.15294330000E+03 0.  0.
<mgrwt>
<rscale>  0 0.14180529E+04</rscale>
<asrwt>0</asrwt>
<pdfrwt beam="1">  1        1 0.36586754E+00 0.14180529E+04</pdfrwt>
<pdfrwt beam="2">  1       -1 0.20959604E+00 0.14180529E+04</pdfrwt>
<totfact> 0.20313487E-01</totfact>
</mgrwt>
</event>
<event>
 4    1  0.2731969E-009  0.1315368E+04  0.7818608E-02  0.9017466E-01
          1   -1    0    0  501    0  0.00000000000E+00  0.00000000000E+00  0.27631627501E+04  0.27631627501E+04  0.50400000000E-02 0. -1.
         -1   -1    0    0    0  501 -0.00000000000E+00 -0.00000000000E+00 -0.92387501580E+03  0.92387501581E+03  0.50400000000E-02 0.  1.
    8880022    1    1    2    0    0 -0.12656736827E+04  0.32383728684E+03  0.19661425263E+04  0.23655672779E+04  0.15294330000E+03 0.  0.
    8880022    1    1    2    0    0  0.12656736827E+04 -0.32383728684E+03 -0.12685479201E+03  0.13214704880E+04  0.15294330000E+03 0.  0.
<mgrwt>
<rscale>  0 0.13153677E+04</rscale>
<asrwt>0</asrwt>
<pdfrwt beam="1">  1        1 0.42510195E+00 0.13153677E+04</pdfrwt>
<pdfrwt beam="2">  1       -1 0.14213462E+00 0.13153677E+04</pdfrwt>
<totfact> 0.34736004E-01</totfact>
</mgrwt>
</event>
<event>
 4    1  0.2731969E-009  0.7384947E+03  0.7818608E-02  0.9653575E-01
         -1   -1    0    0    0  501 -0.00000000000E+00  0.00000000000E+00  0.13345193223E+04  0.13345193223E+04  0.50400000000E-02 0.  1.
          1   -1    0    0  501    0  0.00000000000E+00 -0.00000000000E+00 -0.17450841977E+04  0.17450841977E+04  0.50400000000E-02 0. -1.
    8880022    1    1    2    0    0 -0.35310632072E+03  0.63031630994E+03  0.11422139252E+04  0.13601569866E+04  0.15294330000E+03 0.  0.
    8880022    1    1    2    0    0  0.35310632072E+03 -0.63031630994E+03 -0.15527788006E+04  0.17194465333E+04  0.15294330000E+03 0. -1.
<mgrwt>
<rscale>  0 0.73849467E+03</rscale>
<asrwt>0</asrwt>
<pdfrwt beam="1">  1        1 0.26847449E+00 0.73849467E+03</pdfrwt>
<pdfrwt beam="2">  1       -1 0.20531066E+00 0.73849467E+03</pdfrwt>
<totfact> 0.65247407E-01</totfact>
</mgrwt>
</event>
<event>
 4    1  0.2731969E-009  0.4487622E+03  0.7818608E-02  0.1028092E+00
          1   -1    0    0  501    0  0.00000000000E+00  0.00000000000E+00  0.16884745227E+04  0.16884745227E+04  0.50400000000E-02 0. -1.
         -1   -1    0    0    0  501 -0.00000000000E+00 -0.00000000000E+00 -0.92836509929E+03  0.92836509931E+03  0.50400000000E-02 0.  1.
    8880022    1    1    2    0    0 -0.17414152215E+03  0.38427929749E+03  0.16015364937E+04  0.16632217657E+04  0.15294330000E+03 0.  0.
    8880022    1    1    2    0    0  0.17414152215E+03 -0.38427929749E+03 -0.84142707030E+03  0.95361785631E+03  0.15294330000E+03 0.  0.
<mgrwt>
<rscale>  0 0.44876219E+03</rscale>
<asrwt>0</asrwt>
<pdfrwt beam="1">  1        1 0.25976531E+00 0.44876219E+03</pdfrwt>
<pdfrwt beam="2">  1       -1 0.14282540E+00 0.44876219E+03</pdfrwt>
<totfact> 0.21847372E+00</totfact>
</mgrwt>
</event>
<event>
 4    1  0.2731969E-009  0.8636825E+03  0.7818608E-02  0.9472155E-01
         -1   -1    0    0    0  501 -0.00000000000E+00  0.00000000000E+00  0.11831755519E+04  0.11831755519E+04  0.50400000000E-02 0.  1.
          1   -1    0    0  501    0  0.00000000000E+00 -0.00000000000E+00 -0.12327238477E+04  0.12327238477E+04  0.50400000000E-02 0. -1.
    8880022    1    1    2    0    0 -0.48271545365E+03 -0.69967253733E+03 -0.86909698659E+03  0.12252661318E+04  0.15294330000E+03 0.  0.
    8880022    1    1    2    0    0  0.48271545365E+03  0.69967253733E+03  0.81954869082E+03  0.11906332678E+04  0.15294330000E+03 0.  1.
<mgrwt>
<rscale>  0 0.86368254E+03</rscale>
<asrwt>0</asrwt>
<pdfrwt beam="1">  1        1 0.18964982E+00 0.86368254E+03</pdfrwt>
<pdfrwt beam="2">  1       -1 0.18202701E+00 0.86368254E+03</pdfrwt>
<totfact> 0.20854365E+00</totfact>
</mgrwt>
</event>
<event>
 4    1  0.2731969E-009  0.6130454E+03  0.7818608E-02  0.9878705E-01
          1   -1    0    0  501    0  0.00000000000E+00  0.00000000000E+00  0.54324513005E+03  0.54324513007E+03  0.50400000000E-02 0. -1.
         -1   -1    0    0    0  501 -0.00000000000E+00 -0.00000000000E+00 -0.77707276661E+03  0.77707276663E+03  0.50400000000E-02 0.  1.
    8880022    1    1    2    0    0 -0.48147476171E+03  0.34729674630E+03 -0.33558270428E+03  0.69888509826E+03  0.15294330000E+03 0.  0.
    8880022    1    1    2    0    0  0.48147476171E+03 -0.34729674630E+03  0.10175506772E+03  0.62143279844E+03  0.15294330000E+03 0.  0.
<mgrwt>
<rscale>  0 0.61304537E+03</rscale>
<asrwt>0</asrwt>
<pdfrwt beam="1">  1        1 0.83576174E-01 0.61304537E+03</pdfrwt>
<pdfrwt beam="2">  1       -1 0.11954966E+00 0.61304537E+03</pdfrwt>
<totfact> 0.25673225E+01</totfact>
</mgrwt>
</event>
<event>
 4    1  0.2731969E-009  0.3537276E+03  0.7818608E-02  0.1061095E+00
         -1   -1    0    0    0  501 -0.00000000000E+00  0.00000000000E+00  0.67577850129E+03  0.67577850131E+03  0.50400000000E-02 0.  1.
          1   -1    0    0  501    0  0.00000000000E+00 -0.00000000000E+00 -0.21114425584E+03  0.21114425590E+03  0.50400000000E-02 0. -1.
    8880022    1    1    2    0    0  0.24667613523E+03  0.20219412219E+03  0.38790283945E+03  0.52496842249E+03  0.15294330000E+03 0.  0.
    8880022    1    1    2    0    0 -0.24667613523E+03 -0.20219412219E+03  0.76731406003E+02  0.36195433472E+03  0.15294330000E+03 0.  0.
<mgrwt>
<rscale>  0 0.35372762E+03</rscale>
<asrwt>0</asrwt>
<pdfrwt beam="1">  1        1 0.32483732E-01 0.35372762E+03</pdfrwt>
<pdfrwt beam="2">  1       -1 0.10396592E+00 0.35372762E+03</pdfrwt>
<totfact> 0.12613167E+02</totfact>
</mgrwt>
</event>
<event>
 4    1  0.2731969E-009  0.2252326E+03  0.7818608E-02  0.1130041E+00
         -1   -1    0    0    0  501 -0.00000000000E+00  0.00000000000E+00  0.16156113404E+04  0.16156113404E+04  0.50400000000E-02 0.  1.
          1   -1    0    0  501    0  0.00000000000E+00 -0.00000000000E+00 -0.60104338113E+03  0.60104338115E+03  0.50400000000E-02 0. -1.
    8880022    1    1    2    0    0 -0.14287285647E+03  0.83218964548E+02  0.15862724138E+04  0.16021828463E+04  0.15294330000E+03 0.  1.
    8880022    1    1    2    0    0  0.14287285647E+03 -0.83218964548E+02 -0.57170445452E+03  0.61447187528E+03  0.15294330000E+03 0.  0.
<mgrwt>
<rscale>  0 0.22523255E+03</rscale>
<asrwt>0</asrwt>
<pdfrwt beam="1">  1        1 0.92468214E-01 0.22523255E+03</pdfrwt>
<pdfrwt beam="2">  1       -1 0.24855559E+00 0.22523255E+03</pdfrwt>
<totfact> 0.29632504E+00</totfact>
</mgrwt>
</event>
<event>
 4    1  0.2731969E-009  0.1535290E+04  0.7818608E-02  0.8861319E-01
         -1   -1    0    0    0  501 -0.00000000000E+00  0.00000000000E+00  0.82597970801E+03  0.82597970802E+03  0.50400000000E-02 0.  1.
          1   -1    0    0  501    0  0.00000000000E+00 -0.00000000000E+00 -0.38138822344E+04  0.38138822345E+04  0.50400000000E-02 0. -1.
    8880022    1    1    2    0    0  0.14791885338E+03  0.15204749979E+04 -0.32992321054E+03  0.15703391940E+04  0.15294330000E+03 0.  0.
    8880022    1    1    2    0    0 -0.14791885338E+03 -0.15204749979E+04 -0.26579793159E+04  0.30695227484E+04  0.15294330000E+03 0.  0.
<mgrwt>
<rscale>  0 0.15352902E+04</rscale>
<asrwt>0</asrwt>
<pdfrwt beam="1">  1        1 0.58675110E+00 0.15352902E+04</pdfrwt>
<pdfrwt beam="2">  1       -1 0.12707380E+00 0.15352902E+04</pdfrwt>
<totfact> 0.71389319E-02</totfact>
</mgrwt>
</event>
<event>
 4    1  0.2731969E-009  0.8801298E+03  0.7818608E-02  0.9450767E-01
          1   -1    0    0  501    0  0.00000000000E+00  0.00000000000E+00  0.19819374500E+04  0.19819374500E+04  0.50400000000E-02 0. -1.
         -1   -1    0    0    0  501 -0.00000000000E+00 -0.00000000000E+00 -0.63159604040E+03  0.63159604042E+03  0.50400000000E-02 0.  1.
    8880022    1    1    2    0    0 -0.52878106634E+02  0.86512467885E+03  0.14819659295E+04  0.17236158137E+04  0.15294330000E+03 0.  0.
    8880022    1    1    2    0    0  0.52878106634E+02 -0.86512467885E+03 -0.13162451987E+03  0.88991767673E+03  0.15294330000E+03 0.  0.
<mgrwt>
<rscale>  0 0.88012980E+03</rscale>
<asrwt>0</asrwt>
<pdfrwt beam="1">  1        1 0.30491345E+00 0.88012980E+03</pdfrwt>
<pdfrwt beam="2">  1       -1 0.97168623E-01 0.88012980E+03</pdfrwt>
<totfact> 0.32086719E+00</totfact>
</mgrwt>
</event>
<event>
 4    1  0.2731969E-009  0.5097071E+03  0.7818608E-02  0.1011276E+00
          1   -1    0    0  501    0  0.00000000000E+00  0.00000000000E+00  0.15096273031E+04  0.15096273032E+04  0.50400000000E-02 0. -1.
         -1   -1    0    0    0  501 -0.00000000000E+00 -0.00000000000E+00 -0.36337341960E+03  0.36337341964E+03  0.50400000000E-02 0.  1.
    8880022    1    1    2    0    0 -0.47774673127E+03 -0.90375785109E+02  0.12525852393E+04  0.13523206560E+04  0.15294330000E+03 0.  0.
    8880022    1    1    2    0    0  0.47774673127E+03  0.90375785109E+02 -0.10633135575E+03  0.52068006684E+03  0.15294330000E+03 0.  0.
<mgrwt>
<rscale>  0 0.50970715E+03</rscale>
<asrwt>0</asrwt>
<pdfrwt beam="1">  1        1 0.23225036E+00 0.50970715E+03</pdfrwt>
<pdfrwt beam="2">  1       -1 0.55903602E-01 0.50970715E+03</pdfrwt>
<totfact> 0.22400445E+01</totfact>
</mgrwt>
</event>
<event>
 4    1  0.2731969E-009  0.6357263E+03  0.7818608E-02  0.9833938E-01
          1   -1    0    0  501    0  0.00000000000E+00  0.00000000000E+00  0.62492151616E+03  0.62492151618E+03  0.50400000000E-02 0. -1.
         -1   -1    0    0    0  501 -0.00000000000E+00 -0.00000000000E+00 -0.23928105936E+04  0.23928105936E+04  0.50400000000E-02 0.  1.
    8880022    1    1    2    0    0 -0.59204203012E+03  0.17390362678E+03 -0.21728770628E+04  0.22639661260E+04  0.15294330000E+03 0.  0.
    8880022    1    1    2    0    0  0.59204203012E+03 -0.17390362678E+03  0.40498798540E+03  0.75376598369E+03  0.15294330000E+03 0.  0.
<mgrwt>
<rscale>  0 0.63572627E+03</rscale>
<asrwt>0</asrwt>
<pdfrwt beam="1">  1        1 0.96141773E-01 0.63572627E+03</pdfrwt>
<pdfrwt beam="2">  1       -1 0.36812470E+00 0.63572627E+03</pdfrwt>
<totfact> 0.41735786E-01</totfact>
</mgrwt>
</event>
<event>
 4    1  0.2731969E-009  0.1585562E+04  0.7818608E-02  0.8829468E-01
          1   -1    0    0  501    0  0.00000000000E+00  0.00000000000E+00  0.26456551375E+04  0.26456551375E+04  0.50400000000E-02 0. -1.
         -1   -1    0    0    0  501 -0.00000000000E+00 -0.00000000000E+00 -0.96154687753E+03  0.96154687754E+03  0.50400000000E-02 0.  1.
    8880022    1    1    2    0    0  0.90632319937E+03 -0.12919721405E+04  0.10376414078E+04  0.18949155912E+04  0.15294330000E+03 0.  0.
    8880022    1    1    2    0    0 -0.90632319937E+03  0.12919721405E+04  0.64646685214E+03  0.17122864239E+04  0.15294330000E+03 0.  0.
<mgrwt>
<rscale>  0 0.15855615E+04</rscale>
<asrwt>0</asrwt>
<pdfrwt beam="1">  1        1 0.40702386E+00 0.15855615E+04</pdfrwt>
<pdfrwt beam="2">  1       -1 0.14793029E+00 0.15855615E+04</pdfrwt>
<totfact> 0.36551346E-01</totfact>
</mgrwt>
</event>
<event>
 4    1  0.2731969E-009  0.1113412E+04  0.7818608E-02  0.9192218E-01
         -1   -1    0    0    0  501 -0.00000000000E+00  0.00000000000E+00  0.75182746263E+03  0.75182746265E+03  0.50400000000E-02 0.  1.
          1   -1    0    0  501    0  0.00000000000E+00 -0.00000000000E+00 -0.34083143879E+04  0.34083143879E+04  0.50400000000E-02 0. -1.
    8880022    1    1    2    0    0  0.94453604386E+03  0.56933763607E+03  0.16624606610E+03  0.11257544535E+04  0.15294330000E+03 0.  0.
    8880022    1    1    2    0    0 -0.94453604386E+03 -0.56933763607E+03 -0.28227329914E+04  0.30343873971E+04  0.15294330000E+03 0.  0.
<mgrwt>
<rscale>  0 0.11134116E+04</rscale>
<asrwt>0</asrwt>
<pdfrwt beam="1">  1        1 0.52435605E+00 0.11134116E+04</pdfrwt>
<pdfrwt beam="2">  1       -1 0.11566577E+00 0.11134116E+04</pdfrwt>
<totfact> 0.20271487E-01</totfact>
</mgrwt>
</event>
<event>
 4    1  0.2731969E-009  0.1287220E+04  0.7818608E-02  0.9039762E-01
         -1   -1    0    0    0  501 -0.00000000000E+00  0.00000000000E+00  0.14571941163E+04  0.14571941163E+04  0.50400000000E-02 0.  1.
          1   -1    0    0  501    0  0.00000000000E+00 -0.00000000000E+00 -0.13553785295E+04  0.13553785295E+04  0.50400000000E-02 0. -1.
    8880022    1    1    2    0    0  0.93831056082E+03 -0.86782328370E+03  0.61529367676E+03  0.14267171836E+04  0.15294330000E+03 0.  0.
    8880022    1    1    2    0    0 -0.93831056082E+03  0.86782328370E+03 -0.51347808998E+03  0.13858554622E+04  0.15294330000E+03 0.  0.
<mgrwt>
<rscale>  0 0.12872201E+04</rscale>
<asrwt>0</asrwt>
<pdfrwt beam="1">  1        1 0.20851977E+00 0.12872201E+04</pdfrwt>
<pdfrwt beam="2">  1       -1 0.22418371E+00 0.12872201E+04</pdfrwt>
<totfact> 0.82660876E-01</totfact>
</mgrwt>
</event>
<event>
 4    1  0.2731969E-009  0.8348188E+03  0.7818608E-02  0.9510942E-01
          1   -1    0    0  501    0  0.00000000000E+00  0.00000000000E+00  0.27233755147E+04  0.27233755147E+04  0.50400000000E-02 0. -1.
         -1   -1    0    0    0  501 -0.00000000000E+00 -0.00000000000E+00 -0.89047059926E+03  0.89047059927E+03  0.50400000000E-02 0.  1.
    8880022    1    1    2    0    0  0.81525386323E+03 -0.94297037539E+02  0.24417989306E+04  0.25805628191E+04  0.15294330000E+03 0.  0.
    8880022    1    1    2    0    0 -0.81525386323E+03  0.94297037539E+02 -0.60889401515E+03  0.10332832949E+04  0.15294330000E+03 0.  0.
<mgrwt>
<rscale>  0 0.83481881E+03</rscale>
<asrwt>0</asrwt>
<pdfrwt beam="1">  1        1 0.41898084E+00 0.83481881E+03</pdfrwt>
<pdfrwt beam="2">  1       -1 0.13699548E+00 0.83481881E+03</pdfrwt>
<totfact> 0.44248381E-01</totfact>
</mgrwt>
</event>
<event>
 4    1  0.2731969E-009  0.4677890E+03  0.7818608E-02  0.1022546E+00
         -1   -1    0    0    0  501 -0.00000000000E+00  0.00000000000E+00  0.71818612932E+03  0.71818612934E+03  0.50400000000E-02 0.  1.
          1   -1    0    0  501    0  0.00000000000E+00 -0.00000000000E+00 -0.12547554202E+04  0.12547554203E+04  0.50400000000E-02 0. -1.
    8880022    1    1    2    0    0  0.43737118364E+03 -0.64353392353E+02 -0.11266667691E+04  0.12199199044E+04  0.15294330000E+03 0.  0.
    8880022    1    1    2    0    0 -0.43737118364E+03  0.64353392353E+02  0.59009747821E+03  0.75302164523E+03  0.15294330000E+03 0.  1.
<mgrwt>
<rscale>  0 0.46778902E+03</rscale>
<asrwt>0</asrwt>
<pdfrwt beam="1">  1        1 0.19303930E+00 0.46778902E+03</pdfrwt>
<pdfrwt beam="2">  1       -1 0.11049017E+00 0.46778902E+03</pdfrwt>
<totfact> 0.80567343E+00</totfact>
</mgrwt>
</event>
<event>
 4    1  0.2731969E-009  0.1272873E+04  0.7818608E-02  0.9051358E-01
         -1   -1    0    0    0  501 -0.00000000000E+00  0.00000000000E+00  0.39350231760E+03  0.39350231763E+03  0.50400000000E-02 0.  1.
          1   -1    0    0  501    0  0.00000000000E+00 -0.00000000000E+00 -0.44894441844E+04  0.44894441844E+04  0.50400000000E-02 0. -1.
    8880022    1    1    2    0    0  0.90705860649E+03 -0.87980671765E+03 -0.27508042966E+04  0.30310280612E+04  0.15294330000E+03 0.  0.
    8880022    1    1    2    0    0 -0.90705860649E+03  0.87980671765E+03 -0.13451375702E+04  0.18519184409E+04  0.15294330000E+03 0.  0.
<mgrwt>
<rscale>  0 0.12728735E+04</rscale>
<asrwt>0</asrwt>
<pdfrwt beam="1">  1        1 0.69068369E+00 0.12728735E+04</pdfrwt>
<pdfrwt beam="2">  1       -1 0.60538821E-01 0.12728735E+04</pdfrwt>
<totfact> 0.93200323E-02</totfact>
</mgrwt>
</event>
<event>
 4    1  0.2731969E-009  0.9755103E+03  0.7818608E-02  0.9335820E-01
         -1   -1    0    0    0  501 -0.00000000000E+00  0.00000000000E+00  0.11975671060E+04  0.11975671060E+04  0.50400000000E-02 0.  1.
          1   -1    0    0  501    0  0.00000000000E+00 -0.00000000000E+00 -0.15289348812E+04  0.15289348812E+04  0.50400000000E-02 0. -1.
    8880022    1    1    2    0    0 -0.33812042447E+03  0.90216592209E+03  0.77907309393E+03  0.12484291374E+04  0.15294330000E+03 0.  0.
    8880022    1    1    2    0    0  0.33812042447E+03 -0.90216592209E+03 -0.11104408692E+04  0.14780728498E+04  0.15294330000E+03 0.  0.
<mgrwt>
<rscale>  0 0.97551034E+03</rscale>
<asrwt>0</asrwt>
<pdfrwt beam="1">  1        1 0.23522075E+00 0.97551034E+03</pdfrwt>
<pdfrwt beam="2">  1       -1 0.18424109E+00 0.97551034E+03</pdfrwt>
<totfact> 0.12249314E+00</totfact>
</mgrwt>
</event>
<event>
 4    1  0.2731969E-009  0.2541053E+03  0.7818608E-02  0.1110737E+00
         -1   -1    0    0    0  501 -0.00000000000E+00  0.00000000000E+00  0.11862590411E+03  0.11862590421E+03  0.50400000000E-02 0.  1.
          1   -1    0    0  501    0  0.00000000000E+00 -0.00000000000E+00 -0.23007982961E+04  0.23007982961E+04  0.50400000000E-02 0. -1.
    8880022    1    1    2    0    0 -0.66679322086E+01 -0.20281371627E+03 -0.34110214102E+02  0.25638452478E+03  0.15294330000E+03 0.  0.
    8880022    1    1    2    0    0  0.66679322086E+01  0.20281371627E+03 -0.21480621779E+04  0.21630396755E+04  0.15294330000E+03 0.  0.
<mgrwt>
<rscale>  0 0.25410533E+03</rscale>
<asrwt>0</asrwt>
<pdfrwt beam="1">  1        1 0.35396894E+00 0.25410533E+03</pdfrwt>
<pdfrwt beam="2">  1       -1 0.18250141E-01 0.25410533E+03</pdfrwt>
<totfact> 0.50937246E+01</totfact>
</mgrwt>
</event>
<event>
 4    1  0.2731969E-009  0.9498225E+03  0.7818608E-02  0.9365358E-01
         -1   -1    0    0    0  501 -0.00000000000E+00  0.00000000000E+00  0.79555030580E+03  0.79555030581E+03  0.50400000000E-02 0.  1.
          1   -1    0    0  501    0  0.00000000000E+00 -0.00000000000E+00 -0.19264381847E+04  0.19264381847E+04  0.50400000000E-02 0. -1.
    8880022    1    1    2    0    0  0.90605944880E+03  0.24047329478E+03  0.30744388917E+03  0.99834088780E+03  0.15294330000E+03 0.  0.
    8880022    1    1    2    0    0 -0.90605944880E+03 -0.24047329478E+03 -0.14383317680E+04  0.17236476027E+04  0.15294330000E+03 0.  0.
<mgrwt>
<rscale>  0 0.94982250E+03</rscale>
<asrwt>0</asrwt>
<pdfrwt beam="1">  1        1 0.29637510E+00 0.94982250E+03</pdfrwt>
<pdfrwt beam="2">  1       -1 0.12239236E+00 0.94982250E+03</pdfrwt>
<totfact> 0.20060047E+00</totfact>
</mgrwt>
</event>
<event>
 4    1  0.2731969E-009  0.1350610E+04  0.7818608E-02  0.8990367E-01
          1   -1    0    0  501    0  0.00000000000E+00  0.00000000000E+00  0.31281683268E+04  0.31281683268E+04  0.50400000000E-02 0. -1.
         -1   -1    0    0    0  501 -0.00000000000E+00 -0.00000000000E+00 -0.11373839441E+04  0.11373839442E+04  0.50400000000E-02 0.  1.
    8880022    1    1    2    0    0  0.12610058452E+04  0.45893306797E+03  0.24842178600E+04  0.28276289239E+04  0.15294330000E+03 0.  0.
    8880022    1    1    2    0    0 -0.12610058452E+04 -0.45893306797E+03 -0.49343347734E+03  0.14379233470E+04  0.15294330000E+03 0.  0.
<mgrwt>
<rscale>  0 0.13506098E+04</rscale>
<asrwt>0</asrwt>
<pdfrwt beam="1">  1        1 0.48125665E+00 0.13506098E+04</pdfrwt>
<pdfrwt beam="2">  1       -1 0.17498215E+00 0.13506098E+04</pdfrwt>
<totfact> 0.10560705E-01</totfact>
</mgrwt>
</event>
<event>
 4    1  0.2731969E-009  0.1939105E+03  0.7818608E-02  0.1154981E+00
          1   -1    0    0  501    0  0.00000000000E+00  0.00000000000E+00  0.70827688539E+03  0.70827688541E+03  0.50400000000E-02 0. -1.
         -1   -1    0    0    0  501 -0.00000000000E+00 -0.00000000000E+00 -0.41062298396E+03  0.41062298399E+03  0.50400000000E-02 0.  1.
    8880022    1    1    2    0    0 -0.93956646564E+02  0.73360614232E+02  0.67086075997E+03  0.69832330867E+03  0.15294330000E+03 0. -1.
    8880022    1    1    2    0    0  0.93956646564E+02 -0.73360614232E+02 -0.37320685854E+03  0.42057656073E+03  0.15294330000E+03 0.  0.
<mgrwt>
<rscale>  0 0.19391051E+03</rscale>
<asrwt>0</asrwt>
<pdfrwt beam="1">  1        1 0.10896567E+00 0.19391051E+03</pdfrwt>
<pdfrwt beam="2">  1       -1 0.63172767E-01 0.19391051E+03</pdfrwt>
<totfact> 0.75392963E+01</totfact>
</mgrwt>
</event>
<event>
 4    1  0.2731969E-009  0.1183653E+04  0.7818608E-02  0.9127287E-01
         -1   -1    0    0    0  501 -0.00000000000E+00  0.00000000000E+00  0.92879703913E+03  0.92879703915E+03  0.50400000000E-02 0.  1.
          1   -1    0    0  501    0  0.00000000000E+00 -0.00000000000E+00 -0.19214078401E+04  0.19214078401E+04  0.50400000000E-02 0. -1.
    8880022    1    1    2    0    0 -0.39995121718E+02  0.11730484394E+04 -0.11569909647E+04  0.16551924348E+04  0.15294330000E+03 0.  0.
    8880022    1    1    2    0    0  0.39995121718E+02 -0.11730484394E+04  0.16438016374E+03  0.11950124444E+04  0.15294330000E+03 0.  0.
<mgrwt>
<rscale>  0 0.11836528E+04</rscale>
<asrwt>0</asrwt>
<pdfrwt beam="1">  1        1 0.29560121E+00 0.11836528E+04</pdfrwt>
<pdfrwt beam="2">  1       -1 0.14289185E+00 0.11836528E+04</pdfrwt>
<totfact> 0.13180235E+00</totfact>
</mgrwt>
</event>
<event>
 4    1  0.2731969E-009  0.4699647E+03  0.7818608E-02  0.1021930E+00
          1   -1    0    0  501    0  0.00000000000E+00  0.00000000000E+00  0.14048763496E+04  0.14048763496E+04  0.50400000000E-02 0. -1.
         -1   -1    0    0    0  501 -0.00000000000E+00 -0.00000000000E+00 -0.19217858626E+03  0.19217858633E+03  0.50400000000E-02 0.  1.
    8880022    1    1    2    0    0 -0.44423840586E+03  0.11287323520E+02  0.26574549459E+03  0.53989581016E+03  0.15294330000E+03 0.  0.
    8880022    1    1    2    0    0  0.44423840586E+03 -0.11287323520E+02  0.94695226878E+03  0.10571591258E+04  0.15294330000E+03 0.  0.
<mgrwt>
<rscale>  0 0.46996470E+03</rscale>
<asrwt>0</asrwt>
<pdfrwt beam="1">  1        1 0.21613482E+00 0.46996470E+03</pdfrwt>
<pdfrwt beam="2">  1       -1 0.29565937E-01 0.46996470E+03</pdfrwt>
<totfact> 0.84404824E+01</totfact>
</mgrwt>
</event>
<event>
 4    1  0.2731969E-009  0.6713321E+03  0.7818608E-02  0.9767554E-01
         -1   -1    0    0    0  501 -0.00000000000E+00  0.00000000000E+00  0.16609114037E+04  0.16609114037E+04  0.50400000000E-02 0.  1.
          1   -1    0    0  501    0  0.00000000000E+00 -0.00000000000E+00 -0.69794791472E+03  0.69794791474E+03  0.50400000000E-02 0. -1.
    8880022    1    1    2    0    0 -0.21651534037E+03  0.61677889895E+03 -0.44060202585E+03  0.80300491966E+03  0.15294330000E+03 0.  0.
    8880022    1    1    2    0    0  0.21651534037E+03 -0.61677889895E+03  0.14035655148E+04  0.15558543988E+04  0.15294330000E+03 0.  0.
<mgrwt>
<rscale>  0 0.67133208E+03</rscale>
<asrwt>0</asrwt>
<pdfrwt beam="1">  1        1 0.10737660E+00 0.67133208E+03</pdfrwt>
<pdfrwt beam="2">  1       -1 0.25552483E+00 0.67133208E+03</pdfrwt>
<totfact> 0.18660405E+00</totfact>
</mgrwt>
</event>
<event>
 4    1  0.2731969E-009  0.9915004E+03  0.7818608E-02  0.9317916E-01
         -1   -1    0    0    0  501 -0.00000000000E+00  0.00000000000E+00  0.57436855486E+03  0.57436855488E+03  0.50400000000E-02 0.  1.
          1   -1    0    0  501    0  0.00000000000E+00 -0.00000000000E+00 -0.21471022648E+04  0.21471022648E+04  0.50400000000E-02 0. -1.
    8880022    1    1    2    0    0  0.57472958838E+03 -0.79332673765E+03 -0.17351352181E+03  0.10065684317E+04  0.15294330000E+03 0.  0.
    8880022    1    1    2    0    0 -0.57472958838E+03  0.79332673765E+03 -0.13992201881E+04  0.17149023880E+04  0.15294330000E+03 0.  1.
<mgrwt>
<rscale>  0 0.99150041E+03</rscale>
<asrwt>0</asrwt>
<pdfrwt beam="1">  1        1 0.33032342E+00 0.99150041E+03</pdfrwt>
<pdfrwt beam="2">  1       -1 0.88364394E-01 0.99150041E+03</pdfrwt>
<totfact> 0.30204947E+00</totfact>
</mgrwt>
</event>
<event>
 4    1  0.2731969E-009  0.3697074E+03  0.7818608E-02  0.1054805E+00
         -1   -1    0    0    0  501 -0.00000000000E+00  0.00000000000E+00  0.56675529090E+02  0.56675529314E+02  0.50400000000E-02 0.  1.
          1   -1    0    0  501    0  0.00000000000E+00 -0.00000000000E+00 -0.29498824496E+04  0.29498824497E+04  0.50400000000E-02 0. -1.
    8880022    1    1    2    0    0 -0.26350389643E+03  0.20942205095E+03 -0.20887111182E+04  0.21211783723E+04  0.15294330000E+03 0.  0.
    8880022    1    1    2    0    0  0.26350389643E+03 -0.20942205095E+03 -0.80449580239E+03  0.88537960668E+03  0.15294330000E+03 0.  0.
<mgrwt>
<rscale>  0 0.36970739E+03</rscale>
<asrwt>0</asrwt>
<pdfrwt beam="1">  1        1 0.45382795E+00 0.36970739E+03</pdfrwt>
<pdfrwt beam="2">  1       -1 0.87193145E-02 0.36970739E+03</pdfrwt>
<totfact> 0.57500794E+01</totfact>
</mgrwt>
</event>
<event>
 4    1  0.2731969E-009  0.6701649E+03  0.7818608E-02  0.9769660E-01
          1   -1    0    0  501    0  0.00000000000E+00  0.00000000000E+00  0.25804911686E+04  0.25804911686E+04  0.50400000000E-02 0. -1.
         -1   -1    0    0    0  501 -0.00000000000E+00 -0.00000000000E+00 -0.29514519209E+03  0.29514519214E+03  0.50400000000E-02 0.  1.
    8880022    1    1    2    0    0  0.18626183731E+02 -0.65221343852E+03  0.20636715816E+04  0.21697606674E+04  0.15294330000E+03 0.  0.
    8880022    1    1    2    0    0 -0.18626183731E+02  0.65221343852E+03  0.22167439494E+03  0.70587569337E+03  0.15294330000E+03 0.  0.
<mgrwt>
<rscale>  0 0.67016487E+03</rscale>
<asrwt>0</asrwt>
<pdfrwt beam="1">  1        1 0.39699863E+00 0.67016487E+03</pdfrwt>
<pdfrwt beam="2">  1       -1 0.45406953E-01 0.67016487E+03</pdfrwt>
<totfact> 0.61623159E+00</totfact>
</mgrwt>
</event>
<event>
 4    1  0.2731969E-009  0.7714679E+03  0.7818608E-02  0.9602260E-01
          1   -1    0    0  501    0  0.00000000000E+00  0.00000000000E+00  0.13144162259E+04  0.13144162259E+04  0.50400000000E-02 0. -1.
         -1   -1    0    0    0  501 -0.00000000000E+00 -0.00000000000E+00 -0.59171892695E+03  0.59171892697E+03  0.50400000000E-02 0.  1.
    8880022    1    1    2    0    0  0.42381657192E+03  0.62621923486E+03 -0.10044995625E+03  0.77797998912E+03  0.15294330000E+03 0.  0.
    8880022    1    1    2    0    0 -0.42381657192E+03 -0.62621923486E+03  0.82314725519E+03  0.11281551637E+04  0.15294330000E+03 0.  0.
<mgrwt>
<rscale>  0 0.77146787E+03</rscale>
<asrwt>0</asrwt>
<pdfrwt beam="1">  1        1 0.20221788E+00 0.77146787E+03</pdfrwt>
<pdfrwt beam="2">  1       -1 0.91033681E-01 0.77146787E+03</pdfrwt>
<totfact> 0.10742127E+01</totfact>
</mgrwt>
</event>
<event>
 4    1  0.2731969E-009  0.4073852E+03  0.7818608E-02  0.1041252E+00
          1   -1    0    0  501    0  0.00000000000E+00  0.00000000000E+00  0.41344400407E+04  0.41344400407E+04  0.50400000000E-02 0. -1.
         -1   -1    0    0    0  501 -0.00000000000E+00 -0.00000000000E+00 -0.87358981930E+02  0.87358982075E+02  0.50400000000E-02 0.  1.
    8880022    1    1    2    0    0 -0.16903139219E+03  0.33763798727E+03  0.35754455320E+04  0.35985793624E+04  0.15294330000E+03 0.  0.
    8880022    1    1    2    0    0  0.16903139219E+03 -0.33763798727E+03  0.47163552679E+03  0.62321966042E+03  0.15294330000E+03 0.  1.
<mgrwt>
<rscale>  0 0.40738517E+03</rscale>
<asrwt>0</asrwt>
<pdfrwt beam="1">  1        1 0.63606772E+00 0.40738517E+03</pdfrwt>
<pdfrwt beam="2">  1       -1 0.13439843E-01 0.40738517E+03</pdfrwt>
<totfact> 0.34651918E+00</totfact>
</mgrwt>
</event>
<event>
 4    1  0.2731969E-009  0.6246645E+03  0.7818608E-02  0.9855516E-01
         -1   -1    0    0    0  501 -0.00000000000E+00  0.00000000000E+00  0.50348315956E+03  0.50348315959E+03  0.50400000000E-02 0.  1.
          1   -1    0    0  501    0  0.00000000000E+00 -0.00000000000E+00 -0.10011526549E+04  0.10011526549E+04  0.50400000000E-02 0. -1.
    8880022    1    1    2    0    0 -0.15605257413E+03 -0.58520225284E+03  0.10871798609E+03  0.63405467914E+03  0.15294330000E+03 0.  0.
    8880022    1    1    2    0    0  0.15605257413E+03  0.58520225284E+03 -0.60638748146E+03  0.87058113540E+03  0.15294330000E+03 0.  0.
<mgrwt>
<rscale>  0 0.62466450E+03</rscale>
<asrwt>0</asrwt>
<pdfrwt beam="1">  1        1 0.15402348E+00 0.62466450E+03</pdfrwt>
<pdfrwt beam="2">  1       -1 0.77458948E-01 0.62466450E+03</pdfrwt>
<totfact> 0.26337897E+01</totfact>
</mgrwt>
</event>
<event>
 4    1  0.2731969E-009  0.1735618E+03  0.7818608E-02  0.1174184E+00
          1   -1    0    0  501    0  0.00000000000E+00  0.00000000000E+00  0.48747407012E+03  0.48747407014E+03  0.50400000000E-02 0. -1.
         -1   -1    0    0    0  501 -0.00000000000E+00 -0.00000000000E+00 -0.58942880431E+03  0.58942880434E+03  0.50400000000E-02 0.  1.
    8880022    1    1    2    0    0 -0.49760884776E+01  0.81898010351E+02  0.45846723816E+03  0.49022026380E+03  0.15294330000E+03 0. -1.
    8880022    1    1    2    0    0  0.49760884776E+01 -0.81898010351E+02 -0.56042197236E+03  0.58668261068E+03  0.15294330000E+03 0.  0.
<mgrwt>
<rscale>  0 0.17356180E+03</rscale>
<asrwt>0</asrwt>
<pdfrwt beam="1">  1        1 0.74996011E-01 0.17356180E+03</pdfrwt>
<pdfrwt beam="2">  1       -1 0.90681355E-01 0.17356180E+03</pdfrwt>
<totfact> 0.60792223E+01</totfact>
</mgrwt>
</event>
<event>
 4    1  0.2731969E-009  0.3361475E+03  0.7818608E-02  0.1068449E+00
         -1   -1    0    0    0  501 -0.00000000000E+00  0.00000000000E+00  0.25519324248E+03  0.25519324253E+03  0.50400000000E-02 0.  1.
          1   -1    0    0  501    0  0.00000000000E+00 -0.00000000000E+00 -0.89163883168E+03  0.89163883170E+03  0.50400000000E-02 0. -1.
    8880022    1    1    2    0    0  0.20299607899E+03 -0.21999107971E+03  0.88622184509E+02  0.34763346767E+03  0.15294330000E+03 0.  0.
    8880022    1    1    2    0    0 -0.20299607899E+03  0.21999107971E+03 -0.72506777371E+03  0.79919860656E+03  0.15294330000E+03 0.  0.
<mgrwt>
<rscale>  0 0.33614749E+03</rscale>
<asrwt>0</asrwt>
<pdfrwt beam="1">  1        1 0.13717520E+00 0.33614749E+03</pdfrwt>
<pdfrwt beam="2">  1       -1 0.39260499E-01 0.33614749E+03</pdfrwt>
<totfact> 0.12386805E+02</totfact>
</mgrwt>
</event>
<event>
 4    1  0.2731969E-009  0.5625471E+03  0.7818608E-02  0.9986308E-01
         -1   -1    0    0    0  501 -0.00000000000E+00  0.00000000000E+00  0.75954684566E+03  0.75954684567E+03  0.50400000000E-02 0.  1.
          1   -1    0    0  501    0  0.00000000000E+00 -0.00000000000E+00 -0.18559210090E+04  0.18559210090E+04  0.50400000000E-02 0. -1.
    8880022    1    1    2    0    0  0.67185310068E+02  0.53717195445E+03 -0.16998148306E+04  0.17904830873E+04  0.15294330000E+03 0.  0.
    8880022    1    1    2    0    0 -0.67185310068E+02 -0.53717195445E+03  0.60344066725E+03  0.82498476740E+03  0.15294330000E+03 0.  0.
<mgrwt>
<rscale>  0 0.56254709E+03</rscale>
<asrwt>0</asrwt>
<pdfrwt beam="1">  1        1 0.28552631E+00 0.56254709E+03</pdfrwt>
<pdfrwt beam="2">  1       -1 0.11685336E+00 0.56254709E+03</pdfrwt>
<totfact> 0.26994019E+00</totfact>
</mgrwt>
</event>
<event>
 4    1  0.2731969E-009  0.6274685E+03  0.7818608E-02  0.9850001E-01
         -1   -1    0    0    0  501 -0.00000000000E+00  0.00000000000E+00  0.73078547336E+03  0.73078547338E+03  0.50400000000E-02 0.  1.
          1   -1    0    0  501    0  0.00000000000E+00 -0.00000000000E+00 -0.12774760881E+04  0.12774760881E+04  0.50400000000E-02 0. -1.
    8880022    1    1    2    0    0 -0.40776707585E+03  0.45172017135E+03  0.49023226285E+03  0.79626906628E+03  0.15294330000E+03 0.  0.
    8880022    1    1    2    0    0  0.40776707585E+03 -0.45172017135E+03 -0.10369228776E+04  0.12119924952E+04  0.15294330000E+03 0.  0.
<mgrwt>
<rscale>  0 0.62746853E+03</rscale>
<asrwt>0</asrwt>
<pdfrwt beam="1">  1        1 0.19653478E+00 0.62746853E+03</pdfrwt>
<pdfrwt beam="2">  1       -1 0.11242853E+00 0.62746853E+03</pdfrwt>
<totfact> 0.72035020E+00</totfact>
</mgrwt>
</event>
<event>
 4    1  0.2731969E-009  0.4413005E+03  0.7818608E-02  0.1030349E+00
          1   -1    0    0  501    0  0.00000000000E+00  0.00000000000E+00  0.11730698439E+04  0.11730698439E+04  0.50400000000E-02 0. -1.
         -1   -1    0    0    0  501 -0.00000000000E+00 -0.00000000000E+00 -0.81326948230E+03  0.81326948232E+03  0.50400000000E-02 0.  1.
    8880022    1    1    2    0    0 -0.21803126161E+03  0.35187617948E+03  0.10659212391E+04  0.11536612231E+04  0.15294330000E+03 0.  0.
    8880022    1    1    2    0    0  0.21803126161E+03 -0.35187617948E+03 -0.70612087751E+03  0.83267810311E+03  0.15294330000E+03 0.  0.
<mgrwt>
<rscale>  0 0.44130050E+03</rscale>
<asrwt>0</asrwt>
<pdfrwt beam="1">  1        1 0.18047228E+00 0.44130050E+03</pdfrwt>
<pdfrwt beam="2">  1       -1 0.12511838E+00 0.44130050E+03</pdfrwt>
<totfact> 0.68852380E+00</totfact>
</mgrwt>
</event>
<event>
 4    1  0.2731969E-009  0.5628470E+03  0.7818608E-02  0.9985633E-01
         -1   -1    0    0    0  501 -0.00000000000E+00  0.00000000000E+00  0.50735404214E+03  0.50735404216E+03  0.50400000000E-02 0.  1.
          1   -1    0    0  501    0  0.00000000000E+00 -0.00000000000E+00 -0.16464951540E+04  0.16464951540E+04  0.50400000000E-02 0. -1.
    8880022    1    1    2    0    0 -0.19026025321E+03  0.50715488011E+03 -0.14180644323E+04  0.15256812982E+04  0.15294330000E+03 0.  0.
    8880022    1    1    2    0    0  0.19026025321E+03 -0.50715488011E+03  0.27892332045E+03  0.62816789800E+03  0.15294330000E+03 0.  0.
<mgrwt>
<rscale>  0 0.56284695E+03</rscale>
<asrwt>0</asrwt>
<pdfrwt beam="1">  1        1 0.25330695E+00 0.56284695E+03</pdfrwt>
<pdfrwt beam="2">  1       -1 0.78054469E-01 0.56284695E+03</pdfrwt>
<totfact> 0.91770088E+00</totfact>
</mgrwt>
</event>
<event>
 4    1  0.2731969E-009  0.8894701E+03  0.7818608E-02  0.9438841E-01
         -1   -1    0    0    0  501 -0.00000000000E+00  0.00000000000E+00  0.49563473087E+03  0.49563473090E+03  0.50400000000E-02 0.  1.
          1   -1    0    0  501    0  0.00000000000E+00 -0.00000000000E+00 -0.35121683925E+04  0.35121683925E+04  0.50400000000E-02 0. -1.
    8880022    1    1    2    0    0  0.86438070173E+03 -0.14356688829E+03 -0.29883195486E+04  0.31178856339E+04  0.15294330000E+03 0.  0.
    8880022    1    1    2    0    0 -0.86438070173E+03  0.14356688829E+03 -0.28214113098E+02  0.88991748951E+03  0.15294330000E+03 0.  0.
<mgrwt>
<rscale>  0 0.88947012E+03</rscale>
<asrwt>0</asrwt>
<pdfrwt beam="1">  1        1 0.54033358E+00 0.88947012E+03</pdfrwt>
<pdfrwt beam="2">  1       -1 0.76251499E-01 0.88947012E+03</pdfrwt>
<totfact> 0.44850768E-01</totfact>
</mgrwt>
</event>
<event>
 4    1  0.2731969E-009  0.8404265E+03  0.7818608E-02  0.9503277E-01
         -1   -1    0    0    0  501 -0.00000000000E+00  0.00000000000E+00  0.23499530398E+04  0.23499530398E+04  0.50400000000E-02 0.  1.
          1   -1    0    0  501    0  0.00000000000E+00 -0.00000000000E+00 -0.94507986379E+03  0.94507986380E+03  0.50400000000E-02 0. -1.
    8880022    1    1    2    0    0  0.40991753994E+03  0.71756024880E+03  0.20629772528E+04  0.22275977865E+04  0.15294330000E+03 0.  0.
    8880022    1    1    2    0    0 -0.40991753994E+03 -0.71756024880E+03 -0.65810407677E+03  0.10674351170E+04  0.15294330000E+03 0.  0.
<mgrwt>
<rscale>  0 0.84042653E+03</rscale>
<asrwt>0</asrwt>
<pdfrwt beam="1">  1        1 0.14539690E+00 0.84042653E+03</pdfrwt>
<pdfrwt beam="2">  1       -1 0.36153123E+00 0.84042653E+03</pdfrwt>
<totfact> 0.22940229E-01</totfact>
</mgrwt>
</event>
<event>
 4    1  0.2731969E-009  0.6890267E+03  0.7818608E-02  0.9736184E-01
          1   -1    0    0  501    0  0.00000000000E+00  0.00000000000E+00  0.21559307012E+04  0.21559307012E+04  0.50400000000E-02 0. -1.
         -1   -1    0    0    0  501 -0.00000000000E+00 -0.00000000000E+00 -0.71012116012E+03  0.71012116014E+03  0.50400000000E-02 0.  1.
    8880022    1    1    2    0    0 -0.27303325251E+03 -0.61385588427E+03 -0.46736777138E+03  0.83258062094E+03  0.15294330000E+03 0.  0.
    8880022    1    1    2    0    0  0.27303325251E+03  0.61385588427E+03  0.19131773125E+04  0.20334712404E+04  0.15294330000E+03 0.  0.
<mgrwt>
<rscale>  0 0.68902675E+03</rscale>
<asrwt>0</asrwt>
<pdfrwt beam="1">  1        1 0.33168164E+00 0.68902675E+03</pdfrwt>
<pdfrwt beam="2">  1       -1 0.10924941E+00 0.68902675E+03</pdfrwt>
<totfact> 0.19397872E+00</totfact>
</mgrwt>
</event>
<event>
 4    1  0.2731969E-009  0.7303669E+03  0.7818608E-02  0.9666665E-01
          1   -1    0    0  501    0  0.00000000000E+00  0.00000000000E+00  0.51259566867E+03  0.51259566870E+03  0.50400000000E-02 0. -1.
         -1   -1    0    0    0  501 -0.00000000000E+00 -0.00000000000E+00 -0.23156708583E+04  0.23156708584E+04  0.50400000000E-02 0.  1.
    8880022    1    1    2    0    0  0.71348098564E+03 -0.31448529475E+02 -0.19508614315E+04  0.20830977185E+04  0.15294330000E+03 0.  0.
    8880022    1    1    2    0    0 -0.71348098564E+03  0.31448529475E+02  0.14778624187E+03  0.74516880851E+03  0.15294330000E+03 0.  0.
<mgrwt>
<rscale>  0 0.73036688E+03</rscale>
<asrwt>0</asrwt>
<pdfrwt beam="1">  1        1 0.78860873E-01 0.73036688E+03</pdfrwt>
<pdfrwt beam="2">  1       -1 0.35625705E+00 0.73036688E+03</pdfrwt>
<totfact> 0.64700348E-01</totfact>
</mgrwt>
</event>
<event>
 4    1  0.2731969E-009  0.6943700E+03  0.7818608E-02  0.9726909E-01
          1   -1    0    0  501    0  0.00000000000E+00  0.00000000000E+00  0.21658754081E+04  0.21658754081E+04  0.50400000000E-02 0. -1.
         -1   -1    0    0    0  501 -0.00000000000E+00 -0.00000000000E+00 -0.51897003841E+03  0.51897003843E+03  0.50400000000E-02 0.  1.
    8880022    1    1    2    0    0  0.19958696445E+03  0.64724264446E+03 -0.19098781091E+03  0.72015692326E+03  0.15294330000E+03 0.  0.
    8880022    1    1    2    0    0 -0.19958696445E+03 -0.64724264446E+03  0.18378931806E+04  0.19646885232E+04  0.15294330000E+03 0.  0.
<mgrwt>
<rscale>  0 0.69436997E+03</rscale>
<asrwt>0</asrwt>
<pdfrwt beam="1">  1        1 0.33321160E+00 0.69436997E+03</pdfrwt>
<pdfrwt beam="2">  1       -1 0.79841544E-01 0.69436997E+03</pdfrwt>
<totfact> 0.38365529E+00</totfact>
</mgrwt>
</event>
<event>
 4    1  0.2731969E-009  0.1372972E+04  0.7818608E-02  0.8973618E-01
          1   -1    0    0  501    0  0.00000000000E+00  0.00000000000E+00  0.18216715252E+04  0.18216715252E+04  0.50400000000E-02 0. -1.
         -1   -1    0    0    0  501 -0.00000000000E+00 -0.00000000000E+00 -0.13267910930E+04  0.13267910930E+04  0.50400000000E-02 0.  1.
    8880022    1    1    2    0    0  0.78426286414E+03 -0.11165090536E+04 -0.49107171737E+03  0.14581508123E+04  0.15294330000E+03 0.  0.
    8880022    1    1    2    0    0 -0.78426286414E+03  0.11165090536E+04  0.98595214951E+03  0.16903118059E+04  0.15294330000E+03 0.  0.
<mgrwt>
<rscale>  0 0.13729721E+04</rscale>
<asrwt>0</asrwt>
<pdfrwt beam="1">  1        1 0.28025716E+00 0.13729721E+04</pdfrwt>
<pdfrwt beam="2">  1       -1 0.20412171E+00 0.13729721E+04</pdfrwt>
<totfact> 0.53272574E-01</totfact>
</mgrwt>
</event>
<event>
 4    1  0.2731969E-009  0.7631077E+03  0.7818608E-02  0.9615008E-01
         -1   -1    0    0    0  501 -0.00000000000E+00  0.00000000000E+00  0.88013044262E+03  0.88013044263E+03  0.50400000000E-02 0.  1.
          1   -1    0    0  501    0  0.00000000000E+00 -0.00000000000E+00 -0.12277186221E+04  0.12277186221E+04  0.50400000000E-02 0. -1.
    8880022    1    1    2    0    0 -0.74753600829E+03 -0.11473821997E+02  0.54184948834E+03  0.93591359287E+03  0.15294330000E+03 0.  0.
    8880022    1    1    2    0    0  0.74753600829E+03  0.11473821997E+02 -0.88943766786E+03  0.11719354719E+04  0.15294330000E+03 0.  0.
<mgrwt>
<rscale>  0 0.76310772E+03</rscale>
<asrwt>0</asrwt>
<pdfrwt beam="1">  1        1 0.18887979E+00 0.76310772E+03</pdfrwt>
<pdfrwt beam="2">  1       -1 0.13540468E+00 0.76310772E+03</pdfrwt>
<totfact> 0.48327290E+00</totfact>
</mgrwt>
</event>
<event>
 4    1  0.2731969E-009  0.2882038E+03  0.7818608E-02  0.1091291E+00
          1   -1    0    0  501    0  0.00000000000E+00  0.00000000000E+00  0.17529270016E+04  0.17529270016E+04  0.50400000000E-02 0. -1.
         -1   -1    0    0    0  501 -0.00000000000E+00 -0.00000000000E+00 -0.15621313793E+03  0.15621313801E+03  0.50400000000E-02 0.  1.
    8880022    1    1    2    0    0  0.10921482937E+03  0.21849922249E+03  0.16093084341E+01  0.28820831367E+03  0.15294330000E+03 0.  1.
    8880022    1    1    2    0    0 -0.10921482937E+03 -0.21849922249E+03  0.15951045552E+04  0.16209318259E+04  0.15294330000E+03 0.  0.
<mgrwt>
<rscale>  0 0.28820382E+03</rscale>
<asrwt>0</asrwt>
<pdfrwt beam="1">  1        1 0.26968108E+00 0.28820382E+03</pdfrwt>
<pdfrwt beam="2">  1       -1 0.24032790E-01 0.28820382E+03</pdfrwt>
<totfact> 0.72956011E+01</totfact>
</mgrwt>
</event>
<event>
 4    1  0.2731969E-009  0.5879961E+03  0.7818608E-02  0.9930628E-01
          1   -1    0    0  501    0  0.00000000000E+00  0.00000000000E+00  0.13073538513E+04  0.13073538513E+04  0.50400000000E-02 0. -1.
         -1   -1    0    0    0  501 -0.00000000000E+00 -0.00000000000E+00 -0.46524018122E+03  0.46524018125E+03  0.50400000000E-02 0.  1.
    8880022    1    1    2    0    0 -0.47384175904E+03 -0.31276460578E+03  0.10032993873E+04  0.11629054238E+04  0.15294330000E+03 0.  0.
    8880022    1    1    2    0    0  0.47384175904E+03  0.31276460578E+03 -0.16118571715E+03  0.60968860877E+03  0.15294330000E+03 0.  1.
<mgrwt>
<rscale>  0 0.58799606E+03</rscale>
<asrwt>0</asrwt>
<pdfrwt beam="1">  1        1 0.20113136E+00 0.58799606E+03</pdfrwt>
<pdfrwt beam="2">  1       -1 0.71575414E-01 0.58799606E+03</pdfrwt>
<totfact> 0.18629330E+01</totfact>
</mgrwt>
</event>
<event>
 4    1  0.2731969E-009  0.5694792E+03  0.7818608E-02  0.9970832E-01
          1   -1    0    0  501    0  0.00000000000E+00  0.00000000000E+00  0.22798109222E+04  0.22798109222E+04  0.50400000000E-02 0. -1.
         -1   -1    0    0    0  501 -0.00000000000E+00 -0.00000000000E+00 -0.44352012308E+03  0.44352012310E+03  0.50400000000E-02 0.  1.
    8880022    1    1    2    0    0  0.44689730687E+02  0.54673365383E+03 -0.20410748718E+03  0.60495155144E+03  0.15294330000E+03 0.  0.
    8880022    1    1    2    0    0 -0.44689730687E+02 -0.54673365383E+03  0.20403982863E+04  0.21183794939E+04  0.15294330000E+03 0.  0.
<mgrwt>
<rscale>  0 0.56947916E+03</rscale>
<asrwt>0</asrwt>
<pdfrwt beam="1">  1        1 0.35074014E+00 0.56947916E+03</pdfrwt>
<pdfrwt beam="2">  1       -1 0.68233866E-01 0.56947916E+03</pdfrwt>
<totfact> 0.45795913E+00</totfact>
</mgrwt>
</event>
<event>
 4    1  0.2731969E-009  0.2243033E+04  0.7818608E-02  0.8500727E-01
          1   -1    0    0  501    0  0.00000000000E+00  0.00000000000E+00  0.22336367260E+04  0.22336367260E+04  0.50400000000E-02 0. -1.
         -1   -1    0    0    0  501 -0.00000000000E+00 -0.00000000000E+00 -0.26151347294E+04  0.26151347294E+04  0.50400000000E-02 0.  1.
    8880022    1    1    2    0    0 -0.13348572737E+04 -0.17960962225E+04  0.71208521498E+03  0.23533513525E+04  0.15294330000E+03 0.  0.
    8880022    1    1    2    0    0  0.13348572737E+04  0.17960962225E+04 -0.10935832183E+04  0.24954201029E+04  0.15294330000E+03 0.  0.
<mgrwt>
<rscale>  0 0.22430330E+04</rscale>
<asrwt>0</asrwt>
<pdfrwt beam="1">  1        1 0.34363642E+00 0.22430330E+04</pdfrwt>
<pdfrwt beam="2">  1       -1 0.40232842E+00 0.22430330E+04</pdfrwt>
<totfact> 0.12290331E-02</totfact>
</mgrwt>
</event>
<event>
 4    1  0.2731969E-009  0.1100631E+04  0.7818608E-02  0.9204577E-01
         -1   -1    0    0    0  501 -0.00000000000E+00  0.00000000000E+00  0.13912737021E+04  0.13912737022E+04  0.50400000000E-02 0.  1.
          1   -1    0    0  501    0  0.00000000000E+00 -0.00000000000E+00 -0.13521144374E+04  0.13521144374E+04  0.50400000000E-02 0. -1.
    8880022    1    1    2    0    0 -0.35172447983E+03 -0.10316424984E+04  0.83805977572E+03  0.13833770978E+04  0.15294330000E+03 0.  0.
    8880022    1    1    2    0    0  0.35172447983E+03  0.10316424984E+04 -0.79890051098E+03  0.13600110417E+04  0.15294330000E+03 0.  0.
<mgrwt>
<rscale>  0 0.11006307E+04</rscale>
<asrwt>0</asrwt>
<pdfrwt beam="1">  1        1 0.20801760E+00 0.11006307E+04</pdfrwt>
<pdfrwt beam="2">  1       -1 0.21404211E+00 0.11006307E+04</pdfrwt>
<totfact> 0.99496435E-01</totfact>
</mgrwt>
</event>
<event>
 4    1  0.2731969E-009  0.9364561E+03  0.7818608E-02  0.9381123E-01
         -1   -1    0    0    0  501 -0.00000000000E+00  0.00000000000E+00  0.16265699503E+04  0.16265699503E+04  0.50400000000E-02 0.  1.
          1   -1    0    0  501    0  0.00000000000E+00 -0.00000000000E+00 -0.10861332901E+04  0.10861332901E+04  0.50400000000E-02 0. -1.
    8880022    1    1    2    0    0 -0.81737464049E+03 -0.43064732047E+03  0.12327642276E+04  0.15481142437E+04  0.15294330000E+03 0.  0.
    8880022    1    1    2    0    0  0.81737464049E+03  0.43064732047E+03 -0.69232756745E+03  0.11645889967E+04  0.15294330000E+03 0.  0.
<mgrwt>
<rscale>  0 0.93645612E+03</rscale>
<asrwt>0</asrwt>
<pdfrwt beam="1">  1        1 0.16709743E+00 0.93645612E+03</pdfrwt>
<pdfrwt beam="2">  1       -1 0.25024153E+00 0.93645612E+03</pdfrwt>
<totfact> 0.91894458E-01</totfact>
</mgrwt>
</event>
<event>
 4    1  0.2731969E-009  0.6698071E+03  0.7818608E-02  0.9770306E-01
         -1   -1    0    0    0  501 -0.00000000000E+00  0.00000000000E+00  0.13789803774E+04  0.13789803774E+04  0.50400000000E-02 0.  1.
          1   -1    0    0  501    0  0.00000000000E+00 -0.00000000000E+00 -0.43068847946E+03  0.43068847949E+03  0.50400000000E-02 0. -1.
    8880022    1    1    2    0    0 -0.17308864920E+03 -0.62872107777E+03  0.92164855605E+03  0.11393320798E+04  0.15294330000E+03 0.  0.
    8880022    1    1    2    0    0  0.17308864920E+03  0.62872107777E+03  0.26643341912E+02  0.67033677715E+03  0.15294330000E+03 0.  0.
<mgrwt>
<rscale>  0 0.66980708E+03</rscale>
<asrwt>0</asrwt>
<pdfrwt beam="1">  1        1 0.66259767E-01 0.66980708E+03</pdfrwt>
<pdfrwt beam="2">  1       -1 0.21215082E+00 0.66980708E+03</pdfrwt>
<totfact> 0.70663063E+00</totfact>
</mgrwt>
</event>
<event>
 4    1  0.2731969E-009  0.9170065E+03  0.7818608E-02  0.9404569E-01
         -1   -1    0    0    0  501 -0.00000000000E+00  0.00000000000E+00  0.18106324168E+04  0.18106324168E+04  0.50400000000E-02 0.  1.
          1   -1    0    0  501    0  0.00000000000E+00 -0.00000000000E+00 -0.76468850424E+03  0.76468850426E+03  0.50400000000E-02 0. -1.
    8880022    1    1    2    0    0  0.24508134923E+03 -0.87031283247E+03  0.13298560570E+04  0.16153693322E+04  0.15294330000E+03 0.  0.
    8880022    1    1    2    0    0 -0.24508134923E+03  0.87031283247E+03 -0.28391214447E+03  0.95995158883E+03  0.15294330000E+03 0.  0.
<mgrwt>
<rscale>  0 0.91700651E+03</rscale>
<asrwt>0</asrwt>
<pdfrwt beam="1">  1        1 0.11764439E+00 0.91700651E+03</pdfrwt>
<pdfrwt beam="2">  1       -1 0.27855883E+00 0.91700651E+03</pdfrwt>
<totfact> 0.11058310E+00</totfact>
</mgrwt>
</event>
<event>
 4    1  0.2731969E-009  0.6477700E+03  0.7818608E-02  0.9810973E-01
          1   -1    0    0  501    0  0.00000000000E+00  0.00000000000E+00  0.58680735275E+03  0.58680735277E+03  0.50400000000E-02 0. -1.
         -1   -1    0    0    0  501 -0.00000000000E+00 -0.00000000000E+00 -0.72361540325E+03  0.72361540326E+03  0.50400000000E-02 0.  1.
    8880022    1    1    2    0    0 -0.38412905981E+03 -0.49865743687E+03 -0.13962266595E+03  0.66264659947E+03  0.15294330000E+03 0.  0.
    8880022    1    1    2    0    0  0.38412905981E+03  0.49865743687E+03  0.28146154490E+01  0.64777615656E+03  0.15294330000E+03 0.  0.
<mgrwt>
<rscale>  0 0.64777004E+03</rscale>
<asrwt>0</asrwt>
<pdfrwt beam="1">  1        1 0.90278055E-01 0.64777004E+03</pdfrwt>
<pdfrwt beam="2">  1       -1 0.11132545E+00 0.64777004E+03</pdfrwt>
<totfact> 0.27189680E+01</totfact>
</mgrwt>
</event>
<event>
 4    1  0.2731969E-009  0.9127189E+03  0.7818608E-02  0.9409820E-01
         -1   -1    0    0    0  501 -0.00000000000E+00  0.00000000000E+00  0.44280645381E+03  0.44280645384E+03  0.50400000000E-02 0.  1.
          1   -1    0    0  501    0  0.00000000000E+00 -0.00000000000E+00 -0.25459470778E+04  0.25459470778E+04  0.50400000000E-02 0. -1.
    8880022    1    1    2    0    0 -0.83512983899E+03  0.33499601446E+03 -0.28803701139E+03  0.95708993863E+03  0.15294330000E+03 0.  0.
    8880022    1    1    2    0    0  0.83512983899E+03 -0.33499601446E+03 -0.18151036126E+04  0.20316635930E+04  0.15294330000E+03 0.  0.
<mgrwt>
<rscale>  0 0.91271892E+03</rscale>
<asrwt>0</asrwt>
<pdfrwt beam="1">  1        1 0.39168416E+00 0.91271892E+03</pdfrwt>
<pdfrwt beam="2">  1       -1 0.68124072E-01 0.91271892E+03</pdfrwt>
<totfact> 0.28364668E+00</totfact>
</mgrwt>
</event>
<event>
 4    1  0.2731969E-009  0.8203118E+03  0.7818608E-02  0.9531073E-01
          1   -1    0    0  501    0  0.00000000000E+00  0.00000000000E+00  0.84466600340E+03  0.84466600341E+03  0.50400000000E-02 0. -1.
         -1   -1    0    0    0  501 -0.00000000000E+00 -0.00000000000E+00 -0.16288759293E+04  0.16288759293E+04  0.50400000000E-02 0.  1.
    8880022    1    1    2    0    0  0.57777621740E+03  0.56186689216E+03  0.49191760811E+03  0.95650109675E+03  0.15294330000E+03 0. -1.
    8880022    1    1    2    0    0 -0.57777621740E+03 -0.56186689216E+03 -0.12761275340E+04  0.15170408360E+04  0.15294330000E+03 0.  0.
<mgrwt>
<rscale>  0 0.82031178E+03</rscale>
<asrwt>0</asrwt>
<pdfrwt beam="1">  1        1 0.12994862E+00 0.82031178E+03</pdfrwt>
<pdfrwt beam="2">  1       -1 0.25059630E+00 0.82031178E+03</pdfrwt>
<totfact> 0.14484070E+00</totfact>
</mgrwt>
</event>
<event>
 4    1  0.2731969E-009  0.6480864E+03  0.7818608E-02  0.9810377E-01
         -1   -1    0    0    0  501 -0.00000000000E+00  0.00000000000E+00  0.13101489589E+04  0.13101489589E+04  0.50400000000E-02 0.  1.
          1   -1    0    0  501    0  0.00000000000E+00 -0.00000000000E+00 -0.54193390743E+03  0.54193390745E+03  0.50400000000E-02 0. -1.
    8880022    1    1    2    0    0 -0.38609969823E+03 -0.49754534401E+03 -0.20771913884E+03  0.68056097447E+03  0.15294330000E+03 0.  0.
    8880022    1    1    2    0    0  0.38609969823E+03  0.49754534401E+03  0.97593419028E+03  0.11715218919E+04  0.15294330000E+03 0.  0.
<mgrwt>
<rscale>  0 0.64808641E+03</rscale>
<asrwt>0</asrwt>
<pdfrwt beam="1">  1        1 0.83374447E-01 0.64808641E+03</pdfrwt>
<pdfrwt beam="2">  1       -1 0.20156138E+00 0.64808641E+03</pdfrwt>
<totfact> 0.61114523E+00</totfact>
</mgrwt>
</event>
<event>
 4    1  0.2731969E-009  0.3266049E+03  0.7818608E-02  0.1072649E+00
         -1   -1    0    0    0  501 -0.00000000000E+00  0.00000000000E+00  0.17072344687E+04  0.17072344687E+04  0.50400000000E-02 0.  1.
          1   -1    0    0  501    0  0.00000000000E+00 -0.00000000000E+00 -0.22758360634E+03  0.22758360640E+03  0.50400000000E-02 0. -1.
    8880022    1    1    2    0    0  0.73028255091E+02 -0.27918809407E+03  0.15638037897E+04  0.15975459504E+04  0.15294330000E+03 0.  0.
    8880022    1    1    2    0    0 -0.73028255091E+02  0.27918809407E+03 -0.84152927350E+02  0.33727212471E+03  0.15294330000E+03 0.  0.
<mgrwt>
<rscale>  0 0.32660492E+03</rscale>
<asrwt>0</asrwt>
<pdfrwt beam="1">  1        1 0.35012862E-01 0.32660492E+03</pdfrwt>
<pdfrwt beam="2">  1       -1 0.26265146E+00 0.32660492E+03</pdfrwt>
<totfact> 0.81511531E+00</totfact>
</mgrwt>
</event>
<event>
 4    1  0.2731969E-009  0.5303816E+03  0.7818608E-02  0.1006140E+00
         -1   -1    0    0    0  501 -0.00000000000E+00  0.00000000000E+00  0.51079236006E+03  0.51079236008E+03  0.50400000000E-02 0.  1.
          1   -1    0    0  501    0  0.00000000000E+00 -0.00000000000E+00 -0.14377589191E+04  0.14377589191E+04  0.50400000000E-02 0. -1.
    8880022    1    1    2    0    0 -0.47563290327E+03  0.17800649972E+03  0.30177782359E+03  0.61022494249E+03  0.15294330000E+03 0.  0.
    8880022    1    1    2    0    0  0.47563290327E+03 -0.17800649972E+03 -0.12287443826E+04  0.13383263367E+04  0.15294330000E+03 0.  0.
<mgrwt>
<rscale>  0 0.53038158E+03</rscale>
<asrwt>0</asrwt>
<pdfrwt beam="1">  1        1 0.22119368E+00 0.53038158E+03</pdfrwt>
<pdfrwt beam="2">  1       -1 0.78583441E-01 0.53038158E+03</pdfrwt>
<totfact> 0.12605826E+01</totfact>
</mgrwt>
</event>
<event>
 4    1  0.2731969E-009  0.7702877E+03  0.7818608E-02  0.9604049E-01
         -1   -1    0    0    0  501 -0.00000000000E+00  0.00000000000E+00  0.71832021019E+03  0.71832021021E+03  0.50400000000E-02 0.  1.
          1   -1    0    0  501    0  0.00000000000E+00 -0.00000000000E+00 -0.14848151605E+04  0.14848151605E+04  0.50400000000E-02 0. -1.
    8880022    1    1    2    0    0  0.18585352934E+03 -0.73171708121E+03  0.35050896823E+03  0.84628577391E+03  0.15294330000E+03 0.  0.
    8880022    1    1    2    0    0 -0.18585352934E+03  0.73171708121E+03 -0.11170039185E+04  0.13568495968E+04  0.15294330000E+03 0.  0.
<mgrwt>
<rscale>  0 0.77028766E+03</rscale>
<asrwt>0</asrwt>
<pdfrwt beam="1">  1        1 0.22843310E+00 0.77028766E+03</pdfrwt>
<pdfrwt beam="2">  1       -1 0.11051080E+00 0.77028766E+03</pdfrwt>
<totfact> 0.52518950E+00</totfact>
</mgrwt>
</event>
<event>
 4    1  0.2731969E-009  0.5252611E+03  0.7818608E-02  0.1007388E+00
          1   -1    0    0  501    0  0.00000000000E+00  0.00000000000E+00  0.55580833004E+03  0.55580833007E+03  0.50400000000E-02 0. -1.
         -1   -1    0    0    0  501 -0.00000000000E+00 -0.00000000000E+00 -0.74440347334E+03  0.74440347336E+03  0.50400000000E-02 0.  1.
    8880022    1    1    2    0    0  0.42027524555E+03 -0.27545643231E+03 -0.46954282942E+03  0.70453505931E+03  0.15294330000E+03 0.  0.
    8880022    1    1    2    0    0 -0.42027524555E+03  0.27545643231E+03  0.28094768612E+03  0.59567674411E+03  0.15294330000E+03 0.  0.
<mgrwt>
<rscale>  0 0.52526106E+03</rscale>
<asrwt>0</asrwt>
<pdfrwt beam="1">  1        1 0.85508974E-01 0.52526106E+03</pdfrwt>
<pdfrwt beam="2">  1       -1 0.11452361E+00 0.52526106E+03</pdfrwt>
<totfact> 0.27892305E+01</totfact>
</mgrwt>
</event>
<event>
 4    1  0.2731969E-009  0.7336779E+03  0.7818608E-02  0.9661311E-01
          1   -1    0    0  501    0  0.00000000000E+00  0.00000000000E+00  0.16878279428E+04  0.16878279428E+04  0.50400000000E-02 0. -1.
         -1   -1    0    0    0  501 -0.00000000000E+00 -0.00000000000E+00 -0.52034088060E+03  0.52034088063E+03  0.50400000000E-02 0.  1.
    8880022    1    1    2    0    0  0.59992021009E+03 -0.39368423865E+03  0.12706693571E+04  0.14672708701E+04  0.15294330000E+03 0.  0.
    8880022    1    1    2    0    0 -0.59992021009E+03  0.39368423865E+03 -0.10318229490E+03  0.74089795331E+03  0.15294330000E+03 0.  1.
<mgrwt>
<rscale>  0 0.73367785E+03</rscale>
<asrwt>0</asrwt>
<pdfrwt beam="1">  1        1 0.25966584E+00 0.73367785E+03</pdfrwt>
<pdfrwt beam="2">  1       -1 0.80052441E-01 0.73367785E+03</pdfrwt>
<totfact> 0.79090224E+00</totfact>
</mgrwt>
</event>
<event>
 4    1  0.2731969E-009  0.4976779E+03  0.7818608E-02  0.1014387E+00
         -1   -1    0    0    0  501 -0.00000000000E+00  0.00000000000E+00  0.34290714885E+03  0.34290714889E+03  0.50400000000E-02 0.  1.
          1   -1    0    0  501    0  0.00000000000E+00 -0.00000000000E+00 -0.10587351975E+04  0.10587351975E+04  0.50400000000E-02 0. -1.
    8880022    1    1    2    0    0  0.46659493485E+03 -0.81122030321E+02  0.37144600234E+02  0.49906211174E+03  0.15294330000E+03 0.  0.
    8880022    1    1    2    0    0 -0.46659493485E+03  0.81122030321E+02 -0.75297264887E+03  0.90258023466E+03  0.15294330000E+03 0.  0.
<mgrwt>
<rscale>  0 0.49767788E+03</rscale>
<asrwt>0</asrwt>
<pdfrwt beam="1">  1        1 0.16288234E+00 0.49767788E+03</pdfrwt>
<pdfrwt beam="2">  1       -1 0.52754946E-01 0.49767788E+03</pdfrwt>
<totfact> 0.52130498E+01</totfact>
</mgrwt>
</event>
<event>
 4    1  0.2731969E-009  0.9854442E+03  0.7818608E-02  0.9324655E-01
         -1   -1    0    0    0  501 -0.00000000000E+00  0.00000000000E+00  0.15811105342E+04  0.15811105342E+04  0.50400000000E-02 0.  1.
          1   -1    0    0  501    0  0.00000000000E+00 -0.00000000000E+00 -0.27186976450E+04  0.27186976450E+04  0.50400000000E-02 0. -1.
    8880022    1    1    2    0    0 -0.96934515114E+03  0.89881122425E+02  0.13227398429E+04  0.16494668785E+04  0.15294330000E+03 0.  0.
    8880022    1    1    2    0    0  0.96934515114E+03 -0.89881122425E+02 -0.24603269537E+04  0.26503413008E+04  0.15294330000E+03 0.  0.
<mgrwt>
<rscale>  0 0.98544421E+03</rscale>
<asrwt>0</asrwt>
<pdfrwt beam="1">  1        1 0.41826118E+00 0.98544421E+03</pdfrwt>
<pdfrwt beam="2">  1       -1 0.24324777E+00 0.98544421E+03</pdfrwt>
<totfact> 0.75735078E-02</totfact>
</mgrwt>
</event>
<event>
 4    1  0.2731969E-009  0.9724103E+03  0.7818608E-02  0.9339333E-01
         -1   -1    0    0    0  501 -0.00000000000E+00  0.00000000000E+00  0.16490306160E+04  0.16490306160E+04  0.50400000000E-02 0.  1.
          1   -1    0    0  501    0  0.00000000000E+00 -0.00000000000E+00 -0.72507681585E+03  0.72507681587E+03  0.50400000000E-02 0. -1.
    8880022    1    1    2    0    0 -0.47482232951E+03 -0.83470587940E+03 -0.80915747180E+02  0.97577105966E+03  0.15294330000E+03 0.  0.
    8880022    1    1    2    0    0  0.47482232951E+03  0.83470587940E+03  0.10048695473E+04  0.13983363722E+04  0.15294330000E+03 0.  0.
<mgrwt>
<rscale>  0 0.97241031E+03</rscale>
<asrwt>0</asrwt>
<pdfrwt beam="1">  1        1 0.11155028E+00 0.97241031E+03</pdfrwt>
<pdfrwt beam="2">  1       -1 0.25369702E+00 0.97241031E+03</pdfrwt>
<totfact> 0.17229726E+00</totfact>
</mgrwt>
</event>
<event>
 4    1  0.2731969E-009  0.1072377E+04  0.7818608E-02  0.9232541E-01
         -1   -1    0    0    0  501 -0.00000000000E+00  0.00000000000E+00  0.42594399282E+03  0.42594399284E+03  0.50400000000E-02 0.  1.
          1   -1    0    0  501    0  0.00000000000E+00 -0.00000000000E+00 -0.37732359850E+04  0.37732359850E+04  0.50400000000E-02 0. -1.
    8880022    1    1    2    0    0 -0.37386550319E+03 -0.99339070090E+03 -0.55381619670E+03  0.12069401526E+04  0.15294330000E+03 0.  0.
    8880022    1    1    2    0    0  0.37386550319E+03  0.99339070090E+03 -0.27934757955E+04  0.29922398253E+04  0.15294330000E+03 0.  0.
<mgrwt>
<rscale>  0 0.10723769E+04</rscale>
<asrwt>0</asrwt>
<pdfrwt beam="1">  1        1 0.58049782E+00 0.10723769E+04</pdfrwt>
<pdfrwt beam="2">  1       -1 0.65529848E-01 0.10723769E+04</pdfrwt>
<totfact> 0.36629518E-01</totfact>
</mgrwt>
</event>
<event>
 4    1  0.2731969E-009  0.6124386E+03  0.7818608E-02  0.9879931E-01
          1   -1    0    0  501    0  0.00000000000E+00  0.00000000000E+00  0.17429110651E+04  0.17429110651E+04  0.50400000000E-02 0. -1.
         -1   -1    0    0    0  501 -0.00000000000E+00 -0.00000000000E+00 -0.43031705832E+03  0.43031705835E+03  0.50400000000E-02 0.  1.
    8880022    1    1    2    0    0  0.27690566535E+03 -0.52441651171E+03  0.14245683436E+04  0.15506373025E+04  0.15294330000E+03 0.  0.
    8880022    1    1    2    0    0 -0.27690566535E+03  0.52441651171E+03 -0.11197433680E+03  0.62259082099E+03  0.15294330000E+03 0.  1.
<mgrwt>
<rscale>  0 0.61243863E+03</rscale>
<asrwt>0</asrwt>
<pdfrwt beam="1">  1        1 0.26814017E+00 0.61243863E+03</pdfrwt>
<pdfrwt beam="2">  1       -1 0.66202623E-01 0.61243863E+03</pdfrwt>
<totfact> 0.10981907E+01</totfact>
</mgrwt>
</event>
<event>
 4    1  0.2731969E-009  0.5291880E+03  0.7818608E-02  0.1006429E+00
         -1   -1    0    0    0  501 -0.00000000000E+00  0.00000000000E+00  0.23081874662E+03  0.23081874668E+03  0.50400000000E-02 0.  1.
          1   -1    0    0  501    0  0.00000000000E+00 -0.00000000000E+00 -0.14459846750E+04  0.14459846750E+04  0.50400000000E-02 0. -1.
    8880022    1    1    2    0    0  0.46427883973E+03 -0.20271509704E+03 -0.94394320623E+03  0.10821592679E+04  0.15294330000E+03 0.  0.
    8880022    1    1    2    0    0 -0.46427883973E+03  0.20271509704E+03 -0.27122272218E+03  0.59464415379E+03  0.15294330000E+03 0.  1.
<mgrwt>
<rscale>  0 0.52918797E+03</rscale>
<asrwt>0</asrwt>
<pdfrwt beam="1">  1        1 0.22245918E+00 0.52918797E+03</pdfrwt>
<pdfrwt beam="2">  1       -1 0.35510577E-01 0.52918797E+03</pdfrwt>
<totfact> 0.56922822E+01</totfact>
</mgrwt>
</event>
<event>
 4    1  0.2731969E-009  0.2005890E+04  0.7818608E-02  0.8603872E-01
          1   -1    0    0  501    0  0.00000000000E+00  0.00000000000E+00  0.15333247920E+04  0.15333247920E+04  0.50400000000E-02 0. -1.
         -1   -1    0    0    0  501 -0.00000000000E+00 -0.00000000000E+00 -0.29125504204E+04  0.29125504204E+04  0.50400000000E-02 0.  1.
    8880022    1    1    2    0    0 -0.13402255041E+04 -0.14845866566E+04 -0.13891778484E+04  0.24399607969E+04  0.15294330000E+03 0.  0.
    8880022    1    1    2    0    0  0.13402255041E+04  0.14845866566E+04  0.99522199210E+01  0.20059144156E+04  0.15294330000E+03 0.  0.
<mgrwt>
<rscale>  0 0.20058897E+04</rscale>
<asrwt>0</asrwt>
<pdfrwt beam="1">  1        1 0.23589612E+00 0.20058897E+04</pdfrwt>
<pdfrwt beam="2">  1       -1 0.44808468E+00 0.20058897E+04</pdfrwt>
<totfact> 0.18419895E-02</totfact>
</mgrwt>
</event>
<event>
 4    1  0.2731969E-009  0.1792979E+04  0.7818608E-02  0.8710042E-01
         -1   -1    0    0    0  501 -0.00000000000E+00  0.00000000000E+00  0.14628888419E+04  0.14628888419E+04  0.50400000000E-02 0.  1.
          1   -1    0    0  501    0  0.00000000000E+00 -0.00000000000E+00 -0.29822448228E+04  0.29822448229E+04  0.50400000000E-02 0. -1.
    8880022    1    1    2    0    0 -0.66262317583E+03  0.16590099343E+04 -0.18997515496E+04  0.26122463587E+04  0.15294330000E+03 0.  0.
    8880022    1    1    2    0    0  0.66262317583E+03 -0.16590099343E+04  0.38039556863E+03  0.18328873061E+04  0.15294330000E+03 0.  0.
<mgrwt>
<rscale>  0 0.17929794E+04</rscale>
<asrwt>0</asrwt>
<pdfrwt beam="1">  1        1 0.45880690E+00 0.17929794E+04</pdfrwt>
<pdfrwt beam="2">  1       -1 0.22505982E+00 0.17929794E+04</pdfrwt>
<totfact> 0.57178688E-02</totfact>
</mgrwt>
</event>
<event>
 4    1  0.2731969E-009  0.9984682E+03  0.7818608E-02  0.9310226E-01
          1   -1    0    0  501    0  0.00000000000E+00  0.00000000000E+00  0.21947198158E+04  0.21947198158E+04  0.50400000000E-02 0. -1.
         -1   -1    0    0    0  501 -0.00000000000E+00 -0.00000000000E+00 -0.55291975617E+03  0.55291975620E+03  0.50400000000E-02 0.  1.
    8880022    1    1    2    0    0 -0.97210247776E+03  0.16900852703E+03  0.14012680703E+04  0.17206077320E+04  0.15294330000E+03 0.  0.
    8880022    1    1    2    0    0  0.97210247776E+03 -0.16900852703E+03  0.24053198929E+03  0.10270318400E+04  0.15294330000E+03 0.  0.
<mgrwt>
<rscale>  0 0.99846821E+03</rscale>
<asrwt>0</asrwt>
<pdfrwt beam="1">  1        1 0.33764921E+00 0.99846821E+03</pdfrwt>
<pdfrwt beam="2">  1       -1 0.85064576E-01 0.99846821E+03</pdfrwt>
<totfact> 0.30452381E+00</totfact>
</mgrwt>
</event>
<event>
 4    1  0.2731969E-009  0.9573424E+03  0.7818608E-02  0.9356609E-01
         -1   -1    0    0    0  501 -0.00000000000E+00  0.00000000000E+00  0.58285569273E+03  0.58285569275E+03  0.50400000000E-02 0.  1.
          1   -1    0    0  501    0  0.00000000000E+00 -0.00000000000E+00 -0.18600013206E+04  0.18600013206E+04  0.50400000000E-02 0. -1.
    8880022    1    1    2    0    0  0.11936486398E+03  0.93747790863E+03 -0.11188347346E+04  0.14725133671E+04  0.15294330000E+03 0.  0.
    8880022    1    1    2    0    0 -0.11936486398E+03 -0.93747790863E+03 -0.15831089331E+03  0.97034364628E+03  0.15294330000E+03 0.  0.
<mgrwt>
<rscale>  0 0.95734239E+03</rscale>
<asrwt>0</asrwt>
<pdfrwt beam="1">  1        1 0.28615405E+00 0.95734239E+03</pdfrwt>
<pdfrwt beam="2">  1       -1 0.89670107E-01 0.95734239E+03</pdfrwt>
<totfact> 0.45852852E+00</totfact>
</mgrwt>
</event>
<event>
 4    1  0.2731969E-009  0.1208839E+04  0.7818608E-02  0.9105155E-01
          1   -1    0    0  501    0  0.00000000000E+00  0.00000000000E+00  0.46986518682E+04  0.46986518682E+04  0.50400000000E-02 0. -1.
         -1   -1    0    0    0  501 -0.00000000000E+00 -0.00000000000E+00 -0.31838156700E+03  0.31838156704E+03  0.50400000000E-02 0.  1.
    8880022    1    1    2    0    0 -0.11991021556E+04  0.72791133177E+01  0.25720402131E+04  0.28419502944E+04  0.15294330000E+03 0.  0.
    8880022    1    1    2    0    0  0.11991021556E+04 -0.72791133177E+01  0.18082300881E+04  0.21750831408E+04  0.15294330000E+03 0.  0.
<mgrwt>
<rscale>  0 0.12088385E+04</rscale>
<asrwt>0</asrwt>
<pdfrwt beam="1">  1        1 0.72286945E+00 0.12088385E+04</pdfrwt>
<pdfrwt beam="2">  1       -1 0.48981784E-01 0.12088385E+04</pdfrwt>
<totfact> 0.85741165E-02</totfact>
</mgrwt>
</event>
<event>
 4    1  0.2731969E-009  0.6678454E+03  0.7818608E-02  0.9773858E-01
         -1   -1    0    0    0  501 -0.00000000000E+00  0.00000000000E+00  0.12636033427E+04  0.12636033427E+04  0.50400000000E-02 0.  1.
          1   -1    0    0  501    0  0.00000000000E+00 -0.00000000000E+00 -0.72564406326E+03  0.72564406328E+03  0.50400000000E-02 0. -1.
    8880022    1    1    2    0    0 -0.59322436939E+03 -0.26591487115E+03 -0.44380769429E+03  0.80186207895E+03  0.15294330000E+03 0.  0.
    8880022    1    1    2    0    0  0.59322436939E+03  0.26591487115E+03  0.98176697368E+03  0.11873853270E+04  0.15294330000E+03 0.  0.
<mgrwt>
<rscale>  0 0.66784543E+03</rscale>
<asrwt>0</asrwt>
<pdfrwt beam="1">  1        1 0.11163755E+00 0.66784543E+03</pdfrwt>
<pdfrwt beam="2">  1       -1 0.19440051E+00 0.66784543E+03</pdfrwt>
<totfact> 0.44594729E+00</totfact>
</mgrwt>
</event>
<event>
 4    1  0.2731969E-009  0.2106286E+03  0.7818608E-02  0.1141069E+00
          1   -1    0    0  501    0  0.00000000000E+00  0.00000000000E+00  0.16043446147E+04  0.16043446147E+04  0.50400000000E-02 0. -1.
         -1   -1    0    0    0  501 -0.00000000000E+00 -0.00000000000E+00 -0.70715290303E+02  0.70715290483E+02  0.50400000000E-02 0.  1.
    8880022    1    1    2    0    0 -0.57594063189E+01 -0.14470515287E+03  0.11324191846E+03  0.23914041302E+03  0.15294330000E+03 0.  0.
    8880022    1    1    2    0    0  0.57594063189E+01  0.14470515287E+03  0.14203874059E+04  0.14359194921E+04  0.15294330000E+03 0. -1.
<mgrwt>
<rscale>  0 0.21062860E+03</rscale>
<asrwt>0</asrwt>
<pdfrwt beam="1">  1        1 0.24682225E+00 0.21062860E+03</pdfrwt>
<pdfrwt beam="2">  1       -1 0.10879275E-01 0.21062860E+03</pdfrwt>
<totfact> 0.33103594E+02</totfact>
</mgrwt>
</event>
<event>
 4    1  0.2731969E-009  0.4822397E+03  0.7818608E-02  0.1018521E+00
         -1   -1    0    0    0  501 -0.00000000000E+00  0.00000000000E+00  0.11122089174E+04  0.11122089175E+04  0.50400000000E-02 0.  1.
          1   -1    0    0  501    0  0.00000000000E+00 -0.00000000000E+00 -0.27177370529E+03  0.27177370534E+03  0.50400000000E-02 0. -1.
    8880022    1    1    2    0    0  0.45454053228E+03 -0.50561124946E+02  0.87892140155E+02  0.49018384730E+03  0.15294330000E+03 0.  0.
    8880022    1    1    2    0    0 -0.45454053228E+03  0.50561124946E+02  0.75254307200E+03  0.89379877549E+03  0.15294330000E+03 0.  0.
<mgrwt>
<rscale>  0 0.48223975E+03</rscale>
<asrwt>0</asrwt>
<pdfrwt beam="1">  1        1 0.41811338E-01 0.48223975E+03</pdfrwt>
<pdfrwt beam="2">  1       -1 0.17110907E+00 0.48223975E+03</pdfrwt>
<totfact> 0.25464393E+01</totfact>
</mgrwt>
</event>
<event>
 4    1  0.2731969E-009  0.9065265E+03  0.7818608E-02  0.9417460E-01
          1   -1    0    0  501    0  0.00000000000E+00  0.00000000000E+00  0.23898481506E+04  0.23898481506E+04  0.50400000000E-02 0. -1.
         -1   -1    0    0    0  501 -0.00000000000E+00 -0.00000000000E+00 -0.58080796765E+03  0.58080796767E+03  0.50400000000E-02 0.  1.
    8880022    1    1    2    0    0  0.36924370377E+03  0.81366927807E+03 -0.44173679025E+02  0.90760210102E+03  0.15294330000E+03 0.  0.
    8880022    1    1    2    0    0 -0.36924370377E+03 -0.81366927807E+03  0.18532138619E+04  0.20630540172E+04  0.15294330000E+03 0.  0.
<mgrwt>
<rscale>  0 0.90652648E+03</rscale>
<asrwt>0</asrwt>
<pdfrwt beam="1">  1        1 0.36766896E+00 0.90652648E+03</pdfrwt>
<pdfrwt beam="2">  1       -1 0.89355069E-01 0.90652648E+03</pdfrwt>
<totfact> 0.20445460E+00</totfact>
</mgrwt>
</event>
<event>
 4    1  0.2731969E-009  0.1029925E+04  0.7818608E-02  0.9276320E-01
         -1   -1    0    0    0  501 -0.00000000000E+00  0.00000000000E+00  0.50156406055E+04  0.50156406055E+04  0.50400000000E-02 0.  1.
          1   -1    0    0  501    0  0.00000000000E+00 -0.00000000000E+00 -0.42567209414E+03  0.42567209417E+03  0.50400000000E-02 0. -1.
    8880022    1    1    2    0    0  0.97033373217E+03 -0.30952464411E+03  0.42248643715E+04  0.43485886984E+04  0.15294330000E+03 0.  0.
    8880022    1    1    2    0    0 -0.97033373217E+03  0.30952464411E+03  0.36510413990E+03  0.10927240013E+04  0.15294330000E+03 0.  0.
<mgrwt>
<rscale>  0 0.10299246E+04</rscale>
<asrwt>0</asrwt>
<pdfrwt beam="1">  1        1 0.65488014E-01 0.10299246E+04</pdfrwt>
<pdfrwt beam="2">  1       -1 0.77163703E+00 0.10299246E+04</pdfrwt>
<totfact> 0.58242578E-03</totfact>
</mgrwt>
</event>
<event>
 4    1  0.2731969E-009  0.9099839E+03  0.7818608E-02  0.9413186E-01
         -1   -1    0    0    0  501 -0.00000000000E+00  0.00000000000E+00  0.12195341828E+04  0.12195341828E+04  0.50400000000E-02 0.  1.
          1   -1    0    0  501    0  0.00000000000E+00 -0.00000000000E+00 -0.87408089262E+03  0.87408089264E+03  0.50400000000E-02 0. -1.
    8880022    1    1    2    0    0  0.74866310920E+03  0.49414828272E+03  0.66725600365E+03  0.11284064887E+04  0.15294330000E+03 0.  0.
    8880022    1    1    2    0    0 -0.74866310920E+03 -0.49414828272E+03 -0.32180271350E+03  0.96520858669E+03  0.15294330000E+03 0.  0.
<mgrwt>
<rscale>  0 0.90998386E+03</rscale>
<asrwt>0</asrwt>
<pdfrwt beam="1">  1        1 0.13447398E+00 0.90998386E+03</pdfrwt>
<pdfrwt beam="2">  1       -1 0.18762064E+00 0.90998386E+03</pdfrwt>
<totfact> 0.35627462E+00</totfact>
</mgrwt>
</event>
<event>
 4    1  0.2731969E-009  0.4888047E+03  0.7818608E-02  0.1016743E+00
          1   -1    0    0  501    0  0.00000000000E+00  0.00000000000E+00  0.10721774200E+04  0.10721774200E+04  0.50400000000E-02 0. -1.
         -1   -1    0    0    0  501 -0.00000000000E+00 -0.00000000000E+00 -0.30461769569E+03  0.30461769573E+03  0.50400000000E-02 0.  1.
    8880022    1    1    2    0    0 -0.30772500297E+03 -0.34762582578E+03  0.74044795497E+03  0.88723909925E+03  0.15294330000E+03 0.  0.
    8880022    1    1    2    0    0  0.30772500297E+03  0.34762582578E+03  0.27111769309E+02  0.48955601647E+03  0.15294330000E+03 0.  0.
<mgrwt>
<rscale>  0 0.48880471E+03</rscale>
<asrwt>0</asrwt>
<pdfrwt beam="1">  1        1 0.16495037E+00 0.48880471E+03</pdfrwt>
<pdfrwt beam="2">  1       -1 0.46864261E-01 0.48880471E+03</pdfrwt>
<totfact> 0.63702833E+01</totfact>
</mgrwt>
</event>
<event>
 4    1  0.2731969E-009  0.4801158E+03  0.7818608E-02  0.1019103E+00
         -1   -1    0    0    0  501 -0.00000000000E+00  0.00000000000E+00  0.30590014461E+03  0.30590014465E+03  0.50400000000E-02 0.  1.
          1   -1    0    0  501    0  0.00000000000E+00 -0.00000000000E+00 -0.12058528593E+04  0.12058528593E+04  0.50400000000E-02 0. -1.
    8880022    1    1    2    0    0 -0.84328303202E+02  0.44722281240E+03 -0.91290940659E+03  0.10314624299E+04  0.15294330000E+03 0.  0.
    8880022    1    1    2    0    0  0.84328303202E+02 -0.44722281240E+03  0.12956691896E+02  0.48029057406E+03  0.15294330000E+03 0.  0.
<mgrwt>
<rscale>  0 0.48011578E+03</rscale>
<asrwt>0</asrwt>
<pdfrwt beam="1">  1        1 0.18551582E+00 0.48011578E+03</pdfrwt>
<pdfrwt beam="2">  1       -1 0.47061561E-01 0.48011578E+03</pdfrwt>
<totfact> 0.50592087E+01</totfact>
</mgrwt>
</event>
<event>
 4    1  0.2731969E-009  0.1054202E+04  0.7818608E-02  0.9251016E-01
         -1   -1    0    0    0  501 -0.00000000000E+00  0.00000000000E+00  0.15916434080E+04  0.15916434080E+04  0.50400000000E-02 0.  1.
          1   -1    0    0  501    0  0.00000000000E+00 -0.00000000000E+00 -0.12721206528E+04  0.12721206528E+04  0.50400000000E-02 0. -1.
    8880022    1    1    2    0    0 -0.94807050490E+03  0.43487160922E+03 -0.80197359782E+03  0.13245770281E+04  0.15294330000E+03 0.  0.
    8880022    1    1    2    0    0  0.94807050490E+03 -0.43487160922E+03  0.11214963531E+04  0.15391870327E+04  0.15294330000E+03 0.  1.
<mgrwt>
<rscale>  0 0.10542024E+04</rscale>
<asrwt>0</asrwt>
<pdfrwt beam="1">  1        1 0.19571087E+00 0.10542024E+04</pdfrwt>
<pdfrwt beam="2">  1       -1 0.24486822E+00 0.10542024E+04</pdfrwt>
<totfact> 0.71396251E-01</totfact>
</mgrwt>
</event>
<event>
 4    1  0.2731969E-009  0.7306053E+03  0.7818608E-02  0.9666279E-01
          1   -1    0    0  501    0  0.00000000000E+00  0.00000000000E+00  0.18114846414E+04  0.18114846414E+04  0.50400000000E-02 0. -1.
         -1   -1    0    0    0  501 -0.00000000000E+00 -0.00000000000E+00 -0.74603523376E+03  0.74603523377E+03  0.50400000000E-02 0.  1.
    8880022    1    1    2    0    0 -0.68464688772E+03  0.20408605837E+03 -0.46193611415E+03  0.86438944155E+03  0.15294330000E+03 0.  0.
    8880022    1    1    2    0    0  0.68464688772E+03 -0.20408605837E+03  0.15273855218E+04  0.16931304336E+04  0.15294330000E+03 0.  0.
<mgrwt>
<rscale>  0 0.73060532E+03</rscale>
<asrwt>0</asrwt>
<pdfrwt beam="1">  1        1 0.27868994E+00 0.73060532E+03</pdfrwt>
<pdfrwt beam="2">  1       -1 0.11477465E+00 0.73060532E+03</pdfrwt>
<totfact> 0.29065416E+00</totfact>
</mgrwt>
</event>
<event>
 4    1  0.2731969E-009  0.1016546E+04  0.7818608E-02  0.9290582E-01
         -1   -1    0    0    0  501 -0.00000000000E+00  0.00000000000E+00  0.19930159409E+04  0.19930159409E+04  0.50400000000E-02 0.  1.
          1   -1    0    0  501    0  0.00000000000E+00 -0.00000000000E+00 -0.14058604695E+04  0.14058604696E+04  0.50400000000E-02 0. -1.
    8880022    1    1    2    0    0 -0.71606918300E+03  0.70513689879E+03 -0.10565847113E+04  0.14661978127E+04  0.15294330000E+03 0.  0.
    8880022    1    1    2    0    0  0.71606918300E+03 -0.70513689879E+03  0.16437401827E+04  0.19326785977E+04  0.15294330000E+03 0.  0.
<mgrwt>
<rscale>  0 0.10165455E+04</rscale>
<asrwt>0</asrwt>
<pdfrwt beam="1">  1        1 0.21628623E+00 0.10165455E+04</pdfrwt>
<pdfrwt beam="2">  1       -1 0.30661784E+00 0.10165455E+04</pdfrwt>
<totfact> 0.23087130E-01</totfact>
</mgrwt>
</event>
<event>
 4    1  0.2731969E-009  0.2106378E+03  0.7818608E-02  0.1141062E+00
          1   -1    0    0  501    0  0.00000000000E+00  0.00000000000E+00  0.54269549751E+03  0.54269549753E+03  0.50400000000E-02 0. -1.
         -1   -1    0    0    0  501 -0.00000000000E+00 -0.00000000000E+00 -0.11823755887E+03  0.11823755898E+03  0.50400000000E-02 0.  1.
    8880022    1    1    2    0    0  0.13850276717E+03 -0.42351218417E+02  0.28663947181E+02  0.21257920194E+03  0.15294330000E+03 0.  0.
    8880022    1    1    2    0    0 -0.13850276717E+03  0.42351218417E+02  0.39579399146E+03  0.44835385457E+03  0.15294330000E+03 0.  0.
<mgrwt>
<rscale>  0 0.21063783E+03</rscale>
<asrwt>0</asrwt>
<pdfrwt beam="1">  1        1 0.83491614E-01 0.21063783E+03</pdfrwt>
<pdfrwt beam="2">  1       -1 0.18190394E-01 0.21063783E+03</pdfrwt>
<totfact> 0.95307309E+02</totfact>
</mgrwt>
</event>
<event>
 4    1  0.2731969E-009  0.7224573E+03  0.7818608E-02  0.9679580E-01
          1   -1    0    0  501    0  0.00000000000E+00  0.00000000000E+00  0.13372789690E+04  0.13372789690E+04  0.50400000000E-02 0. -1.
         -1   -1    0    0    0  501 -0.00000000000E+00 -0.00000000000E+00 -0.88546307824E+03  0.88546307826E+03  0.50400000000E-02 0.  1.
    8880022    1    1    2    0    0 -0.64797874372E+03 -0.28049311693E+03  0.10569949439E+04  0.12803057468E+04  0.15294330000E+03 0.  0.
    8880022    1    1    2    0    0  0.64797874372E+03  0.28049311693E+03 -0.60517905315E+03  0.94243630041E+03  0.15294330000E+03 0.  0.
<mgrwt>
<rscale>  0 0.72245726E+03</rscale>
<asrwt>0</asrwt>
<pdfrwt beam="1">  1        1 0.20573523E+00 0.72245726E+03</pdfrwt>
<pdfrwt beam="2">  1       -1 0.13622509E+00 0.72245726E+03</pdfrwt>
<totfact> 0.40053018E+00</totfact>
</mgrwt>
</event>
<event>
 4    1  0.2731969E-009  0.1232624E+04  0.7818608E-02  0.9084771E-01
          1   -1    0    0  501    0  0.00000000000E+00  0.00000000000E+00  0.21985176769E+04  0.21985176769E+04  0.50400000000E-02 0. -1.
         -1   -1    0    0    0  501 -0.00000000000E+00 -0.00000000000E+00 -0.18590592792E+04  0.18590592792E+04  0.50400000000E-02 0.  1.
    8880022    1    1    2    0    0 -0.16541031586E+03 -0.12118618093E+04  0.17778064257E+04  0.21633208171E+04  0.15294330000E+03 0.  0.
    8880022    1    1    2    0    0  0.16541031586E+03  0.12118618093E+04 -0.14383480280E+04  0.18942561390E+04  0.15294330000E+03 0.  0.
<mgrwt>
<rscale>  0 0.12326237E+04</rscale>
<asrwt>0</asrwt>
<pdfrwt beam="1">  1        1 0.33823349E+00 0.12326237E+04</pdfrwt>
<pdfrwt beam="2">  1       -1 0.28600912E+00 0.12326237E+04</pdfrwt>
<totfact> 0.87158069E-02</totfact>
</mgrwt>
</event>
<event>
 4    1  0.2731969E-009  0.4730637E+03  0.7818608E-02  0.1021059E+00
         -1   -1    0    0    0  501 -0.00000000000E+00  0.00000000000E+00  0.20412110314E+03  0.20412110321E+03  0.50400000000E-02 0.  1.
          1   -1    0    0  501    0  0.00000000000E+00 -0.00000000000E+00 -0.30136991231E+04  0.30136991231E+04  0.50400000000E-02 0. -1.
    8880022    1    1    2    0    0  0.44436352287E+03  0.54209408399E+02 -0.12147825206E+03  0.48841193593E+03  0.15294330000E+03 0.  1.
    8880022    1    1    2    0    0 -0.44436352287E+03 -0.54209408399E+02 -0.26880997679E+04  0.27294082904E+04  0.15294330000E+03 0.  0.
<mgrwt>
<rscale>  0 0.47306369E+03</rscale>
<asrwt>0</asrwt>
<pdfrwt beam="1">  1        1 0.46364598E+00 0.47306369E+03</pdfrwt>
<pdfrwt beam="2">  1       -1 0.31403249E-01 0.47306369E+03</pdfrwt>
<totfact> 0.62488895E+00</totfact>
</mgrwt>
</event>
<event>
 4    1  0.2731969E-009  0.7640925E+03  0.7818608E-02  0.9613497E-01
         -1   -1    0    0    0  501 -0.00000000000E+00  0.00000000000E+00  0.16158372081E+04  0.16158372081E+04  0.50400000000E-02 0.  1.
          1   -1    0    0  501    0  0.00000000000E+00 -0.00000000000E+00 -0.43336227675E+03  0.43336227678E+03  0.50400000000E-02 0. -1.
    8880022    1    1    2    0    0 -0.73294705209E+03  0.15242826689E+03  0.10089876039E+04  0.12656592731E+04  0.15294330000E+03 0.  0.
    8880022    1    1    2    0    0  0.73294705209E+03 -0.15242826689E+03  0.17348732747E+03  0.78354021181E+03  0.15294330000E+03 0.  0.
<mgrwt>
<rscale>  0 0.76409254E+03</rscale>
<asrwt>0</asrwt>
<pdfrwt beam="1">  1        1 0.66671120E-01 0.76409254E+03</pdfrwt>
<pdfrwt beam="2">  1       -1 0.24859034E+00 0.76409254E+03</pdfrwt>
<totfact> 0.39865640E+00</totfact>
</mgrwt>
</event>
<event>
 4    1  0.2731969E-009  0.4338823E+03  0.7818608E-02  0.1032641E+00
         -1   -1    0    0    0  501 -0.00000000000E+00  0.00000000000E+00  0.23247618415E+03  0.23247618420E+03  0.50400000000E-02 0.  1.
          1   -1    0    0  501    0  0.00000000000E+00 -0.00000000000E+00 -0.20961483346E+04  0.20961483347E+04  0.50400000000E-02 0. -1.
    8880022    1    1    2    0    0 -0.40157688550E+03 -0.59985123493E+02 -0.19737780292E+02  0.43433102928E+03  0.15294330000E+03 0.  0.
    8880022    1    1    2    0    0  0.40157688550E+03  0.59985123493E+02 -0.18439343702E+04  0.18942934896E+04  0.15294330000E+03 0.  0.
<mgrwt>
<rscale>  0 0.43388231E+03</rscale>
<asrwt>0</asrwt>
<pdfrwt beam="1">  1        1 0.32248435E+00 0.43388231E+03</pdfrwt>
<pdfrwt beam="2">  1       -1 0.35765568E-01 0.43388231E+03</pdfrwt>
<totfact> 0.21151306E+01</totfact>
</mgrwt>
</event>
<event>
 4    1  0.2731969E-009  0.2645246E+03  0.7818608E-02  0.1104455E+00
         -1   -1    0    0    0  501 -0.00000000000E+00  0.00000000000E+00  0.35911782318E+03  0.35911782322E+03  0.50400000000E-02 0.  1.
          1   -1    0    0  501    0  0.00000000000E+00 -0.00000000000E+00 -0.75745308534E+03  0.75745308536E+03  0.50400000000E-02 0. -1.
    8880022    1    1    2    0    0 -0.20998981423E+03  0.49858475798E+02  0.28198229998E+03  0.38663582375E+03  0.15294330000E+03 0.  1.
    8880022    1    1    2    0    0  0.20998981423E+03 -0.49858475798E+02 -0.68031756214E+03  0.72993508483E+03  0.15294330000E+03 0.  0.
<mgrwt>
<rscale>  0 0.26452456E+03</rscale>
<asrwt>0</asrwt>
<pdfrwt beam="1">  1        1 0.11653124E+00 0.26452456E+03</pdfrwt>
<pdfrwt beam="2">  1       -1 0.55248896E-01 0.26452456E+03</pdfrwt>
<totfact> 0.86628955E+01</totfact>
</mgrwt>
</event>
<event>
 4    1  0.2731969E-009  0.2050954E+03  0.7818608E-02  0.1145510E+00
          1   -1    0    0  501    0  0.00000000000E+00  0.00000000000E+00  0.27872995593E+03  0.27872995598E+03  0.50400000000E-02 0. -1.
         -1   -1    0    0    0  501 -0.00000000000E+00 -0.00000000000E+00 -0.59395215200E+03  0.59395215202E+03  0.50400000000E-02 0.  1.
    8880022    1    1    2    0    0  0.13619066989E+03 -0.11161113133E+02 -0.53446337118E+03  0.57246416234E+03  0.15294330000E+03 0.  0.
    8880022    1    1    2    0    0 -0.13619066989E+03  0.11161113133E+02  0.21924117512E+03  0.30021794566E+03  0.15294330000E+03 0.  0.
<mgrwt>
<rscale>  0 0.20509540E+03</rscale>
<asrwt>0</asrwt>
<pdfrwt beam="1">  1        1 0.42881532E-01 0.20509540E+03</pdfrwt>
<pdfrwt beam="2">  1       -1 0.91377253E-01 0.20509540E+03</pdfrwt>
<totfact> 0.12066398E+02</totfact>
</mgrwt>
</event>
<event>
 4    1  0.2731969E-009  0.2108881E+03  0.7818608E-02  0.1140865E+00
         -1   -1    0    0    0  501 -0.00000000000E+00  0.00000000000E+00  0.53500104635E+03  0.53500104638E+03  0.50400000000E-02 0.  1.
          1   -1    0    0  501    0  0.00000000000E+00 -0.00000000000E+00 -0.15048897609E+04  0.15048897609E+04  0.50400000000E-02 0. -1.
    8880022    1    1    2    0    0 -0.88750137475E+02 -0.11491547442E+03  0.50643056297E+03  0.54858519966E+03  0.15294330000E+03 0.  0.
    8880022    1    1    2    0    0  0.88750137475E+02  0.11491547442E+03 -0.14763192775E+04  0.14913056076E+04  0.15294330000E+03 0. -1.
<mgrwt>
<rscale>  0 0.21088814E+03</rscale>
<asrwt>0</asrwt>
<pdfrwt beam="1">  1        1 0.23152150E+00 0.21088814E+03</pdfrwt>
<pdfrwt beam="2">  1       -1 0.82307854E-01 0.21088814E+03</pdfrwt>
<totfact> 0.11467399E+01</totfact>
</mgrwt>
</event>
<event>
 4    1  0.2731969E-009  0.8650274E+03  0.7818608E-02  0.9470387E-01
          1   -1    0    0  501    0  0.00000000000E+00  0.00000000000E+00  0.17646870920E+04  0.17646870920E+04  0.50400000000E-02 0. -1.
         -1   -1    0    0    0  501 -0.00000000000E+00 -0.00000000000E+00 -0.11731729359E+04  0.11731729359E+04  0.50400000000E-02 0.  1.
    8880022    1    1    2    0    0 -0.80527889785E+03 -0.27641766604E+03  0.14695830378E+04  0.17052702975E+04  0.15294330000E+03 0.  0.
    8880022    1    1    2    0    0  0.80527889785E+03  0.27641766604E+03 -0.87806888177E+03  0.12325897304E+04  0.15294330000E+03 0.  0.
<mgrwt>
<rscale>  0 0.86502745E+03</rscale>
<asrwt>0</asrwt>
<pdfrwt beam="1">  1        1 0.27149032E+00 0.86502745E+03</pdfrwt>
<pdfrwt beam="2">  1       -1 0.18048814E+00 0.86502745E+03</pdfrwt>
<totfact> 0.91751575E-01</totfact>
</mgrwt>
</event>
<event>
 4    1  0.2731969E-009  0.4296269E+03  0.7818608E-02  0.1033978E+00
          1   -1    0    0  501    0  0.00000000000E+00  0.00000000000E+00  0.18176663749E+04  0.18176663749E+04  0.50400000000E-02 0. -1.
         -1   -1    0    0    0  501 -0.00000000000E+00 -0.00000000000E+00 -0.37033716592E+03  0.37033716596E+03  0.50400000000E-02 0.  1.
    8880022    1    1    2    0    0  0.35154865420E+02 -0.39993972959E+03  0.16556856850E+04  0.17105187495E+04  0.15294330000E+03 0.  0.
    8880022    1    1    2    0    0 -0.35154865420E+02  0.39993972959E+03 -0.20835647602E+03  0.47748479136E+03  0.15294330000E+03 0.  0.
<mgrwt>
<rscale>  0 0.42962694E+03</rscale>
<asrwt>0</asrwt>
<pdfrwt beam="1">  1        1 0.27964098E+00 0.42962694E+03</pdfrwt>
<pdfrwt beam="2">  1       -1 0.56974948E-01 0.42962694E+03</pdfrwt>
<totfact> 0.13710763E+01</totfact>
</mgrwt>
</event>
<event>
 4    1  0.2731969E-009  0.7815163E+03  0.7818608E-02  0.9587164E-01
          1   -1    0    0  501    0  0.00000000000E+00  0.00000000000E+00  0.14022440619E+04  0.14022440619E+04  0.50400000000E-02 0. -1.
         -1   -1    0    0    0  501 -0.00000000000E+00 -0.00000000000E+00 -0.55434265913E+03  0.55434265915E+03  0.50400000000E-02 0.  1.
    8880022    1    1    2    0    0 -0.64853061118E+03  0.40839213593E+03  0.87679430548E+03  0.11745365032E+04  0.15294330000E+03 0.  0.
    8880022    1    1    2    0    0  0.64853061118E+03 -0.40839213593E+03 -0.28892902723E+02  0.78205021780E+03  0.15294330000E+03 0.  0.
<mgrwt>
<rscale>  0 0.78151631E+03</rscale>
<asrwt>0</asrwt>
<pdfrwt beam="1">  1        1 0.21572985E+00 0.78151631E+03</pdfrwt>
<pdfrwt beam="2">  1       -1 0.85283487E-01 0.78151631E+03</pdfrwt>
<totfact> 0.10739099E+01</totfact>
</mgrwt>
</event>
<event>
 4    1  0.2731969E-009  0.4390076E+03  0.7818608E-02  0.1031052E+00
          1   -1    0    0  501    0  0.00000000000E+00  0.00000000000E+00  0.22226944430E+04  0.22226944430E+04  0.50400000000E-02 0. -1.
         -1   -1    0    0    0  501 -0.00000000000E+00 -0.00000000000E+00 -0.19151070222E+03  0.19151070228E+03  0.50400000000E-02 0.  1.
    8880022    1    1    2    0    0  0.36746654633E+03  0.18521443865E+03  0.12263242752E+03  0.45581401497E+03  0.15294330000E+03 0.  0.
    8880022    1    1    2    0    0 -0.36746654633E+03 -0.18521443865E+03  0.19085513133E+04  0.19583911303E+04  0.15294330000E+03 0. -1.
<mgrwt>
<rscale>  0 0.43900764E+03</rscale>
<asrwt>0</asrwt>
<pdfrwt beam="1">  1        1 0.34195296E+00 0.43900764E+03</pdfrwt>
<pdfrwt beam="2">  1       -1 0.29463188E-01 0.43900764E+03</pdfrwt>
<totfact> 0.24430208E+01</totfact>
</mgrwt>
</event>
<event>
 4    1  0.2731969E-009  0.3152631E+03  0.7818608E-02  0.1077850E+00
          1   -1    0    0  501    0  0.00000000000E+00  0.00000000000E+00  0.23712150824E+04  0.23712150824E+04  0.50400000000E-02 0. -1.
         -1   -1    0    0    0  501 -0.00000000000E+00 -0.00000000000E+00 -0.15317856623E+03  0.15317856631E+03  0.50400000000E-02 0.  1.
    8880022    1    1    2    0    0 -0.27567904543E+03  0.49559243347E+00  0.33287822707E+02  0.31701563661E+03  0.15294330000E+03 0.  0.
    8880022    1    1    2    0    0  0.27567904543E+03 -0.49559243347E+00  0.21847486935E+04  0.22073780121E+04  0.15294330000E+03 0.  0.
<mgrwt>
<rscale>  0 0.31526312E+03</rscale>
<asrwt>0</asrwt>
<pdfrwt beam="1">  1        1 0.36480232E+00 0.31526312E+03</pdfrwt>
<pdfrwt beam="2">  1       -1 0.23565933E-01 0.31526312E+03</pdfrwt>
<totfact> 0.29451164E+01</totfact>
</mgrwt>
</event>
<event>
 4    1  0.2731969E-009  0.2193569E+04  0.7818608E-02  0.8521110E-01
         -1   -1    0    0    0  501 -0.00000000000E+00  0.00000000000E+00  0.26616941984E+04  0.26616941984E+04  0.50400000000E-02 0.  1.
          1   -1    0    0  501    0  0.00000000000E+00 -0.00000000000E+00 -0.21742282707E+04  0.21742282707E+04  0.50400000000E-02 0. -1.
    8880022    1    1    2    0    0  0.10335883099E+04 -0.19287421926E+04 -0.74894038768E+03  0.23178987461E+04  0.15294330000E+03 0.  0.
    8880022    1    1    2    0    0 -0.10335883099E+04  0.19287421926E+04  0.12364063154E+04  0.25180237230E+04  0.15294330000E+03 0.  0.
<mgrwt>
<rscale>  0 0.21935685E+04</rscale>
<asrwt>0</asrwt>
<pdfrwt beam="1">  1        1 0.33449666E+00 0.21935685E+04</pdfrwt>
<pdfrwt beam="2">  1       -1 0.40949141E+00 0.21935685E+04</pdfrwt>
<totfact> 0.12112979E-02</totfact>
</mgrwt>
</event>
<event>
 4    1  0.2731969E-009  0.1461313E+04  0.7818608E-02  0.8910595E-01
          1   -1    0    0  501    0  0.00000000000E+00  0.00000000000E+00  0.35051455582E+04  0.35051455582E+04  0.50400000000E-02 0. -1.
         -1   -1    0    0    0  501 -0.00000000000E+00 -0.00000000000E+00 -0.11417568815E+04  0.11417568815E+04  0.50400000000E-02 0.  1.
    8880022    1    1    2    0    0  0.61915652700E+03 -0.13147963347E+04  0.27684789115E+04  0.31304810082E+04  0.15294330000E+03 0.  0.
    8880022    1    1    2    0    0 -0.61915652700E+03  0.13147963347E+04 -0.40509023482E+03  0.15164214315E+04  0.15294330000E+03 0.  0.
<mgrwt>
<rscale>  0 0.14613131E+04</rscale>
<asrwt>0</asrwt>
<pdfrwt beam="1">  1        1 0.53925316E+00 0.14613131E+04</pdfrwt>
<pdfrwt beam="2">  1       -1 0.17565490E+00 0.14613131E+04</pdfrwt>
<totfact> 0.53110425E-02</totfact>
</mgrwt>
</event>
<event>
 4    1  0.2731969E-009  0.1125535E+04  0.7818608E-02  0.9180655E-01
          1   -1    0    0  501    0  0.00000000000E+00  0.00000000000E+00  0.16748705297E+04  0.16748705297E+04  0.50400000000E-02 0. -1.
         -1   -1    0    0    0  501 -0.00000000000E+00 -0.00000000000E+00 -0.91924976722E+03  0.91924976724E+03  0.50400000000E-02 0.  1.
    8880022    1    1    2    0    0  0.78299771863E+03  0.79394692743E+03 -0.16816286833E+03  0.11380279233E+04  0.15294330000E+03 0.  0.
    8880022    1    1    2    0    0 -0.78299771863E+03 -0.79394692743E+03  0.92378363080E+03  0.14560923736E+04  0.15294330000E+03 0.  0.
<mgrwt>
<rscale>  0 0.11255349E+04</rscale>
<asrwt>0</asrwt>
<pdfrwt beam="1">  1        1 0.25767239E+00 0.11255349E+04</pdfrwt>
<pdfrwt beam="2">  1       -1 0.14142304E+00 0.11255349E+04</pdfrwt>
<totfact> 0.20048416E+00</totfact>
</mgrwt>
</event>
<event>
 4    1  0.2731969E-009  0.8465148E+03  0.7818608E-02  0.9495027E-01
         -1   -1    0    0    0  501 -0.00000000000E+00  0.00000000000E+00  0.12155670510E+04  0.12155670511E+04  0.50400000000E-02 0.  1.
          1   -1    0    0  501    0  0.00000000000E+00 -0.00000000000E+00 -0.10124409448E+04  0.10124409448E+04  0.50400000000E-02 0. -1.
    8880022    1    1    2    0    0  0.64857891694E+03  0.52205465857E+03  0.82157102814E+03  0.11796466782E+04  0.15294330000E+03 0.  0.
    8880022    1    1    2    0    0 -0.64857891694E+03 -0.52205465857E+03 -0.61844492192E+03  0.10483613177E+04  0.15294330000E+03 0.  0.
<mgrwt>
<rscale>  0 0.84651481E+03</rscale>
<asrwt>0</asrwt>
<pdfrwt beam="1">  1        1 0.15576015E+00 0.84651481E+03</pdfrwt>
<pdfrwt beam="2">  1       -1 0.18701031E+00 0.84651481E+03</pdfrwt>
<totfact> 0.28130645E+00</totfact>
</mgrwt>
</event>
<event>
 4    1  0.2731969E-009  0.8993030E+03  0.7818608E-02  0.9426453E-01
         -1   -1    0    0    0  501 -0.00000000000E+00  0.00000000000E+00  0.96243012125E+03  0.96243012127E+03  0.50400000000E-02 0.  1.
          1   -1    0    0  501    0  0.00000000000E+00 -0.00000000000E+00 -0.14586230066E+04  0.14586230066E+04  0.50400000000E-02 0. -1.
    8880022    1    1    2    0    0 -0.88596303246E+03 -0.20584065356E+02 -0.10362389015E+04  0.13720557251E+04  0.15294330000E+03 0.  0.
    8880022    1    1    2    0    0  0.88596303246E+03  0.20584065356E+02  0.54004601614E+03  0.10489974029E+04  0.15294330000E+03 0.  0.
<mgrwt>
<rscale>  0 0.89930298E+03</rscale>
<asrwt>0</asrwt>
<pdfrwt beam="1">  1        1 0.22440354E+00 0.89930298E+03</pdfrwt>
<pdfrwt beam="2">  1       -1 0.14806617E+00 0.89930298E+03</pdfrwt>
<totfact> 0.25749213E+00</totfact>
</mgrwt>
</event>
<event>
 4    1  0.2731969E-009  0.4335686E+03  0.7818608E-02  0.1032739E+00
          1   -1    0    0  501    0  0.00000000000E+00  0.00000000000E+00  0.38675497534E+04  0.38675497534E+04  0.50400000000E-02 0. -1.
         -1   -1    0    0    0  501 -0.00000000000E+00 -0.00000000000E+00 -0.10990390224E+03  0.10990390236E+03  0.50400000000E-02 0.  1.
    8880022    1    1    2    0    0 -0.30416419661E+03 -0.26846639636E+03  0.39358709537E+03  0.58557025124E+03  0.15294330000E+03 0.  0.
    8880022    1    1    2    0    0  0.30416419661E+03  0.26846639636E+03  0.33640587558E+04  0.33918834046E+04  0.15294330000E+03 0.  0.
<mgrwt>
<rscale>  0 0.43356858E+03</rscale>
<asrwt>0</asrwt>
<pdfrwt beam="1">  1        1 0.59500753E+00 0.43356858E+03</pdfrwt>
<pdfrwt beam="2">  1       -1 0.16908296E-01 0.43356858E+03</pdfrwt>
<totfact> 0.40048368E+00</totfact>
</mgrwt>
</event>
<event>
 4    1  0.2731969E-009  0.8218773E+03  0.7818608E-02  0.9528880E-01
          1   -1    0    0  501    0  0.00000000000E+00  0.00000000000E+00  0.13332258268E+04  0.13332258268E+04  0.50400000000E-02 0. -1.
         -1   -1    0    0    0  501 -0.00000000000E+00 -0.00000000000E+00 -0.15988036698E+04  0.15988036698E+04  0.50400000000E-02 0.  1.
    8880022    1    1    2    0    0  0.41791072329E+02 -0.80643915705E+03  0.10788748966E+04  0.13562644666E+04  0.15294330000E+03 0.  0.
    8880022    1    1    2    0    0 -0.41791072329E+02  0.80643915705E+03 -0.13444527396E+04  0.15757650300E+04  0.15294330000E+03 0.  0.
<mgrwt>
<rscale>  0 0.82187728E+03</rscale>
<asrwt>0</asrwt>
<pdfrwt beam="1">  1        1 0.20511167E+00 0.82187728E+03</pdfrwt>
<pdfrwt beam="2">  1       -1 0.24596980E+00 0.82187728E+03</pdfrwt>
<totfact> 0.66098111E-01</totfact>
</mgrwt>
</event>
<event>
 4    1  0.2731969E-009  0.8725277E+03  0.7818608E-02  0.9460590E-01
          1   -1    0    0  501    0  0.00000000000E+00  0.00000000000E+00  0.15321837081E+04  0.15321837081E+04  0.50400000000E-02 0. -1.
         -1   -1    0    0    0  501 -0.00000000000E+00 -0.00000000000E+00 -0.15997353495E+04  0.15997353495E+04  0.50400000000E-02 0.  1.
    8880022    1    1    2    0    0 -0.59316517415E+03  0.62134365733E+03  0.12664435438E+04  0.15379153966E+04  0.15294330000E+03 0.  0.
    8880022    1    1    2    0    0  0.59316517415E+03 -0.62134365733E+03 -0.13339951852E+04  0.15940036611E+04  0.15294330000E+03 0.  0.
<mgrwt>
<rscale>  0 0.87252766E+03</rscale>
<asrwt>0</asrwt>
<pdfrwt beam="1">  1        1 0.23572057E+00 0.87252766E+03</pdfrwt>
<pdfrwt beam="2">  1       -1 0.24611313E+00 0.87252766E+03</pdfrwt>
<totfact> 0.47523579E-01</totfact>
</mgrwt>
</event>
<event>
 4    1  0.2731969E-009  0.1493137E+04  0.7818608E-02  0.8889030E-01
          1   -1    0    0  501    0  0.00000000000E+00  0.00000000000E+00  0.12102749043E+04  0.12102749043E+04  0.50400000000E-02 0. -1.
         -1   -1    0    0    0  501 -0.00000000000E+00 -0.00000000000E+00 -0.20583804849E+04  0.20583804849E+04  0.50400000000E-02 0.  1.
    8880022    1    1    2    0    0 -0.80612940779E+03 -0.12474860220E+04 -0.95380951358E+03  0.17717816565E+04  0.15294330000E+03 0.  0.
    8880022    1    1    2    0    0  0.80612940779E+03  0.12474860220E+04  0.10570393302E+03  0.14968737327E+04  0.15294330000E+03 0.  0.
<mgrwt>
<rscale>  0 0.14931368E+04</rscale>
<asrwt>0</asrwt>
<pdfrwt beam="1">  1        1 0.18619614E+00 0.14931368E+04</pdfrwt>
<pdfrwt beam="2">  1       -1 0.31667392E+00 0.14931368E+04</pdfrwt>
<totfact> 0.25657906E-01</totfact>
</mgrwt>
</event>
<event>
 4    1  0.2731969E-009  0.8655856E+03  0.7818608E-02  0.9469654E-01
          1   -1    0    0  501    0  0.00000000000E+00  0.00000000000E+00  0.23304376656E+04  0.23304376656E+04  0.50400000000E-02 0. -1.
         -1   -1    0    0    0  501 -0.00000000000E+00 -0.00000000000E+00 -0.10602456725E+04  0.10602456725E+04  0.50400000000E-02 0.  1.
    8880022    1    1    2    0    0 -0.25857562245E+03 -0.81177918208E+03  0.20502415529E+04  0.22254727298E+04  0.15294330000E+03 0.  0.
    8880022    1    1    2    0    0  0.25857562245E+03  0.81177918208E+03 -0.78004955980E+03  0.11652106083E+04  0.15294330000E+03 0.  0.
<mgrwt>
<rscale>  0 0.86558561E+03</rscale>
<asrwt>0</asrwt>
<pdfrwt beam="1">  1        1 0.35852887E+00 0.86558561E+03</pdfrwt>
<pdfrwt beam="2">  1       -1 0.16311472E+00 0.86558561E+03</pdfrwt>
<totfact> 0.51155948E-01</totfact>
</mgrwt>
</event>
<event>
 4    1  0.2731969E-009  0.8353515E+03  0.7818608E-02  0.9510211E-01
          1   -1    0    0  501    0  0.00000000000E+00  0.00000000000E+00  0.33716396537E+04  0.33716396537E+04  0.50400000000E-02 0. -1.
         -1   -1    0    0    0  501 -0.00000000000E+00 -0.00000000000E+00 -0.52798805373E+03  0.52798805375E+03  0.50400000000E-02 0.  1.
    8880022    1    1    2    0    0 -0.19542366499E+03  0.79764033797E+03 -0.98543389812E+02  0.84114384637E+03  0.15294330000E+03 0.  0.
    8880022    1    1    2    0    0  0.19542366499E+03 -0.79764033797E+03  0.29421949898E+04  0.30584838611E+04  0.15294330000E+03 0.  0.
<mgrwt>
<rscale>  0 0.83535153E+03</rscale>
<asrwt>0</asrwt>
<pdfrwt beam="1">  1        1 0.51871381E+00 0.83535153E+03</pdfrwt>
<pdfrwt beam="2">  1       -1 0.81228929E-01 0.83535153E+03</pdfrwt>
<totfact> 0.50874159E-01</totfact>
</mgrwt>
</event>
<event>
 4    1  0.2731969E-009  0.1478118E+04  0.7818608E-02  0.8899136E-01
         -1   -1    0    0    0  501 -0.00000000000E+00  0.00000000000E+00  0.10843172854E+04  0.10843172854E+04  0.50400000000E-02 0.  1.
          1   -1    0    0  501    0  0.00000000000E+00 -0.00000000000E+00 -0.29370991557E+04  0.29370991557E+04  0.50400000000E-02 0. -1.
    8880022    1    1    2    0    0  0.14622877135E+04 -0.15217372472E+03  0.20026882004E+03  0.14916237639E+04  0.15294330000E+03 0.  0.
    8880022    1    1    2    0    0 -0.14622877135E+04  0.15217372472E+03 -0.20530506904E+04  0.25297926772E+04  0.15294330000E+03 0.  0.
<mgrwt>
<rscale>  0 0.14781183E+04</rscale>
<asrwt>0</asrwt>
<pdfrwt beam="1">  1        1 0.45186140E+00 0.14781183E+04</pdfrwt>
<pdfrwt beam="2">  1       -1 0.16681805E+00 0.14781183E+04</pdfrwt>
<totfact> 0.16433922E-01</totfact>
</mgrwt>
</event>
<event>
 4    1  0.2731969E-009  0.2705681E+03  0.7818608E-02  0.1100955E+00
          1   -1    0    0  501    0  0.00000000000E+00  0.00000000000E+00  0.54106754105E+03  0.54106754107E+03  0.50400000000E-02 0. -1.
         -1   -1    0    0    0  501 -0.00000000000E+00 -0.00000000000E+00 -0.55424907305E+03  0.55424907308E+03  0.50400000000E-02 0.  1.
    8880022    1    1    2    0    0  0.18152435931E+03  0.12986273892E+03  0.46955200706E+03  0.54192819112E+03  0.15294330000E+03 0.  0.
    8880022    1    1    2    0    0 -0.18152435931E+03 -0.12986273892E+03 -0.48273353907E+03  0.55338842302E+03  0.15294330000E+03 0.  1.
<mgrwt>
<rscale>  0 0.27056806E+03</rscale>
<asrwt>0</asrwt>
<pdfrwt beam="1">  1        1 0.83241160E-01 0.27056806E+03</pdfrwt>
<pdfrwt beam="2">  1       -1 0.85269088E-01 0.27056806E+03</pdfrwt>
<totfact> 0.58710243E+01</totfact>
</mgrwt>
</event>
<event>
 4    1  0.2731969E-009  0.7300646E+03  0.7818608E-02  0.9667156E-01
         -1   -1    0    0    0  501 -0.00000000000E+00  0.00000000000E+00  0.36913586374E+03  0.36913586377E+03  0.50400000000E-02 0.  1.
          1   -1    0    0  501    0  0.00000000000E+00 -0.00000000000E+00 -0.27008231080E+04  0.27008231080E+04  0.50400000000E-02 0. -1.
    8880022    1    1    2    0    0  0.49949341487E+03 -0.51000880674E+03 -0.22129946248E+04  0.23303088887E+04  0.15294330000E+03 0. -1.
    8880022    1    1    2    0    0 -0.49949341487E+03  0.51000880674E+03 -0.11869261947E+03  0.73965008307E+03  0.15294330000E+03 0.  0.
<mgrwt>
<rscale>  0 0.73006459E+03</rscale>
<asrwt>0</asrwt>
<pdfrwt beam="1">  1        1 0.41551123E+00 0.73006459E+03</pdfrwt>
<pdfrwt beam="2">  1       -1 0.56790135E-01 0.73006459E+03</pdfrwt>
<totfact> 0.32896653E+00</totfact>
</mgrwt>
</event>
<event>
 4    1  0.2731969E-009  0.1056369E+04  0.7818608E-02  0.9248793E-01
         -1   -1    0    0    0  501 -0.00000000000E+00  0.00000000000E+00  0.12074792690E+04  0.12074792690E+04  0.50400000000E-02 0.  1.
          1   -1    0    0  501    0  0.00000000000E+00 -0.00000000000E+00 -0.18326682677E+04  0.18326682677E+04  0.50400000000E-02 0. -1.
    8880022    1    1    2    0    0 -0.42287186865E+03 -0.95587813083E+03  0.75765480302E+03  0.12999831045E+04  0.15294330000E+03 0.  0.
    8880022    1    1    2    0    0  0.42287186865E+03  0.95587813083E+03 -0.13828438017E+04  0.17401644322E+04  0.15294330000E+03 0.  0.
<mgrwt>
<rscale>  0 0.10563689E+04</rscale>
<asrwt>0</asrwt>
<pdfrwt beam="1">  1        1 0.28194896E+00 0.10563689E+04</pdfrwt>
<pdfrwt beam="2">  1       -1 0.18576604E+00 0.10563689E+04</pdfrwt>
<totfact> 0.73347200E-01</totfact>
</mgrwt>
</event>
<event>
 4    1  0.2731969E-009  0.1059058E+04  0.7818608E-02  0.9246042E-01
          1   -1    0    0  501    0  0.00000000000E+00  0.00000000000E+00  0.12221743188E+04  0.12221743188E+04  0.50400000000E-02 0. -1.
         -1   -1    0    0    0  501 -0.00000000000E+00 -0.00000000000E+00 -0.20772158984E+04  0.20772158984E+04  0.50400000000E-02 0.  1.
    8880022    1    1    2    0    0 -0.56215660643E+03  0.88441630631E+03 -0.16600550347E+04  0.19691080783E+04  0.15294330000E+03 0.  0.
    8880022    1    1    2    0    0  0.56215660643E+03 -0.88441630631E+03  0.80501345514E+03  0.13302821389E+04  0.15294330000E+03 0.  0.
<mgrwt>
<rscale>  0 0.10590580E+04</rscale>
<asrwt>0</asrwt>
<pdfrwt beam="1">  1        1 0.18802682E+00 0.10590580E+04</pdfrwt>
<pdfrwt beam="2">  1       -1 0.31957168E+00 0.10590580E+04</pdfrwt>
<totfact> 0.25546167E-01</totfact>
</mgrwt>
</event>
<event>
 4    1  0.2731969E-009  0.1588746E+04  0.7818608E-02  0.8827492E-01
          1   -1    0    0  501    0  0.00000000000E+00  0.00000000000E+00  0.24182938508E+04  0.24182938508E+04  0.50400000000E-02 0. -1.
         -1   -1    0    0    0  501 -0.00000000000E+00 -0.00000000000E+00 -0.13572338060E+04  0.13572338061E+04  0.50400000000E-02 0.  1.
    8880022    1    1    2    0    0 -0.74913768973E+02 -0.15795920406E+04 -0.37670958040E+03  0.16327966342E+04  0.15294330000E+03 0.  0.
    8880022    1    1    2    0    0  0.74913768973E+02  0.15795920406E+04  0.14377696252E+04  0.21427310227E+04  0.15294330000E+03 0.  0.
<mgrwt>
<rscale>  0 0.15887463E+04</rscale>
<asrwt>0</asrwt>
<pdfrwt beam="1">  1        1 0.37204520E+00 0.15887463E+04</pdfrwt>
<pdfrwt beam="2">  1       -1 0.20880520E+00 0.15887463E+04</pdfrwt>
<totfact> 0.18898840E-01</totfact>
</mgrwt>
</event>
<event>
 4    1  0.2731969E-009  0.6922583E+03  0.7818608E-02  0.9730564E-01
         -1   -1    0    0    0  501 -0.00000000000E+00  0.00000000000E+00  0.71501160650E+03  0.71501160652E+03  0.50400000000E-02 0.  1.
          1   -1    0    0  501    0  0.00000000000E+00 -0.00000000000E+00 -0.79411558451E+03  0.79411558453E+03  0.50400000000E-02 0. -1.
    8880022    1    1    2    0    0  0.58753771017E+03  0.33260986281E+03 -0.33758617190E+03  0.77018566475E+03  0.15294330000E+03 0.  0.
    8880022    1    1    2    0    0 -0.58753771017E+03 -0.33260986281E+03  0.25848219389E+03  0.73894152630E+03  0.15294330000E+03 0.  0.
<mgrwt>
<rscale>  0 0.69225829E+03</rscale>
<asrwt>0</asrwt>
<pdfrwt beam="1">  1        1 0.12217163E+00 0.69225829E+03</pdfrwt>
<pdfrwt beam="2">  1       -1 0.11000179E+00 0.69225829E+03</pdfrwt>
<totfact> 0.17680559E+01</totfact>
</mgrwt>
</event>
<event>
 4    1  0.2731969E-009  0.2011267E+04  0.7818608E-02  0.8601371E-01
         -1   -1    0    0    0  501 -0.00000000000E+00  0.00000000000E+00  0.19807288893E+04  0.19807288893E+04  0.50400000000E-02 0.  1.
          1   -1    0    0  501    0  0.00000000000E+00 -0.00000000000E+00 -0.25505641189E+04  0.25505641189E+04  0.50400000000E-02 0. -1.
    8880022    1    1    2    0    0 -0.17207611114E+04 -0.10299447907E+04 -0.12963308903E+04  0.23928373335E+04  0.15294330000E+03 0.  0.
    8880022    1    1    2    0    0  0.17207611114E+04  0.10299447907E+04  0.72649566072E+03  0.21384556747E+04  0.15294330000E+03 0.  0.
<mgrwt>
<rscale>  0 0.20112674E+04</rscale>
<asrwt>0</asrwt>
<pdfrwt beam="1">  1        1 0.39239448E+00 0.20112674E+04</pdfrwt>
<pdfrwt beam="2">  1       -1 0.30472752E+00 0.20112674E+04</pdfrwt>
<totfact> 0.34074848E-02</totfact>
</mgrwt>
</event>
<event>
 4    1  0.2731969E-009  0.1868978E+04  0.7818608E-02  0.8670454E-01
          1   -1    0    0  501    0  0.00000000000E+00  0.00000000000E+00  0.46616767785E+04  0.46616767785E+04  0.50400000000E-02 0. -1.
         -1   -1    0    0    0  501 -0.00000000000E+00 -0.00000000000E+00 -0.10825509682E+04  0.10825509682E+04  0.50400000000E-02 0.  1.
    8880022    1    1    2    0    0 -0.38901413716E+03  0.18216355492E+04  0.19606585950E+03  0.18792342982E+04  0.15294330000E+03 0.  0.
    8880022    1    1    2    0    0  0.38901413716E+03 -0.18216355492E+04  0.33830599509E+04  0.38649934485E+04  0.15294330000E+03 0.  0.
<mgrwt>
<rscale>  0 0.18689783E+04</rscale>
<asrwt>0</asrwt>
<pdfrwt beam="1">  1        1 0.71718105E+00 0.18689783E+04</pdfrwt>
<pdfrwt beam="2">  1       -1 0.16654630E+00 0.18689783E+04</pdfrwt>
<totfact> 0.52166158E-03</totfact>
</mgrwt>
</event>
<event>
 4    1  0.2731969E-009  0.1413852E+04  0.7818608E-02  0.8943852E-01
         -1   -1    0    0    0  501 -0.00000000000E+00  0.00000000000E+00  0.12892195845E+04  0.12892195845E+04  0.50400000000E-02 0.  1.
          1   -1    0    0  501    0  0.00000000000E+00 -0.00000000000E+00 -0.22231086408E+04  0.22231086408E+04  0.50400000000E-02 0. -1.
    8880022    1    1    2    0    0  0.45523668760E+03 -0.13297912818E+04 -0.14328963425E+04  0.20129999692E+04  0.15294330000E+03 0.  0.
    8880022    1    1    2    0    0 -0.45523668760E+03  0.13297912818E+04  0.49900728612E+03  0.14993282561E+04  0.15294330000E+03 0.  0.
<mgrwt>
<rscale>  0 0.14138518E+04</rscale>
<asrwt>0</asrwt>
<pdfrwt beam="1">  1        1 0.34201671E+00 0.14138518E+04</pdfrwt>
<pdfrwt beam="2">  1       -1 0.19834147E+00 0.14138518E+04</pdfrwt>
<totfact> 0.31011036E-01</totfact>
</mgrwt>
</event>
<event>
 4    1  0.2731969E-009  0.2927869E+03  0.7818608E-02  0.1088903E+00
         -1   -1    0    0    0  501 -0.00000000000E+00  0.00000000000E+00  0.61023781113E+03  0.61023781115E+03  0.50400000000E-02 0.  1.
          1   -1    0    0  501    0  0.00000000000E+00 -0.00000000000E+00 -0.18495282833E+04  0.18495282833E+04  0.50400000000E-02 0. -1.
    8880022    1    1    2    0    0  0.31470544871E+02  0.24767343378E+03  0.56260909996E+03  0.63423432371E+03  0.15294330000E+03 0.  1.
    8880022    1    1    2    0    0 -0.31470544871E+02 -0.24767343378E+03 -0.18018995722E+04  0.18255317708E+04  0.15294330000E+03 0.  0.
<mgrwt>
<rscale>  0 0.29278692E+03</rscale>
<asrwt>0</asrwt>
<pdfrwt beam="1">  1        1 0.28454281E+00 0.29278692E+03</pdfrwt>
<pdfrwt beam="2">  1       -1 0.93882741E-01 0.29278692E+03</pdfrwt>
<totfact> 0.49390913E+00</totfact>
</mgrwt>
</event>
<event>
 4    1  0.2731969E-009  0.6604545E+03  0.7818608E-02  0.9787357E-01
          1   -1    0    0  501    0  0.00000000000E+00  0.00000000000E+00  0.17027630329E+04  0.17027630329E+04  0.50400000000E-02 0. -1.
         -1   -1    0    0    0  501 -0.00000000000E+00 -0.00000000000E+00 -0.29357849788E+03  0.29357849793E+03  0.50400000000E-02 0.  1.
    8880022    1    1    2    0    0 -0.42785939259E+03 -0.47931704157E+03  0.34829171461E+03  0.74666408622E+03  0.15294330000E+03 0.  0.
    8880022    1    1    2    0    0  0.42785939259E+03  0.47931704157E+03  0.10608928204E+04  0.12496774446E+04  0.15294330000E+03 0.  0.
<mgrwt>
<rscale>  0 0.66045449E+03</rscale>
<asrwt>0</asrwt>
<pdfrwt beam="1">  1        1 0.26196354E+00 0.66045449E+03</pdfrwt>
<pdfrwt beam="2">  1       -1 0.45165923E-01 0.66045449E+03</pdfrwt>
<totfact> 0.24208980E+01</totfact>
</mgrwt>
</event>
<event>
 4    1  0.2731969E-009  0.5162686E+03  0.7818608E-02  0.1009618E+00
         -1   -1    0    0    0  501 -0.00000000000E+00  0.00000000000E+00  0.14396262753E+04  0.14396262754E+04  0.50400000000E-02 0.  1.
          1   -1    0    0  501    0  0.00000000000E+00 -0.00000000000E+00 -0.61533498906E+03  0.61533498908E+03  0.50400000000E-02 0. -1.
    8880022    1    1    2    0    0  0.29862034913E+03 -0.39238692627E+03  0.12712584876E+04  0.13720901603E+04  0.15294330000E+03 0.  0.
    8880022    1    1    2    0    0 -0.29862034913E+03  0.39238692627E+03 -0.44696720126E+03  0.68287110412E+03  0.15294330000E+03 0.  0.
<mgrwt>
<rscale>  0 0.51626860E+03</rscale>
<asrwt>0</asrwt>
<pdfrwt beam="1">  1        1 0.94666923E-01 0.51626860E+03</pdfrwt>
<pdfrwt beam="2">  1       -1 0.22148096E+00 0.51626860E+03</pdfrwt>
<totfact> 0.38560995E+00</totfact>
</mgrwt>
</event>
<event>
 4    1  0.2731969E-009  0.2059392E+03  0.7818608E-02  0.1144823E+00
          1   -1    0    0  501    0  0.00000000000E+00  0.00000000000E+00  0.85545537152E+03  0.85545537153E+03  0.50400000000E-02 0. -1.
         -1   -1    0    0    0  501 -0.00000000000E+00 -0.00000000000E+00 -0.25073077603E+03  0.25073077608E+03  0.50400000000E-02 0.  1.
    8880022    1    1    2    0    0 -0.10003938979E+03  0.94928534401E+02 -0.19304047329E+03  0.28226863711E+03  0.15294330000E+03 0.  1.
    8880022    1    1    2    0    0  0.10003938979E+03 -0.94928534401E+02  0.79776506877E+03  0.82391751051E+03  0.15294330000E+03 0.  0.
<mgrwt>
<rscale>  0 0.20593921E+03</rscale>
<asrwt>0</asrwt>
<pdfrwt beam="1">  1        1 0.13160852E+00 0.20593921E+03</pdfrwt>
<pdfrwt beam="2">  1       -1 0.38573966E-01 0.20593921E+03</pdfrwt>
<totfact> 0.14011891E+02</totfact>
</mgrwt>
</event>
<event>
 4    1  0.2731969E-009  0.4829818E+03  0.7818608E-02  0.1018319E+00
         -1   -1    0    0    0  501 -0.00000000000E+00  0.00000000000E+00  0.11581240193E+04  0.11581240193E+04  0.50400000000E-02 0.  1.
          1   -1    0    0  501    0  0.00000000000E+00 -0.00000000000E+00 -0.76712689051E+03  0.76712689053E+03  0.50400000000E-02 0. -1.
    8880022    1    1    2    0    0  0.28439789079E+03 -0.35916231080E+03 -0.63114596675E+03  0.79474310953E+03  0.15294330000E+03 0.  0.
    8880022    1    1    2    0    0 -0.28439789079E+03  0.35916231080E+03  0.10221430955E+04  0.11305078003E+04  0.15294330000E+03 0.  0.
<mgrwt>
<rscale>  0 0.48298176E+03</rscale>
<asrwt>0</asrwt>
<pdfrwt beam="1">  1        1 0.11801952E+00 0.48298176E+03</pdfrwt>
<pdfrwt beam="2">  1       -1 0.17817292E+00 0.48298176E+03</pdfrwt>
<totfact> 0.55175435E+00</totfact>
</mgrwt>
</event>
<event>
 4    1  0.2731969E-009  0.7496316E+03  0.7818608E-02  0.9635929E-01
         -1   -1    0    0    0  501 -0.00000000000E+00  0.00000000000E+00  0.52484760499E+03  0.52484760502E+03  0.50400000000E-02 0.  1.
          1   -1    0    0  501    0  0.00000000000E+00 -0.00000000000E+00 -0.12047680694E+04  0.12047680694E+04  0.50400000000E-02 0. -1.
    8880022    1    1    2    0    0  0.73385657855E+03  0.32151796748E+01 -0.51456293574E+02  0.75139551398E+03  0.15294330000E+03 0.  0.
    8880022    1    1    2    0    0 -0.73385657855E+03 -0.32151796748E+01 -0.62846417081E+03  0.97822016043E+03  0.15294330000E+03 0.  0.
<mgrwt>
<rscale>  0 0.74963156E+03</rscale>
<asrwt>0</asrwt>
<pdfrwt beam="1">  1        1 0.18534893E+00 0.74963156E+03</pdfrwt>
<pdfrwt beam="2">  1       -1 0.80745786E-01 0.74963156E+03</pdfrwt>
<totfact> 0.16732085E+01</totfact>
</mgrwt>
</event>
<event>
 4    1  0.2731969E-009  0.3967624E+03  0.7818608E-02  0.1044907E+00
          1   -1    0    0  501    0  0.00000000000E+00  0.00000000000E+00  0.46817413697E+03  0.46817413699E+03  0.50400000000E-02 0. -1.
         -1   -1    0    0    0  501 -0.00000000000E+00 -0.00000000000E+00 -0.17890674061E+04  0.17890674061E+04  0.50400000000E-02 0.  1.
    8880022    1    1    2    0    0  0.30780133327E+03 -0.19820979115E+03  0.35660077950E+03  0.53346466708E+03  0.15294330000E+03 0.  0.
    8880022    1    1    2    0    0 -0.30780133327E+03  0.19820979115E+03 -0.16774940486E+04  0.17237768760E+04  0.15294330000E+03 0.  0.
<mgrwt>
<rscale>  0 0.39676244E+03</rscale>
<asrwt>0</asrwt>
<pdfrwt beam="1">  1        1 0.72026792E-01 0.39676244E+03</pdfrwt>
<pdfrwt beam="2">  1       -1 0.27524113E+00 0.39676244E+03</pdfrwt>
<totfact> 0.26276058E+00</totfact>
</mgrwt>
</event>
<event>
 4    1  0.2731969E-009  0.4619179E+03  0.7818608E-02  0.1024226E+00
         -1   -1    0    0    0  501 -0.00000000000E+00  0.00000000000E+00  0.14800367598E+04  0.14800367598E+04  0.50400000000E-02 0.  1.
          1   -1    0    0  501    0  0.00000000000E+00 -0.00000000000E+00 -0.40284053640E+03  0.40284053643E+03  0.50400000000E-02 0. -1.
    8880022    1    1    2    0    0  0.41352023056E+03  0.13775904408E+03 -0.21580568103E+03  0.50984338800E+03  0.15294330000E+03 0.  0.
    8880022    1    1    2    0    0 -0.41352023056E+03 -0.13775904408E+03  0.12930019044E+04  0.13730339082E+04  0.15294330000E+03 0.  0.
<mgrwt>
<rscale>  0 0.46191795E+03</rscale>
<asrwt>0</asrwt>
<pdfrwt beam="1">  1        1 0.61975467E-01 0.46191795E+03</pdfrwt>
<pdfrwt beam="2">  1       -1 0.22769796E+00 0.46191795E+03</pdfrwt>
<totfact> 0.63318025E+00</totfact>
</mgrwt>
</event>
<event>
 4    1  0.2731969E-009  0.4508162E+03  0.7818608E-02  0.1027479E+00
          1   -1    0    0  501    0  0.00000000000E+00  0.00000000000E+00  0.64769835056E+03  0.64769835058E+03  0.50400000000E-02 0. -1.
         -1   -1    0    0    0  501 -0.00000000000E+00 -0.00000000000E+00 -0.86838419428E+03  0.86838419430E+03  0.50400000000E-02 0.  1.
    8880022    1    1    2    0    0  0.50185828205E+02 -0.42109976013E+03 -0.71614139663E+03  0.84622324379E+03  0.15294330000E+03 0.  0.
    8880022    1    1    2    0    0 -0.50185828205E+02  0.42109976013E+03  0.49545555291E+03  0.66985930109E+03  0.15294330000E+03 0.  0.
<mgrwt>
<rscale>  0 0.45081624E+03</rscale>
<asrwt>0</asrwt>
<pdfrwt beam="1">  1        1 0.99645900E-01 0.45081624E+03</pdfrwt>
<pdfrwt beam="2">  1       -1 0.13359757E+00 0.45081624E+03</pdfrwt>
<totfact> 0.15590846E+01</totfact>
</mgrwt>
</event>
<event>
 4    1  0.2731969E-009  0.1723251E+03  0.7818608E-02  0.1175445E+00
         -1   -1    0    0    0  501 -0.00000000000E+00  0.00000000000E+00  0.22134134421E+03  0.22134134427E+03  0.50400000000E-02 0.  1.
          1   -1    0    0  501    0  0.00000000000E+00 -0.00000000000E+00 -0.25697650867E+04  0.25697650867E+04  0.50400000000E-02 0. -1.
    8880022    1    1    2    0    0  0.28214496287E+02  0.74217557503E+02  0.18442314251E+03  0.25240414448E+03  0.15294330000E+03 0.  1.
    8880022    1    1    2    0    0 -0.28214496287E+02 -0.74217557503E+02 -0.25328468850E+04  0.25387022865E+04  0.15294330000E+03 0.  0.
<mgrwt>
<rscale>  0 0.17232515E+03</rscale>
<asrwt>0</asrwt>
<pdfrwt beam="1">  1        1 0.39534845E+00 0.17232515E+03</pdfrwt>
<pdfrwt beam="2">  1       -1 0.34052516E-01 0.17232515E+03</pdfrwt>
<totfact> 0.12561540E+01</totfact>
</mgrwt>
</event>
<event>
 4    1  0.2731969E-009  0.9977892E+03  0.7818608E-02  0.9310973E-01
          1   -1    0    0  501    0  0.00000000000E+00  0.00000000000E+00  0.16542530140E+04  0.16542530140E+04  0.50400000000E-02 0. -1.
         -1   -1    0    0    0  501 -0.00000000000E+00 -0.00000000000E+00 -0.17651515720E+04  0.17651515721E+04  0.50400000000E-02 0.  1.
    8880022    1    1    2    0    0 -0.39828296004E+03  0.90197693581E+03  0.13325169558E+04  0.16646875982E+04  0.15294330000E+03 0.  0.
    8880022    1    1    2    0    0  0.39828296004E+03 -0.90197693581E+03 -0.14434155138E+04  0.17547169879E+04  0.15294330000E+03 0.  0.
<mgrwt>
<rscale>  0 0.99778924E+03</rscale>
<asrwt>0</asrwt>
<pdfrwt beam="1">  1        1 0.25450046E+00 0.99778924E+03</pdfrwt>
<pdfrwt beam="2">  1       -1 0.27156178E+00 0.99778924E+03</pdfrwt>
<totfact> 0.26253387E-01</totfact>
</mgrwt>
</event>
<event>
 4    1  0.2731969E-009  0.1196700E+04  0.7818608E-02  0.9115750E-01
         -1   -1    0    0    0  501 -0.00000000000E+00  0.00000000000E+00  0.18761475141E+04  0.18761475141E+04  0.50400000000E-02 0.  1.
          1   -1    0    0  501    0  0.00000000000E+00 -0.00000000000E+00 -0.20842400427E+04  0.20842400427E+04  0.50400000000E-02 0. -1.
    8880022    1    1    2    0    0  0.11789350577E+04  0.13715854529E+03  0.14723771308E+04  0.18973630136E+04  0.15294330000E+03 0.  0.
    8880022    1    1    2    0    0 -0.11789350577E+04 -0.13715854529E+03 -0.16804696594E+04  0.20630245433E+04  0.15294330000E+03 0.  0.
<mgrwt>
<rscale>  0 0.11967005E+04</rscale>
<asrwt>0</asrwt>
<pdfrwt beam="1">  1        1 0.32065231E+00 0.11967005E+04</pdfrwt>
<pdfrwt beam="2">  1       -1 0.28863808E+00 0.11967005E+04</pdfrwt>
<totfact> 0.10079293E-01</totfact>
</mgrwt>
</event>
<event>
 4    1  0.2731969E-009  0.9677602E+03  0.7818608E-02  0.9344629E-01
          1   -1    0    0  501    0  0.00000000000E+00  0.00000000000E+00  0.11027058459E+04  0.11027058459E+04  0.50400000000E-02 0. -1.
         -1   -1    0    0    0  501 -0.00000000000E+00 -0.00000000000E+00 -0.13040070478E+04  0.13040070478E+04  0.50400000000E-02 0.  1.
    8880022    1    1    2    0    0  0.36688648527E+03  0.88236181263E+03  0.60991873152E+03  0.11439233250E+04  0.15294330000E+03 0.  0.
    8880022    1    1    2    0    0 -0.36688648527E+03 -0.88236181263E+03 -0.81121993345E+03  0.12627895687E+04  0.15294330000E+03 0.  0.
<mgrwt>
<rscale>  0 0.96776015E+03</rscale>
<asrwt>0</asrwt>
<pdfrwt beam="1">  1        1 0.16964705E+00 0.96776015E+03</pdfrwt>
<pdfrwt beam="2">  1       -1 0.20061647E+00 0.96776015E+03</pdfrwt>
<totfact> 0.18979171E+00</totfact>
</mgrwt>
</event>
<event>
 4    1  0.2731969E-009  0.6296795E+03  0.7818608E-02  0.9845674E-01
         -1   -1    0    0    0  501 -0.00000000000E+00  0.00000000000E+00  0.12708788743E+04  0.12708788744E+04  0.50400000000E-02 0.  1.
          1   -1    0    0  501    0  0.00000000000E+00 -0.00000000000E+00 -0.12905641813E+04  0.12905641813E+04  0.50400000000E-02 0. -1.
    8880022    1    1    2    0    0  0.49979631956E+03 -0.35115279812E+03  0.11053828441E+04  0.12721507512E+04  0.15294330000E+03 0.  0.
    8880022    1    1    2    0    0 -0.49979631956E+03  0.35115279812E+03 -0.11250681511E+04  0.12892923044E+04  0.15294330000E+03 0.  0.
<mgrwt>
<rscale>  0 0.62967952E+03</rscale>
<asrwt>0</asrwt>
<pdfrwt beam="1">  1        1 0.19854834E+00 0.62967952E+03</pdfrwt>
<pdfrwt beam="2">  1       -1 0.19551983E+00 0.62967952E+03</pdfrwt>
<totfact> 0.15959317E+00</totfact>
</mgrwt>
</event>
<event>
 4    1  0.2731969E-009  0.1035835E+04  0.7818608E-02  0.9270092E-01
          1   -1    0    0  501    0  0.00000000000E+00  0.00000000000E+00  0.28073648754E+04  0.28073648754E+04  0.50400000000E-02 0. -1.
         -1   -1    0    0    0  501 -0.00000000000E+00 -0.00000000000E+00 -0.43059763107E+03  0.43059763110E+03  0.50400000000E-02 0.  1.
    8880022    1    1    2    0    0  0.13379017155E+03 -0.10157076816E+04  0.64556831028E+03  0.12205375868E+04  0.15294330000E+03 0.  0.
    8880022    1    1    2    0    0 -0.13379017155E+03  0.10157076816E+04  0.17311989341E+04  0.20174249198E+04  0.15294330000E+03 0.  0.
<mgrwt>
<rscale>  0 0.10358347E+04</rscale>
<asrwt>0</asrwt>
<pdfrwt beam="1">  1        1 0.43190231E+00 0.10358347E+04</pdfrwt>
<pdfrwt beam="2">  1       -1 0.66245786E-01 0.10358347E+04</pdfrwt>
<totfact> 0.19372187E+00</totfact>
</mgrwt>
</event>
<event>
 4    1  0.2731969E-009  0.7665679E+03  0.7818608E-02  0.9609711E-01
         -1   -1    0    0    0  501 -0.00000000000E+00  0.00000000000E+00  0.14746330796E+04  0.14746330796E+04  0.50400000000E-02 0.  1.
          1   -1    0    0  501    0  0.00000000000E+00 -0.00000000000E+00 -0.61049315321E+03  0.61049315323E+03  0.50400000000E-02 0. -1.
    8880022    1    1    2    0    0 -0.12466284877E+03  0.74073872550E+03  0.10464445670E+04  0.12971786963E+04  0.15294330000E+03 0.  0.
    8880022    1    1    2    0    0  0.12466284877E+03 -0.74073872550E+03 -0.18230464061E+03  0.78794753653E+03  0.15294330000E+03 0.  0.
<mgrwt>
<rscale>  0 0.76656790E+03</rscale>
<asrwt>0</asrwt>
<pdfrwt beam="1">  1        1 0.93922024E-01 0.76656790E+03</pdfrwt>
<pdfrwt beam="2">  1       -1 0.22686663E+00 0.76656790E+03</pdfrwt>
<totfact> 0.34317635E+00</totfact>
</mgrwt>
</event>
<event>
 4    1  0.2731969E-009  0.5715874E+03  0.7818608E-02  0.9966172E-01
          1   -1    0    0  501    0  0.00000000000E+00  0.00000000000E+00  0.95180849996E+03  0.95180849997E+03  0.50400000000E-02 0. -1.
         -1   -1    0    0    0  501 -0.00000000000E+00 -0.00000000000E+00 -0.50694613879E+03  0.50694613882E+03  0.50400000000E-02 0.  1.
    8880022    1    1    2    0    0 -0.39952758601E+03 -0.37907552549E+03  0.63689352876E+03  0.85577191237E+03  0.15294330000E+03 0.  0.
    8880022    1    1    2    0    0  0.39952758601E+03  0.37907552549E+03 -0.19203116759E+03  0.60298272642E+03  0.15294330000E+03 0.  0.
<mgrwt>
<rscale>  0 0.57158744E+03</rscale>
<asrwt>0</asrwt>
<pdfrwt beam="1">  1        1 0.14643207E+00 0.57158744E+03</pdfrwt>
<pdfrwt beam="2">  1       -1 0.77991715E-01 0.57158744E+03</pdfrwt>
<totfact> 0.28577877E+01</totfact>
</mgrwt>
</event>
<event>
 4    1  0.2731969E-009  0.9920700E+03  0.7818608E-02  0.9317285E-01
          1   -1    0    0  501    0  0.00000000000E+00  0.00000000000E+00  0.20880439551E+04  0.20880439551E+04  0.50400000000E-02 0. -1.
         -1   -1    0    0    0  501 -0.00000000000E+00 -0.00000000000E+00 -0.13663095877E+04  0.13663095877E+04  0.50400000000E-02 0.  1.
    8880022    1    1    2    0    0  0.92314163122E+03  0.32957674905E+03  0.17587267517E+04  0.20192381596E+04  0.15294330000E+03 0.  0.
    8880022    1    1    2    0    0 -0.92314163122E+03 -0.32957674905E+03 -0.10369923844E+04  0.14351153832E+04  0.15294330000E+03 0.  0.
<mgrwt>
<rscale>  0 0.99207004E+03</rscale>
<asrwt>0</asrwt>
<pdfrwt beam="1">  1        1 0.32123753E+00 0.99207004E+03</pdfrwt>
<pdfrwt beam="2">  1       -1 0.21020148E+00 0.99207004E+03</pdfrwt>
<totfact> 0.33810300E-01</totfact>
</mgrwt>
</event>
<event>
 4    1  0.2731969E-009  0.4429096E+03  0.7818608E-02  0.1029858E+00
          1   -1    0    0  501    0  0.00000000000E+00  0.00000000000E+00  0.32823151700E+04  0.32823151700E+04  0.50400000000E-02 0. -1.
         -1   -1    0    0    0  501 -0.00000000000E+00 -0.00000000000E+00 -0.22812902967E+03  0.22812902972E+03  0.50400000000E-02 0.  1.
    8880022    1    1    2    0    0  0.36986060390E+03  0.18968510147E+03  0.19216090056E+02  0.44332630778E+03  0.15294330000E+03 0.  0.
    8880022    1    1    2    0    0 -0.36986060390E+03 -0.18968510147E+03  0.30349700502E+04  0.30671178919E+04  0.15294330000E+03 0.  0.
<mgrwt>
<rscale>  0 0.44290965E+03</rscale>
<asrwt>0</asrwt>
<pdfrwt beam="1">  1        1 0.50497153E+00 0.44290965E+03</pdfrwt>
<pdfrwt beam="2">  1       -1 0.35096776E-01 0.44290965E+03</pdfrwt>
<totfact> 0.33198999E+00</totfact>
</mgrwt>
</event>
<event>
 4    1  0.2731969E-009  0.1010994E+04  0.7818608E-02  0.9296569E-01
         -1   -1    0    0    0  501 -0.00000000000E+00  0.00000000000E+00  0.13015890319E+04  0.13015890319E+04  0.50400000000E-02 0.  1.
          1   -1    0    0  501    0  0.00000000000E+00 -0.00000000000E+00 -0.84382469710E+03  0.84382469712E+03  0.50400000000E-02 0. -1.
    8880022    1    1    2    0    0  0.56699372250E+03  0.82294275369E+03  0.51144092322E+03  0.11329960848E+04  0.15294330000E+03 0.  0.
    8880022    1    1    2    0    0 -0.56699372250E+03 -0.82294275369E+03 -0.53676588418E+02  0.10124176442E+04  0.15294330000E+03 0.  0.
<mgrwt>
<rscale>  0 0.10109937E+04</rscale>
<asrwt>0</asrwt>
<pdfrwt beam="1">  1        1 0.12981918E+00 0.10109937E+04</pdfrwt>
<pdfrwt beam="2">  1       -1 0.20024447E+00 0.10109937E+04</pdfrwt>
<totfact> 0.30472078E+00</totfact>
</mgrwt>
</event>
<event>
 4    1  0.2731969E-009  0.1256823E+04  0.7818608E-02  0.9064524E-01
         -1   -1    0    0    0  501 -0.00000000000E+00  0.00000000000E+00  0.84455063470E+03  0.84455063471E+03  0.50400000000E-02 0.  1.
          1   -1    0    0  501    0  0.00000000000E+00 -0.00000000000E+00 -0.31090733472E+04  0.31090733472E+04  0.50400000000E-02 0. -1.
    8880022    1    1    2    0    0 -0.11744530022E+04 -0.42056093039E+03 -0.23800399100E+04  0.26915038504E+04  0.15294330000E+03 0.  0.
    8880022    1    1    2    0    0  0.11744530022E+04  0.42056093039E+03  0.11551719750E+03  0.12621201315E+04  0.15294330000E+03 0.  0.
<mgrwt>
<rscale>  0 0.12568226E+04</rscale>
<asrwt>0</asrwt>
<pdfrwt beam="1">  1        1 0.47831897E+00 0.12568226E+04</pdfrwt>
<pdfrwt beam="2">  1       -1 0.12993087E+00 0.12568226E+04</pdfrwt>
<totfact> 0.24902441E-01</totfact>
</mgrwt>
</event>
<event>
 4    1  0.2731969E-009  0.1096448E+04  0.7818608E-02  0.9208661E-01
          1   -1    0    0  501    0  0.00000000000E+00  0.00000000000E+00  0.19876861768E+04  0.19876861768E+04  0.50400000000E-02 0. -1.
         -1   -1    0    0    0  501 -0.00000000000E+00 -0.00000000000E+00 -0.23867900534E+04  0.23867900534E+04  0.50400000000E-02 0.  1.
    8880022    1    1    2    0    0 -0.10515131989E+04 -0.27042038467E+03  0.16903477718E+04  0.20148137468E+04  0.15294330000E+03 0.  0.
    8880022    1    1    2    0    0  0.10515131989E+04  0.27042038467E+03 -0.20894516483E+04  0.23596624834E+04  0.15294330000E+03 0.  0.
<mgrwt>
<rscale>  0 0.10964483E+04</rscale>
<asrwt>0</asrwt>
<pdfrwt beam="1">  1        1 0.30579787E+00 0.10964483E+04</pdfrwt>
<pdfrwt beam="2">  1       -1 0.36719847E+00 0.10964483E+04</pdfrwt>
<totfact> 0.36628375E-02</totfact>
</mgrwt>
</event>
<event>
 4    1  0.2731969E-009  0.3209380E+03  0.7818608E-02  0.1075218E+00
          1   -1    0    0  501    0  0.00000000000E+00  0.00000000000E+00  0.86201992705E+03  0.86201992706E+03  0.50400000000E-02 0. -1.
         -1   -1    0    0    0  501 -0.00000000000E+00 -0.00000000000E+00 -0.30989735767E+03  0.30989735771E+03  0.50400000000E-02 0.  1.
    8880022    1    1    2    0    0 -0.17812258337E+03  0.21881935670E+03 -0.18324451711E+03  0.36956700561E+03  0.15294330000E+03 0.  0.
    8880022    1    1    2    0    0  0.17812258337E+03 -0.21881935670E+03  0.73536708649E+03  0.80235027916E+03  0.15294330000E+03 0. -1.
<mgrwt>
<rscale>  0 0.32093803E+03</rscale>
<asrwt>0</asrwt>
<pdfrwt beam="1">  1        1 0.13261845E+00 0.32093803E+03</pdfrwt>
<pdfrwt beam="2">  1       -1 0.47676517E-01 0.32093803E+03</pdfrwt>
<totfact> 0.92232165E+01</totfact>
</mgrwt>
</event>
<event>
 4    1  0.2731969E-009  0.4118721E+03  0.7818608E-02  0.1039745E+00
         -1   -1    0    0    0  501 -0.00000000000E+00  0.00000000000E+00  0.72247738861E+02  0.72247739036E+02  0.50400000000E-02 0.  1.
          1   -1    0    0  501    0  0.00000000000E+00 -0.00000000000E+00 -0.36058267155E+04  0.36058267155E+04  0.50400000000E-02 0. -1.
    8880022    1    1    2    0    0  0.97644593975E+02 -0.36974650151E+03 -0.68062314416E+03  0.79554161393E+03  0.15294330000E+03 0.  0.
    8880022    1    1    2    0    0 -0.97644593975E+02  0.36974650151E+03 -0.28529558324E+04  0.28825328406E+04  0.15294330000E+03 0.  0.
<mgrwt>
<rscale>  0 0.41187206E+03</rscale>
<asrwt>0</asrwt>
<pdfrwt beam="1">  1        1 0.55474243E+00 0.41187206E+03</pdfrwt>
<pdfrwt beam="2">  1       -1 0.11115040E-01 0.41187206E+03</pdfrwt>
<totfact> 0.12780521E+01</totfact>
</mgrwt>
</event>
<event>
 4    1  0.2731969E-009  0.6464169E+03  0.7818608E-02  0.9813526E-01
          1   -1    0    0  501    0  0.00000000000E+00  0.00000000000E+00  0.14094083036E+04  0.14094083036E+04  0.50400000000E-02 0. -1.
         -1   -1    0    0    0  501 -0.00000000000E+00 -0.00000000000E+00 -0.18400105414E+04  0.18400105414E+04  0.50400000000E-02 0.  1.
    8880022    1    1    2    0    0  0.61600521017E+03  0.12247753608E+03  0.12727704238E+04  0.14275151035E+04  0.15294330000E+03 0.  0.
    8880022    1    1    2    0    0 -0.61600521017E+03 -0.12247753608E+03 -0.17033726616E+04  0.18219037415E+04  0.15294330000E+03 0.  0.
<mgrwt>
<rscale>  0 0.64641691E+03</rscale>
<asrwt>0</asrwt>
<pdfrwt beam="1">  1        1 0.21683205E+00 0.64641691E+03</pdfrwt>
<pdfrwt beam="2">  1       -1 0.28307855E+00 0.64641691E+03</pdfrwt>
<totfact> 0.35231560E-01</totfact>
</mgrwt>
</event>
<event>
 4    1  0.2731969E-009  0.6431297E+03  0.7818608E-02  0.9819757E-01
         -1   -1    0    0    0  501 -0.00000000000E+00  0.00000000000E+00  0.20661447065E+04  0.20661447066E+04  0.50400000000E-02 0.  1.
          1   -1    0    0  501    0  0.00000000000E+00 -0.00000000000E+00 -0.59970667932E+03  0.59970667934E+03  0.50400000000E-02 0. -1.
    8880022    1    1    2    0    0 -0.60166501625E+03 -0.16799815334E+03  0.18211602781E+04  0.19313830751E+04  0.15294330000E+03 0.  0.
    8880022    1    1    2    0    0  0.60166501625E+03  0.16799815334E+03 -0.35472225085E+03  0.73446831080E+03  0.15294330000E+03 0.  0.
<mgrwt>
<rscale>  0 0.64312971E+03</rscale>
<asrwt>0</asrwt>
<pdfrwt beam="1">  1        1 0.92262565E-01 0.64312971E+03</pdfrwt>
<pdfrwt beam="2">  1       -1 0.31786842E+00 0.64312971E+03</pdfrwt>
<totfact> 0.93809738E-01</totfact>
</mgrwt>
</event>
<event>
 4    1  0.2731969E-009  0.1472174E+04  0.7818608E-02  0.8903171E-01
          1   -1    0    0  501    0  0.00000000000E+00  0.00000000000E+00  0.18177576158E+04  0.18177576158E+04  0.50400000000E-02 0. -1.
         -1   -1    0    0    0  501 -0.00000000000E+00 -0.00000000000E+00 -0.13214267004E+04  0.13214267004E+04  0.50400000000E-02 0.  1.
    8880022    1    1    2    0    0  0.10654434606E+04  0.10043572332E+04 -0.24250456687E+03  0.14920131828E+04  0.15294330000E+03 0.  0.
    8880022    1    1    2    0    0 -0.10654434606E+04 -0.10043572332E+04  0.73883548227E+03  0.16471711333E+04  0.15294330000E+03 0.  0.
<mgrwt>
<rscale>  0 0.14721735E+04</rscale>
<asrwt>0</asrwt>
<pdfrwt beam="1">  1        1 0.27965502E+00 0.14721735E+04</pdfrwt>
<pdfrwt beam="2">  1       -1 0.20329642E+00 0.14721735E+04</pdfrwt>
<totfact> 0.53693173E-01</totfact>
</mgrwt>
</event>
<event>
 4    1  0.2731969E-009  0.1483703E+04  0.7818608E-02  0.8895363E-01
         -1   -1    0    0    0  501 -0.00000000000E+00  0.00000000000E+00  0.14259351014E+04  0.14259351015E+04  0.50400000000E-02 0.  1.
          1   -1    0    0  501    0  0.00000000000E+00 -0.00000000000E+00 -0.18793192200E+04  0.18793192200E+04  0.50400000000E-02 0. -1.
    8880022    1    1    2    0    0 -0.14643764271E+04  0.18326193501E+03 -0.92496612381E+03  0.17484099177E+04  0.15294330000E+03 0.  0.
    8880022    1    1    2    0    0  0.14643764271E+04 -0.18326193501E+03  0.47158200525E+03  0.15568444038E+04  0.15294330000E+03 0.  0.
<mgrwt>
<rscale>  0 0.14837031E+04</rscale>
<asrwt>0</asrwt>
<pdfrwt beam="1">  1        1 0.28912603E+00 0.14837031E+04</pdfrwt>
<pdfrwt beam="2">  1       -1 0.21937463E+00 0.14837031E+04</pdfrwt>
<totfact> 0.37846521E-01</totfact>
</mgrwt>
</event>
<event>
 4    1  0.2731969E-009  0.6831432E+03  0.7818608E-02  0.9746502E-01
         -1   -1    0    0    0  501 -0.00000000000E+00  0.00000000000E+00  0.51902424229E+03  0.51902424232E+03  0.50400000000E-02 0.  1.
          1   -1    0    0  501    0  0.00000000000E+00 -0.00000000000E+00 -0.11725882265E+04  0.11725882265E+04  0.50400000000E-02 0. -1.
    8880022    1    1    2    0    0 -0.45128490273E+03 -0.48952518424E+03  0.81651784033E+02  0.68800554961E+03  0.15294330000E+03 0.  0.
    8880022    1    1    2    0    0  0.45128490273E+03  0.48952518424E+03 -0.73521576826E+03  0.10036069192E+04  0.15294330000E+03 0.  0.
<mgrwt>
<rscale>  0 0.68314319E+03</rscale>
<asrwt>0</asrwt>
<pdfrwt beam="1">  1        1 0.18039819E+00 0.68314319E+03</pdfrwt>
<pdfrwt beam="2">  1       -1 0.79849883E-01 0.68314319E+03</pdfrwt>
<totfact> 0.18242486E+01</totfact>
</mgrwt>
</event>
<event>
 4    1  0.2731969E-009  0.2970389E+03  0.7818608E-02  0.1086730E+00
          1   -1    0    0  501    0  0.00000000000E+00  0.00000000000E+00  0.13898375640E+03  0.13898375649E+03  0.50400000000E-02 0. -1.
         -1   -1    0    0    0  501 -0.00000000000E+00 -0.00000000000E+00 -0.16835564069E+04  0.16835564069E+04  0.50400000000E-02 0.  1.
    8880022    1    1    2    0    0 -0.19292862770E+03  0.16618960051E+03 -0.14915081176E+04  0.15207986575E+04  0.15294330000E+03 0.  0.
    8880022    1    1    2    0    0  0.19292862770E+03 -0.16618960051E+03 -0.53064532851E+02  0.30174150587E+03  0.15294330000E+03 0. -1.
<mgrwt>
<rscale>  0 0.29703887E+03</rscale>
<asrwt>0</asrwt>
<pdfrwt beam="1">  1        1 0.21382118E-01 0.29703887E+03</pdfrwt>
<pdfrwt beam="2">  1       -1 0.25900866E+00 0.29703887E+03</pdfrwt>
<totfact> 0.16284335E+01</totfact>
</mgrwt>
</event>
<event>
 4    1  0.2731969E-009  0.6688886E+03  0.7818608E-02  0.9771968E-01
         -1   -1    0    0    0  501 -0.00000000000E+00  0.00000000000E+00  0.17410173292E+04  0.17410173292E+04  0.50400000000E-02 0.  1.
          1   -1    0    0  501    0  0.00000000000E+00 -0.00000000000E+00 -0.34251665047E+03  0.34251665050E+03  0.50400000000E-02 0. -1.
    8880022    1    1    2    0    0  0.63053169802E+03 -0.16263474874E+03  0.17865756690E+03  0.69233695765E+03  0.15294330000E+03 0. -1.
    8880022    1    1    2    0    0 -0.63053169802E+03  0.16263474874E+03  0.12198431118E+04  0.13911970221E+04  0.15294330000E+03 0.  0.
<mgrwt>
<rscale>  0 0.66888858E+03</rscale>
<asrwt>0</asrwt>
<pdfrwt beam="1">  1        1 0.52694869E-01 0.66888858E+03</pdfrwt>
<pdfrwt beam="2">  1       -1 0.26784882E+00 0.66888858E+03</pdfrwt>
<totfact> 0.41516861E+00</totfact>
</mgrwt>
</event>
<event>
 4    1  0.2731969E-009  0.5483492E+03  0.7818608E-02  0.1001877E+00
          1   -1    0    0  501    0  0.00000000000E+00  0.00000000000E+00  0.32240610465E+03  0.32240610469E+03  0.50400000000E-02 0. -1.
         -1   -1    0    0    0  501 -0.00000000000E+00 -0.00000000000E+00 -0.12021735809E+04  0.12021735809E+04  0.50400000000E-02 0.  1.
    8880022    1    1    2    0    0 -0.61413807977E+02  0.52299475416E+03 -0.78932944685E+02  0.55400111142E+03  0.15294330000E+03 0.  0.
    8880022    1    1    2    0    0  0.61413807977E+02 -0.52299475416E+03 -0.80083453156E+03  0.97057857417E+03  0.15294330000E+03 0.  0.
<mgrwt>
<rscale>  0 0.54834918E+03</rscale>
<asrwt>0</asrwt>
<pdfrwt beam="1">  1        1 0.49600940E-01 0.54834918E+03</pdfrwt>
<pdfrwt beam="2">  1       -1 0.18494978E+00 0.54834918E+03</pdfrwt>
<totfact> 0.16136529E+01</totfact>
</mgrwt>
</event>
<event>
 4    1  0.2731969E-009  0.5090855E+03  0.7818608E-02  0.1011434E+00
          1   -1    0    0  501    0  0.00000000000E+00  0.00000000000E+00  0.64499019049E+03  0.64499019051E+03  0.50400000000E-02 0. -1.
         -1   -1    0    0    0  501 -0.00000000000E+00 -0.00000000000E+00 -0.12304266312E+04  0.12304266312E+04  0.50400000000E-02 0.  1.
    8880022    1    1    2    0    0 -0.47497339996E+03 -0.10087935382E+03  0.47679296503E+03  0.69749520372E+03  0.15294330000E+03 0. -1.
    8880022    1    1    2    0    0  0.47497339996E+03  0.10087935382E+03 -0.10622294057E+04  0.11779216180E+04  0.15294330000E+03 0.  0.
<mgrwt>
<rscale>  0 0.50908548E+03</rscale>
<asrwt>0</asrwt>
<pdfrwt beam="1">  1        1 0.99229260E-01 0.50908548E+03</pdfrwt>
<pdfrwt beam="2">  1       -1 0.18929640E+00 0.50908548E+03</pdfrwt>
<totfact> 0.59429679E+00</totfact>
</mgrwt>
</event>
<event>
 4    1  0.2731969E-009  0.3484711E+03  0.7818608E-02  0.1063244E+00
         -1   -1    0    0    0  501 -0.00000000000E+00  0.00000000000E+00  0.12881494486E+04  0.12881494486E+04  0.50400000000E-02 0.  1.
          1   -1    0    0  501    0  0.00000000000E+00 -0.00000000000E+00 -0.25625422993E+04  0.25625422993E+04  0.50400000000E-02 0. -1.
    8880022    1    1    2    0    0 -0.19591866154E+03 -0.24424642014E+03 -0.25267964763E+04  0.25507121596E+04  0.15294330000E+03 0.  0.
    8880022    1    1    2    0    0  0.19591866154E+03  0.24424642014E+03  0.12524036255E+04  0.12999795883E+04  0.15294330000E+03 0.  0.
<mgrwt>
<rscale>  0 0.34847107E+03</rscale>
<asrwt>0</asrwt>
<pdfrwt beam="1">  1        1 0.39423728E+00 0.34847107E+03</pdfrwt>
<pdfrwt beam="2">  1       -1 0.19817684E+00 0.34847107E+03</pdfrwt>
<totfact> 0.23957189E-01</totfact>
</mgrwt>
</event>
<event>
 4    1  0.2731969E-009  0.7044981E+03  0.7818608E-02  0.9709571E-01
          1   -1    0    0  501    0  0.00000000000E+00  0.00000000000E+00  0.97352521000E+03  0.97352521001E+03  0.50400000000E-02 0. -1.
         -1   -1    0    0    0  501 -0.00000000000E+00 -0.00000000000E+00 -0.11806788258E+04  0.11806788258E+04  0.50400000000E-02 0.  1.
    8880022    1    1    2    0    0  0.56836938612E+03 -0.38714618050E+03 -0.91548738389E+03  0.11551773575E+04  0.15294330000E+03 0.  0.
    8880022    1    1    2    0    0 -0.56836938612E+03  0.38714618050E+03  0.70833376805E+03  0.99902667838E+03  0.15294330000E+03 0.  0.
<mgrwt>
<rscale>  0 0.70449810E+03</rscale>
<asrwt>0</asrwt>
<pdfrwt beam="1">  1        1 0.14977311E+00 0.70449810E+03</pdfrwt>
<pdfrwt beam="2">  1       -1 0.18164290E+00 0.70449810E+03</pdfrwt>
<totfact> 0.33682417E+00</totfact>
</mgrwt>
</event>
<event>
 4    1  0.2731969E-009  0.1382539E+04  0.7818608E-02  0.8966556E-01
          1   -1    0    0  501    0  0.00000000000E+00  0.00000000000E+00  0.15739797181E+04  0.15739797181E+04  0.50400000000E-02 0. -1.
         -1   -1    0    0    0  501 -0.00000000000E+00 -0.00000000000E+00 -0.13394422035E+04  0.13394422035E+04  0.50400000000E-02 0.  1.
    8880022    1    1    2    0    0 -0.11209211435E+04  0.79470651550E+03 -0.32784305660E+03  0.14208783827E+04  0.15294330000E+03 0.  0.
    8880022    1    1    2    0    0  0.11209211435E+04 -0.79470651550E+03  0.56238057123E+03  0.14925435389E+04  0.15294330000E+03 0.  0.
<mgrwt>
<rscale>  0 0.13825391E+04</rscale>
<asrwt>0</asrwt>
<pdfrwt beam="1">  1        1 0.24215072E+00 0.13825391E+04</pdfrwt>
<pdfrwt beam="2">  1       -1 0.20606803E+00 0.13825391E+04</pdfrwt>
<totfact> 0.76238376E-01</totfact>
</mgrwt>
</event>
<event>
 4    1  0.2731969E-009  0.8438421E+03  0.7818608E-02  0.9498639E-01
          1   -1    0    0  501    0  0.00000000000E+00  0.00000000000E+00  0.32885302993E+04  0.32885302993E+04  0.50400000000E-02 0. -1.
         -1   -1    0    0    0  501 -0.00000000000E+00 -0.00000000000E+00 -0.34347731725E+03  0.34347731729E+03  0.50400000000E-02 0.  1.
    8880022    1    1    2    0    0  0.81088086169E+03  0.17649364023E+03  0.25765477230E+04  0.27112114633E+04  0.15294330000E+03 0.  0.
    8880022    1    1    2    0    0 -0.81088086169E+03 -0.17649364023E+03  0.36850525903E+03  0.92079615325E+03  0.15294330000E+03 0.  0.
<mgrwt>
<rscale>  0 0.84384206E+03</rscale>
<asrwt>0</asrwt>
<pdfrwt beam="1">  1        1 0.50592774E+00 0.84384206E+03</pdfrwt>
<pdfrwt beam="2">  1       -1 0.52842664E-01 0.84384206E+03</pdfrwt>
<totfact> 0.13983300E+00</totfact>
</mgrwt>
</event>
<event>
 4    1  0.2731969E-009  0.6831408E+03  0.7818608E-02  0.9746506E-01
         -1   -1    0    0    0  501 -0.00000000000E+00  0.00000000000E+00  0.20999168252E+03  0.20999168258E+03  0.50400000000E-02 0.  1.
          1   -1    0    0  501    0  0.00000000000E+00 -0.00000000000E+00 -0.24861896386E+04  0.24861896386E+04  0.50400000000E-02 0. -1.
    8880022    1    1    2    0    0  0.33543907557E+03  0.57512638647E+03 -0.15772329375E+04  0.17188208534E+04  0.15294330000E+03 0.  0.
    8880022    1    1    2    0    0 -0.33543907557E+03 -0.57512638647E+03 -0.69896501858E+03  0.97736046781E+03  0.15294330000E+03 0.  0.
<mgrwt>
<rscale>  0 0.68314083E+03</rscale>
<asrwt>0</asrwt>
<pdfrwt beam="1">  1        1 0.38249069E+00 0.68314083E+03</pdfrwt>
<pdfrwt beam="2">  1       -1 0.32306414E-01 0.68314083E+03</pdfrwt>
<totfact> 0.13176093E+01</totfact>
</mgrwt>
</event>
<event>
 4    1  0.2731969E-009  0.7278422E+03  0.7818608E-02  0.9670768E-01
         -1   -1    0    0    0  501 -0.00000000000E+00  0.00000000000E+00  0.20346256541E+04  0.20346256541E+04  0.50400000000E-02 0.  1.
          1   -1    0    0  501    0  0.00000000000E+00 -0.00000000000E+00 -0.41070370791E+03  0.41070370794E+03  0.50400000000E-02 0. -1.
    8880022    1    1    2    0    0 -0.68829101327E+03  0.18060490047E+03  0.15516890060E+04  0.17139116294E+04  0.15294330000E+03 0.  0.
    8880022    1    1    2    0    0  0.68829101327E+03 -0.18060490047E+03  0.72232940242E+02  0.73141773269E+03  0.15294330000E+03 0.  0.
<mgrwt>
<rscale>  0 0.72784222E+03</rscale>
<asrwt>0</asrwt>
<pdfrwt beam="1">  1        1 0.63185186E-01 0.72784222E+03</pdfrwt>
<pdfrwt beam="2">  1       -1 0.31301933E+00 0.72784222E+03</pdfrwt>
<totfact> 0.16660549E+00</totfact>
</mgrwt>
</event>
<event>
 4    1  0.2731969E-009  0.4416894E+03  0.7818608E-02  0.1030230E+00
         -1   -1    0    0    0  501 -0.00000000000E+00  0.00000000000E+00  0.32094939477E+03  0.32094939481E+03  0.50400000000E-02 0.  1.
          1   -1    0    0  501    0  0.00000000000E+00 -0.00000000000E+00 -0.26921095624E+04  0.26921095624E+04  0.50400000000E-02 0. -1.
    8880022    1    1    2    0    0  0.41430360526E+03  0.70992722553E+01  0.14000322529E+03  0.46334698996E+03  0.15294330000E+03 0.  0.
    8880022    1    1    2    0    0 -0.41430360526E+03 -0.70992722553E+01 -0.25111633929E+04  0.25497119672E+04  0.15294330000E+03 0.  0.
<mgrwt>
<rscale>  0 0.44168940E+03</rscale>
<asrwt>0</asrwt>
<pdfrwt beam="1">  1        1 0.41417069E+00 0.44168940E+03</pdfrwt>
<pdfrwt beam="2">  1       -1 0.49376832E-01 0.44168940E+03</pdfrwt>
<totfact> 0.46841748E+00</totfact>
</mgrwt>
</event>
<event>
 4    1  0.2731969E-009  0.2309589E+03  0.7818608E-02  0.1125967E+00
          1   -1    0    0  501    0  0.00000000000E+00  0.00000000000E+00  0.19157396168E+03  0.19157396174E+03  0.50400000000E-02 0. -1.
         -1   -1    0    0    0  501 -0.00000000000E+00 -0.00000000000E+00 -0.74945297872E+03  0.74945297874E+03  0.50400000000E-02 0.  1.
    8880022    1    1    2    0    0  0.39922828924E+02  0.16839396123E+03 -0.65194559997E+03  0.69164664156E+03  0.15294330000E+03 0.  0.
    8880022    1    1    2    0    0 -0.39922828924E+02 -0.16839396123E+03  0.94066582929E+02  0.24938029892E+03  0.15294330000E+03 0. -1.
<mgrwt>
<rscale>  0 0.23095890E+03</rscale>
<asrwt>0</asrwt>
<pdfrwt beam="1">  1        1 0.29472918E-01 0.23095890E+03</pdfrwt>
<pdfrwt beam="2">  1       -1 0.11530046E+00 0.23095890E+03</pdfrwt>
<totfact> 0.11416593E+02</totfact>
</mgrwt>
</event>
<event>
 4    1  0.2731969E-009  0.1123726E+04  0.7818608E-02  0.9182371E-01
         -1   -1    0    0    0  501 -0.00000000000E+00  0.00000000000E+00  0.98086625563E+03  0.98086625564E+03  0.50400000000E-02 0.  1.
          1   -1    0    0  501    0  0.00000000000E+00 -0.00000000000E+00 -0.20592005322E+04  0.20592005322E+04  0.50400000000E-02 0. -1.
    8880022    1    1    2    0    0 -0.31438310494E+03 -0.10679566878E+04  0.39142301038E+03  0.11899461541E+04  0.15294330000E+03 0.  0.
    8880022    1    1    2    0    0  0.31438310494E+03  0.10679566878E+04 -0.14697572869E+04  0.18501206337E+04  0.15294330000E+03 0.  0.
<mgrwt>
<rscale>  0 0.11237259E+04</rscale>
<asrwt>0</asrwt>
<pdfrwt beam="1">  1        1 0.31680008E+00 0.11237259E+04</pdfrwt>
<pdfrwt beam="2">  1       -1 0.15090250E+00 0.11237259E+04</pdfrwt>
<totfact> 0.92638970E-01</totfact>
</mgrwt>
</event>
<event>
 4    1  0.2731969E-009  0.3398479E+03  0.7818608E-02  0.1066861E+00
         -1   -1    0    0    0  501 -0.00000000000E+00  0.00000000000E+00  0.12567852508E+04  0.12567852508E+04  0.50400000000E-02 0.  1.
          1   -1    0    0  501    0  0.00000000000E+00 -0.00000000000E+00 -0.14634934947E+03  0.14634934956E+03  0.50400000000E-02 0. -1.
    8880022    1    1    2    0    0  0.28730835833E+03  0.97769488356E+02  0.98315162520E+03  0.10402325398E+04  0.15294330000E+03 0.  0.
    8880022    1    1    2    0    0 -0.28730835833E+03 -0.97769488356E+02  0.12728427609E+03  0.36290206058E+03  0.15294330000E+03 0.  0.
<mgrwt>
<rscale>  0 0.33984793E+03</rscale>
<asrwt>0</asrwt>
<pdfrwt beam="1">  1        1 0.22515284E-01 0.33984793E+03</pdfrwt>
<pdfrwt beam="2">  1       -1 0.19335158E+00 0.33984793E+03</pdfrwt>
<totfact> 0.40260418E+01</totfact>
</mgrwt>
</event>
<event>
 4    1  0.2731969E-009  0.2717213E+03  0.7818608E-02  0.1100299E+00
          1   -1    0    0  501    0  0.00000000000E+00  0.00000000000E+00  0.23353463115E+03  0.23353463121E+03  0.50400000000E-02 0. -1.
         -1   -1    0    0    0  501 -0.00000000000E+00 -0.00000000000E+00 -0.74277821122E+03  0.74277821124E+03  0.50400000000E-02 0.  1.
    8880022    1    1    2    0    0  0.19661232396E+03  0.10855592686E+03  0.11533685437E+03  0.29518644647E+03  0.15294330000E+03 0. -1.
    8880022    1    1    2    0    0 -0.19661232396E+03 -0.10855592686E+03 -0.62458043444E+03  0.68112639597E+03  0.15294330000E+03 0.  0.
<mgrwt>
<rscale>  0 0.27172127E+03</rscale>
<asrwt>0</asrwt>
<pdfrwt beam="1">  1        1 0.35928405E-01 0.27172127E+03</pdfrwt>
<pdfrwt beam="2">  1       -1 0.11427357E+00 0.27172127E+03</pdfrwt>
<totfact> 0.90188261E+01</totfact>
</mgrwt>
</event>
<event>
 4    1  0.2731969E-009  0.5088076E+03  0.7818608E-02  0.1011505E+00
         -1   -1    0    0    0  501 -0.00000000000E+00  0.00000000000E+00  0.32458532379E+03  0.32458532383E+03  0.50400000000E-02 0.  1.
          1   -1    0    0  501    0  0.00000000000E+00 -0.00000000000E+00 -0.14327178969E+04  0.14327178969E+04  0.50400000000E-02 0. -1.
    8880022    1    1    2    0    0  0.11542449922E+02  0.48513944092E+03 -0.11390824376E+04  0.12475551924E+04  0.15294330000E+03 0.  0.
    8880022    1    1    2    0    0 -0.11542449922E+02 -0.48513944092E+03  0.30949864517E+02  0.50974802836E+03  0.15294330000E+03 0.  0.
<mgrwt>
<rscale>  0 0.50880758E+03</rscale>
<asrwt>0</asrwt>
<pdfrwt beam="1">  1        1 0.22041813E+00 0.50880758E+03</pdfrwt>
<pdfrwt beam="2">  1       -1 0.49936204E-01 0.50880758E+03</pdfrwt>
<totfact> 0.31319335E+01</totfact>
</mgrwt>
</event>
<event>
 4    1  0.2731969E-009  0.6340088E+03  0.7818608E-02  0.9837257E-01
          1   -1    0    0  501    0  0.00000000000E+00  0.00000000000E+00  0.93180068884E+03  0.93180068886E+03  0.50400000000E-02 0. -1.
         -1   -1    0    0    0  501 -0.00000000000E+00 -0.00000000000E+00 -0.76416302609E+03  0.76416302611E+03  0.50400000000E-02 0.  1.
    8880022    1    1    2    0    0 -0.97550700744E+02  0.60750261516E+03 -0.47577021481E+03  0.79266923553E+03  0.15294330000E+03 0.  0.
    8880022    1    1    2    0    0  0.97550700744E+02 -0.60750261516E+03  0.64340787757E+03  0.90329447943E+03  0.15294330000E+03 0.  0.
<mgrwt>
<rscale>  0 0.63400885E+03</rscale>
<asrwt>0</asrwt>
<pdfrwt beam="1">  1        1 0.14335395E+00 0.63400885E+03</pdfrwt>
<pdfrwt beam="2">  1       -1 0.11756354E+00 0.63400885E+03</pdfrwt>
<totfact> 0.11701628E+01</totfact>
</mgrwt>
</event>
<event>
 4    1  0.2731969E-009  0.1081659E+04  0.7818608E-02  0.9223255E-01
         -1   -1    0    0    0  501 -0.00000000000E+00  0.00000000000E+00  0.22648650038E+04  0.22648650038E+04  0.50400000000E-02 0.  1.
          1   -1    0    0  501    0  0.00000000000E+00 -0.00000000000E+00 -0.14848520857E+04  0.14848520857E+04  0.50400000000E-02 0. -1.
    8880022    1    1    2    0    0 -0.68985997022E+03  0.81895523064E+03 -0.11239918984E+04  0.15599179110E+04  0.15294330000E+03 0.  0.
    8880022    1    1    2    0    0  0.68985997022E+03 -0.81895523064E+03  0.19040048165E+04  0.21897991786E+04  0.15294330000E+03 0.  0.
<mgrwt>
<rscale>  0 0.10816590E+04</rscale>
<asrwt>0</asrwt>
<pdfrwt beam="1">  1        1 0.22843878E+00 0.10816590E+04</pdfrwt>
<pdfrwt beam="2">  1       -1 0.34844077E+00 0.10816590E+04</pdfrwt>
<totfact> 0.10747058E-01</totfact>
</mgrwt>
</event>
<event>
 4    1  0.2731969E-009  0.8432926E+03  0.7818608E-02  0.9499384E-01
         -1   -1    0    0    0  501 -0.00000000000E+00  0.00000000000E+00  0.14331092603E+04  0.14331092603E+04  0.50400000000E-02 0.  1.
          1   -1    0    0  501    0  0.00000000000E+00 -0.00000000000E+00 -0.21976480545E+04  0.21976480545E+04  0.50400000000E-02 0. -1.
    8880022    1    1    2    0    0  0.46308708344E+03 -0.68796883570E+03  0.12150600886E+04  0.14790244885E+04  0.15294330000E+03 0.  0.
    8880022    1    1    2    0    0 -0.46308708344E+03  0.68796883570E+03 -0.19795988829E+04  0.21517328263E+04  0.15294330000E+03 0.  0.
<mgrwt>
<rscale>  0 0.84329261E+03</rscale>
<asrwt>0</asrwt>
<pdfrwt beam="1">  1        1 0.33809970E+00 0.84329261E+03</pdfrwt>
<pdfrwt beam="2">  1       -1 0.22047835E+00 0.84329261E+03</pdfrwt>
<totfact> 0.25075627E-01</totfact>
</mgrwt>
</event>
<event>
 4    1  0.2731969E-009  0.6443085E+03  0.7818608E-02  0.9817518E-01
          1   -1    0    0  501    0  0.00000000000E+00  0.00000000000E+00  0.24931965210E+04  0.24931965210E+04  0.50400000000E-02 0. -1.
         -1   -1    0    0    0  501 -0.00000000000E+00 -0.00000000000E+00 -0.25996649197E+03  0.25996649202E+03  0.50400000000E-02 0.  1.
    8880022    1    1    2    0    0 -0.46180465831E+03  0.42246690650E+03  0.29123098493E+03  0.70707069599E+03  0.15294330000E+03 0.  0.
    8880022    1    1    2    0    0  0.46180465831E+03 -0.42246690650E+03  0.19419990441E+04  0.20460923170E+04  0.15294330000E+03 0.  1.
<mgrwt>
<rscale>  0 0.64430853E+03</rscale>
<asrwt>0</asrwt>
<pdfrwt beam="1">  1        1 0.38356869E+00 0.64430853E+03</pdfrwt>
<pdfrwt beam="2">  1       -1 0.39994846E-01 0.64430853E+03</pdfrwt>
<totfact> 0.89674860E+00</totfact>
</mgrwt>
</event>
<event>
 4    1  0.2731969E-009  0.5943803E+03  0.7818608E-02  0.9917134E-01
          1   -1    0    0  501    0  0.00000000000E+00  0.00000000000E+00  0.25215797277E+03  0.25215797282E+03  0.50400000000E-02 0. -1.
         -1   -1    0    0    0  501 -0.00000000000E+00 -0.00000000000E+00 -0.28332362511E+04  0.28332362511E+04  0.50400000000E-02 0.  1.
    8880022    1    1    2    0    0 -0.56125958188E+03  0.12200007472E+03 -0.19371302503E+03  0.62515016242E+03  0.15294330000E+03 0.  0.
    8880022    1    1    2    0    0  0.56125958188E+03 -0.12200007472E+03 -0.23873652533E+04  0.24602440615E+04  0.15294330000E+03 0.  0.
<mgrwt>
<rscale>  0 0.59438034E+03</rscale>
<asrwt>0</asrwt>
<pdfrwt beam="1">  1        1 0.38793536E-01 0.59438034E+03</pdfrwt>
<pdfrwt beam="2">  1       -1 0.43588248E+00 0.59438034E+03</pdfrwt>
<totfact> 0.49279414E-01</totfact>
</mgrwt>
</event>
<event>
 4    1  0.2731969E-009  0.6549885E+03  0.7818608E-02  0.9797463E-01
         -1   -1    0    0    0  501 -0.00000000000E+00  0.00000000000E+00  0.41167817018E+03  0.41167817021E+03  0.50400000000E-02 0.  1.
          1   -1    0    0  501    0  0.00000000000E+00 -0.00000000000E+00 -0.17277284202E+04  0.17277284202E+04  0.50400000000E-02 0. -1.
    8880022    1    1    2    0    0 -0.44426123910E+02 -0.63533032354E+03 -0.13318854684E+04  0.14842266857E+04  0.15294330000E+03 0.  0.
    8880022    1    1    2    0    0  0.44426123910E+02  0.63533032354E+03  0.15835218339E+02  0.65517990480E+03  0.15294330000E+03 0.  0.
<mgrwt>
<rscale>  0 0.65498851E+03</rscale>
<asrwt>0</asrwt>
<pdfrwt beam="1">  1        1 0.26580437E+00 0.65498851E+03</pdfrwt>
<pdfrwt beam="2">  1       -1 0.63335104E-01 0.65498851E+03</pdfrwt>
<totfact> 0.12189815E+01</totfact>
</mgrwt>
</event>
<event>
 4    1  0.2731969E-009  0.8035413E+03  0.7818608E-02  0.9554905E-01
         -1   -1    0    0    0  501 -0.00000000000E+00  0.00000000000E+00  0.15081323978E+04  0.15081323978E+04  0.50400000000E-02 0.  1.
          1   -1    0    0  501    0  0.00000000000E+00 -0.00000000000E+00 -0.76264499662E+03  0.76264499664E+03  0.50400000000E-02 0. -1.
    8880022    1    1    2    0    0 -0.33230395727E+03  0.71544468291E+03  0.11246960374E+04  0.13822517295E+04  0.15294330000E+03 0.  0.
    8880022    1    1    2    0    0  0.33230395727E+03 -0.71544468291E+03 -0.37920863623E+03  0.88852566487E+03  0.15294330000E+03 0.  0.
<mgrwt>
<rscale>  0 0.80354133E+03</rscale>
<asrwt>0</asrwt>
<pdfrwt beam="1">  1        1 0.11733000E+00 0.80354133E+03</pdfrwt>
<pdfrwt beam="2">  1       -1 0.23202037E+00 0.80354133E+03</pdfrwt>
<totfact> 0.22593173E+00</totfact>
</mgrwt>
</event>
<event>
 4    1  0.2731969E-009  0.2686993E+03  0.7818608E-02  0.1102026E+00
         -1   -1    0    0    0  501 -0.00000000000E+00  0.00000000000E+00  0.25408298467E+03  0.25408298472E+03  0.50400000000E-02 0.  1.
          1   -1    0    0  501    0  0.00000000000E+00 -0.00000000000E+00 -0.40003811359E+03  0.40003811363E+03  0.50400000000E-02 0. -1.
    8880022    1    1    2    0    0 -0.21964706639E+03 -0.23724440051E+02  0.10305163437E+03  0.28778286119E+03  0.15294330000E+03 0.  1.
    8880022    1    1    2    0    0  0.21964706639E+03  0.23724440051E+02 -0.24900676329E+03  0.36633823716E+03  0.15294330000E+03 0.  0.
<mgrwt>
<rscale>  0 0.26869934E+03</rscale>
<asrwt>0</asrwt>
<pdfrwt beam="1">  1        1 0.61544325E-01 0.26869934E+03</pdfrwt>
<pdfrwt beam="2">  1       -1 0.39089690E-01 0.26869934E+03</pdfrwt>
<totfact> 0.39228793E+02</totfact>
</mgrwt>
</event>
<event>
 4    1  0.2731969E-009  0.4622711E+03  0.7818608E-02  0.1024125E+00
          1   -1    0    0  501    0  0.00000000000E+00  0.00000000000E+00  0.39426282949E+03  0.39426282952E+03  0.50400000000E-02 0. -1.
         -1   -1    0    0    0  501 -0.00000000000E+00 -0.00000000000E+00 -0.58040240755E+03  0.58040240757E+03  0.50400000000E-02 0.  1.
    8880022    1    1    2    0    0 -0.17965524788E+03 -0.39752599271E+03  0.32267695171E+02  0.46339592158E+03  0.15294330000E+03 0.  1.
    8880022    1    1    2    0    0  0.17965524788E+03  0.39752599271E+03 -0.21840727323E+03  0.51126931551E+03  0.15294330000E+03 0.  0.
<mgrwt>
<rscale>  0 0.46227111E+03</rscale>
<asrwt>0</asrwt>
<pdfrwt beam="1">  1        1 0.60655820E-01 0.46227111E+03</pdfrwt>
<pdfrwt beam="2">  1       -1 0.89292677E-01 0.46227111E+03</pdfrwt>
<totfact> 0.78548573E+01</totfact>
</mgrwt>
</event>
<event>
 4    1  0.2731969E-009  0.6878906E+03  0.7818608E-02  0.9738168E-01
         -1   -1    0    0    0  501 -0.00000000000E+00  0.00000000000E+00  0.13764214652E+04  0.13764214652E+04  0.50400000000E-02 0.  1.
          1   -1    0    0  501    0  0.00000000000E+00 -0.00000000000E+00 -0.22338581148E+04  0.22338581148E+04  0.50400000000E-02 0. -1.
    8880022    1    1    2    0    0 -0.31838216670E+03  0.59028352456E+03 -0.20891549797E+04  0.21994913106E+04  0.15294330000E+03 0.  0.
    8880022    1    1    2    0    0  0.31838216670E+03 -0.59028352456E+03  0.12317183301E+04  0.14107882694E+04  0.15294330000E+03 0.  0.
<mgrwt>
<rscale>  0 0.68789061E+03</rscale>
<asrwt>0</asrwt>
<pdfrwt beam="1">  1        1 0.34367048E+00 0.68789061E+03</pdfrwt>
<pdfrwt beam="2">  1       -1 0.21175715E+00 0.68789061E+03</pdfrwt>
<totfact> 0.28174668E-01</totfact>
</mgrwt>
</event>
<event>
 4    1  0.2731969E-009  0.9090873E+03  0.7818608E-02  0.9414293E-01
         -1   -1    0    0    0  501 -0.00000000000E+00  0.00000000000E+00  0.16999494154E+04  0.16999494154E+04  0.50400000000E-02 0.  1.
          1   -1    0    0  501    0  0.00000000000E+00 -0.00000000000E+00 -0.56842424277E+03  0.56842424280E+03  0.50400000000E-02 0. -1.
    8880022    1    1    2    0    0  0.39146717899E+03 -0.80610263932E+03  0.99724775275E+03  0.13494231178E+04  0.15294330000E+03 0.  0.
    8880022    1    1    2    0    0 -0.39146717899E+03  0.80610263932E+03  0.13427741991E+03  0.91895054048E+03  0.15294330000E+03 0.  0.
<mgrwt>
<rscale>  0 0.90908727E+03</rscale>
<asrwt>0</asrwt>
<pdfrwt beam="1">  1        1 0.87449883E-01 0.90908727E+03</pdfrwt>
<pdfrwt beam="2">  1       -1 0.26153068E+00 0.90908727E+03</pdfrwt>
<totfact> 0.22173872E+00</totfact>
</mgrwt>
</event>
<event>
 4    1  0.2731969E-009  0.1199600E+04  0.7818608E-02  0.9113207E-01
         -1   -1    0    0    0  501 -0.00000000000E+00  0.00000000000E+00  0.42801968595E+03  0.42801968598E+03  0.50400000000E-02 0.  1.
          1   -1    0    0  501    0  0.00000000000E+00 -0.00000000000E+00 -0.37342664225E+04  0.37342664225E+04  0.50400000000E-02 0. -1.
    8880022    1    1    2    0    0  0.11850684009E+04 -0.10611856766E+03 -0.23101376143E+04  0.26030320235E+04  0.15294330000E+03 0.  0.
    8880022    1    1    2    0    0 -0.11850684009E+04  0.10611856766E+03 -0.99610912224E+03  0.15592540850E+04  0.15294330000E+03 0.  0.
<mgrwt>
<rscale>  0 0.11995999E+04</rscale>
<asrwt>0</asrwt>
<pdfrwt beam="1">  1        1 0.57450250E+00 0.11995999E+04</pdfrwt>
<pdfrwt beam="2">  1       -1 0.65849185E-01 0.11995999E+04</pdfrwt>
<totfact> 0.38250812E-01</totfact>
</mgrwt>
</event>
<event>
 4    1  0.2731969E-009  0.9226138E+03  0.7818608E-02  0.9397746E-01
         -1   -1    0    0    0  501 -0.00000000000E+00  0.00000000000E+00  0.37789618020E+03  0.37789618023E+03  0.50400000000E-02 0.  1.
          1   -1    0    0  501    0  0.00000000000E+00 -0.00000000000E+00 -0.32519244478E+04  0.32519244478E+04  0.50400000000E-02 0. -1.
    8880022    1    1    2    0    0 -0.57773237526E+03  0.70288682521E+03 -0.43087740972E+03  0.10182689142E+04  0.15294330000E+03 0.  0.
    8880022    1    1    2    0    0  0.57773237526E+03 -0.70288682521E+03 -0.24431508579E+04  0.26115517138E+04  0.15294330000E+03 0.  0.
<mgrwt>
<rscale>  0 0.92261381E+03</rscale>
<asrwt>0</asrwt>
<pdfrwt beam="1">  1        1 0.50029605E+00 0.92261381E+03</pdfrwt>
<pdfrwt beam="2">  1       -1 0.58137876E-01 0.92261381E+03</pdfrwt>
<totfact> 0.12194716E+00</totfact>
</mgrwt>
</event>
<event>
 4    1  0.2731969E-009  0.4279013E+03  0.7818608E-02  0.1034525E+00
          1   -1    0    0  501    0  0.00000000000E+00  0.00000000000E+00  0.65800535946E+03  0.65800535948E+03  0.50400000000E-02 0. -1.
         -1   -1    0    0    0  501 -0.00000000000E+00 -0.00000000000E+00 -0.28158082665E+03  0.28158082669E+03  0.50400000000E-02 0.  1.
    8880022    1    1    2    0    0 -0.35620483300E+03 -0.18117932046E+03  0.13722770027E+03  0.44936724842E+03  0.15294330000E+03 0.  0.
    8880022    1    1    2    0    0  0.35620483300E+03  0.18117932046E+03  0.23919683255E+03  0.49021893775E+03  0.15294330000E+03 0.  0.
<mgrwt>
<rscale>  0 0.42790125E+03</rscale>
<asrwt>0</asrwt>
<pdfrwt beam="1">  1        1 0.10123159E+00 0.42790125E+03</pdfrwt>
<pdfrwt beam="2">  1       -1 0.43320127E-01 0.42790125E+03</pdfrwt>
<totfact> 0.16358129E+02</totfact>
</mgrwt>
</event>
<event>
 4    1  0.2731969E-009  0.1376980E+04  0.7818608E-02  0.8970652E-01
         -1   -1    0    0    0  501 -0.00000000000E+00  0.00000000000E+00  0.14540401282E+04  0.14540401282E+04  0.50400000000E-02 0.  1.
          1   -1    0    0  501    0  0.00000000000E+00 -0.00000000000E+00 -0.24135902463E+04  0.24135902463E+04  0.50400000000E-02 0. -1.
    8880022    1    1    2    0    0  0.66329792155E+03 -0.11969617072E+04  0.83140962176E+03  0.16085133116E+04  0.15294330000E+03 0.  0.
    8880022    1    1    2    0    0 -0.66329792155E+03  0.11969617072E+04 -0.17909597398E+04  0.22591170629E+04  0.15294330000E+03 0.  0.
<mgrwt>
<rscale>  0 0.13769797E+04</rscale>
<asrwt>0</asrwt>
<pdfrwt beam="1">  1        1 0.37132158E+00 0.13769797E+04</pdfrwt>
<pdfrwt beam="2">  1       -1 0.22369848E+00 0.13769797E+04</pdfrwt>
<totfact> 0.15510367E-01</totfact>
</mgrwt>
</event>
<event>
 4    1  0.2731969E-009  0.9784110E+03  0.7818608E-02  0.9332545E-01
          1   -1    0    0  501    0  0.00000000000E+00  0.00000000000E+00  0.24688481612E+04  0.24688481612E+04  0.50400000000E-02 0. -1.
         -1   -1    0    0    0  501 -0.00000000000E+00 -0.00000000000E+00 -0.73177430844E+03  0.73177430846E+03  0.50400000000E-02 0.  1.
    8880022    1    1    2    0    0 -0.70776851555E+03 -0.65799710631E+03  0.19658041936E+04  0.21958311056E+04  0.15294330000E+03 0.  0.
    8880022    1    1    2    0    0  0.70776851555E+03  0.65799710631E+03 -0.22873034086E+03  0.10047913641E+04  0.15294330000E+03 0.  0.
<mgrwt>
<rscale>  0 0.97841102E+03</rscale>
<asrwt>0</asrwt>
<pdfrwt beam="1">  1        1 0.37982279E+00 0.97841102E+03</pdfrwt>
<pdfrwt beam="2">  1       -1 0.11258066E+00 0.97841102E+03</pdfrwt>
<totfact> 0.10505555E+00</totfact>
</mgrwt>
</event>
<event>
 4    1  0.2731969E-009  0.5694416E+03  0.7818608E-02  0.9970915E-01
         -1   -1    0    0    0  501 -0.00000000000E+00  0.00000000000E+00  0.17644804991E+03  0.17644804998E+03  0.50400000000E-02 0.  1.
          1   -1    0    0  501    0  0.00000000000E+00 -0.00000000000E+00 -0.21560508183E+04  0.21560508183E+04  0.50400000000E-02 0. -1.
    8880022    1    1    2    0    0 -0.51191649820E+03 -0.19701155630E+03 -0.54168056840E+03  0.78592718851E+03  0.15294330000E+03 0.  0.
    8880022    1    1    2    0    0  0.51191649820E+03  0.19701155630E+03 -0.14379222000E+04  0.15465716798E+04  0.15294330000E+03 0.  0.
<mgrwt>
<rscale>  0 0.56944158E+03</rscale>
<asrwt>0</asrwt>
<pdfrwt beam="1">  1        1 0.33170011E+00 0.56944158E+03</pdfrwt>
<pdfrwt beam="2">  1       -1 0.27145855E-01 0.56944158E+03</pdfrwt>
<totfact> 0.30307433E+01</totfact>
</mgrwt>
</event>
<event>
 4    1  0.2731969E-009  0.6303505E+03  0.7818608E-02  0.9844365E-01
         -1   -1    0    0    0  501 -0.00000000000E+00  0.00000000000E+00  0.19003570840E+04  0.19003570840E+04  0.50400000000E-02 0.  1.
          1   -1    0    0  501    0  0.00000000000E+00 -0.00000000000E+00 -0.29754243282E+03  0.29754243286E+03  0.50400000000E-02 0. -1.
    8880022    1    1    2    0    0 -0.22170270042E+03  0.56991049220E+03  0.20221894755E+03  0.66199260740E+03  0.15294330000E+03 0.  0.
    8880022    1    1    2    0    0  0.22170270042E+03 -0.56991049220E+03  0.14005957036E+04  0.15359069094E+04  0.15294330000E+03 0.  0.
<mgrwt>
<rscale>  0 0.63035047E+03</rscale>
<asrwt>0</asrwt>
<pdfrwt beam="1">  1        1 0.45775760E-01 0.63035047E+03</pdfrwt>
<pdfrwt beam="2">  1       -1 0.29236262E+00 0.63035047E+03</pdfrwt>
<totfact> 0.35013646E+00</totfact>
</mgrwt>
</event>
<event>
 4    1  0.2731969E-009  0.3089752E+03  0.7818608E-02  0.1080838E+00
          1   -1    0    0  501    0  0.00000000000E+00  0.00000000000E+00  0.24926349153E+04  0.24926349153E+04  0.50400000000E-02 0. -1.
         -1   -1    0    0    0  501 -0.00000000000E+00 -0.00000000000E+00 -0.31197927272E+03  0.31197927276E+03  0.50400000000E-02 0.  1.
    8880022    1    1    2    0    0  0.11099807881E+03  0.24444516232E+03 -0.22308705571E+03  0.38109513028E+03  0.15294330000E+03 0.  0.
    8880022    1    1    2    0    0 -0.11099807881E+03 -0.24444516232E+03  0.24037426983E+04  0.24235190578E+04  0.15294330000E+03 0. -1.
<mgrwt>
<rscale>  0 0.30897518E+03</rscale>
<asrwt>0</asrwt>
<pdfrwt beam="1">  1        1 0.38348230E+00 0.30897518E+03</pdfrwt>
<pdfrwt beam="2">  1       -1 0.47996811E-01 0.30897518E+03</pdfrwt>
<totfact> 0.70856355E+00</totfact>
</mgrwt>
</event>
<event>
 4    1  0.2731969E-009  0.6505905E+03  0.7818608E-02  0.9805672E-01
         -1   -1    0    0    0  501 -0.00000000000E+00  0.00000000000E+00  0.29515301819E+03  0.29515301823E+03  0.50400000000E-02 0.  1.
          1   -1    0    0  501    0  0.00000000000E+00 -0.00000000000E+00 -0.15201390930E+04  0.15201390931E+04  0.50400000000E-02 0. -1.
    8880022    1    1    2    0    0  0.59721639234E+03 -0.20786748887E+03 -0.82847457360E+03  0.10533936037E+04  0.15294330000E+03 0.  0.
    8880022    1    1    2    0    0 -0.59721639234E+03  0.20786748887E+03 -0.39651150125E+03  0.76189850758E+03  0.15294330000E+03 0.  0.
<mgrwt>
<rscale>  0 0.65059047E+03</rscale>
<asrwt>0</asrwt>
<pdfrwt beam="1">  1        1 0.23386755E+00 0.65059047E+03</pdfrwt>
<pdfrwt beam="2">  1       -1 0.45408157E-01 0.65059047E+03</pdfrwt>
<totfact> 0.31882653E+01</totfact>
</mgrwt>
</event>
<event>
 4    1  0.2731969E-009  0.9533863E+03  0.7818608E-02  0.9361201E-01
          1   -1    0    0  501    0  0.00000000000E+00  0.00000000000E+00  0.22226627093E+04  0.22226627093E+04  0.50400000000E-02 0. -1.
         -1   -1    0    0    0  501 -0.00000000000E+00 -0.00000000000E+00 -0.59214442881E+03  0.59214442883E+03  0.50400000000E-02 0.  1.
    8880022    1    1    2    0    0 -0.91174673183E+03  0.23296291874E+03  0.32428910469E+02  0.95393768756E+03  0.15294330000E+03 0.  0.
    8880022    1    1    2    0    0  0.91174673183E+03 -0.23296291874E+03  0.15980893700E+04  0.18608694506E+04  0.15294330000E+03 0.  0.
<mgrwt>
<rscale>  0 0.95338632E+03</rscale>
<asrwt>0</asrwt>
<pdfrwt beam="1">  1        1 0.34194810E+00 0.95338632E+03</pdfrwt>
<pdfrwt beam="2">  1       -1 0.91099145E-01 0.95338632E+03</pdfrwt>
<totfact> 0.25248028E+00</totfact>
</mgrwt>
</event>
<event>
 4    1  0.2731969E-009  0.5665695E+03  0.7818608E-02  0.9977299E-01
          1   -1    0    0  501    0  0.00000000000E+00  0.00000000000E+00  0.82473293108E+03  0.82473293110E+03  0.50400000000E-02 0. -1.
         -1   -1    0    0    0  501 -0.00000000000E+00 -0.00000000000E+00 -0.95503577218E+03  0.95503577219E+03  0.50400000000E-02 0.  1.
    8880022    1    1    2    0    0  0.53876091749E+03 -0.85708615414E+02  0.61980355085E+03  0.83973649893E+03  0.15294330000E+03 0.  0.
    8880022    1    1    2    0    0 -0.53876091749E+03  0.85708615414E+02 -0.75010639195E+03  0.94003220436E+03  0.15294330000E+03 0.  1.
<mgrwt>
<rscale>  0 0.56656945E+03</rscale>
<asrwt>0</asrwt>
<pdfrwt beam="1">  1        1 0.12688199E+00 0.56656945E+03</pdfrwt>
<pdfrwt beam="2">  1       -1 0.14692858E+00 0.56656945E+03</pdfrwt>
<totfact> 0.82554614E+00</totfact>
</mgrwt>
</event>
<event>
 4    1  0.2731969E-009  0.9771094E+03  0.7818608E-02  0.9334013E-01
          1   -1    0    0  501    0  0.00000000000E+00  0.00000000000E+00  0.31297684669E+04  0.31297684669E+04  0.50400000000E-02 0. -1.
         -1   -1    0    0    0  501 -0.00000000000E+00 -0.00000000000E+00 -0.80060790272E+03  0.80060790274E+03  0.50400000000E-02 0.  1.
    8880022    1    1    2    0    0  0.84090102766E+03 -0.47353624947E+03 -0.38152991732E+03  0.10489555990E+04  0.15294330000E+03 0.  0.
    8880022    1    1    2    0    0 -0.84090102766E+03  0.47353624947E+03  0.27106904815E+04  0.28814207707E+04  0.15294330000E+03 0.  0.
<mgrwt>
<rscale>  0 0.97710940E+03</rscale>
<asrwt>0</asrwt>
<pdfrwt beam="1">  1        1 0.48150284E+00 0.97710940E+03</pdfrwt>
<pdfrwt beam="2">  1       -1 0.12317045E+00 0.97710940E+03</pdfrwt>
<totfact> 0.28821323E-01</totfact>
</mgrwt>
</event>
<event>
 4    1  0.2731969E-009  0.7632917E+03  0.7818608E-02  0.9614725E-01
          1   -1    0    0  501    0  0.00000000000E+00  0.00000000000E+00  0.25029219676E+04  0.25029219676E+04  0.50400000000E-02 0. -1.
         -1   -1    0    0    0  501 -0.00000000000E+00 -0.00000000000E+00 -0.38948136705E+03  0.38948136708E+03  0.50400000000E-02 0.  1.
    8880022    1    1    2    0    0 -0.26554463093E+03  0.69907699202E+03  0.13937946266E+03  0.77591293288E+03  0.15294330000E+03 0.  0.
    8880022    1    1    2    0    0  0.26554463093E+03 -0.69907699202E+03  0.19740611379E+04  0.21164904018E+04  0.15294330000E+03 0.  0.
<mgrwt>
<rscale>  0 0.76329172E+03</rscale>
<asrwt>0</asrwt>
<pdfrwt beam="1">  1        1 0.38506493E+00 0.76329172E+03</pdfrwt>
<pdfrwt beam="2">  1       -1 0.59920208E-01 0.76329172E+03</pdfrwt>
<totfact> 0.40271606E+00</totfact>
</mgrwt>
</event>
<event>
 4    1  0.2731969E-009  0.7601963E+03  0.7818608E-02  0.9619488E-01
          1   -1    0    0  501    0  0.00000000000E+00  0.00000000000E+00  0.18456050771E+04  0.18456050771E+04  0.50400000000E-02 0. -1.
         -1   -1    0    0    0  501 -0.00000000000E+00 -0.00000000000E+00 -0.36010367731E+03  0.36010367735E+03  0.50400000000E-02 0.  1.
    8880022    1    1    2    0    0 -0.36468736341E+03 -0.64923796483E+03  0.34439467817E+03  0.83456944311E+03  0.15294330000E+03 0.  0.
    8880022    1    1    2    0    0  0.36468736341E+03  0.64923796483E+03  0.11411067217E+04  0.13711393114E+04  0.15294330000E+03 0.  0.
<mgrwt>
<rscale>  0 0.76019633E+03</rscale>
<asrwt>0</asrwt>
<pdfrwt beam="1">  1        1 0.28393924E+00 0.76019633E+03</pdfrwt>
<pdfrwt beam="2">  1       -1 0.55400567E-01 0.76019633E+03</pdfrwt>
<totfact> 0.13000286E+01</totfact>
</mgrwt>
</event>
<event>
 4    1  0.2731969E-009  0.7819974E+03  0.7818608E-02  0.9586447E-01
         -1   -1    0    0    0  501 -0.00000000000E+00  0.00000000000E+00  0.49498065358E+03  0.49498065361E+03  0.50400000000E-02 0.  1.
          1   -1    0    0  501    0  0.00000000000E+00 -0.00000000000E+00 -0.40563487695E+04  0.40563487695E+04  0.50400000000E-02 0. -1.
    8880022    1    1    2    0    0  0.74698482270E+03  0.17361421191E+03  0.11704846032E+03  0.79070867897E+03  0.15294330000E+03 0.  0.
    8880022    1    1    2    0    0 -0.74698482270E+03 -0.17361421191E+03 -0.36784165762E+04  0.37606207441E+04  0.15294330000E+03 0.  0.
<mgrwt>
<rscale>  0 0.78199736E+03</rscale>
<asrwt>0</asrwt>
<pdfrwt beam="1">  1        1 0.62405363E+00 0.78199736E+03</pdfrwt>
<pdfrwt beam="2">  1       -1 0.76150873E-01 0.78199736E+03</pdfrwt>
<totfact> 0.16451101E-01</totfact>
</mgrwt>
</event>
<event>
 4    1  0.2731969E-009  0.6979071E+03  0.7818608E-02  0.9720818E-01
          1   -1    0    0  501    0  0.00000000000E+00  0.00000000000E+00  0.14975160791E+04  0.14975160792E+04  0.50400000000E-02 0. -1.
         -1   -1    0    0    0  501 -0.00000000000E+00 -0.00000000000E+00 -0.50362801667E+03  0.50362801669E+03  0.50400000000E-02 0.  1.
    8880022    1    1    2    0    0  0.17471487688E+03 -0.65814688943E+03  0.10924118102E+04  0.12963170262E+04  0.15294330000E+03 0.  0.
    8880022    1    1    2    0    0 -0.17471487688E+03  0.65814688943E+03 -0.98523747728E+02  0.70482706967E+03  0.15294330000E+03 0.  0.
<mgrwt>
<rscale>  0 0.69790706E+03</rscale>
<asrwt>0</asrwt>
<pdfrwt beam="1">  1        1 0.23038709E+00 0.69790706E+03</pdfrwt>
<pdfrwt beam="2">  1       -1 0.77481233E-01 0.69790706E+03</pdfrwt>
<totfact> 0.11469002E+01</totfact>
</mgrwt>
</event>
<event>
 4    1  0.2731969E-009  0.1234191E+04  0.7818608E-02  0.9083444E-01
         -1   -1    0    0    0  501 -0.00000000000E+00  0.00000000000E+00  0.11608735870E+04  0.11608735870E+04  0.50400000000E-02 0.  1.
          1   -1    0    0  501    0  0.00000000000E+00 -0.00000000000E+00 -0.26951428199E+04  0.26951428199E+04  0.50400000000E-02 0. -1.
    8880022    1    1    2    0    0  0.29853699485E+02  0.12243142025E+04 -0.21482488040E+04  0.24775393210E+04  0.15294330000E+03 0.  0.
    8880022    1    1    2    0    0 -0.29853699485E+02 -0.12243142025E+04  0.61397957114E+03  0.13784770860E+04  0.15294330000E+03 0.  0.
<mgrwt>
<rscale>  0 0.12341913E+04</rscale>
<asrwt>0</asrwt>
<pdfrwt beam="1">  1        1 0.41463735E+00 0.12341913E+04</pdfrwt>
<pdfrwt beam="2">  1       -1 0.17859594E+00 0.12341913E+04</pdfrwt>
<totfact> 0.20706651E-01</totfact>
</mgrwt>
</event>
<event>
 4    1  0.2731969E-009  0.1163305E+04  0.7818608E-02  0.9145596E-01
          1   -1    0    0  501    0  0.00000000000E+00  0.00000000000E+00  0.16475091049E+04  0.16475091049E+04  0.50400000000E-02 0. -1.
         -1   -1    0    0    0  501 -0.00000000000E+00 -0.00000000000E+00 -0.11842006124E+04  0.11842006125E+04  0.50400000000E-02 0.  1.
    8880022    1    1    2    0    0 -0.11290515065E+04  0.23479545597E+03 -0.55201906428E+03  0.12876346185E+04  0.15294330000E+03 0.  0.
    8880022    1    1    2    0    0  0.11290515065E+04 -0.23479545597E+03  0.10153275567E+04  0.15440750989E+04  0.15294330000E+03 0.  0.
<mgrwt>
<rscale>  0 0.11633047E+04</rscale>
<asrwt>0</asrwt>
<pdfrwt beam="1">  1        1 0.25346294E+00 0.11633047E+04</pdfrwt>
<pdfrwt beam="2">  1       -1 0.18218471E+00 0.11633047E+04</pdfrwt>
<totfact> 0.10234705E+00</totfact>
</mgrwt>
</event>
<event>
 4    1  0.2731969E-009  0.2636772E+03  0.7818608E-02  0.1104954E+00
          1   -1    0    0  501    0  0.00000000000E+00  0.00000000000E+00  0.11634613130E+04  0.11634613130E+04  0.50400000000E-02 0. -1.
         -1   -1    0    0    0  501 -0.00000000000E+00 -0.00000000000E+00 -0.46612812648E+03  0.46612812651E+03  0.50400000000E-02 0.  1.
    8880022    1    1    2    0    0  0.35864079407E+02  0.21177297977E+03 -0.41210912167E+03  0.48924391497E+03  0.15294330000E+03 0.  0.
    8880022    1    1    2    0    0 -0.35864079407E+02 -0.21177297977E+03  0.11094423082E+04  0.11403455246E+04  0.15294330000E+03 0.  0.
<mgrwt>
<rscale>  0 0.26367723E+03</rscale>
<asrwt>0</asrwt>
<pdfrwt beam="1">  1        1 0.17899405E+00 0.26367723E+03</pdfrwt>
<pdfrwt beam="2">  1       -1 0.71712020E-01 0.26367723E+03</pdfrwt>
<totfact> 0.25327472E+01</totfact>
</mgrwt>
</event>
<event>
 4    1  0.2731969E-009  0.3477158E+03  0.7818608E-02  0.1063556E+00
         -1   -1    0    0    0  501 -0.00000000000E+00  0.00000000000E+00  0.86468202893E+03  0.86468202895E+03  0.50400000000E-02 0.  1.
          1   -1    0    0  501    0  0.00000000000E+00 -0.00000000000E+00 -0.33762427602E+03  0.33762427606E+03  0.50400000000E-02 0. -1.
    8880022    1    1    2    0    0  0.16107671157E+03  0.26752372584E+03 -0.19659834671E+03  0.39944613384E+03  0.15294330000E+03 0.  0.
    8880022    1    1    2    0    0 -0.16107671157E+03 -0.26752372584E+03  0.72365609962E+03  0.80286017116E+03  0.15294330000E+03 0.  0.
<mgrwt>
<rscale>  0 0.34771584E+03</rscale>
<asrwt>0</asrwt>
<pdfrwt beam="1">  1        1 0.51942197E-01 0.34771584E+03</pdfrwt>
<pdfrwt beam="2">  1       -1 0.13302800E+00 0.34771584E+03</pdfrwt>
<totfact> 0.38595729E+01</totfact>
</mgrwt>
</event>
<event>
 4    1  0.2731969E-009  0.6000176E+03  0.7818608E-02  0.9905370E-01
          1   -1    0    0  501    0  0.00000000000E+00  0.00000000000E+00  0.91084619195E+03  0.91084619196E+03  0.50400000000E-02 0. -1.
         -1   -1    0    0    0  501 -0.00000000000E+00 -0.00000000000E+00 -0.40989465580E+03  0.40989465583E+03  0.50400000000E-02 0.  1.
    8880022    1    1    2    0    0  0.54758515746E+02 -0.57760792592E+03  0.12569640329E+03  0.61304212738E+03  0.15294330000E+03 0.  0.
    8880022    1    1    2    0    0 -0.54758515746E+02  0.57760792592E+03  0.37525513286E+03  0.70769872042E+03  0.15294330000E+03 0.  0.
<mgrwt>
<rscale>  0 0.60001755E+03</rscale>
<asrwt>0</asrwt>
<pdfrwt beam="1">  1        1 0.14013018E+00 0.60001755E+03</pdfrwt>
<pdfrwt beam="2">  1       -1 0.63060716E-01 0.60001755E+03</pdfrwt>
<totfact> 0.47325469E+01</totfact>
</mgrwt>
</event>
<event>
 4    1  0.2731969E-009  0.1135254E+04  0.7818608E-02  0.9171496E-01
          1   -1    0    0  501    0  0.00000000000E+00  0.00000000000E+00  0.28208132977E+04  0.28208132977E+04  0.50400000000E-02 0. -1.
         -1   -1    0    0    0  501 -0.00000000000E+00 -0.00000000000E+00 -0.64852168903E+03  0.64852168905E+03  0.50400000000E-02 0.  1.
    8880022    1    1    2    0    0  0.75360942008E+03  0.83515430846E+03  0.20290934796E+04  0.23250853487E+04  0.15294330000E+03 0.  0.
    8880022    1    1    2    0    0 -0.75360942008E+03 -0.83515430846E+03  0.14319812909E+03  0.11442496380E+04  0.15294330000E+03 0.  0.
<mgrwt>
<rscale>  0 0.11352539E+04</rscale>
<asrwt>0</asrwt>
<pdfrwt beam="1">  1        1 0.43397127E+00 0.11352539E+04</pdfrwt>
<pdfrwt beam="2">  1       -1 0.99772569E-01 0.11352539E+04</pdfrwt>
<totfact> 0.77391563E-01</totfact>
</mgrwt>
</event>
<event>
 4    1  0.2731969E-009  0.1506397E+04  0.7818608E-02  0.8880210E-01
          1   -1    0    0  501    0  0.00000000000E+00  0.00000000000E+00  0.24173514628E+04  0.24173514628E+04  0.50400000000E-02 0. -1.
         -1   -1    0    0    0  501 -0.00000000000E+00 -0.00000000000E+00 -0.11576790816E+04  0.11576790817E+04  0.50400000000E-02 0.  1.
    8880022    1    1    2    0    0 -0.73690216186E+03  0.13049195597E+04  0.14072117020E+04  0.20614257883E+04  0.15294330000E+03 0.  0.
    8880022    1    1    2    0    0  0.73690216186E+03 -0.13049195597E+04 -0.14753932089E+03  0.15136047561E+04  0.15294330000E+03 0.  0.
<mgrwt>
<rscale>  0 0.15063969E+04</rscale>
<asrwt>0</asrwt>
<pdfrwt beam="1">  1        1 0.37190022E+00 0.15063969E+04</pdfrwt>
<pdfrwt beam="2">  1       -1 0.17810447E+00 0.15063969E+04</pdfrwt>
<totfact> 0.31408316E-01</totfact>
</mgrwt>
</event>
<event>
 4    1  0.2731969E-009  0.1218985E+04  0.7818608E-02  0.9096399E-01
         -1   -1    0    0    0  501 -0.00000000000E+00  0.00000000000E+00  0.89985632244E+03  0.89985632245E+03  0.50400000000E-02 0.  1.
          1   -1    0    0  501    0  0.00000000000E+00 -0.00000000000E+00 -0.25841090633E+04  0.25841090633E+04  0.50400000000E-02 0. -1.
    8880022    1    1    2    0    0 -0.81563895566E+03 -0.89289736934E+03  0.20448870725E+03  0.12360177598E+04  0.15294330000E+03 0.  0.
    8880022    1    1    2    0    0  0.81563895566E+03  0.89289736934E+03 -0.18887414481E+04  0.22479476260E+04  0.15294330000E+03 0.  0.
<mgrwt>
<rscale>  0 0.12189849E+04</rscale>
<asrwt>0</asrwt>
<pdfrwt beam="1">  1        1 0.39755524E+00 0.12189849E+04</pdfrwt>
<pdfrwt beam="2">  1       -1 0.13843944E+00 0.12189849E+04</pdfrwt>
<totfact> 0.50359435E-01</totfact>
</mgrwt>
</event>
<event>
 4    1  0.2731969E-009  0.3214621E+03  0.7818608E-02  0.1074978E+00
          1   -1    0    0  501    0  0.00000000000E+00  0.00000000000E+00  0.22565423001E+04  0.22565423001E+04  0.50400000000E-02 0. -1.
         -1   -1    0    0    0  501 -0.00000000000E+00 -0.00000000000E+00 -0.12996437553E+03  0.12996437563E+03  0.50400000000E-02 0.  1.
    8880022    1    1    2    0    0 -0.21126143791E+03 -0.18792240303E+03  0.20235694260E+04  0.20489438986E+04  0.15294330000E+03 0.  0.
    8880022    1    1    2    0    0  0.21126143791E+03  0.18792240303E+03  0.10300849855E+03  0.33756277712E+03  0.15294330000E+03 0.  0.
<mgrwt>
<rscale>  0 0.32146209E+03</rscale>
<asrwt>0</asrwt>
<pdfrwt beam="1">  1        1 0.34716035E+00 0.32146209E+03</pdfrwt>
<pdfrwt beam="2">  1       -1 0.19994520E-01 0.32146209E+03</pdfrwt>
<totfact> 0.45898524E+01</totfact>
</mgrwt>
</event>
<event>
 4    1  0.2731969E-009  0.4035462E+03  0.7818608E-02  0.1042559E+00
          1   -1    0    0  501    0  0.00000000000E+00  0.00000000000E+00  0.11572363402E+04  0.11572363402E+04  0.50400000000E-02 0. -1.
         -1   -1    0    0    0  501 -0.00000000000E+00 -0.00000000000E+00 -0.70592083504E+03  0.70592083506E+03  0.50400000000E-02 0.  1.
    8880022    1    1    2    0    0 -0.20313911011E+02 -0.37288763478E+03 -0.60791178124E+03  0.72966172295E+03  0.15294330000E+03 0.  0.
    8880022    1    1    2    0    0  0.20313911011E+02  0.37288763478E+03  0.10592272863E+04  0.11334954523E+04  0.15294330000E+03 0.  0.
<mgrwt>
<rscale>  0 0.40354615E+03</rscale>
<asrwt>0</asrwt>
<pdfrwt beam="1">  1        1 0.17803636E+00 0.40354615E+03</pdfrwt>
<pdfrwt beam="2">  1       -1 0.10860321E+00 0.40354615E+03</pdfrwt>
<totfact> 0.10005321E+01</totfact>
</mgrwt>
</event>
<event>
 4    1  0.2731969E-009  0.1472466E+04  0.7818608E-02  0.8902972E-01
         -1   -1    0    0    0  501 -0.00000000000E+00  0.00000000000E+00  0.12600480660E+04  0.12600480660E+04  0.50400000000E-02 0.  1.
          1   -1    0    0  501    0  0.00000000000E+00 -0.00000000000E+00 -0.17522804576E+04  0.17522804576E+04  0.50400000000E-02 0. -1.
    8880022    1    1    2    0    0 -0.13667448586E+04  0.52609178473E+03 -0.43894040094E+02  0.14731199592E+04  0.15294330000E+03 0.  0.
    8880022    1    1    2    0    0  0.13667448586E+04 -0.52609178473E+03 -0.44833835146E+03  0.15392085644E+04  0.15294330000E+03 0.  0.
<mgrwt>
<rscale>  0 0.14724659E+04</rscale>
<asrwt>0</asrwt>
<pdfrwt beam="1">  1        1 0.26958161E+00 0.14724659E+04</pdfrwt>
<pdfrwt beam="2">  1       -1 0.19385355E+00 0.14724659E+04</pdfrwt>
<totfact> 0.69214773E-01</totfact>
</mgrwt>
</event>
<event>
 4    1  0.2731969E-009  0.6376840E+03  0.7818608E-02  0.9830168E-01
         -1   -1    0    0    0  501 -0.00000000000E+00  0.00000000000E+00  0.36016198214E+03  0.36016198217E+03  0.50400000000E-02 0.  1.
          1   -1    0    0  501    0  0.00000000000E+00 -0.00000000000E+00 -0.21688847929E+04  0.21688847929E+04  0.50400000000E-02 0. -1.
    8880022    1    1    2    0    0  0.49587552709E+03 -0.37061668746E+03 -0.28791599053E+02  0.63833367182E+03  0.15294330000E+03 0.  0.
    8880022    1    1    2    0    0 -0.49587552709E+03  0.37061668746E+03 -0.17799312117E+04  0.18907131032E+04  0.15294330000E+03 0. -1.
<mgrwt>
<rscale>  0 0.63768403E+03</rscale>
<asrwt>0</asrwt>
<pdfrwt beam="1">  1        1 0.33367458E+00 0.63768403E+03</pdfrwt>
<pdfrwt beam="2">  1       -1 0.55409537E-01 0.63768403E+03</pdfrwt>
<totfact> 0.80726757E+00</totfact>
</mgrwt>
</event>
<event>
 4    1  0.2731969E-009  0.5127159E+03  0.7818608E-02  0.1010512E+00
          1   -1    0    0  501    0  0.00000000000E+00  0.00000000000E+00  0.65013333544E+03  0.65013333546E+03  0.50400000000E-02 0. -1.
         -1   -1    0    0    0  501 -0.00000000000E+00 -0.00000000000E+00 -0.53186873787E+03  0.53186873790E+03  0.50400000000E-02 0.  1.
    8880022    1    1    2    0    0  0.24447236868E+03  0.42393300763E+03 -0.23025737987E+03  0.56204630415E+03  0.15294330000E+03 0.  0.
    8880022    1    1    2    0    0 -0.24447236868E+03 -0.42393300763E+03  0.34852197744E+03  0.61995576921E+03  0.15294330000E+03 0.  0.
<mgrwt>
<rscale>  0 0.51271589E+03</rscale>
<asrwt>0</asrwt>
<pdfrwt beam="1">  1        1 0.10002051E+00 0.51271589E+03</pdfrwt>
<pdfrwt beam="2">  1       -1 0.81825960E-01 0.51271589E+03</pdfrwt>
<totfact> 0.47483110E+01</totfact>
</mgrwt>
</event>
<event>
 4    1  0.2731969E-009  0.3788468E+03  0.7818608E-02  0.1051361E+00
          1   -1    0    0  501    0  0.00000000000E+00  0.00000000000E+00  0.84129041456E+03  0.84129041457E+03  0.50400000000E-02 0. -1.
         -1   -1    0    0    0  501 -0.00000000000E+00 -0.00000000000E+00 -0.69231687496E+03  0.69231687498E+03  0.50400000000E-02 0.  1.
    8880022    1    1    2    0    0  0.33302177964E+03 -0.96071484722E+02 -0.59116759440E+03  0.70214244536E+03  0.15294330000E+03 0.  0.
    8880022    1    1    2    0    0 -0.33302177964E+03  0.96071484722E+02  0.74014113400E+03  0.83146484420E+03  0.15294330000E+03 0.  0.
<mgrwt>
<rscale>  0 0.37884679E+03</rscale>
<asrwt>0</asrwt>
<pdfrwt beam="1">  1        1 0.12942929E+00 0.37884679E+03</pdfrwt>
<pdfrwt beam="2">  1       -1 0.10651029E+00 0.37884679E+03</pdfrwt>
<totfact> 0.18364852E+01</totfact>
</mgrwt>
</event>
<event>
 4    1  0.2731969E-009  0.2976177E+03  0.7818608E-02  0.1086438E+00
         -1   -1    0    0    0  501 -0.00000000000E+00  0.00000000000E+00  0.42731202847E+03  0.42731202850E+03  0.50400000000E-02 0.  1.
          1   -1    0    0  501    0  0.00000000000E+00 -0.00000000000E+00 -0.32455085443E+03  0.32455085447E+03  0.50400000000E-02 0. -1.
    8880022    1    1    2    0    0  0.18957005642E+03 -0.17102000249E+03 -0.17458850564E+03  0.34504702122E+03  0.15294330000E+03 0.  0.
    8880022    1    1    2    0    0 -0.18957005642E+03  0.17102000249E+03  0.27734967967E+03  0.40681586175E+03  0.15294330000E+03 0.  0.
<mgrwt>
<rscale>  0 0.29761771E+03</rscale>
<asrwt>0</asrwt>
<pdfrwt beam="1">  1        1 0.49930901E-01 0.29761771E+03</pdfrwt>
<pdfrwt beam="2">  1       -1 0.65740312E-01 0.29761771E+03</pdfrwt>
<totfact> 0.19374927E+02</totfact>
</mgrwt>
</event>
<event>
 4    1  0.2731969E-009  0.4626586E+03  0.7818608E-02  0.1024013E+00
          1   -1    0    0  501    0  0.00000000000E+00  0.00000000000E+00  0.97816879620E+03  0.97816879622E+03  0.50400000000E-02 0. -1.
         -1   -1    0    0    0  501 -0.00000000000E+00 -0.00000000000E+00 -0.28499678120E+03  0.28499678124E+03  0.50400000000E-02 0.  1.
    8880022    1    1    2    0    0  0.43316117668E+03 -0.55069897465E+02  0.42266779106E+02  0.46458522600E+03  0.15294330000E+03 0.  0.
    8880022    1    1    2    0    0 -0.43316117668E+03  0.55069897465E+02  0.65090523590E+03  0.79858035145E+03  0.15294330000E+03 0.  0.
<mgrwt>
<rscale>  0 0.46265857E+03</rscale>
<asrwt>0</asrwt>
<pdfrwt beam="1">  1        1 0.15048751E+00 0.46265857E+03</pdfrwt>
<pdfrwt beam="2">  1       -1 0.43845658E-01 0.46265857E+03</pdfrwt>
<totfact> 0.85160263E+01</totfact>
</mgrwt>
</event>
<event>
 4    1  0.2731969E-009  0.2846526E+03  0.7818608E-02  0.1093175E+00
         -1   -1    0    0    0  501 -0.00000000000E+00  0.00000000000E+00  0.10844105715E+03  0.10844105727E+03  0.50400000000E-02 0.  1.
          1   -1    0    0  501    0  0.00000000000E+00 -0.00000000000E+00 -0.29054159046E+04  0.29054159046E+04  0.50400000000E-02 0. -1.
    8880022    1    1    2    0    0 -0.11951148266E+03 -0.20821258842E+03 -0.99706332754E+02  0.30160981793E+03  0.15294330000E+03 0.  0.
    8880022    1    1    2    0    0  0.11951148266E+03  0.20821258842E+03 -0.26972685147E+04  0.27122471439E+04  0.15294330000E+03 0.  0.
<mgrwt>
<rscale>  0 0.28465265E+03</rscale>
<asrwt>0</asrwt>
<pdfrwt beam="1">  1        1 0.44698700E+00 0.28465265E+03</pdfrwt>
<pdfrwt beam="2">  1       -1 0.16683242E-01 0.28465265E+03</pdfrwt>
<totfact> 0.22819336E+01</totfact>
</mgrwt>
</event>
<event>
 4    1  0.2731969E-009  0.7124954E+03  0.7818608E-02  0.9696099E-01
         -1   -1    0    0    0  501 -0.00000000000E+00  0.00000000000E+00  0.48439813569E+03  0.48439813572E+03  0.50400000000E-02 0.  1.
          1   -1    0    0  501    0  0.00000000000E+00 -0.00000000000E+00 -0.19921001054E+04  0.19921001054E+04  0.50400000000E-02 0. -1.
    8880022    1    1    2    0    0 -0.58298902757E+03 -0.37997609244E+03  0.98583992054E+02  0.71928331942E+03  0.15294330000E+03 0.  0.
    8880022    1    1    2    0    0  0.58298902757E+03  0.37997609244E+03 -0.16062859618E+04  0.17572149217E+04  0.15294330000E+03 0.  0.
<mgrwt>
<rscale>  0 0.71249540E+03</rscale>
<asrwt>0</asrwt>
<pdfrwt beam="1">  1        1 0.30647694E+00 0.71249540E+03</pdfrwt>
<pdfrwt beam="2">  1       -1 0.74522791E-01 0.71249540E+03</pdfrwt>
<totfact> 0.57723635E+00</totfact>
</mgrwt>
</event>
<event>
 4    1  0.2731969E-009  0.1043251E+04  0.7818608E-02  0.9262340E-01
         -1   -1    0    0    0  501 -0.00000000000E+00  0.00000000000E+00  0.59734913741E+03  0.59734913743E+03  0.50400000000E-02 0.  1.
          1   -1    0    0  501    0  0.00000000000E+00 -0.00000000000E+00 -0.26165390985E+04  0.26165390985E+04  0.50400000000E-02 0. -1.
    8880022    1    1    2    0    0  0.55177090279E+03 -0.87208316810E+03 -0.18951060939E+04  0.21632842951E+04  0.15294330000E+03 0.  0.
    8880022    1    1    2    0    0 -0.55177090279E+03  0.87208316810E+03 -0.12408386711E+03  0.10506039408E+04  0.15294330000E+03 0.  0.
<mgrwt>
<rscale>  0 0.10432506E+04</rscale>
<asrwt>0</asrwt>
<pdfrwt beam="1">  1        1 0.40254447E+00 0.10432506E+04</pdfrwt>
<pdfrwt beam="2">  1       -1 0.91899868E-01 0.10432506E+04</pdfrwt>
<totfact> 0.13136485E+00</totfact>
</mgrwt>
</event>
<event>
 4    1  0.2731969E-009  0.1288166E+04  0.7818608E-02  0.9039003E-01
         -1   -1    0    0    0  501 -0.00000000000E+00  0.00000000000E+00  0.76728962941E+03  0.76728962943E+03  0.50400000000E-02 0.  1.
          1   -1    0    0  501    0  0.00000000000E+00 -0.00000000000E+00 -0.24838820660E+04  0.24838820660E+04  0.50400000000E-02 0. -1.
    8880022    1    1    2    0    0  0.10472411110E+04  0.73434695784E+03 -0.14428988933E+04  0.19342513457E+04  0.15294330000E+03 0.  0.
    8880022    1    1    2    0    0 -0.10472411110E+04 -0.73434695784E+03 -0.27369354333E+03  0.13169203498E+04  0.15294330000E+03 0.  0.
<mgrwt>
<rscale>  0 0.12881658E+04</rscale>
<asrwt>0</asrwt>
<pdfrwt beam="1">  1        1 0.38213570E+00 0.12881658E+04</pdfrwt>
<pdfrwt beam="2">  1       -1 0.11804456E+00 0.12881658E+04</pdfrwt>
<totfact> 0.87558767E-01</totfact>
</mgrwt>
</event>
<event>
 4    1  0.2731969E-009  0.4067820E+03  0.7818608E-02  0.1041456E+00
          1   -1    0    0  501    0  0.00000000000E+00  0.00000000000E+00  0.41025728012E+03  0.41025728016E+03  0.50400000000E-02 0. -1.
         -1   -1    0    0    0  501 -0.00000000000E+00 -0.00000000000E+00 -0.85430119223E+03  0.85430119225E+03  0.50400000000E-02 0.  1.
    8880022    1    1    2    0    0 -0.14830372903E+03  0.34653417615E+03 -0.68140489463E+03  0.79358944973E+03  0.15294330000E+03 0.  0.
    8880022    1    1    2    0    0  0.14830372903E+03 -0.34653417615E+03  0.23736098252E+03  0.47096902268E+03  0.15294330000E+03 0.  0.
<mgrwt>
<rscale>  0 0.40678199E+03</rscale>
<asrwt>0</asrwt>
<pdfrwt beam="1">  1        1 0.63116505E-01 0.40678199E+03</pdfrwt>
<pdfrwt beam="2">  1       -1 0.13143095E+00 0.40678199E+03</pdfrwt>
<totfact> 0.30589263E+01</totfact>
</mgrwt>
</event>
<event>
 4    1  0.2731969E-009  0.4130766E+03  0.7818608E-02  0.1039343E+00
         -1   -1    0    0    0  501 -0.00000000000E+00  0.00000000000E+00  0.11454361440E+03  0.11454361451E+03  0.50400000000E-02 0.  1.
          1   -1    0    0  501    0  0.00000000000E+00 -0.00000000000E+00 -0.18623510200E+04  0.18623510200E+04  0.50400000000E-02 0. -1.
    8880022    1    1    2    0    0 -0.12632058817E+03  0.36233094668E+03 -0.43173192064E+03  0.59751544769E+03  0.15294330000E+03 0.  0.
    8880022    1    1    2    0    0  0.12632058817E+03 -0.36233094668E+03 -0.13160754850E+04  0.13793791868E+04  0.15294330000E+03 0.  0.
<mgrwt>
<rscale>  0 0.41307658E+03</rscale>
<asrwt>0</asrwt>
<pdfrwt beam="1">  1        1 0.28651552E+00 0.41307658E+03</pdfrwt>
<pdfrwt beam="2">  1       -1 0.17622096E-01 0.41307658E+03</pdfrwt>
<totfact> 0.10022623E+02</totfact>
</mgrwt>
</event>
<event>
 4    1  0.2731969E-009  0.8279580E+03  0.7818608E-02  0.9520408E-01
          1   -1    0    0  501    0  0.00000000000E+00  0.00000000000E+00  0.12819726205E+04  0.12819726205E+04  0.50400000000E-02 0. -1.
         -1   -1    0    0    0  501 -0.00000000000E+00 -0.00000000000E+00 -0.12582659539E+04  0.12582659540E+04  0.50400000000E-02 0.  1.
    8880022    1    1    2    0    0  0.41267923655E+03 -0.70129781681E+03 -0.95128157977E+03  0.12611308723E+04  0.15294330000E+03 0.  0.
    8880022    1    1    2    0    0 -0.41267923655E+03  0.70129781681E+03  0.97498824636E+03  0.12791077022E+04  0.15294330000E+03 0.  0.
<mgrwt>
<rscale>  0 0.82795799E+03</rscale>
<asrwt>0</asrwt>
<pdfrwt beam="1">  1        1 0.19722656E+00 0.82795799E+03</pdfrwt>
<pdfrwt beam="2">  1       -1 0.19357938E+00 0.82795799E+03</pdfrwt>
<totfact> 0.16046310E+00</totfact>
</mgrwt>
</event>
<event>
 4    1  0.2731969E-009  0.3527076E+03  0.7818608E-02  0.1061509E+00
          1   -1    0    0  501    0  0.00000000000E+00  0.00000000000E+00  0.13337819959E+04  0.13337819959E+04  0.50400000000E-02 0. -1.
         -1   -1    0    0    0  501 -0.00000000000E+00 -0.00000000000E+00 -0.19106143897E+03  0.19106143903E+03  0.50400000000E-02 0.  1.
    8880022    1    1    2    0    0  0.45262649669E+02  0.31458275817E+03  0.11168138385E+04  0.11711856480E+04  0.15294330000E+03 0.  0.
    8880022    1    1    2    0    0 -0.45262649669E+02 -0.31458275817E+03  0.25906718434E+02  0.35365778695E+03  0.15294330000E+03 0.  0.
<mgrwt>
<rscale>  0 0.35270763E+03</rscale>
<asrwt>0</asrwt>
<pdfrwt beam="1">  1        1 0.20519722E+00 0.35270763E+03</pdfrwt>
<pdfrwt beam="2">  1       -1 0.29394069E-01 0.35270763E+03</pdfrwt>
<totfact> 0.97301192E+01</totfact>
</mgrwt>
</event>
<event>
 4    1  0.2731969E-009  0.6932767E+03  0.7818608E-02  0.9728799E-01
         -1   -1    0    0    0  501 -0.00000000000E+00  0.00000000000E+00  0.85814419124E+03  0.85814419125E+03  0.50400000000E-02 0.  1.
          1   -1    0    0  501    0  0.00000000000E+00 -0.00000000000E+00 -0.17589329792E+04  0.17589329792E+04  0.50400000000E-02 0. -1.
    8880022    1    1    2    0    0 -0.12194965787E+03  0.66510845958E+03  0.62990508772E+03  0.93670329059E+03  0.15294330000E+03 0.  0.
    8880022    1    1    2    0    0  0.12194965787E+03 -0.66510845958E+03 -0.15306938757E+04  0.16803738798E+04  0.15294330000E+03 0.  0.
<mgrwt>
<rscale>  0 0.69327674E+03</rscale>
<asrwt>0</asrwt>
<pdfrwt beam="1">  1        1 0.27060507E+00 0.69327674E+03</pdfrwt>
<pdfrwt beam="2">  1       -1 0.13202218E+00 0.69327674E+03</pdfrwt>
<totfact> 0.22501718E+00</totfact>
</mgrwt>
</event>
<event>
 4    1  0.2731969E-009  0.1218033E+04  0.7818608E-02  0.9097217E-01
          1   -1    0    0  501    0  0.00000000000E+00  0.00000000000E+00  0.31458442889E+04  0.31458442889E+04  0.50400000000E-02 0. -1.
         -1   -1    0    0    0  501 -0.00000000000E+00 -0.00000000000E+00 -0.68577246432E+03  0.68577246434E+03  0.50400000000E-02 0.  1.
    8880022    1    1    2    0    0 -0.10282140296E+04  0.63481430479E+03  0.23006572066E+04  0.26031958296E+04  0.15294330000E+03 0.  0.
    8880022    1    1    2    0    0  0.10282140296E+04 -0.63481430479E+03  0.15941461803E+03  0.12284209236E+04  0.15294330000E+03 0.  0.
<mgrwt>
<rscale>  0 0.12180332E+04</rscale>
<asrwt>0</asrwt>
<pdfrwt beam="1">  1        1 0.48397604E+00 0.12180332E+04</pdfrwt>
<pdfrwt beam="2">  1       -1 0.10550346E+00 0.12180332E+04</pdfrwt>
<totfact> 0.39094181E-01</totfact>
</mgrwt>
</event>
<event>
 4    1  0.2731969E-009  0.4694885E+03  0.7818608E-02  0.1022065E+00
          1   -1    0    0  501    0  0.00000000000E+00  0.00000000000E+00  0.18001584137E+04  0.18001584137E+04  0.50400000000E-02 0. -1.
         -1   -1    0    0    0  501 -0.00000000000E+00 -0.00000000000E+00 -0.36398571071E+03  0.36398571075E+03  0.50400000000E-02 0.  1.
    8880022    1    1    2    0    0  0.71237712110E+02 -0.43812438737E+03 -0.16338796560E+03  0.49710669957E+03  0.15294330000E+03 0.  0.
    8880022    1    1    2    0    0 -0.71237712110E+02  0.43812438737E+03  0.15995606686E+04  0.16670374249E+04  0.15294330000E+03 0.  0.
<mgrwt>
<rscale>  0 0.46948849E+03</rscale>
<asrwt>0</asrwt>
<pdfrwt beam="1">  1        1 0.27694745E+00 0.46948849E+03</pdfrwt>
<pdfrwt beam="2">  1       -1 0.55997801E-01 0.46948849E+03</pdfrwt>
<totfact> 0.14410821E+01</totfact>
</mgrwt>
</event>
<event>
 4    1  0.2731969E-009  0.1068059E+04  0.7818608E-02  0.9236895E-01
          1   -1    0    0  501    0  0.00000000000E+00  0.00000000000E+00  0.93978377542E+03  0.93978377544E+03  0.50400000000E-02 0. -1.
         -1   -1    0    0    0  501 -0.00000000000E+00 -0.00000000000E+00 -0.20865051077E+04  0.20865051077E+04  0.50400000000E-02 0.  1.
    8880022    1    1    2    0    0 -0.10194210541E+04 -0.27953307154E+03  0.40521360807E+03  0.11423430942E+04  0.15294330000E+03 0.  0.
    8880022    1    1    2    0    0  0.10194210541E+04  0.27953307154E+03 -0.15519349404E+04  0.18839457890E+04  0.15294330000E+03 0.  0.
<mgrwt>
<rscale>  0 0.10680588E+04</rscale>
<asrwt>0</asrwt>
<pdfrwt beam="1">  1        1 0.14458212E+00 0.10680588E+04</pdfrwt>
<pdfrwt beam="2">  1       -1 0.32100079E+00 0.10680588E+04</pdfrwt>
<totfact> 0.40964096E-01</totfact>
</mgrwt>
</event>
<event>
 4    1  0.2731969E-009  0.2395260E+03  0.7818608E-02  0.1120109E+00
          1   -1    0    0  501    0  0.00000000000E+00  0.00000000000E+00  0.50525848761E+03  0.50525848763E+03  0.50400000000E-02 0. -1.
         -1   -1    0    0    0  501 -0.00000000000E+00 -0.00000000000E+00 -0.44780404689E+03  0.44780404692E+03  0.50400000000E-02 0.  1.
    8880022    1    1    2    0    0  0.44571864734E+01  0.18428557264E+03 -0.38297667162E+03  0.45171210169E+03  0.15294330000E+03 0.  1.
    8880022    1    1    2    0    0 -0.44571864734E+01 -0.18428557264E+03  0.44043111234E+03  0.50135043286E+03  0.15294330000E+03 0.  0.
<mgrwt>
<rscale>  0 0.23952597E+03</rscale>
<asrwt>0</asrwt>
<pdfrwt beam="1">  1        1 0.77732075E-01 0.23952597E+03</pdfrwt>
<pdfrwt beam="2">  1       -1 0.68892931E-01 0.23952597E+03</pdfrwt>
<totfact> 0.10040245E+02</totfact>
</mgrwt>
</event>
<event>
 4    1  0.2731969E-009  0.4427137E+03  0.7818608E-02  0.1029917E+00
          1   -1    0    0  501    0  0.00000000000E+00  0.00000000000E+00  0.15760066641E+04  0.15760066641E+04  0.50400000000E-02 0. -1.
         -1   -1    0    0    0  501 -0.00000000000E+00 -0.00000000000E+00 -0.26644122520E+03  0.26644122525E+03  0.50400000000E-02 0.  1.
    8880022    1    1    2    0    0  0.17193382728E+03 -0.37820960984E+03 -0.17930150574E+02  0.44307662232E+03  0.15294330000E+03 0.  0.
    8880022    1    1    2    0    0 -0.17193382728E+03  0.37820960984E+03  0.13274955894E+04  0.13993712670E+04  0.15294330000E+03 0.  0.
<mgrwt>
<rscale>  0 0.44271368E+03</rscale>
<asrwt>0</asrwt>
<pdfrwt beam="1">  1        1 0.24246256E+00 0.44271368E+03</pdfrwt>
<pdfrwt beam="2">  1       -1 0.40990958E-01 0.44271368E+03</pdfrwt>
<totfact> 0.36518893E+01</totfact>
</mgrwt>
</event>
<event>
 4    1  0.2731969E-009  0.6513694E+03  0.7818608E-02  0.9804213E-01
          1   -1    0    0  501    0  0.00000000000E+00  0.00000000000E+00  0.75030285890E+03  0.75030285892E+03  0.50400000000E-02 0. -1.
         -1   -1    0    0    0  501 -0.00000000000E+00 -0.00000000000E+00 -0.76258745401E+03  0.76258745403E+03  0.50400000000E-02 0.  1.
    8880022    1    1    2    0    0 -0.56785439430E+03  0.28005678003E+03 -0.39071898987E+03  0.75956790035E+03  0.15294330000E+03 0.  0.
    8880022    1    1    2    0    0  0.56785439430E+03 -0.28005678003E+03  0.37843439477E+03  0.75332241260E+03  0.15294330000E+03 0.  0.
<mgrwt>
<rscale>  0 0.65136938E+03</rscale>
<asrwt>0</asrwt>
<pdfrwt beam="1">  1        1 0.11543121E+00 0.65136938E+03</pdfrwt>
<pdfrwt beam="2">  1       -1 0.11732115E+00 0.65136938E+03</pdfrwt>
<totfact> 0.16671033E+01</totfact>
</mgrwt>
</event>
<event>
 4    1  0.2731969E-009  0.5631671E+03  0.7818608E-02  0.9984914E-01
         -1   -1    0    0    0  501 -0.00000000000E+00  0.00000000000E+00  0.52312431464E+03  0.52312431467E+03  0.50400000000E-02 0.  1.
          1   -1    0    0  501    0  0.00000000000E+00 -0.00000000000E+00 -0.10800346610E+04  0.10800346610E+04  0.50400000000E-02 0. -1.
    8880022    1    1    2    0    0 -0.54192047245E+03  0.93663292676E+01  0.25243758435E+03  0.61715631212E+03  0.15294330000E+03 0.  0.
    8880022    1    1    2    0    0  0.54192047245E+03 -0.93663292676E+01 -0.80934793068E+03  0.98600266354E+03  0.15294330000E+03 0.  0.
<mgrwt>
<rscale>  0 0.56316710E+03</rscale>
<asrwt>0</asrwt>
<pdfrwt beam="1">  1        1 0.16615918E+00 0.56316710E+03</pdfrwt>
<pdfrwt beam="2">  1       -1 0.80480664E-01 0.56316710E+03</pdfrwt>
<totfact> 0.21372985E+01</totfact>
</mgrwt>
</event>
<event>
 4    1  0.2731969E-009  0.8076646E+03  0.7818608E-02  0.9548989E-01
         -1   -1    0    0    0  501 -0.00000000000E+00  0.00000000000E+00  0.58646223719E+03  0.58646223721E+03  0.50400000000E-02 0.  1.
          1   -1    0    0  501    0  0.00000000000E+00 -0.00000000000E+00 -0.20379781192E+04  0.20379781193E+04  0.50400000000E-02 0. -1.
    8880022    1    1    2    0    0  0.76835582970E+03  0.19636653226E+03 -0.16101337843E+04  0.18013475379E+04  0.15294330000E+03 0.  0.
    8880022    1    1    2    0    0 -0.76835582970E+03 -0.19636653226E+03  0.15861790223E+03  0.82309281855E+03  0.15294330000E+03 0.  0.
<mgrwt>
<rscale>  0 0.80766463E+03</rscale>
<asrwt>0</asrwt>
<pdfrwt beam="1">  1        1 0.31353509E+00 0.80766463E+03</pdfrwt>
<pdfrwt beam="2">  1       -1 0.90224961E-01 0.80766463E+03</pdfrwt>
<totfact> 0.35140065E+00</totfact>
</mgrwt>
</event>
<event>
 4    1  0.2731969E-009  0.1015420E+04  0.7818608E-02  0.9291792E-01
          1   -1    0    0  501    0  0.00000000000E+00  0.00000000000E+00  0.89077002539E+03  0.89077002541E+03  0.50400000000E-02 0. -1.
         -1   -1    0    0    0  501 -0.00000000000E+00 -0.00000000000E+00 -0.12433452981E+04  0.12433452981E+04  0.50400000000E-02 0.  1.
    8880022    1    1    2    0    0  0.50007947336E+03  0.87040577309E+03 -0.45664948808E+03  0.11133759911E+04  0.15294330000E+03 0.  0.
    8880022    1    1    2    0    0 -0.50007947336E+03 -0.87040577309E+03  0.10407421537E+03  0.10207393325E+04  0.15294330000E+03 0.  0.
<mgrwt>
<rscale>  0 0.10154198E+04</rscale>
<asrwt>0</asrwt>
<pdfrwt beam="1">  1        1 0.13704154E+00 0.10154198E+04</pdfrwt>
<pdfrwt beam="2">  1       -1 0.19128389E+00 0.10154198E+04</pdfrwt>
<totfact> 0.32105546E+00</totfact>
</mgrwt>
</event>
<event>
 4    1  0.2731969E-009  0.3669939E+03  0.7818608E-02  0.1055848E+00
         -1   -1    0    0    0  501 -0.00000000000E+00  0.00000000000E+00  0.41857762664E+03  0.41857762667E+03  0.50400000000E-02 0.  1.
          1   -1    0    0  501    0  0.00000000000E+00 -0.00000000000E+00 -0.16858991515E+04  0.16858991515E+04  0.50400000000E-02 0. -1.
    8880022    1    1    2    0    0  0.18454941724E+03  0.27791071070E+03 -0.15801737006E+04  0.16222310032E+04  0.15294330000E+03 0.  0.
    8880022    1    1    2    0    0 -0.18454941724E+03 -0.27791071070E+03  0.31285217581E+03  0.48224577494E+03  0.15294330000E+03 0.  0.
<mgrwt>
<rscale>  0 0.36699387E+03</rscale>
<asrwt>0</asrwt>
<pdfrwt beam="1">  1        1 0.25936910E+00 0.36699387E+03</pdfrwt>
<pdfrwt beam="2">  1       -1 0.64396559E-01 0.36699387E+03</pdfrwt>
<totfact> 0.13430238E+01</totfact>
</mgrwt>
</event>
<event>
 4    1  0.2731969E-009  0.7792948E+03  0.7818608E-02  0.9590480E-01
         -1   -1    0    0    0  501 -0.00000000000E+00  0.00000000000E+00  0.19992422249E+03  0.19992422256E+03  0.50400000000E-02 0.  1.
          1   -1    0    0  501    0  0.00000000000E+00 -0.00000000000E+00 -0.37805571841E+04  0.37805571841E+04  0.50400000000E-02 0. -1.
    8880022    1    1    2    0    0  0.16269821905E+03 -0.74661775885E+03 -0.90806161775E+03  0.11966103555E+04  0.15294330000E+03 0.  0.
    8880022    1    1    2    0    0 -0.16269821905E+03  0.74661775885E+03 -0.26725713439E+04  0.27838710512E+04  0.15294330000E+03 0.  0.
<mgrwt>
<rscale>  0 0.77929484E+03</rscale>
<asrwt>0</asrwt>
<pdfrwt beam="1">  1        1 0.58162413E+00 0.77929484E+03</pdfrwt>
<pdfrwt beam="2">  1       -1 0.30757576E-01 0.77929484E+03</pdfrwt>
<totfact> 0.15724286E+00</totfact>
</mgrwt>
</event>
<event>
 4    1  0.2731969E-009  0.5898103E+03  0.7818608E-02  0.9926775E-01
         -1   -1    0    0    0  501 -0.00000000000E+00  0.00000000000E+00  0.69825068089E+03  0.69825068091E+03  0.50400000000E-02 0.  1.
          1   -1    0    0  501    0  0.00000000000E+00 -0.00000000000E+00 -0.64763235401E+03  0.64763235403E+03  0.50400000000E-02 0. -1.
    8880022    1    1    2    0    0  0.56963107253E+03 -0.22293000187E+01 -0.29792656905E+03  0.66078470180E+03  0.15294330000E+03 0.  0.
    8880022    1    1    2    0    0 -0.56963107253E+03  0.22293000187E+01  0.34854489593E+03  0.68509833314E+03  0.15294330000E+03 0.  0.
<mgrwt>
<rscale>  0 0.58981029E+03</rscale>
<asrwt>0</asrwt>
<pdfrwt beam="1">  1        1 0.99635746E-01 0.58981029E+03</pdfrwt>
<pdfrwt beam="2">  1       -1 0.10742318E+00 0.58981029E+03</pdfrwt>
<totfact> 0.25829793E+01</totfact>
</mgrwt>
</event>
<event>
 4    1  0.2731969E-009  0.3418555E+03  0.7818608E-02  0.1066008E+00
         -1   -1    0    0    0  501 -0.00000000000E+00  0.00000000000E+00  0.82029863052E+03  0.82029863054E+03  0.50400000000E-02 0.  1.
          1   -1    0    0  501    0  0.00000000000E+00 -0.00000000000E+00 -0.61977726378E+03  0.61977726380E+03  0.50400000000E-02 0. -1.
    8880022    1    1    2    0    0 -0.27139657446E+03  0.14077446151E+03 -0.53162440703E+03  0.63205198584E+03  0.15294330000E+03 0.  0.
    8880022    1    1    2    0    0  0.27139657446E+03 -0.14077446151E+03  0.73214577377E+03  0.80802390850E+03  0.15294330000E+03 0.  0.
<mgrwt>
<rscale>  0 0.34185553E+03</rscale>
<asrwt>0</asrwt>
<pdfrwt beam="1">  1        1 0.95350348E-01 0.34185553E+03</pdfrwt>
<pdfrwt beam="2">  1       -1 0.12619979E+00 0.34185553E+03</pdfrwt>
<totfact> 0.19606111E+01</totfact>
</mgrwt>
</event>
<event>
 4    1  0.2731969E-009  0.5436065E+03  0.7818608E-02  0.1002985E+00
          1   -1    0    0  501    0  0.00000000000E+00  0.00000000000E+00  0.21481824874E+04  0.21481824874E+04  0.50400000000E-02 0. -1.
         -1   -1    0    0    0  501 -0.00000000000E+00 -0.00000000000E+00 -0.13133085512E+04  0.13133085512E+04  0.50400000000E-02 0.  1.
    8880022    1    1    2    0    0  0.20761492169E+03  0.47855246658E+03 -0.12201587893E+04  0.13357752592E+04  0.15294330000E+03 0.  0.
    8880022    1    1    2    0    0 -0.20761492169E+03 -0.47855246658E+03  0.20550327254E+04  0.21257157794E+04  0.15294330000E+03 0.  0.
<mgrwt>
<rscale>  0 0.54360654E+03</rscale>
<asrwt>0</asrwt>
<pdfrwt beam="1">  1        1 0.33048961E+00 0.54360654E+03</pdfrwt>
<pdfrwt beam="2">  1       -1 0.20204747E+00 0.54360654E+03</pdfrwt>
<totfact> 0.39058088E-01</totfact>
</mgrwt>
</event>
<event>
 4    1  0.2731969E-009  0.1803763E+04  0.7818608E-02  0.8704301E-01
          1   -1    0    0  501    0  0.00000000000E+00  0.00000000000E+00  0.27889377805E+04  0.27889377805E+04  0.50400000000E-02 0. -1.
         -1   -1    0    0    0  501 -0.00000000000E+00 -0.00000000000E+00 -0.27482446851E+04  0.27482446851E+04  0.50400000000E-02 0.  1.
    8880022    1    1    2    0    0 -0.14450839519E+04 -0.10685985316E+04 -0.20799771373E+04  0.27531558246E+04  0.15294330000E+03 0.  0.
    8880022    1    1    2    0    0  0.14450839519E+04  0.10685985316E+04  0.21206702326E+04  0.27840266411E+04  0.15294330000E+03 0.  0.
<mgrwt>
<rscale>  0 0.18037633E+04</rscale>
<asrwt>0</asrwt>
<pdfrwt beam="1">  1        1 0.42906735E+00 0.18037633E+04</pdfrwt>
<pdfrwt beam="2">  1       -1 0.42280687E+00 0.18037633E+04</pdfrwt>
<totfact> 0.38202858E-03</totfact>
</mgrwt>
</event>
<event>
 4    1  0.2731969E-009  0.4894500E+03  0.7818608E-02  0.1016570E+00
          1   -1    0    0  501    0  0.00000000000E+00  0.00000000000E+00  0.27799580985E+03  0.27799580989E+03  0.50400000000E-02 0. -1.
         -1   -1    0    0    0  501 -0.00000000000E+00 -0.00000000000E+00 -0.10199310285E+04  0.10199310285E+04  0.50400000000E-02 0.  1.
    8880022    1    1    2    0    0 -0.45472085762E+03 -0.96946314084E+02 -0.62654348880E+03  0.79505851517E+03  0.15294330000E+03 0.  0.
    8880022    1    1    2    0    0  0.45472085762E+03  0.96946314084E+02 -0.11539172984E+03  0.50286832322E+03  0.15294330000E+03 0.  0.
<mgrwt>
<rscale>  0 0.48945000E+03</rscale>
<asrwt>0</asrwt>
<pdfrwt beam="1">  1        1 0.42768587E-01 0.48945000E+03</pdfrwt>
<pdfrwt beam="2">  1       -1 0.15691246E+00 0.48945000E+03</pdfrwt>
<totfact> 0.31450135E+01</totfact>
</mgrwt>
</event>
<event>
 4    1  0.2731969E-009  0.1315654E+04  0.7818608E-02  0.9017243E-01
          1   -1    0    0  501    0  0.00000000000E+00  0.00000000000E+00  0.28039971490E+04  0.28039971490E+04  0.50400000000E-02 0. -1.
         -1   -1    0    0    0  501 -0.00000000000E+00 -0.00000000000E+00 -0.12491273463E+04  0.12491273463E+04  0.50400000000E-02 0.  1.
    8880022    1    1    2    0    0 -0.12588992304E+04 -0.35032323620E+03  0.22187241913E+04  0.25794732664E+04  0.15294330000E+03 0.  0.
    8880022    1    1    2    0    0  0.12588992304E+04  0.35032323620E+03 -0.66385438863E+03  0.14736512289E+04  0.15294330000E+03 0.  0.
<mgrwt>
<rscale>  0 0.13156539E+04</rscale>
<asrwt>0</asrwt>
<pdfrwt beam="1">  1        1 0.43138417E+00 0.13156539E+04</pdfrwt>
<pdfrwt beam="2">  1       -1 0.19217344E+00 0.13156539E+04</pdfrwt>
<totfact> 0.13721778E-01</totfact>
</mgrwt>
</event>
<event>
 4    1  0.2731969E-009  0.1435189E+04  0.7818608E-02  0.8928734E-01
         -1   -1    0    0    0  501 -0.00000000000E+00  0.00000000000E+00  0.11117579621E+04  0.11117579621E+04  0.50400000000E-02 0.  1.
          1   -1    0    0  501    0  0.00000000000E+00 -0.00000000000E+00 -0.24370958062E+04  0.24370958062E+04  0.50400000000E-02 0. -1.
    8880022    1    1    2    0    0 -0.55176786398E+03  0.13160268620E+04  0.20623406612E+03  0.14499305571E+04  0.15294330000E+03 0.  0.
    8880022    1    1    2    0    0  0.55176786398E+03 -0.13160268620E+04 -0.15315719102E+04  0.20989232112E+04  0.15294330000E+03 0.  0.
<mgrwt>
<rscale>  0 0.14351885E+04</rscale>
<asrwt>0</asrwt>
<pdfrwt beam="1">  1        1 0.37493782E+00 0.14351885E+04</pdfrwt>
<pdfrwt beam="2">  1       -1 0.17103969E+00 0.14351885E+04</pdfrwt>
<totfact> 0.34582283E-01</totfact>
</mgrwt>
</event>
<event>
 4    1  0.2731969E-009  0.4366545E+03  0.7818608E-02  0.1031778E+00
          1   -1    0    0  501    0  0.00000000000E+00  0.00000000000E+00  0.55251008508E+03  0.55251008511E+03  0.50400000000E-02 0. -1.
         -1   -1    0    0    0  501 -0.00000000000E+00 -0.00000000000E+00 -0.14495030529E+04  0.14495030529E+04  0.50400000000E-02 0.  1.
    8880022    1    1    2    0    0  0.40409033750E+03  0.63139047791E+02 -0.13222573632E+04  0.13924911948E+04  0.15294330000E+03 0.  0.
    8880022    1    1    2    0    0 -0.40409033750E+03 -0.63139047791E+02  0.42526439537E+03  0.60952194317E+03  0.15294330000E+03 0.  0.
<mgrwt>
<rscale>  0 0.43665455E+03</rscale>
<asrwt>0</asrwt>
<pdfrwt beam="1">  1        1 0.85001552E-01 0.43665455E+03</pdfrwt>
<pdfrwt beam="2">  1       -1 0.22300047E+00 0.43665455E+03</pdfrwt>
<totfact> 0.44726820E+00</totfact>
</mgrwt>
</event>
<event>
 4    1  0.2731969E-009  0.8831142E+03  0.7818608E-02  0.9446939E-01
          1   -1    0    0  501    0  0.00000000000E+00  0.00000000000E+00  0.14725795559E+04  0.14725795560E+04  0.50400000000E-02 0. -1.
         -1   -1    0    0    0  501 -0.00000000000E+00 -0.00000000000E+00 -0.10016258984E+04  0.10016258985E+04  0.50400000000E-02 0.  1.
    8880022    1    1    2    0    0 -0.70930594319E+03  0.50337280510E+03  0.10847198022E+04  0.13987522312E+04  0.15294330000E+03 0.  0.
    8880022    1    1    2    0    0  0.70930594319E+03 -0.50337280510E+03 -0.61376614469E+03  0.10754532232E+04  0.15294330000E+03 0.  0.
<mgrwt>
<rscale>  0 0.88311424E+03</rscale>
<asrwt>0</asrwt>
<pdfrwt beam="1">  1        1 0.22655070E+00 0.88311424E+03</pdfrwt>
<pdfrwt beam="2">  1       -1 0.15409629E+00 0.88311424E+03</pdfrwt>
<totfact> 0.22665100E+00</totfact>
</mgrwt>
</event>
<event>
 4    1  0.2731969E-009  0.6783401E+03  0.7818608E-02  0.9755008E-01
         -1   -1    0    0    0  501 -0.00000000000E+00  0.00000000000E+00  0.38140090857E+03  0.38140090860E+03  0.50400000000E-02 0.  1.
          1   -1    0    0  501    0  0.00000000000E+00 -0.00000000000E+00 -0.16322864379E+04  0.16322864379E+04  0.50400000000E-02 0. -1.
    8880022    1    1    2    0    0 -0.39938931926E+03 -0.52653753924E+03 -0.11118632310E+03  0.68739192607E+03  0.15294330000E+03 0.  0.
    8880022    1    1    2    0    0  0.39938931926E+03  0.52653753924E+03 -0.11396992062E+04  0.13262954204E+04  0.15294330000E+03 0.  0.
<mgrwt>
<rscale>  0 0.67834008E+03</rscale>
<asrwt>0</asrwt>
<pdfrwt beam="1">  1        1 0.25112099E+00 0.67834008E+03</pdfrwt>
<pdfrwt beam="2">  1       -1 0.58677064E-01 0.67834008E+03</pdfrwt>
<totfact> 0.16365962E+01</totfact>
</mgrwt>
</event>
<event>
 4    1  0.2731969E-009  0.1123594E+04  0.7818608E-02  0.9182496E-01
          1   -1    0    0  501    0  0.00000000000E+00  0.00000000000E+00  0.20497021530E+04  0.20497021530E+04  0.50400000000E-02 0. -1.
         -1   -1    0    0    0  501 -0.00000000000E+00 -0.00000000000E+00 -0.90013871677E+03  0.90013871678E+03  0.50400000000E-02 0.  1.
    8880022    1    1    2    0    0  0.78920569964E+03  0.78500046940E+03  0.14035560728E+04  0.17978967367E+04  0.15294330000E+03 0.  0.
    8880022    1    1    2    0    0 -0.78920569964E+03 -0.78500046940E+03 -0.25399263659E+03  0.11519441331E+04  0.15294330000E+03 0.  0.
<mgrwt>
<rscale>  0 0.11235938E+04</rscale>
<asrwt>0</asrwt>
<pdfrwt beam="1">  1        1 0.31533880E+00 0.11235938E+04</pdfrwt>
<pdfrwt beam="2">  1       -1 0.13848288E+00 0.11235938E+04</pdfrwt>
<totfact> 0.11815777E+00</totfact>
</mgrwt>
</event>
<event>
 4    1  0.2731969E-009  0.1432587E+04  0.7818608E-02  0.8930563E-01
         -1   -1    0    0    0  501 -0.00000000000E+00  0.00000000000E+00  0.14202930202E+04  0.14202930203E+04  0.50400000000E-02 0.  1.
          1   -1    0    0  501    0  0.00000000000E+00 -0.00000000000E+00 -0.21815789889E+04  0.21815789889E+04  0.50400000000E-02 0. -1.
    8880022    1    1    2    0    0  0.14155928441E+04  0.15814423788E+03  0.66582616397E+03  0.15797559412E+04  0.15294330000E+03 0.  0.
    8880022    1    1    2    0    0 -0.14155928441E+04 -0.15814423788E+03 -0.14271121326E+04  0.20221160680E+04  0.15294330000E+03 0.  0.
<mgrwt>
<rscale>  0 0.14325866E+04</rscale>
<asrwt>0</asrwt>
<pdfrwt beam="1">  1        1 0.33562754E+00 0.14325866E+04</pdfrwt>
<pdfrwt beam="2">  1       -1 0.21850662E+00 0.14325866E+04</pdfrwt>
<totfact> 0.24045359E-01</totfact>
</mgrwt>
</event>
<event>
 4    1  0.2731969E-009  0.1129805E+04  0.7818608E-02  0.9176619E-01
         -1   -1    0    0    0  501 -0.00000000000E+00  0.00000000000E+00  0.14998647610E+04  0.14998647610E+04  0.50400000000E-02 0.  1.
          1   -1    0    0  501    0  0.00000000000E+00 -0.00000000000E+00 -0.18190929749E+04  0.18190929749E+04  0.50400000000E-02 0. -1.
    8880022    1    1    2    0    0 -0.54049641742E+03 -0.98027130210E+03  0.10509606235E+04  0.15430418297E+04  0.15294330000E+03 0.  0.
    8880022    1    1    2    0    0  0.54049641742E+03  0.98027130210E+03 -0.13701888374E+04  0.17759159063E+04  0.15294330000E+03 0.  0.
<mgrwt>
<rscale>  0 0.11298052E+04</rscale>
<asrwt>0</asrwt>
<pdfrwt beam="1">  1        1 0.27986046E+00 0.11298052E+04</pdfrwt>
<pdfrwt beam="2">  1       -1 0.23074842E+00 0.11298052E+04</pdfrwt>
<totfact> 0.36584352E-01</totfact>
</mgrwt>
</event>
<event>
 4    1  0.2731969E-009  0.2754599E+03  0.7818608E-02  0.1098195E+00
          1   -1    0    0  501    0  0.00000000000E+00  0.00000000000E+00  0.36456992669E+03  0.36456992672E+03  0.50400000000E-02 0. -1.
         -1   -1    0    0    0  501 -0.00000000000E+00 -0.00000000000E+00 -0.89652519057E+03  0.89652519058E+03  0.50400000000E-02 0.  1.
    8880022    1    1    2    0    0 -0.20849286816E+02  0.22814870969E+03  0.28655165852E+03  0.39747960012E+03  0.15294330000E+03 0. -1.
    8880022    1    1    2    0    0  0.20849286816E+02 -0.22814870969E+03 -0.81850692240E+03  0.86361551719E+03  0.15294330000E+03 0.  0.
<mgrwt>
<rscale>  0 0.27545994E+03</rscale>
<asrwt>0</asrwt>
<pdfrwt beam="1">  1        1 0.56087681E-01 0.27545994E+03</pdfrwt>
<pdfrwt beam="2">  1       -1 0.13792695E+00 0.27545994E+03</pdfrwt>
<totfact> 0.32446838E+01</totfact>
</mgrwt>
</event>
<event>
 4    1  0.2731969E-009  0.9356930E+03  0.7818608E-02  0.9382031E-01
         -1   -1    0    0    0  501 -0.00000000000E+00  0.00000000000E+00  0.90786417418E+03  0.90786417420E+03  0.50400000000E-02 0.  1.
          1   -1    0    0  501    0  0.00000000000E+00 -0.00000000000E+00 -0.17400426938E+04  0.17400426938E+04  0.50400000000E-02 0. -1.
    8880022    1    1    2    0    0 -0.88454777343E+03 -0.26401703832E+03  0.46786672574E+03  0.10461456333E+04  0.15294330000E+03 0.  0.
    8880022    1    1    2    0    0  0.88454777343E+03  0.26401703832E+03 -0.13000452454E+04  0.16017612347E+04  0.15294330000E+03 0.  0.
<mgrwt>
<rscale>  0 0.93569301E+03</rscale>
<asrwt>0</asrwt>
<pdfrwt beam="1">  1        1 0.26769888E+00 0.93569301E+03</pdfrwt>
<pdfrwt beam="2">  1       -1 0.13967141E+00 0.93569301E+03</pdfrwt>
<totfact> 0.19204556E+00</totfact>
</mgrwt>
</event>
<event>
 4    1  0.2731969E-009  0.8938582E+03  0.7818608E-02  0.9433292E-01
          1   -1    0    0  501    0  0.00000000000E+00  0.00000000000E+00  0.44650020940E+03  0.44650020942E+03  0.50400000000E-02 0. -1.
         -1   -1    0    0    0  501 -0.00000000000E+00 -0.00000000000E+00 -0.29897228929E+04  0.29897228929E+04  0.50400000000E-02 0.  1.
    8880022    1    1    2    0    0  0.27802022204E+03  0.83564080166E+03 -0.23602377559E+04  0.25238273932E+04  0.15294330000E+03 0.  0.
    8880022    1    1    2    0    0 -0.27802022204E+03 -0.83564080166E+03 -0.18298492759E+03  0.91239570911E+03  0.15294330000E+03 0.  0.
<mgrwt>
<rscale>  0 0.89385818E+03</rscale>
<asrwt>0</asrwt>
<pdfrwt beam="1">  1        1 0.68692342E-01 0.89385818E+03</pdfrwt>
<pdfrwt beam="2">  1       -1 0.45995736E+00 0.89385818E+03</pdfrwt>
<totfact> 0.14944894E-01</totfact>
</mgrwt>
</event>
<event>
 4    1  0.2731969E-009  0.4077356E+03  0.7818608E-02  0.1041134E+00
          1   -1    0    0  501    0  0.00000000000E+00  0.00000000000E+00  0.12047340246E+04  0.12047340246E+04  0.50400000000E-02 0. -1.
         -1   -1    0    0    0  501 -0.00000000000E+00 -0.00000000000E+00 -0.24687654508E+04  0.24687654508E+04  0.50400000000E-02 0.  1.
    8880022    1    1    2    0    0 -0.34371351953E+03 -0.15721846826E+03 -0.24166931972E+04  0.24508476682E+04  0.15294330000E+03 0.  0.
    8880022    1    1    2    0    0  0.34371351953E+03  0.15721846826E+03  0.11526617710E+04  0.12226518072E+04  0.15294330000E+03 0. -1.
<mgrwt>
<rscale>  0 0.40773556E+03</rscale>
<asrwt>0</asrwt>
<pdfrwt beam="1">  1        1 0.18534370E+00 0.40773556E+03</pdfrwt>
<pdfrwt beam="2">  1       -1 0.37981007E+00 0.40773556E+03</pdfrwt>
<totfact> 0.12729918E-01</totfact>
</mgrwt>
</event>
<event>
 4    1  0.2731969E-009  0.3083617E+03  0.7818608E-02  0.1081134E+00
         -1   -1    0    0    0  501 -0.00000000000E+00  0.00000000000E+00  0.40139794297E+03  0.40139794300E+03  0.50400000000E-02 0.  1.
          1   -1    0    0  501    0  0.00000000000E+00 -0.00000000000E+00 -0.26574010215E+03  0.26574010220E+03  0.50400000000E-02 0. -1.
    8880022    1    1    2    0    0 -0.24626412231E+03  0.10511544062E+03 -0.42080568940E+02  0.31121969907E+03  0.15294330000E+03 0.  0.
    8880022    1    1    2    0    0  0.24626412231E+03 -0.10511544062E+03  0.17773840976E+03  0.35591834613E+03  0.15294330000E+03 0.  0.
<mgrwt>
<rscale>  0 0.30836168E+03</rscale>
<asrwt>0</asrwt>
<pdfrwt beam="1">  1        1 0.40883093E-01 0.30836168E+03</pdfrwt>
<pdfrwt beam="2">  1       -1 0.61753530E-01 0.30836168E+03</pdfrwt>
<totfact> 0.28199178E+02</totfact>
</mgrwt>
</event>
<event>
 4    1  0.2731969E-009  0.7249306E+03  0.7818608E-02  0.9675522E-01
          1   -1    0    0  501    0  0.00000000000E+00  0.00000000000E+00  0.78003792900E+03  0.78003792901E+03  0.50400000000E-02 0. -1.
         -1   -1    0    0    0  501 -0.00000000000E+00 -0.00000000000E+00 -0.14844973129E+04  0.14844973129E+04  0.50400000000E-02 0.  1.
    8880022    1    1    2    0    0 -0.64278732387E+03 -0.29825696609E+03  0.48454996709E+03  0.87195933688E+03  0.15294330000E+03 0.  0.
    8880022    1    1    2    0    0  0.64278732387E+03  0.29825696609E+03 -0.11890093510E+04  0.13925759050E+04  0.15294330000E+03 0.  0.
<mgrwt>
<rscale>  0 0.72493063E+03</rscale>
<asrwt>0</asrwt>
<pdfrwt beam="1">  1        1 0.12000584E+00 0.72493063E+03</pdfrwt>
<pdfrwt beam="2">  1       -1 0.22838420E+00 0.72493063E+03</pdfrwt>
<totfact> 0.23342630E+00</totfact>
</mgrwt>
</event>
<event>
 4    1  0.2731969E-009  0.4296216E+03  0.7818608E-02  0.1033980E+00
          1   -1    0    0  501    0  0.00000000000E+00  0.00000000000E+00  0.19098801980E+04  0.19098801980E+04  0.50400000000E-02 0. -1.
         -1   -1    0    0    0  501 -0.00000000000E+00 -0.00000000000E+00 -0.36387689866E+03  0.36387689870E+03  0.50400000000E-02 0.  1.
    8880022    1    1    2    0    0 -0.81150551576E+01  0.40139404800E+03  0.17472807717E+04  0.17993234240E+04  0.15294330000E+03 0. -1.
    8880022    1    1    2    0    0  0.81150551576E+01 -0.40139404800E+03 -0.20127747239E+03  0.47443367270E+03  0.15294330000E+03 0.  0.
<mgrwt>
<rscale>  0 0.42962156E+03</rscale>
<asrwt>0</asrwt>
<pdfrwt beam="1">  1        1 0.29382772E+00 0.42962156E+03</pdfrwt>
<pdfrwt beam="2">  1       -1 0.55981061E-01 0.42962156E+03</pdfrwt>
<totfact> 0.12330781E+01</totfact>
</mgrwt>
</event>
<event>
 4    1  0.2731969E-009  0.1075858E+04  0.7818608E-02  0.9229047E-01
          1   -1    0    0  501    0  0.00000000000E+00  0.00000000000E+00  0.25077974993E+04  0.25077974993E+04  0.50400000000E-02 0. -1.
         -1   -1    0    0    0  501 -0.00000000000E+00 -0.00000000000E+00 -0.10304753940E+04  0.10304753940E+04  0.50400000000E-02 0.  1.
    8880022    1    1    2    0    0 -0.57137902397E+03 -0.89866872424E+03 -0.57586925919E+03  0.12202854263E+04  0.15294330000E+03 0.  0.
    8880022    1    1    2    0    0  0.57137902397E+03  0.89866872424E+03  0.20531913645E+04  0.23179874670E+04  0.15294330000E+03 0.  0.
<mgrwt>
<rscale>  0 0.10758583E+04</rscale>
<asrwt>0</asrwt>
<pdfrwt beam="1">  1        1 0.38581499E+00 0.10758583E+04</pdfrwt>
<pdfrwt beam="2">  1       -1 0.15853468E+00 0.10758583E+04</pdfrwt>
<totfact> 0.40343125E-01</totfact>
</mgrwt>
</event>
<event>
 4    1  0.2731969E-009  0.1179578E+04  0.7818608E-02  0.9130922E-01
         -1   -1    0    0    0  501 -0.00000000000E+00  0.00000000000E+00  0.91697767757E+03  0.91697767759E+03  0.50400000000E-02 0.  1.
          1   -1    0    0  501    0  0.00000000000E+00 -0.00000000000E+00 -0.20048805807E+04  0.20048805807E+04  0.50400000000E-02 0. -1.
    8880022    1    1    2    0    0 -0.78548435070E+03 -0.86661829599E+03 -0.12643485856E+04  0.17291564229E+04  0.15294330000E+03 0.  0.
    8880022    1    1    2    0    0  0.78548435070E+03  0.86661829599E+03  0.17644568246E+03  0.11927018353E+04  0.15294330000E+03 0.  0.
<mgrwt>
<rscale>  0 0.11795781E+04</rscale>
<asrwt>0</asrwt>
<pdfrwt beam="1">  1        1 0.30844316E+00 0.11795781E+04</pdfrwt>
<pdfrwt beam="2">  1       -1 0.14107349E+00 0.11795781E+04</pdfrwt>
<totfact> 0.11978953E+00</totfact>
</mgrwt>
</event>
<event>
 4    1  0.2731969E-009  0.8401579E+03  0.7818608E-02  0.9503643E-01
          1   -1    0    0  501    0  0.00000000000E+00  0.00000000000E+00  0.28256305732E+04  0.28256305732E+04  0.50400000000E-02 0. -1.
         -1   -1    0    0    0  501 -0.00000000000E+00 -0.00000000000E+00 -0.11294257371E+04  0.11294257371E+04  0.50400000000E-02 0.  1.
    8880022    1    1    2    0    0 -0.67568529535E+03  0.47531369422E+03  0.25932847278E+04  0.27259844201E+04  0.15294330000E+03 0.  0.
    8880022    1    1    2    0    0  0.67568529535E+03 -0.47531369422E+03 -0.89707989172E+03  0.12290718903E+04  0.15294330000E+03 0.  0.
<mgrwt>
<rscale>  0 0.84015795E+03</rscale>
<asrwt>0</asrwt>
<pdfrwt beam="1">  1        1 0.43471239E+00 0.84015795E+03</pdfrwt>
<pdfrwt beam="2">  1       -1 0.17375781E+00 0.84015795E+03</pdfrwt>
<totfact> 0.19566045E-01</totfact>
</mgrwt>
</event>
<event>
 4    1  0.2731969E-009  0.6305595E+03  0.7818608E-02  0.9843958E-01
         -1   -1    0    0    0  501 -0.00000000000E+00  0.00000000000E+00  0.96294852273E+03  0.96294852275E+03  0.50400000000E-02 0.  1.
          1   -1    0    0  501    0  0.00000000000E+00 -0.00000000000E+00 -0.59094717012E+03  0.59094717014E+03  0.50400000000E-02 0. -1.
    8880022    1    1    2    0    0  0.18698582148E+02  0.61144417174E+03 -0.24046122419E+03  0.67485321773E+03  0.15294330000E+03 0.  0.
    8880022    1    1    2    0    0 -0.18698582148E+02 -0.61144417174E+03  0.61246257680E+03  0.87904247516E+03  0.15294330000E+03 0.  0.
<mgrwt>
<rscale>  0 0.63055949E+03</rscale>
<asrwt>0</asrwt>
<pdfrwt beam="1">  1        1 0.90914950E-01 0.63055949E+03</pdfrwt>
<pdfrwt beam="2">  1       -1 0.14814593E+00 0.63055949E+03</pdfrwt>
<totfact> 0.13200857E+01</totfact>
</mgrwt>
</event>
<event>
 4    1  0.2731969E-009  0.7419484E+03  0.7818608E-02  0.9648067E-01
         -1   -1    0    0    0  501 -0.00000000000E+00  0.00000000000E+00  0.29705772338E+03  0.29705772342E+03  0.50400000000E-02 0.  1.
          1   -1    0    0  501    0  0.00000000000E+00 -0.00000000000E+00 -0.20550084811E+04  0.20550084811E+04  0.50400000000E-02 0. -1.
    8880022    1    1    2    0    0 -0.71441498909E+03 -0.12925559405E+03 -0.12475747923E+04  0.14515268859E+04  0.15294330000E+03 0.  0.
    8880022    1    1    2    0    0  0.71441498909E+03  0.12925559405E+03 -0.51037596544E+03  0.90053931860E+03  0.15294330000E+03 0.  0.
<mgrwt>
<rscale>  0 0.74194841E+03</rscale>
<asrwt>0</asrwt>
<pdfrwt beam="1">  1        1 0.31615514E+00 0.74194841E+03</pdfrwt>
<pdfrwt beam="2">  1       -1 0.45701190E-01 0.74194841E+03</pdfrwt>
<totfact> 0.13605392E+01</totfact>
</mgrwt>
</event>
<event>
 4    1  0.2731969E-009  0.3779057E+03  0.7818608E-02  0.1051711E+00
          1   -1    0    0  501    0  0.00000000000E+00  0.00000000000E+00  0.24127909460E+04  0.24127909460E+04  0.50400000000E-02 0. -1.
         -1   -1    0    0    0  501 -0.00000000000E+00 -0.00000000000E+00 -0.12816723824E+04  0.12816723824E+04  0.50400000000E-02 0.  1.
    8880022    1    1    2    0    0  0.37441641277E+02  0.34353923085E+03 -0.12385140329E+04  0.12948859958E+04  0.15294330000E+03 0.  0.
    8880022    1    1    2    0    0 -0.37441641277E+02 -0.34353923085E+03  0.23696325965E+04  0.23995773326E+04  0.15294330000E+03 0.  0.
<mgrwt>
<rscale>  0 0.37790572E+03</rscale>
<asrwt>0</asrwt>
<pdfrwt beam="1">  1        1 0.37119860E+00 0.37790572E+03</pdfrwt>
<pdfrwt beam="2">  1       -1 0.19718037E+00 0.37790572E+03</pdfrwt>
<totfact> 0.30151250E-01</totfact>
</mgrwt>
</event>
<event>
 4    1  0.2731969E-009  0.7580267E+03  0.7818608E-02  0.9622841E-01
         -1   -1    0    0    0  501 -0.00000000000E+00  0.00000000000E+00  0.48066156718E+03  0.48066156721E+03  0.50400000000E-02 0.  1.
          1   -1    0    0  501    0  0.00000000000E+00 -0.00000000000E+00 -0.20298480340E+04  0.20298480340E+04  0.50400000000E-02 0. -1.
    8880022    1    1    2    0    0 -0.55069318241E+03  0.49794557403E+03  0.30206986395E+02  0.75862829561E+03  0.15294330000E+03 0.  0.
    8880022    1    1    2    0    0  0.55069318241E+03 -0.49794557403E+03 -0.15793934532E+04  0.17518813056E+04  0.15294330000E+03 0.  0.
<mgrwt>
<rscale>  0 0.75802667E+03</rscale>
<asrwt>0</asrwt>
<pdfrwt beam="1">  1        1 0.31228431E+00 0.75802667E+03</pdfrwt>
<pdfrwt beam="2">  1       -1 0.73947935E-01 0.75802667E+03</pdfrwt>
<totfact> 0.54911920E+00</totfact>
</mgrwt>
</event>
<event>
 4    1  0.2731969E-009  0.3523303E+03  0.7818608E-02  0.1061663E+00
          1   -1    0    0  501    0  0.00000000000E+00  0.00000000000E+00  0.17989615333E+04  0.17989615333E+04  0.50400000000E-02 0. -1.
         -1   -1    0    0    0  501 -0.00000000000E+00 -0.00000000000E+00 -0.33498605192E+03  0.33498605196E+03  0.50400000000E-02 0.  1.
    8880022    1    1    2    0    0  0.14691956496E+03  0.28135325130E+03 -0.21876163077E+03  0.41472076714E+03  0.15294330000E+03 0.  0.
    8880022    1    1    2    0    0 -0.14691956496E+03 -0.28135325130E+03  0.16827371121E+04  0.17192268181E+04  0.15294330000E+03 0.  0.
<mgrwt>
<rscale>  0 0.35233033E+03</rscale>
<asrwt>0</asrwt>
<pdfrwt beam="1">  1        1 0.27676331E+00 0.35233033E+03</pdfrwt>
<pdfrwt beam="2">  1       -1 0.51536316E-01 0.35233033E+03</pdfrwt>
<totfact> 0.17455119E+01</totfact>
</mgrwt>
</event>
<event>
 4    1  0.2731969E-009  0.9148801E+03  0.7818608E-02  0.9407169E-01
          1   -1    0    0  501    0  0.00000000000E+00  0.00000000000E+00  0.15537482258E+04  0.15537482258E+04  0.50400000000E-02 0. -1.
         -1   -1    0    0    0  501 -0.00000000000E+00 -0.00000000000E+00 -0.58984966052E+03  0.58984966054E+03  0.50400000000E-02 0.  1.
    8880022    1    1    2    0    0  0.74863286870E+03  0.50315280715E+03  0.16633241782E+03  0.92987743583E+03  0.15294330000E+03 0.  0.
    8880022    1    1    2    0    0 -0.74863286870E+03 -0.50315280715E+03  0.79756614751E+03  0.12137204506E+04  0.15294330000E+03 0.  0.
<mgrwt>
<rscale>  0 0.91488009E+03</rscale>
<asrwt>0</asrwt>
<pdfrwt beam="1">  1        1 0.23903819E+00 0.91488009E+03</pdfrwt>
<pdfrwt beam="2">  1       -1 0.90746103E-01 0.91488009E+03</pdfrwt>
<totfact> 0.72410771E+00</totfact>
</mgrwt>
</event>
<event>
 4    1  0.2731969E-009  0.1263323E+04  0.7818608E-02  0.9059167E-01
         -1   -1    0    0    0  501 -0.00000000000E+00  0.00000000000E+00  0.24205797215E+04  0.24205797215E+04  0.50400000000E-02 0.  1.
          1   -1    0    0  501    0  0.00000000000E+00 -0.00000000000E+00 -0.86627887464E+03  0.86627887466E+03  0.50400000000E-02 0. -1.
    8880022    1    1    2    0    0  0.92313648185E+03  0.84877128168E+03  0.15803862791E+04  0.20232661953E+04  0.15294330000E+03 0.  0.
    8880022    1    1    2    0    0 -0.92313648185E+03 -0.84877128168E+03 -0.26085432279E+02  0.12635924009E+04  0.15294330000E+03 0.  0.
<mgrwt>
<rscale>  0 0.12633231E+04</rscale>
<asrwt>0</asrwt>
<pdfrwt beam="1">  1        1 0.13327367E+00 0.12633231E+04</pdfrwt>
<pdfrwt beam="2">  1       -1 0.37239688E+00 0.12633231E+04</pdfrwt>
<totfact> 0.21003149E-01</totfact>
</mgrwt>
</event>
<event>
 4    1  0.2731969E-009  0.1258210E+04  0.7818608E-02  0.9063377E-01
         -1   -1    0    0    0  501 -0.00000000000E+00  0.00000000000E+00  0.93121260696E+03  0.93121260697E+03  0.50400000000E-02 0.  1.
          1   -1    0    0  501    0  0.00000000000E+00 -0.00000000000E+00 -0.32630091656E+04  0.32630091656E+04  0.50400000000E-02 0. -1.
    8880022    1    1    2    0    0 -0.11624180045E+04  0.45660265991E+03 -0.26173020994E+04  0.29040254026E+04  0.15294330000E+03 0.  0.
    8880022    1    1    2    0    0  0.11624180045E+04 -0.45660265991E+03  0.28550554077E+03  0.12901963700E+04  0.15294330000E+03 0.  0.
<mgrwt>
<rscale>  0 0.12582103E+04</rscale>
<asrwt>0</asrwt>
<pdfrwt beam="1">  1        1 0.50200141E+00 0.12582103E+04</pdfrwt>
<pdfrwt beam="2">  1       -1 0.14326348E+00 0.12582103E+04</pdfrwt>
<totfact> 0.14846697E-01</totfact>
</mgrwt>
</event>
<event>
 4    1  0.2731969E-009  0.1311941E+04  0.7818608E-02  0.9020149E-01
          1   -1    0    0  501    0  0.00000000000E+00  0.00000000000E+00  0.17344674211E+04  0.17344674211E+04  0.50400000000E-02 0. -1.
         -1   -1    0    0    0  501 -0.00000000000E+00 -0.00000000000E+00 -0.14649647739E+04  0.14649647739E+04  0.50400000000E-02 0.  1.
    8880022    1    1    2    0    0 -0.53014163098E+03  0.11902715609E+04  0.10433785934E+04  0.16762538828E+04  0.15294330000E+03 0.  0.
    8880022    1    1    2    0    0  0.53014163098E+03 -0.11902715609E+04 -0.77387594626E+03  0.15231783122E+04  0.15294330000E+03 0.  0.
<mgrwt>
<rscale>  0 0.13119406E+04</rscale>
<asrwt>0</asrwt>
<pdfrwt beam="1">  1        1 0.26684114E+00 0.13119406E+04</pdfrwt>
<pdfrwt beam="2">  1       -1 0.22537920E+00 0.13119406E+04</pdfrwt>
<totfact> 0.44194343E-01</totfact>
</mgrwt>
</event>
<event>
 4    1  0.2731969E-009  0.5839331E+03  0.7818608E-02  0.9939312E-01
          1   -1    0    0  501    0  0.00000000000E+00  0.00000000000E+00  0.99527134000E+03  0.99527134002E+03  0.50400000000E-02 0. -1.
         -1   -1    0    0    0  501 -0.00000000000E+00 -0.00000000000E+00 -0.79667699321E+03  0.79667699323E+03  0.50400000000E-02 0.  1.
    8880022    1    1    2    0    0 -0.35678320555E+03 -0.43622471303E+03  0.77572285064E+03  0.97093967374E+03  0.15294330000E+03 0.  0.
    8880022    1    1    2    0    0  0.35678320555E+03  0.43622471303E+03 -0.57712850384E+03  0.82100865951E+03  0.15294330000E+03 0.  0.
<mgrwt>
<rscale>  0 0.58393314E+03</rscale>
<asrwt>0</asrwt>
<pdfrwt beam="1">  1        1 0.15311867E+00 0.58393314E+03</pdfrwt>
<pdfrwt beam="2">  1       -1 0.12256569E+00 0.58393314E+03</pdfrwt>
<totfact> 0.95110035E+00</totfact>
</mgrwt>
</event>
<event>
 4    1  0.2731969E-009  0.8347868E+03  0.7818608E-02  0.9510986E-01
         -1   -1    0    0    0  501 -0.00000000000E+00  0.00000000000E+00  0.45884316052E+03  0.45884316054E+03  0.50400000000E-02 0.  1.
          1   -1    0    0  501    0  0.00000000000E+00 -0.00000000000E+00 -0.20184884252E+04  0.20184884252E+04  0.50400000000E-02 0. -1.
    8880022    1    1    2    0    0 -0.76622840722E+03 -0.29389004242E+03 -0.13961500697E+04  0.16266849724E+04  0.15294330000E+03 0.  0.
    8880022    1    1    2    0    0  0.76622840722E+03  0.29389004242E+03 -0.16349519494E+03  0.85064661338E+03  0.15294330000E+03 0.  0.
<mgrwt>
<rscale>  0 0.83478679E+03</rscale>
<asrwt>0</asrwt>
<pdfrwt beam="1">  1        1 0.31053667E+00 0.83478679E+03</pdfrwt>
<pdfrwt beam="2">  1       -1 0.70591257E-01 0.83478679E+03</pdfrwt>
<totfact> 0.60755033E+00</totfact>
</mgrwt>
</event>
<event>
 4    1  0.2731969E-009  0.8247817E+03  0.7818608E-02  0.9524823E-01
          1   -1    0    0  501    0  0.00000000000E+00  0.00000000000E+00  0.17678710026E+04  0.17678710026E+04  0.50400000000E-02 0. -1.
         -1   -1    0    0    0  501 -0.00000000000E+00 -0.00000000000E+00 -0.73087914810E+03  0.73087914811E+03  0.50400000000E-02 0.  1.
    8880022    1    1    2    0    0 -0.70221222452E+03 -0.40468657611E+03 -0.34123387798E+03  0.89258357908E+03  0.15294330000E+03 0.  0.
    8880022    1    1    2    0    0  0.70221222452E+03  0.40468657611E+03  0.13782257325E+04  0.16061665717E+04  0.15294330000E+03 0.  0.
<mgrwt>
<rscale>  0 0.82478172E+03</rscale>
<asrwt>0</asrwt>
<pdfrwt beam="1">  1        1 0.27198015E+00 0.82478172E+03</pdfrwt>
<pdfrwt beam="2">  1       -1 0.11244295E+00 0.82478172E+03</pdfrwt>
<totfact> 0.32111536E+00</totfact>
</mgrwt>
</event>
<event>
 4    1  0.2731969E-009  0.6860588E+03  0.7818608E-02  0.9741375E-01
          1   -1    0    0  501    0  0.00000000000E+00  0.00000000000E+00  0.11858543438E+04  0.11858543439E+04  0.50400000000E-02 0. -1.
         -1   -1    0    0    0  501 -0.00000000000E+00 -0.00000000000E+00 -0.43715456309E+03  0.43715456312E+03  0.50400000000E-02 0.  1.
    8880022    1    1    2    0    0 -0.52087111456E+02 -0.66676229933E+03  0.62057394723E+03  0.92508848657E+03  0.15294330000E+03 0.  0.
    8880022    1    1    2    0    0  0.52087111456E+02  0.66676229933E+03  0.12812583352E+03  0.69792042040E+03  0.15294330000E+03 0.  0.
<mgrwt>
<rscale>  0 0.68605881E+03</rscale>
<asrwt>0</asrwt>
<pdfrwt beam="1">  1        1 0.18243913E+00 0.68605881E+03</pdfrwt>
<pdfrwt beam="2">  1       -1 0.67254550E-01 0.68605881E+03</pdfrwt>
<totfact> 0.25438378E+01</totfact>
</mgrwt>
</event>
<event>
 4    1  0.2731969E-009  0.7324292E+03  0.7818608E-02  0.9663327E-01
         -1   -1    0    0    0  501 -0.00000000000E+00  0.00000000000E+00  0.93184258872E+03  0.93184258873E+03  0.50400000000E-02 0.  1.
          1   -1    0    0  501    0  0.00000000000E+00 -0.00000000000E+00 -0.80665003288E+03  0.80665003289E+03  0.50400000000E-02 0. -1.
    8880022    1    1    2    0    0 -0.69661329994E+03  0.16670558290E+03 -0.40252762660E+03  0.83575174796E+03  0.15294330000E+03 0. -1.
    8880022    1    1    2    0    0  0.69661329994E+03 -0.16670558290E+03  0.52772018244E+03  0.90274087367E+03  0.15294330000E+03 0.  0.
<mgrwt>
<rscale>  0 0.73242917E+03</rscale>
<asrwt>0</asrwt>
<pdfrwt beam="1">  1        1 0.12410000E+00 0.73242917E+03</pdfrwt>
<pdfrwt beam="2">  1       -1 0.14336040E+00 0.73242917E+03</pdfrwt>
<totfact> 0.88864243E+00</totfact>
</mgrwt>
</event>
<event>
 4    1  0.2731969E-009  0.6423417E+03  0.7818608E-02  0.9821257E-01
          1   -1    0    0  501    0  0.00000000000E+00  0.00000000000E+00  0.76132664173E+03  0.76132664174E+03  0.50400000000E-02 0. -1.
         -1   -1    0    0    0  501 -0.00000000000E+00 -0.00000000000E+00 -0.86253369696E+03  0.86253369697E+03  0.50400000000E-02 0.  1.
    8880022    1    1    2    0    0 -0.55076318315E+03  0.29303765768E+03 -0.54559729416E+03  0.84278064355E+03  0.15294330000E+03 0.  0.
    8880022    1    1    2    0    0  0.55076318315E+03 -0.29303765768E+03  0.44439023893E+03  0.78107969517E+03  0.15294330000E+03 0.  0.
<mgrwt>
<rscale>  0 0.64234166E+03</rscale>
<asrwt>0</asrwt>
<pdfrwt beam="1">  1        1 0.11712718E+00 0.64234166E+03</pdfrwt>
<pdfrwt beam="2">  1       -1 0.13269749E+00 0.64234166E+03</pdfrwt>
<totfact> 0.12039085E+01</totfact>
</mgrwt>
</event>
<event>
 4    1  0.2731969E-009  0.9123715E+03  0.7818608E-02  0.9410247E-01
         -1   -1    0    0    0  501 -0.00000000000E+00  0.00000000000E+00  0.49140374249E+03  0.49140374251E+03  0.50400000000E-02 0.  1.
          1   -1    0    0  501    0  0.00000000000E+00 -0.00000000000E+00 -0.25181212876E+04  0.25181212876E+04  0.50400000000E-02 0. -1.
    8880022    1    1    2    0    0 -0.31125830847E+03  0.84388887018E+03 -0.15249614348E+03  0.92502804639E+03  0.15294330000E+03 0.  0.
    8880022    1    1    2    0    0  0.31125830847E+03 -0.84388887018E+03 -0.18742214016E+04  0.20844969837E+04  0.15294330000E+03 0.  0.
<mgrwt>
<rscale>  0 0.91237153E+03</rscale>
<asrwt>0</asrwt>
<pdfrwt beam="1">  1        1 0.38740327E+00 0.91237153E+03</pdfrwt>
<pdfrwt beam="2">  1       -1 0.75600578E-01 0.91237153E+03</pdfrwt>
<totfact> 0.23901424E+00</totfact>
</mgrwt>
</event>
<event>
 4    1  0.2731969E-009  0.4377854E+03  0.7818608E-02  0.1031428E+00
         -1   -1    0    0    0  501 -0.00000000000E+00  0.00000000000E+00  0.51366777678E+03  0.51366777681E+03  0.50400000000E-02 0.  1.
          1   -1    0    0  501    0  0.00000000000E+00 -0.00000000000E+00 -0.82806345867E+03  0.82806345868E+03  0.50400000000E-02 0. -1.
    8880022    1    1    2    0    0 -0.22057118081E+03  0.34585071227E+03  0.34006485642E+03  0.55434657080E+03  0.15294330000E+03 0.  1.
    8880022    1    1    2    0    0  0.22057118081E+03 -0.34585071227E+03 -0.65446053830E+03  0.78738466469E+03  0.15294330000E+03 0.  0.
<mgrwt>
<rscale>  0 0.43778535E+03</rscale>
<asrwt>0</asrwt>
<pdfrwt beam="1">  1        1 0.12739438E+00 0.43778535E+03</pdfrwt>
<pdfrwt beam="2">  1       -1 0.79025812E-01 0.43778535E+03</pdfrwt>
<totfact> 0.35778475E+01</totfact>
</mgrwt>
</event>
<event>
 4    1  0.2731969E-009  0.2535351E+03  0.7818608E-02  0.1111091E+00
          1   -1    0    0  501    0  0.00000000000E+00  0.00000000000E+00  0.29464556164E+03  0.29464556168E+03  0.50400000000E-02 0. -1.
         -1   -1    0    0    0  501 -0.00000000000E+00 -0.00000000000E+00 -0.10340162165E+04  0.10340162165E+04  0.50400000000E-02 0.  1.
    8880022    1    1    2    0    0  0.20110348892E+03 -0.21113022160E+02  0.22041716500E+03  0.33595200937E+03  0.15294330000E+03 0.  0.
    8880022    1    1    2    0    0 -0.20110348892E+03  0.21113022160E+02 -0.95978781989E+03  0.99270976886E+03  0.15294330000E+03 0.  0.
<mgrwt>
<rscale>  0 0.25353506E+03</rscale>
<asrwt>0</asrwt>
<pdfrwt beam="1">  1        1 0.45330087E-01 0.25353506E+03</pdfrwt>
<pdfrwt beam="2">  1       -1 0.15907942E+00 0.25353506E+03</pdfrwt>
<totfact> 0.29442917E+01</totfact>
</mgrwt>
</event>
<event>
 4    1  0.2731969E-009  0.7825431E+03  0.7818608E-02  0.9585635E-01
         -1   -1    0    0    0  501 -0.00000000000E+00  0.00000000000E+00  0.53509123053E+03  0.53509123055E+03  0.50400000000E-02 0.  1.
          1   -1    0    0  501    0  0.00000000000E+00 -0.00000000000E+00 -0.17398289301E+04  0.17398289301E+04  0.50400000000E-02 0. -1.
    8880022    1    1    2    0    0 -0.16777430915E+03 -0.74888837718E+03  0.63038278321E+02  0.78507802022E+03  0.15294330000E+03 0.  0.
    8880022    1    1    2    0    0  0.16777430915E+03  0.74888837718E+03 -0.12677759779E+04  0.14898421404E+04  0.15294330000E+03 0.  0.
<mgrwt>
<rscale>  0 0.78254308E+03</rscale>
<asrwt>0</asrwt>
<pdfrwt beam="1">  1        1 0.26766599E+00 0.78254308E+03</pdfrwt>
<pdfrwt beam="2">  1       -1 0.82321728E-01 0.78254308E+03</pdfrwt>
<totfact> 0.68218644E+00</totfact>
</mgrwt>
</event>
<event>
 4    1  0.2731969E-009  0.8988579E+03  0.7818608E-02  0.9427010E-01
          1   -1    0    0  501    0  0.00000000000E+00  0.00000000000E+00  0.12436356094E+04  0.12436356094E+04  0.50400000000E-02 0. -1.
         -1   -1    0    0    0  501 -0.00000000000E+00 -0.00000000000E+00 -0.97361061431E+03  0.97361061433E+03  0.50400000000E-02 0.  1.
    8880022    1    1    2    0    0  0.73765531309E+03  0.49032490704E+03  0.77449382752E+03  0.11865016718E+04  0.15294330000E+03 0.  0.
    8880022    1    1    2    0    0 -0.73765531309E+03 -0.49032490704E+03 -0.50446883242E+03  0.10307445519E+04  0.15294330000E+03 0.  0.
<mgrwt>
<rscale>  0 0.89885790E+03</rscale>
<asrwt>0</asrwt>
<pdfrwt beam="1">  1        1 0.19132856E+00 0.89885790E+03</pdfrwt>
<pdfrwt beam="2">  1       -1 0.14978625E+00 0.89885790E+03</pdfrwt>
<totfact> 0.35381111E+00</totfact>
</mgrwt>
</event>
<event>
 4    1  0.2731969E-009  0.8400807E+03  0.7818608E-02  0.9503748E-01
          1   -1    0    0  501    0  0.00000000000E+00  0.00000000000E+00  0.15387846867E+04  0.15387846867E+04  0.50400000000E-02 0. -1.
         -1   -1    0    0    0  501 -0.00000000000E+00 -0.00000000000E+00 -0.61465485790E+03  0.61465485792E+03  0.50400000000E-02 0.  1.
    8880022    1    1    2    0    0  0.46594264082E+03 -0.68208608571E+03 -0.80412160947E+02  0.84392045923E+03  0.15294330000E+03 0.  0.
    8880022    1    1    2    0    0 -0.46594264082E+03  0.68208608571E+03  0.10045419898E+04  0.13095190854E+04  0.15294330000E+03 0.  0.
<mgrwt>
<rscale>  0 0.84008073E+03</rscale>
<asrwt>0</asrwt>
<pdfrwt beam="1">  1        1 0.23673610E+00 0.84008073E+03</pdfrwt>
<pdfrwt beam="2">  1       -1 0.94562286E-01 0.84008073E+03</pdfrwt>
<totfact> 0.68321693E+00</totfact>
</mgrwt>
</event>
<event>
 4    1  0.2731969E-009  0.2078039E+03  0.7818608E-02  0.1143317E+00
         -1   -1    0    0    0  501 -0.00000000000E+00  0.00000000000E+00  0.31432619783E+02  0.31432620187E+02  0.50400000000E-02 0.  1.
          1   -1    0    0  501    0  0.00000000000E+00 -0.00000000000E+00 -0.20179992876E+04  0.20179992876E+04  0.50400000000E-02 0. -1.
    8880022    1    1    2    0    0  0.11453553552E+02 -0.14021280445E+03 -0.41432203915E+03  0.46351399069E+03  0.15294330000E+03 0.  0.
    8880022    1    1    2    0    0 -0.11453553552E+02  0.14021280445E+03 -0.15722446287E+04  0.15859179171E+04  0.15294330000E+03 0.  0.
<mgrwt>
<rscale>  0 0.20780392E+03</rscale>
<asrwt>0</asrwt>
<pdfrwt beam="1">  1        1 0.31046133E+00 0.20780392E+03</pdfrwt>
<pdfrwt beam="2">  1       -1 0.48357893E-02 0.20780392E+03</pdfrwt>
<totfact> 0.61335297E+02</totfact>
</mgrwt>
</event>
<event>
 4    1  0.2731969E-009  0.6987403E+03  0.7818608E-02  0.9719389E-01
         -1   -1    0    0    0  501 -0.00000000000E+00  0.00000000000E+00  0.41627315248E+03  0.41627315251E+03  0.50400000000E-02 0.  1.
          1   -1    0    0  501    0  0.00000000000E+00 -0.00000000000E+00 -0.18834880275E+04  0.18834880275E+04  0.50400000000E-02 0. -1.
    8880022    1    1    2    0    0  0.56804910271E+03 -0.37704977189E+03 -0.27311473750E+02  0.69927382561E+03  0.15294330000E+03 0.  0.
    8880022    1    1    2    0    0 -0.56804910271E+03  0.37704977189E+03 -0.14399034012E+04  0.16004873544E+04  0.15294330000E+03 0.  0.
<mgrwt>
<rscale>  0 0.69874027E+03</rscale>
<asrwt>0</asrwt>
<pdfrwt beam="1">  1        1 0.28976738E+00 0.69874027E+03</pdfrwt>
<pdfrwt beam="2">  1       -1 0.64042025E-01 0.69874027E+03</pdfrwt>
<totfact> 0.93117890E+00</totfact>
</mgrwt>
</event>
<event>
 4    1  0.2731969E-009  0.8805265E+03  0.7818608E-02  0.9450257E-01
          1   -1    0    0  501    0  0.00000000000E+00  0.00000000000E+00  0.14004914662E+04  0.14004914662E+04  0.50400000000E-02 0. -1.
         -1   -1    0    0    0  501 -0.00000000000E+00 -0.00000000000E+00 -0.15426795906E+04  0.15426795906E+04  0.50400000000E-02 0.  1.
    8880022    1    1    2    0    0  0.86597968233E+03 -0.44883326862E+02  0.11072196339E+04  0.14146597803E+04  0.15294330000E+03 0.  0.
    8880022    1    1    2    0    0 -0.86597968233E+03  0.44883326862E+02 -0.12494077582E+04  0.15285112766E+04  0.15294330000E+03 0.  0.
<mgrwt>
<rscale>  0 0.88052653E+03</rscale>
<asrwt>0</asrwt>
<pdfrwt beam="1">  1        1 0.21546023E+00 0.88052653E+03</pdfrwt>
<pdfrwt beam="2">  1       -1 0.23733532E+00 0.88052653E+03</pdfrwt>
<totfact> 0.66738693E-01</totfact>
</mgrwt>
</event>
<event>
 4    1  0.2731969E-009  0.1403458E+04  0.7818608E-02  0.8951320E-01
         -1   -1    0    0    0  501 -0.00000000000E+00  0.00000000000E+00  0.15510785497E+04  0.15510785497E+04  0.50400000000E-02 0.  1.
          1   -1    0    0  501    0  0.00000000000E+00 -0.00000000000E+00 -0.19396993902E+04  0.19396993902E+04  0.50400000000E-02 0. -1.
    8880022    1    1    2    0    0  0.41192476957E+03  0.13328989952E+04 -0.12199666634E+04  0.18595730854E+04  0.15294330000E+03 0.  0.
    8880022    1    1    2    0    0 -0.41192476957E+03 -0.13328989952E+04  0.83134582283E+03  0.16312048545E+04  0.15294330000E+03 0.  0.
<mgrwt>
<rscale>  0 0.14034577E+04</rscale>
<asrwt>0</asrwt>
<pdfrwt beam="1">  1        1 0.29841529E+00 0.14034577E+04</pdfrwt>
<pdfrwt beam="2">  1       -1 0.23862747E+00 0.14034577E+04</pdfrwt>
<totfact> 0.25887631E-01</totfact>
</mgrwt>
</event>
<event>
 4    1  0.2731969E-009  0.7864098E+03  0.7818608E-02  0.9579899E-01
         -1   -1    0    0    0  501 -0.00000000000E+00  0.00000000000E+00  0.10734342473E+04  0.10734342473E+04  0.50400000000E-02 0.  1.
          1   -1    0    0  501    0  0.00000000000E+00 -0.00000000000E+00 -0.13479725927E+04  0.13479725927E+04  0.50400000000E-02 0. -1.
    8880022    1    1    2    0    0  0.60214767563E+01  0.77137046848E+03  0.77886886889E+03  0.11068319772E+04  0.15294330000E+03 0.  0.
    8880022    1    1    2    0    0 -0.60214767563E+01 -0.77137046848E+03 -0.10534072143E+04  0.13145748628E+04  0.15294330000E+03 0.  0.
<mgrwt>
<rscale>  0 0.78640976E+03</rscale>
<asrwt>0</asrwt>
<pdfrwt beam="1">  1        1 0.20738040E+00 0.78640976E+03</pdfrwt>
<pdfrwt beam="2">  1       -1 0.16514373E+00 0.78640976E+03</pdfrwt>
<totfact> 0.23198454E+00</totfact>
</mgrwt>
</event>
<event>
 4    1  0.2731969E-009  0.1344643E+04  0.7818608E-02  0.8994893E-01
          1   -1    0    0  501    0  0.00000000000E+00  0.00000000000E+00  0.25513281886E+04  0.25513281886E+04  0.50400000000E-02 0. -1.
         -1   -1    0    0    0  501 -0.00000000000E+00 -0.00000000000E+00 -0.14037574326E+04  0.14037574327E+04  0.50400000000E-02 0.  1.
    8880022    1    1    2    0    0 -0.12557009760E+04  0.45594871692E+03 -0.81776075571E+03  0.15737847630E+04  0.15294330000E+03 0.  0.
    8880022    1    1    2    0    0  0.12557009760E+04 -0.45594871692E+03  0.19653315116E+04  0.23813008582E+04  0.15294330000E+03 0.  0.
<mgrwt>
<rscale>  0 0.13446434E+04</rscale>
<asrwt>0</asrwt>
<pdfrwt beam="1">  1        1 0.39251203E+00 0.13446434E+04</pdfrwt>
<pdfrwt beam="2">  1       -1 0.21596268E+00 0.13446434E+04</pdfrwt>
<totfact> 0.14104054E-01</totfact>
</mgrwt>
</event>
<event>
 4    1  0.2731969E-009  0.6649055E+03  0.7818608E-02  0.9779205E-01
          1   -1    0    0  501    0  0.00000000000E+00  0.00000000000E+00  0.13127619781E+04  0.13127619781E+04  0.50400000000E-02 0. -1.
         -1   -1    0    0    0  501 -0.00000000000E+00 -0.00000000000E+00 -0.16890878230E+04  0.16890878231E+04  0.50400000000E-02 0.  1.
    8880022    1    1    2    0    0 -0.59230675166E+03  0.26053872087E+03 -0.15311510400E+04  0.16692881338E+04  0.15294330000E+03 0.  0.
    8880022    1    1    2    0    0  0.59230675166E+03 -0.26053872087E+03  0.11548251951E+04  0.13325616674E+04  0.15294330000E+03 0.  0.
<mgrwt>
<rscale>  0 0.66490553E+03</rscale>
<asrwt>0</asrwt>
<pdfrwt beam="1">  1        1 0.20196338E+00 0.66490553E+03</pdfrwt>
<pdfrwt beam="2">  1       -1 0.25985966E+00 0.66490553E+03</pdfrwt>
<totfact> 0.57573716E-01</totfact>
</mgrwt>
</event>
<event>
 4    1  0.2731969E-009  0.1189261E+04  0.7818608E-02  0.9122308E-01
          1   -1    0    0  501    0  0.00000000000E+00  0.00000000000E+00  0.53325034029E+03  0.53325034032E+03  0.50400000000E-02 0. -1.
         -1   -1    0    0    0  501 -0.00000000000E+00 -0.00000000000E+00 -0.42233801940E+04  0.42233801940E+04  0.50400000000E-02 0.  1.
    8880022    1    1    2    0    0  0.10599617678E+04  0.51713817082E+03 -0.39449779041E+03  0.12529848350E+04  0.15294330000E+03 0.  0.
    8880022    1    1    2    0    0 -0.10599617678E+04 -0.51713817082E+03 -0.32956320633E+04  0.35036456993E+04  0.15294330000E+03 0.  0.
<mgrwt>
<rscale>  0 0.11892613E+04</rscale>
<asrwt>0</asrwt>
<pdfrwt beam="1">  1        1 0.82038517E-01 0.11892613E+04</pdfrwt>
<pdfrwt beam="2">  1       -1 0.64975078E+00 0.11892613E+04</pdfrwt>
<totfact> 0.11469914E-02</totfact>
</mgrwt>
</event>
<event>
 4    1  0.2731969E-009  0.6490217E+03  0.7818608E-02  0.9808617E-01
          1   -1    0    0  501    0  0.00000000000E+00  0.00000000000E+00  0.18336463854E+04  0.18336463854E+04  0.50400000000E-02 0. -1.
         -1   -1    0    0    0  501 -0.00000000000E+00 -0.00000000000E+00 -0.47234306856E+03  0.47234306859E+03  0.50400000000E-02 0.  1.
    8880022    1    1    2    0    0  0.76541680677E+02  0.62608221534E+03  0.15069990364E+04  0.16408154430E+04  0.15294330000E+03 0.  0.
    8880022    1    1    2    0    0 -0.76541680677E+02 -0.62608221534E+03 -0.14569571953E+03  0.66517401103E+03  0.15294330000E+03 0.  0.
<mgrwt>
<rscale>  0 0.64902174E+03</rscale>
<asrwt>0</asrwt>
<pdfrwt beam="1">  1        1 0.28209944E+00 0.64902174E+03</pdfrwt>
<pdfrwt beam="2">  1       -1 0.72668165E-01 0.64902174E+03</pdfrwt>
<totfact> 0.78487078E+00</totfact>
</mgrwt>
</event>
<event>
 4    1  0.2731969E-009  0.1392214E+04  0.7818608E-02  0.8959474E-01
          1   -1    0    0  501    0  0.00000000000E+00  0.00000000000E+00  0.30672064328E+04  0.30672064328E+04  0.50400000000E-02 0. -1.
         -1   -1    0    0    0  501 -0.00000000000E+00 -0.00000000000E+00 -0.67452291638E+03  0.67452291639E+03  0.50400000000E-02 0.  1.
    8880022    1    1    2    0    0  0.71160429734E+03  0.11867965747E+04  0.72621506895E+03  0.15702378053E+04  0.15294330000E+03 0.  0.
    8880022    1    1    2    0    0 -0.71160429734E+03 -0.11867965747E+04  0.16664684475E+04  0.21714915439E+04  0.15294330000E+03 0.  0.
<mgrwt>
<rscale>  0 0.13922135E+04</rscale>
<asrwt>0</asrwt>
<pdfrwt beam="1">  1        1 0.47187791E+00 0.13922135E+04</pdfrwt>
<pdfrwt beam="2">  1       -1 0.10377276E+00 0.13922135E+04</pdfrwt>
<totfact> 0.45351627E-01</totfact>
</mgrwt>
</event>
<event>
 4    1  0.2731969E-009  0.4118494E+03  0.7818608E-02  0.1039752E+00
          1   -1    0    0  501    0  0.00000000000E+00  0.00000000000E+00  0.13736910881E+04  0.13736910881E+04  0.50400000000E-02 0. -1.
         -1   -1    0    0    0  501 -0.00000000000E+00 -0.00000000000E+00 -0.97050124764E+03  0.97050124765E+03  0.50400000000E-02 0.  1.
    8880022    1    1    2    0    0  0.65565796703E+02 -0.37673522492E+03  0.12965920670E+04  0.13604304262E+04  0.15294330000E+03 0.  0.
    8880022    1    1    2    0    0 -0.65565796703E+02  0.37673522492E+03 -0.89340222650E+03  0.98376190957E+03  0.15294330000E+03 0.  0.
<mgrwt>
<rscale>  0 0.41184943E+03</rscale>
<asrwt>0</asrwt>
<pdfrwt beam="1">  1        1 0.21133709E+00 0.41184943E+03</pdfrwt>
<pdfrwt beam="2">  1       -1 0.14930788E+00 0.41184943E+03</pdfrwt>
<totfact> 0.32051132E+00</totfact>
</mgrwt>
</event>
<event>
 4    1  0.2731969E-009  0.1450666E+04  0.7818608E-02  0.8917939E-01
          1   -1    0    0  501    0  0.00000000000E+00  0.00000000000E+00  0.20081847893E+04  0.20081847893E+04  0.50400000000E-02 0. -1.
         -1   -1    0    0    0  501 -0.00000000000E+00 -0.00000000000E+00 -0.20295314062E+04  0.20295314062E+04  0.50400000000E-02 0.  1.
    8880022    1    1    2    0    0  0.88279668095E+03 -0.11409245389E+04 -0.14147027816E+04  0.20262809274E+04  0.15294330000E+03 0.  0.
    8880022    1    1    2    0    0 -0.88279668095E+03  0.11409245389E+04  0.13933561647E+04  0.20114352682E+04  0.15294330000E+03 0.  0.
<mgrwt>
<rscale>  0 0.14506655E+04</rscale>
<asrwt>0</asrwt>
<pdfrwt beam="1">  1        1 0.30895151E+00 0.14506655E+04</pdfrwt>
<pdfrwt beam="2">  1       -1 0.31223560E+00 0.14506655E+04</pdfrwt>
<totfact> 0.76851433E-02</totfact>
</mgrwt>
</event>
<event>
 4    1  0.2731969E-009  0.3558094E+03  0.7818608E-02  0.1060256E+00
         -1   -1    0    0    0  501 -0.00000000000E+00  0.00000000000E+00  0.19977328864E+03  0.19977328870E+03  0.50400000000E-02 0.  1.
          1   -1    0    0  501    0  0.00000000000E+00 -0.00000000000E+00 -0.90340721927E+03  0.90340721928E+03  0.50400000000E-02 0. -1.
    8880022    1    1    2    0    0  0.26263119118E+03 -0.18502314357E+03 -0.65319032832E+03  0.74381312456E+03  0.15294330000E+03 0.  0.
    8880022    1    1    2    0    0 -0.26263119118E+03  0.18502314357E+03 -0.50443602304E+02  0.35936738342E+03  0.15294330000E+03 0.  0.
<mgrwt>
<rscale>  0 0.35580944E+03</rscale>
<asrwt>0</asrwt>
<pdfrwt beam="1">  1        1 0.13898572E+00 0.35580944E+03</pdfrwt>
<pdfrwt beam="2">  1       -1 0.30734353E-01 0.35580944E+03</pdfrwt>
<totfact> 0.18565099E+02</totfact>
</mgrwt>
</event>
<event>
 4    1  0.2731969E-009  0.9739676E+03  0.7818608E-02  0.9337567E-01
          1   -1    0    0  501    0  0.00000000000E+00  0.00000000000E+00  0.19037078341E+04  0.19037078341E+04  0.50400000000E-02 0. -1.
         -1   -1    0    0    0  501 -0.00000000000E+00 -0.00000000000E+00 -0.59183666676E+03  0.59183666678E+03  0.50400000000E-02 0.  1.
    8880022    1    1    2    0    0 -0.63655795843E+03  0.72112075228E+03  0.11519921140E+04  0.15085418978E+04  0.15294330000E+03 0.  0.
    8880022    1    1    2    0    0  0.63655795843E+03 -0.72112075228E+03  0.15987905341E+03  0.98700260310E+03  0.15294330000E+03 0.  0.
<mgrwt>
<rscale>  0 0.97396757E+03</rscale>
<asrwt>0</asrwt>
<pdfrwt beam="1">  1        1 0.29287813E+00 0.97396757E+03</pdfrwt>
<pdfrwt beam="2">  1       -1 0.91051794E-01 0.97396757E+03</pdfrwt>
<totfact> 0.41331593E+00</totfact>
</mgrwt>
</event>
<event>
 4    1  0.2731969E-009  0.1343286E+04  0.7818608E-02  0.8995926E-01
         -1   -1    0    0    0  501 -0.00000000000E+00  0.00000000000E+00  0.26107856863E+04  0.26107856863E+04  0.50400000000E-02 0.  1.
          1   -1    0    0  501    0  0.00000000000E+00 -0.00000000000E+00 -0.75668632282E+03  0.75668632284E+03  0.50400000000E-02 0. -1.
    8880022    1    1    2    0    0  0.88854383039E+03  0.99574921169E+03  0.14226030068E+04  0.19565831440E+04  0.15294330000E+03 0.  0.
    8880022    1    1    2    0    0 -0.88854383039E+03 -0.99574921169E+03  0.43149635663E+03  0.14108888652E+04  0.15294330000E+03 0.  0.
<mgrwt>
<rscale>  0 0.13432864E+04</rscale>
<asrwt>0</asrwt>
<pdfrwt beam="1">  1        1 0.11641328E+00 0.13432864E+04</pdfrwt>
<pdfrwt beam="2">  1       -1 0.40165934E+00 0.13432864E+04</pdfrwt>
<totfact> 0.16419327E-01</totfact>
</mgrwt>
</event>
<event>
 4    1  0.2731969E-009  0.1114706E+04  0.7818608E-02  0.9190976E-01
          1   -1    0    0  501    0  0.00000000000E+00  0.00000000000E+00  0.28714390966E+04  0.28714390966E+04  0.50400000000E-02 0. -1.
         -1   -1    0    0    0  501 -0.00000000000E+00 -0.00000000000E+00 -0.71429044157E+03  0.71429044159E+03  0.50400000000E-02 0.  1.
    8880022    1    1    2    0    0 -0.10829732374E+04  0.21528113847E+03 -0.47048852840E+02  0.11156980995E+04  0.15294330000E+03 0.  0.
    8880022    1    1    2    0    0  0.10829732374E+04 -0.21528113847E+03  0.22041975078E+04  0.24700314387E+04  0.15294330000E+03 0.  0.
<mgrwt>
<rscale>  0 0.11147056E+04</rscale>
<asrwt>0</asrwt>
<pdfrwt beam="1">  1        1 0.44175986E+00 0.11147056E+04</pdfrwt>
<pdfrwt beam="2">  1       -1 0.10989084E+00 0.11147056E+04</pdfrwt>
<totfact> 0.57021398E-01</totfact>
</mgrwt>
</event>
<event>
 4    1  0.2731969E-009  0.9925651E+03  0.7818608E-02  0.9316737E-01
          1   -1    0    0  501    0  0.00000000000E+00  0.00000000000E+00  0.42451055059E+04  0.42451055059E+04  0.50400000000E-02 0. -1.
         -1   -1    0    0    0  501 -0.00000000000E+00 -0.00000000000E+00 -0.10704548148E+04  0.10704548148E+04  0.50400000000E-02 0.  1.
    8880022    1    1    2    0    0 -0.93698489262E+03  0.28957415432E+03 -0.76477111798E+03  0.12530205089E+04  0.15294330000E+03 0.  0.
    8880022    1    1    2    0    0  0.93698489262E+03 -0.28957415432E+03  0.39394218091E+04  0.40625398118E+04  0.15294330000E+03 0.  0.
<mgrwt>
<rscale>  0 0.99256513E+03</rscale>
<asrwt>0</asrwt>
<pdfrwt beam="1">  1        1 0.65309315E+00 0.99256513E+03</pdfrwt>
<pdfrwt beam="2">  1       -1 0.16468536E+00 0.99256513E+03</pdfrwt>
<totfact> 0.16468746E-02</totfact>
</mgrwt>
</event>
<event>
 4    1  0.2731969E-009  0.9238952E+03  0.7818608E-02  0.9396195E-01
          1   -1    0    0  501    0  0.00000000000E+00  0.00000000000E+00  0.32449486814E+04  0.32449486814E+04  0.50400000000E-02 0. -1.
         -1   -1    0    0    0  501 -0.00000000000E+00 -0.00000000000E+00 -0.33096009212E+03  0.33096009215E+03  0.50400000000E-02 0.  1.
    8880022    1    1    2    0    0  0.32658587425E+03  0.85060701328E+03  0.64708341600E+03  0.11279624216E+04  0.15294330000E+03 0.  0.
    8880022    1    1    2    0    0 -0.32658587425E+03 -0.85060701328E+03  0.22669051733E+04  0.24479463520E+04  0.15294330000E+03 0.  0.
<mgrwt>
<rscale>  0 0.92389517E+03</rscale>
<asrwt>0</asrwt>
<pdfrwt beam="1">  1        1 0.49922288E+00 0.92389517E+03</pdfrwt>
<pdfrwt beam="2">  1       -1 0.50916937E-01 0.92389517E+03</pdfrwt>
<totfact> 0.15948805E+00</totfact>
</mgrwt>
</event>
<event>
 4    1  0.2731969E-009  0.6543276E+03  0.7818608E-02  0.9798692E-01
         -1   -1    0    0    0  501 -0.00000000000E+00  0.00000000000E+00  0.91642442883E+03  0.91642442885E+03  0.50400000000E-02 0.  1.
          1   -1    0    0  501    0  0.00000000000E+00 -0.00000000000E+00 -0.82644721955E+03  0.82644721956E+03  0.50400000000E-02 0. -1.
    8880022    1    1    2    0    0 -0.51133138961E+03 -0.37854084105E+03  0.61954202452E+03  0.90109762595E+03  0.15294330000E+03 0.  0.
    8880022    1    1    2    0    0  0.51133138961E+03  0.37854084105E+03 -0.52956481523E+03  0.84177402246E+03  0.15294330000E+03 0.  0.
<mgrwt>
<rscale>  0 0.65432760E+03</rscale>
<asrwt>0</asrwt>
<pdfrwt beam="1">  1        1 0.12714573E+00 0.65432760E+03</pdfrwt>
<pdfrwt beam="2">  1       -1 0.14098837E+00 0.65432760E+03</pdfrwt>
<totfact> 0.90325922E+00</totfact>
</mgrwt>
</event>
<event>
 4    1  0.2731969E-009  0.3542644E+03  0.7818608E-02  0.1060878E+00
         -1   -1    0    0    0  501 -0.00000000000E+00  0.00000000000E+00  0.54290653968E+03  0.54290653970E+03  0.50400000000E-02 0.  1.
          1   -1    0    0  501    0  0.00000000000E+00 -0.00000000000E+00 -0.10874915248E+04  0.10874915248E+04  0.50400000000E-02 0. -1.
    8880022    1    1    2    0    0 -0.31646167703E+03  0.44312397438E+02 -0.99567726914E+03  0.10568237596E+04  0.15294330000E+03 0. -1.
    8880022    1    1    2    0    0  0.31646167703E+03 -0.44312397438E+02  0.45109228398E+03  0.57357430493E+03  0.15294330000E+03 0.  0.
<mgrwt>
<rscale>  0 0.35426436E+03</rscale>
<asrwt>0</asrwt>
<pdfrwt beam="1">  1        1 0.16730639E+00 0.35426436E+03</pdfrwt>
<pdfrwt beam="2">  1       -1 0.83524083E-01 0.35426436E+03</pdfrwt>
<totfact> 0.20380599E+01</totfact>
</mgrwt>
</event>
<event>
 4    1  0.2731969E-009  0.1292871E+04  0.7818608E-02  0.9035238E-01
          1   -1    0    0  501    0  0.00000000000E+00  0.00000000000E+00  0.13184129339E+04  0.13184129339E+04  0.50400000000E-02 0. -1.
         -1   -1    0    0    0  501 -0.00000000000E+00 -0.00000000000E+00 -0.28929734180E+04  0.28929734180E+04  0.50400000000E-02 0.  1.
    8880022    1    1    2    0    0  0.70822727749E+03 -0.10707650218E+04 -0.23655075245E+04  0.26957635486E+04  0.15294330000E+03 0.  0.
    8880022    1    1    2    0    0 -0.70822727749E+03  0.10707650218E+04  0.79094704029E+03  0.15156228034E+04  0.15294330000E+03 0.  0.
<mgrwt>
<rscale>  0 0.12928709E+04</rscale>
<asrwt>0</asrwt>
<pdfrwt beam="1">  1        1 0.20283276E+00 0.12928709E+04</pdfrwt>
<pdfrwt beam="2">  1       -1 0.44507283E+00 0.12928709E+04</pdfrwt>
<totfact> 0.29965841E-02</totfact>
</mgrwt>
</event>
<event>
 4    1  0.2731969E-009  0.6054250E+03  0.7818608E-02  0.9894214E-01
         -1   -1    0    0    0  501 -0.00000000000E+00  0.00000000000E+00  0.42011052237E+03  0.42011052240E+03  0.50400000000E-02 0.  1.
          1   -1    0    0  501    0  0.00000000000E+00 -0.00000000000E+00 -0.18595348131E+04  0.18595348132E+04  0.50400000000E-02 0. -1.
    8880022    1    1    2    0    0  0.57902144347E+03  0.88780500708E+02  0.11072165469E+03  0.61546628432E+03  0.15294330000E+03 0.  0.
    8880022    1    1    2    0    0 -0.57902144347E+03 -0.88780500708E+02 -0.15501459455E+04  0.16641790512E+04  0.15294330000E+03 0.  0.
<mgrwt>
<rscale>  0 0.60542503E+03</rscale>
<asrwt>0</asrwt>
<pdfrwt beam="1">  1        1 0.28608228E+00 0.60542503E+03</pdfrwt>
<pdfrwt beam="2">  1       -1 0.64632389E-01 0.60542503E+03</pdfrwt>
<totfact> 0.96479218E+00</totfact>
</mgrwt>
</event>
<event>
 4    1  0.2731969E-009  0.1952835E+03  0.7818608E-02  0.1153780E+00
         -1   -1    0    0    0  501 -0.00000000000E+00  0.00000000000E+00  0.38042680356E+03  0.38042680359E+03  0.50400000000E-02 0.  1.
          1   -1    0    0  501    0  0.00000000000E+00 -0.00000000000E+00 -0.73613411346E+03  0.73613411348E+03  0.50400000000E-02 0. -1.
    8880022    1    1    2    0    0 -0.77685467288E+02  0.93321780938E+02 -0.69673119171E+03  0.72358136595E+03  0.15294330000E+03 0.  0.
    8880022    1    1    2    0    0  0.77685467288E+02 -0.93321780938E+02  0.34102388181E+03  0.39297955113E+03  0.15294330000E+03 0.  1.
<mgrwt>
<rscale>  0 0.19528349E+03</rscale>
<asrwt>0</asrwt>
<pdfrwt beam="1">  1        1 0.11325140E+00 0.19528349E+03</pdfrwt>
<pdfrwt beam="2">  1       -1 0.58527200E-01 0.19528349E+03</pdfrwt>
<totfact> 0.82485172E+01</totfact>
</mgrwt>
</event>
<event>
 4    1  0.2731969E-009  0.5897024E+03  0.7818608E-02  0.9927004E-01
         -1   -1    0    0    0  501 -0.00000000000E+00  0.00000000000E+00  0.14549330669E+04  0.14549330669E+04  0.50400000000E-02 0.  1.
          1   -1    0    0  501    0  0.00000000000E+00 -0.00000000000E+00 -0.86915245219E+03  0.86915245221E+03  0.50400000000E-02 0. -1.
    8880022    1    1    2    0    0 -0.46818388054E+03  0.32428558034E+03  0.12823365945E+04  0.14114305078E+04  0.15294330000E+03 0.  0.
    8880022    1    1    2    0    0  0.46818388054E+03 -0.32428558034E+03 -0.69655597984E+03  0.91265501132E+03  0.15294330000E+03 0.  0.
<mgrwt>
<rscale>  0 0.58970241E+03</rscale>
<asrwt>0</asrwt>
<pdfrwt beam="1">  1        1 0.13371576E+00 0.58970241E+03</pdfrwt>
<pdfrwt beam="2">  1       -1 0.22383586E+00 0.58970241E+03</pdfrwt>
<totfact> 0.21582240E+00</totfact>
</mgrwt>
</event>
<event>
 4    1  0.2731969E-009  0.6591559E+03  0.7818608E-02  0.9789749E-01
          1   -1    0    0  501    0  0.00000000000E+00  0.00000000000E+00  0.18716215265E+04  0.18716215265E+04  0.50400000000E-02 0. -1.
         -1   -1    0    0    0  501 -0.00000000000E+00 -0.00000000000E+00 -0.40870045908E+03  0.40870045911E+03  0.50400000000E-02 0.  1.
    8880022    1    1    2    0    0  0.61634923732E+03 -0.17665929798E+03  0.14808453207E+04  0.16209223938E+04  0.15294330000E+03 0.  0.
    8880022    1    1    2    0    0 -0.61634923732E+03  0.17665929798E+03 -0.17924253197E+02  0.65939959188E+03  0.15294330000E+03 0.  0.
<mgrwt>
<rscale>  0 0.65915593E+03</rscale>
<asrwt>0</asrwt>
<pdfrwt beam="1">  1        1 0.28794178E+00 0.65915593E+03</pdfrwt>
<pdfrwt beam="2">  1       -1 0.62876993E-01 0.65915593E+03</pdfrwt>
<totfact> 0.99050634E+00</totfact>
</mgrwt>
</event>
<event>
 4    1  0.2731969E-009  0.8924238E+03  0.7818608E-02  0.9435102E-01
         -1   -1    0    0    0  501 -0.00000000000E+00  0.00000000000E+00  0.68761871226E+03  0.68761871228E+03  0.50400000000E-02 0.  1.
          1   -1    0    0  501    0  0.00000000000E+00 -0.00000000000E+00 -0.18884006862E+04  0.18884006862E+04  0.50400000000E-02 0. -1.
    8880022    1    1    2    0    0  0.40097752284E+03 -0.78246128677E+03  0.20052026986E+03  0.91467407898E+03  0.15294330000E+03 0.  0.
    8880022    1    1    2    0    0 -0.40097752284E+03  0.78246128677E+03 -0.14013022438E+04  0.16613453195E+04  0.15294330000E+03 0.  0.
<mgrwt>
<rscale>  0 0.89242383E+03</rscale>
<asrwt>0</asrwt>
<pdfrwt beam="1">  1        1 0.29052318E+00 0.89242383E+03</pdfrwt>
<pdfrwt beam="2">  1       -1 0.10578749E+00 0.89242383E+03</pdfrwt>
<totfact> 0.30438499E+00</totfact>
</mgrwt>
</event>
<event>
 4    1  0.2731969E-009  0.2659816E+03  0.7818608E-02  0.1103602E+00
         -1   -1    0    0    0  501 -0.00000000000E+00  0.00000000000E+00  0.75781956216E+02  0.75781956384E+02  0.50400000000E-02 0.  1.
          1   -1    0    0  501    0  0.00000000000E+00 -0.00000000000E+00 -0.14061236406E+04  0.14061236406E+04  0.50400000000E-02 0. -1.
    8880022    1    1    2    0    0  0.10886537902E+03 -0.18842206484E+03 -0.10947209375E+04  0.11265700729E+04  0.15294330000E+03 0.  0.
    8880022    1    1    2    0    0 -0.10886537902E+03  0.18842206484E+03 -0.23562074691E+03  0.35533552406E+03  0.15294330000E+03 0.  0.
<mgrwt>
<rscale>  0 0.26598158E+03</rscale>
<asrwt>0</asrwt>
<pdfrwt beam="1">  1        1 0.21632670E+00 0.26598158E+03</pdfrwt>
<pdfrwt beam="2">  1       -1 0.11658763E-01 0.26598158E+03</pdfrwt>
<totfact> 0.39807961E+02</totfact>
</mgrwt>
</event>
<event>
 4    1  0.2731969E-009  0.5107595E+03  0.7818608E-02  0.1011008E+00
         -1   -1    0    0    0  501 -0.00000000000E+00  0.00000000000E+00  0.63860516146E+03  0.63860516148E+03  0.50400000000E-02 0.  1.
          1   -1    0    0  501    0  0.00000000000E+00 -0.00000000000E+00 -0.12333205379E+04  0.12333205379E+04  0.50400000000E-02 0. -1.
    8880022    1    1    2    0    0  0.14367273084E+03 -0.46566271937E+03 -0.10627749878E+04  0.11791377992E+04  0.15294330000E+03 0.  0.
    8880022    1    1    2    0    0 -0.14367273084E+03  0.46566271937E+03  0.46805961139E+03  0.69278790017E+03  0.15294330000E+03 0.  0.
<mgrwt>
<rscale>  0 0.51075951E+03</rscale>
<asrwt>0</asrwt>
<pdfrwt beam="1">  1        1 0.18974162E+00 0.51075951E+03</pdfrwt>
<pdfrwt beam="2">  1       -1 0.98246948E-01 0.51075951E+03</pdfrwt>
<totfact> 0.10816410E+01</totfact>
</mgrwt>
</event>
<event>
 4    1  0.2731969E-009  0.5018110E+03  0.7818608E-02  0.1013307E+00
         -1   -1    0    0    0  501 -0.00000000000E+00  0.00000000000E+00  0.53674888113E+03  0.53674888115E+03  0.50400000000E-02 0.  1.
          1   -1    0    0  501    0  0.00000000000E+00 -0.00000000000E+00 -0.13097972427E+04  0.13097972427E+04  0.50400000000E-02 0. -1.
    8880022    1    1    2    0    0  0.46441357336E+03 -0.11288326964E+03  0.35314196139E+03  0.61361510542E+03  0.15294330000E+03 0.  0.
    8880022    1    1    2    0    0 -0.46441357336E+03  0.11288326964E+03 -0.11261903230E+04  0.12329310184E+04  0.15294330000E+03 0.  0.
<mgrwt>
<rscale>  0 0.50181097E+03</rscale>
<asrwt>0</asrwt>
<pdfrwt beam="1">  1        1 0.20150727E+00 0.50181097E+03</pdfrwt>
<pdfrwt beam="2">  1       -1 0.82576751E-01 0.50181097E+03</pdfrwt>
<totfact> 0.13995192E+01</totfact>
</mgrwt>
</event>
<event>
 4    1  0.2731969E-009  0.8323540E+03  0.7818608E-02  0.9514332E-01
          1   -1    0    0  501    0  0.00000000000E+00  0.00000000000E+00  0.62341970620E+03  0.62341970622E+03  0.50400000000E-02 0. -1.
         -1   -1    0    0    0  501 -0.00000000000E+00 -0.00000000000E+00 -0.14503946026E+04  0.14503946026E+04  0.50400000000E-02 0.  1.
    8880022    1    1    2    0    0 -0.20821162991E+03  0.79124551228E+03 -0.91484799799E+03  0.12368346923E+04  0.15294330000E+03 0.  0.
    8880022    1    1    2    0    0  0.20821162991E+03 -0.79124551228E+03  0.87873101597E+02  0.83697961656E+03  0.15294330000E+03 0.  0.
<mgrwt>
<rscale>  0 0.83235401E+03</rscale>
<asrwt>0</asrwt>
<pdfrwt beam="1">  1        1 0.95910725E-01 0.83235401E+03</pdfrwt>
<pdfrwt beam="2">  1       -1 0.22313763E+00 0.83235401E+03</pdfrwt>
<totfact> 0.34892534E+00</totfact>
</mgrwt>
</event>
<event>
 4    1  0.2731969E-009  0.6914352E+03  0.7818608E-02  0.9731992E-01
          1   -1    0    0  501    0  0.00000000000E+00  0.00000000000E+00  0.44090664359E+03  0.44090664362E+03  0.50400000000E-02 0. -1.
         -1   -1    0    0    0  501 -0.00000000000E+00 -0.00000000000E+00 -0.19935891769E+04  0.19935891769E+04  0.50400000000E-02 0.  1.
    8880022    1    1    2    0    0 -0.48500851253E+03  0.46846313680E+03  0.45727460239E+02  0.69294561215E+03  0.15294330000E+03 0.  0.
    8880022    1    1    2    0    0  0.48500851253E+03 -0.46846313680E+03 -0.15984099935E+04  0.17415502083E+04  0.15294330000E+03 0.  0.
<mgrwt>
<rscale>  0 0.69143519E+03</rscale>
<asrwt>0</asrwt>
<pdfrwt beam="1">  1        1 0.67831792E-01 0.69143519E+03</pdfrwt>
<pdfrwt beam="2">  1       -1 0.30670602E+00 0.69143519E+03</pdfrwt>
<totfact> 0.16745339E+00</totfact>
</mgrwt>
</event>
<event>
 4    1  0.2731969E-009  0.8334586E+03  0.7818608E-02  0.9512811E-01
         -1   -1    0    0    0  501 -0.00000000000E+00  0.00000000000E+00  0.80299425466E+03  0.80299425467E+03  0.50400000000E-02 0.  1.
          1   -1    0    0  501    0  0.00000000000E+00 -0.00000000000E+00 -0.15370235661E+04  0.15370235661E+04  0.50400000000E-02 0. -1.
    8880022    1    1    2    0    0 -0.18900690736E+03  0.79720635320E+03  0.40658402959E+03  0.92734233525E+03  0.15294330000E+03 0.  0.
    8880022    1    1    2    0    0  0.18900690736E+03 -0.79720635320E+03 -0.11406133410E+04  0.14126754855E+04  0.15294330000E+03 0.  0.
<mgrwt>
<rscale>  0 0.83345860E+03</rscale>
<asrwt>0</asrwt>
<pdfrwt beam="1">  1        1 0.23646516E+00 0.83345860E+03</pdfrwt>
<pdfrwt beam="2">  1       -1 0.12353758E+00 0.83345860E+03</pdfrwt>
<totfact> 0.36591411E+00</totfact>
</mgrwt>
</event>
<event>
 4    1  0.2731969E-009  0.5105322E+03  0.7818608E-02  0.1011066E+00
          1   -1    0    0  501    0  0.00000000000E+00  0.00000000000E+00  0.11257203837E+04  0.11257203837E+04  0.50400000000E-02 0. -1.
         -1   -1    0    0    0  501 -0.00000000000E+00 -0.00000000000E+00 -0.50754019440E+03  0.50754019442E+03  0.50400000000E-02 0.  1.
    8880022    1    1    2    0    0  0.38251715539E+03 -0.30154955252E+03  0.91130187499E+03  0.10445641518E+04  0.15294330000E+03 0.  0.
    8880022    1    1    2    0    0 -0.38251715539E+03  0.30154955252E+03 -0.29312168568E+03  0.58869642637E+03  0.15294330000E+03 0.  0.
<mgrwt>
<rscale>  0 0.51053223E+03</rscale>
<asrwt>0</asrwt>
<pdfrwt beam="1">  1        1 0.17318775E+00 0.51053223E+03</pdfrwt>
<pdfrwt beam="2">  1       -1 0.78083107E-01 0.51053223E+03</pdfrwt>
<totfact> 0.21268460E+01</totfact>
</mgrwt>
</event>
<event>
 4    1  0.2731969E-009  0.9044595E+03  0.7818608E-02  0.9420024E-01
         -1   -1    0    0    0  501 -0.00000000000E+00  0.00000000000E+00  0.79794533525E+03  0.79794533527E+03  0.50400000000E-02 0.  1.
          1   -1    0    0  501    0  0.00000000000E+00 -0.00000000000E+00 -0.17602688148E+04  0.17602688148E+04  0.50400000000E-02 0. -1.
    8880022    1    1    2    0    0  0.56784271095E+03  0.68717539754E+03 -0.13077397007E+04  0.15900409269E+04  0.15294330000E+03 0.  0.
    8880022    1    1    2    0    0 -0.56784271095E+03 -0.68717539754E+03  0.34541622111E+03  0.96817322323E+03  0.15294330000E+03 0.  0.
<mgrwt>
<rscale>  0 0.90445952E+03</rscale>
<asrwt>0</asrwt>
<pdfrwt beam="1">  1        1 0.27081059E+00 0.90445952E+03</pdfrwt>
<pdfrwt beam="2">  1       -1 0.12276082E+00 0.90445952E+03</pdfrwt>
<totfact> 0.25938495E+00</totfact>
</mgrwt>
</event>
<event>
 4    1  0.2731969E-009  0.1058922E+04  0.7818608E-02  0.9246181E-01
         -1   -1    0    0    0  501 -0.00000000000E+00  0.00000000000E+00  0.61433472782E+03  0.61433472784E+03  0.50400000000E-02 0.  1.
          1   -1    0    0  501    0  0.00000000000E+00 -0.00000000000E+00 -0.18754353175E+04  0.18754353175E+04  0.50400000000E-02 0. -1.
    8880022    1    1    2    0    0  0.10410933618E+04 -0.11852713422E+03 -0.42691284215E+03  0.11417400306E+04  0.15294330000E+03 0.  0.
    8880022    1    1    2    0    0 -0.10410933618E+04  0.11852713422E+03 -0.83418774749E+03  0.13480300147E+04  0.15294330000E+03 0.  0.
<mgrwt>
<rscale>  0 0.10589220E+04</rscale>
<asrwt>0</asrwt>
<pdfrwt beam="1">  1        1 0.28852851E+00 0.10589220E+04</pdfrwt>
<pdfrwt beam="2">  1       -1 0.94513036E-01 0.10589220E+04</pdfrwt>
<totfact> 0.39298421E+00</totfact>
</mgrwt>
</event>
<event>
 4    1  0.2731969E-009  0.8299591E+03  0.7818608E-02  0.9517637E-01
          1   -1    0    0  501    0  0.00000000000E+00  0.00000000000E+00  0.16146516016E+04  0.16146516016E+04  0.50400000000E-02 0. -1.
         -1   -1    0    0    0  501 -0.00000000000E+00 -0.00000000000E+00 -0.51712554162E+03  0.51712554165E+03  0.50400000000E-02 0.  1.
    8880022    1    1    2    0    0  0.41566676615E+03  0.70189859352E+03  0.99469337296E+03  0.12954717501E+04  0.15294330000E+03 0.  0.
    8880022    1    1    2    0    0 -0.41566676615E+03 -0.70189859352E+03  0.10283268699E+03  0.83630539314E+03  0.15294330000E+03 0.  0.
<mgrwt>
<rscale>  0 0.82995912E+03</rscale>
<asrwt>0</asrwt>
<pdfrwt beam="1">  1        1 0.24840793E+00 0.82995912E+03</pdfrwt>
<pdfrwt beam="2">  1       -1 0.79557777E-01 0.82995912E+03</pdfrwt>
<totfact> 0.88520926E+00</totfact>
</mgrwt>
</event>
<event>
 4    1  0.2731969E-009  0.1286319E+04  0.7818608E-02  0.9040485E-01
          1   -1    0    0  501    0  0.00000000000E+00  0.00000000000E+00  0.13074336579E+04  0.13074336579E+04  0.50400000000E-02 0. -1.
         -1   -1    0    0    0  501 -0.00000000000E+00 -0.00000000000E+00 -0.17095311039E+04  0.17095311039E+04  0.50400000000E-02 0.  1.
    8880022    1    1    2    0    0 -0.12768152871E+04  0.31102841450E+02  0.56770345067E+03  0.14060240130E+04  0.15294330000E+03 0.  0.
    8880022    1    1    2    0    0  0.12768152871E+04 -0.31102841450E+02 -0.96980089666E+03  0.16109407489E+04  0.15294330000E+03 0.  0.
<mgrwt>
<rscale>  0 0.12863189E+04</rscale>
<asrwt>0</asrwt>
<pdfrwt beam="1">  1        1 0.20114364E+00 0.12863189E+04</pdfrwt>
<pdfrwt beam="2">  1       -1 0.26300479E+00 0.12863189E+04</pdfrwt>
<totfact> 0.49761179E-01</totfact>
</mgrwt>
</event>
<event>
 4    1  0.2731969E-009  0.4829227E+03  0.7818608E-02  0.1018335E+00
          1   -1    0    0  501    0  0.00000000000E+00  0.00000000000E+00  0.13117671400E+04  0.13117671400E+04  0.50400000000E-02 0. -1.
         -1   -1    0    0    0  501 -0.00000000000E+00 -0.00000000000E+00 -0.28948239676E+03  0.28948239681E+03  0.50400000000E-02 0.  1.
    8880022    1    1    2    0    0  0.45453003008E+03  0.56790559435E+02  0.13821451233E+02  0.48312048334E+03  0.15294330000E+03 0.  0.
    8880022    1    1    2    0    0 -0.45453003008E+03 -0.56790559435E+02  0.10084632920E+04  0.11181290534E+04  0.15294330000E+03 0.  0.
<mgrwt>
<rscale>  0 0.48292274E+03</rscale>
<asrwt>0</asrwt>
<pdfrwt beam="1">  1        1 0.20181033E+00 0.48292274E+03</pdfrwt>
<pdfrwt beam="2">  1       -1 0.44535754E-01 0.48292274E+03</pdfrwt>
<totfact> 0.47154012E+01</totfact>
</mgrwt>
</event>
<event>
 4    1  0.2731969E-009  0.1207560E+04  0.7818608E-02  0.9106265E-01
         -1   -1    0    0    0  501 -0.00000000000E+00  0.00000000000E+00  0.10664568008E+04  0.10664568008E+04  0.50400000000E-02 0.  1.
          1   -1    0    0  501    0  0.00000000000E+00 -0.00000000000E+00 -0.14768084714E+04  0.14768084714E+04  0.50400000000E-02 0. -1.
    8880022    1    1    2    0    0  0.11071533123E+04  0.45718935608E+03  0.14104786909E+03  0.12157700106E+04  0.15294330000E+03 0.  0.
    8880022    1    1    2    0    0 -0.11071533123E+04 -0.45718935608E+03 -0.55139953968E+03  0.13274952616E+04  0.15294330000E+03 0.  0.
<mgrwt>
<rscale>  0 0.12075604E+04</rscale>
<asrwt>0</asrwt>
<pdfrwt beam="1">  1        1 0.22720130E+00 0.12075604E+04</pdfrwt>
<pdfrwt beam="2">  1       -1 0.16407028E+00 0.12075604E+04</pdfrwt>
<totfact> 0.18110202E+00</totfact>
</mgrwt>
</event>
<event>
 4    1  0.2731969E-009  0.2900086E+03  0.7818608E-02  0.1090345E+00
          1   -1    0    0  501    0  0.00000000000E+00  0.00000000000E+00  0.11217053086E+04  0.11217053086E+04  0.50400000000E-02 0. -1.
         -1   -1    0    0    0  501 -0.00000000000E+00 -0.00000000000E+00 -0.73327887138E+03  0.73327887140E+03  0.50400000000E-02 0.  1.
    8880022    1    1    2    0    0 -0.11402893554E+01 -0.24639813168E+03  0.10730077034E+04  0.11115082204E+04  0.15294330000E+03 0. -1.
    8880022    1    1    2    0    0  0.11402893554E+01  0.24639813168E+03 -0.68458126614E+03  0.74347595961E+03  0.15294330000E+03 0.  0.
<mgrwt>
<rscale>  0 0.29000861E+03</rscale>
<asrwt>0</asrwt>
<pdfrwt beam="1">  1        1 0.17257005E+00 0.29000861E+03</pdfrwt>
<pdfrwt beam="2">  1       -1 0.11281213E+00 0.29000861E+03</pdfrwt>
<totfact> 0.10080655E+01</totfact>
</mgrwt>
</event>
<event>
 4    1  0.2731969E-009  0.4338116E+03  0.7818608E-02  0.1032663E+00
          1   -1    0    0  501    0  0.00000000000E+00  0.00000000000E+00  0.25869426577E+03  0.25869426582E+03  0.50400000000E-02 0. -1.
         -1   -1    0    0    0  501 -0.00000000000E+00 -0.00000000000E+00 -0.20804595905E+04  0.20804595905E+04  0.50400000000E-02 0.  1.
    8880022    1    1    2    0    0  0.20568468379E+02 -0.40543526284E+03 -0.18540663584E+04  0.19041414151E+04  0.15294330000E+03 0.  0.
    8880022    1    1    2    0    0 -0.20568468379E+02  0.40543526284E+03  0.32301033682E+02  0.43501244124E+03  0.15294330000E+03 0. -1.
<mgrwt>
<rscale>  0 0.43381156E+03</rscale>
<asrwt>0</asrwt>
<pdfrwt beam="1">  1        1 0.39799119E-01 0.43381156E+03</pdfrwt>
<pdfrwt beam="2">  1       -1 0.32007070E+00 0.43381156E+03</pdfrwt>
<totfact> 0.29172847E+00</totfact>
</mgrwt>
</event>
<event>
 4    1  0.2731969E-009  0.1221860E+04  0.7818608E-02  0.9093935E-01
         -1   -1    0    0    0  501 -0.00000000000E+00  0.00000000000E+00  0.10363017380E+04  0.10363017380E+04  0.50400000000E-02 0.  1.
          1   -1    0    0  501    0  0.00000000000E+00 -0.00000000000E+00 -0.21040233191E+04  0.21040233191E+04  0.50400000000E-02 0. -1.
    8880022    1    1    2    0    0  0.12004343888E+04 -0.16883857727E+03 -0.14155197544E+04  0.18699296819E+04  0.15294330000E+03 0.  0.
    8880022    1    1    2    0    0 -0.12004343888E+04  0.16883857727E+03  0.34779817333E+03  0.12703953752E+04  0.15294330000E+03 0.  0.
<mgrwt>
<rscale>  0 0.12218596E+04</rscale>
<asrwt>0</asrwt>
<pdfrwt beam="1">  1        1 0.32369589E+00 0.12218596E+04</pdfrwt>
<pdfrwt beam="2">  1       -1 0.15943104E+00 0.12218596E+04</pdfrwt>
<totfact> 0.73272952E-01</totfact>
</mgrwt>
</event>
<event>
 4    1  0.2731969E-009  0.8928636E+03  0.7818608E-02  0.9434546E-01
         -1   -1    0    0    0  501 -0.00000000000E+00  0.00000000000E+00  0.35077873284E+03  0.35077873287E+03  0.50400000000E-02 0.  1.
          1   -1    0    0  501    0  0.00000000000E+00 -0.00000000000E+00 -0.24549760725E+04  0.24549760725E+04  0.50400000000E-02 0. -1.
    8880022    1    1    2    0    0  0.67651985908E+03 -0.56225856712E+03 -0.14343884564E+04  0.16895785607E+04  0.15294330000E+03 0.  0.
    8880022    1    1    2    0    0 -0.67651985908E+03  0.56225856712E+03 -0.66980888332E+03  0.11161762447E+04  0.15294330000E+03 0.  0.
<mgrwt>
<rscale>  0 0.89286363E+03</rscale>
<asrwt>0</asrwt>
<pdfrwt beam="1">  1        1 0.37768862E+00 0.89286363E+03</pdfrwt>
<pdfrwt beam="2">  1       -1 0.53965960E-01 0.89286363E+03</pdfrwt>
<totfact> 0.52133746E+00</totfact>
</mgrwt>
</event>
<event>
 4    1  0.2731969E-009  0.7901233E+03  0.7818608E-02  0.9574424E-01
          1   -1    0    0  501    0  0.00000000000E+00  0.00000000000E+00  0.18761002385E+04  0.18761002385E+04  0.50400000000E-02 0. -1.
         -1   -1    0    0    0  501 -0.00000000000E+00 -0.00000000000E+00 -0.94444771276E+03  0.94444771277E+03  0.50400000000E-02 0.  1.
    8880022    1    1    2    0    0  0.89464344693E+02 -0.76999951723E+03  0.16007814587E+04  0.17851599528E+04  0.15294330000E+03 0.  0.
    8880022    1    1    2    0    0 -0.89464344693E+02  0.76999951723E+03 -0.66912893296E+03  0.10353879985E+04  0.15294330000E+03 0.  0.
<mgrwt>
<rscale>  0 0.79012327E+03</rscale>
<asrwt>0</asrwt>
<pdfrwt beam="1">  1        1 0.28863080E+00 0.79012327E+03</pdfrwt>
<pdfrwt beam="2">  1       -1 0.14529965E+00 0.79012327E+03</pdfrwt>
<totfact> 0.14376069E+00</totfact>
</mgrwt>
</event>
<event>
 4    1  0.2731969E-009  0.8029715E+03  0.7818608E-02  0.9555726E-01
         -1   -1    0    0    0  501 -0.00000000000E+00  0.00000000000E+00  0.18022237553E+04  0.18022237553E+04  0.50400000000E-02 0.  1.
          1   -1    0    0  501    0  0.00000000000E+00 -0.00000000000E+00 -0.58600790998E+03  0.58600791000E+03  0.50400000000E-02 0. -1.
    8880022    1    1    2    0    0 -0.59134015239E+03 -0.52123730469E+03  0.13533516699E+04  0.15736339787E+04  0.15294330000E+03 0.  0.
    8880022    1    1    2    0    0  0.59134015239E+03  0.52123730469E+03 -0.13713582454E+03  0.81459768660E+03  0.15294330000E+03 0.  0.
<mgrwt>
<rscale>  0 0.80297145E+03</rscale>
<asrwt>0</asrwt>
<pdfrwt beam="1">  1        1 0.90155065E-01 0.80297145E+03</pdfrwt>
<pdfrwt beam="2">  1       -1 0.27726519E+00 0.80297145E+03</pdfrwt>
<totfact> 0.17093584E+00</totfact>
</mgrwt>
</event>
<event>
 4    1  0.2731969E-009  0.5006828E+03  0.7818608E-02  0.1013601E+00
         -1   -1    0    0    0  501 -0.00000000000E+00  0.00000000000E+00  0.32851233266E+03  0.32851233270E+03  0.50400000000E-02 0.  1.
          1   -1    0    0  501    0  0.00000000000E+00 -0.00000000000E+00 -0.14066902977E+04  0.14066902977E+04  0.50400000000E-02 0. -1.
    8880022    1    1    2    0    0  0.30748159328E+03  0.36434419067E+03  0.47765342797E+02  0.50295606216E+03  0.15294330000E+03 0.  0.
    8880022    1    1    2    0    0 -0.30748159328E+03 -0.36434419067E+03 -0.11259433078E+04  0.12322465682E+04  0.15294330000E+03 0. -1.
<mgrwt>
<rscale>  0 0.50068281E+03</rscale>
<asrwt>0</asrwt>
<pdfrwt beam="1">  1        1 0.21641389E+00 0.50068281E+03</pdfrwt>
<pdfrwt beam="2">  1       -1 0.50540360E-01 0.50068281E+03</pdfrwt>
<totfact> 0.31946891E+01</totfact>
</mgrwt>
</event>
<event>
 4    1  0.2731969E-009  0.8679280E+03  0.7818608E-02  0.9466586E-01
         -1   -1    0    0    0  501 -0.00000000000E+00  0.00000000000E+00  0.15868884512E+04  0.15868884512E+04  0.50400000000E-02 0.  1.
          1   -1    0    0  501    0  0.00000000000E+00 -0.00000000000E+00 -0.77480460322E+03  0.77480460324E+03  0.50400000000E-02 0. -1.
    8880022    1    1    2    0    0 -0.26024755472E+03  0.81374355413E+03 -0.32886491801E+03  0.92814392684E+03  0.15294330000E+03 0.  0.
    8880022    1    1    2    0    0  0.26024755472E+03 -0.81374355413E+03  0.11409487660E+04  0.14335491276E+04  0.15294330000E+03 0.  0.
<mgrwt>
<rscale>  0 0.86792800E+03</rscale>
<asrwt>0</asrwt>
<pdfrwt beam="1">  1        1 0.11920071E+00 0.86792800E+03</pdfrwt>
<pdfrwt beam="2">  1       -1 0.24413668E+00 0.86792800E+03</pdfrwt>
<totfact> 0.18186712E+00</totfact>
</mgrwt>
</event>
<event>
 4    1  0.2731969E-009  0.3849230E+03  0.7818608E-02  0.1049129E+00
          1   -1    0    0  501    0  0.00000000000E+00  0.00000000000E+00  0.11703666526E+04  0.11703666526E+04  0.50400000000E-02 0. -1.
         -1   -1    0    0    0  501 -0.00000000000E+00 -0.00000000000E+00 -0.14772951299E+03  0.14772951307E+03  0.50400000000E-02 0.  1.
    8880022    1    1    2    0    0 -0.11249030795E+03  0.33484329148E+03  0.76057801307E+03  0.85243455245E+03  0.15294330000E+03 0.  0.
    8880022    1    1    2    0    0  0.11249030795E+03 -0.33484329148E+03  0.26205912657E+03  0.46566161326E+03  0.15294330000E+03 0.  0.
<mgrwt>
<rscale>  0 0.38492305E+03</rscale>
<asrwt>0</asrwt>
<pdfrwt beam="1">  1        1 0.18005641E+00 0.38492305E+03</pdfrwt>
<pdfrwt beam="2">  1       -1 0.22727617E-01 0.38492305E+03</pdfrwt>
<totfact> 0.19446378E+02</totfact>
</mgrwt>
</event>
<event>
 4    1  0.2731969E-009  0.1326657E+04  0.7818608E-02  0.9008689E-01
         -1   -1    0    0    0  501 -0.00000000000E+00  0.00000000000E+00  0.18377359225E+04  0.18377359225E+04  0.50400000000E-02 0.  1.
          1   -1    0    0  501    0  0.00000000000E+00 -0.00000000000E+00 -0.16426870311E+04  0.16426870311E+04  0.50400000000E-02 0. -1.
    8880022    1    1    2    0    0  0.16113737721E+03 -0.13079232344E+04  0.12212552072E+04  0.18031872824E+04  0.15294330000E+03 0.  0.
    8880022    1    1    2    0    0 -0.16113737721E+03  0.13079232344E+04 -0.10262063158E+04  0.16772356712E+04  0.15294330000E+03 0.  0.
<mgrwt>
<rscale>  0 0.13266575E+04</rscale>
<asrwt>0</asrwt>
<pdfrwt beam="1">  1        1 0.25272108E+00 0.13266575E+04</pdfrwt>
<pdfrwt beam="2">  1       -1 0.28272860E+00 0.13266575E+04</pdfrwt>
<totfact> 0.21522142E-01</totfact>
</mgrwt>
</event>
<event>
 4    1  0.2731969E-009  0.2722890E+03  0.7818608E-02  0.1099977E+00
         -1   -1    0    0    0  501 -0.00000000000E+00  0.00000000000E+00  0.34997947524E+03  0.34997947528E+03  0.50400000000E-02 0.  1.
          1   -1    0    0  501    0  0.00000000000E+00 -0.00000000000E+00 -0.65132504345E+03  0.65132504347E+03  0.50400000000E-02 0. -1.
    8880022    1    1    2    0    0 -0.56291532125E+02 -0.21813043372E+03 -0.56192386219E+03  0.62441949250E+03  0.15294330000E+03 0.  0.
    8880022    1    1    2    0    0  0.56291532125E+02  0.21813043372E+03  0.26057829398E+03  0.37688502625E+03  0.15294330000E+03 0.  0.
<mgrwt>
<rscale>  0 0.27228896E+03</rscale>
<asrwt>0</asrwt>
<pdfrwt beam="1">  1        1 0.10020385E+00 0.27228896E+03</pdfrwt>
<pdfrwt beam="2">  1       -1 0.53842996E-01 0.27228896E+03</pdfrwt>
<totfact> 0.11332215E+02</totfact>
</mgrwt>
</event>
<event>
 4    1  0.2731969E-009  0.7212398E+03  0.7818608E-02  0.9681583E-01
          1   -1    0    0  501    0  0.00000000000E+00  0.00000000000E+00  0.34031904768E+03  0.34031904772E+03  0.50400000000E-02 0. -1.
         -1   -1    0    0    0  501 -0.00000000000E+00 -0.00000000000E+00 -0.15369662059E+04  0.15369662059E+04  0.50400000000E-02 0.  1.
    8880022    1    1    2    0    0  0.69456498604E+03  0.11989451343E+03 -0.66787689446E+03  0.98297833819E+03  0.15294330000E+03 0.  0.
    8880022    1    1    2    0    0 -0.69456498604E+03 -0.11989451343E+03 -0.52877026379E+03  0.89430691547E+03  0.15294330000E+03 0.  0.
<mgrwt>
<rscale>  0 0.72123981E+03</rscale>
<asrwt>0</asrwt>
<pdfrwt beam="1">  1        1 0.52356778E-01 0.72123981E+03</pdfrwt>
<pdfrwt beam="2">  1       -1 0.23645633E+00 0.72123981E+03</pdfrwt>
<totfact> 0.66151504E+00</totfact>
</mgrwt>
</event>
<event>
 4    1  0.2731969E-009  0.4897423E+03  0.7818608E-02  0.1016492E+00
         -1   -1    0    0    0  501 -0.00000000000E+00  0.00000000000E+00  0.49152261098E+03  0.49152261100E+03  0.50400000000E-02 0.  1.
          1   -1    0    0  501    0  0.00000000000E+00 -0.00000000000E+00 -0.12982901433E+04  0.12982901433E+04  0.50400000000E-02 0. -1.
    8880022    1    1    2    0    0 -0.30710659610E+03  0.34948738341E+03 -0.11103854456E+04  0.12135911104E+04  0.15294330000E+03 0.  0.
    8880022    1    1    2    0    0  0.30710659610E+03 -0.34948738341E+03  0.30361791331E+03  0.57622164384E+03  0.15294330000E+03 0.  0.
<mgrwt>
<rscale>  0 0.48974233E+03</rscale>
<asrwt>0</asrwt>
<pdfrwt beam="1">  1        1 0.19973694E+00 0.48974233E+03</pdfrwt>
<pdfrwt beam="2">  1       -1 0.75618864E-01 0.48974233E+03</pdfrwt>
<totfact> 0.17191769E+01</totfact>
</mgrwt>
</event>
<event>
 4    1  0.2731969E-009  0.1172986E+04  0.7818608E-02  0.9136836E-01
         -1   -1    0    0    0  501 -0.00000000000E+00  0.00000000000E+00  0.11813351296E+04  0.11813351296E+04  0.50400000000E-02 0.  1.
          1   -1    0    0  501    0  0.00000000000E+00 -0.00000000000E+00 -0.14894567829E+04  0.14894567829E+04  0.50400000000E-02 0. -1.
    8880022    1    1    2    0    0 -0.53785629952E+03  0.10311233011E+04 -0.77762030560E+03  0.14073342367E+04  0.15294330000E+03 0.  0.
    8880022    1    1    2    0    0  0.53785629952E+03 -0.10311233011E+04  0.46949865231E+03  0.12634576758E+04  0.15294330000E+03 0.  0.
<mgrwt>
<rscale>  0 0.11729861E+04</rscale>
<asrwt>0</asrwt>
<pdfrwt beam="1">  1        1 0.22914720E+00 0.11729861E+04</pdfrwt>
<pdfrwt beam="2">  1       -1 0.18174387E+00 0.11729861E+04</pdfrwt>
<totfact> 0.13226938E+00</totfact>
</mgrwt>
</event>
<event>
 4    1  0.2731969E-009  0.9696611E+03  0.7818608E-02  0.9342460E-01
          1   -1    0    0  501    0  0.00000000000E+00  0.00000000000E+00  0.10065635495E+04  0.10065635495E+04  0.50400000000E-02 0. -1.
         -1   -1    0    0    0  501 -0.00000000000E+00 -0.00000000000E+00 -0.21943981366E+04  0.21943981366E+04  0.50400000000E-02 0.  1.
    8880022    1    1    2    0    0 -0.93336077313E+03 -0.21374909598E+03  0.61898947647E+03  0.11503871669E+04  0.15294330000E+03 0.  0.
    8880022    1    1    2    0    0  0.93336077313E+03  0.21374909598E+03 -0.18068240636E+04  0.20505745192E+04  0.15294330000E+03 0.  0.
<mgrwt>
<rscale>  0 0.96966111E+03</rscale>
<asrwt>0</asrwt>
<pdfrwt beam="1">  1        1 0.15485593E+00 0.96966111E+03</pdfrwt>
<pdfrwt beam="2">  1       -1 0.33759971E+00 0.96966111E+03</pdfrwt>
<totfact> 0.28746301E-01</totfact>
</mgrwt>
</event>
<event>
 4    1  0.2731969E-009  0.8155452E+03  0.7818608E-02  0.9537785E-01
          1   -1    0    0  501    0  0.00000000000E+00  0.00000000000E+00  0.21280514952E+04  0.21280514952E+04  0.50400000000E-02 0. -1.
         -1   -1    0    0    0  501 -0.00000000000E+00 -0.00000000000E+00 -0.40984191298E+03  0.40984191301E+03  0.50400000000E-02 0.  1.
    8880022    1    1    2    0    0 -0.55244908801E+03  0.58010549841E+03  0.14773808626E+04  0.16875331849E+04  0.15294330000E+03 0.  0.
    8880022    1    1    2    0    0  0.55244908801E+03 -0.58010549841E+03  0.24082871965E+03  0.85036022329E+03  0.15294330000E+03 0.  0.
<mgrwt>
<rscale>  0 0.81554524E+03</rscale>
<asrwt>0</asrwt>
<pdfrwt beam="1">  1        1 0.32739253E+00 0.81554524E+03</pdfrwt>
<pdfrwt beam="2">  1       -1 0.63052603E-01 0.81554524E+03</pdfrwt>
<totfact> 0.64675764E+00</totfact>
</mgrwt>
</event>
<event>
 4    1  0.2731969E-009  0.4545681E+03  0.7818608E-02  0.1026369E+00
         -1   -1    0    0    0  501 -0.00000000000E+00  0.00000000000E+00  0.19044538143E+03  0.19044538150E+03  0.50400000000E-02 0.  1.
          1   -1    0    0  501    0  0.00000000000E+00 -0.00000000000E+00 -0.36814140450E+04  0.36814140450E+04  0.50400000000E-02 0. -1.
    8880022    1    1    2    0    0 -0.41298526216E+03  0.11262164086E+03 -0.11967458778E+03  0.47005757172E+03  0.15294330000E+03 0.  1.
    8880022    1    1    2    0    0  0.41298526216E+03 -0.11262164086E+03 -0.33712940757E+04  0.34018018547E+04  0.15294330000E+03 0.  0.
<mgrwt>
<rscale>  0 0.45456805E+03</rscale>
<asrwt>0</asrwt>
<pdfrwt beam="1">  1        1 0.56637134E+00 0.45456805E+03</pdfrwt>
<pdfrwt beam="2">  1       -1 0.29299292E-01 0.45456805E+03</pdfrwt>
<totfact> 0.22454000E+00</totfact>
</mgrwt>
</event>
<event>
 4    1  0.2731969E-009  0.8942050E+03  0.7818608E-02  0.9432855E-01
          1   -1    0    0  501    0  0.00000000000E+00  0.00000000000E+00  0.25488379567E+04  0.25488379567E+04  0.50400000000E-02 0. -1.
         -1   -1    0    0    0  501 -0.00000000000E+00 -0.00000000000E+00 -0.37704366512E+03  0.37704366515E+03  0.50400000000E-02 0.  1.
    8880022    1    1    2    0    0 -0.14972818638E+03 -0.86821220348E+03  0.16854663058E+04  0.19079830400E+04  0.15294330000E+03 0.  0.
    8880022    1    1    2    0    0  0.14972818638E+03  0.86821220348E+03  0.48632798576E+03  0.10178985818E+04  0.15294330000E+03 0.  0.
<mgrwt>
<rscale>  0 0.89420502E+03</rscale>
<asrwt>0</asrwt>
<pdfrwt beam="1">  1        1 0.39212893E+00 0.89420502E+03</pdfrwt>
<pdfrwt beam="2">  1       -1 0.58006716E-01 0.89420502E+03</pdfrwt>
<totfact> 0.39055124E+00</totfact>
</mgrwt>
</event>
<event>
 4    1  0.2731969E-009  0.1434067E+04  0.7818608E-02  0.8929522E-01
          1   -1    0    0  501    0  0.00000000000E+00  0.00000000000E+00  0.29394034558E+04  0.29394034558E+04  0.50400000000E-02 0. -1.
         -1   -1    0    0    0  501 -0.00000000000E+00 -0.00000000000E+00 -0.90657289263E+03  0.90657289264E+03  0.50400000000E-02 0.  1.
    8880022    1    1    2    0    0 -0.14112853924E+04  0.20354022059E+03  0.97697798916E+02  0.14373905500E+04  0.15294330000E+03 0.  0.
    8880022    1    1    2    0    0  0.14112853924E+04 -0.20354022059E+03  0.19351327642E+04  0.24085857984E+04  0.15294330000E+03 0.  0.
<mgrwt>
<rscale>  0 0.14340665E+04</rscale>
<asrwt>0</asrwt>
<pdfrwt beam="1">  1        1 0.45221592E+00 0.14340665E+04</pdfrwt>
<pdfrwt beam="2">  1       -1 0.13947275E+00 0.14340665E+04</pdfrwt>
<totfact> 0.26908556E-01</totfact>
</mgrwt>
</event>
<event>
 4    1  0.2731969E-009  0.9023203E+03  0.7818608E-02  0.9422686E-01
         -1   -1    0    0    0  501 -0.00000000000E+00  0.00000000000E+00  0.67503551980E+03  0.67503551982E+03  0.50400000000E-02 0.  1.
          1   -1    0    0  501    0  0.00000000000E+00 -0.00000000000E+00 -0.17591955573E+04  0.17591955573E+04  0.50400000000E-02 0. -1.
    8880022    1    1    2    0    0  0.10506930271E+03 -0.88303496714E+03 -0.12245165317E+04  0.15210597296E+04  0.15294330000E+03 0.  0.
    8880022    1    1    2    0    0 -0.10506930271E+03  0.88303496714E+03  0.14035649416E+03  0.91317134757E+03  0.15294330000E+03 0.  0.
<mgrwt>
<rscale>  0 0.90232032E+03</rscale>
<asrwt>0</asrwt>
<pdfrwt beam="1">  1        1 0.27064547E+00 0.90232032E+03</pdfrwt>
<pdfrwt beam="2">  1       -1 0.10385162E+00 0.90232032E+03</pdfrwt>
<totfact> 0.38760692E+00</totfact>
</mgrwt>
</event>
<event>
 4    1  0.2731969E-009  0.3396354E+03  0.7818608E-02  0.1066951E+00
         -1   -1    0    0    0  501 -0.00000000000E+00  0.00000000000E+00  0.13380902955E+03  0.13380902964E+03  0.50400000000E-02 0.  1.
          1   -1    0    0  501    0  0.00000000000E+00 -0.00000000000E+00 -0.13611328284E+04  0.13611328284E+04  0.50400000000E-02 0. -1.
    8880022    1    1    2    0    0 -0.25068081310E+03 -0.17064481807E+03 -0.16105254277E+03  0.37588575197E+03  0.15294330000E+03 0.  0.
    8880022    1    1    2    0    0  0.25068081310E+03  0.17064481807E+03 -0.10662712561E+04  0.11190561061E+04  0.15294330000E+03 0.  0.
<mgrwt>
<rscale>  0 0.33963536E+03</rscale>
<asrwt>0</asrwt>
<pdfrwt beam="1">  1        1 0.20940504E+00 0.33963536E+03</pdfrwt>
<pdfrwt beam="2">  1       -1 0.20586006E-01 0.33963536E+03</pdfrwt>
<totfact> 0.16975516E+02</totfact>
</mgrwt>
</event>
<event>
 4    1  0.2731969E-009  0.1864761E+03  0.7818608E-02  0.1161679E+00
         -1   -1    0    0    0  501 -0.00000000000E+00  0.00000000000E+00  0.39555839364E+03  0.39555839368E+03  0.50400000000E-02 0.  1.
          1   -1    0    0  501    0  0.00000000000E+00 -0.00000000000E+00 -0.98092528032E+03  0.98092528033E+03  0.50400000000E-02 0. -1.
    8880022    1    1    2    0    0 -0.59078799838E+02  0.88833435637E+02 -0.94936175718E+03  0.96750249761E+03  0.15294330000E+03 0. -1.
    8880022    1    1    2    0    0  0.59078799838E+02 -0.88833435637E+02  0.36399487050E+03  0.40898117640E+03  0.15294330000E+03 0.  0.
<mgrwt>
<rscale>  0 0.18647610E+03</rscale>
<asrwt>0</asrwt>
<pdfrwt beam="1">  1        1 0.15091158E+00 0.18647610E+03</pdfrwt>
<pdfrwt beam="2">  1       -1 0.60855138E-01 0.18647610E+03</pdfrwt>
<totfact> 0.48892766E+01</totfact>
</mgrwt>
</event>
<event>
 4    1  0.2731969E-009  0.1242633E+04  0.7818608E-02  0.9076337E-01
         -1   -1    0    0    0  501 -0.00000000000E+00  0.00000000000E+00  0.71766330566E+03  0.71766330568E+03  0.50400000000E-02 0.  1.
          1   -1    0    0  501    0  0.00000000000E+00 -0.00000000000E+00 -0.38320611474E+04  0.38320611474E+04  0.50400000000E-02 0. -1.
    8880022    1    1    2    0    0 -0.93563896195E+03 -0.80332060994E+03 -0.50761685450E+02  0.12436690360E+04  0.15294330000E+03 0.  0.
    8880022    1    1    2    0    0  0.93563896195E+03  0.80332060994E+03 -0.30636361563E+04  0.33060554171E+04  0.15294330000E+03 0.  0.
<mgrwt>
<rscale>  0 0.12426327E+04</rscale>
<asrwt>0</asrwt>
<pdfrwt beam="1">  1        1 0.58954786E+00 0.12426327E+04</pdfrwt>
<pdfrwt beam="2">  1       -1 0.11040974E+00 0.12426327E+04</pdfrwt>
<totfact> 0.10161657E-01</totfact>
</mgrwt>
</event>
<event>
 4    1  0.2731969E-009  0.5567799E+03  0.7818608E-02  0.9999367E-01
         -1   -1    0    0    0  501 -0.00000000000E+00  0.00000000000E+00  0.90572066446E+03  0.90572066448E+03  0.50400000000E-02 0.  1.
          1   -1    0    0  501    0  0.00000000000E+00 -0.00000000000E+00 -0.46758105423E+03  0.46758105426E+03  0.50400000000E-02 0. -1.
    8880022    1    1    2    0    0 -0.37758739185E+03  0.37952603965E+03 -0.13639505053E+03  0.57324298171E+03  0.15294330000E+03 0.  0.
    8880022    1    1    2    0    0  0.37758739185E+03 -0.37952603965E+03  0.57453466076E+03  0.80005873702E+03  0.15294330000E+03 0.  0.
<mgrwt>
<rscale>  0 0.55677994E+03</rscale>
<asrwt>0</asrwt>
<pdfrwt beam="1">  1        1 0.71935546E-01 0.55677994E+03</pdfrwt>
<pdfrwt beam="2">  1       -1 0.13934164E+00 0.55677994E+03</pdfrwt>
<totfact> 0.21654500E+01</totfact>
</mgrwt>
</event>
<event>
 4    1  0.2731969E-009  0.5045289E+03  0.7818608E-02  0.1012604E+00
          1   -1    0    0  501    0  0.00000000000E+00  0.00000000000E+00  0.10661896049E+04  0.10661896049E+04  0.50400000000E-02 0. -1.
         -1   -1    0    0    0  501 -0.00000000000E+00 -0.00000000000E+00 -0.29726487108E+03  0.29726487112E+03  0.50400000000E-02 0.  1.
    8880022    1    1    2    0    0 -0.32032574473E+03  0.35853756133E+03  0.68693329282E+03  0.85230673318E+03  0.15294330000E+03 0.  1.
    8880022    1    1    2    0    0  0.32032574473E+03 -0.35853756133E+03  0.81991441013E+02  0.51114774287E+03  0.15294330000E+03 0.  0.
<mgrwt>
<rscale>  0 0.50452891E+03</rscale>
<asrwt>0</asrwt>
<pdfrwt beam="1">  1        1 0.16402917E+00 0.50452891E+03</pdfrwt>
<pdfrwt beam="2">  1       -1 0.45733057E-01 0.50452891E+03</pdfrwt>
<totfact> 0.67189555E+01</totfact>
</mgrwt>
</event>
<event>
 4    1  0.2731969E-009  0.4253077E+03  0.7818608E-02  0.1035353E+00
         -1   -1    0    0    0  501 -0.00000000000E+00  0.00000000000E+00  0.17702566171E+04  0.17702566171E+04  0.50400000000E-02 0.  1.
          1   -1    0    0  501    0  0.00000000000E+00 -0.00000000000E+00 -0.16679883949E+04  0.16679883949E+04  0.50400000000E-02 0. -1.
    8880022    1    1    2    0    0  0.31784732939E+03 -0.23763006617E+03 -0.16144995185E+04  0.16695793846E+04  0.15294330000E+03 0.  0.
    8880022    1    1    2    0    0 -0.31784732939E+03  0.23763006617E+03  0.17167677407E+04  0.17686656275E+04  0.15294330000E+03 0.  0.
<mgrwt>
<rscale>  0 0.42530768E+03</rscale>
<asrwt>0</asrwt>
<pdfrwt beam="1">  1        1 0.25661360E+00 0.42530768E+03</pdfrwt>
<pdfrwt beam="2">  1       -1 0.27234717E+00 0.42530768E+03</pdfrwt>
<totfact> 0.29794046E-01</totfact>
</mgrwt>
</event>
<event>
 4    1  0.2731969E-009  0.8777125E+03  0.7818608E-02  0.9453879E-01
          1   -1    0    0  501    0  0.00000000000E+00  0.00000000000E+00  0.33600859364E+04  0.33600859365E+04  0.50400000000E-02 0. -1.
         -1   -1    0    0    0  501 -0.00000000000E+00 -0.00000000000E+00 -0.83072389503E+03  0.83072389504E+03  0.50400000000E-02 0.  1.
    8880022    1    1    2    0    0  0.69206674637E+03 -0.51771724808E+03  0.30476322281E+04  0.31715045927E+04  0.15294330000E+03 0.  0.
    8880022    1    1    2    0    0 -0.69206674637E+03  0.51771724808E+03 -0.51827018673E+03  0.10193052388E+04  0.15294330000E+03 0.  0.
<mgrwt>
<rscale>  0 0.87771247E+03</rscale>
<asrwt>0</asrwt>
<pdfrwt beam="1">  1        1 0.51693628E+00 0.87771247E+03</pdfrwt>
<pdfrwt beam="2">  1       -1 0.12780368E+00 0.87771247E+03</pdfrwt>
<totfact> 0.18075281E-01</totfact>
</mgrwt>
</event>
<event>
 4    1  0.2731969E-009  0.5196544E+03  0.7818608E-02  0.1008772E+00
         -1   -1    0    0    0  501 -0.00000000000E+00  0.00000000000E+00  0.84785639744E+03  0.84785639746E+03  0.50400000000E-02 0.  1.
          1   -1    0    0  501    0  0.00000000000E+00 -0.00000000000E+00 -0.78410540707E+03  0.78410540708E+03  0.50400000000E-02 0. -1.
    8880022    1    1    2    0    0 -0.33497049793E+03 -0.36666573516E+03  0.66066120814E+03  0.84054380063E+03  0.15294330000E+03 0.  0.
    8880022    1    1    2    0    0  0.33497049793E+03  0.36666573516E+03 -0.59691021777E+03  0.79141800391E+03  0.15294330000E+03 0.  0.
<mgrwt>
<rscale>  0 0.51965436E+03</rscale>
<asrwt>0</asrwt>
<pdfrwt beam="1">  1        1 0.12063160E+00 0.51965436E+03</pdfrwt>
<pdfrwt beam="2">  1       -1 0.13043945E+00 0.51965436E+03</pdfrwt>
<totfact> 0.12254471E+01</totfact>
</mgrwt>
</event>
<event>
 4    1  0.2731969E-009  0.9098196E+03  0.7818608E-02  0.9413389E-01
         -1   -1    0    0    0  501 -0.00000000000E+00  0.00000000000E+00  0.12953773208E+04  0.12953773208E+04  0.50400000000E-02 0.  1.
          1   -1    0    0  501    0  0.00000000000E+00 -0.00000000000E+00 -0.20145952655E+04  0.20145952655E+04  0.50400000000E-02 0. -1.
    8880022    1    1    2    0    0 -0.27172518844E+02  0.89646066449E+03 -0.17271573908E+04  0.19521384106E+04  0.15294330000E+03 0.  0.
    8880022    1    1    2    0    0  0.27172518844E+02 -0.89646066449E+03  0.10079394461E+04  0.13578341757E+04  0.15294330000E+03 0.  0.
<mgrwt>
<rscale>  0 0.90981961E+03</rscale>
<asrwt>0</asrwt>
<pdfrwt beam="1">  1        1 0.30993773E+00 0.90981961E+03</pdfrwt>
<pdfrwt beam="2">  1       -1 0.19928882E+00 0.90981961E+03</pdfrwt>
<totfact> 0.45650339E-01</totfact>
</mgrwt>
</event>
<event>
 4    1  0.2731969E-009  0.5284532E+03  0.7818608E-02  0.1006608E+00
          1   -1    0    0  501    0  0.00000000000E+00  0.00000000000E+00  0.17665318806E+04  0.17665318806E+04  0.50400000000E-02 0. -1.
         -1   -1    0    0    0  501 -0.00000000000E+00 -0.00000000000E+00 -0.44999488290E+03  0.44999488293E+03  0.50400000000E-02 0.  1.
    8880022    1    1    2    0    0 -0.47530115143E+03 -0.17308957039E+03  0.15508817385E+04  0.16384434698E+04  0.15294330000E+03 0.  0.
    8880022    1    1    2    0    0  0.47530115143E+03  0.17308957039E+03 -0.23434474080E+03  0.57808329373E+03  0.15294330000E+03 0.  0.
<mgrwt>
<rscale>  0 0.52845325E+03</rscale>
<asrwt>0</asrwt>
<pdfrwt beam="1">  1        1 0.27177414E+00 0.52845325E+03</pdfrwt>
<pdfrwt beam="2">  1       -1 0.69229982E-01 0.52845325E+03</pdfrwt>
<totfact> 0.98459689E+00</totfact>
</mgrwt>
</event>
<event>
 4    1  0.2731969E-009  0.8893491E+03  0.7818608E-02  0.9438994E-01
         -1   -1    0    0    0  501 -0.00000000000E+00  0.00000000000E+00  0.91018447977E+03  0.91018447979E+03  0.50400000000E-02 0.  1.
          1   -1    0    0  501    0  0.00000000000E+00 -0.00000000000E+00 -0.13700367949E+04  0.13700367949E+04  0.50400000000E-02 0. -1.
    8880022    1    1    2    0    0  0.85174442983E+03  0.20513779664E+03  0.45955082667E+03  0.10010637865E+04  0.15294330000E+03 0.  0.
    8880022    1    1    2    0    0 -0.85174442983E+03 -0.20513779664E+03 -0.91940314176E+03  0.12791574881E+04  0.15294330000E+03 0.  0.
<mgrwt>
<rscale>  0 0.88934906E+03</rscale>
<asrwt>0</asrwt>
<pdfrwt beam="1">  1        1 0.21077489E+00 0.88934906E+03</pdfrwt>
<pdfrwt beam="2">  1       -1 0.14002838E+00 0.88934906E+03</pdfrwt>
<totfact> 0.34449744E+00</totfact>
</mgrwt>
</event>
<event>
 4    1  0.2731969E-009  0.7252245E+03  0.7818608E-02  0.9675042E-01
          1   -1    0    0  501    0  0.00000000000E+00  0.00000000000E+00  0.92172223064E+03  0.92172223065E+03  0.50400000000E-02 0. -1.
         -1   -1    0    0    0  501 -0.00000000000E+00 -0.00000000000E+00 -0.12247478776E+04  0.12247478776E+04  0.50400000000E-02 0.  1.
    8880022    1    1    2    0    0  0.30413839032E+03  0.64035825459E+03  0.63282611910E+03  0.96250683360E+03  0.15294330000E+03 0.  0.
    8880022    1    1    2    0    0 -0.30413839032E+03 -0.64035825459E+03 -0.93585176610E+03  0.11839632747E+04  0.15294330000E+03 0.  0.
<mgrwt>
<rscale>  0 0.72522445E+03</rscale>
<asrwt>0</asrwt>
<pdfrwt beam="1">  1        1 0.14180342E+00 0.72522445E+03</pdfrwt>
<pdfrwt beam="2">  1       -1 0.18842275E+00 0.72522445E+03</pdfrwt>
<totfact> 0.33051555E+00</totfact>
</mgrwt>
</event>
<event>
 4    1  0.2731969E-009  0.1158926E+04  0.7818608E-02  0.9149588E-01
         -1   -1    0    0    0  501 -0.00000000000E+00  0.00000000000E+00  0.80478285464E+03  0.80478285466E+03  0.50400000000E-02 0.  1.
          1   -1    0    0  501    0  0.00000000000E+00 -0.00000000000E+00 -0.16827373126E+04  0.16827373127E+04  0.50400000000E-02 0. -1.
    8880022    1    1    2    0    0  0.86729814300E+03  0.75333424918E+03 -0.32623251359E+03  0.12039675518E+04  0.15294330000E+03 0.  1.
    8880022    1    1    2    0    0 -0.86729814300E+03 -0.75333424918E+03 -0.55172194441E+03  0.12835526155E+04  0.15294330000E+03 0. -1.
<mgrwt>
<rscale>  0 0.11589263E+04</rscale>
<asrwt>0</asrwt>
<pdfrwt beam="1">  1        1 0.25888266E+00 0.11589263E+04</pdfrwt>
<pdfrwt beam="2">  1       -1 0.12381275E+00 0.11589263E+04</pdfrwt>
<totfact> 0.27713758E+00</totfact>
</mgrwt>
</event>
<event>
 4    1  0.2731969E-009  0.4783208E+03  0.7818608E-02  0.1019598E+00
         -1   -1    0    0    0  501 -0.00000000000E+00  0.00000000000E+00  0.34193654631E+03  0.34193654635E+03  0.50400000000E-02 0.  1.
          1   -1    0    0  501    0  0.00000000000E+00 -0.00000000000E+00 -0.19161041429E+04  0.19161041429E+04  0.50400000000E-02 0. -1.
    8880022    1    1    2    0    0  0.44936208008E+03  0.58930570022E+02  0.12372171606E+03  0.49406255387E+03  0.15294330000E+03 0.  0.
    8880022    1    1    2    0    0 -0.44936208008E+03 -0.58930570022E+02 -0.16978893126E+04  0.17639781353E+04  0.15294330000E+03 0. -1.
<mgrwt>
<rscale>  0 0.47832075E+03</rscale>
<asrwt>0</asrwt>
<pdfrwt beam="1">  1        1 0.29478525E+00 0.47832075E+03</pdfrwt>
<pdfrwt beam="2">  1       -1 0.52605624E-01 0.47832075E+03</pdfrwt>
<totfact> 0.13581583E+01</totfact>
</mgrwt>
</event>
<event>
 4    1  0.2731969E-009  0.2023546E+03  0.7818608E-02  0.1147768E+00
         -1   -1    0    0    0  501 -0.00000000000E+00  0.00000000000E+00  0.27960383004E+03  0.27960383009E+03  0.50400000000E-02 0.  1.
          1   -1    0    0  501    0  0.00000000000E+00 -0.00000000000E+00 -0.21692582290E+04  0.21692582290E+04  0.50400000000E-02 0. -1.
    8880022    1    1    2    0    0  0.12704829077E+03  0.37609222147E+02 -0.21272050588E+04  0.21368080721E+04  0.15294330000E+03 0.  0.
    8880022    1    1    2    0    0 -0.12704829077E+03 -0.37609222147E+02  0.23755065986E+03  0.31205398698E+03  0.15294330000E+03 0.  0.
<mgrwt>
<rscale>  0 0.20235458E+03</rscale>
<asrwt>0</asrwt>
<pdfrwt beam="1">  1        1 0.33373202E+00 0.20235458E+03</pdfrwt>
<pdfrwt beam="2">  1       -1 0.43015975E-01 0.20235458E+03</pdfrwt>
<totfact> 0.14909274E+01</totfact>
</mgrwt>
</event>
<event>
 4    1  0.2731969E-009  0.2313500E+03  0.7818608E-02  0.1125693E+00
         -1   -1    0    0    0  501 -0.00000000000E+00  0.00000000000E+00  0.24258996188E+04  0.24258996188E+04  0.50400000000E-02 0.  1.
          1   -1    0    0  501    0  0.00000000000E+00 -0.00000000000E+00 -0.73238069422E+03  0.73238069423E+03  0.50400000000E-02 0. -1.
    8880022    1    1    2    0    0 -0.65864895178E+01  0.17345831677E+03 -0.70841288420E+03  0.74523260598E+03  0.15294330000E+03 0. -1.
    8880022    1    1    2    0    0  0.65864895178E+01 -0.17345831677E+03  0.24019318088E+04  0.24130477070E+04  0.15294330000E+03 0.  0.
<mgrwt>
<rscale>  0 0.23135000E+03</rscale>
<asrwt>0</asrwt>
<pdfrwt beam="1">  1        1 0.11267395E+00 0.23135000E+03</pdfrwt>
<pdfrwt beam="2">  1       -1 0.37321534E+00 0.23135000E+03</pdfrwt>
<totfact> 0.36477271E-01</totfact>
</mgrwt>
</event>
<event>
 4    1  0.2731969E-009  0.5282457E+03  0.7818608E-02  0.1006658E+00
         -1   -1    0    0    0  501 -0.00000000000E+00  0.00000000000E+00  0.72383415131E+03  0.72383415132E+03  0.50400000000E-02 0.  1.
          1   -1    0    0  501    0  0.00000000000E+00 -0.00000000000E+00 -0.18378920595E+04  0.18378920595E+04  0.50400000000E-02 0. -1.
    8880022    1    1    2    0    0 -0.47424034239E+02  0.50339134677E+03 -0.16956613017E+04  0.17760379473E+04  0.15294330000E+03 0.  0.
    8880022    1    1    2    0    0  0.47424034239E+02 -0.50339134677E+03  0.58160339355E+03  0.78568826352E+03  0.15294330000E+03 0.  1.
<mgrwt>
<rscale>  0 0.52824572E+03</rscale>
<asrwt>0</asrwt>
<pdfrwt beam="1">  1        1 0.28275262E+00 0.52824572E+03</pdfrwt>
<pdfrwt beam="2">  1       -1 0.11135910E+00 0.52824572E+03</pdfrwt>
<totfact> 0.31386238E+00</totfact>
</mgrwt>
</event>
<event>
 4    1  0.2731969E-009  0.7538833E+03  0.7818608E-02  0.9629278E-01
         -1   -1    0    0    0  501 -0.00000000000E+00  0.00000000000E+00  0.44199514893E+03  0.44199514896E+03  0.50400000000E-02 0.  1.
          1   -1    0    0  501    0  0.00000000000E+00 -0.00000000000E+00 -0.17725896710E+04  0.17725896710E+04  0.50400000000E-02 0. -1.
    8880022    1    1    2    0    0  0.70423206381E+03 -0.22137202997E+03 -0.85059462646E+02  0.75866668606E+03  0.15294330000E+03 0.  0.
    8880022    1    1    2    0    0 -0.70423206381E+03  0.22137202997E+03 -0.12455350594E+04  0.14559181339E+04  0.15294330000E+03 0.  0.
<mgrwt>
<rscale>  0 0.75388330E+03</rscale>
<asrwt>0</asrwt>
<pdfrwt beam="1">  1        1 0.27270610E+00 0.75388330E+03</pdfrwt>
<pdfrwt beam="2">  1       -1 0.67999255E-01 0.75388330E+03</pdfrwt>
<totfact> 0.97025385E+00</totfact>
</mgrwt>
</event>
<event>
 4    1  0.2731969E-009  0.1127658E+04  0.7818608E-02  0.9178646E-01
         -1   -1    0    0    0  501 -0.00000000000E+00  0.00000000000E+00  0.39569661407E+03  0.39569661410E+03  0.50400000000E-02 0.  1.
          1   -1    0    0  501    0  0.00000000000E+00 -0.00000000000E+00 -0.40974483166E+04  0.40974483166E+04  0.50400000000E-02 0. -1.
    8880022    1    1    2    0    0 -0.77493770255E+03  0.80479409480E+03 -0.28942755369E+04  0.31061945390E+04  0.15294330000E+03 0.  0.
    8880022    1    1    2    0    0  0.77493770255E+03 -0.80479409480E+03 -0.80747616563E+03  0.13869503917E+04  0.15294330000E+03 0.  0.
<mgrwt>
<rscale>  0 0.11276585E+04</rscale>
<asrwt>0</asrwt>
<pdfrwt beam="1">  1        1 0.63037663E+00 0.11276585E+04</pdfrwt>
<pdfrwt beam="2">  1       -1 0.60876405E-01 0.11276585E+04</pdfrwt>
<totfact> 0.22213990E-01</totfact>
</mgrwt>
</event>
<event>
 4    1  0.2731969E-009  0.1523993E+04  0.7818608E-02  0.8868653E-01
         -1   -1    0    0    0  501 -0.00000000000E+00  0.00000000000E+00  0.17071334749E+04  0.17071334749E+04  0.50400000000E-02 0.  1.
          1   -1    0    0  501    0  0.00000000000E+00 -0.00000000000E+00 -0.20409364374E+04  0.20409364374E+04  0.50400000000E-02 0. -1.
    8880022    1    1    2    0    0 -0.89730501223E+03 -0.12222958169E+04  0.91517198009E+03  0.17776655352E+04  0.15294330000E+03 0.  0.
    8880022    1    1    2    0    0  0.89730501223E+03  0.12222958169E+04 -0.12489749426E+04  0.19704043770E+04  0.15294330000E+03 0.  0.
<mgrwt>
<rscale>  0 0.15239931E+04</rscale>
<asrwt>0</asrwt>
<pdfrwt beam="1">  1        1 0.31399022E+00 0.15239931E+04</pdfrwt>
<pdfrwt beam="2">  1       -1 0.26263592E+00 0.15239931E+04</pdfrwt>
<totfact> 0.15161553E-01</totfact>
</mgrwt>
</event>
<event>
 4    1  0.2731969E-009  0.1084953E+04  0.7818608E-02  0.9219983E-01
         -1   -1    0    0    0  501 -0.00000000000E+00  0.00000000000E+00  0.11623258151E+04  0.11623258151E+04  0.50400000000E-02 0.  1.
          1   -1    0    0  501    0  0.00000000000E+00 -0.00000000000E+00 -0.16838977660E+04  0.16838977661E+04  0.50400000000E-02 0. -1.
    8880022    1    1    2    0    0 -0.58079294916E+01 -0.10741028200E+04  0.63766977622E+03  0.12584693070E+04  0.15294330000E+03 0.  0.
    8880022    1    1    2    0    0  0.58079294916E+01  0.10741028200E+04 -0.11592417272E+04  0.15877542742E+04  0.15294330000E+03 0.  0.
<mgrwt>
<rscale>  0 0.10849527E+04</rscale>
<asrwt>0</asrwt>
<pdfrwt beam="1">  1        1 0.25906119E+00 0.10849527E+04</pdfrwt>
<pdfrwt beam="2">  1       -1 0.17881936E+00 0.10849527E+04</pdfrwt>
<totfact> 0.10327798E+00</totfact>
</mgrwt>
</event>
<event>
 4    1  0.2731969E-009  0.9076554E+03  0.7818608E-02  0.9416062E-01
          1   -1    0    0  501    0  0.00000000000E+00  0.00000000000E+00  0.33839606213E+04  0.33839606213E+04  0.50400000000E-02 0. -1.
         -1   -1    0    0    0  501 -0.00000000000E+00 -0.00000000000E+00 -0.41995850860E+03  0.41995850863E+03  0.50400000000E-02 0.  1.
    8880022    1    1    2    0    0 -0.46616158687E+03  0.76363607789E+03  0.27150381414E+04  0.28627382778E+04  0.15294330000E+03 0.  0.
    8880022    1    1    2    0    0  0.46616158687E+03 -0.76363607789E+03  0.24896397129E+03  0.94118085220E+03  0.15294330000E+03 0.  0.
<mgrwt>
<rscale>  0 0.90765541E+03</rscale>
<asrwt>0</asrwt>
<pdfrwt beam="1">  1        1 0.52060933E+00 0.90765541E+03</pdfrwt>
<pdfrwt beam="2">  1       -1 0.64609001E-01 0.90765541E+03</pdfrwt>
<totfact> 0.78844432E-01</totfact>
</mgrwt>
</event>
<event>
 4    1  0.2731969E-009  0.8750900E+03  0.7818608E-02  0.9457267E-01
          1   -1    0    0  501    0  0.00000000000E+00  0.00000000000E+00  0.19339313480E+04  0.19339313480E+04  0.50400000000E-02 0. -1.
         -1   -1    0    0    0  501 -0.00000000000E+00 -0.00000000000E+00 -0.81487441702E+03  0.81487441704E+03  0.50400000000E-02 0.  1.
    8880022    1    1    2    0    0 -0.84260846336E+03  0.18000504918E+03  0.15449571377E+04  0.17755773852E+04  0.15294330000E+03 0.  0.
    8880022    1    1    2    0    0  0.84260846336E+03 -0.18000504918E+03 -0.42590020676E+03  0.97322837987E+03  0.15294330000E+03 0.  0.
<mgrwt>
<rscale>  0 0.87508999E+03</rscale>
<asrwt>0</asrwt>
<pdfrwt beam="1">  1        1 0.29752789E+00 0.87508999E+03</pdfrwt>
<pdfrwt beam="2">  1       -1 0.12536530E+00 0.87508999E+03</pdfrwt>
<totfact> 0.18905564E+00</totfact>
</mgrwt>
</event>
<event>
 4    1  0.2731969E-009  0.1363436E+04  0.7818608E-02  0.8980719E-01
         -1   -1    0    0    0  501 -0.00000000000E+00  0.00000000000E+00  0.22359278381E+04  0.22359278381E+04  0.50400000000E-02 0.  1.
          1   -1    0    0  501    0  0.00000000000E+00 -0.00000000000E+00 -0.12611805636E+04  0.12611805636E+04  0.50400000000E-02 0. -1.
    8880022    1    1    2    0    0 -0.12424786880E+04 -0.54019600651E+03  0.15081072925E+04  0.20330627817E+04  0.15294330000E+03 0.  0.
    8880022    1    1    2    0    0  0.12424786880E+04  0.54019600651E+03 -0.53336001804E+03  0.14640456200E+04  0.15294330000E+03 0.  0.
<mgrwt>
<rscale>  0 0.13634356E+04</rscale>
<asrwt>0</asrwt>
<pdfrwt beam="1">  1        1 0.19402778E+00 0.13634356E+04</pdfrwt>
<pdfrwt beam="2">  1       -1 0.34398890E+00 0.13634356E+04</pdfrwt>
<totfact> 0.15852656E-01</totfact>
</mgrwt>
</event>
<event>
 4    1  0.2731969E-009  0.7652885E+03  0.7818608E-02  0.9611666E-01
          1   -1    0    0  501    0  0.00000000000E+00  0.00000000000E+00  0.95600207939E+03  0.95600207940E+03  0.50400000000E-02 0. -1.
         -1   -1    0    0    0  501 -0.00000000000E+00 -0.00000000000E+00 -0.14159216419E+04  0.14159216419E+04  0.50400000000E-02 0.  1.
    8880022    1    1    2    0    0 -0.59921877838E+03 -0.45079007858E+03 -0.11232453115E+04  0.13591712630E+04  0.15294330000E+03 0.  0.
    8880022    1    1    2    0    0  0.59921877838E+03  0.45079007858E+03  0.66332574906E+03  0.10127524583E+04  0.15294330000E+03 0.  0.
<mgrwt>
<rscale>  0 0.76528850E+03</rscale>
<asrwt>0</asrwt>
<pdfrwt beam="1">  1        1 0.14707724E+00 0.76528850E+03</pdfrwt>
<pdfrwt beam="2">  1       -1 0.21783410E+00 0.76528850E+03</pdfrwt>
<totfact> 0.19435198E+00</totfact>
</mgrwt>
</event>
<event>
 4    1  0.2731969E-009  0.1057626E+04  0.7818608E-02  0.9247506E-01
          1   -1    0    0  501    0  0.00000000000E+00  0.00000000000E+00  0.23856421024E+04  0.23856421024E+04  0.50400000000E-02 0. -1.
         -1   -1    0    0    0  501 -0.00000000000E+00 -0.00000000000E+00 -0.68447406980E+03  0.68447406982E+03  0.50400000000E-02 0.  1.
    8880022    1    1    2    0    0 -0.96666476440E+03 -0.40092413383E+03 -0.10940808214E+02  0.10576825053E+04  0.15294330000E+03 0.  0.
    8880022    1    1    2    0    0  0.96666476440E+03  0.40092413383E+03  0.17121088408E+04  0.20124336669E+04  0.15294330000E+03 0.  0.
<mgrwt>
<rscale>  0 0.10576259E+04</rscale>
<asrwt>0</asrwt>
<pdfrwt beam="1">  1        1 0.36702186E+00 0.10576259E+04</pdfrwt>
<pdfrwt beam="2">  1       -1 0.10530370E+00 0.10576259E+04</pdfrwt>
<totfact> 0.13852906E+00</totfact>
</mgrwt>
</event>
<event>
 4    1  0.2731969E-009  0.6719941E+03  0.7818608E-02  0.9766362E-01
         -1   -1    0    0    0  501 -0.00000000000E+00  0.00000000000E+00  0.86962633075E+03  0.86962633077E+03  0.50400000000E-02 0.  1.
          1   -1    0    0  501    0  0.00000000000E+00 -0.00000000000E+00 -0.10480350966E+04  0.10480350966E+04  0.50400000000E-02 0. -1.
    8880022    1    1    2    0    0  0.48712342971E+03  0.43691547417E+03 -0.77026062725E+03  0.10221924742E+04  0.15294330000E+03 0.  0.
    8880022    1    1    2    0    0 -0.48712342971E+03 -0.43691547417E+03  0.59185186139E+03  0.89546895322E+03  0.15294330000E+03 0.  1.
<mgrwt>
<rscale>  0 0.67199406E+03</rscale>
<asrwt>0</asrwt>
<pdfrwt beam="1">  1        1 0.16123617E+00 0.67199406E+03</pdfrwt>
<pdfrwt beam="2">  1       -1 0.13378867E+00 0.67199406E+03</pdfrwt>
<totfact> 0.68604299E+00</totfact>
</mgrwt>
</event>
<event>
 4    1  0.2731969E-009  0.3125158E+03  0.7818608E-02  0.1079146E+00
         -1   -1    0    0    0  501 -0.00000000000E+00  0.00000000000E+00  0.17044057012E+03  0.17044057020E+03  0.50400000000E-02 0.  1.
          1   -1    0    0  501    0  0.00000000000E+00 -0.00000000000E+00 -0.38759717879E+04  0.38759717879E+04  0.50400000000E-02 0. -1.
    8880022    1    1    2    0    0 -0.97272828707E+02  0.25458298736E+03 -0.37204386125E+04  0.37335411640E+04  0.15294330000E+03 0. -1.
    8880022    1    1    2    0    0  0.97272828707E+02 -0.25458298736E+03  0.14907394766E+02  0.31287119409E+03  0.15294330000E+03 0.  0.
<mgrwt>
<rscale>  0 0.31251585E+03</rscale>
<asrwt>0</asrwt>
<pdfrwt beam="1">  1        1 0.59630329E+00 0.31251585E+03</pdfrwt>
<pdfrwt beam="2">  1       -1 0.26221629E-01 0.31251585E+03</pdfrwt>
<totfact> 0.20133816E+00</totfact>
</mgrwt>
</event>
<event>
 4    1  0.2731969E-009  0.1442662E+04  0.7818608E-02  0.8923504E-01
          1   -1    0    0  501    0  0.00000000000E+00  0.00000000000E+00  0.32143435291E+04  0.32143435291E+04  0.50400000000E-02 0. -1.
         -1   -1    0    0    0  501 -0.00000000000E+00 -0.00000000000E+00 -0.73165888051E+03  0.73165888053E+03  0.50400000000E-02 0.  1.
    8880022    1    1    2    0    0 -0.12818762808E+04  0.64395233942E+03  0.19105093524E+04  0.23940173461E+04  0.15294330000E+03 0.  0.
    8880022    1    1    2    0    0  0.12818762808E+04 -0.64395233942E+03  0.57217529616E+03  0.15519850635E+04  0.15294330000E+03 0.  0.
<mgrwt>
<rscale>  0 0.14426618E+04</rscale>
<asrwt>0</asrwt>
<pdfrwt beam="1">  1        1 0.49451440E+00 0.14426618E+04</pdfrwt>
<pdfrwt beam="2">  1       -1 0.11256290E+00 0.14426618E+04</pdfrwt>
<totfact> 0.28922083E-01</totfact>
</mgrwt>
</event>
<event>
 4    1  0.2731969E-009  0.5645344E+03  0.7818608E-02  0.9981847E-01
          1   -1    0    0  501    0  0.00000000000E+00  0.00000000000E+00  0.12877042637E+04  0.12877042638E+04  0.50400000000E-02 0. -1.
         -1   -1    0    0    0  501 -0.00000000000E+00 -0.00000000000E+00 -0.26229122067E+03  0.26229122072E+03  0.50400000000E-02 0.  1.
    8880022    1    1    2    0    0  0.16516405827E+03  0.51771441714E+03  0.32862969584E+03  0.65322011134E+03  0.15294330000E+03 0.  0.
    8880022    1    1    2    0    0 -0.16516405827E+03 -0.51771441714E+03  0.69678334724E+03  0.89677537314E+03  0.15294330000E+03 0.  0.
<mgrwt>
<rscale>  0 0.56453435E+03</rscale>
<asrwt>0</asrwt>
<pdfrwt beam="1">  1        1 0.19810835E+00 0.56453435E+03</pdfrwt>
<pdfrwt beam="2">  1       -1 0.40352495E-01 0.56453435E+03</pdfrwt>
<totfact> 0.57966207E+01</totfact>
</mgrwt>
</event>
<event>
 4    1  0.2731969E-009  0.1242195E+04  0.7818608E-02  0.9076704E-01
          1   -1    0    0  501    0  0.00000000000E+00  0.00000000000E+00  0.12495320475E+04  0.12495320475E+04  0.50400000000E-02 0. -1.
         -1   -1    0    0    0  501 -0.00000000000E+00 -0.00000000000E+00 -0.17465347034E+04  0.17465347034E+04  0.50400000000E-02 0.  1.
    8880022    1    1    2    0    0 -0.21067727809E+02  0.12325637739E+04 -0.10592985537E+04  0.16325325065E+04  0.15294330000E+03 0.  0.
    8880022    1    1    2    0    0  0.21067727809E+02 -0.12325637739E+04  0.56229589778E+03  0.13635342444E+04  0.15294330000E+03 0.  0.
<mgrwt>
<rscale>  0 0.12421952E+04</rscale>
<asrwt>0</asrwt>
<pdfrwt beam="1">  1        1 0.19223570E+00 0.12421952E+04</pdfrwt>
<pdfrwt beam="2">  1       -1 0.26869764E+00 0.12421952E+04</pdfrwt>
<totfact> 0.50604952E-01</totfact>
</mgrwt>
</event>
<event>
 4    1  0.2731969E-009  0.7737302E+03  0.7818608E-02  0.9598840E-01
          1   -1    0    0  501    0  0.00000000000E+00  0.00000000000E+00  0.87821918246E+03  0.87821918247E+03  0.50400000000E-02 0. -1.
         -1   -1    0    0    0  501 -0.00000000000E+00 -0.00000000000E+00 -0.11778868968E+04  0.11778868968E+04  0.50400000000E-02 0.  1.
    8880022    1    1    2    0    0 -0.47692219617E+03  0.58975593444E+03  0.51743075364E+03  0.93080238570E+03  0.15294330000E+03 0.  0.
    8880022    1    1    2    0    0  0.47692219617E+03 -0.58975593444E+03 -0.81709846800E+03  0.11253036936E+04  0.15294330000E+03 0.  0.
<mgrwt>
<rscale>  0 0.77373025E+03</rscale>
<asrwt>0</asrwt>
<pdfrwt beam="1">  1        1 0.13511064E+00 0.77373025E+03</pdfrwt>
<pdfrwt beam="2">  1       -1 0.18121337E+00 0.77373025E+03</pdfrwt>
<totfact> 0.39999850E+00</totfact>
</mgrwt>
</event>
<event>
 4    1  0.2731969E-009  0.7356209E+03  0.7818608E-02  0.9658183E-01
         -1   -1    0    0    0  501 -0.00000000000E+00  0.00000000000E+00  0.66512082812E+03  0.66512082814E+03  0.50400000000E-02 0.  1.
          1   -1    0    0  501    0  0.00000000000E+00 -0.00000000000E+00 -0.15377785429E+04  0.15377785430E+04  0.50400000000E-02 0. -1.
    8880022    1    1    2    0    0 -0.71633540386E+03 -0.67897046897E+02 -0.11921908353E+04  0.14008772468E+04  0.15294330000E+03 0.  0.
    8880022    1    1    2    0    0  0.71633540386E+03  0.67897046897E+02  0.31953312046E+03  0.80202212431E+03  0.15294330000E+03 0.  0.
<mgrwt>
<rscale>  0 0.73562088E+03</rscale>
<asrwt>0</asrwt>
<pdfrwt beam="1">  1        1 0.23658131E+00 0.73562088E+03</pdfrwt>
<pdfrwt beam="2">  1       -1 0.10232628E+00 0.73562088E+03</pdfrwt>
<totfact> 0.58135201E+00</totfact>
</mgrwt>
</event>
<event>
 4    1  0.2731969E-009  0.5411066E+03  0.7818608E-02  0.1003574E+00
         -1   -1    0    0    0  501 -0.00000000000E+00  0.00000000000E+00  0.32399311424E+03  0.32399311428E+03  0.50400000000E-02 0.  1.
          1   -1    0    0  501    0  0.00000000000E+00 -0.00000000000E+00 -0.34800772072E+04  0.34800772072E+04  0.50400000000E-02 0. -1.
    8880022    1    1    2    0    0  0.50041726728E+03 -0.13779430714E+03 -0.32145866266E+04  0.32598103542E+04  0.15294330000E+03 0.  0.
    8880022    1    1    2    0    0 -0.50041726728E+03  0.13779430714E+03  0.58502533690E+02  0.54425996723E+03  0.15294330000E+03 0.  0.
<mgrwt>
<rscale>  0 0.54110661E+03</rscale>
<asrwt>0</asrwt>
<pdfrwt beam="1">  1        1 0.53539647E+00 0.54110661E+03</pdfrwt>
<pdfrwt beam="2">  1       -1 0.49845097E-01 0.54110661E+03</pdfrwt>
<totfact> 0.12055731E+00</totfact>
</mgrwt>
</event>
<event>
 4    1  0.2731969E-009  0.8485821E+03  0.7818608E-02  0.9492242E-01
          1   -1    0    0  501    0  0.00000000000E+00  0.00000000000E+00  0.12029912692E+04  0.12029912692E+04  0.50400000000E-02 0. -1.
         -1   -1    0    0    0  501 -0.00000000000E+00 -0.00000000000E+00 -0.13830324073E+04  0.13830324073E+04  0.50400000000E-02 0.  1.
    8880022    1    1    2    0    0  0.79574155393E+03 -0.25198258979E+03  0.88377652831E+03  0.12252152673E+04  0.15294330000E+03 0.  0.
    8880022    1    1    2    0    0 -0.79574155393E+03  0.25198258979E+03 -0.10638176664E+04  0.13608084092E+04  0.15294330000E+03 0.  0.
<mgrwt>
<rscale>  0 0.84858205E+03</rscale>
<asrwt>0</asrwt>
<pdfrwt beam="1">  1        1 0.18507558E+00 0.84858205E+03</pdfrwt>
<pdfrwt beam="2">  1       -1 0.21277422E+00 0.84858205E+03</pdfrwt>
<totfact> 0.13479555E+00</totfact>
</mgrwt>
</event>
<event>
 4    1  0.2731969E-009  0.3713205E+03  0.7818608E-02  0.1054189E+00
         -1   -1    0    0    0  501 -0.00000000000E+00  0.00000000000E+00  0.25589646662E+03  0.25589646667E+03  0.50400000000E-02 0.  1.
          1   -1    0    0  501    0  0.00000000000E+00 -0.00000000000E+00 -0.18309286778E+04  0.18309286778E+04  0.50400000000E-02 0. -1.
    8880022    1    1    2    0    0 -0.16463670465E+03  0.29560446248E+03 -0.16640566317E+04  0.17049819264E+04  0.15294330000E+03 0. -1.
    8880022    1    1    2    0    0  0.16463670465E+03 -0.29560446248E+03  0.89024420506E+02  0.38184321811E+03  0.15294330000E+03 0.  0.
<mgrwt>
<rscale>  0 0.37132048E+03</rscale>
<asrwt>0</asrwt>
<pdfrwt beam="1">  1        1 0.28168133E+00 0.37132048E+03</pdfrwt>
<pdfrwt beam="2">  1       -1 0.39368688E-01 0.37132048E+03</pdfrwt>
<totfact> 0.27085857E+01</totfact>
</mgrwt>
</event>
<event>
 4    1  0.2731969E-009  0.5515554E+03  0.7818608E-02  0.1001135E+00
          1   -1    0    0  501    0  0.00000000000E+00  0.00000000000E+00  0.32498319386E+04  0.32498319386E+04  0.50400000000E-02 0. -1.
         -1   -1    0    0    0  501 -0.00000000000E+00 -0.00000000000E+00 -0.16807232877E+03  0.16807232884E+03  0.50400000000E-02 0.  1.
    8880022    1    1    2    0    0  0.23146047129E+03  0.47670510868E+03  0.26783843798E+04  0.27345852060E+04  0.15294330000E+03 0.  0.
    8880022    1    1    2    0    0 -0.23146047129E+03 -0.47670510868E+03  0.40337523008E+03  0.68331906140E+03  0.15294330000E+03 0.  0.
<mgrwt>
<rscale>  0 0.55155540E+03</rscale>
<asrwt>0</asrwt>
<pdfrwt beam="1">  1        1 0.49997409E+00 0.55155540E+03</pdfrwt>
<pdfrwt beam="2">  1       -1 0.25857284E-01 0.55155540E+03</pdfrwt>
<totfact> 0.57640011E+00</totfact>
</mgrwt>
</event>
<event>
 4    1  0.2731969E-009  0.5595766E+03  0.7818608E-02  0.9993013E-01
          1   -1    0    0  501    0  0.00000000000E+00  0.00000000000E+00  0.74960189191E+03  0.74960189192E+03  0.50400000000E-02 0. -1.
         -1   -1    0    0    0  501 -0.00000000000E+00 -0.00000000000E+00 -0.73001901945E+03  0.73001901947E+03  0.50400000000E-02 0.  1.
    8880022    1    1    2    0    0  0.43332431973E+03  0.31931862981E+03  0.49367018657E+03  0.74621462029E+03  0.15294330000E+03 0.  0.
    8880022    1    1    2    0    0 -0.43332431973E+03 -0.31931862981E+03 -0.47408731411E+03  0.73340629110E+03  0.15294330000E+03 0.  0.
<mgrwt>
<rscale>  0 0.55957663E+03</rscale>
<asrwt>0</asrwt>
<pdfrwt beam="1">  1        1 0.11532337E+00 0.55957663E+03</pdfrwt>
<pdfrwt beam="2">  1       -1 0.11231062E+00 0.55957663E+03</pdfrwt>
<totfact> 0.18774844E+01</totfact>
</mgrwt>
</event>
<event>
 4    1  0.2731969E-009  0.7767488E+03  0.7818608E-02  0.9594296E-01
          1   -1    0    0  501    0  0.00000000000E+00  0.00000000000E+00  0.50635572590E+03  0.50635572593E+03  0.50400000000E-02 0. -1.
         -1   -1    0    0    0  501 -0.00000000000E+00 -0.00000000000E+00 -0.16056919404E+04  0.16056919404E+04  0.50400000000E-02 0.  1.
    8880022    1    1    2    0    0 -0.72899566281E+03  0.22025528609E+03 -0.10859918123E+04  0.13351842333E+04  0.15294330000E+03 0.  0.
    8880022    1    1    2    0    0  0.72899566281E+03 -0.22025528609E+03 -0.13344402162E+02  0.77686343300E+03  0.15294330000E+03 0.  0.
<mgrwt>
<rscale>  0 0.77674881E+03</rscale>
<asrwt>0</asrwt>
<pdfrwt beam="1">  1        1 0.77900881E-01 0.77674881E+03</pdfrwt>
<pdfrwt beam="2">  1       -1 0.24702953E+00 0.77674881E+03</pdfrwt>
<totfact> 0.32961284E+00</totfact>
</mgrwt>
</event>
<event>
 4    1  0.2731969E-009  0.1717882E+03  0.7818608E-02  0.1175996E+00
          1   -1    0    0  501    0  0.00000000000E+00  0.00000000000E+00  0.52266577375E+03  0.52266577378E+03  0.50400000000E-02 0. -1.
         -1   -1    0    0    0  501 -0.00000000000E+00 -0.00000000000E+00 -0.11689825458E+04  0.11689825458E+04  0.50400000000E-02 0.  1.
    8880022    1    1    2    0    0 -0.78227108182E+02 -0.19016360539E+00 -0.11483027505E+04  0.11610815546E+04  0.15294330000E+03 0.  0.
    8880022    1    1    2    0    0  0.78227108182E+02  0.19016360539E+00  0.50198597841E+03  0.53056676503E+03  0.15294330000E+03 0. -1.
<mgrwt>
<rscale>  0 0.17178815E+03</rscale>
<asrwt>0</asrwt>
<pdfrwt beam="1">  1        1 0.80410120E-01 0.17178815E+03</pdfrwt>
<pdfrwt beam="2">  1       -1 0.17984347E+00 0.17178815E+03</pdfrwt>
<totfact> 0.10375725E+01</totfact>
</mgrwt>
</event>
<event>
 4    1  0.2731969E-009  0.9165675E+03  0.7818608E-02  0.9405105E-01
         -1   -1    0    0    0  501 -0.00000000000E+00  0.00000000000E+00  0.60752646750E+03  0.60752646752E+03  0.50400000000E-02 0.  1.
          1   -1    0    0  501    0  0.00000000000E+00 -0.00000000000E+00 -0.16918386041E+04  0.16918386041E+04  0.50400000000E-02 0. -1.
    8880022    1    1    2    0    0  0.74975751219E+03  0.50454728195E+03 -0.10335108526E+04  0.13813908289E+04  0.15294330000E+03 0.  0.
    8880022    1    1    2    0    0 -0.74975751219E+03 -0.50454728195E+03 -0.50801284010E+02  0.91797424271E+03  0.15294330000E+03 0.  0.
<mgrwt>
<rscale>  0 0.91656748E+03</rscale>
<asrwt>0</asrwt>
<pdfrwt beam="1">  1        1 0.26028286E+00 0.91656748E+03</pdfrwt>
<pdfrwt beam="2">  1       -1 0.93465611E-01 0.91656748E+03</pdfrwt>
<totfact> 0.54604279E+00</totfact>
</mgrwt>
</event>
<event>
 4    1  0.2731969E-009  0.1213277E+04  0.7818608E-02  0.9101314E-01
          1   -1    0    0  501    0  0.00000000000E+00  0.00000000000E+00  0.28798936463E+04  0.28798936463E+04  0.50400000000E-02 0. -1.
         -1   -1    0    0    0  501 -0.00000000000E+00 -0.00000000000E+00 -0.54617508501E+03  0.54617508504E+03  0.50400000000E-02 0.  1.
    8880022    1    1    2    0    0 -0.70865144368E+02 -0.12015109674E+04  0.16006928169E+04  0.20085466439E+04  0.15294330000E+03 0.  0.
    8880022    1    1    2    0    0  0.70865144368E+02  0.12015109674E+04  0.73302574438E+03  0.14175220875E+04  0.15294330000E+03 0.  0.
<mgrwt>
<rscale>  0 0.12132774E+04</rscale>
<asrwt>0</asrwt>
<pdfrwt beam="1">  1        1 0.44306055E+00 0.12132774E+04</pdfrwt>
<pdfrwt beam="2">  1       -1 0.84026938E-01 0.12132774E+04</pdfrwt>
<totfact> 0.10193807E+00</totfact>
</mgrwt>
</event>
<event>
 4    1  0.2731969E-009  0.1627972E+04  0.7818608E-02  0.8803546E-01
         -1   -1    0    0    0  501 -0.00000000000E+00  0.00000000000E+00  0.10261384681E+04  0.10261384681E+04  0.50400000000E-02 0.  1.
          1   -1    0    0  501    0  0.00000000000E+00 -0.00000000000E+00 -0.27917396767E+04  0.27917396767E+04  0.50400000000E-02 0. -1.
    8880022    1    1    2    0    0  0.16115535657E+04  0.17261500904E+03 -0.36054484007E+03  0.16674186850E+04  0.15294330000E+03 0.  0.
    8880022    1    1    2    0    0 -0.16115535657E+04 -0.17261500904E+03 -0.14050563685E+04  0.21504594598E+04  0.15294330000E+03 0.  0.
<mgrwt>
<rscale>  0 0.16279719E+04</rscale>
<asrwt>0</asrwt>
<pdfrwt beam="1">  1        1 0.42949841E+00 0.16279719E+04</pdfrwt>
<pdfrwt beam="2">  1       -1 0.15786746E+00 0.16279719E+04</pdfrwt>
<totfact> 0.23991491E-01</totfact>
</mgrwt>
</event>
<event>
 4    1  0.2731969E-009  0.7424995E+03  0.7818608E-02  0.9647191E-01
          1   -1    0    0  501    0  0.00000000000E+00  0.00000000000E+00  0.72445779777E+03  0.72445779778E+03  0.50400000000E-02 0. -1.
         -1   -1    0    0    0  501 -0.00000000000E+00 -0.00000000000E+00 -0.14220119910E+04  0.14220119910E+04  0.50400000000E-02 0.  1.
    8880022    1    1    2    0    0  0.65792308469E+03  0.30830354601E+03  0.38295303504E+03  0.83543913118E+03  0.15294330000E+03 0.  0.
    8880022    1    1    2    0    0 -0.65792308469E+03 -0.30830354601E+03 -0.10805072283E+04  0.13110306576E+04  0.15294330000E+03 0.  0.
<mgrwt>
<rscale>  0 0.74249950E+03</rscale>
<asrwt>0</asrwt>
<pdfrwt beam="1">  1        1 0.11145505E+00 0.74249950E+03</pdfrwt>
<pdfrwt beam="2">  1       -1 0.21877108E+00 0.74249950E+03</pdfrwt>
<totfact> 0.30210478E+00</totfact>
</mgrwt>
</event>
<event>
 4    1  0.2731969E-009  0.3623725E+03  0.7818608E-02  0.1057648E+00
         -1   -1    0    0    0  501 -0.00000000000E+00  0.00000000000E+00  0.30564173352E+03  0.30564173357E+03  0.50400000000E-02 0.  1.
          1   -1    0    0  501    0  0.00000000000E+00 -0.00000000000E+00 -0.67130756035E+03  0.67130756037E+03  0.50400000000E-02 0. -1.
    8880022    1    1    2    0    0 -0.29030493014E+03 -0.15377008106E+03 -0.47591989355E+03  0.59817521545E+03  0.15294330000E+03 0.  1.
    8880022    1    1    2    0    0  0.29030493014E+03  0.15377008106E+03  0.11025406672E+03  0.37877407849E+03  0.15294330000E+03 0.  1.
<mgrwt>
<rscale>  0 0.36237252E+03</rscale>
<asrwt>0</asrwt>
<pdfrwt beam="1">  1        1 0.10327809E+00 0.36237252E+03</pdfrwt>
<pdfrwt beam="2">  1       -1 0.47021805E-01 0.36237252E+03</pdfrwt>
<totfact> 0.13771903E+02</totfact>
</mgrwt>
</event>
<event>
 4    1  0.2731969E-009  0.9242097E+03  0.7818608E-02  0.9395814E-01
          1   -1    0    0  501    0  0.00000000000E+00  0.00000000000E+00  0.10339168730E+04  0.10339168730E+04  0.50400000000E-02 0. -1.
         -1   -1    0    0    0  501 -0.00000000000E+00 -0.00000000000E+00 -0.95656715226E+03  0.95656715228E+03  0.50400000000E-02 0.  1.
    8880022    1    1    2    0    0  0.91098017603E+03  0.29782180961E+02 -0.32881846594E+03  0.98096131217E+03  0.15294330000E+03 0.  0.
    8880022    1    1    2    0    0 -0.91098017603E+03 -0.29782180961E+02  0.40616818668E+03  0.10095227131E+04  0.15294330000E+03 0.  0.
<mgrwt>
<rscale>  0 0.92420967E+03</rscale>
<asrwt>0</asrwt>
<pdfrwt beam="1">  1        1 0.15906413E+00 0.92420967E+03</pdfrwt>
<pdfrwt beam="2">  1       -1 0.14716418E+00 0.92420967E+03</pdfrwt>
<totfact> 0.52911537E+00</totfact>
</mgrwt>
</event>
<event>
 4    1  0.2731969E-009  0.5468925E+03  0.7818608E-02  0.1002216E+00
          1   -1    0    0  501    0  0.00000000000E+00  0.00000000000E+00  0.14828612547E+04  0.14828612547E+04  0.50400000000E-02 0. -1.
         -1   -1    0    0    0  501 -0.00000000000E+00 -0.00000000000E+00 -0.75432142489E+03  0.75432142491E+03  0.50400000000E-02 0.  1.
    8880022    1    1    2    0    0 -0.48904134642E+03 -0.19114984870E+03 -0.59316124222E+03  0.80680333133E+03  0.15294330000E+03 0.  0.
    8880022    1    1    2    0    0  0.48904134642E+03  0.19114984870E+03  0.13217010721E+04  0.14303793483E+04  0.15294330000E+03 0.  0.
<mgrwt>
<rscale>  0 0.54689245E+03</rscale>
<asrwt>0</asrwt>
<pdfrwt beam="1">  1        1 0.22813250E+00 0.54689245E+03</pdfrwt>
<pdfrwt beam="2">  1       -1 0.11604945E+00 0.54689245E+03</pdfrwt>
<totfact> 0.48974905E+00</totfact>
</mgrwt>
</event>
<event>
 4    1  0.2731969E-009  0.5568482E+03  0.7818608E-02  0.9999212E-01
         -1   -1    0    0    0  501 -0.00000000000E+00  0.00000000000E+00  0.35374007770E+03  0.35374007774E+03  0.50400000000E-02 0.  1.
          1   -1    0    0  501    0  0.00000000000E+00 -0.00000000000E+00 -0.20380198256E+04  0.20380198256E+04  0.50400000000E-02 0. -1.
    8880022    1    1    2    0    0  0.39270058738E+03 -0.36397045662E+03  0.60641468069E+02  0.56014041568E+03  0.15294330000E+03 0.  0.
    8880022    1    1    2    0    0 -0.39270058738E+03  0.36397045662E+03 -0.17449212159E+04  0.18316194876E+04  0.15294330000E+03 0.  0.
<mgrwt>
<rscale>  0 0.55684818E+03</rscale>
<asrwt>0</asrwt>
<pdfrwt beam="1">  1        1 0.31354150E+00 0.55684818E+03</pdfrwt>
<pdfrwt beam="2">  1       -1 0.54421552E-01 0.55684818E+03</pdfrwt>
<totfact> 0.10384475E+01</totfact>
</mgrwt>
</event>
<event>
 4    1  0.2731969E-009  0.3812742E+03  0.7818608E-02  0.1050464E+00
          1   -1    0    0  501    0  0.00000000000E+00  0.00000000000E+00  0.56278135227E+03  0.56278135229E+03  0.50400000000E-02 0. -1.
         -1   -1    0    0    0  501 -0.00000000000E+00 -0.00000000000E+00 -0.96765209343E+03  0.96765209344E+03  0.50400000000E-02 0.  1.
    8880022    1    1    2    0    0  0.27018914527E+03 -0.22130562328E+03 -0.85760508043E+03  0.93853954638E+03  0.15294330000E+03 0.  0.
    8880022    1    1    2    0    0 -0.27018914527E+03  0.22130562328E+03  0.45273433927E+03  0.59189389935E+03  0.15294330000E+03 0.  0.
<mgrwt>
<rscale>  0 0.38127419E+03</rscale>
<asrwt>0</asrwt>
<pdfrwt beam="1">  1        1 0.86581747E-01 0.38127419E+03</pdfrwt>
<pdfrwt beam="2">  1       -1 0.14886955E+00 0.38127419E+03</pdfrwt>
<totfact> 0.14610067E+01</totfact>
</mgrwt>
</event>
<event>
 4    1  0.2731969E-009  0.5724054E+03  0.7818608E-02  0.9964370E-01
         -1   -1    0    0    0  501 -0.00000000000E+00  0.00000000000E+00  0.61796856607E+03  0.61796856609E+03  0.50400000000E-02 0.  1.
          1   -1    0    0  501    0  0.00000000000E+00 -0.00000000000E+00 -0.66377903312E+03  0.66377903314E+03  0.50400000000E-02 0. -1.
    8880022    1    1    2    0    0  0.31725505793E+03  0.45122668809E+03 -0.31039820351E+03  0.65114897956E+03  0.15294330000E+03 0.  0.
    8880022    1    1    2    0    0 -0.31725505793E+03 -0.45122668809E+03  0.26458773645E+03  0.63059861967E+03  0.15294330000E+03 0.  0.
<mgrwt>
<rscale>  0 0.57240541E+03</rscale>
<asrwt>0</asrwt>
<pdfrwt beam="1">  1        1 0.10211985E+00 0.57240541E+03</pdfrwt>
<pdfrwt beam="2">  1       -1 0.95072087E-01 0.57240541E+03</pdfrwt>
<totfact> 0.32982929E+01</totfact>
</mgrwt>
</event>
<event>
 4    1  0.2731969E-009  0.1011326E+04  0.7818608E-02  0.9296209E-01
          1   -1    0    0  501    0  0.00000000000E+00  0.00000000000E+00  0.19556265758E+04  0.19556265758E+04  0.50400000000E-02 0. -1.
         -1   -1    0    0    0  501 -0.00000000000E+00 -0.00000000000E+00 -0.10257524321E+04  0.10257524321E+04  0.50400000000E-02 0.  1.
    8880022    1    1    2    0    0  0.30771543357E+03 -0.95115690330E+03  0.15085653392E+04  0.18161908706E+04  0.15294330000E+03 0.  0.
    8880022    1    1    2    0    0 -0.30771543357E+03  0.95115690330E+03 -0.57869119543E+03  0.11651881374E+04  0.15294330000E+03 0.  0.
<mgrwt>
<rscale>  0 0.10113258E+04</rscale>
<asrwt>0</asrwt>
<pdfrwt beam="1">  1        1 0.30086562E+00 0.10113258E+04</pdfrwt>
<pdfrwt beam="2">  1       -1 0.15780807E+00 0.10113258E+04</pdfrwt>
<totfact> 0.97851667E-01</totfact>
</mgrwt>
</event>
<event>
 4    1  0.2731969E-009  0.2513491E+03  0.7818608E-02  0.1112455E+00
          1   -1    0    0  501    0  0.00000000000E+00  0.00000000000E+00  0.77676121525E+03  0.77676121526E+03  0.50400000000E-02 0. -1.
         -1   -1    0    0    0  501 -0.00000000000E+00 -0.00000000000E+00 -0.99559487018E+03  0.99559487019E+03  0.50400000000E-02 0.  1.
    8880022    1    1    2    0    0  0.57175028580E+02 -0.19109093570E+03  0.73979286947E+03  0.78132571463E+03  0.15294330000E+03 0.  0.
    8880022    1    1    2    0    0 -0.57175028580E+02  0.19109093570E+03 -0.95862652440E+03  0.99103037083E+03  0.15294330000E+03 0.  0.
<mgrwt>
<rscale>  0 0.25134912E+03</rscale>
<asrwt>0</asrwt>
<pdfrwt beam="1">  1        1 0.11950172E+00 0.25134912E+03</pdfrwt>
<pdfrwt beam="2">  1       -1 0.15316844E+00 0.25134912E+03</pdfrwt>
<totfact> 0.88623536E+00</totfact>
</mgrwt>
</event>
<event>
 4    1  0.2731969E-009  0.5234451E+03  0.7818608E-02  0.1007834E+00
         -1   -1    0    0    0  501 -0.00000000000E+00  0.00000000000E+00  0.77305086327E+03  0.77305086329E+03  0.50400000000E-02 0.  1.
          1   -1    0    0  501    0  0.00000000000E+00 -0.00000000000E+00 -0.18093222898E+04  0.18093222898E+04  0.50400000000E-02 0. -1.
    8880022    1    1    2    0    0  0.49363711200E+03  0.83219909784E+02  0.63969747987E+03  0.82656377279E+03  0.15294330000E+03 0.  0.
    8880022    1    1    2    0    0 -0.49363711200E+03 -0.83219909784E+02 -0.16759689064E+04  0.17558093803E+04  0.15294330000E+03 0.  0.
<mgrwt>
<rscale>  0 0.52344513E+03</rscale>
<asrwt>0</asrwt>
<pdfrwt beam="1">  1        1 0.27835728E+00 0.52344513E+03</pdfrwt>
<pdfrwt beam="2">  1       -1 0.11893090E+00 0.52344513E+03</pdfrwt>
<totfact> 0.28075860E+00</totfact>
</mgrwt>
</event>
<event>
 4    1  0.2731969E-009  0.9804444E+03  0.7818608E-02  0.9330257E-01
         -1   -1    0    0    0  501 -0.00000000000E+00  0.00000000000E+00  0.16428109761E+04  0.16428109761E+04  0.50400000000E-02 0.  1.
          1   -1    0    0  501    0  0.00000000000E+00 -0.00000000000E+00 -0.86492691593E+03  0.86492691594E+03  0.50400000000E-02 0. -1.
    8880022    1    1    2    0    0 -0.24620334959E+03  0.93662345025E+03  0.11020867080E+04  0.14750818085E+04  0.15294330000E+03 0.  0.
    8880022    1    1    2    0    0  0.24620334959E+03 -0.93662345025E+03 -0.32420264783E+03  0.10326560835E+04  0.15294330000E+03 0.  0.
<mgrwt>
<rscale>  0 0.98044440E+03</rscale>
<asrwt>0</asrwt>
<pdfrwt beam="1">  1        1 0.13306568E+00 0.98044440E+03</pdfrwt>
<pdfrwt beam="2">  1       -1 0.25274015E+00 0.98044440E+03</pdfrwt>
<totfact> 0.13161534E+00</totfact>
</mgrwt>
</event>
<event>
 4    1  0.2731969E-009  0.5729956E+03  0.7818608E-02  0.9963072E-01
          1   -1    0    0  501    0  0.00000000000E+00  0.00000000000E+00  0.18142957235E+04  0.18142957235E+04  0.50400000000E-02 0. -1.
         -1   -1    0    0    0  501 -0.00000000000E+00 -0.00000000000E+00 -0.39473072306E+03  0.39473072309E+03  0.50400000000E-02 0.  1.
    8880022    1    1    2    0    0 -0.44318045725E+03  0.32942890282E+03  0.15225933989E+04  0.16268419195E+04  0.15294330000E+03 0.  0.
    8880022    1    1    2    0    0  0.44318045725E+03 -0.32942890282E+03 -0.10302839844E+03  0.58218452710E+03  0.15294330000E+03 0.  0.
<mgrwt>
<rscale>  0 0.57299561E+03</rscale>
<asrwt>0</asrwt>
<pdfrwt beam="1">  1        1 0.27912242E+00 0.57299561E+03</pdfrwt>
<pdfrwt beam="2">  1       -1 0.60727804E-01 0.57299561E+03</pdfrwt>
<totfact> 0.11775319E+01</totfact>
</mgrwt>
</event>
<event>
 4    1  0.2731969E-009  0.5296868E+03  0.7818608E-02  0.1006308E+00
          1   -1    0    0  501    0  0.00000000000E+00  0.00000000000E+00  0.27537438164E+03  0.27537438169E+03  0.50400000000E-02 0. -1.
         -1   -1    0    0    0  501 -0.00000000000E+00 -0.00000000000E+00 -0.14002182123E+04  0.14002182123E+04  0.50400000000E-02 0.  1.
    8880022    1    1    2    0    0  0.13792844576E+03  0.48800841374E+03 -0.12519513200E+03  0.54428112417E+03  0.15294330000E+03 0.  0.
    8880022    1    1    2    0    0 -0.13792844576E+03 -0.48800841374E+03 -0.99964869865E+03  0.11313114698E+04  0.15294330000E+03 0.  0.
<mgrwt>
<rscale>  0 0.52968681E+03</rscale>
<asrwt>0</asrwt>
<pdfrwt beam="1">  1        1 0.42365290E-01 0.52968681E+03</pdfrwt>
<pdfrwt beam="2">  1       -1 0.21541818E+00 0.52968681E+03</pdfrwt>
<totfact> 0.12304985E+01</totfact>
</mgrwt>
</event>
<event>
 4    1  0.2731969E-009  0.1073642E+04  0.7818608E-02  0.9231270E-01
          1   -1    0    0  501    0  0.00000000000E+00  0.00000000000E+00  0.15053037402E+04  0.15053037402E+04  0.50400000000E-02 0. -1.
         -1   -1    0    0    0  501 -0.00000000000E+00 -0.00000000000E+00 -0.96558934874E+03  0.96558934875E+03  0.50400000000E-02 0.  1.
    8880022    1    1    2    0    0  0.45834247463E+03  0.95876830805E+03  0.83187999117E+03  0.13582085500E+04  0.15294330000E+03 0.  0.
    8880022    1    1    2    0    0 -0.45834247463E+03 -0.95876830805E+03 -0.29216559971E+03  0.11126845390E+04  0.15294330000E+03 0.  0.
<mgrwt>
<rscale>  0 0.10736415E+04</rscale>
<asrwt>0</asrwt>
<pdfrwt beam="1">  1        1 0.23158519E+00 0.10736415E+04</pdfrwt>
<pdfrwt beam="2">  1       -1 0.14855221E+00 0.10736415E+04</pdfrwt>
<totfact> 0.23135460E+00</totfact>
</mgrwt>
</event>
<event>
 4    1  0.2731969E-009  0.7950389E+03  0.7818608E-02  0.9567226E-01
         -1   -1    0    0    0  501 -0.00000000000E+00  0.00000000000E+00  0.13051854725E+04  0.13051854725E+04  0.50400000000E-02 0.  1.
          1   -1    0    0  501    0  0.00000000000E+00 -0.00000000000E+00 -0.13219232966E+04  0.13219232966E+04  0.50400000000E-02 0. -1.
    8880022    1    1    2    0    0  0.13087700104E+02  0.78007943612E+03  0.10372469805E+04  0.13068925610E+04  0.15294330000E+03 0.  0.
    8880022    1    1    2    0    0 -0.13087700104E+02 -0.78007943612E+03 -0.10539848047E+04  0.13202162081E+04  0.15294330000E+03 0.  0.
<mgrwt>
<rscale>  0 0.79503891E+03</rscale>
<asrwt>0</asrwt>
<pdfrwt beam="1">  1        1 0.20337282E+00 0.79503891E+03</pdfrwt>
<pdfrwt beam="2">  1       -1 0.20079776E+00 0.79503891E+03</pdfrwt>
<totfact> 0.13486312E+00</totfact>
</mgrwt>
</event>
<event>
 4    1  0.2731969E-009  0.7734393E+03  0.7818608E-02  0.9599279E-01
         -1   -1    0    0    0  501 -0.00000000000E+00  0.00000000000E+00  0.62547911329E+03  0.62547911331E+03  0.50400000000E-02 0.  1.
          1   -1    0    0  501    0  0.00000000000E+00 -0.00000000000E+00 -0.12958521460E+04  0.12958521460E+04  0.50400000000E-02 0. -1.
    8880022    1    1    2    0    0  0.57055452000E+03  0.49928374266E+03  0.15649474584E+03  0.78911277678E+03  0.15294330000E+03 0.  0.
    8880022    1    1    2    0    0 -0.57055452000E+03 -0.49928374266E+03 -0.82686777850E+03  0.11322184825E+04  0.15294330000E+03 0. -1.
<mgrwt>
<rscale>  0 0.77343931E+03</rscale>
<asrwt>0</asrwt>
<pdfrwt beam="1">  1        1 0.19936187E+00 0.77343931E+03</pdfrwt>
<pdfrwt beam="2">  1       -1 0.96227556E-01 0.77343931E+03</pdfrwt>
<totfact> 0.97809843E+00</totfact>
</mgrwt>
</event>
<event>
 4    1  0.2731969E-009  0.1147672E+04  0.7818608E-02  0.9159934E-01
         -1   -1    0    0    0  501 -0.00000000000E+00  0.00000000000E+00  0.10291729779E+04  0.10291729779E+04  0.50400000000E-02 0.  1.
          1   -1    0    0  501    0  0.00000000000E+00 -0.00000000000E+00 -0.22172291694E+04  0.22172291694E+04  0.50400000000E-02 0. -1.
    8880022    1    1    2    0    0 -0.85638670894E+03  0.74857253339E+03 -0.16494664213E+04  0.20094502136E+04  0.15294330000E+03 0.  0.
    8880022    1    1    2    0    0  0.85638670894E+03 -0.74857253339E+03  0.46141022982E+03  0.12369519337E+04  0.15294330000E+03 0.  0.
<mgrwt>
<rscale>  0 0.11476719E+04</rscale>
<asrwt>0</asrwt>
<pdfrwt beam="1">  1        1 0.34111218E+00 0.11476719E+04</pdfrwt>
<pdfrwt beam="2">  1       -1 0.15833430E+00 0.11476719E+04</pdfrwt>
<totfact> 0.63243568E-01</totfact>
</mgrwt>
</event>
<event>
 4    1  0.2731969E-009  0.9809542E+03  0.7818608E-02  0.9329684E-01
         -1   -1    0    0    0  501 -0.00000000000E+00  0.00000000000E+00  0.11259395280E+04  0.11259395281E+04  0.50400000000E-02 0.  1.
          1   -1    0    0  501    0  0.00000000000E+00 -0.00000000000E+00 -0.16334463142E+04  0.16334463142E+04  0.50400000000E-02 0. -1.
    8880022    1    1    2    0    0 -0.95485827847E+03  0.16469692866E+03 -0.12064293495E+04  0.15549092702E+04  0.15294330000E+03 0.  0.
    8880022    1    1    2    0    0  0.95485827847E+03 -0.16469692866E+03  0.69892256328E+03  0.12044765721E+04  0.15294330000E+03 0.  0.
<mgrwt>
<rscale>  0 0.98095416E+03</rscale>
<asrwt>0</asrwt>
<pdfrwt beam="1">  1        1 0.25129943E+00 0.98095416E+03</pdfrwt>
<pdfrwt beam="2">  1       -1 0.17322147E+00 0.98095416E+03</pdfrwt>
<totfact> 0.12460773E+00</totfact>
</mgrwt>
</event>
<event>
 4    1  0.2731969E-009  0.6393468E+03  0.7818608E-02  0.9826977E-01
          1   -1    0    0  501    0  0.00000000000E+00  0.00000000000E+00  0.10028812705E+04  0.10028812705E+04  0.50400000000E-02 0. -1.
         -1   -1    0    0    0  501 -0.00000000000E+00 -0.00000000000E+00 -0.54899607113E+03  0.54899607115E+03  0.50400000000E-02 0.  1.
    8880022    1    1    2    0    0 -0.47633998820E+03 -0.39808659953E+03  0.62074359070E+03  0.89111558369E+03  0.15294330000E+03 0.  0.
    8880022    1    1    2    0    0  0.47633998820E+03  0.39808659953E+03 -0.16685839129E+03  0.66076175800E+03  0.15294330000E+03 0.  0.
<mgrwt>
<rscale>  0 0.63934684E+03</rscale>
<asrwt>0</asrwt>
<pdfrwt beam="1">  1        1 0.15428942E+00 0.63934684E+03</pdfrwt>
<pdfrwt beam="2">  1       -1 0.84460936E-01 0.63934684E+03</pdfrwt>
<totfact> 0.21806456E+01</totfact>
</mgrwt>
</event>
<event>
 4    1  0.2731969E-009  0.9102161E+03  0.7818608E-02  0.9412900E-01
         -1   -1    0    0    0  501 -0.00000000000E+00  0.00000000000E+00  0.14798207799E+04  0.14798207799E+04  0.50400000000E-02 0.  1.
          1   -1    0    0  501    0  0.00000000000E+00 -0.00000000000E+00 -0.13202682371E+04  0.13202682371E+04  0.50400000000E-02 0. -1.
    8880022    1    1    2    0    0  0.67027489740E+03 -0.59651762026E+03  0.11422886231E+04  0.14605877792E+04  0.15294330000E+03 0.  0.
    8880022    1    1    2    0    0 -0.67027489740E+03  0.59651762026E+03 -0.98273608033E+03  0.13395012378E+04  0.15294330000E+03 0.  0.
<mgrwt>
<rscale>  0 0.91021611E+03</rscale>
<asrwt>0</asrwt>
<pdfrwt beam="1">  1        1 0.20311819E+00 0.91021611E+03</pdfrwt>
<pdfrwt beam="2">  1       -1 0.22766473E+00 0.91021611E+03</pdfrwt>
<totfact> 0.87501772E-01</totfact>
</mgrwt>
</event>
<event>
 4    1  0.2731969E-009  0.5065528E+03  0.7818608E-02  0.1012083E+00
          1   -1    0    0  501    0  0.00000000000E+00  0.00000000000E+00  0.18512976285E+04  0.18512976285E+04  0.50400000000E-02 0. -1.
         -1   -1    0    0    0  501 -0.00000000000E+00 -0.00000000000E+00 -0.43364997994E+03  0.43364997997E+03  0.50400000000E-02 0.  1.
    8880022    1    1    2    0    0  0.39061090468E+03 -0.28394937144E+03 -0.23354741775E+03  0.55779940279E+03  0.15294330000E+03 0.  0.
    8880022    1    1    2    0    0 -0.39061090468E+03  0.28394937144E+03  0.16511950663E+04  0.17271482057E+04  0.15294330000E+03 0. -1.
<mgrwt>
<rscale>  0 0.50655284E+03</rscale>
<asrwt>0</asrwt>
<pdfrwt beam="1">  1        1 0.28481503E+00 0.50655284E+03</pdfrwt>
<pdfrwt beam="2">  1       -1 0.66715380E-01 0.50655284E+03</pdfrwt>
<totfact> 0.93679030E+00</totfact>
</mgrwt>
</event>
<event>
 4    1  0.2731969E-009  0.3708307E+03  0.7818608E-02  0.1054376E+00
          1   -1    0    0  501    0  0.00000000000E+00  0.00000000000E+00  0.28048054091E+04  0.28048054091E+04  0.50400000000E-02 0. -1.
         -1   -1    0    0    0  501 -0.00000000000E+00 -0.00000000000E+00 -0.33466132962E+03  0.33466132965E+03  0.50400000000E-02 0.  1.
    8880022    1    1    2    0    0  0.19090944342E+03  0.27870657245E+03  0.26852696334E+04  0.27107542172E+04  0.15294330000E+03 0.  0.
    8880022    1    1    2    0    0 -0.19090944342E+03 -0.27870657245E+03 -0.21512555395E+03  0.42871252150E+03  0.15294330000E+03 0.  0.
<mgrwt>
<rscale>  0 0.37083072E+03</rscale>
<asrwt>0</asrwt>
<pdfrwt beam="1">  1        1 0.43150853E+00 0.37083072E+03</pdfrwt>
<pdfrwt beam="2">  1       -1 0.51486357E-01 0.37083072E+03</pdfrwt>
<totfact> 0.37187788E+00</totfact>
</mgrwt>
</event>
<event>
 4    1  0.2731969E-009  0.1143985E+04  0.7818608E-02  0.9163351E-01
          1   -1    0    0  501    0  0.00000000000E+00  0.00000000000E+00  0.25511556891E+04  0.25511556891E+04  0.50400000000E-02 0. -1.
         -1   -1    0    0    0  501 -0.00000000000E+00 -0.00000000000E+00 -0.17127898963E+04  0.17127898963E+04  0.50400000000E-02 0.  1.
    8880022    1    1    2    0    0 -0.41214821619E+03 -0.10561453304E+04 -0.13651882790E+04  0.17811344142E+04  0.15294330000E+03 0.  0.
    8880022    1    1    2    0    0  0.41214821619E+03  0.10561453304E+04  0.22035540719E+04  0.24828111712E+04  0.15294330000E+03 0.  0.
<mgrwt>
<rscale>  0 0.11439846E+04</rscale>
<asrwt>0</asrwt>
<pdfrwt beam="1">  1        1 0.39248549E+00 0.11439846E+04</pdfrwt>
<pdfrwt beam="2">  1       -1 0.26350614E+00 0.11439846E+04</pdfrwt>
<totfact> 0.70920785E-02</totfact>
</mgrwt>
</event>
<event>
 4    1  0.2731969E-009  0.8571984E+03  0.7818608E-02  0.9480726E-01
          1   -1    0    0  501    0  0.00000000000E+00  0.00000000000E+00  0.33321537825E+03  0.33321537829E+03  0.50400000000E-02 0. -1.
         -1   -1    0    0    0  501 -0.00000000000E+00 -0.00000000000E+00 -0.22562148362E+04  0.22562148362E+04  0.50400000000E-02 0.  1.
    8880022    1    1    2    0    0  0.76213036235E+03  0.36132349945E+03 -0.76671443504E+03  0.11500608846E+04  0.15294330000E+03 0.  0.
    8880022    1    1    2    0    0 -0.76213036235E+03 -0.36132349945E+03 -0.11562850229E+04  0.14393693298E+04  0.15294330000E+03 0.  0.
<mgrwt>
<rscale>  0 0.85719835E+03</rscale>
<asrwt>0</asrwt>
<pdfrwt beam="1">  1        1 0.51263906E-01 0.85719835E+03</pdfrwt>
<pdfrwt beam="2">  1       -1 0.34710996E+00 0.85719835E+03</pdfrwt>
<totfact> 0.12921330E+00</totfact>
</mgrwt>
</event>
<event>
 4    1  0.2731969E-009  0.6383968E+03  0.7818608E-02  0.9828799E-01
         -1   -1    0    0    0  501 -0.00000000000E+00  0.00000000000E+00  0.48077431944E+03  0.48077431947E+03  0.50400000000E-02 0.  1.
          1   -1    0    0  501    0  0.00000000000E+00 -0.00000000000E+00 -0.12515736680E+04  0.12515736680E+04  0.50400000000E-02 0. -1.
    8880022    1    1    2    0    0  0.45010716703E+03  0.42610131890E+03 -0.87744133136E+03  0.10851054045E+04  0.15294330000E+03 0.  0.
    8880022    1    1    2    0    0 -0.45010716703E+03 -0.42610131890E+03  0.10664198280E+03  0.64724258303E+03  0.15294330000E+03 0.  0.
<mgrwt>
<rscale>  0 0.63839678E+03</rscale>
<asrwt>0</asrwt>
<pdfrwt beam="1">  1        1 0.19254979E+00 0.63839678E+03</pdfrwt>
<pdfrwt beam="2">  1       -1 0.73965280E-01 0.63839678E+03</pdfrwt>
<totfact> 0.18911320E+01</totfact>
</mgrwt>
</event>
<event>
 4    1  0.2731969E-009  0.6452029E+03  0.7818608E-02  0.9815822E-01
          1   -1    0    0  501    0  0.00000000000E+00  0.00000000000E+00  0.33884292022E+04  0.33884292022E+04  0.50400000000E-02 0. -1.
         -1   -1    0    0    0  501 -0.00000000000E+00 -0.00000000000E+00 -0.36263829167E+03  0.36263829170E+03  0.50400000000E-02 0.  1.
    8880022    1    1    2    0    0  0.59920833975E+03 -0.18396888980E+03  0.30379913271E+04  0.31057492081E+04  0.15294330000E+03 0.  0.
    8880022    1    1    2    0    0 -0.59920833975E+03  0.18396888980E+03 -0.12200416583E+02  0.64531828583E+03  0.15294330000E+03 0.  0.
<mgrwt>
<rscale>  0 0.64520294E+03</rscale>
<asrwt>0</asrwt>
<pdfrwt beam="1">  1        1 0.52129679E+00 0.64520294E+03</pdfrwt>
<pdfrwt beam="2">  1       -1 0.55790508E-01 0.64520294E+03</pdfrwt>
<totfact> 0.11078942E+00</totfact>
</mgrwt>
</event>
<event>
 4    1  0.2731969E-009  0.2889107E+03  0.7818608E-02  0.1090919E+00
         -1   -1    0    0    0  501 -0.00000000000E+00  0.00000000000E+00  0.11549874109E+04  0.11549874109E+04  0.50400000000E-02 0.  1.
          1   -1    0    0  501    0  0.00000000000E+00 -0.00000000000E+00 -0.12081744556E+04  0.12081744556E+04  0.50400000000E-02 0. -1.
    8880022    1    1    2    0    0 -0.21031094295E+03  0.12588507443E+03  0.11191035585E+04  0.11557950391E+04  0.15294330000E+03 0.  0.
    8880022    1    1    2    0    0  0.21031094295E+03 -0.12588507443E+03 -0.11722906032E+04  0.12073668275E+04  0.15294330000E+03 0.  0.
<mgrwt>
<rscale>  0 0.28891071E+03</rscale>
<asrwt>0</asrwt>
<pdfrwt beam="1">  1        1 0.18587299E+00 0.28891071E+03</pdfrwt>
<pdfrwt beam="2">  1       -1 0.17769037E+00 0.28891071E+03</pdfrwt>
<totfact> 0.27147952E+00</totfact>
</mgrwt>
</event>
<event>
 4    1  0.2731969E-009  0.3284749E+03  0.7818608E-02  0.1071814E+00
          1   -1    0    0  501    0  0.00000000000E+00  0.00000000000E+00  0.16711922497E+04  0.16711922497E+04  0.50400000000E-02 0. -1.
         -1   -1    0    0    0  501 -0.00000000000E+00 -0.00000000000E+00 -0.15128410076E+03  0.15128410085E+03  0.50400000000E-02 0.  1.
    8880022    1    1    2    0    0 -0.28027659632E+03  0.77130530002E+02  0.14498757901E+04  0.14866188310E+04  0.15294330000E+03 0.  0.
    8880022    1    1    2    0    0  0.28027659632E+03 -0.77130530002E+02  0.70032358833E+02  0.33585751950E+03  0.15294330000E+03 0.  0.
<mgrwt>
<rscale>  0 0.32847487E+03</rscale>
<asrwt>0</asrwt>
<pdfrwt beam="1">  1        1 0.25710651E+00 0.32847487E+03</pdfrwt>
<pdfrwt beam="2">  1       -1 0.23274476E-01 0.32847487E+03</pdfrwt>
<totfact> 0.86175052E+01</totfact>
</mgrwt>
</event>
<event>
 4    1  0.2731969E-009  0.3182552E+03  0.7818608E-02  0.1076455E+00
         -1   -1    0    0    0  501 -0.00000000000E+00  0.00000000000E+00  0.57503469833E+03  0.57503469835E+03  0.50400000000E-02 0.  1.
          1   -1    0    0  501    0  0.00000000000E+00 -0.00000000000E+00 -0.56353172187E+03  0.56353172189E+03  0.50400000000E-02 0. -1.
    8880022    1    1    2    0    0 -0.27189835239E+03  0.62976154842E+02 -0.46625134090E+03  0.56451454899E+03  0.15294330000E+03 0.  0.
    8880022    1    1    2    0    0  0.27189835239E+03 -0.62976154842E+02  0.47775431737E+03  0.57405187125E+03  0.15294330000E+03 0.  1.
<mgrwt>
<rscale>  0 0.31825519E+03</rscale>
<asrwt>0</asrwt>
<pdfrwt beam="1">  1        1 0.86697188E-01 0.31825519E+03</pdfrwt>
<pdfrwt beam="2">  1       -1 0.88466877E-01 0.31825519E+03</pdfrwt>
<totfact> 0.50807085E+01</totfact>
</mgrwt>
</event>
<event>
 4    1  0.2731969E-009  0.8706515E+03  0.7818608E-02  0.9463031E-01
         -1   -1    0    0    0  501 -0.00000000000E+00  0.00000000000E+00  0.16255774063E+04  0.16255774063E+04  0.50400000000E-02 0.  1.
          1   -1    0    0  501    0  0.00000000000E+00 -0.00000000000E+00 -0.15916006811E+04  0.15916006811E+04  0.50400000000E-02 0. -1.
    8880022    1    1    2    0    0 -0.35584150487E+03  0.77975590699E+03  0.13695563092E+04  0.16228735589E+04  0.15294330000E+03 0.  0.
    8880022    1    1    2    0    0  0.35584150487E+03 -0.77975590699E+03 -0.13355795840E+04  0.15943045284E+04  0.15294330000E+03 0.  0.
<mgrwt>
<rscale>  0 0.87065154E+03</rscale>
<asrwt>0</asrwt>
<pdfrwt beam="1">  1        1 0.24486164E+00 0.87065154E+03</pdfrwt>
<pdfrwt beam="2">  1       -1 0.25008883E+00 0.87065154E+03</pdfrwt>
<totfact> 0.40804671E-01</totfact>
</mgrwt>
</event>
<event>
 4    1  0.2731969E-009  0.4122611E+03  0.7818608E-02  0.1039615E+00
          1   -1    0    0  501    0  0.00000000000E+00  0.00000000000E+00  0.14693341874E+04  0.14693341874E+04  0.50400000000E-02 0. -1.
         -1   -1    0    0    0  501 -0.00000000000E+00 -0.00000000000E+00 -0.65524925379E+03  0.65524925381E+03  0.50400000000E-02 0.  1.
    8880022    1    1    2    0    0  0.32264796862E+03 -0.20607238079E+03  0.13710219556E+04  0.14316635056E+04  0.15294330000E+03 0.  0.
    8880022    1    1    2    0    0 -0.32264796862E+03  0.20607238079E+03 -0.55693702191E+03  0.69291993561E+03  0.15294330000E+03 0.  0.
<mgrwt>
<rscale>  0 0.41226107E+03</rscale>
<asrwt>0</asrwt>
<pdfrwt beam="1">  1        1 0.22605141E+00 0.41226107E+03</pdfrwt>
<pdfrwt beam="2">  1       -1 0.10080758E+00 0.41226107E+03</pdfrwt>
<totfact> 0.71885840E+00</totfact>
</mgrwt>
</event>
<event>
 4    1  0.2731969E-009  0.6126150E+03  0.7818608E-02  0.9879574E-01
         -1   -1    0    0    0  501 -0.00000000000E+00  0.00000000000E+00  0.98102181693E+03  0.98102181695E+03  0.50400000000E-02 0.  1.
          1   -1    0    0  501    0  0.00000000000E+00 -0.00000000000E+00 -0.51079347725E+03  0.51079347728E+03  0.50400000000E-02 0. -1.
    8880022    1    1    2    0    0 -0.17014837642E+03 -0.56829131497E+03  0.60885239991E+03  0.86371198126E+03  0.15294330000E+03 0.  0.
    8880022    1    1    2    0    0  0.17014837642E+03  0.56829131497E+03 -0.13862406023E+03  0.62810331297E+03  0.15294330000E+03 0.  0.
<mgrwt>
<rscale>  0 0.61261500E+03</rscale>
<asrwt>0</asrwt>
<pdfrwt beam="1">  1        1 0.78583612E-01 0.61261500E+03</pdfrwt>
<pdfrwt beam="2">  1       -1 0.15092643E+00 0.61261500E+03</pdfrwt>
<totfact> 0.15440368E+01</totfact>
</mgrwt>
</event>
<event>
 4    1  0.2731969E-009  0.6031708E+03  0.7818608E-02  0.9898849E-01
         -1   -1    0    0    0  501 -0.00000000000E+00  0.00000000000E+00  0.29395990057E+03  0.29395990061E+03  0.50400000000E-02 0.  1.
          1   -1    0    0  501    0  0.00000000000E+00 -0.00000000000E+00 -0.15578131550E+04  0.15578131550E+04  0.50400000000E-02 0. -1.
    8880022    1    1    2    0    0 -0.46655893122E+03 -0.35035145365E+03 -0.21217150717E+03  0.63939954555E+03  0.15294330000E+03 0.  0.
    8880022    1    1    2    0    0  0.46655893122E+03  0.35035145365E+03 -0.10516817473E+04  0.12123735101E+04  0.15294330000E+03 0.  0.
<mgrwt>
<rscale>  0 0.60317081E+03</rscale>
<asrwt>0</asrwt>
<pdfrwt beam="1">  1        1 0.23966356E+00 0.60317081E+03</pdfrwt>
<pdfrwt beam="2">  1       -1 0.45224601E-01 0.60317081E+03</pdfrwt>
<totfact> 0.30497811E+01</totfact>
</mgrwt>
</event>
<event>
 4    1  0.2731969E-009  0.1342769E+04  0.7818608E-02  0.8996320E-01
          1   -1    0    0  501    0  0.00000000000E+00  0.00000000000E+00  0.10475896670E+04  0.10475896670E+04  0.50400000000E-02 0. -1.
         -1   -1    0    0    0  501 -0.00000000000E+00 -0.00000000000E+00 -0.22927455360E+04  0.22927455360E+04  0.50400000000E-02 0.  1.
    8880022    1    1    2    0    0  0.97030301865E+03 -0.91550509612E+03  0.21136692783E+03  0.13593031892E+04  0.15294330000E+03 0.  0.
    8880022    1    1    2    0    0 -0.97030301865E+03  0.91550509612E+03 -0.14565227968E+04  0.19810320138E+04  0.15294330000E+03 0.  0.
<mgrwt>
<rscale>  0 0.13427692E+04</rscale>
<asrwt>0</asrwt>
<pdfrwt beam="1">  1        1 0.16116764E+00 0.13427692E+04</pdfrwt>
<pdfrwt beam="2">  1       -1 0.35273008E+00 0.13427692E+04</pdfrwt>
<totfact> 0.20091299E-01</totfact>
</mgrwt>
</event>
<event>
 4    1  0.2731969E-009  0.4380071E+03  0.7818608E-02  0.1031360E+00
         -1   -1    0    0    0  501 -0.00000000000E+00  0.00000000000E+00  0.31833619641E+03  0.31833619645E+03  0.50400000000E-02 0.  1.
          1   -1    0    0  501    0  0.00000000000E+00 -0.00000000000E+00 -0.72176829433E+03  0.72176829434E+03  0.50400000000E-02 0. -1.
    8880022    1    1    2    0    0 -0.37555828964E+03  0.16557337073E+03 -0.41297210388E+03  0.60199350629E+03  0.15294330000E+03 0.  0.
    8880022    1    1    2    0    0  0.37555828964E+03 -0.16557337073E+03  0.95400059611E+01  0.43811098450E+03  0.15294330000E+03 0.  0.
<mgrwt>
<rscale>  0 0.43800710E+03</rscale>
<asrwt>0</asrwt>
<pdfrwt beam="1">  1        1 0.11104128E+00 0.43800710E+03</pdfrwt>
<pdfrwt beam="2">  1       -1 0.48974799E-01 0.43800710E+03</pdfrwt>
<totfact> 0.11362993E+02</totfact>
</mgrwt>
</event>
<event>
 4    1  0.2731969E-009  0.8969901E+03  0.7818608E-02  0.9429352E-01
         -1   -1    0    0    0  501 -0.00000000000E+00  0.00000000000E+00  0.85459137902E+03  0.85459137903E+03  0.50400000000E-02 0.  1.
          1   -1    0    0  501    0  0.00000000000E+00 -0.00000000000E+00 -0.16119436728E+04  0.16119436728E+04  0.50400000000E-02 0. -1.
    8880022    1    1    2    0    0  0.61143874538E+03  0.63823366068E+03 -0.11740402918E+04  0.14774849592E+04  0.15294330000E+03 0.  0.
    8880022    1    1    2    0    0 -0.61143874538E+03 -0.63823366068E+03  0.41668799801E+03  0.98905009260E+03  0.15294330000E+03 0.  1.
<mgrwt>
<rscale>  0 0.89699008E+03</rscale>
<asrwt>0</asrwt>
<pdfrwt beam="1">  1        1 0.24799133E+00 0.89699008E+03</pdfrwt>
<pdfrwt beam="2">  1       -1 0.13147560E+00 0.89699008E+03</pdfrwt>
<totfact> 0.27561659E+00</totfact>
</mgrwt>
</event>
<event>
 4    1  0.2731969E-009  0.9826379E+03  0.7818608E-02  0.9327795E-01
          1   -1    0    0  501    0  0.00000000000E+00  0.00000000000E+00  0.21544504283E+04  0.21544504283E+04  0.50400000000E-02 0. -1.
         -1   -1    0    0    0  501 -0.00000000000E+00 -0.00000000000E+00 -0.58479314977E+03  0.58479314979E+03  0.50400000000E-02 0.  1.
    8880022    1    1    2    0    0  0.28037133542E+03 -0.92928873040E+03  0.12284241789E+03  0.99028659630E+03  0.15294330000E+03 0.  0.
    8880022    1    1    2    0    0 -0.28037133542E+03  0.92928873040E+03  0.14468148606E+04  0.17489569818E+04  0.15294330000E+03 0. -1.
<mgrwt>
<rscale>  0 0.98263792E+03</rscale>
<asrwt>0</asrwt>
<pdfrwt beam="1">  1        1 0.33145391E+00 0.98263792E+03</pdfrwt>
<pdfrwt beam="2">  1       -1 0.89968178E-01 0.98263792E+03</pdfrwt>
<totfact> 0.28737237E+00</totfact>
</mgrwt>
</event>
<event>
 4    1  0.2731969E-009  0.6645241E+03  0.7818608E-02  0.9779901E-01
          1   -1    0    0  501    0  0.00000000000E+00  0.00000000000E+00  0.22719378429E+04  0.22719378429E+04  0.50400000000E-02 0. -1.
         -1   -1    0    0    0  501 -0.00000000000E+00 -0.00000000000E+00 -0.21816044258E+03  0.21816044264E+03  0.50400000000E-02 0.  1.
    8880022    1    1    2    0    0 -0.33472424505E+03  0.55331752468E+03  0.14380545486E+04  0.15841695430E+04  0.15294330000E+03 0.  0.
    8880022    1    1    2    0    0  0.33472424505E+03 -0.55331752468E+03  0.61572285172E+03  0.90592874250E+03  0.15294330000E+03 0.  0.
<mgrwt>
<rscale>  0 0.66452408E+03</rscale>
<asrwt>0</asrwt>
<pdfrwt beam="1">  1        1 0.34952889E+00 0.66452408E+03</pdfrwt>
<pdfrwt beam="2">  1       -1 0.33563146E-01 0.66452408E+03</pdfrwt>
<totfact> 0.17247347E+01</totfact>
</mgrwt>
</event>
<event>
 4    1  0.2731969E-009  0.7015228E+03  0.7818608E-02  0.9714632E-01
          1   -1    0    0  501    0  0.00000000000E+00  0.00000000000E+00  0.17080998532E+04  0.17080998533E+04  0.50400000000E-02 0. -1.
         -1   -1    0    0    0  501 -0.00000000000E+00 -0.00000000000E+00 -0.19703164630E+04  0.19703164630E+04  0.50400000000E-02 0.  1.
    8880022    1    1    2    0    0 -0.31425202648E+03 -0.60826659151E+03 -0.18305313899E+04  0.19603518574E+04  0.15294330000E+03 0.  0.
    8880022    1    1    2    0    0  0.31425202648E+03  0.60826659151E+03  0.15683147801E+04  0.17180644589E+04  0.15294330000E+03 0.  0.
<mgrwt>
<rscale>  0 0.70152280E+03</rscale>
<asrwt>0</asrwt>
<pdfrwt beam="1">  1        1 0.26278459E+00 0.70152280E+03</pdfrwt>
<pdfrwt beam="2">  1       -1 0.30312561E+00 0.70152280E+03</pdfrwt>
<totfact> 0.16200024E-01</totfact>
</mgrwt>
</event>
<event>
 4    1  0.2731969E-009  0.1916304E+03  0.7818608E-02  0.1156999E+00
         -1   -1    0    0    0  501 -0.00000000000E+00  0.00000000000E+00  0.92783068473E+03  0.92783068474E+03  0.50400000000E-02 0.  1.
          1   -1    0    0  501    0  0.00000000000E+00 -0.00000000000E+00 -0.33498295966E+03  0.33498295970E+03  0.50400000000E-02 0. -1.
    8880022    1    1    2    0    0  0.69592616648E+02  0.92127160129E+02  0.88935791770E+03  0.90976903922E+03  0.15294330000E+03 0.  1.
    8880022    1    1    2    0    0 -0.69592616648E+02 -0.92127160129E+02 -0.29651019264E+03  0.35304460522E+03  0.15294330000E+03 0.  0.
<mgrwt>
<rscale>  0 0.19163037E+03</rscale>
<asrwt>0</asrwt>
<pdfrwt beam="1">  1        1 0.51535840E-01 0.19163037E+03</pdfrwt>
<pdfrwt beam="2">  1       -1 0.14274318E+00 0.19163037E+03</pdfrwt>
<totfact> 0.33940931E+01</totfact>
</mgrwt>
</event>
<event>
 4    1  0.2731969E-009  0.1488206E+04  0.7818608E-02  0.8892334E-01
         -1   -1    0    0    0  501 -0.00000000000E+00  0.00000000000E+00  0.17209852500E+04  0.17209852500E+04  0.50400000000E-02 0.  1.
          1   -1    0    0  501    0  0.00000000000E+00 -0.00000000000E+00 -0.14511691875E+04  0.14511691875E+04  0.50400000000E-02 0. -1.
    8880022    1    1    2    0    0  0.57168627610E+03  0.13654816123E+04  0.66852207684E+03  0.16314651857E+04  0.15294330000E+03 0.  0.
    8880022    1    1    2    0    0 -0.57168627610E+03 -0.13654816123E+04 -0.39870601428E+03  0.15406892518E+04  0.15294330000E+03 0.  0.
<mgrwt>
<rscale>  0 0.14882059E+04</rscale>
<asrwt>0</asrwt>
<pdfrwt beam="1">  1        1 0.22325680E+00 0.14882059E+04</pdfrwt>
<pdfrwt beam="2">  1       -1 0.26476696E+00 0.14882059E+04</pdfrwt>
<totfact> 0.37439194E-01</totfact>
</mgrwt>
</event>
<event>
 4    1  0.2731969E-009  0.3920067E+03  0.7818608E-02  0.1046583E+00
         -1   -1    0    0    0  501 -0.00000000000E+00  0.00000000000E+00  0.19649441651E+03  0.19649441657E+03  0.50400000000E-02 0.  1.
          1   -1    0    0  501    0  0.00000000000E+00 -0.00000000000E+00 -0.13177042776E+04  0.13177042776E+04  0.50400000000E-02 0. -1.
    8880022    1    1    2    0    0 -0.22116748721E+03 -0.28524120100E+03 -0.77896878937E+02  0.39967133611E+03  0.15294330000E+03 0.  0.
    8880022    1    1    2    0    0  0.22116748721E+03  0.28524120100E+03 -0.10433129822E+04  0.11145273581E+04  0.15294330000E+03 0. -1.
<mgrwt>
<rscale>  0 0.39200670E+03</rscale>
<asrwt>0</asrwt>
<pdfrwt beam="1">  1        1 0.20272373E+00 0.39200670E+03</pdfrwt>
<pdfrwt beam="2">  1       -1 0.30229911E-01 0.39200670E+03</pdfrwt>
<totfact> 0.94440438E+01</totfact>
</mgrwt>
</event>
<event>
 4    1  0.2731969E-009  0.1006318E+04  0.7818608E-02  0.9301642E-01
          1   -1    0    0  501    0  0.00000000000E+00  0.00000000000E+00  0.16323392362E+04  0.16323392362E+04  0.50400000000E-02 0. -1.
         -1   -1    0    0    0  501 -0.00000000000E+00 -0.00000000000E+00 -0.16331796553E+04  0.16331796553E+04  0.50400000000E-02 0.  1.
    8880022    1    1    2    0    0 -0.43479458096E+03 -0.89456017831E+03  0.12853587168E+04  0.16324285357E+04  0.15294330000E+03 0.  0.
    8880022    1    1    2    0    0  0.43479458096E+03  0.89456017831E+03 -0.12861991359E+04  0.16330903559E+04  0.15294330000E+03 0.  0.
<mgrwt>
<rscale>  0 0.10063180E+04</rscale>
<asrwt>0</asrwt>
<pdfrwt beam="1">  1        1 0.25112911E+00 0.10063180E+04</pdfrwt>
<pdfrwt beam="2">  1       -1 0.25125841E+00 0.10063180E+04</pdfrwt>
<totfact> 0.36688119E-01</totfact>
</mgrwt>
</event>
<event>
 4    1  0.2731969E-009  0.7870973E+03  0.7818608E-02  0.9578883E-01
          1   -1    0    0  501    0  0.00000000000E+00  0.00000000000E+00  0.94957904776E+03  0.94957904777E+03  0.50400000000E-02 0. -1.
         -1   -1    0    0    0  501 -0.00000000000E+00 -0.00000000000E+00 -0.94286292185E+03  0.94286292186E+03  0.50400000000E-02 0.  1.
    8880022    1    1    2    0    0 -0.30513602279E+03  0.70924078114E+03  0.52852871921E+03  0.94808477367E+03  0.15294330000E+03 0.  0.
    8880022    1    1    2    0    0  0.30513602279E+03 -0.70924078114E+03 -0.52181259329E+03  0.94435719596E+03  0.15294330000E+03 0.  0.
<mgrwt>
<rscale>  0 0.78709728E+03</rscale>
<asrwt>0</asrwt>
<pdfrwt beam="1">  1        1 0.14608908E+00 0.78709728E+03</pdfrwt>
<pdfrwt beam="2">  1       -1 0.14505584E+00 0.78709728E+03</pdfrwt>
<totfact> 0.65154634E+00</totfact>
</mgrwt>
</event>
<event>
 4    1  0.2731969E-009  0.5018000E+03  0.7818608E-02  0.1013310E+00
         -1   -1    0    0    0  501 -0.00000000000E+00  0.00000000000E+00  0.14034709278E+04  0.14034709278E+04  0.50400000000E-02 0.  1.
          1   -1    0    0  501    0  0.00000000000E+00 -0.00000000000E+00 -0.23278493311E+04  0.23278493311E+04  0.50400000000E-02 0. -1.
    8880022    1    1    2    0    0  0.24754374207E+03  0.40881985848E+03  0.13301333725E+04  0.14216392027E+04  0.15294330000E+03 0.  0.
    8880022    1    1    2    0    0 -0.24754374207E+03 -0.40881985848E+03 -0.22545117758E+04  0.23096810562E+04  0.15294330000E+03 0.  0.
<mgrwt>
<rscale>  0 0.50179999E+03</rscale>
<asrwt>0</asrwt>
<pdfrwt beam="1">  1        1 0.35813067E+00 0.50179999E+03</pdfrwt>
<pdfrwt beam="2">  1       -1 0.21591860E+00 0.50179999E+03</pdfrwt>
<totfact> 0.24315478E-01</totfact>
</mgrwt>
</event>
<event>
 4    1  0.2731969E-009  0.1031649E+04  0.7818608E-02  0.9274498E-01
         -1   -1    0    0    0  501 -0.00000000000E+00  0.00000000000E+00  0.81419306439E+03  0.81419306441E+03  0.50400000000E-02 0.  1.
          1   -1    0    0  501    0  0.00000000000E+00 -0.00000000000E+00 -0.14232185235E+04  0.14232185235E+04  0.50400000000E-02 0. -1.
    8880022    1    1    2    0    0  0.99555703789E+03 -0.22310190342E+03  0.14916171821E+02  0.10317569579E+04  0.15294330000E+03 0.  0.
    8880022    1    1    2    0    0 -0.99555703789E+03  0.22310190342E+03 -0.62394163089E+03  0.12056546300E+04  0.15294330000E+03 0.  0.
<mgrwt>
<rscale>  0 0.10316491E+04</rscale>
<asrwt>0</asrwt>
<pdfrwt beam="1">  1        1 0.21895670E+00 0.10316491E+04</pdfrwt>
<pdfrwt beam="2">  1       -1 0.12526047E+00 0.10316491E+04</pdfrwt>
<totfact> 0.41233618E+00</totfact>
</mgrwt>
</event>
<event>
 4    1  0.2731969E-009  0.2371519E+03  0.7818608E-02  0.1121705E+00
         -1   -1    0    0    0  501 -0.00000000000E+00  0.00000000000E+00  0.18530478465E+03  0.18530478471E+03  0.50400000000E-02 0.  1.
          1   -1    0    0  501    0  0.00000000000E+00 -0.00000000000E+00 -0.14400766799E+04  0.14400766799E+04  0.50400000000E-02 0. -1.
    8880022    1    1    2    0    0  0.16559824568E+03 -0.73665384238E+02 -0.13493753429E+04  0.13700565086E+04  0.15294330000E+03 0. -1.
    8880022    1    1    2    0    0 -0.16559824568E+03  0.73665384238E+02  0.94603447676E+02  0.25532495596E+03  0.15294330000E+03 0.  0.
<mgrwt>
<rscale>  0 0.23715189E+03</rscale>
<asrwt>0</asrwt>
<pdfrwt beam="1">  1        1 0.22155025E+00 0.23715189E+03</pdfrwt>
<pdfrwt beam="2">  1       -1 0.28508429E-01 0.23715189E+03</pdfrwt>
<totfact> 0.89312694E+01</totfact>
</mgrwt>
</event>
<event>
 4    1  0.2731969E-009  0.2021354E+04  0.7818608E-02  0.8596702E-01
         -1   -1    0    0    0  501 -0.00000000000E+00  0.00000000000E+00  0.33197235853E+04  0.33197235853E+04  0.50400000000E-02 0.  1.
          1   -1    0    0  501    0  0.00000000000E+00 -0.00000000000E+00 -0.15458410383E+04  0.15458410383E+04  0.50400000000E-02 0. -1.
    8880022    1    1    2    0    0  0.19830587478E+04 -0.36049658086E+03 -0.21134007214E+03  0.20323720283E+04  0.15294330000E+03 0.  0.
    8880022    1    1    2    0    0 -0.19830587478E+04  0.36049658086E+03  0.19852226191E+04  0.28331925954E+04  0.15294330000E+03 0.  0.
<mgrwt>
<rscale>  0 0.20213539E+04</rscale>
<asrwt>0</asrwt>
<pdfrwt beam="1">  1        1 0.23782170E+00 0.20213539E+04</pdfrwt>
<pdfrwt beam="2">  1       -1 0.51072670E+00 0.20213539E+04</pdfrwt>
<totfact> 0.68158596E-03</totfact>
</mgrwt>
</event>
<event>
 4    1  0.2731969E-009  0.1206680E+04  0.7818608E-02  0.9107029E-01
         -1   -1    0    0    0  501 -0.00000000000E+00  0.00000000000E+00  0.82340273405E+03  0.82340273406E+03  0.50400000000E-02 0.  1.
          1   -1    0    0  501    0  0.00000000000E+00 -0.00000000000E+00 -0.21409062634E+04  0.21409062634E+04  0.50400000000E-02 0. -1.
    8880022    1    1    2    0    0 -0.10589640286E+04 -0.55792590564E+03 -0.40477759758E+02  0.12073591976E+04  0.15294330000E+03 0.  0.
    8880022    1    1    2    0    0  0.10589640286E+04  0.55792590564E+03 -0.12770257696E+04  0.17569497999E+04  0.15294330000E+03 0.  0.
<mgrwt>
<rscale>  0 0.12066805E+04</rscale>
<asrwt>0</asrwt>
<pdfrwt beam="1">  1        1 0.32937019E+00 0.12066805E+04</pdfrwt>
<pdfrwt beam="2">  1       -1 0.12667734E+00 0.12066805E+04</pdfrwt>
<totfact> 0.12734875E+00</totfact>
</mgrwt>
</event>
<event>
 4    1  0.2731969E-009  0.1874400E+04  0.7818608E-02  0.8667705E-01
         -1   -1    0    0    0  501 -0.00000000000E+00  0.00000000000E+00  0.28914744548E+04  0.28914744548E+04  0.50400000000E-02 0.  1.
          1   -1    0    0  501    0  0.00000000000E+00 -0.00000000000E+00 -0.19486239939E+04  0.19486239939E+04  0.50400000000E-02 0. -1.
    8880022    1    1    2    0    0  0.17946668645E+04  0.51880259662E+03 -0.10133914355E+04  0.21308071577E+04  0.15294330000E+03 0.  0.
    8880022    1    1    2    0    0 -0.17946668645E+04 -0.51880259662E+03  0.19562418964E+04  0.27092912909E+04  0.15294330000E+03 0.  0.
<mgrwt>
<rscale>  0 0.18744004E+04</rscale>
<asrwt>0</asrwt>
<pdfrwt beam="1">  1        1 0.29978831E+00 0.18744004E+04</pdfrwt>
<pdfrwt beam="2">  1       -1 0.44484222E+00 0.18744004E+04</pdfrwt>
<totfact> 0.10180848E-02</totfact>
</mgrwt>
</event>
<event>
 4    1  0.2731969E-009  0.4963795E+03  0.7818608E-02  0.1014728E+00
          1   -1    0    0  501    0  0.00000000000E+00  0.00000000000E+00  0.14937124936E+04  0.14937124936E+04  0.50400000000E-02 0. -1.
         -1   -1    0    0    0  501 -0.00000000000E+00 -0.00000000000E+00 -0.26081658808E+03  0.26081658812E+03  0.50400000000E-02 0.  1.
    8880022    1    1    2    0    0  0.68887538809E+02  0.46717819696E+03  0.11482982687E+04  0.12509922173E+04  0.15294330000E+03 0.  0.
    8880022    1    1    2    0    0 -0.68887538809E+02 -0.46717819696E+03  0.84597636816E+02  0.50353686447E+03  0.15294330000E+03 0. -1.
<mgrwt>
<rscale>  0 0.49637951E+03</rscale>
<asrwt>0</asrwt>
<pdfrwt beam="1">  1        1 0.22980192E+00 0.49637951E+03</pdfrwt>
<pdfrwt beam="2">  1       -1 0.40125629E-01 0.49637951E+03</pdfrwt>
<totfact> 0.42679149E+01</totfact>
</mgrwt>
</event>
<event>
 4    1  0.2731969E-009  0.2565380E+03  0.7818608E-02  0.1109241E+00
         -1   -1    0    0    0  501 -0.00000000000E+00  0.00000000000E+00  0.95074217442E+03  0.95074217443E+03  0.50400000000E-02 0.  1.
          1   -1    0    0  501    0  0.00000000000E+00 -0.00000000000E+00 -0.12001139236E+04  0.12001139236E+04  0.50400000000E-02 0. -1.
    8880022    1    1    2    0    0 -0.19930453651E+03  0.51940053640E+02  0.91926673789E+03  0.95439145840E+03  0.15294330000E+03 0.  1.
    8880022    1    1    2    0    0  0.19930453651E+03 -0.51940053640E+02 -0.11686384870E+04  0.11964646396E+04  0.15294330000E+03 0.  0.
<mgrwt>
<rscale>  0 0.25653795E+03</rscale>
<asrwt>0</asrwt>
<pdfrwt beam="1">  1        1 0.18463291E+00 0.25653795E+03</pdfrwt>
<pdfrwt beam="2">  1       -1 0.14626803E+00 0.25653795E+03</pdfrwt>
<totfact> 0.47550765E+00</totfact>
</mgrwt>
</event>
<event>
 4    1  0.2731969E-009  0.8782598E+03  0.7818608E-02  0.9453173E-01
         -1   -1    0    0    0  501 -0.00000000000E+00  0.00000000000E+00  0.52595510590E+03  0.52595510592E+03  0.50400000000E-02 0.  1.
          1   -1    0    0  501    0  0.00000000000E+00 -0.00000000000E+00 -0.27345579321E+04  0.27345579321E+04  0.50400000000E-02 0. -1.
    8880022    1    1    2    0    0 -0.33314939073E+03  0.79809775302E+03  0.58267691930E+01  0.87827908103E+03  0.15294330000E+03 0.  0.
    8880022    1    1    2    0    0  0.33314939073E+03 -0.79809775302E+03 -0.22144295953E+04  0.23822339570E+04  0.15294330000E+03 0.  0.
<mgrwt>
<rscale>  0 0.87825975E+03</rscale>
<asrwt>0</asrwt>
<pdfrwt beam="1">  1        1 0.42070121E+00 0.87825975E+03</pdfrwt>
<pdfrwt beam="2">  1       -1 0.80916172E-01 0.87825975E+03</pdfrwt>
<totfact> 0.14743395E+00</totfact>
</mgrwt>
</event>
<event>
 4    1  0.2731969E-009  0.7695382E+03  0.7818608E-02  0.9605187E-01
         -1   -1    0    0    0  501 -0.00000000000E+00  0.00000000000E+00  0.11173719131E+04  0.11173719131E+04  0.50400000000E-02 0.  1.
          1   -1    0    0  501    0  0.00000000000E+00 -0.00000000000E+00 -0.22127585402E+04  0.22127585402E+04  0.50400000000E-02 0. -1.
    8880022    1    1    2    0    0 -0.75408334853E+03 -0.12480030090E+02  0.90434213940E+03  0.11874442327E+04  0.15294330000E+03 0.  0.
    8880022    1    1    2    0    0  0.75408334853E+03  0.12480030090E+02 -0.19997287665E+04  0.21426862207E+04  0.15294330000E+03 0.  0.
<mgrwt>
<rscale>  0 0.76953824E+03</rscale>
<asrwt>0</asrwt>
<pdfrwt beam="1">  1        1 0.34042439E+00 0.76953824E+03</pdfrwt>
<pdfrwt beam="2">  1       -1 0.17190337E+00 0.76953824E+03</pdfrwt>
<totfact> 0.54010278E-01</totfact>
</mgrwt>
</event>
<event>
 4    1  0.2731969E-009  0.7625114E+03  0.7818608E-02  0.9615924E-01
          1   -1    0    0  501    0  0.00000000000E+00  0.00000000000E+00  0.26044575425E+04  0.26044575425E+04  0.50400000000E-02 0. -1.
         -1   -1    0    0    0  501 -0.00000000000E+00 -0.00000000000E+00 -0.71671076491E+03  0.71671076493E+03  0.50400000000E-02 0.  1.
    8880022    1    1    2    0    0 -0.55429517249E+03  0.50078827153E+03  0.23217770864E+04  0.24437824214E+04  0.15294330000E+03 0.  0.
    8880022    1    1    2    0    0  0.55429517249E+03 -0.50078827153E+03 -0.43403030877E+03  0.87738588608E+03  0.15294330000E+03 0.  1.
<mgrwt>
<rscale>  0 0.76251143E+03</rscale>
<asrwt>0</asrwt>
<pdfrwt beam="1">  1        1 0.40068578E+00 0.76251143E+03</pdfrwt>
<pdfrwt beam="2">  1       -1 0.11026319E+00 0.76251143E+03</pdfrwt>
<totfact> 0.92781498E-01</totfact>
</mgrwt>
</event>
<event>
 4    1  0.2731969E-009  0.2129522E+03  0.7818608E-02  0.1139249E+00
          1   -1    0    0  501    0  0.00000000000E+00  0.00000000000E+00  0.76557723450E+03  0.76557723452E+03  0.50400000000E-02 0. -1.
         -1   -1    0    0    0  501 -0.00000000000E+00 -0.00000000000E+00 -0.56770595648E+03  0.56770595650E+03  0.50400000000E-02 0.  1.
    8880022    1    1    2    0    0 -0.14723642861E+03  0.16685644198E+02 -0.53196932851E+03  0.57300959514E+03  0.15294330000E+03 0.  0.
    8880022    1    1    2    0    0  0.14723642861E+03 -0.16685644198E+02  0.72984060654E+03  0.76027359588E+03  0.15294330000E+03 0. -1.
<mgrwt>
<rscale>  0 0.21295218E+03</rscale>
<asrwt>0</asrwt>
<pdfrwt beam="1">  1        1 0.11778111E+00 0.21295218E+03</pdfrwt>
<pdfrwt beam="2">  1       -1 0.87339378E-01 0.21295218E+03</pdfrwt>
<totfact> 0.34633479E+01</totfact>
</mgrwt>
</event>
<event>
 4    1  0.2731969E-009  0.1606267E+04  0.7818608E-02  0.8816707E-01
         -1   -1    0    0    0  501 -0.00000000000E+00  0.00000000000E+00  0.22747646145E+04  0.22747646145E+04  0.50400000000E-02 0.  1.
          1   -1    0    0  501    0  0.00000000000E+00 -0.00000000000E+00 -0.12775754947E+04  0.12775754947E+04  0.50400000000E-02 0. -1.
    8880022    1    1    2    0    0  0.50316762235E+03  0.15177363363E+04  0.10935606123E+04  0.19431849394E+04  0.15294330000E+03 0.  0.
    8880022    1    1    2    0    0 -0.50316762235E+03 -0.15177363363E+04 -0.96371492586E+02  0.16091551698E+04  0.15294330000E+03 0.  0.
<mgrwt>
<rscale>  0 0.16062668E+04</rscale>
<asrwt>0</asrwt>
<pdfrwt beam="1">  1        1 0.19655008E+00 0.16062668E+04</pdfrwt>
<pdfrwt beam="2">  1       -1 0.34996378E+00 0.16062668E+04</pdfrwt>
<totfact> 0.13674397E-01</totfact>
</mgrwt>
</event>
<event>
 4    1  0.2731969E-009  0.1539813E+04  0.7818608E-02  0.8858401E-01
          1   -1    0    0  501    0  0.00000000000E+00  0.00000000000E+00  0.27212748316E+04  0.27212748316E+04  0.50400000000E-02 0. -1.
         -1   -1    0    0    0  501 -0.00000000000E+00 -0.00000000000E+00 -0.11398071544E+04  0.11398071544E+04  0.50400000000E-02 0.  1.
    8880022    1    1    2    0    0 -0.78781847351E+03  0.13141436578E+04 -0.14628491956E+03  0.15467457552E+04  0.15294330000E+03 0.  0.
    8880022    1    1    2    0    0  0.78781847351E+03 -0.13141436578E+04  0.17277525968E+04  0.23143362308E+04  0.15294330000E+03 0.  0.
<mgrwt>
<rscale>  0 0.15398127E+04</rscale>
<asrwt>0</asrwt>
<pdfrwt beam="1">  1        1 0.41865766E+00 0.15398127E+04</pdfrwt>
<pdfrwt beam="2">  1       -1 0.17535495E+00 0.15398127E+04</pdfrwt>
<totfact> 0.20110005E-01</totfact>
</mgrwt>
</event>
<event>
 4    1  0.2731969E-009  0.7284798E+03  0.7818608E-02  0.9669730E-01
          1   -1    0    0  501    0  0.00000000000E+00  0.00000000000E+00  0.90626115382E+03  0.90626115384E+03  0.50400000000E-02 0. -1.
         -1   -1    0    0    0  501 -0.00000000000E+00 -0.00000000000E+00 -0.10344123696E+04  0.10344123696E+04  0.50400000000E-02 0.  1.
    8880022    1    1    2    0    0 -0.26479608468E+02  0.71175135319E+03  0.57510075283E+03  0.92812913291E+03  0.15294330000E+03 0.  0.
    8880022    1    1    2    0    0  0.26479608468E+02 -0.71175135319E+03 -0.70325196860E+03  0.10125443905E+04  0.15294330000E+03 0.  0.
<mgrwt>
<rscale>  0 0.72847979E+03</rscale>
<asrwt>0</asrwt>
<pdfrwt beam="1">  1        1 0.13942479E+00 0.72847979E+03</pdfrwt>
<pdfrwt beam="2">  1       -1 0.15914036E+00 0.72847979E+03</pdfrwt>
<totfact> 0.55419281E+00</totfact>
</mgrwt>
</event>
<event>
 4    1  0.2731969E-009  0.3303370E+03  0.7818608E-02  0.1070988E+00
          1   -1    0    0  501    0  0.00000000000E+00  0.00000000000E+00  0.94278342235E+03  0.94278342237E+03  0.50400000000E-02 0. -1.
         -1   -1    0    0    0  501 -0.00000000000E+00 -0.00000000000E+00 -0.84655503581E+03  0.84655503582E+03  0.50400000000E-02 0.  1.
    8880022    1    1    2    0    0 -0.23145788027E+03 -0.17932684004E+03  0.87937467955E+03  0.93937337941E+03  0.15294330000E+03 0.  0.
    8880022    1    1    2    0    0  0.23145788027E+03  0.17932684004E+03 -0.78314629300E+03  0.84996507878E+03  0.15294330000E+03 0.  0.
<mgrwt>
<rscale>  0 0.33033698E+03</rscale>
<asrwt>0</asrwt>
<pdfrwt beam="1">  1        1 0.14504360E+00 0.33033698E+03</pdfrwt>
<pdfrwt beam="2">  1       -1 0.13023924E+00 0.33033698E+03</pdfrwt>
<totfact> 0.95614144E+00</totfact>
</mgrwt>
</event>
<event>
 4    1  0.2731969E-009  0.5245571E+03  0.7818608E-02  0.1007561E+00
         -1   -1    0    0    0  501 -0.00000000000E+00  0.00000000000E+00  0.23594336568E+03  0.23594336573E+03  0.50400000000E-02 0.  1.
          1   -1    0    0  501    0  0.00000000000E+00 -0.00000000000E+00 -0.23704289309E+04  0.23704289309E+04  0.50400000000E-02 0. -1.
    8880022    1    1    2    0    0 -0.39000483613E+02  0.50024744039E+03 -0.13839362576E+03  0.54250621011E+03  0.15294330000E+03 0.  0.
    8880022    1    1    2    0    0  0.39000483613E+02 -0.50024744039E+03 -0.19960919394E+04  0.20638660865E+04  0.15294330000E+03 0.  0.
<mgrwt>
<rscale>  0 0.52455714E+03</rscale>
<asrwt>0</asrwt>
<pdfrwt beam="1">  1        1 0.36468136E+00 0.52455714E+03</pdfrwt>
<pdfrwt beam="2">  1       -1 0.36298981E-01 0.52455714E+03</pdfrwt>
<totfact> 0.13248218E+01</totfact>
</mgrwt>
</event>
<event>
 4    1  0.2731969E-009  0.1089863E+04  0.7818608E-02  0.9215129E-01
         -1   -1    0    0    0  501 -0.00000000000E+00  0.00000000000E+00  0.14556138229E+04  0.14556138229E+04  0.50400000000E-02 0.  1.
          1   -1    0    0  501    0  0.00000000000E+00 -0.00000000000E+00 -0.14773742890E+04  0.14773742890E+04  0.50400000000E-02 0. -1.
    8880022    1    1    2    0    0 -0.30523333900E+03  0.10350083813E+04  0.97031191770E+03  0.14592143815E+04  0.15294330000E+03 0.  0.
    8880022    1    1    2    0    0  0.30523333900E+03 -0.10350083813E+04 -0.99207238384E+03  0.14737737304E+04  0.15294330000E+03 0.  0.
<mgrwt>
<rscale>  0 0.10898630E+04</rscale>
<asrwt>0</asrwt>
<pdfrwt beam="1">  1        1 0.22728835E+00 0.10898630E+04</pdfrwt>
<pdfrwt beam="2">  1       -1 0.22394059E+00 0.10898630E+04</pdfrwt>
<totfact> 0.69900966E-01</totfact>
</mgrwt>
</event>
<event>
 4    1  0.2731969E-009  0.1425707E+04  0.7818608E-02  0.8935418E-01
         -1   -1    0    0    0  501 -0.00000000000E+00  0.00000000000E+00  0.10133871868E+04  0.10133871868E+04  0.50400000000E-02 0.  1.
          1   -1    0    0  501    0  0.00000000000E+00 -0.00000000000E+00 -0.27142638429E+04  0.27142638429E+04  0.50400000000E-02 0. -1.
    8880022    1    1    2    0    0 -0.23746765212E+03 -0.13974467567E+04  0.10179134277E+03  0.14293360186E+04  0.15294330000E+03 0.  0.
    8880022    1    1    2    0    0  0.23746765212E+03  0.13974467567E+04 -0.18026679989E+04  0.22983150112E+04  0.15294330000E+03 0.  0.
<mgrwt>
<rscale>  0 0.14257068E+04</rscale>
<asrwt>0</asrwt>
<pdfrwt beam="1">  1        1 0.41757905E+00 0.14257068E+04</pdfrwt>
<pdfrwt beam="2">  1       -1 0.15590572E+00 0.14257068E+04</pdfrwt>
<totfact> 0.28868267E-01</totfact>
</mgrwt>
</event>
<event>
 4    1  0.2731969E-009  0.1686107E+03  0.7818608E-02  0.1179304E+00
         -1   -1    0    0    0  501 -0.00000000000E+00  0.00000000000E+00  0.21551471784E+03  0.21551471790E+03  0.50400000000E-02 0.  1.
          1   -1    0    0  501    0  0.00000000000E+00 -0.00000000000E+00 -0.72005280871E+03  0.72005280873E+03  0.50400000000E-02 0. -1.
    8880022    1    1    2    0    0  0.58318356923E+02 -0.40458404741E+02  0.17049945113E+03  0.23979080282E+03  0.15294330000E+03 0.  0.
    8880022    1    1    2    0    0 -0.58318356923E+02  0.40458404741E+02 -0.67503754200E+03  0.69577672381E+03  0.15294330000E+03 0. -1.
<mgrwt>
<rscale>  0 0.16861069E+03</rscale>
<asrwt>0</asrwt>
<pdfrwt beam="1">  1        1 0.11077735E+00 0.16861069E+03</pdfrwt>
<pdfrwt beam="2">  1       -1 0.33156111E-01 0.16861069E+03</pdfrwt>
<totfact> 0.23845554E+02</totfact>
</mgrwt>
</event>
<event>
 4    1  0.2731969E-009  0.1201194E+04  0.7818608E-02  0.9111812E-01
          1   -1    0    0  501    0  0.00000000000E+00  0.00000000000E+00  0.13335123579E+04  0.13335123579E+04  0.50400000000E-02 0. -1.
         -1   -1    0    0    0  501 -0.00000000000E+00 -0.00000000000E+00 -0.24262846774E+04  0.24262846774E+04  0.50400000000E-02 0.  1.
    8880022    1    1    2    0    0  0.61965376258E+03 -0.10175970803E+04  0.85290612304E+03  0.14731989380E+04  0.15294330000E+03 0.  0.
    8880022    1    1    2    0    0 -0.61965376258E+03  0.10175970803E+04 -0.19456784425E+04  0.22865980972E+04  0.15294330000E+03 0.  0.
<mgrwt>
<rscale>  0 0.12011937E+04</rscale>
<asrwt>0</asrwt>
<pdfrwt beam="1">  1        1 0.20515575E+00 0.12011937E+04</pdfrwt>
<pdfrwt beam="2">  1       -1 0.37327456E+00 0.12011937E+04</pdfrwt>
<totfact> 0.91992753E-02</totfact>
</mgrwt>
</event>
<event>
 4    1  0.2731969E-009  0.1105711E+04  0.7818608E-02  0.9199643E-01
         -1   -1    0    0    0  501 -0.00000000000E+00  0.00000000000E+00  0.64178196183E+03  0.64178196185E+03  0.50400000000E-02 0.  1.
          1   -1    0    0  501    0  0.00000000000E+00 -0.00000000000E+00 -0.27613705170E+04  0.27613705170E+04  0.50400000000E-02 0. -1.
    8880022    1    1    2    0    0 -0.61869256391E+03  0.90356252408E+03 -0.20073807277E+04  0.22917623704E+04  0.15294330000E+03 0.  0.
    8880022    1    1    2    0    0  0.61869256391E+03 -0.90356252408E+03 -0.11220782748E+03  0.11113901084E+04  0.15294330000E+03 0.  0.
<mgrwt>
<rscale>  0 0.11057113E+04</rscale>
<asrwt>0</asrwt>
<pdfrwt beam="1">  1        1 0.42482623E+00 0.11057113E+04</pdfrwt>
<pdfrwt beam="2">  1       -1 0.98735688E-01 0.11057113E+04</pdfrwt>
<totfact> 0.87690363E-01</totfact>
</mgrwt>
</event>
<event>
 4    1  0.2731969E-009  0.4757796E+03  0.7818608E-02  0.1020302E+00
          1   -1    0    0  501    0  0.00000000000E+00  0.00000000000E+00  0.67596265664E+03  0.67596265666E+03  0.50400000000E-02 0. -1.
         -1   -1    0    0    0  501 -0.00000000000E+00 -0.00000000000E+00 -0.82314229856E+03  0.82314229858E+03  0.50400000000E-02 0.  1.
    8880022    1    1    2    0    0 -0.39791923985E+03 -0.21126965616E+03  0.50369650047E+03  0.69287546259E+03  0.15294330000E+03 0. -1.
    8880022    1    1    2    0    0  0.39791923985E+03  0.21126965616E+03 -0.65087614239E+03  0.80622949264E+03  0.15294330000E+03 0.  0.
<mgrwt>
<rscale>  0 0.47577962E+03</rscale>
<asrwt>0</asrwt>
<pdfrwt beam="1">  1        1 0.10399426E+00 0.47577962E+03</pdfrwt>
<pdfrwt beam="2">  1       -1 0.12663728E+00 0.47577962E+03</pdfrwt>
<totfact> 0.16656048E+01</totfact>
</mgrwt>
</event>
<event>
 4    1  0.2731969E-009  0.6867884E+03  0.7818608E-02  0.9740096E-01
         -1   -1    0    0    0  501 -0.00000000000E+00  0.00000000000E+00  0.19882542283E+04  0.19882542283E+04  0.50400000000E-02 0.  1.
          1   -1    0    0  501    0  0.00000000000E+00 -0.00000000000E+00 -0.40586385717E+03  0.40586385720E+03  0.50400000000E-02 0. -1.
    8880022    1    1    2    0    0  0.66685022452E+03 -0.59978895998E+02  0.15627995325E+04  0.17070502985E+04  0.15294330000E+03 0.  0.
    8880022    1    1    2    0    0 -0.66685022452E+03  0.59978895998E+02  0.19590838617E+02  0.68706778696E+03  0.15294330000E+03 0.  0.
<mgrwt>
<rscale>  0 0.68678843E+03</rscale>
<asrwt>0</asrwt>
<pdfrwt beam="1">  1        1 0.62440595E-01 0.68678843E+03</pdfrwt>
<pdfrwt beam="2">  1       -1 0.30588526E+00 0.68678843E+03</pdfrwt>
<totfact> 0.18943607E+00</totfact>
</mgrwt>
</event>
<event>
 4    1  0.2731969E-009  0.4326262E+03  0.7818608E-02  0.1033034E+00
          1   -1    0    0  501    0  0.00000000000E+00  0.00000000000E+00  0.20310262270E+04  0.20310262270E+04  0.50400000000E-02 0. -1.
         -1   -1    0    0    0  501 -0.00000000000E+00 -0.00000000000E+00 -0.25025961491E+03  0.25025961496E+03  0.50400000000E-02 0.  1.
    8880022    1    1    2    0    0 -0.34305720126E+03  0.21467536231E+03  0.17970114079E+04  0.18483547840E+04  0.15294330000E+03 0.  0.
    8880022    1    1    2    0    0  0.34305720126E+03 -0.21467536231E+03 -0.16244795804E+02  0.43293105793E+03  0.15294330000E+03 0.  0.
<mgrwt>
<rscale>  0 0.43262618E+03</rscale>
<asrwt>0</asrwt>
<pdfrwt beam="1">  1        1 0.31246556E+00 0.43262618E+03</pdfrwt>
<pdfrwt beam="2">  1       -1 0.38501481E-01 0.43262618E+03</pdfrwt>
<totfact> 0.20488270E+01</totfact>
</mgrwt>
</event>
<event>
 4    1  0.2731969E-009  0.4026008E+03  0.7818608E-02  0.1042883E+00
         -1   -1    0    0    0  501 -0.00000000000E+00  0.00000000000E+00  0.12923604822E+03  0.12923604832E+03  0.50400000000E-02 0.  1.
          1   -1    0    0  501    0  0.00000000000E+00 -0.00000000000E+00 -0.29706092727E+04  0.29706092728E+04  0.50400000000E-02 0. -1.
    8880022    1    1    2    0    0  0.25176756557E+03 -0.27442450284E+03 -0.25988300307E+04  0.26298298227E+04  0.15294330000E+03 0.  0.
    8880022    1    1    2    0    0 -0.25176756557E+03  0.27442450284E+03 -0.24254319383E+03  0.47001549839E+03  0.15294330000E+03 0.  0.
<mgrwt>
<rscale>  0 0.40260075E+03</rscale>
<asrwt>0</asrwt>
<pdfrwt beam="1">  1        1 0.45701676E+00 0.40260075E+03</pdfrwt>
<pdfrwt beam="2">  1       -1 0.19882471E-01 0.40260075E+03</pdfrwt>
<totfact> 0.14816041E+01</totfact>
</mgrwt>
</event>
<event>
 4    1  0.2731969E-009  0.4123873E+03  0.7818608E-02  0.1039573E+00
          1   -1    0    0  501    0  0.00000000000E+00  0.00000000000E+00  0.60487255121E+03  0.60487255123E+03  0.50400000000E-02 0. -1.
         -1   -1    0    0    0  501 -0.00000000000E+00 -0.00000000000E+00 -0.76148771444E+03  0.76148771445E+03  0.50400000000E-02 0.  1.
    8880022    1    1    2    0    0 -0.37675386291E+03 -0.68761775654E+02  0.46428591950E+03  0.62098689444E+03  0.15294330000E+03 0.  0.
    8880022    1    1    2    0    0  0.37675386291E+03  0.68761775654E+02 -0.62090108273E+03  0.74537337124E+03  0.15294330000E+03 0.  0.
<mgrwt>
<rscale>  0 0.41238733E+03</rscale>
<asrwt>0</asrwt>
<pdfrwt beam="1">  1        1 0.93057316E-01 0.41238733E+03</pdfrwt>
<pdfrwt beam="2">  1       -1 0.11715196E+00 0.41238733E+03</pdfrwt>
<totfact> 0.23916389E+01</totfact>
</mgrwt>
</event>
<event>
 4    1  0.2731969E-009  0.1609136E+04  0.7818608E-02  0.8814955E-01
          1   -1    0    0  501    0  0.00000000000E+00  0.00000000000E+00  0.36030628193E+04  0.36030628193E+04  0.50400000000E-02 0. -1.
         -1   -1    0    0    0  501 -0.00000000000E+00 -0.00000000000E+00 -0.79941855370E+03  0.79941855371E+03  0.50400000000E-02 0.  1.
    8880022    1    1    2    0    0  0.12608773442E+04  0.98798625587E+03  0.70211357678E+03  0.17556433712E+04  0.15294330000E+03 0.  0.
    8880022    1    1    2    0    0 -0.12608773442E+04 -0.98798625587E+03  0.21015306889E+04  0.26468380019E+04  0.15294330000E+03 0.  0.
<mgrwt>
<rscale>  0 0.16091365E+04</rscale>
<asrwt>0</asrwt>
<pdfrwt beam="1">  1        1 0.55431736E+00 0.16091365E+04</pdfrwt>
<pdfrwt beam="2">  1       -1 0.12298747E+00 0.16091365E+04</pdfrwt>
<totfact> 0.11419826E-01</totfact>
</mgrwt>
</event>
<event>
 4    1  0.2731969E-009  0.4069182E+03  0.7818608E-02  0.1041410E+00
          1   -1    0    0  501    0  0.00000000000E+00  0.00000000000E+00  0.15649001341E+04  0.15649001341E+04  0.50400000000E-02 0. -1.
         -1   -1    0    0    0  501 -0.00000000000E+00 -0.00000000000E+00 -0.24247933673E+03  0.24247933679E+03  0.50400000000E-02 0.  1.
    8880022    1    1    2    0    0 -0.16458204151E+03 -0.33926905358E+03 -0.17238608727E+02  0.40728314690E+03  0.15294330000E+03 0.  0.
    8880022    1    1    2    0    0  0.16458204151E+03  0.33926905358E+03  0.13396594061E+04  0.14000963240E+04  0.15294330000E+03 0.  0.
<mgrwt>
<rscale>  0 0.40691816E+03</rscale>
<asrwt>0</asrwt>
<pdfrwt beam="1">  1        1 0.24075386E+00 0.40691816E+03</pdfrwt>
<pdfrwt beam="2">  1       -1 0.37304515E-01 0.40691816E+03</pdfrwt>
<totfact> 0.44314734E+01</totfact>
</mgrwt>
</event>
<event>
 4    1  0.2731969E-009  0.6280226E+03  0.7818608E-02  0.9848915E-01
         -1   -1    0    0    0  501 -0.00000000000E+00  0.00000000000E+00  0.77797052982E+03  0.77797052983E+03  0.50400000000E-02 0.  1.
          1   -1    0    0  501    0  0.00000000000E+00 -0.00000000000E+00 -0.14048802575E+04  0.14048802576E+04  0.50400000000E-02 0. -1.
    8880022    1    1    2    0    0 -0.26350503120E+02  0.60854446104E+03 -0.11860030545E+04  0.13420192281E+04  0.15294330000E+03 0.  0.
    8880022    1    1    2    0    0  0.26350503120E+02 -0.60854446104E+03  0.55909332680E+03  0.84083155933E+03  0.15294330000E+03 0.  1.
<mgrwt>
<rscale>  0 0.62802258E+03</rscale>
<asrwt>0</asrwt>
<pdfrwt beam="1">  1        1 0.21613542E+00 0.62802258E+03</pdfrwt>
<pdfrwt beam="2">  1       -1 0.11968777E+00 0.62802258E+03</pdfrwt>
<totfact> 0.50527146E+00</totfact>
</mgrwt>
</event>
<event>
 4    1  0.2731969E-009  0.1239117E+04  0.7818608E-02  0.9079290E-01
          1   -1    0    0  501    0  0.00000000000E+00  0.00000000000E+00  0.17122632751E+04  0.17122632751E+04  0.50400000000E-02 0. -1.
         -1   -1    0    0    0  501 -0.00000000000E+00 -0.00000000000E+00 -0.22554179604E+04  0.22554179604E+04  0.50400000000E-02 0.  1.
    8880022    1    1    2    0    0  0.12089405983E+04  0.22468062006E+03 -0.18113467463E+04  0.21946269477E+04  0.15294330000E+03 0.  0.
    8880022    1    1    2    0    0 -0.12089405983E+04 -0.22468062006E+03  0.12681920610E+04  0.17730542879E+04  0.15294330000E+03 0.  0.
<mgrwt>
<rscale>  0 0.12391168E+04</rscale>
<asrwt>0</asrwt>
<pdfrwt beam="1">  1        1 0.26342512E+00 0.12391168E+04</pdfrwt>
<pdfrwt beam="2">  1       -1 0.34698738E+00 0.12391168E+04</pdfrwt>
<totfact> 0.74668165E-02</totfact>
</mgrwt>
</event>
<event>
 4    1  0.2731969E-009  0.6183999E+03  0.7818608E-02  0.9867951E-01
         -1   -1    0    0    0  501 -0.00000000000E+00  0.00000000000E+00  0.10427052533E+04  0.10427052533E+04  0.50400000000E-02 0.  1.
          1   -1    0    0  501    0  0.00000000000E+00 -0.00000000000E+00 -0.43296140325E+03  0.43296140328E+03  0.50400000000E-02 0. -1.
    8880022    1    1    2    0    0 -0.16234563946E+03  0.57677614169E+03  0.59339475057E+03  0.85705064454E+03  0.15294330000E+03 0.  0.
    8880022    1    1    2    0    0  0.16234563946E+03 -0.57677614169E+03  0.16349099449E+02  0.61861601203E+03  0.15294330000E+03 0.  0.
<mgrwt>
<rscale>  0 0.61839993E+03</rscale>
<asrwt>0</asrwt>
<pdfrwt beam="1">  1        1 0.66609446E-01 0.61839993E+03</pdfrwt>
<pdfrwt beam="2">  1       -1 0.16041619E+00 0.61839993E+03</pdfrwt>
<totfact> 0.16339694E+01</totfact>
</mgrwt>
</event>
<event>
 4    1  0.2731969E-009  0.6761367E+03  0.7818608E-02  0.9758935E-01
         -1   -1    0    0    0  501 -0.00000000000E+00  0.00000000000E+00  0.62616027725E+03  0.62616027727E+03  0.50400000000E-02 0.  1.
          1   -1    0    0  501    0  0.00000000000E+00 -0.00000000000E+00 -0.10195749257E+04  0.10195749258E+04  0.50400000000E-02 0. -1.
    8880022    1    1    2    0    0 -0.15118916001E+03  0.64102336519E+03  0.24174712993E+03  0.71805462513E+03  0.15294330000E+03 0.  0.
    8880022    1    1    2    0    0  0.15118916001E+03 -0.64102336519E+03 -0.63516177842E+03  0.92768057789E+03  0.15294330000E+03 0.  0.
<mgrwt>
<rscale>  0 0.67613665E+03</rscale>
<asrwt>0</asrwt>
<pdfrwt beam="1">  1        1 0.15685768E+00 0.67613665E+03</pdfrwt>
<pdfrwt beam="2">  1       -1 0.96332351E-01 0.67613665E+03</pdfrwt>
<totfact> 0.15777566E+01</totfact>
</mgrwt>
</event>
<event>
 4    1  0.2731969E-009  0.1721581E+03  0.7818608E-02  0.1175616E+00
          1   -1    0    0  501    0  0.00000000000E+00  0.00000000000E+00  0.22302654658E+04  0.22302654658E+04  0.50400000000E-02 0. -1.
         -1   -1    0    0    0  501 -0.00000000000E+00 -0.00000000000E+00 -0.40047260545E+03  0.40047260548E+03  0.50400000000E-02 0.  1.
    8880022    1    1    2    0    0 -0.13826873678E+02  0.77817486579E+02  0.22082569119E+04  0.22149575584E+04  0.15294330000E+03 0.  0.
    8880022    1    1    2    0    0  0.13826873678E+02 -0.77817486579E+02 -0.37846405148E+03  0.41578051293E+03  0.15294330000E+03 0.  1.
<mgrwt>
<rscale>  0 0.17215806E+03</rscale>
<asrwt>0</asrwt>
<pdfrwt beam="1">  1        1 0.34311776E+00 0.17215806E+03</pdfrwt>
<pdfrwt beam="2">  1       -1 0.61611170E-01 0.17215806E+03</pdfrwt>
<totfact> 0.71508794E+00</totfact>
</mgrwt>
</event>
<event>
 4    1  0.2731969E-009  0.5430693E+03  0.7818608E-02  0.1003111E+00
          1   -1    0    0  501    0  0.00000000000E+00  0.00000000000E+00  0.73294810737E+03  0.73294810739E+03  0.50400000000E-02 0. -1.
         -1   -1    0    0    0  501 -0.00000000000E+00 -0.00000000000E+00 -0.80339603486E+03  0.80339603487E+03  0.50400000000E-02 0.  1.
    8880022    1    1    2    0    0  0.28593113987E+03  0.43563291244E+03  0.50749383430E+03  0.74328614680E+03  0.15294330000E+03 0.  0.
    8880022    1    1    2    0    0 -0.28593113987E+03 -0.43563291244E+03 -0.57794176178E+03  0.79305799547E+03  0.15294330000E+03 0.  0.
<mgrwt>
<rscale>  0 0.54306934E+03</rscale>
<asrwt>0</asrwt>
<pdfrwt beam="1">  1        1 0.11276125E+00 0.54306934E+03</pdfrwt>
<pdfrwt beam="2">  1       -1 0.12359939E+00 0.54306934E+03</pdfrwt>
<totfact> 0.15476182E+01</totfact>
</mgrwt>
</event>
<event>
 4    1  0.2731969E-009  0.9041647E+03  0.7818608E-02  0.9420390E-01
         -1   -1    0    0    0  501 -0.00000000000E+00  0.00000000000E+00  0.42636805803E+03  0.42636805806E+03  0.50400000000E-02 0.  1.
          1   -1    0    0  501    0  0.00000000000E+00 -0.00000000000E+00 -0.37105543641E+04  0.37105543641E+04  0.50400000000E-02 0. -1.
    8880022    1    1    2    0    0  0.67752864343E+03 -0.57885848618E+03 -0.30800240915E+04  0.32099941226E+04  0.15294330000E+03 0.  0.
    8880022    1    1    2    0    0 -0.67752864343E+03  0.57885848618E+03 -0.20416221456E+03  0.92692829958E+03  0.15294330000E+03 0.  0.
<mgrwt>
<rscale>  0 0.90416473E+03</rscale>
<asrwt>0</asrwt>
<pdfrwt beam="1">  1        1 0.57085450E+00 0.90416473E+03</pdfrwt>
<pdfrwt beam="2">  1       -1 0.65595088E-01 0.90416473E+03</pdfrwt>
<totfact> 0.42439724E-01</totfact>
</mgrwt>
</event>
<event>
 4    1  0.2731969E-009  0.9034001E+03  0.7818608E-02  0.9421341E-01
          1   -1    0    0  501    0  0.00000000000E+00  0.00000000000E+00  0.36192121581E+04  0.36192121581E+04  0.50400000000E-02 0. -1.
         -1   -1    0    0    0  501 -0.00000000000E+00 -0.00000000000E+00 -0.50209094645E+03  0.50209094647E+03  0.50400000000E-02 0.  1.
    8880022    1    1    2    0    0 -0.88724791231E+03  0.74371678372E+02  0.29120430643E+02  0.90386926983E+03  0.15294330000E+03 0.  0.
    8880022    1    1    2    0    0  0.88724791231E+03 -0.74371678372E+02  0.30880007810E+04  0.32174338347E+04  0.15294330000E+03 0.  0.
<mgrwt>
<rscale>  0 0.90340005E+03</rscale>
<asrwt>0</asrwt>
<pdfrwt beam="1">  1        1 0.55680187E+00 0.90340005E+03</pdfrwt>
<pdfrwt beam="2">  1       -1 0.77244761E-01 0.90340005E+03</pdfrwt>
<totfact> 0.35856970E-01</totfact>
</mgrwt>
</event>
<event>
 4    1  0.2731969E-009  0.6600474E+03  0.7818608E-02  0.9788107E-01
          1   -1    0    0  501    0  0.00000000000E+00  0.00000000000E+00  0.99244547238E+03  0.99244547240E+03  0.50400000000E-02 0. -1.
         -1   -1    0    0    0  501 -0.00000000000E+00 -0.00000000000E+00 -0.17838999507E+04  0.17838999507E+04  0.50400000000E-02 0.  1.
    8880022    1    1    2    0    0  0.41120917719E+03  0.49313072940E+03 -0.16010591716E+04  0.17317774186E+04  0.15294330000E+03 0.  0.
    8880022    1    1    2    0    0 -0.41120917719E+03 -0.49313072940E+03  0.80960469325E+03  0.10445680045E+04  0.15294330000E+03 0.  0.
<mgrwt>
<rscale>  0 0.66004739E+03</rscale>
<asrwt>0</asrwt>
<pdfrwt beam="1">  1        1 0.15268392E+00 0.66004739E+03</pdfrwt>
<pdfrwt beam="2">  1       -1 0.27444615E+00 0.66004739E+03</pdfrwt>
<totfact> 0.79909903E-01</totfact>
</mgrwt>
</event>
<event>
 4    1  0.2731969E-009  0.2450969E+03  0.7818608E-02  0.1116443E+00
          1   -1    0    0  501    0  0.00000000000E+00  0.00000000000E+00  0.11237912266E+04  0.11237912266E+04  0.50400000000E-02 0. -1.
         -1   -1    0    0    0  501 -0.00000000000E+00 -0.00000000000E+00 -0.22154380964E+03  0.22154380970E+03  0.50400000000E-02 0.  1.
    8880022    1    1    2    0    0 -0.15279837097E+03  0.11547075802E+03  0.10370456778E+04  0.10656154226E+04  0.15294330000E+03 0.  0.
    8880022    1    1    2    0    0  0.15279837097E+03 -0.11547075802E+03 -0.13479826084E+03  0.27971961367E+03  0.15294330000E+03 0.  0.
<mgrwt>
<rscale>  0 0.24509690E+03</rscale>
<asrwt>0</asrwt>
<pdfrwt beam="1">  1        1 0.17289096E+00 0.24509690E+03</pdfrwt>
<pdfrwt beam="2">  1       -1 0.34083663E-01 0.24509690E+03</pdfrwt>
<totfact> 0.10823094E+02</totfact>
</mgrwt>
</event>
<event>
 4    1  0.2731969E-009  0.6040168E+03  0.7818608E-02  0.9897107E-01
          1   -1    0    0  501    0  0.00000000000E+00  0.00000000000E+00  0.55537983799E+03  0.55537983802E+03  0.50400000000E-02 0. -1.
         -1   -1    0    0    0  501 -0.00000000000E+00 -0.00000000000E+00 -0.12137490581E+04  0.12137490581E+04  0.50400000000E-02 0.  1.
    8880022    1    1    2    0    0 -0.58217082158E+03  0.50217380818E+02 -0.92832507859E+03  0.11075304761E+04  0.15294330000E+03 0.  0.
    8880022    1    1    2    0    0  0.58217082158E+03 -0.50217380818E+02  0.26995585852E+03  0.66159842004E+03  0.15294330000E+03 0. -1.
<mgrwt>
<rscale>  0 0.60401681E+03</rscale>
<asrwt>0</asrwt>
<pdfrwt beam="1">  1        1 0.85443052E-01 0.60401681E+03</pdfrwt>
<pdfrwt beam="2">  1       -1 0.18673062E+00 0.60401681E+03</pdfrwt>
<totfact> 0.75271814E+00</totfact>
</mgrwt>
</event>
<event>
 4    1  0.2731969E-009  0.1529139E+04  0.7818608E-02  0.8865304E-01
         -1   -1    0    0    0  501 -0.00000000000E+00  0.00000000000E+00  0.12842146271E+04  0.12842146271E+04  0.50400000000E-02 0.  1.
          1   -1    0    0  501    0  0.00000000000E+00 -0.00000000000E+00 -0.19521474754E+04  0.19521474754E+04  0.50400000000E-02 0. -1.
    8880022    1    1    2    0    0 -0.15196582451E+04 -0.74248519260E+02 -0.75374789192E+03  0.17048171638E+04  0.15294330000E+03 0.  0.
    8880022    1    1    2    0    0  0.15196582451E+04  0.74248519260E+02  0.85815043635E+02  0.15315449387E+04  0.15294330000E+03 0.  0.
<mgrwt>
<rscale>  0 0.15291389E+04</rscale>
<asrwt>0</asrwt>
<pdfrwt beam="1">  1        1 0.30033038E+00 0.15291389E+04</pdfrwt>
<pdfrwt beam="2">  1       -1 0.19757148E+00 0.15291389E+04</pdfrwt>
<totfact> 0.47361056E-01</totfact>
</mgrwt>
</event>
<event>
 4    1  0.2731969E-009  0.5279574E+03  0.7818608E-02  0.1006729E+00
          1   -1    0    0  501    0  0.00000000000E+00  0.00000000000E+00  0.29107420061E+04  0.29107420061E+04  0.50400000000E-02 0. -1.
         -1   -1    0    0    0  501 -0.00000000000E+00 -0.00000000000E+00 -0.22933217623E+03  0.22933217628E+03  0.50400000000E-02 0.  1.
    8880022    1    1    2    0    0 -0.40912974653E+03 -0.29658081778E+03  0.14249783305E+03  0.54684972014E+03  0.15294330000E+03 0.  0.
    8880022    1    1    2    0    0  0.40912974653E+03  0.29658081778E+03  0.25389119968E+04  0.25932244623E+04  0.15294330000E+03 0.  0.
<mgrwt>
<rscale>  0 0.52795737E+03</rscale>
<asrwt>0</asrwt>
<pdfrwt beam="1">  1        1 0.44780648E+00 0.52795737E+03</pdfrwt>
<pdfrwt beam="2">  1       -1 0.35281872E-01 0.52795737E+03</pdfrwt>
<totfact> 0.59327824E+00</totfact>
</mgrwt>
</event>
<event>
 4    1  0.2731969E-009  0.2130047E+03  0.7818608E-02  0.1139208E+00
          1   -1    0    0  501    0  0.00000000000E+00  0.00000000000E+00  0.28001525982E+03  0.28001525987E+03  0.50400000000E-02 0. -1.
         -1   -1    0    0    0  501 -0.00000000000E+00 -0.00000000000E+00 -0.43482604880E+03  0.43482604883E+03  0.50400000000E-02 0.  1.
    8880022    1    1    2    0    0  0.14630532049E+03 -0.23960431945E+02 -0.36050583069E+03  0.41873076802E+03  0.15294330000E+03 0.  0.
    8880022    1    1    2    0    0 -0.14630532049E+03  0.23960431945E+02  0.20569504171E+03  0.29611054068E+03  0.15294330000E+03 0. -1.
<mgrwt>
<rscale>  0 0.21300470E+03</rscale>
<asrwt>0</asrwt>
<pdfrwt beam="1">  1        1 0.43079271E-01 0.21300470E+03</pdfrwt>
<pdfrwt beam="2">  1       -1 0.66896315E-01 0.21300470E+03</pdfrwt>
<totfact> 0.22756585E+02</totfact>
</mgrwt>
</event>
<event>
 4    1  0.2731969E-009  0.6109235E+03  0.7818608E-02  0.9882999E-01
         -1   -1    0    0    0  501 -0.00000000000E+00  0.00000000000E+00  0.70132876457E+03  0.70132876459E+03  0.50400000000E-02 0.  1.
          1   -1    0    0  501    0  0.00000000000E+00 -0.00000000000E+00 -0.12098150082E+04  0.12098150082E+04  0.50400000000E-02 0. -1.
    8880022    1    1    2    0    0  0.29172738570E+03 -0.51452011072E+03  0.46091881408E+03  0.76529315827E+03  0.15294330000E+03 0.  0.
    8880022    1    1    2    0    0 -0.29172738570E+03  0.51452011072E+03 -0.96940505774E+03  0.11458506146E+04  0.15294330000E+03 0.  0.
<mgrwt>
<rscale>  0 0.61092345E+03</rscale>
<asrwt>0</asrwt>
<pdfrwt beam="1">  1        1 0.18612539E+00 0.61092345E+03</pdfrwt>
<pdfrwt beam="2">  1       -1 0.10789673E+00 0.61092345E+03</pdfrwt>
<totfact> 0.88923741E+00</totfact>
</mgrwt>
</event>
<event>
 4    1  0.2731969E-009  0.9258283E+03  0.7818608E-02  0.9393859E-01
          1   -1    0    0  501    0  0.00000000000E+00  0.00000000000E+00  0.27475482549E+04  0.27475482549E+04  0.50400000000E-02 0. -1.
         -1   -1    0    0    0  501 -0.00000000000E+00 -0.00000000000E+00 -0.64953974471E+03  0.64953974473E+03  0.50400000000E-02 0.  1.
    8880022    1    1    2    0    0  0.42913035046E+03 -0.80598606901E+03  0.22734919462E+04  0.24547756891E+04  0.15294330000E+03 0.  0.
    8880022    1    1    2    0    0 -0.42913035046E+03  0.80598606901E+03 -0.17548343610E+03  0.94231231048E+03  0.15294330000E+03 0.  0.
<mgrwt>
<rscale>  0 0.92582831E+03</rscale>
<asrwt>0</asrwt>
<pdfrwt beam="1">  1        1 0.42269973E+00 0.92582831E+03</pdfrwt>
<pdfrwt beam="2">  1       -1 0.99929191E-01 0.92582831E+03</pdfrwt>
<totfact> 0.89836389E-01</totfact>
</mgrwt>
</event>
<event>
 4    1  0.2731969E-009  0.9064262E+03  0.7818608E-02  0.9417584E-01
         -1   -1    0    0    0  501 -0.00000000000E+00  0.00000000000E+00  0.57511886723E+03  0.57511886725E+03  0.50400000000E-02 0.  1.
          1   -1    0    0  501    0  0.00000000000E+00 -0.00000000000E+00 -0.19358551746E+04  0.19358551746E+04  0.50400000000E-02 0. -1.
    8880022    1    1    2    0    0 -0.76889265268E+03  0.45499551870E+03 -0.13230466194E+04  0.16037645848E+04  0.15294330000E+03 0.  1.
    8880022    1    1    2    0    0  0.76889265268E+03 -0.45499551870E+03 -0.37689687986E+02  0.90720945706E+03  0.15294330000E+03 0.  0.
<mgrwt>
<rscale>  0 0.90642622E+03</rscale>
<asrwt>0</asrwt>
<pdfrwt beam="1">  1        1 0.29782387E+00 0.90642622E+03</pdfrwt>
<pdfrwt beam="2">  1       -1 0.88479826E-01 0.90642622E+03</pdfrwt>
<totfact> 0.42287796E+00</totfact>
</mgrwt>
</event>
<event>
 4    1  0.2731969E-009  0.8256468E+03  0.7818608E-02  0.9523619E-01
         -1   -1    0    0    0  501 -0.00000000000E+00  0.00000000000E+00  0.49867517896E+03  0.49867517899E+03  0.50400000000E-02 0.  1.
          1   -1    0    0  501    0  0.00000000000E+00 -0.00000000000E+00 -0.16089443067E+04  0.16089443067E+04  0.50400000000E-02 0. -1.
    8880022    1    1    2    0    0 -0.59208070478E+03 -0.55474453828E+03 -0.14649288180E+03  0.83854211651E+03  0.15294330000E+03 0.  0.
    8880022    1    1    2    0    0  0.59208070478E+03  0.55474453828E+03 -0.96377624594E+03  0.12690773692E+04  0.15294330000E+03 0.  0.
<mgrwt>
<rscale>  0 0.82564685E+03</rscale>
<asrwt>0</asrwt>
<pdfrwt beam="1">  1        1 0.24752989E+00 0.82564685E+03</pdfrwt>
<pdfrwt beam="2">  1       -1 0.76719259E-01 0.82564685E+03</pdfrwt>
<totfact> 0.96495047E+00</totfact>
</mgrwt>
</event>
<event>
 4    1  0.2731969E-009  0.6755141E+03  0.7818608E-02  0.9760048E-01
          1   -1    0    0  501    0  0.00000000000E+00  0.00000000000E+00  0.25800668708E+04  0.25800668708E+04  0.50400000000E-02 0. -1.
         -1   -1    0    0    0  501 -0.00000000000E+00 -0.00000000000E+00 -0.41497832469E+03  0.41497832472E+03  0.50400000000E-02 0.  1.
    8880022    1    1    2    0    0 -0.41940158699E+03  0.50698116739E+03 -0.51823918242E+02  0.67749905297E+03  0.15294330000E+03 0.  0.
    8880022    1    1    2    0    0  0.41940158699E+03 -0.50698116739E+03  0.22169124644E+04  0.23175461426E+04  0.15294330000E+03 0.  0.
<mgrwt>
<rscale>  0 0.67551406E+03</rscale>
<asrwt>0</asrwt>
<pdfrwt beam="1">  1        1 0.39693337E+00 0.67551406E+03</pdfrwt>
<pdfrwt beam="2">  1       -1 0.63842819E-01 0.67551406E+03</pdfrwt>
<totfact> 0.32001516E+00</totfact>
</mgrwt>
</event>
<event>
 4    1  0.2731969E-009  0.1305546E+04  0.7818608E-02  0.9025178E-01
          1   -1    0    0  501    0  0.00000000000E+00  0.00000000000E+00  0.22288761017E+04  0.22288761017E+04  0.50400000000E-02 0. -1.
         -1   -1    0    0    0  501 -0.00000000000E+00 -0.00000000000E+00 -0.16523295210E+04  0.16523295210E+04  0.50400000000E-02 0.  1.
    8880022    1    1    2    0    0 -0.41198311402E+03 -0.12293613980E+04 -0.11340585808E+04  0.17293177992E+04  0.15294330000E+03 0.  0.
    8880022    1    1    2    0    0  0.41198311402E+03  0.12293613980E+04  0.17106051615E+04  0.21518878234E+04  0.15294330000E+03 0.  0.
<mgrwt>
<rscale>  0 0.13055463E+04</rscale>
<asrwt>0</asrwt>
<pdfrwt beam="1">  1        1 0.34290401E+00 0.13055463E+04</pdfrwt>
<pdfrwt beam="2">  1       -1 0.25420454E+00 0.13055463E+04</pdfrwt>
<totfact> 0.13198296E-01</totfact>
</mgrwt>
</event>
<event>
 4    1  0.2731969E-009  0.1506483E+04  0.7818608E-02  0.8880153E-01
          1   -1    0    0  501    0  0.00000000000E+00  0.00000000000E+00  0.95863345995E+03  0.95863345996E+03  0.50400000000E-02 0. -1.
         -1   -1    0    0    0  501 -0.00000000000E+00 -0.00000000000E+00 -0.26215764253E+04  0.26215764253E+04  0.50400000000E-02 0.  1.
    8880022    1    1    2    0    0 -0.13270897037E+04  0.69637070223E+03 -0.27409938408E+03  0.15312156484E+04  0.15294330000E+03 0.  0.
    8880022    1    1    2    0    0  0.13270897037E+04 -0.69637070223E+03 -0.13888435813E+04  0.20489942369E+04  0.15294330000E+03 0.  0.
<mgrwt>
<rscale>  0 0.15064830E+04</rscale>
<asrwt>0</asrwt>
<pdfrwt beam="1">  1        1 0.14748207E+00 0.15064830E+04</pdfrwt>
<pdfrwt beam="2">  1       -1 0.40331945E+00 0.15064830E+04</pdfrwt>
<totfact> 0.10551521E-01</totfact>
</mgrwt>
</event>
<event>
 4    1  0.2731969E-009  0.4393856E+03  0.7818608E-02  0.1030935E+00
          1   -1    0    0  501    0  0.00000000000E+00  0.00000000000E+00  0.20759321187E+04  0.20759321187E+04  0.50400000000E-02 0. -1.
         -1   -1    0    0    0  501 -0.00000000000E+00 -0.00000000000E+00 -0.40436722050E+03  0.40436722053E+03  0.50400000000E-02 0.  1.
    8880022    1    1    2    0    0 -0.40024921856E+03 -0.97306783170E+02  0.19240188355E+04  0.19735521730E+04  0.15294330000E+03 0.  0.
    8880022    1    1    2    0    0  0.40024921856E+03  0.97306783170E+02 -0.25245393734E+03  0.50674716625E+03  0.15294330000E+03 0.  0.
<mgrwt>
<rscale>  0 0.43938559E+03</rscale>
<asrwt>0</asrwt>
<pdfrwt beam="1">  1        1 0.31937416E+00 0.43938559E+03</pdfrwt>
<pdfrwt beam="2">  1       -1 0.62210344E-01 0.43938559E+03</pdfrwt>
<totfact> 0.77871562E+00</totfact>
</mgrwt>
</event>
<event>
 4    1  0.2731969E-009  0.1083506E+04  0.7818608E-02  0.9221418E-01
          1   -1    0    0  501    0  0.00000000000E+00  0.00000000000E+00  0.27599973299E+04  0.27599973299E+04  0.50400000000E-02 0. -1.
         -1   -1    0    0    0  501 -0.00000000000E+00 -0.00000000000E+00 -0.10736626019E+04  0.10736626019E+04  0.50400000000E-02 0.  1.
    8880022    1    1    2    0    0  0.10000961705E+04  0.38781694373E+03  0.23326633793E+04  0.25720234109E+04  0.15294330000E+03 0.  0.
    8880022    1    1    2    0    0 -0.10000961705E+04 -0.38781694373E+03 -0.64632865133E+03  0.12616365208E+04  0.15294330000E+03 0.  0.
<mgrwt>
<rscale>  0 0.10835063E+04</rscale>
<asrwt>0</asrwt>
<pdfrwt beam="1">  1        1 0.42461497E+00 0.10835063E+04</pdfrwt>
<pdfrwt beam="2">  1       -1 0.16517886E+00 0.10835063E+04</pdfrwt>
<totfact> 0.23966972E-01</totfact>
</mgrwt>
</event>
<event>
 4    1  0.2731969E-009  0.4708419E+03  0.7818608E-02  0.1021683E+00
          1   -1    0    0  501    0  0.00000000000E+00  0.00000000000E+00  0.22374839049E+04  0.22374839049E+04  0.50400000000E-02 0. -1.
         -1   -1    0    0    0  501 -0.00000000000E+00 -0.00000000000E+00 -0.19966582159E+03  0.19966582166E+03  0.50400000000E-02 0.  1.
    8880022    1    1    2    0    0 -0.44506593579E+03  0.14723326364E+02  0.15400764022E+03  0.49538921042E+03  0.15294330000E+03 0.  0.
    8880022    1    1    2    0    0  0.44506593579E+03 -0.14723326364E+02  0.18838104430E+04  0.19417605161E+04  0.15294330000E+03 0.  0.
<mgrwt>
<rscale>  0 0.47084192E+03</rscale>
<asrwt>0</asrwt>
<pdfrwt beam="1">  1        1 0.34422828E+00 0.47084192E+03</pdfrwt>
<pdfrwt beam="2">  1       -1 0.30717819E-01 0.47084192E+03</pdfrwt>
<totfact> 0.22056477E+01</totfact>
</mgrwt>
</event>
<event>
 4    1  0.2731969E-009  0.1464417E+04  0.7818608E-02  0.8908466E-01
          1   -1    0    0  501    0  0.00000000000E+00  0.00000000000E+00  0.16267313827E+04  0.16267313827E+04  0.50400000000E-02 0. -1.
         -1   -1    0    0    0  501 -0.00000000000E+00 -0.00000000000E+00 -0.21711764443E+04  0.21711764443E+04  0.50400000000E-02 0.  1.
    8880022    1    1    2    0    0 -0.95283437991E+03  0.11014684143E+04 -0.14623960584E+04  0.20695699814E+04  0.15294330000E+03 0.  0.
    8880022    1    1    2    0    0  0.95283437991E+03 -0.11014684143E+04  0.91795099672E+03  0.17283378456E+04  0.15294330000E+03 0.  0.
<mgrwt>
<rscale>  0 0.14644172E+04</rscale>
<asrwt>0</asrwt>
<pdfrwt beam="1">  1        1 0.25026637E+00 0.14644172E+04</pdfrwt>
<pdfrwt beam="2">  1       -1 0.33402715E+00 0.14644172E+04</pdfrwt>
<totfact> 0.10063174E-01</totfact>
</mgrwt>
</event>
<event>
 4    1  0.2731969E-009  0.1042970E+04  0.7818608E-02  0.9262632E-01
         -1   -1    0    0    0  501 -0.00000000000E+00  0.00000000000E+00  0.15221703556E+04  0.15221703556E+04  0.50400000000E-02 0.  1.
          1   -1    0    0  501    0  0.00000000000E+00 -0.00000000000E+00 -0.12762730043E+04  0.12762730043E+04  0.50400000000E-02 0. -1.
    8880022    1    1    2    0    0  0.15515949662E+03 -0.10199608375E+04 -0.80525976344E+03  0.13176606236E+04  0.15294330000E+03 0.  0.
    8880022    1    1    2    0    0 -0.15515949662E+03  0.10199608375E+04  0.10511571147E+04  0.14807827363E+04  0.15294330000E+03 0.  0.
<mgrwt>
<rscale>  0 0.10429699E+04</rscale>
<asrwt>0</asrwt>
<pdfrwt beam="1">  1        1 0.19634969E+00 0.10429699E+04</pdfrwt>
<pdfrwt beam="2">  1       -1 0.23418005E+00 0.10429699E+04</pdfrwt>
<totfact> 0.83438420E-01</totfact>
</mgrwt>
</event>
<event>
 4    1  0.2731969E-009  0.7345823E+03  0.7818608E-02  0.9659854E-01
         -1   -1    0    0    0  501 -0.00000000000E+00  0.00000000000E+00  0.15507903556E+04  0.15507903556E+04  0.50400000000E-02 0.  1.
          1   -1    0    0  501    0  0.00000000000E+00 -0.00000000000E+00 -0.82936626592E+03  0.82936626593E+03  0.50400000000E-02 0. -1.
    8880022    1    1    2    0    0  0.70460648665E+03  0.14053187178E+03  0.12674019170E+04  0.14648954844E+04  0.15294330000E+03 0.  0.
    8880022    1    1    2    0    0 -0.70460648665E+03 -0.14053187178E+03 -0.54597782739E+03  0.91526113707E+03  0.15294330000E+03 0. -1.
<mgrwt>
<rscale>  0 0.73458230E+03</rscale>
<asrwt>0</asrwt>
<pdfrwt beam="1">  1        1 0.12759481E+00 0.73458230E+03</pdfrwt>
<pdfrwt beam="2">  1       -1 0.23858313E+00 0.73458230E+03</pdfrwt>
<totfact> 0.18121225E+00</totfact>
</mgrwt>
</event>
<event>
 4    1  0.2731969E-009  0.2370271E+03  0.7818608E-02  0.1121789E+00
          1   -1    0    0  501    0  0.00000000000E+00  0.00000000000E+00  0.21709937812E+03  0.21709937818E+03  0.50400000000E-02 0. -1.
         -1   -1    0    0    0  501 -0.00000000000E+00 -0.00000000000E+00 -0.18775076385E+04  0.18775076385E+04  0.50400000000E-02 0.  1.
    8880022    1    1    2    0    0  0.16494349239E+03 -0.74725151696E+02 -0.18026558515E+04  0.18181721524E+04  0.15294330000E+03 0.  0.
    8880022    1    1    2    0    0 -0.16494349239E+03  0.74725151696E+02  0.14224759111E+03  0.27643486425E+03  0.15294330000E+03 0. -1.
<mgrwt>
<rscale>  0 0.23702712E+03</rscale>
<asrwt>0</asrwt>
<pdfrwt beam="1">  1        1 0.33399906E-01 0.23702712E+03</pdfrwt>
<pdfrwt beam="2">  1       -1 0.28884732E+00 0.23702712E+03</pdfrwt>
<totfact> 0.61306840E+00</totfact>
</mgrwt>
</event>
<event>
 4    1  0.2731969E-009  0.1650732E+04  0.7818608E-02  0.8789974E-01
          1   -1    0    0  501    0  0.00000000000E+00  0.00000000000E+00  0.34954993935E+04  0.34954993936E+04  0.50400000000E-02 0. -1.
         -1   -1    0    0    0  501 -0.00000000000E+00 -0.00000000000E+00 -0.12675946962E+04  0.12675946962E+04  0.50400000000E-02 0.  1.
    8880022    1    1    2    0    0  0.16190996702E+04  0.28291201000E+03 -0.36379097340E+03  0.16903427087E+04  0.15294330000E+03 0.  0.
    8880022    1    1    2    0    0 -0.16190996702E+04 -0.28291201000E+03  0.25916956707E+04  0.30727513811E+04  0.15294330000E+03 0.  0.
<mgrwt>
<rscale>  0 0.16507315E+04</rscale>
<asrwt>0</asrwt>
<pdfrwt beam="1">  1        1 0.53776914E+00 0.16507315E+04</pdfrwt>
<pdfrwt beam="2">  1       -1 0.19501457E+00 0.16507315E+04</pdfrwt>
<totfact> 0.38294616E-02</totfact>
</mgrwt>
</event>
<event>
 4    1  0.2731969E-009  0.1427006E+04  0.7818608E-02  0.8934499E-01
         -1   -1    0    0    0  501 -0.00000000000E+00  0.00000000000E+00  0.13753810886E+04  0.13753810886E+04  0.50400000000E-02 0.  1.
          1   -1    0    0  501    0  0.00000000000E+00 -0.00000000000E+00 -0.15633472022E+04  0.15633472022E+04  0.50400000000E-02 0. -1.
    8880022    1    1    2    0    0 -0.13950862320E+04 -0.25824450725E+03  0.24412697230E+03  0.14477380467E+04  0.15294330000E+03 0.  0.
    8880022    1    1    2    0    0  0.13950862320E+04  0.25824450725E+03 -0.43209308587E+03  0.14909902441E+04  0.15294330000E+03 0.  0.
<mgrwt>
<rscale>  0 0.14270065E+04</rscale>
<asrwt>0</asrwt>
<pdfrwt beam="1">  1        1 0.24051495E+00 0.14270065E+04</pdfrwt>
<pdfrwt beam="2">  1       -1 0.21159709E+00 0.14270065E+04</pdfrwt>
<totfact> 0.70744509E-01</totfact>
</mgrwt>
</event>
<event>
 4    1  0.2731969E-009  0.2018835E+03  0.7818608E-02  0.1148160E+00
         -1   -1    0    0    0  501 -0.00000000000E+00  0.00000000000E+00  0.15579127644E+03  0.15579127652E+03  0.50400000000E-02 0.  1.
          1   -1    0    0  501    0  0.00000000000E+00 -0.00000000000E+00 -0.12952173090E+04  0.12952173091E+04  0.50400000000E-02 0. -1.
    8880022    1    1    2    0    0 -0.40393071826E+02 -0.12543401259E+03  0.78392813567E+02  0.21656956850E+03  0.15294330000E+03 0.  1.
    8880022    1    1    2    0    0  0.40393071826E+02  0.12543401259E+03 -0.12178188462E+04  0.12344390171E+04  0.15294330000E+03 0.  0.
<mgrwt>
<rscale>  0 0.20188349E+03</rscale>
<asrwt>0</asrwt>
<pdfrwt beam="1">  1        1 0.19926419E+00 0.20188349E+03</pdfrwt>
<pdfrwt beam="2">  1       -1 0.23967890E-01 0.20188349E+03</pdfrwt>
<totfact> 0.15088273E+02</totfact>
</mgrwt>
</event>
<event>
 4    1  0.2731969E-009  0.6292815E+03  0.7818608E-02  0.9846452E-01
         -1   -1    0    0    0  501 -0.00000000000E+00  0.00000000000E+00  0.24707390737E+04  0.24707390737E+04  0.50400000000E-02 0.  1.
          1   -1    0    0  501    0  0.00000000000E+00 -0.00000000000E+00 -0.30947148857E+03  0.30947148861E+03  0.50400000000E-02 0. -1.
    8880022    1    1    2    0    0 -0.38266400003E+03  0.47557526412E+03  0.11543196601E+03  0.63978102547E+03  0.15294330000E+03 0.  0.
    8880022    1    1    2    0    0  0.38266400003E+03 -0.47557526412E+03  0.20458356192E+04  0.21404295369E+04  0.15294330000E+03 0.  0.
<mgrwt>
<rscale>  0 0.62928151E+03</rscale>
<asrwt>0</asrwt>
<pdfrwt beam="1">  1        1 0.47610998E-01 0.62928151E+03</pdfrwt>
<pdfrwt beam="2">  1       -1 0.38011370E+00 0.62928151E+03</pdfrwt>
<totfact> 0.89791879E-01</totfact>
</mgrwt>
</event>
<event>
 4    1  0.2731969E-009  0.1047492E+04  0.7818608E-02  0.9257937E-01
         -1   -1    0    0    0  501 -0.00000000000E+00  0.00000000000E+00  0.36039886991E+03  0.36039886994E+03  0.50400000000E-02 0.  1.
          1   -1    0    0  501    0  0.00000000000E+00 -0.00000000000E+00 -0.34583334537E+04  0.34583334537E+04  0.50400000000E-02 0. -1.
    8880022    1    1    2    0    0  0.60061924928E+03 -0.84445526581E+03 -0.88848585010E+03  0.13735526700E+04  0.15294330000E+03 0.  0.
    8880022    1    1    2    0    0 -0.60061924928E+03  0.84445526581E+03 -0.22094487337E+04  0.24451796536E+04  0.15294330000E+03 0.  0.
<mgrwt>
<rscale>  0 0.10474922E+04</rscale>
<asrwt>0</asrwt>
<pdfrwt beam="1">  1        1 0.53205128E+00 0.10474922E+04</pdfrwt>
<pdfrwt beam="2">  1       -1 0.55445982E-01 0.10474922E+04</pdfrwt>
<totfact> 0.91330245E-01</totfact>
</mgrwt>
</event>
<event>
 4    1  0.2731969E-009  0.6850399E+03  0.7818608E-02  0.9743164E-01
         -1   -1    0    0    0  501 -0.00000000000E+00  0.00000000000E+00  0.51958593655E+03  0.51958593658E+03  0.50400000000E-02 0.  1.
          1   -1    0    0  501    0  0.00000000000E+00 -0.00000000000E+00 -0.29747368715E+04  0.29747368715E+04  0.50400000000E-02 0. -1.
    8880022    1    1    2    0    0 -0.66530083251E+03 -0.57121408571E+02  0.23042332150E+03  0.72275487765E+03  0.15294330000E+03 0.  0.
    8880022    1    1    2    0    0  0.66530083251E+03  0.57121408571E+02 -0.26855742565E+04  0.27715679304E+04  0.15294330000E+03 0.  0.
<mgrwt>
<rscale>  0 0.68503993E+03</rscale>
<asrwt>0</asrwt>
<pdfrwt beam="1">  1        1 0.45765182E+00 0.68503993E+03</pdfrwt>
<pdfrwt beam="2">  1       -1 0.79936299E-01 0.68503993E+03</pdfrwt>
<totfact> 0.10665353E+00</totfact>
</mgrwt>
</event>
<event>
 4    1  0.2731969E-009  0.2734804E+04  0.7818608E-02  0.8323800E-01
          1   -1    0    0  501    0  0.00000000000E+00  0.00000000000E+00  0.33819156074E+04  0.33819156074E+04  0.50400000000E-02 0. -1.
         -1   -1    0    0    0  501 -0.00000000000E+00 -0.00000000000E+00 -0.39184318479E+04  0.39184318479E+04  0.50400000000E-02 0.  1.
    8880022    1    1    2    0    0  0.18899564298E+04 -0.19707424095E+04  0.21408913050E+04  0.34731208133E+04  0.15294330000E+03 0.  0.
    8880022    1    1    2    0    0 -0.18899564298E+04  0.19707424095E+04 -0.26774075455E+04  0.38272266419E+04  0.15294330000E+03 0.  0.
<mgrwt>
<rscale>  0 0.27348039E+04</rscale>
<asrwt>0</asrwt>
<pdfrwt beam="1">  1        1 0.52029471E+00 0.27348039E+04</pdfrwt>
<pdfrwt beam="2">  1       -1 0.60283567E+00 0.27348039E+04</pdfrwt>
<totfact> 0.10465452E-04</totfact>
</mgrwt>
</event>
<event>
 4    1  0.2731969E-009  0.8221847E+03  0.7818608E-02  0.9528449E-01
          1   -1    0    0  501    0  0.00000000000E+00  0.00000000000E+00  0.76767279298E+03  0.76767279300E+03  0.50400000000E-02 0. -1.
         -1   -1    0    0    0  501 -0.00000000000E+00 -0.00000000000E+00 -0.16536990124E+04  0.16536990124E+04  0.50400000000E-02 0.  1.
    8880022    1    1    2    0    0 -0.17245550363E+03  0.78921167594E+03  0.38479556313E+03  0.90777488872E+03  0.15294330000E+03 0.  0.
    8880022    1    1    2    0    0  0.17245550363E+03 -0.78921167594E+03 -0.12708217825E+04  0.15135969167E+04  0.15294330000E+03 0.  0.
<mgrwt>
<rscale>  0 0.82218466E+03</rscale>
<asrwt>0</asrwt>
<pdfrwt beam="1">  1        1 0.11810351E+00 0.82218466E+03</pdfrwt>
<pdfrwt beam="2">  1       -1 0.25441523E+00 0.82218466E+03</pdfrwt>
<totfact> 0.15948371E+00</totfact>
</mgrwt>
</event>
<event>
 4    1  0.2731969E-009  0.5668978E+03  0.7818608E-02  0.9976567E-01
          1   -1    0    0  501    0  0.00000000000E+00  0.00000000000E+00  0.39827028175E+04  0.39827028175E+04  0.50400000000E-02 0. -1.
         -1   -1    0    0    0  501 -0.00000000000E+00 -0.00000000000E+00 -0.38409907965E+03  0.38409907969E+03  0.50400000000E-02 0.  1.
    8880022    1    1    2    0    0 -0.80362547043E+02  0.53992901384E+03  0.37398506262E+04  0.37825726481E+04  0.15294330000E+03 0.  0.
    8880022    1    1    2    0    0  0.80362547043E+02 -0.53992901384E+03 -0.14124688838E+03  0.58422924905E+03  0.15294330000E+03 0.  0.
<mgrwt>
<rscale>  0 0.56689781E+03</rscale>
<asrwt>0</asrwt>
<pdfrwt beam="1">  1        1 0.61272349E+00 0.56689781E+03</pdfrwt>
<pdfrwt beam="2">  1       -1 0.59092168E-01 0.56689781E+03</pdfrwt>
<totfact> 0.33941798E-01</totfact>
</mgrwt>
</event>
<event>
 4    1  0.2731969E-009  0.1043548E+04  0.7818608E-02  0.9262031E-01
          1   -1    0    0  501    0  0.00000000000E+00  0.00000000000E+00  0.74108932270E+03  0.74108932272E+03  0.50400000000E-02 0. -1.
         -1   -1    0    0    0  501 -0.00000000000E+00 -0.00000000000E+00 -0.18563007084E+04  0.18563007084E+04  0.50400000000E-02 0.  1.
    8880022    1    1    2    0    0  0.62262792086E+03  0.82336768337E+03  0.35260054360E+02  0.10441430909E+04  0.15294330000E+03 0. -1.
    8880022    1    1    2    0    0 -0.62262792086E+03 -0.82336768337E+03 -0.11504714400E+04  0.15532469402E+04  0.15294330000E+03 0.  0.
<mgrwt>
<rscale>  0 0.10435476E+04</rscale>
<asrwt>0</asrwt>
<pdfrwt beam="1">  1        1 0.11401374E+00 0.10435476E+04</pdfrwt>
<pdfrwt beam="2">  1       -1 0.28558472E+00 0.10435476E+04</pdfrwt>
<totfact> 0.10279395E+00</totfact>
</mgrwt>
</event>
<event>
 4    1  0.2731969E-009  0.4813092E+03  0.7818608E-02  0.1018776E+00
          1   -1    0    0  501    0  0.00000000000E+00  0.00000000000E+00  0.10868765463E+04  0.10868765463E+04  0.50400000000E-02 0. -1.
         -1   -1    0    0    0  501 -0.00000000000E+00 -0.00000000000E+00 -0.24630628631E+03  0.24630628636E+03  0.50400000000E-02 0.  1.
    8880022    1    1    2    0    0 -0.44630942205E+03 -0.95261881785E+02  0.17568308871E+03  0.51237010745E+03  0.15294330000E+03 0.  0.
    8880022    1    1    2    0    0  0.44630942205E+03  0.95261881785E+02  0.66488717129E+03  0.82081272523E+03  0.15294330000E+03 0.  0.
<mgrwt>
<rscale>  0 0.48130923E+03</rscale>
<asrwt>0</asrwt>
<pdfrwt beam="1">  1        1 0.16721178E+00 0.48130923E+03</pdfrwt>
<pdfrwt beam="2">  1       -1 0.37893274E-01 0.48130923E+03</pdfrwt>
<totfact> 0.91560931E+01</totfact>
</mgrwt>
</event>
<event>
 4    1  0.2731969E-009  0.7125198E+03  0.7818608E-02  0.9696058E-01
         -1   -1    0    0    0  501 -0.00000000000E+00  0.00000000000E+00  0.20453914967E+03  0.20453914973E+03  0.50400000000E-02 0.  1.
          1   -1    0    0  501    0  0.00000000000E+00 -0.00000000000E+00 -0.26074811484E+04  0.26074811484E+04  0.50400000000E-02 0. -1.
    8880022    1    1    2    0    0  0.69591026775E+03  0.13005366347E+01 -0.89314337807E+03  0.11425364497E+04  0.15294330000E+03 0.  0.
    8880022    1    1    2    0    0 -0.69591026775E+03 -0.13005366347E+01 -0.15097986207E+04  0.16694838484E+04  0.15294330000E+03 0.  0.
<mgrwt>
<rscale>  0 0.71251979E+03</rscale>
<asrwt>0</asrwt>
<pdfrwt beam="1">  1        1 0.40115092E+00 0.71251979E+03</pdfrwt>
<pdfrwt beam="2">  1       -1 0.31467563E-01 0.71251979E+03</pdfrwt>
<totfact> 0.11341471E+01</totfact>
</mgrwt>
</event>
<event>
 4    1  0.2731969E-009  0.1466521E+04  0.7818608E-02  0.8907026E-01
         -1   -1    0    0    0  501 -0.00000000000E+00  0.00000000000E+00  0.15105717639E+04  0.15105717639E+04  0.50400000000E-02 0.  1.
          1   -1    0    0  501    0  0.00000000000E+00 -0.00000000000E+00 -0.17464578054E+04  0.17464578054E+04  0.50400000000E-02 0. -1.
    8880022    1    1    2    0    0  0.12338200662E+04  0.77780506315E+03  0.58208258817E+03  0.15778163595E+04  0.15294330000E+03 0.  0.
    8880022    1    1    2    0    0 -0.12338200662E+04 -0.77780506315E+03 -0.81796862965E+03  0.16792132098E+04  0.15294330000E+03 0.  0.
<mgrwt>
<rscale>  0 0.14665212E+04</rscale>
<asrwt>0</asrwt>
<pdfrwt beam="1">  1        1 0.26868582E+00 0.14665212E+04</pdfrwt>
<pdfrwt beam="2">  1       -1 0.23239566E+00 0.14665212E+04</pdfrwt>
<totfact> 0.38236923E-01</totfact>
</mgrwt>
</event>
<event>
 4    1  0.2731969E-009  0.5152012E+03  0.7818608E-02  0.1009886E+00
         -1   -1    0    0    0  501 -0.00000000000E+00  0.00000000000E+00  0.86183708153E+03  0.86183708154E+03  0.50400000000E-02 0.  1.
          1   -1    0    0  501    0  0.00000000000E+00 -0.00000000000E+00 -0.31385120047E+04  0.31385120047E+04  0.50400000000E-02 0. -1.
    8880022    1    1    2    0    0  0.47807507340E+03  0.11612417106E+03  0.76116432743E+03  0.91913186501E+03  0.15294330000E+03 0.  0.
    8880022    1    1    2    0    0 -0.47807507340E+03 -0.11612417106E+03 -0.30378392506E+04  0.30812172212E+04  0.15294330000E+03 0.  0.
<mgrwt>
<rscale>  0 0.51520118E+03</rscale>
<asrwt>0</asrwt>
<pdfrwt beam="1">  1        1 0.48284799E+00 0.51520118E+03</pdfrwt>
<pdfrwt beam="2">  1       -1 0.13259032E+00 0.51520118E+03</pdfrwt>
<totfact> 0.26758806E-01</totfact>
</mgrwt>
</event>
<event>
 4    1  0.2731969E-009  0.7528835E+03  0.7818608E-02  0.9630837E-01
         -1   -1    0    0    0  501 -0.00000000000E+00  0.00000000000E+00  0.18274115703E+04  0.18274115703E+04  0.50400000000E-02 0.  1.
          1   -1    0    0  501    0  0.00000000000E+00 -0.00000000000E+00 -0.15647331046E+04  0.15647331046E+04  0.50400000000E-02 0. -1.
    8880022    1    1    2    0    0  0.69418241972E+03  0.24809819983E+03 -0.13873471175E+04  0.15784693934E+04  0.15294330000E+03 0.  0.
    8880022    1    1    2    0    0 -0.69418241972E+03 -0.24809819983E+03  0.16500255831E+04  0.18136752815E+04  0.15294330000E+03 0.  0.
<mgrwt>
<rscale>  0 0.75288352E+03</rscale>
<asrwt>0</asrwt>
<pdfrwt beam="1">  1        1 0.24072817E+00 0.75288352E+03</pdfrwt>
<pdfrwt beam="2">  1       -1 0.28114024E+00 0.75288352E+03</pdfrwt>
<totfact> 0.27600152E-01</totfact>
</mgrwt>
</event>
<event>
 4    1  0.2731969E-009  0.3752735E+03  0.7818608E-02  0.1052695E+00
          1   -1    0    0  501    0  0.00000000000E+00  0.00000000000E+00  0.54010454010E+03  0.54010454013E+03  0.50400000000E-02 0. -1.
         -1   -1    0    0    0  501 -0.00000000000E+00 -0.00000000000E+00 -0.93193133674E+03  0.93193133675E+03  0.50400000000E-02 0.  1.
    8880022    1    1    2    0    0  0.29284253508E+03 -0.17799385288E+03 -0.82053586586E+03  0.90228006860E+03  0.15294330000E+03 0.  0.
    8880022    1    1    2    0    0 -0.29284253508E+03  0.17799385288E+03  0.42870906923E+03  0.56975580828E+03  0.15294330000E+03 0.  0.
<mgrwt>
<rscale>  0 0.37527352E+03</rscale>
<asrwt>0</asrwt>
<pdfrwt beam="1">  1        1 0.83093006E-01 0.37527352E+03</pdfrwt>
<pdfrwt beam="2">  1       -1 0.14337405E+00 0.37527352E+03</pdfrwt>
<totfact> 0.17085845E+01</totfact>
</mgrwt>
</event>
<event>
 4    1  0.2731969E-009  0.8702186E+03  0.7818608E-02  0.9463595E-01
         -1   -1    0    0    0  501 -0.00000000000E+00  0.00000000000E+00  0.60088461089E+03  0.60088461091E+03  0.50400000000E-02 0.  1.
          1   -1    0    0  501    0  0.00000000000E+00 -0.00000000000E+00 -0.13942610099E+04  0.13942610099E+04  0.50400000000E-02 0. -1.
    8880022    1    1    2    0    0 -0.52037744669E+03 -0.68051158275E+03 -0.70593195396E+03  0.11205446345E+04  0.15294330000E+03 0.  0.
    8880022    1    1    2    0    0  0.52037744669E+03  0.68051158275E+03 -0.87444445047E+02  0.87460098632E+03  0.15294330000E+03 0.  0.
<mgrwt>
<rscale>  0 0.87021857E+03</rscale>
<asrwt>0</asrwt>
<pdfrwt beam="1">  1        1 0.21450169E+00 0.87021857E+03</pdfrwt>
<pdfrwt beam="2">  1       -1 0.92443787E-01 0.87021857E+03</pdfrwt>
<totfact> 0.90061021E+00</totfact>
</mgrwt>
</event>
<event>
 4    1  0.2731969E-009  0.3850174E+03  0.7818608E-02  0.1049095E+00
          1   -1    0    0  501    0  0.00000000000E+00  0.00000000000E+00  0.21096131268E+04  0.21096131268E+04  0.50400000000E-02 0. -1.
         -1   -1    0    0    0  501 -0.00000000000E+00 -0.00000000000E+00 -0.23149663182E+04  0.23149663182E+04  0.50400000000E-02 0.  1.
    8880022    1    1    2    0    0  0.10082100997E+03 -0.33864711125E+03 -0.22811318779E+04  0.23133959971E+04  0.15294330000E+03 0.  0.
    8880022    1    1    2    0    0 -0.10082100997E+03  0.33864711125E+03  0.20757786865E+04  0.21111834479E+04  0.15294330000E+03 0.  0.
<mgrwt>
<rscale>  0 0.38501740E+03</rscale>
<asrwt>0</asrwt>
<pdfrwt beam="1">  1        1 0.32455587E+00 0.38501740E+03</pdfrwt>
<pdfrwt beam="2">  1       -1 0.35614866E+00 0.38501740E+03</pdfrwt>
<totfact> 0.45684082E-02</totfact>
</mgrwt>
</event>
<event>
 4    1  0.2731969E-009  0.3107884E+03  0.7818608E-02  0.1079969E+00
          1   -1    0    0  501    0  0.00000000000E+00  0.00000000000E+00  0.35499316490E+03  0.35499316493E+03  0.50400000000E-02 0. -1.
         -1   -1    0    0    0  501 -0.00000000000E+00 -0.00000000000E+00 -0.18821619515E+04  0.18821619515E+04  0.50400000000E-02 0.  1.
    8880022    1    1    2    0    0  0.40258271938E+02  0.26753890620E+03  0.27098706585E+03  0.41233898392E+03  0.15294330000E+03 0. -1.
    8880022    1    1    2    0    0 -0.40258271938E+02 -0.26753890620E+03 -0.17981558524E+04  0.18248161325E+04  0.15294330000E+03 0.  0.
<mgrwt>
<rscale>  0 0.31078843E+03</rscale>
<asrwt>0</asrwt>
<pdfrwt beam="1">  1        1 0.54614334E-01 0.31078843E+03</pdfrwt>
<pdfrwt beam="2">  1       -1 0.28956337E+00 0.31078843E+03</pdfrwt>
<totfact> 0.31587648E+00</totfact>
</mgrwt>
</event>
<event>
 4    1  0.2731969E-009  0.8948041E+03  0.7818608E-02  0.9432100E-01
          1   -1    0    0  501    0  0.00000000000E+00  0.00000000000E+00  0.21628261314E+04  0.21628261314E+04  0.50400000000E-02 0. -1.
         -1   -1    0    0    0  501 -0.00000000000E+00 -0.00000000000E+00 -0.41273191897E+03  0.41273191900E+03  0.50400000000E-02 0.  1.
    8880022    1    1    2    0    0 -0.61534949265E+03  0.63136966769E+03  0.12884505346E+04  0.15686870588E+04  0.15294330000E+03 0.  0.
    8880022    1    1    2    0    0  0.61534949265E+03 -0.63136966769E+03  0.46164367783E+03  0.10068709916E+04  0.15294330000E+03 0.  0.
<mgrwt>
<rscale>  0 0.89480406E+03</rscale>
<asrwt>0</asrwt>
<pdfrwt beam="1">  1        1 0.33274248E+00 0.89480406E+03</pdfrwt>
<pdfrwt beam="2">  1       -1 0.63497218E-01 0.89480406E+03</pdfrwt>
<totfact> 0.59720288E+00</totfact>
</mgrwt>
</event>
<event>
 4    1  0.2731969E-009  0.5912087E+03  0.7818608E-02  0.9923815E-01
          1   -1    0    0  501    0  0.00000000000E+00  0.00000000000E+00  0.13109431712E+04  0.13109431712E+04  0.50400000000E-02 0. -1.
         -1   -1    0    0    0  501 -0.00000000000E+00 -0.00000000000E+00 -0.67071976692E+03  0.67071976694E+03  0.50400000000E-02 0.  1.
    8880022    1    1    2    0    0 -0.56954908436E+03  0.41832614931E+02 -0.44896889191E+03  0.74236166798E+03  0.15294330000E+03 0.  0.
    8880022    1    1    2    0    0  0.56954908436E+03 -0.41832614931E+02  0.10891922962E+04  0.12393012702E+04  0.15294330000E+03 0.  0.
<mgrwt>
<rscale>  0 0.59120875E+03</rscale>
<asrwt>0</asrwt>
<pdfrwt beam="1">  1        1 0.20168356E+00 0.59120875E+03</pdfrwt>
<pdfrwt beam="2">  1       -1 0.10318766E+00 0.59120875E+03</pdfrwt>
<totfact> 0.83907499E+00</totfact>
</mgrwt>
</event>
<event>
 4    1  0.2731969E-009  0.5826475E+03  0.7818608E-02  0.9942076E-01
         -1   -1    0    0    0  501 -0.00000000000E+00  0.00000000000E+00  0.10324424779E+04  0.10324424779E+04  0.50400000000E-02 0.  1.
          1   -1    0    0  501    0  0.00000000000E+00 -0.00000000000E+00 -0.23813683148E+04  0.23813683148E+04  0.50400000000E-02 0. -1.
    8880022    1    1    2    0    0 -0.16849719566E+03 -0.53637223910E+03  0.91022535410E+03  0.10807350888E+04  0.15294330000E+03 0.  0.
    8880022    1    1    2    0    0  0.16849719566E+03  0.53637223910E+03 -0.22591511910E+04  0.23330757040E+04  0.15294330000E+03 0.  0.
<mgrwt>
<rscale>  0 0.58264752E+03</rscale>
<asrwt>0</asrwt>
<pdfrwt beam="1">  1        1 0.36636435E+00 0.58264752E+03</pdfrwt>
<pdfrwt beam="2">  1       -1 0.15883730E+00 0.58264752E+03</pdfrwt>
<totfact> 0.54594063E-01</totfact>
</mgrwt>
</event>
<event>
 4    1  0.2731969E-009  0.6216659E+03  0.7818608E-02  0.9861448E-01
          1   -1    0    0  501    0  0.00000000000E+00  0.00000000000E+00  0.10068728186E+04  0.10068728186E+04  0.50400000000E-02 0. -1.
         -1   -1    0    0    0  501 -0.00000000000E+00 -0.00000000000E+00 -0.45432352042E+03  0.45432352045E+03  0.50400000000E-02 0.  1.
    8880022    1    1    2    0    0  0.58942553386E+03 -0.12511754839E+03  0.56406019564E+03  0.83942386087E+03  0.15294330000E+03 0.  0.
    8880022    1    1    2    0    0 -0.58942553386E+03  0.12511754839E+03 -0.11510897440E+02  0.62177247821E+03  0.15294330000E+03 0.  0.
<mgrwt>
<rscale>  0 0.62166592E+03</rscale>
<asrwt>0</asrwt>
<pdfrwt beam="1">  1        1 0.15490351E+00 0.62166592E+03</pdfrwt>
<pdfrwt beam="2">  1       -1 0.69895927E-01 0.62166592E+03</pdfrwt>
<totfact> 0.32252599E+01</totfact>
</mgrwt>
</event>
<event>
 4    1  0.2731969E-009  0.4888178E+03  0.7818608E-02  0.1016740E+00
          1   -1    0    0  501    0  0.00000000000E+00  0.00000000000E+00  0.15975989562E+04  0.15975989562E+04  0.50400000000E-02 0. -1.
         -1   -1    0    0    0  501 -0.00000000000E+00 -0.00000000000E+00 -0.79656769131E+03  0.79656769132E+03  0.50400000000E-02 0.  1.
    8880022    1    1    2    0    0 -0.27722548047E+03 -0.37242077460E+03  0.14793791516E+04  0.15580454190E+04  0.15294330000E+03 0.  0.
    8880022    1    1    2    0    0  0.27722548047E+03  0.37242077460E+03 -0.67834788673E+03  0.83612122854E+03  0.15294330000E+03 0.  0.
<mgrwt>
<rscale>  0 0.48881781E+03</rscale>
<asrwt>0</asrwt>
<pdfrwt beam="1">  1        1 0.24578445E+00 0.48881781E+03</pdfrwt>
<pdfrwt beam="2">  1       -1 0.12254888E+00 0.48881781E+03</pdfrwt>
<totfact> 0.36464999E+00</totfact>
</mgrwt>
</event>
<event>
 4    1  0.2731969E-009  0.2900971E+03  0.7818608E-02  0.1090298E+00
          1   -1    0    0  501    0  0.00000000000E+00  0.00000000000E+00  0.21135789485E+04  0.21135789485E+04  0.50400000000E-02 0. -1.
         -1   -1    0    0    0  501 -0.00000000000E+00 -0.00000000000E+00 -0.22259850571E+03  0.22259850576E+03  0.50400000000E-02 0.  1.
    8880022    1    1    2    0    0  0.22188573366E+03  0.10738436830E+03 -0.11298539401E+03  0.31132303742E+03  0.15294330000E+03 0.  1.
    8880022    1    1    2    0    0 -0.22188573366E+03 -0.10738436830E+03  0.20039658368E+04  0.20248544169E+04  0.15294330000E+03 0.  0.
<mgrwt>
<rscale>  0 0.29009711E+03</rscale>
<asrwt>0</asrwt>
<pdfrwt beam="1">  1        1 0.32516598E+00 0.29009711E+03</pdfrwt>
<pdfrwt beam="2">  1       -1 0.34245925E-01 0.29009711E+03</pdfrwt>
<totfact> 0.23235517E+01</totfact>
</mgrwt>
</event>
<event>
 4    1  0.2731969E-009  0.8084354E+03  0.7818608E-02  0.9547887E-01
         -1   -1    0    0    0  501 -0.00000000000E+00  0.00000000000E+00  0.60728262543E+03  0.60728262545E+03  0.50400000000E-02 0.  1.
          1   -1    0    0  501    0  0.00000000000E+00 -0.00000000000E+00 -0.21139140911E+04  0.21139140911E+04  0.50400000000E-02 0. -1.
    8880022    1    1    2    0    0  0.73562955811E+03 -0.29837103690E+03  0.19996675129E+03  0.83279918172E+03  0.15294330000E+03 0.  0.
    8880022    1    1    2    0    0 -0.73562955811E+03  0.29837103690E+03 -0.17065982170E+04  0.18883975349E+04  0.15294330000E+03 0.  0.
<mgrwt>
<rscale>  0 0.80843539E+03</rscale>
<asrwt>0</asrwt>
<pdfrwt beam="1">  1        1 0.32521755E+00 0.80843539E+03</pdfrwt>
<pdfrwt beam="2">  1       -1 0.93428097E-01 0.80843539E+03</pdfrwt>
<totfact> 0.28923752E+00</totfact>
</mgrwt>
</event>
<event>
 4    1  0.2731969E-009  0.1469133E+04  0.7818608E-02  0.8905243E-01
          1   -1    0    0  501    0  0.00000000000E+00  0.00000000000E+00  0.22542589595E+04  0.22542589595E+04  0.50400000000E-02 0. -1.
         -1   -1    0    0    0  501 -0.00000000000E+00 -0.00000000000E+00 -0.11609726217E+04  0.11609726217E+04  0.50400000000E-02 0.  1.
    8880022    1    1    2    0    0  0.10362970237E+04  0.10300716875E+04 -0.16831477034E+03  0.14787429519E+04  0.15294330000E+03 0.  0.
    8880022    1    1    2    0    0 -0.10362970237E+04 -0.10300716875E+04  0.12616011081E+04  0.19364886294E+04  0.15294330000E+03 0.  0.
<mgrwt>
<rscale>  0 0.14691327E+04</rscale>
<asrwt>0</asrwt>
<pdfrwt beam="1">  1        1 0.34680907E+00 0.14691327E+04</pdfrwt>
<pdfrwt beam="2">  1       -1 0.17861117E+00 0.14691327E+04</pdfrwt>
<totfact> 0.40477009E-01</totfact>
</mgrwt>
</event>
<event>
 4    1  0.2731969E-009  0.9465645E+03  0.7818608E-02  0.9369175E-01
          1   -1    0    0  501    0  0.00000000000E+00  0.00000000000E+00  0.19553615618E+04  0.19553615618E+04  0.50400000000E-02 0. -1.
         -1   -1    0    0    0  501 -0.00000000000E+00 -0.00000000000E+00 -0.50475694702E+03  0.50475694704E+03  0.50400000000E-02 0.  1.
    8880022    1    1    2    0    0 -0.73097395748E+03  0.58160957520E+03  0.10987995483E+04  0.14502912552E+04  0.15294330000E+03 0. -1.
    8880022    1    1    2    0    0  0.73097395748E+03 -0.58160957520E+03  0.35180506650E+03  0.10098272537E+04  0.15294330000E+03 0.  0.
<mgrwt>
<rscale>  0 0.94656446E+03</rscale>
<asrwt>0</asrwt>
<pdfrwt beam="1">  1        1 0.30082486E+00 0.94656446E+03</pdfrwt>
<pdfrwt beam="2">  1       -1 0.77654914E-01 0.94656446E+03</pdfrwt>
<totfact> 0.54044201E+00</totfact>
</mgrwt>
</event>
<event>
 4    1  0.2731969E-009  0.5961865E+03  0.7818608E-02  0.9913350E-01
          1   -1    0    0  501    0  0.00000000000E+00  0.00000000000E+00  0.43453806775E+03  0.43453806778E+03  0.50400000000E-02 0. -1.
         -1   -1    0    0    0  501 -0.00000000000E+00 -0.00000000000E+00 -0.99851076722E+03  0.99851076723E+03  0.50400000000E-02 0.  1.
    8880022    1    1    2    0    0  0.56696437458E+03  0.10294685511E+03  0.22694007471E+02  0.59661824311E+03  0.15294330000E+03 0.  0.
    8880022    1    1    2    0    0 -0.56696437458E+03 -0.10294685511E+03 -0.58666670694E+03  0.83643059190E+03  0.15294330000E+03 0.  0.
<mgrwt>
<rscale>  0 0.59618647E+03</rscale>
<asrwt>0</asrwt>
<pdfrwt beam="1">  1        1 0.66852010E-01 0.59618647E+03</pdfrwt>
<pdfrwt beam="2">  1       -1 0.15361704E+00 0.59618647E+03</pdfrwt>
<totfact> 0.18361647E+01</totfact>
</mgrwt>
</event>
<event>
 4    1  0.2731969E-009  0.2831749E+03  0.7818608E-02  0.1093967E+00
         -1   -1    0    0    0  501 -0.00000000000E+00  0.00000000000E+00  0.17688068126E+03  0.17688068134E+03  0.50400000000E-02 0.  1.
          1   -1    0    0  501    0  0.00000000000E+00 -0.00000000000E+00 -0.30480563527E+04  0.30480563527E+04  0.50400000000E-02 0. -1.
    8880022    1    1    2    0    0 -0.80263628019E+02  0.22439721298E+03 -0.29233182964E+04  0.29370015108E+04  0.15294330000E+03 0.  0.
    8880022    1    1    2    0    0  0.80263628019E+02 -0.22439721298E+03  0.52142625015E+02  0.28793552322E+03  0.15294330000E+03 0.  0.
<mgrwt>
<rscale>  0 0.28317488E+03</rscale>
<asrwt>0</asrwt>
<pdfrwt beam="1">  1        1 0.46893171E+00 0.28317488E+03</pdfrwt>
<pdfrwt beam="2">  1       -1 0.27212415E-01 0.28317488E+03</pdfrwt>
<totfact> 0.81143849E+00</totfact>
</mgrwt>
</event>
<event>
 4    1  0.2731969E-009  0.8474752E+03  0.7818608E-02  0.9493732E-01
         -1   -1    0    0    0  501 -0.00000000000E+00  0.00000000000E+00  0.99507739368E+03  0.99507739369E+03  0.50400000000E-02 0.  1.
          1   -1    0    0  501    0  0.00000000000E+00 -0.00000000000E+00 -0.80200742523E+03  0.80200742525E+03  0.50400000000E-02 0. -1.
    8880022    1    1    2    0    0 -0.46708913487E+03 -0.69039867091E+03 -0.18767898385E+03  0.86800785636E+03  0.15294330000E+03 0.  0.
    8880022    1    1    2    0    0  0.46708913487E+03  0.69039867091E+03  0.38074895230E+03  0.92907696258E+03  0.15294330000E+03 0.  0.
<mgrwt>
<rscale>  0 0.84747521E+03</rscale>
<asrwt>0</asrwt>
<pdfrwt beam="1">  1        1 0.12338576E+00 0.84747521E+03</pdfrwt>
<pdfrwt beam="2">  1       -1 0.15308883E+00 0.84747521E+03</pdfrwt>
<totfact> 0.74134620E+00</totfact>
</mgrwt>
</event>
<event>
 4    1  0.2731969E-009  0.3975523E+03  0.7818608E-02  0.1044631E+00
         -1   -1    0    0    0  501 -0.00000000000E+00  0.00000000000E+00  0.41015368723E+03  0.41015368726E+03  0.50400000000E-02 0.  1.
          1   -1    0    0  501    0  0.00000000000E+00 -0.00000000000E+00 -0.18455145402E+04  0.18455145402E+04  0.50400000000E-02 0. -1.
    8880022    1    1    2    0    0 -0.15845308284E+03 -0.33098152942E+03  0.28552338370E+03  0.48946032315E+03  0.15294330000E+03 0.  0.
    8880022    1    1    2    0    0  0.15845308284E+03  0.33098152942E+03 -0.17208842367E+04  0.17662079043E+04  0.15294330000E+03 0.  0.
<mgrwt>
<rscale>  0 0.39755227E+03</rscale>
<asrwt>0</asrwt>
<pdfrwt beam="1">  1        1 0.28392531E+00 0.39755227E+03</pdfrwt>
<pdfrwt beam="2">  1       -1 0.63100568E-01 0.39755227E+03</pdfrwt>
<totfact> 0.10871650E+01</totfact>
</mgrwt>
</event>
<event>
 4    1  0.2731969E-009  0.1700404E+04  0.7818608E-02  0.8761134E-01
         -1   -1    0    0    0  501 -0.00000000000E+00  0.00000000000E+00  0.91650398545E+03  0.91650398547E+03  0.50400000000E-02 0.  1.
          1   -1    0    0  501    0  0.00000000000E+00 -0.00000000000E+00 -0.37961400779E+04  0.37961400779E+04  0.50400000000E-02 0. -1.
    8880022    1    1    2    0    0  0.35278364202E+03  0.16563589412E+04 -0.47128856016E+03  0.17645072400E+04  0.15294330000E+03 0.  0.
    8880022    1    1    2    0    0 -0.35278364202E+03 -0.16563589412E+04 -0.24083475323E+04  0.29481368234E+04  0.15294330000E+03 0.  0.
<mgrwt>
<rscale>  0 0.17004037E+04</rscale>
<asrwt>0</asrwt>
<pdfrwt beam="1">  1        1 0.58402154E+00 0.17004037E+04</pdfrwt>
<pdfrwt beam="2">  1       -1 0.14100062E+00 0.17004037E+04</pdfrwt>
<totfact> 0.55282362E-02</totfact>
</mgrwt>
</event>
<event>
 4    1  0.2731969E-009  0.6430208E+03  0.7818608E-02  0.9819964E-01
         -1   -1    0    0    0  501 -0.00000000000E+00  0.00000000000E+00  0.72856379427E+03  0.72856379429E+03  0.50400000000E-02 0.  1.
          1   -1    0    0  501    0  0.00000000000E+00 -0.00000000000E+00 -0.16627753734E+04  0.16627753734E+04  0.50400000000E-02 0. -1.
    8880022    1    1    2    0    0 -0.57132098287E+03 -0.25234200800E+03  0.50329633081E+03  0.81656781965E+03  0.15294330000E+03 0.  0.
    8880022    1    1    2    0    0  0.57132098287E+03  0.25234200800E+03 -0.14375079100E+04  0.15747713481E+04  0.15294330000E+03 0.  0.
<mgrwt>
<rscale>  0 0.64302085E+03</rscale>
<asrwt>0</asrwt>
<pdfrwt beam="1">  1        1 0.25581159E+00 0.64302085E+03</pdfrwt>
<pdfrwt beam="2">  1       -1 0.11208674E+00 0.64302085E+03</pdfrwt>
<totfact> 0.39364132E+00</totfact>
</mgrwt>
</event>
<event>
 4    1  0.2731969E-009  0.5426390E+03  0.7818608E-02  0.1003212E+00
          1   -1    0    0  501    0  0.00000000000E+00  0.00000000000E+00  0.19084122689E+04  0.19084122689E+04  0.50400000000E-02 0. -1.
         -1   -1    0    0    0  501 -0.00000000000E+00 -0.00000000000E+00 -0.28063157204E+03  0.28063157208E+03  0.50400000000E-02 0.  1.
    8880022    1    1    2    0    0  0.50057552807E+03  0.14314177379E+03  0.79508393836E+02  0.54843291696E+03  0.15294330000E+03 0.  0.
    8880022    1    1    2    0    0 -0.50057552807E+03 -0.14314177379E+03  0.15482723030E+04  0.16406109240E+04  0.15294330000E+03 0.  0.
<mgrwt>
<rscale>  0 0.54263900E+03</rscale>
<asrwt>0</asrwt>
<pdfrwt beam="1">  1        1 0.29360188E+00 0.54263900E+03</pdfrwt>
<pdfrwt beam="2">  1       -1 0.43174089E-01 0.54263900E+03</pdfrwt>
<totfact> 0.19582173E+01</totfact>
</mgrwt>
</event>
<event>
 4    1  0.2731969E-009  0.6723413E+03  0.7818608E-02  0.9765738E-01
         -1   -1    0    0    0  501 -0.00000000000E+00  0.00000000000E+00  0.70998688007E+03  0.70998688009E+03  0.50400000000E-02 0.  1.
          1   -1    0    0  501    0  0.00000000000E+00 -0.00000000000E+00 -0.12504331470E+04  0.12504331470E+04  0.50400000000E-02 0. -1.
    8880022    1    1    2    0    0  0.36537381899E+03 -0.54327993716E+03 -0.95694616628E+03  0.11695250044E+04  0.15294330000E+03 0.  0.
    8880022    1    1    2    0    0 -0.36537381899E+03  0.54327993716E+03  0.41649989937E+03  0.79089502269E+03  0.15294330000E+03 0.  0.
<mgrwt>
<rscale>  0 0.67234126E+03</rscale>
<asrwt>0</asrwt>
<pdfrwt beam="1">  1        1 0.19237433E+00 0.67234126E+03</pdfrwt>
<pdfrwt beam="2">  1       -1 0.10922875E+00 0.67234126E+03</pdfrwt>
<totfact> 0.79955081E+00</totfact>
</mgrwt>
</event>
<event>
 4    1  0.2731969E-009  0.4488849E+03  0.7818608E-02  0.1028055E+00
         -1   -1    0    0    0  501 -0.00000000000E+00  0.00000000000E+00  0.64380885503E+03  0.64380885505E+03  0.50400000000E-02 0.  1.
          1   -1    0    0  501    0  0.00000000000E+00 -0.00000000000E+00 -0.58331839361E+03  0.58331839364E+03  0.50400000000E-02 0. -1.
    8880022    1    1    2    0    0 -0.40617120398E+03  0.11459035263E+03  0.44794351114E+03  0.63415379683E+03  0.15294330000E+03 0.  0.
    8880022    1    1    2    0    0  0.40617120398E+03 -0.11459035263E+03 -0.38745304972E+03  0.59297345185E+03  0.15294330000E+03 0.  0.
<mgrwt>
<rscale>  0 0.44888489E+03</rscale>
<asrwt>0</asrwt>
<pdfrwt beam="1">  1        1 0.89741292E-01 0.44888489E+03</pdfrwt>
<pdfrwt beam="2">  1       -1 0.99047516E-01 0.44888489E+03</pdfrwt>
<totfact> 0.36893452E+01</totfact>
</mgrwt>
</event>
<event>
 4    1  0.2731969E-009  0.6866025E+03  0.7818608E-02  0.9740422E-01
          1   -1    0    0  501    0  0.00000000000E+00  0.00000000000E+00  0.73000419618E+03  0.73000419620E+03  0.50400000000E-02 0. -1.
         -1   -1    0    0    0  501 -0.00000000000E+00 -0.00000000000E+00 -0.70023200000E+03  0.70023200002E+03  0.50400000000E-02 0.  1.
    8880022    1    1    2    0    0  0.19025792091E+03 -0.64174235875E+03  0.21430160744E+03  0.71926918705E+03  0.15294330000E+03 0.  0.
    8880022    1    1    2    0    0 -0.19025792091E+03  0.64174235875E+03 -0.18452941126E+03  0.71096700916E+03  0.15294330000E+03 0.  0.
<mgrwt>
<rscale>  0 0.68660249E+03</rscale>
<asrwt>0</asrwt>
<pdfrwt beam="1">  1        1 0.11230834E+00 0.68660249E+03</pdfrwt>
<pdfrwt beam="2">  1       -1 0.10772800E+00 0.68660249E+03</pdfrwt>
<totfact> 0.21186116E+01</totfact>
</mgrwt>
</event>
<event>
 4    1  0.2731969E-009  0.1386675E+04  0.7818608E-02  0.8963520E-01
         -1   -1    0    0    0  501 -0.00000000000E+00  0.00000000000E+00  0.91696759331E+03  0.91696759332E+03  0.50400000000E-02 0.  1.
          1   -1    0    0  501    0  0.00000000000E+00 -0.00000000000E+00 -0.23567697874E+04  0.23567697874E+04  0.50400000000E-02 0. -1.
    8880022    1    1    2    0    0  0.13588801982E+04  0.23004740447E+03 -0.17644972262E+03  0.13978567018E+04  0.15294330000E+03 0.  0.
    8880022    1    1    2    0    0 -0.13588801982E+04 -0.23004740447E+03 -0.12633524715E+04  0.18758806789E+04  0.15294330000E+03 0.  0.
<mgrwt>
<rscale>  0 0.13866755E+04</rscale>
<asrwt>0</asrwt>
<pdfrwt beam="1">  1        1 0.36257996E+00 0.13866755E+04</pdfrwt>
<pdfrwt beam="2">  1       -1 0.14107194E+00 0.13866755E+04</pdfrwt>
<totfact> 0.67315959E-01</totfact>
</mgrwt>
</event>
<event>
 4    1  0.2731969E-009  0.5083560E+03  0.7818608E-02  0.1011621E+00
          1   -1    0    0  501    0  0.00000000000E+00  0.00000000000E+00  0.35273283312E+04  0.35273283312E+04  0.50400000000E-02 0. -1.
         -1   -1    0    0    0  501 -0.00000000000E+00 -0.00000000000E+00 -0.32791049186E+03  0.32791049189E+03  0.50400000000E-02 0.  1.
    8880022    1    1    2    0    0  0.42643599523E+02 -0.48292412418E+03  0.32983928040E+04  0.33373374011E+04  0.15294330000E+03 0.  0.
    8880022    1    1    2    0    0 -0.42643599523E+02  0.48292412418E+03 -0.98974964632E+02  0.51790142202E+03  0.15294330000E+03 0.  0.
<mgrwt>
<rscale>  0 0.50835602E+03</rscale>
<asrwt>0</asrwt>
<pdfrwt beam="1">  1        1 0.54266592E+00 0.50835602E+03</pdfrwt>
<pdfrwt beam="2">  1       -1 0.50447766E-01 0.50835602E+03</pdfrwt>
<totfact> 0.10958751E+00</totfact>
</mgrwt>
</event>
<event>
 4    1  0.2731969E-009  0.8107022E+03  0.7818608E-02  0.9544654E-01
         -1   -1    0    0    0  501 -0.00000000000E+00  0.00000000000E+00  0.13357584770E+04  0.13357584770E+04  0.50400000000E-02 0.  1.
          1   -1    0    0  501    0  0.00000000000E+00 -0.00000000000E+00 -0.97555881456E+03  0.97555881457E+03  0.50400000000E-02 0. -1.
    8880022    1    1    2    0    0 -0.67437769390E+03 -0.42315620765E+03  0.99370254799E+03  0.12824518927E+04  0.15294330000E+03 0.  0.
    8880022    1    1    2    0    0  0.67437769390E+03  0.42315620765E+03 -0.63350288554E+03  0.10288653989E+04  0.15294330000E+03 0.  0.
<mgrwt>
<rscale>  0 0.81070223E+03</rscale>
<asrwt>0</asrwt>
<pdfrwt beam="1">  1        1 0.15008597E+00 0.81070223E+03</pdfrwt>
<pdfrwt beam="2">  1       -1 0.20550130E+00 0.81070223E+03</pdfrwt>
<totfact> 0.22527108E+00</totfact>
</mgrwt>
</event>
<event>
 4    1  0.2731969E-009  0.4167505E+03  0.7818608E-02  0.1038129E+00
         -1   -1    0    0    0  501 -0.00000000000E+00  0.00000000000E+00  0.50028119029E+03  0.50028119032E+03  0.50400000000E-02 0.  1.
          1   -1    0    0  501    0  0.00000000000E+00 -0.00000000000E+00 -0.71632300590E+03  0.71632300591E+03  0.50400000000E-02 0. -1.
    8880022    1    1    2    0    0  0.35608874818E+03  0.15326478908E+03  0.32866586711E+03  0.53075625042E+03  0.15294330000E+03 0.  0.
    8880022    1    1    2    0    0 -0.35608874818E+03 -0.15326478908E+03 -0.54470768271E+03  0.68584794581E+03  0.15294330000E+03 0. -1.
<mgrwt>
<rscale>  0 0.41675046E+03</rscale>
<asrwt>0</asrwt>
<pdfrwt beam="1">  1        1 0.11020354E+00 0.41675046E+03</pdfrwt>
<pdfrwt beam="2">  1       -1 0.76966337E-01 0.41675046E+03</pdfrwt>
<totfact> 0.47457765E+01</totfact>
</mgrwt>
</event>
<event>
 4    1  0.2731969E-009  0.7111492E+03  0.7818608E-02  0.9698353E-01
          1   -1    0    0  501    0  0.00000000000E+00  0.00000000000E+00  0.17036177733E+04  0.17036177733E+04  0.50400000000E-02 0. -1.
         -1   -1    0    0    0  501 -0.00000000000E+00 -0.00000000000E+00 -0.68544915382E+03  0.68544915383E+03  0.50400000000E-02 0.  1.
    8880022    1    1    2    0    0 -0.66892016160E+03  0.18678165014E+03 -0.39032408773E+03  0.81122506982E+03  0.15294330000E+03 0.  0.
    8880022    1    1    2    0    0  0.66892016160E+03 -0.18678165014E+03  0.14084927072E+04  0.15778418573E+04  0.15294330000E+03 0.  0.
<mgrwt>
<rscale>  0 0.71114923E+03</rscale>
<asrwt>0</asrwt>
<pdfrwt beam="1">  1        1 0.26209504E+00 0.71114923E+03</pdfrwt>
<pdfrwt beam="2">  1       -1 0.10545372E+00 0.71114923E+03</pdfrwt>
<totfact> 0.42065260E+00</totfact>
</mgrwt>
</event>
<event>
 4    1  0.2731969E-009  0.5738475E+03  0.7818608E-02  0.9961201E-01
         -1   -1    0    0    0  501 -0.00000000000E+00  0.00000000000E+00  0.23149564080E+03  0.23149564085E+03  0.50400000000E-02 0.  1.
          1   -1    0    0  501    0  0.00000000000E+00 -0.00000000000E+00 -0.17694105074E+04  0.17694105074E+04  0.50400000000E-02 0. -1.
    8880022    1    1    2    0    0  0.28097268859E+03  0.47640705520E+03 -0.12119489125E+04  0.13409403990E+04  0.15294330000E+03 0.  0.
    8880022    1    1    2    0    0 -0.28097268859E+03 -0.47640705520E+03 -0.32596595401E+03  0.65996574924E+03  0.15294330000E+03 0.  0.
<mgrwt>
<rscale>  0 0.57384753E+03</rscale>
<asrwt>0</asrwt>
<pdfrwt beam="1">  1        1 0.27221699E+00 0.57384753E+03</pdfrwt>
<pdfrwt beam="2">  1       -1 0.35614715E-01 0.57384753E+03</pdfrwt>
<totfact> 0.34077737E+01</totfact>
</mgrwt>
</event>
<event>
 4    1  0.2731969E-009  0.1042624E+04  0.7818608E-02  0.9262993E-01
         -1   -1    0    0    0  501 -0.00000000000E+00  0.00000000000E+00  0.13983554982E+04  0.13983554982E+04  0.50400000000E-02 0.  1.
          1   -1    0    0  501    0  0.00000000000E+00 -0.00000000000E+00 -0.24930782085E+04  0.24930782085E+04  0.50400000000E-02 0. -1.
    8880022    1    1    2    0    0 -0.23082570647E+03 -0.10051824055E+04 -0.21614642346E+04  0.23997898794E+04  0.15294330000E+03 0.  0.
    8880022    1    1    2    0    0  0.23082570647E+03  0.10051824055E+04  0.10667415243E+04  0.14916438273E+04  0.15294330000E+03 0.  1.
<mgrwt>
<rscale>  0 0.10426235E+04</rscale>
<asrwt>0</asrwt>
<pdfrwt beam="1">  1        1 0.38355049E+00 0.10426235E+04</pdfrwt>
<pdfrwt beam="2">  1       -1 0.21513162E+00 0.10426235E+04</pdfrwt>
<totfact> 0.16462720E-01</totfact>
</mgrwt>
</event>
<event>
 4    1  0.2731969E-009  0.6921812E+03  0.7818608E-02  0.9730698E-01
          1   -1    0    0  501    0  0.00000000000E+00  0.00000000000E+00  0.14420991843E+04  0.14420991843E+04  0.50400000000E-02 0. -1.
         -1   -1    0    0    0  501 -0.00000000000E+00 -0.00000000000E+00 -0.70176038716E+03  0.70176038718E+03  0.50400000000E-02 0.  1.
    8880022    1    1    2    0    0  0.60551206177E+03  0.29845983274E+03 -0.40767813415E+03  0.80331578024E+03  0.15294330000E+03 0.  0.
    8880022    1    1    2    0    0 -0.60551206177E+03 -0.29845983274E+03  0.11480169313E+04  0.13405437913E+04  0.15294330000E+03 0.  0.
<mgrwt>
<rscale>  0 0.69218118E+03</rscale>
<asrwt>0</asrwt>
<pdfrwt beam="1">  1        1 0.22186141E+00 0.69218118E+03</pdfrwt>
<pdfrwt beam="2">  1       -1 0.10796314E+00 0.69218118E+03</pdfrwt>
<totfact> 0.60139645E+00</totfact>
</mgrwt>
</event>
<event>
 4    1  0.2731969E-009  0.2250264E+03  0.7818608E-02  0.1130190E+00
         -1   -1    0    0    0  501 -0.00000000000E+00  0.00000000000E+00  0.28733970588E+03  0.28733970592E+03  0.50400000000E-02 0.  1.
          1   -1    0    0  501    0  0.00000000000E+00 -0.00000000000E+00 -0.60372566370E+03  0.60372566372E+03  0.50400000000E-02 0. -1.
    8880022    1    1    2    0    0 -0.74485166941E+02 -0.14729965173E+03  0.21671731800E+03  0.31241523079E+03  0.15294330000E+03 0.  0.
    8880022    1    1    2    0    0  0.74485166941E+02  0.14729965173E+03 -0.53310327582E+03  0.57865013885E+03  0.15294330000E+03 0.  0.
<mgrwt>
<rscale>  0 0.22502640E+03</rscale>
<asrwt>0</asrwt>
<pdfrwt beam="1">  1        1 0.92880871E-01 0.22502640E+03</pdfrwt>
<pdfrwt beam="2">  1       -1 0.44206109E-01 0.22502640E+03</pdfrwt>
<totfact> 0.18291610E+02</totfact>
</mgrwt>
</event>
<event>
 4    1  0.2731969E-009  0.7816923E+03  0.7818608E-02  0.9586901E-01
         -1   -1    0    0    0  501 -0.00000000000E+00  0.00000000000E+00  0.85230839616E+03  0.85230839617E+03  0.50400000000E-02 0.  1.
          1   -1    0    0  501    0  0.00000000000E+00 -0.00000000000E+00 -0.11304335645E+04  0.11304335645E+04  0.50400000000E-02 0. -1.
    8880022    1    1    2    0    0  0.62265989419E+03 -0.44715313833E+03  0.46052808974E+03  0.90726459614E+03  0.15294330000E+03 0.  0.
    8880022    1    1    2    0    0 -0.62265989419E+03  0.44715313833E+03 -0.73865325806E+03  0.10754773645E+04  0.15294330000E+03 0.  0.
<mgrwt>
<rscale>  0 0.78169235E+03</rscale>
<asrwt>0</asrwt>
<pdfrwt beam="1">  1        1 0.17391286E+00 0.78169235E+03</pdfrwt>
<pdfrwt beam="2">  1       -1 0.13112437E+00 0.78169235E+03</pdfrwt>
<totfact> 0.61567947E+00</totfact>
</mgrwt>
</event>
<event>
 4    1  0.2731969E-009  0.1249049E+04  0.7818608E-02  0.9070975E-01
         -1   -1    0    0    0  501 -0.00000000000E+00  0.00000000000E+00  0.11721876855E+04  0.11721876855E+04  0.50400000000E-02 0.  1.
          1   -1    0    0  501    0  0.00000000000E+00 -0.00000000000E+00 -0.14345765801E+04  0.14345765801E+04  0.50400000000E-02 0. -1.
    8880022    1    1    2    0    0  0.92186634411E+03 -0.82879088282E+03 -0.48149826919E+03  0.13386426409E+04  0.15294330000E+03 0.  0.
    8880022    1    1    2    0    0 -0.92186634411E+03  0.82879088282E+03  0.21910937462E+03  0.12681216247E+04  0.15294330000E+03 0.  0.
<mgrwt>
<rscale>  0 0.12490491E+04</rscale>
<asrwt>0</asrwt>
<pdfrwt beam="1">  1        1 0.22070409E+00 0.12490491E+04</pdfrwt>
<pdfrwt beam="2">  1       -1 0.18033657E+00 0.12490491E+04</pdfrwt>
<totfact> 0.14652234E+00</totfact>
</mgrwt>
</event>
<event>
 4    1  0.2731969E-009  0.7405862E+03  0.7818608E-02  0.9650236E-01
          1   -1    0    0  501    0  0.00000000000E+00  0.00000000000E+00  0.11648297795E+04  0.11648297795E+04  0.50400000000E-02 0. -1.
         -1   -1    0    0    0  501 -0.00000000000E+00 -0.00000000000E+00 -0.67585843199E+03  0.67585843201E+03  0.50400000000E-02 0.  1.
    8880022    1    1    2    0    0  0.45532843263E+03 -0.56369521921E+03 -0.26238960002E+03  0.78569474794E+03  0.15294330000E+03 0.  0.
    8880022    1    1    2    0    0 -0.45532843263E+03  0.56369521921E+03  0.75136094752E+03  0.10549934636E+04  0.15294330000E+03 0.  0.
<mgrwt>
<rscale>  0 0.74058621E+03</rscale>
<asrwt>0</asrwt>
<pdfrwt beam="1">  1        1 0.17920458E+00 0.74058621E+03</pdfrwt>
<pdfrwt beam="2">  1       -1 0.10397822E+00 0.74058621E+03</pdfrwt>
<totfact> 0.10229257E+01</totfact>
</mgrwt>
</event>
<event>
 4    1  0.2731969E-009  0.4308561E+03  0.7818608E-02  0.1033590E+00
          1   -1    0    0  501    0  0.00000000000E+00  0.00000000000E+00  0.80557272299E+03  0.80557272300E+03  0.50400000000E-02 0. -1.
         -1   -1    0    0    0  501 -0.00000000000E+00 -0.00000000000E+00 -0.22922226663E+04  0.22922226663E+04  0.50400000000E-02 0.  1.
    8880022    1    1    2    0    0 -0.37226715606E+03 -0.15382620437E+03  0.72565430134E+03  0.84392603627E+03  0.15294330000E+03 0.  0.
    8880022    1    1    2    0    0  0.37226715606E+03  0.15382620437E+03 -0.22123042447E+04  0.22538693531E+04  0.15294330000E+03 0.  0.
<mgrwt>
<rscale>  0 0.43085611E+03</rscale>
<asrwt>0</asrwt>
<pdfrwt beam="1">  1        1 0.12393427E+00 0.43085611E+03</pdfrwt>
<pdfrwt beam="2">  1       -1 0.35264964E+00 0.43085611E+03</pdfrwt>
<totfact> 0.38385428E-01</totfact>
</mgrwt>
</event>
<event>
 4    1  0.2731969E-009  0.1438435E+04  0.7818608E-02  0.8926458E-01
          1   -1    0    0  501    0  0.00000000000E+00  0.00000000000E+00  0.25490090339E+04  0.25490090339E+04  0.50400000000E-02 0. -1.
         -1   -1    0    0    0  501 -0.00000000000E+00 -0.00000000000E+00 -0.97148842669E+03  0.97148842670E+03  0.50400000000E-02 0.  1.
    8880022    1    1    2    0    0  0.13412903237E+04  0.49663272166E+03  0.74932717081E+02  0.14403854893E+04  0.15294330000E+03 0.  0.
    8880022    1    1    2    0    0 -0.13412903237E+04 -0.49663272166E+03  0.15025878902E+04  0.20801119713E+04  0.15294330000E+03 0.  0.
<mgrwt>
<rscale>  0 0.14384351E+04</rscale>
<asrwt>0</asrwt>
<pdfrwt beam="1">  1        1 0.39215523E+00 0.14384351E+04</pdfrwt>
<pdfrwt beam="2">  1       -1 0.14945976E+00 0.14384351E+04</pdfrwt>
<totfact> 0.42228743E-01</totfact>
</mgrwt>
</event>
<event>
 4    1  0.2731969E-009  0.1282758E+04  0.7818608E-02  0.9043351E-01
         -1   -1    0    0    0  501 -0.00000000000E+00  0.00000000000E+00  0.91598572985E+03  0.91598572986E+03  0.50400000000E-02 0.  1.
          1   -1    0    0  501    0  0.00000000000E+00 -0.00000000000E+00 -0.23433878817E+04  0.23433878817E+04  0.50400000000E-02 0. -1.
    8880022    1    1    2    0    0  0.52349513806E+02  0.12725310601E+04 -0.15010640000E+04  0.19745026097E+04  0.15294330000E+03 0.  0.
    8880022    1    1    2    0    0 -0.52349513806E+02 -0.12725310601E+04  0.73661848123E+02  0.12848710019E+04  0.15294330000E+03 0.  0.
<mgrwt>
<rscale>  0 0.12827577E+04</rscale>
<asrwt>0</asrwt>
<pdfrwt beam="1">  1        1 0.36052121E+00 0.12827577E+04</pdfrwt>
<pdfrwt beam="2">  1       -1 0.14092088E+00 0.12827577E+04</pdfrwt>
<totfact> 0.69819639E-01</totfact>
</mgrwt>
</event>
<event>
 4    1  0.2731969E-009  0.9870437E+03  0.7818608E-02  0.9322870E-01
          1   -1    0    0  501    0  0.00000000000E+00  0.00000000000E+00  0.36067131917E+04  0.36067131917E+04  0.50400000000E-02 0. -1.
         -1   -1    0    0    0  501 -0.00000000000E+00 -0.00000000000E+00 -0.64677402133E+03  0.64677402135E+03  0.50400000000E-02 0.  1.
    8880022    1    1    2    0    0 -0.81644960702E+03  0.53317320935E+03 -0.14299323597E+03  0.99734765780E+03  0.15294330000E+03 0.  0.
    8880022    1    1    2    0    0  0.81644960702E+03 -0.53317320935E+03  0.31029324063E+04  0.32561395552E+04  0.15294330000E+03 0.  0.
<mgrwt>
<rscale>  0 0.98704371E+03</rscale>
<asrwt>0</asrwt>
<pdfrwt beam="1">  1        1 0.55487896E+00 0.98704371E+03</pdfrwt>
<pdfrwt beam="2">  1       -1 0.99503694E-01 0.98704371E+03</pdfrwt>
<totfact> 0.20701319E-01</totfact>
</mgrwt>
</event>
<event>
 4    1  0.2731969E-009  0.2557989E+03  0.7818608E-02  0.1109694E+00
         -1   -1    0    0    0  501 -0.00000000000E+00  0.00000000000E+00  0.81025707584E+03  0.81025707585E+03  0.50400000000E-02 0.  1.
          1   -1    0    0  501    0  0.00000000000E+00 -0.00000000000E+00 -0.96313010472E+03  0.96313010473E+03  0.50400000000E-02 0. -1.
    8880022    1    1    2    0    0  0.14439022395E+02  0.20453107651E+03 -0.92514290741E+03  0.95985545722E+03  0.15294330000E+03 0.  0.
    8880022    1    1    2    0    0 -0.14439022395E+02 -0.20453107651E+03  0.77226987852E+03  0.81353172336E+03  0.15294330000E+03 0.  1.
<mgrwt>
<rscale>  0 0.25579894E+03</rscale>
<asrwt>0</asrwt>
<pdfrwt beam="1">  1        1 0.14817386E+00 0.25579894E+03</pdfrwt>
<pdfrwt beam="2">  1       -1 0.12465493E+00 0.25579894E+03</pdfrwt>
<totfact> 0.10560544E+01</totfact>
</mgrwt>
</event>
<event>
 4    1  0.2731969E-009  0.9123035E+03  0.7818608E-02  0.9410331E-01
          1   -1    0    0  501    0  0.00000000000E+00  0.00000000000E+00  0.16735117232E+04  0.16735117232E+04  0.50400000000E-02 0. -1.
         -1   -1    0    0    0  501 -0.00000000000E+00 -0.00000000000E+00 -0.10991130112E+04  0.10991130113E+04  0.50400000000E-02 0.  1.
    8880022    1    1    2    0    0  0.40416513518E+03 -0.80346534607E+03 -0.73858886965E+03  0.11738020234E+04  0.15294330000E+03 0.  0.
    8880022    1    1    2    0    0 -0.40416513518E+03  0.80346534607E+03  0.13129875816E+04  0.15988227110E+04  0.15294330000E+03 0.  0.
<mgrwt>
<rscale>  0 0.91230350E+03</rscale>
<asrwt>0</asrwt>
<pdfrwt beam="1">  1        1 0.25746334E+00 0.91230350E+03</pdfrwt>
<pdfrwt beam="2">  1       -1 0.16909431E+00 0.91230350E+03</pdfrwt>
<totfact> 0.12683668E+00</totfact>
</mgrwt>
</event>
<event>
 4    1  0.2731969E-009  0.6030055E+03  0.7818608E-02  0.9899190E-01
          1   -1    0    0  501    0  0.00000000000E+00  0.00000000000E+00  0.23232219023E+03  0.23232219029E+03  0.50400000000E-02 0. -1.
         -1   -1    0    0    0  501 -0.00000000000E+00 -0.00000000000E+00 -0.18896842059E+04  0.18896842059E+04  0.50400000000E-02 0.  1.
    8880022    1    1    2    0    0 -0.57297251548E+03  0.10920856475E+03 -0.38897526958E+03  0.71757747141E+03  0.15294330000E+03 0.  0.
    8880022    1    1    2    0    0  0.57297251548E+03 -0.10920856475E+03 -0.12683867461E+04  0.14044289248E+04  0.15294330000E+03 0.  0.
<mgrwt>
<rscale>  0 0.60300553E+03</rscale>
<asrwt>0</asrwt>
<pdfrwt beam="1">  1        1 0.35741877E-01 0.60300553E+03</pdfrwt>
<pdfrwt beam="2">  1       -1 0.29072064E+00 0.60300553E+03</pdfrwt>
<totfact> 0.49574821E+00</totfact>
</mgrwt>
</event>
<event>
 4    1  0.2731969E-009  0.2758317E+03  0.7818608E-02  0.1097988E+00
         -1   -1    0    0    0  501 -0.00000000000E+00  0.00000000000E+00  0.16452689208E+04  0.16452689208E+04  0.50400000000E-02 0.  1.
          1   -1    0    0  501    0  0.00000000000E+00 -0.00000000000E+00 -0.11318607512E+03  0.11318607523E+03  0.50400000000E-02 0. -1.
    8880022    1    1    2    0    0  0.21926218630E+03  0.67938062515E+02  0.14422110843E+04  0.14683514401E+04  0.15294330000E+03 0.  0.
    8880022    1    1    2    0    0 -0.21926218630E+03 -0.67938062515E+02  0.89871761293E+02  0.29010355595E+03  0.15294330000E+03 0.  0.
<mgrwt>
<rscale>  0 0.27583172E+03</rscale>
<asrwt>0</asrwt>
<pdfrwt beam="1">  1        1 0.17413243E-01 0.27583172E+03</pdfrwt>
<pdfrwt beam="2">  1       -1 0.25311828E+00 0.27583172E+03</pdfrwt>
<totfact> 0.23292030E+01</totfact>
</mgrwt>
</event>
<event>
 4    1  0.2731969E-009  0.6662280E+03  0.7818608E-02  0.9776796E-01
          1   -1    0    0  501    0  0.00000000000E+00  0.00000000000E+00  0.74051316037E+03  0.74051316039E+03  0.50400000000E-02 0. -1.
         -1   -1    0    0    0  501 -0.00000000000E+00 -0.00000000000E+00 -0.82704901980E+03  0.82704901981E+03  0.50400000000E-02 0.  1.
    8880022    1    1    2    0    0 -0.39358853694E+02  0.64723945958E+03  0.36794529092E+03  0.76108043433E+03  0.15294330000E+03 0.  0.
    8880022    1    1    2    0    0  0.39358853694E+02 -0.64723945958E+03 -0.45448115034E+03  0.80648174587E+03  0.15294330000E+03 0.  0.
<mgrwt>
<rscale>  0 0.66622796E+03</rscale>
<asrwt>0</asrwt>
<pdfrwt beam="1">  1        1 0.11392510E+00 0.66622796E+03</pdfrwt>
<pdfrwt beam="2">  1       -1 0.12723831E+00 0.66622796E+03</pdfrwt>
<totfact> 0.13915399E+01</totfact>
</mgrwt>
</event>
<event>
 4    1  0.2731969E-009  0.8058354E+03  0.7818608E-02  0.9551609E-01
         -1   -1    0    0    0  501 -0.00000000000E+00  0.00000000000E+00  0.79594921937E+03  0.79594921939E+03  0.50400000000E-02 0.  1.
          1   -1    0    0  501    0  0.00000000000E+00 -0.00000000000E+00 -0.13779184576E+04  0.13779184576E+04  0.50400000000E-02 0. -1.
    8880022    1    1    2    0    0 -0.16850669152E+03 -0.77303595025E+03  0.40322097480E+03  0.90108706183E+03  0.15294330000E+03 0.  0.
    8880022    1    1    2    0    0  0.16850669152E+03  0.77303595025E+03 -0.98519021298E+03  0.12727806151E+04  0.15294330000E+03 0.  0.
<mgrwt>
<rscale>  0 0.80583543E+03</rscale>
<asrwt>0</asrwt>
<pdfrwt beam="1">  1        1 0.21198746E+00 0.80583543E+03</pdfrwt>
<pdfrwt beam="2">  1       -1 0.12245373E+00 0.80583543E+03</pdfrwt>
<totfact> 0.48366785E+00</totfact>
</mgrwt>
</event>
<event>
 4    1  0.2731969E-009  0.8780090E+03  0.7818608E-02  0.9453497E-01
          1   -1    0    0  501    0  0.00000000000E+00  0.00000000000E+00  0.13276707966E+04  0.13276707966E+04  0.50400000000E-02 0. -1.
         -1   -1    0    0    0  501 -0.00000000000E+00 -0.00000000000E+00 -0.97297521369E+03  0.97297521370E+03  0.50400000000E-02 0.  1.
    8880022    1    1    2    0    0 -0.80882225617E+03  0.30547470073E+03  0.90780889684E+03  0.12629397773E+04  0.15294330000E+03 0.  0.
    8880022    1    1    2    0    0  0.80882225617E+03 -0.30547470073E+03 -0.55311331397E+03  0.10377062330E+04  0.15294330000E+03 0.  0.
<mgrwt>
<rscale>  0 0.87800905E+03</rscale>
<asrwt>0</asrwt>
<pdfrwt beam="1">  1        1 0.20425704E+00 0.87800905E+03</pdfrwt>
<pdfrwt beam="2">  1       -1 0.14968850E+00 0.87800905E+03</pdfrwt>
<totfact> 0.30968334E+00</totfact>
</mgrwt>
</event>
<event>
 4    1  0.2731969E-009  0.3746897E+03  0.7818608E-02  0.1052914E+00
          1   -1    0    0  501    0  0.00000000000E+00  0.00000000000E+00  0.41912109140E+04  0.41912109141E+04  0.50400000000E-02 0. -1.
         -1   -1    0    0    0  501 -0.00000000000E+00 -0.00000000000E+00 -0.30223198776E+03  0.30223198780E+03  0.50400000000E-02 0.  1.
    8880022    1    1    2    0    0  0.15221391428E+03 -0.30631956610E+03 -0.17407282647E+03  0.41315100654E+03  0.15294330000E+03 0.  0.
    8880022    1    1    2    0    0 -0.15221391428E+03  0.30631956610E+03  0.40630517528E+04  0.40802918953E+04  0.15294330000E+03 0. -1.
<mgrwt>
<rscale>  0 0.37468975E+03</rscale>
<asrwt>0</asrwt>
<pdfrwt beam="1">  1        1 0.64480160E+00 0.37468975E+03</pdfrwt>
<pdfrwt beam="2">  1       -1 0.46497235E-01 0.37468975E+03</pdfrwt>
<totfact> 0.38222558E-01</totfact>
</mgrwt>
</event>
<event>
 4    1  0.2731969E-009  0.2682044E+03  0.7818608E-02  0.1102312E+00
          1   -1    0    0  501    0  0.00000000000E+00  0.00000000000E+00  0.62973696396E+03  0.62973696398E+03  0.50400000000E-02 0. -1.
         -1   -1    0    0    0  501 -0.00000000000E+00 -0.00000000000E+00 -0.34378680642E+03  0.34378680645E+03  0.50400000000E-02 0.  1.
    8880022    1    1    2    0    0 -0.55882455648E+02  0.21311754491E+03  0.54073310033E+03  0.60359413152E+03  0.15294330000E+03 0. -1.
    8880022    1    1    2    0    0  0.55882455648E+02 -0.21311754491E+03 -0.25478294278E+03  0.36992963891E+03  0.15294330000E+03 0.  0.
<mgrwt>
<rscale>  0 0.26820438E+03</rscale>
<asrwt>0</asrwt>
<pdfrwt beam="1">  1        1 0.96882610E-01 0.26820438E+03</pdfrwt>
<pdfrwt beam="2">  1       -1 0.52890278E-01 0.26820438E+03</pdfrwt>
<totfact> 0.12303363E+02</totfact>
</mgrwt>
</event>
<event>
 4    1  0.2731969E-009  0.1694528E+04  0.7818608E-02  0.8764491E-01
         -1   -1    0    0    0  501 -0.00000000000E+00  0.00000000000E+00  0.13098693775E+04  0.13098693775E+04  0.50400000000E-02 0.  1.
          1   -1    0    0  501    0  0.00000000000E+00 -0.00000000000E+00 -0.24296745137E+04  0.24296745137E+04  0.50400000000E-02 0. -1.
    8880022    1    1    2    0    0  0.13861636075E+04 -0.96259236460E+03  0.24715489825E+02  0.16947082685E+04  0.15294330000E+03 0.  0.
    8880022    1    1    2    0    0 -0.13861636075E+04  0.96259236460E+03 -0.11445206261E+04  0.20448356226E+04  0.15294330000E+03 0.  0.
<mgrwt>
<rscale>  0 0.16945280E+04</rscale>
<asrwt>0</asrwt>
<pdfrwt beam="1">  1        1 0.37379608E+00 0.16945280E+04</pdfrwt>
<pdfrwt beam="2">  1       -1 0.20151837E+00 0.16945280E+04</pdfrwt>
<totfact> 0.20588470E-01</totfact>
</mgrwt>
</event>
<event>
 4    1  0.2731969E-009  0.8138575E+03  0.7818608E-02  0.9540173E-01
         -1   -1    0    0    0  501 -0.00000000000E+00  0.00000000000E+00  0.57307120370E+03  0.57307120372E+03  0.50400000000E-02 0.  1.
          1   -1    0    0  501    0  0.00000000000E+00 -0.00000000000E+00 -0.14127543489E+04  0.14127543489E+04  0.50400000000E-02 0. -1.
    8880022    1    1    2    0    0  0.83135326088E+02 -0.79502262613E+03 -0.84328300526E+03  0.11719600413E+04  0.15294330000E+03 0.  0.
    8880022    1    1    2    0    0 -0.83135326088E+02  0.79502262613E+03  0.35998600394E+01  0.81386551131E+03  0.15294330000E+03 0.  0.
<mgrwt>
<rscale>  0 0.81385755E+03</rscale>
<asrwt>0</asrwt>
<pdfrwt beam="1">  1        1 0.21734682E+00 0.81385755E+03</pdfrwt>
<pdfrwt beam="2">  1       -1 0.88164801E-01 0.81385755E+03</pdfrwt>
<totfact> 0.97796102E+00</totfact>
</mgrwt>
</event>
<event>
 4    1  0.2731969E-009  0.4642597E+03  0.7818608E-02  0.1023553E+00
          1   -1    0    0  501    0  0.00000000000E+00  0.00000000000E+00  0.49776786866E+03  0.49776786869E+03  0.50400000000E-02 0. -1.
         -1   -1    0    0    0  501 -0.00000000000E+00 -0.00000000000E+00 -0.90653242135E+03  0.90653242136E+03  0.50400000000E-02 0.  1.
    8880022    1    1    2    0    0  0.21325771614E+03  0.38297074093E+03 -0.71185167120E+03  0.84986463434E+03  0.15294330000E+03 0.  0.
    8880022    1    1    2    0    0 -0.21325771614E+03 -0.38297074093E+03  0.30308711851E+03  0.55443565571E+03  0.15294330000E+03 0.  0.
<mgrwt>
<rscale>  0 0.46425973E+03</rscale>
<asrwt>0</asrwt>
<pdfrwt beam="1">  1        1 0.76579672E-01 0.46425973E+03</pdfrwt>
<pdfrwt beam="2">  1       -1 0.13946653E+00 0.46425973E+03</pdfrwt>
<totfact> 0.20145847E+01</totfact>
</mgrwt>
</event>
<event>
 4    1  0.2731969E-009  0.4189261E+03  0.7818608E-02  0.1037416E+00
         -1   -1    0    0    0  501 -0.00000000000E+00  0.00000000000E+00  0.68925439652E+03  0.68925439654E+03  0.50400000000E-02 0.  1.
          1   -1    0    0  501    0  0.00000000000E+00 -0.00000000000E+00 -0.94126687903E+03  0.94126687905E+03  0.50400000000E-02 0. -1.
    8880022    1    1    2    0    0 -0.17154168999E+03  0.35025830870E+03  0.57030962517E+03  0.70763843578E+03  0.15294330000E+03 0.  0.
    8880022    1    1    2    0    0  0.17154168999E+03 -0.35025830870E+03 -0.82232210768E+03  0.92288283981E+03  0.15294330000E+03 0.  0.
<mgrwt>
<rscale>  0 0.41892611E+03</rscale>
<asrwt>0</asrwt>
<pdfrwt beam="1">  1        1 0.14481029E+00 0.41892611E+03</pdfrwt>
<pdfrwt beam="2">  1       -1 0.10603914E+00 0.41892611E+03</pdfrwt>
<totfact> 0.15275339E+01</totfact>
</mgrwt>
</event>
<event>
 4    1  0.2731969E-009  0.1037551E+04  0.7818608E-02  0.9268292E-01
          1   -1    0    0  501    0  0.00000000000E+00  0.00000000000E+00  0.13366692047E+04  0.13366692047E+04  0.50400000000E-02 0. -1.
         -1   -1    0    0    0  501 -0.00000000000E+00 -0.00000000000E+00 -0.16762164373E+04  0.16762164374E+04  0.50400000000E-02 0.  1.
    8880022    1    1    2    0    0 -0.96406354982E+03 -0.35171206339E+03  0.91604858014E+03  0.13840724540E+04  0.15294330000E+03 0.  0.
    8880022    1    1    2    0    0  0.96406354982E+03  0.35171206339E+03 -0.12555958128E+04  0.16288131881E+04  0.15294330000E+03 0.  0.
<mgrwt>
<rscale>  0 0.10375507E+04</rscale>
<asrwt>0</asrwt>
<pdfrwt beam="1">  1        1 0.20564142E+00 0.10375507E+04</pdfrwt>
<pdfrwt beam="2">  1       -1 0.25787945E+00 0.10375507E+04</pdfrwt>
<totfact> 0.52997776E-01</totfact>
</mgrwt>
</event>
<event>
 4    1  0.2731969E-009  0.1138456E+04  0.7818608E-02  0.9168500E-01
          1   -1    0    0  501    0  0.00000000000E+00  0.00000000000E+00  0.21380144387E+04  0.21380144387E+04  0.50400000000E-02 0. -1.
         -1   -1    0    0    0  501 -0.00000000000E+00 -0.00000000000E+00 -0.96464392246E+03  0.96464392247E+03  0.50400000000E-02 0.  1.
    8880022    1    1    2    0    0  0.71665217226E+03 -0.87126315661E+03 -0.35895554640E+03  0.11937045536E+04  0.15294330000E+03 0.  0.
    8880022    1    1    2    0    0 -0.71665217226E+03  0.87126315661E+03  0.15323260626E+04  0.19089538075E+04  0.15294330000E+03 0.  0.
<mgrwt>
<rscale>  0 0.11384557E+04</rscale>
<asrwt>0</asrwt>
<pdfrwt beam="1">  1        1 0.32892530E+00 0.11384557E+04</pdfrwt>
<pdfrwt beam="2">  1       -1 0.14840676E+00 0.11384557E+04</pdfrwt>
<totfact> 0.85541688E-01</totfact>
</mgrwt>
</event>
<event>
 4    1  0.2731969E-009  0.7688274E+03  0.7818608E-02  0.9606268E-01
         -1   -1    0    0    0  501 -0.00000000000E+00  0.00000000000E+00  0.73480576658E+03  0.73480576660E+03  0.50400000000E-02 0.  1.
          1   -1    0    0  501    0  0.00000000000E+00 -0.00000000000E+00 -0.12688182752E+04  0.12688182752E+04  0.50400000000E-02 0. -1.
    8880022    1    1    2    0    0  0.58140342323E+03  0.47924306806E+03  0.33907364325E+03  0.84027760139E+03  0.15294330000E+03 0.  0.
    8880022    1    1    2    0    0 -0.58140342323E+03 -0.47924306806E+03 -0.87308615185E+03  0.11633464404E+04  0.15294330000E+03 0.  0.
<mgrwt>
<rscale>  0 0.76882736E+03</rscale>
<asrwt>0</asrwt>
<pdfrwt beam="1">  1        1 0.19520281E+00 0.76882736E+03</pdfrwt>
<pdfrwt beam="2">  1       -1 0.11304704E+00 0.76882736E+03</pdfrwt>
<totfact> 0.70446313E+00</totfact>
</mgrwt>
</event>
<event>
 4    1  0.2731969E-009  0.1118994E+04  0.7818608E-02  0.9186874E-01
         -1   -1    0    0    0  501 -0.00000000000E+00  0.00000000000E+00  0.98781611125E+03  0.98781611126E+03  0.50400000000E-02 0.  1.
          1   -1    0    0  501    0  0.00000000000E+00 -0.00000000000E+00 -0.26911393995E+04  0.26911393995E+04  0.50400000000E-02 0. -1.
    8880022    1    1    2    0    0  0.65337568230E+03 -0.89546465707E+03 -0.21895267251E+04  0.24588972461E+04  0.15294330000E+03 0.  0.
    8880022    1    1    2    0    0 -0.65337568230E+03  0.89546465707E+03  0.48620343676E+03  0.12200582647E+04  0.15294330000E+03 0.  0.
<mgrwt>
<rscale>  0 0.11189944E+04</rscale>
<asrwt>0</asrwt>
<pdfrwt beam="1">  1        1 0.41402144E+00 0.11189944E+04</pdfrwt>
<pdfrwt beam="2">  1       -1 0.15197171E+00 0.11189944E+04</pdfrwt>
<totfact> 0.33574744E-01</totfact>
</mgrwt>
</event>
<event>
 4    1  0.2731969E-009  0.5325806E+03  0.7818608E-02  0.1005608E+00
          1   -1    0    0  501    0  0.00000000000E+00  0.00000000000E+00  0.80856101511E+03  0.80856101513E+03  0.50400000000E-02 0. -1.
         -1   -1    0    0    0  501 -0.00000000000E+00 -0.00000000000E+00 -0.86363557131E+03  0.86363557132E+03  0.50400000000E-02 0.  1.
    8880022    1    1    2    0    0 -0.48182718491E+03  0.16760973137E+03  0.61675320879E+03  0.81487829259E+03  0.15294330000E+03 0.  0.
    8880022    1    1    2    0    0  0.48182718491E+03 -0.16760973137E+03 -0.67182776499E+03  0.85731829386E+03  0.15294330000E+03 0.  1.
<mgrwt>
<rscale>  0 0.53258061E+03</rscale>
<asrwt>0</asrwt>
<pdfrwt beam="1">  1        1 0.12439400E+00 0.53258061E+03</pdfrwt>
<pdfrwt beam="2">  1       -1 0.13286701E+00 0.53258061E+03</pdfrwt>
<totfact> 0.11120189E+01</totfact>
</mgrwt>
</event>
<event>
 4    1  0.2731969E-009  0.7053995E+03  0.7818608E-02  0.9708043E-01
         -1   -1    0    0    0  501 -0.00000000000E+00  0.00000000000E+00  0.18293507797E+04  0.18293507797E+04  0.50400000000E-02 0.  1.
          1   -1    0    0  501    0  0.00000000000E+00 -0.00000000000E+00 -0.11770715006E+04  0.11770715006E+04  0.50400000000E-02 0. -1.
    8880022    1    1    2    0    0  0.33893916022E+03 -0.59943061415E+03 -0.99199370077E+03  0.12172263433E+04  0.15294330000E+03 0.  0.
    8880022    1    1    2    0    0 -0.33893916022E+03  0.59943061415E+03  0.16442729799E+04  0.17891959370E+04  0.15294330000E+03 0.  0.
<mgrwt>
<rscale>  0 0.70539951E+03</rscale>
<asrwt>0</asrwt>
<pdfrwt beam="1">  1        1 0.18108792E+00 0.70539951E+03</pdfrwt>
<pdfrwt beam="2">  1       -1 0.28143858E+00 0.70539951E+03</pdfrwt>
<totfact> 0.51884656E-01</totfact>
</mgrwt>
</event>
<event>
 4    1  0.2731969E-009  0.1460224E+04  0.7818608E-02  0.8911343E-01
          1   -1    0    0  501    0  0.00000000000E+00  0.00000000000E+00  0.15547500356E+04  0.15547500356E+04  0.50400000000E-02 0. -1.
         -1   -1    0    0    0  501 -0.00000000000E+00 -0.00000000000E+00 -0.15180986996E+04  0.15180986996E+04  0.50400000000E-02 0.  1.
    8880022    1    1    2    0    0  0.75229406309E+03 -0.12421414460E+04 -0.45921288265E+03  0.15307285370E+04  0.15294330000E+03 0.  0.
    8880022    1    1    2    0    0 -0.75229406309E+03  0.12421414460E+04  0.49586421866E+03  0.15421201982E+04  0.15294330000E+03 0.  0.
<mgrwt>
<rscale>  0 0.14602237E+04</rscale>
<asrwt>0</asrwt>
<pdfrwt beam="1">  1        1 0.23919231E+00 0.14602237E+04</pdfrwt>
<pdfrwt beam="2">  1       -1 0.23355365E+00 0.14602237E+04</pdfrwt>
<totfact> 0.50919044E-01</totfact>
</mgrwt>
</event>
<event>
 4    1  0.2731969E-009  0.1342608E+04  0.7818608E-02  0.8996443E-01
         -1   -1    0    0    0  501 -0.00000000000E+00  0.00000000000E+00  0.94344721937E+03  0.94344721938E+03  0.50400000000E-02 0.  1.
          1   -1    0    0  501    0  0.00000000000E+00 -0.00000000000E+00 -0.25445237670E+04  0.25445237670E+04  0.50400000000E-02 0. -1.
    8880022    1    1    2    0    0 -0.98585921005E+03 -0.89849130444E+03 -0.16709831663E+04  0.21435441216E+04  0.15294330000E+03 0.  0.
    8880022    1    1    2    0    0  0.98585921005E+03  0.89849130444E+03  0.69906618745E+02  0.13444268647E+04  0.15294330000E+03 0.  0.
<mgrwt>
<rscale>  0 0.13426082E+04</rscale>
<asrwt>0</asrwt>
<pdfrwt beam="1">  1        1 0.39146519E+00 0.13426082E+04</pdfrwt>
<pdfrwt beam="2">  1       -1 0.14514573E+00 0.13426082E+04</pdfrwt>
<totfact> 0.46568054E-01</totfact>
</mgrwt>
</event>
<event>
 4    1  0.2731969E-009  0.6049158E+03  0.7818608E-02  0.9895259E-01
         -1   -1    0    0    0  501 -0.00000000000E+00  0.00000000000E+00  0.51577831479E+03  0.51577831481E+03  0.50400000000E-02 0.  1.
          1   -1    0    0  501    0  0.00000000000E+00 -0.00000000000E+00 -0.11141572381E+04  0.11141572381E+04  0.50400000000E-02 0. -1.
    8880022    1    1    2    0    0 -0.49134386284E+03  0.31798225725E+03  0.19198216871E+03  0.63464975663E+03  0.15294330000E+03 0.  1.
    8880022    1    1    2    0    0  0.49134386284E+03 -0.31798225725E+03 -0.79036109198E+03  0.99528579624E+03  0.15294330000E+03 0.  0.
<mgrwt>
<rscale>  0 0.60491583E+03</rscale>
<asrwt>0</asrwt>
<pdfrwt beam="1">  1        1 0.17140881E+00 0.60491583E+03</pdfrwt>
<pdfrwt beam="2">  1       -1 0.79350510E-01 0.60491583E+03</pdfrwt>
<totfact> 0.20636746E+01</totfact>
</mgrwt>
</event>
<event>
 4    1  0.2731969E-009  0.5579799E+03  0.7818608E-02  0.9996636E-01
         -1   -1    0    0    0  501 -0.00000000000E+00  0.00000000000E+00  0.99715305222E+03  0.99715305223E+03  0.50400000000E-02 0.  1.
          1   -1    0    0  501    0  0.00000000000E+00 -0.00000000000E+00 -0.95984974664E+03  0.95984974665E+03  0.50400000000E-02 0. -1.
    8880022    1    1    2    0    0  0.26189252686E+03 -0.46836120878E+03 -0.78509597838E+03  0.96318080638E+03  0.15294330000E+03 0.  0.
    8880022    1    1    2    0    0 -0.26189252686E+03  0.46836120878E+03  0.82239928396E+03  0.99382199250E+03  0.15294330000E+03 0.  0.
<mgrwt>
<rscale>  0 0.55797990E+03</rscale>
<asrwt>0</asrwt>
<pdfrwt beam="1">  1        1 0.14766919E+00 0.55797990E+03</pdfrwt>
<pdfrwt beam="2">  1       -1 0.15340816E+00 0.55797990E+03</pdfrwt>
<totfact> 0.57252634E+00</totfact>
</mgrwt>
</event>
<event>
 4    1  0.2731969E-009  0.6309159E+03  0.7818608E-02  0.9843263E-01
         -1   -1    0    0    0  501 -0.00000000000E+00  0.00000000000E+00  0.10464084075E+04  0.10464084075E+04  0.50400000000E-02 0.  1.
          1   -1    0    0  501    0  0.00000000000E+00 -0.00000000000E+00 -0.23002198851E+04  0.23002198851E+04  0.50400000000E-02 0. -1.
    8880022    1    1    2    0    0  0.17482617217E+03 -0.58659960044E+03  0.90179657008E+03  0.11005871108E+04  0.15294330000E+03 0.  0.
    8880022    1    1    2    0    0 -0.17482617217E+03  0.58659960044E+03 -0.21556080477E+04  0.22460411818E+04  0.15294330000E+03 0.  0.
<mgrwt>
<rscale>  0 0.63091595E+03</rscale>
<asrwt>0</asrwt>
<pdfrwt beam="1">  1        1 0.35387998E+00 0.63091595E+03</pdfrwt>
<pdfrwt beam="2">  1       -1 0.16098591E+00 0.63091595E+03</pdfrwt>
<totfact> 0.58805182E-01</totfact>
</mgrwt>
</event>
<event>
 4    1  0.2731969E-009  0.5018850E+03  0.7818608E-02  0.1013288E+00
          1   -1    0    0  501    0  0.00000000000E+00  0.00000000000E+00  0.33272500787E+04  0.33272500787E+04  0.50400000000E-02 0. -1.
         -1   -1    0    0    0  501 -0.00000000000E+00 -0.00000000000E+00 -0.96356776732E+02  0.96356776863E+02  0.50400000000E-02 0.  1.
    8880022    1    1    2    0    0 -0.28116494902E+03 -0.38657878134E+03  0.24079377891E+04  0.24596855352E+04  0.15294330000E+03 0.  0.
    8880022    1    1    2    0    0  0.28116494902E+03  0.38657878134E+03  0.82295551289E+03  0.96392132041E+03  0.15294330000E+03 0.  0.
<mgrwt>
<rscale>  0 0.50188498E+03</rscale>
<asrwt>0</asrwt>
<pdfrwt beam="1">  1        1 0.51188449E+00 0.50188498E+03</pdfrwt>
<pdfrwt beam="2">  1       -1 0.14824123E-01 0.50188498E+03</pdfrwt>
<totfact> 0.12833589E+01</totfact>
</mgrwt>
</event>
<event>
 4    1  0.2731969E-009  0.1072346E+04  0.7818608E-02  0.9232572E-01
         -1   -1    0    0    0  501 -0.00000000000E+00  0.00000000000E+00  0.20860266984E+04  0.20860266984E+04  0.50400000000E-02 0.  1.
          1   -1    0    0  501    0  0.00000000000E+00 -0.00000000000E+00 -0.13685998897E+04  0.13685998897E+04  0.50400000000E-02 0. -1.
    8880022    1    1    2    0    0 -0.10607930707E+04 -0.35403637992E+02 -0.97614825468E+03  0.14501008325E+04  0.15294330000E+03 0.  0.
    8880022    1    1    2    0    0  0.10607930707E+04  0.35403637992E+02  0.16935750634E+04  0.20045257556E+04  0.15294330000E+03 0.  0.
<mgrwt>
<rscale>  0 0.10723465E+04</rscale>
<asrwt>0</asrwt>
<pdfrwt beam="1">  1        1 0.21055383E+00 0.10723465E+04</pdfrwt>
<pdfrwt beam="2">  1       -1 0.32092718E+00 0.10723465E+04</pdfrwt>
<totfact> 0.19627514E-01</totfact>
</mgrwt>
</event>
<event>
 4    1  0.2731969E-009  0.7886261E+03  0.7818608E-02  0.9576628E-01
          1   -1    0    0  501    0  0.00000000000E+00  0.00000000000E+00  0.21825845205E+04  0.21825845205E+04  0.50400000000E-02 0. -1.
         -1   -1    0    0    0  501 -0.00000000000E+00 -0.00000000000E+00 -0.71909024935E+03  0.71909024937E+03  0.50400000000E-02 0.  1.
    8880022    1    1    2    0    0  0.58906491533E+03 -0.50153957742E+03  0.18590516208E+04  0.20194068446E+04  0.15294330000E+03 0.  0.
    8880022    1    1    2    0    0 -0.58906491533E+03  0.50153957742E+03 -0.39555734961E+03  0.88226792531E+03  0.15294330000E+03 0.  0.
<mgrwt>
<rscale>  0 0.78862607E+03</rscale>
<asrwt>0</asrwt>
<pdfrwt beam="1">  1        1 0.33578223E+00 0.78862607E+03</pdfrwt>
<pdfrwt beam="2">  1       -1 0.11062927E+00 0.78862607E+03</pdfrwt>
<totfact> 0.17708015E+00</totfact>
</mgrwt>
</event>
<event>
 4    1  0.2731969E-009  0.1737992E+04  0.7818608E-02  0.8739988E-01
         -1   -1    0    0    0  501 -0.00000000000E+00  0.00000000000E+00  0.31808812659E+04  0.31808812659E+04  0.50400000000E-02 0.  1.
          1   -1    0    0  501    0  0.00000000000E+00 -0.00000000000E+00 -0.11193224806E+04  0.11193224806E+04  0.50400000000E-02 0. -1.
    8880022    1    1    2    0    0 -0.68367462628E+03 -0.15905387234E+04  0.18679818679E+04  0.25514647434E+04  0.15294330000E+03 0.  0.
    8880022    1    1    2    0    0  0.68367462628E+03  0.15905387234E+04  0.19357691741E+03  0.17487390031E+04  0.15294330000E+03 0.  0.
<mgrwt>
<rscale>  0 0.17379920E+04</rscale>
<asrwt>0</asrwt>
<pdfrwt beam="1">  1        1 0.17220346E+00 0.17379920E+04</pdfrwt>
<pdfrwt beam="2">  1       -1 0.48936634E+00 0.17379920E+04</pdfrwt>
<totfact> 0.19697655E-02</totfact>
</mgrwt>
</event>
<event>
 4    1  0.2731969E-009  0.1384840E+04  0.7818608E-02  0.8964866E-01
         -1   -1    0    0    0  501 -0.00000000000E+00  0.00000000000E+00  0.15664042960E+04  0.15664042961E+04  0.50400000000E-02 0.  1.
          1   -1    0    0  501    0  0.00000000000E+00 -0.00000000000E+00 -0.13730170766E+04  0.13730170766E+04  0.50400000000E-02 0. -1.
    8880022    1    1    2    0    0 -0.54656692421E+03 -0.12631924899E+04 -0.38696957728E+03  0.14378900431E+04  0.15294330000E+03 0.  0.
    8880022    1    1    2    0    0  0.54656692421E+03  0.12631924899E+04  0.58035679675E+03  0.15015313296E+04  0.15294330000E+03 0.  0.
<mgrwt>
<rscale>  0 0.13848402E+04</rscale>
<asrwt>0</asrwt>
<pdfrwt beam="1">  1        1 0.21123339E+00 0.13848402E+04</pdfrwt>
<pdfrwt beam="2">  1       -1 0.24098528E+00 0.13848402E+04</pdfrwt>
<totfact> 0.61480918E-01</totfact>
</mgrwt>
</event>
<event>
 4    1  0.2731969E-009  0.1210368E+04  0.7818608E-02  0.9103830E-01
          1   -1    0    0  501    0  0.00000000000E+00  0.00000000000E+00  0.19897580206E+04  0.19897580206E+04  0.50400000000E-02 0. -1.
         -1   -1    0    0    0  501 -0.00000000000E+00 -0.00000000000E+00 -0.10896789790E+04  0.10896789790E+04  0.50400000000E-02 0.  1.
    8880022    1    1    2    0    0 -0.11505290533E+04  0.34333844701E+03 -0.42682730322E+03  0.12834218291E+04  0.15294330000E+03 0.  0.
    8880022    1    1    2    0    0  0.11505290533E+04 -0.34333844701E+03  0.13269063448E+04  0.17960151705E+04  0.15294330000E+03 0.  0.
<mgrwt>
<rscale>  0 0.12103677E+04</rscale>
<asrwt>0</asrwt>
<pdfrwt beam="1">  1        1 0.30611662E+00 0.12103677E+04</pdfrwt>
<pdfrwt beam="2">  1       -1 0.16764292E+00 0.12103677E+04</pdfrwt>
<totfact> 0.76066279E-01</totfact>
</mgrwt>
</event>
<event>
 4    1  0.2731969E-009  0.1350821E+04  0.7818608E-02  0.8990207E-01
         -1   -1    0    0    0  501 -0.00000000000E+00  0.00000000000E+00  0.37817381267E+04  0.37817381267E+04  0.50400000000E-02 0.  1.
          1   -1    0    0  501    0  0.00000000000E+00 -0.00000000000E+00 -0.10651450853E+04  0.10651450853E+04  0.50400000000E-02 0. -1.
    8880022    1    1    2    0    0  0.13417212636E+04 -0.33298459552E+02  0.31506657739E+04  0.34280331399E+04  0.15294330000E+03 0.  0.
    8880022    1    1    2    0    0 -0.13417212636E+04  0.33298459552E+02 -0.43407273255E+03  0.14188500720E+04  0.15294330000E+03 0.  0.
<mgrwt>
<rscale>  0 0.13508206E+04</rscale>
<asrwt>0</asrwt>
<pdfrwt beam="1">  1        1 0.16386847E+00 0.13508206E+04</pdfrwt>
<pdfrwt beam="2">  1       -1 0.58180587E+00 0.13508206E+04</pdfrwt>
<totfact> 0.66506876E-03</totfact>
</mgrwt>
</event>
<event>
 4    1  0.2731969E-009  0.8480943E+03  0.7818608E-02  0.9492898E-01
         -1   -1    0    0    0  501 -0.00000000000E+00  0.00000000000E+00  0.11210326707E+04  0.11210326707E+04  0.50400000000E-02 0.  1.
          1   -1    0    0  501    0  0.00000000000E+00 -0.00000000000E+00 -0.92104116053E+03  0.92104116054E+03  0.50400000000E-02 0. -1.
    8880022    1    1    2    0    0 -0.83365286671E+03 -0.29918440362E+02  0.66238973308E+03  0.10761152479E+04  0.15294330000E+03 0.  0.
    8880022    1    1    2    0    0  0.83365286671E+03  0.29918440362E+02 -0.46239822290E+03  0.96595858337E+03  0.15294330000E+03 0.  0.
<mgrwt>
<rscale>  0 0.84809426E+03</rscale>
<asrwt>0</asrwt>
<pdfrwt beam="1">  1        1 0.14169864E+00 0.84809426E+03</pdfrwt>
<pdfrwt beam="2">  1       -1 0.17246657E+00 0.84809426E+03</pdfrwt>
<totfact> 0.42206453E+00</totfact>
</mgrwt>
</event>
<event>
 4    1  0.2731969E-009  0.4124206E+03  0.7818608E-02  0.1039562E+00
         -1   -1    0    0    0  501 -0.00000000000E+00  0.00000000000E+00  0.10476228155E+04  0.10476228155E+04  0.50400000000E-02 0.  1.
          1   -1    0    0  501    0  0.00000000000E+00 -0.00000000000E+00 -0.46031077543E+03  0.46031077546E+03  0.50400000000E-02 0. -1.
    8880022    1    1    2    0    0 -0.35855224223E+03 -0.13468263373E+03 -0.31294032536E+03  0.51770882017E+03  0.15294330000E+03 0.  0.
    8880022    1    1    2    0    0  0.35855224223E+03  0.13468263373E+03  0.90025236546E+03  0.99022477083E+03  0.15294330000E+03 0.  1.
<mgrwt>
<rscale>  0 0.41242063E+03</rscale>
<asrwt>0</asrwt>
<pdfrwt beam="1">  1        1 0.70817043E-01 0.41242063E+03</pdfrwt>
<pdfrwt beam="2">  1       -1 0.16117274E+00 0.41242063E+03</pdfrwt>
<totfact> 0.15385993E+01</totfact>
</mgrwt>
</event>
<event>
 4    1  0.2731969E-009  0.1043106E+04  0.7818608E-02  0.9262491E-01
          1   -1    0    0  501    0  0.00000000000E+00  0.00000000000E+00  0.19734232346E+04  0.19734232346E+04  0.50400000000E-02 0. -1.
         -1   -1    0    0    0  501 -0.00000000000E+00 -0.00000000000E+00 -0.12305366798E+04  0.12305366798E+04  0.50400000000E-02 0.  1.
    8880022    1    1    2    0    0  0.84599123472E+03 -0.59074257560E+03 -0.81870397038E+03  0.13260263210E+04  0.15294330000E+03 0.  0.
    8880022    1    1    2    0    0 -0.84599123472E+03  0.59074257560E+03  0.15615905252E+04  0.18779335934E+04  0.15294330000E+03 0.  0.
<mgrwt>
<rscale>  0 0.10431058E+04</rscale>
<asrwt>0</asrwt>
<pdfrwt beam="1">  1        1 0.30360357E+00 0.10431058E+04</pdfrwt>
<pdfrwt beam="2">  1       -1 0.18931334E+00 0.10431058E+04</pdfrwt>
<totfact> 0.55761799E-01</totfact>
</mgrwt>
</event>
<event>
 4    1  0.2731969E-009  0.4952834E+03  0.7818608E-02  0.1015017E+00
          1   -1    0    0  501    0  0.00000000000E+00  0.00000000000E+00  0.19949127025E+04  0.19949127025E+04  0.50400000000E-02 0. -1.
         -1   -1    0    0    0  501 -0.00000000000E+00 -0.00000000000E+00 -0.77823771647E+03  0.77823771649E+03  0.50400000000E-02 0.  1.
    8880022    1    1    2    0    0  0.41091828077E+03 -0.23034783121E+03 -0.66398774644E+03  0.82836304677E+03  0.15294330000E+03 0.  0.
    8880022    1    1    2    0    0 -0.41091828077E+03  0.23034783121E+03  0.18806627324E+04  0.19447873722E+04  0.15294330000E+03 0.  0.
<mgrwt>
<rscale>  0 0.49528336E+03</rscale>
<asrwt>0</asrwt>
<pdfrwt beam="1">  1        1 0.30690964E+00 0.49528336E+03</pdfrwt>
<pdfrwt beam="2">  1       -1 0.11972888E+00 0.49528336E+03</pdfrwt>
<totfact> 0.20989985E+00</totfact>
</mgrwt>
</event>
<event>
 4    1  0.2731969E-009  0.1244205E+04  0.7818608E-02  0.9075020E-01
          1   -1    0    0  501    0  0.00000000000E+00  0.00000000000E+00  0.27005637434E+04  0.27005637434E+04  0.50400000000E-02 0. -1.
         -1   -1    0    0    0  501 -0.00000000000E+00 -0.00000000000E+00 -0.95686975352E+03  0.95686975353E+03  0.50400000000E-02 0.  1.
    8880022    1    1    2    0    0 -0.73461729145E+03 -0.99246727567E+03  0.20297749698E+04  0.23807628901E+04  0.15294330000E+03 0.  0.
    8880022    1    1    2    0    0  0.73461729145E+03  0.99246727567E+03 -0.28608097988E+03  0.12766706068E+04  0.15294330000E+03 0.  0.
<mgrwt>
<rscale>  0 0.12442048E+04</rscale>
<asrwt>0</asrwt>
<pdfrwt beam="1">  1        1 0.41547134E+00 0.12442048E+04</pdfrwt>
<pdfrwt beam="2">  1       -1 0.14721073E+00 0.12442048E+04</pdfrwt>
<totfact> 0.35358293E-01</totfact>
</mgrwt>
</event>
<event>
 4    1  0.2731969E-009  0.9050485E+03  0.7818608E-02  0.9419293E-01
          1   -1    0    0  501    0  0.00000000000E+00  0.00000000000E+00  0.33140896455E+04  0.33140896455E+04  0.50400000000E-02 0. -1.
         -1   -1    0    0    0  501 -0.00000000000E+00 -0.00000000000E+00 -0.43557689579E+03  0.43557689582E+03  0.50400000000E-02 0.  1.
    8880022    1    1    2    0    0  0.81509332183E+03  0.36241405879E+03  0.26723309590E+04  0.28214296873E+04  0.15294330000E+03 0.  0.
    8880022    1    1    2    0    0 -0.81509332183E+03 -0.36241405879E+03  0.20618179078E+03  0.92823685403E+03  0.15294330000E+03 0.  0.
<mgrwt>
<rscale>  0 0.90504847E+03</rscale>
<asrwt>0</asrwt>
<pdfrwt beam="1">  1        1 0.50985993E+00 0.90504847E+03</pdfrwt>
<pdfrwt beam="2">  1       -1 0.67011832E-01 0.90504847E+03</pdfrwt>
<totfact> 0.82754896E-01</totfact>
</mgrwt>
</event>
<event>
 4    1  0.2731969E-009  0.2884922E+03  0.7818608E-02  0.1091139E+00
          1   -1    0    0  501    0  0.00000000000E+00  0.00000000000E+00  0.15954231232E+04  0.15954231232E+04  0.50400000000E-02 0. -1.
         -1   -1    0    0    0  501 -0.00000000000E+00 -0.00000000000E+00 -0.22660534604E+03  0.22660534609E+03  0.50400000000E-02 0.  1.
    8880022    1    1    2    0    0  0.76891756900E+02  0.23221488070E+03 -0.11489441360E+03  0.31052934223E+03  0.15294330000E+03 0.  0.
    8880022    1    1    2    0    0 -0.76891756900E+02 -0.23221488070E+03  0.14837121907E+04  0.15114991270E+04  0.15294330000E+03 0.  0.
<mgrwt>
<rscale>  0 0.28849219E+03</rscale>
<asrwt>0</asrwt>
<pdfrwt beam="1">  1        1 0.24544971E+00 0.28849219E+03</pdfrwt>
<pdfrwt beam="2">  1       -1 0.34862362E-01 0.28849219E+03</pdfrwt>
<totfact> 0.49107222E+01</totfact>
</mgrwt>
</event>
<event>
 4    1  0.2731969E-009  0.6267062E+03  0.7818608E-02  0.9851497E-01
         -1   -1    0    0    0  501 -0.00000000000E+00  0.00000000000E+00  0.10337269503E+04  0.10337269503E+04  0.50400000000E-02 0.  1.
          1   -1    0    0  501    0  0.00000000000E+00 -0.00000000000E+00 -0.75992335043E+03  0.75992335045E+03  0.50400000000E-02 0. -1.
    8880022    1    1    2    0    0  0.29345488336E+03  0.53221546088E+03  0.77106578505E+03  0.99363130147E+03  0.15294330000E+03 0.  1.
    8880022    1    1    2    0    0 -0.29345488336E+03 -0.53221546088E+03 -0.49726218520E+03  0.80001899928E+03  0.15294330000E+03 0.  0.
<mgrwt>
<rscale>  0 0.62670625E+03</rscale>
<asrwt>0</asrwt>
<pdfrwt beam="1">  1        1 0.11691129E+00 0.62670625E+03</pdfrwt>
<pdfrwt beam="2">  1       -1 0.15903491E+00 0.62670625E+03</pdfrwt>
<totfact> 0.75062020E+00</totfact>
</mgrwt>
</event>
<event>
 4    1  0.2731969E-009  0.3661796E+03  0.7818608E-02  0.1056163E+00
          1   -1    0    0  501    0  0.00000000000E+00  0.00000000000E+00  0.13954277895E+04  0.13954277895E+04  0.50400000000E-02 0. -1.
         -1   -1    0    0    0  501 -0.00000000000E+00 -0.00000000000E+00 -0.59161509553E+03  0.59161509555E+03  0.50400000000E-02 0.  1.
    8880022    1    1    2    0    0  0.27741225437E+03 -0.18367976476E+03  0.13111707588E+04  0.13613435373E+04  0.15294330000E+03 0. -1.
    8880022    1    1    2    0    0 -0.27741225437E+03  0.18367976476E+03 -0.50735806480E+03  0.62569934777E+03  0.15294330000E+03 0.  0.
<mgrwt>
<rscale>  0 0.36617956E+03</rscale>
<asrwt>0</asrwt>
<pdfrwt beam="1">  1        1 0.21468120E+00 0.36617956E+03</pdfrwt>
<pdfrwt beam="2">  1       -1 0.91017708E-01 0.36617956E+03</pdfrwt>
<totfact> 0.10262876E+01</totfact>
</mgrwt>
</event>
<event>
 4    1  0.2731969E-009  0.6711914E+03  0.7818608E-02  0.9767808E-01
         -1   -1    0    0    0  501 -0.00000000000E+00  0.00000000000E+00  0.47568572207E+03  0.47568572209E+03  0.50400000000E-02 0.  1.
          1   -1    0    0  501    0  0.00000000000E+00 -0.00000000000E+00 -0.30594221791E+04  0.30594221791E+04  0.50400000000E-02 0. -1.
    8880022    1    1    2    0    0  0.52741750661E+03  0.38592355763E+03  0.17684922431E+03  0.69409907057E+03  0.15294330000E+03 0.  0.
    8880022    1    1    2    0    0 -0.52741750661E+03 -0.38592355763E+03 -0.27605856814E+04  0.28410088306E+04  0.15294330000E+03 0.  0.
<mgrwt>
<rscale>  0 0.67119138E+03</rscale>
<asrwt>0</asrwt>
<pdfrwt beam="1">  1        1 0.47068032E+00 0.67119138E+03</pdfrwt>
<pdfrwt beam="2">  1       -1 0.73182421E-01 0.67119138E+03</pdfrwt>
<totfact> 0.11193136E+00</totfact>
</mgrwt>
</event>
<event>
 4    1  0.2731969E-009  0.7026262E+03  0.7818608E-02  0.9712752E-01
          1   -1    0    0  501    0  0.00000000000E+00  0.00000000000E+00  0.20810479257E+04  0.20810479258E+04  0.50400000000E-02 0. -1.
         -1   -1    0    0    0  501 -0.00000000000E+00 -0.00000000000E+00 -0.47994133332E+03  0.47994133334E+03  0.50400000000E-02 0.  1.
    8880022    1    1    2    0    0  0.60829868698E+03 -0.31664582903E+03  0.17111586630E+04  0.18497966095E+04  0.15294330000E+03 0.  0.
    8880022    1    1    2    0    0 -0.60829868698E+03  0.31664582903E+03 -0.11005207053E+03  0.71119264961E+03  0.15294330000E+03 0.  1.
<mgrwt>
<rscale>  0 0.70262616E+03</rscale>
<asrwt>0</asrwt>
<pdfrwt beam="1">  1        1 0.32016121E+00 0.70262616E+03</pdfrwt>
<pdfrwt beam="2">  1       -1 0.73837129E-01 0.70262616E+03</pdfrwt>
<totfact> 0.51415877E+00</totfact>
</mgrwt>
</event>
<event>
 4    1  0.2731969E-009  0.7456555E+03  0.7818608E-02  0.9642191E-01
          1   -1    0    0  501    0  0.00000000000E+00  0.00000000000E+00  0.14414941528E+04  0.14414941529E+04  0.50400000000E-02 0. -1.
         -1   -1    0    0    0  501 -0.00000000000E+00 -0.00000000000E+00 -0.73993371847E+03  0.73993371849E+03  0.50400000000E-02 0.  1.
    8880022    1    1    2    0    0  0.46107335031E+03  0.56570477460E+03 -0.40388059061E+03  0.84801044266E+03  0.15294330000E+03 0.  1.
    8880022    1    1    2    0    0 -0.46107335031E+03 -0.56570477460E+03  0.11054410250E+04  0.13334174287E+04  0.15294330000E+03 0.  0.
<mgrwt>
<rscale>  0 0.74565554E+03</rscale>
<asrwt>0</asrwt>
<pdfrwt beam="1">  1        1 0.22176833E+00 0.74565554E+03</pdfrwt>
<pdfrwt beam="2">  1       -1 0.11383596E+00 0.74565554E+03</pdfrwt>
<totfact> 0.52640293E+00</totfact>
</mgrwt>
</event>
<event>
 4    1  0.2731969E-009  0.4917940E+03  0.7818608E-02  0.1015943E+00
         -1   -1    0    0    0  501 -0.00000000000E+00  0.00000000000E+00  0.96450140694E+03  0.96450140695E+03  0.50400000000E-02 0.  1.
          1   -1    0    0  501    0  0.00000000000E+00 -0.00000000000E+00 -0.97012490679E+03  0.97012490681E+03  0.50400000000E-02 0. -1.
    8880022    1    1    2    0    0 -0.37450817170E+03  0.27966642470E+03  0.83015365578E+03  0.96489192400E+03  0.15294330000E+03 0.  0.
    8880022    1    1    2    0    0  0.37450817170E+03 -0.27966642470E+03 -0.83577715564E+03  0.96973438976E+03  0.15294330000E+03 0.  0.
<mgrwt>
<rscale>  0 0.49179399E+03</rscale>
<asrwt>0</asrwt>
<pdfrwt beam="1">  1        1 0.14924999E+00 0.49179399E+03</pdfrwt>
<pdfrwt beam="2">  1       -1 0.14838483E+00 0.49179399E+03</pdfrwt>
<totfact> 0.62336707E+00</totfact>
</mgrwt>
</event>
<event>
 4    1  0.2731969E-009  0.8967965E+03  0.7818608E-02  0.9429595E-01
         -1   -1    0    0    0  501 -0.00000000000E+00  0.00000000000E+00  0.13837283005E+04  0.13837283005E+04  0.50400000000E-02 0.  1.
          1   -1    0    0  501    0  0.00000000000E+00 -0.00000000000E+00 -0.70627585672E+03  0.70627585674E+03  0.50400000000E-02 0. -1.
    8880022    1    1    2    0    0  0.65871518665E+03  0.58902176452E+03  0.77846041880E+03  0.11875372048E+04  0.15294330000E+03 0.  0.
    8880022    1    1    2    0    0 -0.65871518665E+03 -0.58902176452E+03 -0.10100797501E+03  0.90246695243E+03  0.15294330000E+03 0.  0.
<mgrwt>
<rscale>  0 0.89679651E+03</rscale>
<asrwt>0</asrwt>
<pdfrwt beam="1">  1        1 0.10865782E+00 0.89679651E+03</pdfrwt>
<pdfrwt beam="2">  1       -1 0.21288128E+00 0.89679651E+03</pdfrwt>
<totfact> 0.33618493E+00</totfact>
</mgrwt>
</event>
<event>
 4    1  0.2731969E-009  0.3538622E+03  0.7818608E-02  0.1061041E+00
         -1   -1    0    0    0  501 -0.00000000000E+00  0.00000000000E+00  0.27409033452E+03  0.27409033457E+03  0.50400000000E-02 0.  1.
          1   -1    0    0  501    0  0.00000000000E+00 -0.00000000000E+00 -0.63428054036E+03  0.63428054038E+03  0.50400000000E-02 0. -1.
    8880022    1    1    2    0    0 -0.23306549049E+03 -0.21796170830E+03 -0.42031296775E+03  0.54943741501E+03  0.15294330000E+03 0.  0.
    8880022    1    1    2    0    0  0.23306549049E+03  0.21796170830E+03  0.60122761910E+02  0.35893345993E+03  0.15294330000E+03 0.  0.
<mgrwt>
<rscale>  0 0.35386224E+03</rscale>
<asrwt>0</asrwt>
<pdfrwt beam="1">  1        1 0.97581622E-01 0.35386224E+03</pdfrwt>
<pdfrwt beam="2">  1       -1 0.42167744E-01 0.35386224E+03</pdfrwt>
<totfact> 0.18257930E+02</totfact>
</mgrwt>
</event>
<event>
 4    1  0.2731969E-009  0.9000164E+03  0.7818608E-02  0.9425561E-01
         -1   -1    0    0    0  501 -0.00000000000E+00  0.00000000000E+00  0.17897925098E+04  0.17897925098E+04  0.50400000000E-02 0.  1.
          1   -1    0    0  501    0  0.00000000000E+00 -0.00000000000E+00 -0.17177245135E+04  0.17177245135E+04  0.50400000000E-02 0. -1.
    8880022    1    1    2    0    0  0.98036233280E+02 -0.88149117190E+03 -0.14690564849E+04  0.17228338277E+04  0.15294330000E+03 0.  0.
    8880022    1    1    2    0    0 -0.98036233280E+02  0.88149117190E+03  0.15411244812E+04  0.17846831956E+04  0.15294330000E+03 0.  0.
<mgrwt>
<rscale>  0 0.90001636E+03</rscale>
<asrwt>0</asrwt>
<pdfrwt beam="1">  1        1 0.26426531E+00 0.90001636E+03</pdfrwt>
<pdfrwt beam="2">  1       -1 0.27535269E+00 0.90001636E+03</pdfrwt>
<totfact> 0.22907863E-01</totfact>
</mgrwt>
</event>
<event>
 4    1  0.2731969E-009  0.8934614E+03  0.7818608E-02  0.9433792E-01
         -1   -1    0    0    0  501 -0.00000000000E+00  0.00000000000E+00  0.11931782151E+04  0.11931782151E+04  0.50400000000E-02 0.  1.
          1   -1    0    0  501    0  0.00000000000E+00 -0.00000000000E+00 -0.86904639977E+03  0.86904639979E+03  0.50400000000E-02 0. -1.
    8880022    1    1    2    0    0  0.37004456214E+03 -0.79871682081E+03  0.65673665301E+03  0.11088625804E+04  0.15294330000E+03 0.  0.
    8880022    1    1    2    0    0 -0.37004456214E+03  0.79871682081E+03 -0.33260483765E+03  0.95336203452E+03  0.15294330000E+03 0.  0.
<mgrwt>
<rscale>  0 0.89346135E+03</rscale>
<asrwt>0</asrwt>
<pdfrwt beam="1">  1        1 0.13369945E+00 0.89346135E+03</pdfrwt>
<pdfrwt beam="2">  1       -1 0.18356588E+00 0.89346135E+03</pdfrwt>
<totfact> 0.38507610E+00</totfact>
</mgrwt>
</event>
<event>
 4    1  0.2731969E-009  0.2780702E+03  0.7818608E-02  0.1096748E+00
          1   -1    0    0  501    0  0.00000000000E+00  0.00000000000E+00  0.31713498137E+03  0.31713498141E+03  0.50400000000E-02 0. -1.
         -1   -1    0    0    0  501 -0.00000000000E+00 -0.00000000000E+00 -0.30919831403E+03  0.30919831407E+03  0.50400000000E-02 0.  1.
    8880022    1    1    2    0    0 -0.58385746625E+02 -0.22477203725E+03 -0.14003831314E+03  0.31134184797E+03  0.15294330000E+03 0.  1.
    8880022    1    1    2    0    0  0.58385746625E+02  0.22477203725E+03  0.14797498048E+03  0.31499144751E+03  0.15294330000E+03 0. -1.
<mgrwt>
<rscale>  0 0.27807017E+03</rscale>
<asrwt>0</asrwt>
<pdfrwt beam="1">  1        1 0.48789997E-01 0.27807017E+03</pdfrwt>
<pdfrwt beam="2">  1       -1 0.47568972E-01 0.27807017E+03</pdfrwt>
<totfact> 0.36999316E+02</totfact>
</mgrwt>
</event>
<event>
 4    1  0.2731969E-009  0.8828216E+03  0.7818608E-02  0.9447314E-01
          1   -1    0    0  501    0  0.00000000000E+00  0.00000000000E+00  0.20222796395E+04  0.20222796395E+04  0.50400000000E-02 0. -1.
         -1   -1    0    0    0  501 -0.00000000000E+00 -0.00000000000E+00 -0.11053107867E+04  0.11053107867E+04  0.50400000000E-02 0.  1.
    8880022    1    1    2    0    0 -0.63066460850E+03 -0.59853529217E+03  0.17205411978E+04  0.19338138511E+04  0.15294330000E+03 0.  0.
    8880022    1    1    2    0    0  0.63066460850E+03  0.59853529217E+03 -0.80357234506E+03  0.11937765751E+04  0.15294330000E+03 0.  0.
<mgrwt>
<rscale>  0 0.88282161E+03</rscale>
<asrwt>0</asrwt>
<pdfrwt beam="1">  1        1 0.31111994E+00 0.88282161E+03</pdfrwt>
<pdfrwt beam="2">  1       -1 0.17004781E+00 0.88282161E+03</pdfrwt>
<totfact> 0.73070688E-01</totfact>
</mgrwt>
</event>
<event>
 4    1  0.2731969E-009  0.7964080E+03  0.7818608E-02  0.9565231E-01
          1   -1    0    0  501    0  0.00000000000E+00  0.00000000000E+00  0.74308343431E+03  0.74308343433E+03  0.50400000000E-02 0. -1.
         -1   -1    0    0    0  501 -0.00000000000E+00 -0.00000000000E+00 -0.16794501443E+04  0.16794501443E+04  0.50400000000E-02 0.  1.
    8880022    1    1    2    0    0 -0.12219986088E+03 -0.77197226674E+03  0.38122714633E+03  0.88294947575E+03  0.15294330000E+03 0.  0.
    8880022    1    1    2    0    0  0.12219986088E+03  0.77197226674E+03 -0.13175938563E+04  0.15395841028E+04  0.15294330000E+03 0.  0.
<mgrwt>
<rscale>  0 0.79640796E+03</rscale>
<asrwt>0</asrwt>
<pdfrwt beam="1">  1        1 0.11432053E+00 0.79640796E+03</pdfrwt>
<pdfrwt beam="2">  1       -1 0.25837694E+00 0.79640796E+03</pdfrwt>
<totfact> 0.15889991E+00</totfact>
</mgrwt>
</event>
<event>
 4    1  0.2731969E-009  0.7077666E+03  0.7818608E-02  0.9704042E-01
         -1   -1    0    0    0  501 -0.00000000000E+00  0.00000000000E+00  0.55241483757E+03  0.55241483759E+03  0.50400000000E-02 0.  1.
          1   -1    0    0  501    0  0.00000000000E+00 -0.00000000000E+00 -0.13937400219E+04  0.13937400219E+04  0.50400000000E-02 0. -1.
    8880022    1    1    2    0    0 -0.52119561979E+03  0.45375883458E+03 -0.99582587724E+03  0.12217212386E+04  0.15294330000E+03 0.  0.
    8880022    1    1    2    0    0  0.52119561979E+03 -0.45375883458E+03  0.15450069287E+03  0.72443362095E+03  0.15294330000E+03 0.  1.
<mgrwt>
<rscale>  0 0.70776663E+03</rscale>
<asrwt>0</asrwt>
<pdfrwt beam="1">  1        1 0.21442154E+00 0.70776663E+03</pdfrwt>
<pdfrwt beam="2">  1       -1 0.84986899E-01 0.70776663E+03</pdfrwt>
<totfact> 0.11086918E+01</totfact>
</mgrwt>
</event>
<event>
 4    1  0.2731969E-009  0.8026453E+03  0.7818608E-02  0.9556196E-01
         -1   -1    0    0    0  501 -0.00000000000E+00  0.00000000000E+00  0.16766686122E+04  0.16766686122E+04  0.50400000000E-02 0.  1.
          1   -1    0    0  501    0  0.00000000000E+00 -0.00000000000E+00 -0.16058914959E+04  0.16058914959E+04  0.50400000000E-02 0. -1.
    8880022    1    1    2    0    0  0.32890120688E+03  0.71601104283E+03  0.14669126057E+04  0.16721459455E+04  0.15294330000E+03 0.  0.
    8880022    1    1    2    0    0 -0.32890120688E+03 -0.71601104283E+03 -0.13961354894E+04  0.16104141626E+04  0.15294330000E+03 0. -1.
<mgrwt>
<rscale>  0 0.80264530E+03</rscale>
<asrwt>0</asrwt>
<pdfrwt beam="1">  1        1 0.24706023E+00 0.80264530E+03</pdfrwt>
<pdfrwt beam="2">  1       -1 0.25794902E+00 0.80264530E+03</pdfrwt>
<totfact> 0.36016268E-01</totfact>
</mgrwt>
</event>
<event>
 4    1  0.2731969E-009  0.7169748E+03  0.7818608E-02  0.9688635E-01
         -1   -1    0    0    0  501 -0.00000000000E+00  0.00000000000E+00  0.27908738050E+03  0.27908738054E+03  0.50400000000E-02 0.  1.
          1   -1    0    0  501    0  0.00000000000E+00 -0.00000000000E+00 -0.29907512917E+04  0.29907512917E+04  0.50400000000E-02 0. -1.
    8880022    1    1    2    0    0  0.27549758271E+03 -0.64402045184E+03 -0.23691291135E+04  0.24752425477E+04  0.15294330000E+03 0.  0.
    8880022    1    1    2    0    0 -0.27549758271E+03  0.64402045184E+03 -0.34253479766E+03  0.79459612451E+03  0.15294330000E+03 0.  0.
<mgrwt>
<rscale>  0 0.71697483E+03</rscale>
<asrwt>0</asrwt>
<pdfrwt beam="1">  1        1 0.46011556E+00 0.71697483E+03</pdfrwt>
<pdfrwt beam="2">  1       -1 0.42936522E-01 0.71697483E+03</pdfrwt>
<totfact> 0.34963611E+00</totfact>
</mgrwt>
</event>
<event>
 4    1  0.2731969E-009  0.1003795E+04  0.7818608E-02  0.9304392E-01
         -1   -1    0    0    0  501 -0.00000000000E+00  0.00000000000E+00  0.14702533581E+04  0.14702533581E+04  0.50400000000E-02 0.  1.
          1   -1    0    0  501    0  0.00000000000E+00 -0.00000000000E+00 -0.11348264603E+04  0.11348264603E+04  0.50400000000E-02 0. -1.
    8880022    1    1    2    0    0  0.74884954804E+03  0.65072097822E+03 -0.65205395819E+03  0.11969876585E+04  0.15294330000E+03 0.  0.
    8880022    1    1    2    0    0 -0.74884954804E+03 -0.65072097822E+03  0.98748085598E+03  0.14080921600E+04  0.15294330000E+03 0.  0.
<mgrwt>
<rscale>  0 0.10037953E+04</rscale>
<asrwt>0</asrwt>
<pdfrwt beam="1">  1        1 0.17458869E+00 0.10037953E+04</pdfrwt>
<pdfrwt beam="2">  1       -1 0.22619282E+00 0.10037953E+04</pdfrwt>
<totfact> 0.12017065E+00</totfact>
</mgrwt>
</event>
<event>
 4    1  0.5191726E-009  0.1703729E+04  0.7818608E-02  0.8759240E-01
          1   -1    0    0  501    0  0.00000000000E+00  0.00000000000E+00  0.53446420486E+04  0.53446420486E+04  0.50400000000E-02 0. -1.
         -1   -1    0    0    0  501 -0.00000000000E+00 -0.00000000000E+00 -0.13483538530E+04  0.13483538530E+04  0.50400000000E-02 0.  1.
    8880022    1    1    2    0    0  0.69330715382E+03 -0.15487501368E+04 -0.58800823681E+03  0.18023448991E+04  0.15294330000E+03 0.  0.
    8880022    1    1    2    0    0 -0.69330715382E+03  0.15487501368E+04  0.45842964324E+04  0.48906510025E+04  0.15294330000E+03 0.  0.
<mgrwt>
<rscale>  0 0.17037293E+04</rscale>
<asrwt>0</asrwt>
<pdfrwt beam="1">  1        1 0.82225263E+00 0.17037293E+04</pdfrwt>
<pdfrwt beam="2">  1       -1 0.20743905E+00 0.17037293E+04</pdfrwt>
<totfact> 0.35573383E-04</totfact>
</mgrwt>
</event>
<event>
 4    1  0.2731969E-009  0.1993180E+04  0.7818608E-02  0.8609816E-01
         -1   -1    0    0    0  501 -0.00000000000E+00  0.00000000000E+00  0.29684263524E+04  0.29684263524E+04  0.50400000000E-02 0.  1.
          1   -1    0    0  501    0  0.00000000000E+00 -0.00000000000E+00 -0.14261841336E+04  0.14261841336E+04  0.50400000000E-02 0. -1.
    8880022    1    1    2    0    0 -0.16110941557E+04  0.11635083848E+04  0.13164463322E+04  0.23886813807E+04  0.15294330000E+03 0.  0.
    8880022    1    1    2    0    0  0.16110941557E+04 -0.11635083848E+04  0.22579588655E+03  0.20059291053E+04  0.15294330000E+03 0.  0.
<mgrwt>
<rscale>  0 0.19931803E+04</rscale>
<asrwt>0</asrwt>
<pdfrwt beam="1">  1        1 0.21941295E+00 0.19931803E+04</pdfrwt>
<pdfrwt beam="2">  1       -1 0.45668097E+00 0.19931803E+04</pdfrwt>
<totfact> 0.19130548E-02</totfact>
</mgrwt>
</event>
<event>
 4    1  0.2731969E-009  0.8157977E+03  0.7818608E-02  0.9537428E-01
         -1   -1    0    0    0  501 -0.00000000000E+00  0.00000000000E+00  0.36815829660E+03  0.36815829663E+03  0.50400000000E-02 0.  1.
          1   -1    0    0  501    0  0.00000000000E+00 -0.00000000000E+00 -0.23644183774E+04  0.23644183775E+04  0.50400000000E-02 0. -1.
    8880022    1    1    2    0    0 -0.78598104299E+03 -0.15610281289E+03 -0.33516378985E+03  0.88196411898E+03  0.15294330000E+03 0.  0.
    8880022    1    1    2    0    0  0.78598104299E+03  0.15610281289E+03 -0.16610962910E+04  0.18506125551E+04  0.15294330000E+03 0.  0.
<mgrwt>
<rscale>  0 0.81579773E+03</rscale>
<asrwt>0</asrwt>
<pdfrwt beam="1">  1        1 0.36375666E+00 0.81579773E+03</pdfrwt>
<pdfrwt beam="2">  1       -1 0.56639740E-01 0.81579773E+03</pdfrwt>
<totfact> 0.55365344E+00</totfact>
</mgrwt>
</event>
<event>
 4    1  0.2731969E-009  0.6352864E+03  0.7818608E-02  0.9834787E-01
         -1   -1    0    0    0  501 -0.00000000000E+00  0.00000000000E+00  0.35661963844E+03  0.35661963847E+03  0.50400000000E-02 0.  1.
          1   -1    0    0  501    0  0.00000000000E+00 -0.00000000000E+00 -0.24831924359E+04  0.24831924359E+04  0.50400000000E-02 0. -1.
    8880022    1    1    2    0    0  0.61414490950E+03 -0.54983360552E+02 -0.15771595032E+02  0.63548212880E+03  0.15294330000E+03 0.  0.
    8880022    1    1    2    0    0 -0.61414490950E+03  0.54983360552E+02 -0.21108012025E+04  0.22043299456E+04  0.15294330000E+03 0.  0.
<mgrwt>
<rscale>  0 0.63528639E+03</rscale>
<asrwt>0</asrwt>
<pdfrwt beam="1">  1        1 0.38202959E+00 0.63528639E+03</pdfrwt>
<pdfrwt beam="2">  1       -1 0.54864561E-01 0.63528639E+03</pdfrwt>
<totfact> 0.50584327E+00</totfact>
</mgrwt>
</event>
<event>
 4    1  0.2731969E-009  0.9724207E+03  0.7818608E-02  0.9339321E-01
          1   -1    0    0  501    0  0.00000000000E+00  0.00000000000E+00  0.17644900149E+04  0.17644900149E+04  0.50400000000E-02 0. -1.
         -1   -1    0    0    0  501 -0.00000000000E+00 -0.00000000000E+00 -0.16046214027E+04  0.16046214027E+04  0.50400000000E-02 0.  1.
    8880022    1    1    2    0    0  0.67448901772E+03 -0.68357514716E+03 -0.12948354645E+04  0.16193211386E+04  0.15294330000E+03 0.  0.
    8880022    1    1    2    0    0 -0.67448901772E+03  0.68357514716E+03  0.14547040767E+04  0.17497902791E+04  0.15294330000E+03 0.  0.
<mgrwt>
<rscale>  0 0.97242073E+03</rscale>
<asrwt>0</asrwt>
<pdfrwt beam="1">  1        1 0.27146000E+00 0.97242073E+03</pdfrwt>
<pdfrwt beam="2">  1       -1 0.24686483E+00 0.97242073E+03</pdfrwt>
<totfact> 0.32067547E-01</totfact>
</mgrwt>
</event>
<event>
 4    1  0.2731969E-009  0.6634725E+03  0.7818608E-02  0.9781822E-01
         -1   -1    0    0    0  501 -0.00000000000E+00  0.00000000000E+00  0.84787589601E+03  0.84787589602E+03  0.50400000000E-02 0.  1.
          1   -1    0    0  501    0  0.00000000000E+00 -0.00000000000E+00 -0.12911617374E+04  0.12911617374E+04  0.50400000000E-02 0. -1.
    8880022    1    1    2    0    0  0.30027088471E+03  0.57152558624E+03  0.60535248543E+03  0.89813550456E+03  0.15294330000E+03 0.  0.
    8880022    1    1    2    0    0 -0.30027088471E+03 -0.57152558624E+03 -0.10486383268E+04  0.12409021288E+04  0.15294330000E+03 0.  0.
<mgrwt>
<rscale>  0 0.66347250E+03</rscale>
<asrwt>0</asrwt>
<pdfrwt beam="1">  1        1 0.19864027E+00 0.66347250E+03</pdfrwt>
<pdfrwt beam="2">  1       -1 0.13044245E+00 0.66347250E+03</pdfrwt>
<totfact> 0.48700615E+00</totfact>
</mgrwt>
</event>
<event>
 4    1  0.2731969E-009  0.9825184E+03  0.7818608E-02  0.9327929E-01
          1   -1    0    0  501    0  0.00000000000E+00  0.00000000000E+00  0.93697576819E+03  0.93697576820E+03  0.50400000000E-02 0. -1.
         -1   -1    0    0    0  501 -0.00000000000E+00 -0.00000000000E+00 -0.10768328594E+04  0.10768328594E+04  0.50400000000E-02 0.  1.
    8880022    1    1    2    0    0 -0.93947776281E+03  0.24358209113E+03 -0.27929751685E+03  0.10214447894E+04  0.15294330000E+03 0.  0.
    8880022    1    1    2    0    0  0.93947776281E+03 -0.24358209113E+03  0.13944042566E+03  0.99236383815E+03  0.15294330000E+03 0.  0.
<mgrwt>
<rscale>  0 0.98251837E+03</rscale>
<asrwt>0</asrwt>
<pdfrwt beam="1">  1        1 0.14415012E+00 0.98251837E+03</pdfrwt>
<pdfrwt beam="2">  1       -1 0.16566659E+00 0.98251837E+03</pdfrwt>
<totfact> 0.45199530E+00</totfact>
</mgrwt>
</event>
<event>
 4    1  0.2731969E-009  0.8272072E+03  0.7818608E-02  0.9521450E-01
         -1   -1    0    0    0  501 -0.00000000000E+00  0.00000000000E+00  0.10076731799E+04  0.10076731799E+04  0.50400000000E-02 0.  1.
          1   -1    0    0  501    0  0.00000000000E+00 -0.00000000000E+00 -0.77662384977E+03  0.77662384978E+03  0.50400000000E-02 0. -1.
    8880022    1    1    2    0    0 -0.17366700872E+03  0.79417875360E+03 -0.20068384328E+03  0.85120254967E+03  0.15294330000E+03 0.  1.
    8880022    1    1    2    0    0  0.17366700872E+03 -0.79417875360E+03  0.43173317339E+03  0.93309448000E+03  0.15294330000E+03 0.  0.
<mgrwt>
<rscale>  0 0.82720721E+03</rscale>
<asrwt>0</asrwt>
<pdfrwt beam="1">  1        1 0.11948059E+00 0.82720721E+03</pdfrwt>
<pdfrwt beam="2">  1       -1 0.15502664E+00 0.82720721E+03</pdfrwt>
<totfact> 0.75593043E+00</totfact>
</mgrwt>
</event>
<event>
 4    1  0.2731969E-009  0.5927770E+03  0.7818608E-02  0.9920506E-01
         -1   -1    0    0    0  501 -0.00000000000E+00  0.00000000000E+00  0.19756973500E+03  0.19756973507E+03  0.50400000000E-02 0.  1.
          1   -1    0    0  501    0  0.00000000000E+00 -0.00000000000E+00 -0.27387052625E+04  0.27387052625E+04  0.50400000000E-02 0. -1.
    8880022    1    1    2    0    0 -0.34202746217E+03 -0.45935836519E+03 -0.40127037956E+03  0.71582292718E+03  0.15294330000E+03 0.  0.
    8880022    1    1    2    0    0  0.34202746217E+03  0.45935836519E+03 -0.21398651479E+04  0.22204520704E+04  0.15294330000E+03 0.  0.
<mgrwt>
<rscale>  0 0.59277698E+03</rscale>
<asrwt>0</asrwt>
<pdfrwt beam="1">  1        1 0.42133924E+00 0.59277698E+03</pdfrwt>
<pdfrwt beam="2">  1       -1 0.30395346E-01 0.59277698E+03</pdfrwt>
<totfact> 0.10006382E+01</totfact>
</mgrwt>
</event>
<event>
 4    1  0.2731969E-009  0.5545470E+03  0.7818608E-02  0.1000447E+00
          1   -1    0    0  501    0  0.00000000000E+00  0.00000000000E+00  0.18889149896E+04  0.18889149896E+04  0.50400000000E-02 0. -1.
         -1   -1    0    0    0  501 -0.00000000000E+00 -0.00000000000E+00 -0.60996166885E+03  0.60996166887E+03  0.50400000000E-02 0.  1.
    8880022    1    1    2    0    0  0.31968734831E+03  0.42653337006E+03  0.17092555781E+04  0.17969632719E+04  0.15294330000E+03 0. -1.
    8880022    1    1    2    0    0 -0.31968734831E+03 -0.42653337006E+03 -0.43030225737E+03  0.70191338650E+03  0.15294330000E+03 0.  0.
<mgrwt>
<rscale>  0 0.55454699E+03</rscale>
<asrwt>0</asrwt>
<pdfrwt beam="1">  1        1 0.29060231E+00 0.55454699E+03</pdfrwt>
<pdfrwt beam="2">  1       -1 0.93840257E-01 0.55454699E+03</pdfrwt>
<totfact> 0.42634961E+00</totfact>
</mgrwt>
</event>
<event>
 4    1  0.2731969E-009  0.9231138E+03  0.7818608E-02  0.9397141E-01
          1   -1    0    0  501    0  0.00000000000E+00  0.00000000000E+00  0.20919116995E+04  0.20919116995E+04  0.50400000000E-02 0. -1.
         -1   -1    0    0    0  501 -0.00000000000E+00 -0.00000000000E+00 -0.42106863283E+03  0.42106863286E+03  0.50400000000E-02 0.  1.
    8880022    1    1    2    0    0  0.64297341392E+03  0.64446302267E+03  0.60861947702E+03  0.11056928685E+04  0.15294330000E+03 0.  0.
    8880022    1    1    2    0    0 -0.64297341392E+03 -0.64446302267E+03  0.10622235897E+04  0.14072874639E+04  0.15294330000E+03 0.  1.
<mgrwt>
<rscale>  0 0.92311378E+03</rscale>
<asrwt>0</asrwt>
<pdfrwt beam="1">  1        1 0.32183257E+00 0.92311378E+03</pdfrwt>
<pdfrwt beam="2">  1       -1 0.64779790E-01 0.92311378E+03</pdfrwt>
<totfact> 0.63782383E+00</totfact>
</mgrwt>
</event>
<event>
 4    1  0.2731969E-009  0.6100739E+03  0.7818608E-02  0.9884724E-01
         -1   -1    0    0    0  501 -0.00000000000E+00  0.00000000000E+00  0.10884029544E+04  0.10884029545E+04  0.50400000000E-02 0.  1.
          1   -1    0    0  501    0  0.00000000000E+00 -0.00000000000E+00 -0.19198287964E+04  0.19198287964E+04  0.50400000000E-02 0. -1.
    8880022    1    1    2    0    0  0.18126117448E+03 -0.56208795724E+03  0.94788240972E+03  0.11272405248E+04  0.15294330000E+03 0.  0.
    8880022    1    1    2    0    0 -0.18126117448E+03  0.56208795724E+03 -0.17793082517E+04  0.18809912261E+04  0.15294330000E+03 0.  0.
<mgrwt>
<rscale>  0 0.61007388E+03</rscale>
<asrwt>0</asrwt>
<pdfrwt beam="1">  1        1 0.29535828E+00 0.61007388E+03</pdfrwt>
<pdfrwt beam="2">  1       -1 0.16744661E+00 0.61007388E+03</pdfrwt>
<totfact> 0.95000528E-01</totfact>
</mgrwt>
</event>
<event>
 4    1  0.2731969E-009  0.4520353E+03  0.7818608E-02  0.1027117E+00
          1   -1    0    0  501    0  0.00000000000E+00  0.00000000000E+00  0.27573364763E+04  0.27573364763E+04  0.50400000000E-02 0. -1.
         -1   -1    0    0    0  501 -0.00000000000E+00 -0.00000000000E+00 -0.17621518458E+03  0.17621518466E+03  0.50400000000E-02 0.  1.
    8880022    1    1    2    0    0  0.32857014991E+03 -0.27015912754E+03  0.24070996214E+04  0.24491762979E+04  0.15294330000E+03 0.  0.
    8880022    1    1    2    0    0 -0.32857014991E+03  0.27015912754E+03  0.17402167027E+03  0.48437536306E+03  0.15294330000E+03 0.  0.
<mgrwt>
<rscale>  0 0.45203534E+03</rscale>
<asrwt>0</asrwt>
<pdfrwt beam="1">  1        1 0.42420561E+00 0.45203534E+03</pdfrwt>
<pdfrwt beam="2">  1       -1 0.27110028E-01 0.45203534E+03</pdfrwt>
<totfact> 0.12239716E+01</totfact>
</mgrwt>
</event>
<event>
 4    1  0.2731969E-009  0.4935721E+03  0.7818608E-02  0.1015470E+00
          1   -1    0    0  501    0  0.00000000000E+00  0.00000000000E+00  0.35250803815E+03  0.35250803819E+03  0.50400000000E-02 0. -1.
         -1   -1    0    0    0  501 -0.00000000000E+00 -0.00000000000E+00 -0.18707960492E+04  0.18707960492E+04  0.50400000000E-02 0.  1.
    8880022    1    1    2    0    0 -0.45890194034E+02  0.46702871057E+03 -0.16419053008E+04  0.17144872109E+04  0.15294330000E+03 0.  0.
    8880022    1    1    2    0    0  0.45890194034E+02 -0.46702871057E+03  0.12361728983E+03  0.50881687645E+03  0.15294330000E+03 0.  0.
<mgrwt>
<rscale>  0 0.49357206E+03</rscale>
<asrwt>0</asrwt>
<pdfrwt beam="1">  1        1 0.54232007E-01 0.49357206E+03</pdfrwt>
<pdfrwt beam="2">  1       -1 0.28781477E+00 0.49357206E+03</pdfrwt>
<totfact> 0.30916350E+00</totfact>
</mgrwt>
</event>
<event>
 4    1  0.2731969E-009  0.1330880E+04  0.7818608E-02  0.9005429E-01
         -1   -1    0    0    0  501 -0.00000000000E+00  0.00000000000E+00  0.12632218855E+04  0.12632218855E+04  0.50400000000E-02 0.  1.
          1   -1    0    0  501    0  0.00000000000E+00 -0.00000000000E+00 -0.25386130956E+04  0.25386130956E+04  0.50400000000E-02 0. -1.
    8880022    1    1    2    0    0 -0.83692146861E+03 -0.10234316676E+04  0.63416761095E+03  0.14742490070E+04  0.15294330000E+03 0.  0.
    8880022    1    1    2    0    0  0.83692146861E+03  0.10234316676E+04 -0.19095588211E+04  0.23275859742E+04  0.15294330000E+03 0.  0.
<mgrwt>
<rscale>  0 0.13308800E+04</rscale>
<asrwt>0</asrwt>
<pdfrwt beam="1">  1        1 0.39055586E+00 0.13308800E+04</pdfrwt>
<pdfrwt beam="2">  1       -1 0.19434183E+00 0.13308800E+04</pdfrwt>
<totfact> 0.20293389E-01</totfact>
</mgrwt>
</event>
<event>
 4    1  0.2731969E-009  0.3102766E+03  0.7818608E-02  0.1080213E+00
         -1   -1    0    0    0  501 -0.00000000000E+00  0.00000000000E+00  0.34567828596E+03  0.34567828600E+03  0.50400000000E-02 0.  1.
          1   -1    0    0  501    0  0.00000000000E+00 -0.00000000000E+00 -0.87246837467E+03  0.87246837469E+03  0.50400000000E-02 0. -1.
    8880022    1    1    2    0    0  0.21514602802E+03 -0.16307079134E+03  0.23915144372E+03  0.39174604326E+03  0.15294330000E+03 0.  1.
    8880022    1    1    2    0    0 -0.21514602802E+03  0.16307079134E+03 -0.76594153244E+03  0.82640061743E+03  0.15294330000E+03 0.  0.
<mgrwt>
<rscale>  0 0.31027657E+03</rscale>
<asrwt>0</asrwt>
<pdfrwt beam="1">  1        1 0.13422590E+00 0.31027657E+03</pdfrwt>
<pdfrwt beam="2">  1       -1 0.53181275E-01 0.31027657E+03</pdfrwt>
<totfact> 0.73942631E+01</totfact>
</mgrwt>
</event>
<event>
 4    1  0.2731969E-009  0.3043954E+03  0.7818608E-02  0.1083064E+00
         -1   -1    0    0    0  501 -0.00000000000E+00  0.00000000000E+00  0.97854033777E+03  0.97854033778E+03  0.50400000000E-02 0.  1.
          1   -1    0    0  501    0  0.00000000000E+00 -0.00000000000E+00 -0.25748733141E+04  0.25748733141E+04  0.50400000000E-02 0. -1.
    8880022    1    1    2    0    0 -0.18493553886E+03 -0.18725312711E+03  0.94556599408E+03  0.99335370806E+03  0.15294330000E+03 0.  0.
    8880022    1    1    2    0    0  0.18493553886E+03  0.18725312711E+03 -0.25418989704E+04  0.25600599438E+04  0.15294330000E+03 0. -1.
<mgrwt>
<rscale>  0 0.30439537E+03</rscale>
<asrwt>0</asrwt>
<pdfrwt beam="1">  1        1 0.39613435E+00 0.30439537E+03</pdfrwt>
<pdfrwt beam="2">  1       -1 0.15054467E+00 0.30439537E+03</pdfrwt>
<totfact> 0.52825982E-01</totfact>
</mgrwt>
</event>
<event>
 4    1  0.2731969E-009  0.6476758E+03  0.7818608E-02  0.9811150E-01
         -1   -1    0    0    0  501 -0.00000000000E+00  0.00000000000E+00  0.67026470043E+03  0.67026470045E+03  0.50400000000E-02 0.  1.
          1   -1    0    0  501    0  0.00000000000E+00 -0.00000000000E+00 -0.95565821058E+03  0.95565821059E+03  0.50400000000E-02 0. -1.
    8880022    1    1    2    0    0 -0.26670950724E+03  0.57005112916E+03 -0.62028169724E+03  0.89679054859E+03  0.15294330000E+03 0.  0.
    8880022    1    1    2    0    0  0.26670950724E+03 -0.57005112916E+03  0.33488818710E+03  0.72913236245E+03  0.15294330000E+03 0.  0.
<mgrwt>
<rscale>  0 0.64767577E+03</rscale>
<asrwt>0</asrwt>
<pdfrwt beam="1">  1        1 0.14702434E+00 0.64767577E+03</pdfrwt>
<pdfrwt beam="2">  1       -1 0.10311765E+00 0.64767577E+03</pdfrwt>
<totfact> 0.15216041E+01</totfact>
</mgrwt>
</event>
<event>
 4    1  0.2731969E-009  0.3635830E+03  0.7818608E-02  0.1057174E+00
         -1   -1    0    0    0  501 -0.00000000000E+00  0.00000000000E+00  0.92058234681E+03  0.92058234683E+03  0.50400000000E-02 0.  1.
          1   -1    0    0  501    0  0.00000000000E+00 -0.00000000000E+00 -0.43242388899E+03  0.43242388902E+03  0.50400000000E-02 0. -1.
    8880022    1    1    2    0    0  0.37122958726E+02  0.32775419622E+03 -0.30880475043E+03  0.47702510847E+03  0.15294330000E+03 0.  0.
    8880022    1    1    2    0    0 -0.37122958726E+02 -0.32775419622E+03  0.79696320825E+03  0.87598112738E+03  0.15294330000E+03 0.  0.
<mgrwt>
<rscale>  0 0.36358298E+03</rscale>
<asrwt>0</asrwt>
<pdfrwt beam="1">  1        1 0.66526752E-01 0.36358298E+03</pdfrwt>
<pdfrwt beam="2">  1       -1 0.14162805E+00 0.36358298E+03</pdfrwt>
<totfact> 0.23818734E+01</totfact>
</mgrwt>
</event>
<event>
 4    1  0.2731969E-009  0.2882001E+03  0.7818608E-02  0.1091293E+00
         -1   -1    0    0    0  501 -0.00000000000E+00  0.00000000000E+00  0.11485229596E+03  0.11485229607E+03  0.50400000000E-02 0.  1.
          1   -1    0    0  501    0  0.00000000000E+00 -0.00000000000E+00 -0.13211227386E+04  0.13211227386E+04  0.50400000000E-02 0. -1.
    8880022    1    1    2    0    0 -0.21401649455E+03  0.11774785889E+03 -0.12010546906E+03  0.31222523109E+03  0.15294330000E+03 0.  0.
    8880022    1    1    2    0    0  0.21401649455E+03 -0.11774785889E+03 -0.10861649736E+04  0.11237498036E+04  0.15294330000E+03 0.  0.
<mgrwt>
<rscale>  0 0.28820005E+03</rscale>
<asrwt>0</asrwt>
<pdfrwt beam="1">  1        1 0.20324964E+00 0.28820005E+03</pdfrwt>
<pdfrwt beam="2">  1       -1 0.17669585E-01 0.28820005E+03</pdfrwt>
<totfact> 0.23391465E+02</totfact>
</mgrwt>
</event>
<event>
 4    1  0.2731969E-009  0.4463392E+03  0.7818608E-02  0.1028819E+00
          1   -1    0    0  501    0  0.00000000000E+00  0.00000000000E+00  0.14517125797E+04  0.14517125797E+04  0.50400000000E-02 0. -1.
         -1   -1    0    0    0  501 -0.00000000000E+00 -0.00000000000E+00 -0.37972624335E+03  0.37972624339E+03  0.50400000000E-02 0.  1.
    8880022    1    1    2    0    0  0.37475380732E+02  0.41763929871E+03  0.12677714993E+04  0.13440473264E+04  0.15294330000E+03 0.  0.
    8880022    1    1    2    0    0 -0.37475380732E+02 -0.41763929871E+03 -0.19578516301E+03  0.48739149670E+03  0.15294330000E+03 0.  0.
<mgrwt>
<rscale>  0 0.44633915E+03</rscale>
<asrwt>0</asrwt>
<pdfrwt beam="1">  1        1 0.22334039E+00 0.44633915E+03</pdfrwt>
<pdfrwt beam="2">  1       -1 0.58419424E-01 0.44633915E+03</pdfrwt>
<totfact> 0.22819017E+01</totfact>
</mgrwt>
</event>
<event>
 4    1  0.2731969E-009  0.9133427E+03  0.7818608E-02  0.9409054E-01
          1   -1    0    0  501    0  0.00000000000E+00  0.00000000000E+00  0.63207509529E+03  0.63207509531E+03  0.50400000000E-02 0. -1.
         -1   -1    0    0    0  501 -0.00000000000E+00 -0.00000000000E+00 -0.18126182459E+04  0.18126182459E+04  0.50400000000E-02 0.  1.
    8880022    1    1    2    0    0  0.54770690161E+03 -0.71471698289E+03 -0.12276495430E+04  0.15301366831E+04  0.15294330000E+03 0.  0.
    8880022    1    1    2    0    0 -0.54770690161E+03  0.71471698289E+03  0.47106392330E+02  0.91455665812E+03  0.15294330000E+03 0.  0.
<mgrwt>
<rscale>  0 0.91334269E+03</rscale>
<asrwt>0</asrwt>
<pdfrwt beam="1">  1        1 0.97242323E-01 0.91334269E+03</pdfrwt>
<pdfrwt beam="2">  1       -1 0.27886434E+00 0.91334269E+03</pdfrwt>
<totfact> 0.14708107E+00</totfact>
</mgrwt>
</event>
<event>
 4    1  0.2731969E-009  0.1570860E+04  0.7818608E-02  0.8838652E-01
          1   -1    0    0  501    0  0.00000000000E+00  0.00000000000E+00  0.16379687621E+04  0.16379687621E+04  0.50400000000E-02 0. -1.
         -1   -1    0    0    0  501 -0.00000000000E+00 -0.00000000000E+00 -0.18538421598E+04  0.18538421598E+04  0.50400000000E-02 0.  1.
    8880022    1    1    2    0    0  0.83346929089E+03 -0.13227015534E+04  0.64778565336E+03  0.16991846174E+04  0.15294330000E+03 0.  0.
    8880022    1    1    2    0    0 -0.83346929089E+03  0.13227015534E+04 -0.86365905106E+03  0.17926263045E+04  0.15294330000E+03 0.  0.
<mgrwt>
<rscale>  0 0.15708603E+04</rscale>
<asrwt>0</asrwt>
<pdfrwt beam="1">  1        1 0.25199520E+00 0.15708603E+04</pdfrwt>
<pdfrwt beam="2">  1       -1 0.28520648E+00 0.15708603E+04</pdfrwt>
<totfact> 0.20276907E-01</totfact>
</mgrwt>
</event>
<event>
 4    1  0.2731969E-009  0.1302236E+04  0.7818608E-02  0.9027794E-01
         -1   -1    0    0    0  501 -0.00000000000E+00  0.00000000000E+00  0.31618064364E+04  0.31618064364E+04  0.50400000000E-02 0.  1.
          1   -1    0    0  501    0  0.00000000000E+00 -0.00000000000E+00 -0.63561314746E+03  0.63561314748E+03  0.50400000000E-02 0. -1.
    8880022    1    1    2    0    0  0.12878662803E+04 -0.11758470456E+03  0.51273903715E+03  0.13995423152E+04  0.15294330000E+03 0.  0.
    8880022    1    1    2    0    0 -0.12878662803E+04  0.11758470456E+03  0.20134542518E+04  0.23978772687E+04  0.15294330000E+03 0.  0.
<mgrwt>
<rscale>  0 0.13022355E+04</rscale>
<asrwt>0</asrwt>
<pdfrwt beam="1">  1        1 0.97786638E-01 0.13022355E+04</pdfrwt>
<pdfrwt beam="2">  1       -1 0.48643176E+00 0.13022355E+04</pdfrwt>
<totfact> 0.56271828E-02</totfact>
</mgrwt>
</event>
<event>
 4    1  0.2731969E-009  0.7888315E+03  0.7818608E-02  0.9576325E-01
          1   -1    0    0  501    0  0.00000000000E+00  0.00000000000E+00  0.19379790436E+04  0.19379790437E+04  0.50400000000E-02 0. -1.
         -1   -1    0    0    0  501 -0.00000000000E+00 -0.00000000000E+00 -0.63950205157E+03  0.63950205159E+03  0.50400000000E-02 0.  1.
    8880022    1    1    2    0    0 -0.60153990192E+03 -0.48684008459E+03  0.15586134132E+04  0.17468631733E+04  0.15294330000E+03 0.  0.
    8880022    1    1    2    0    0  0.60153990192E+03  0.48684008459E+03 -0.26013642112E+03  0.83061792190E+03  0.15294330000E+03 0.  0.
<mgrwt>
<rscale>  0 0.78883152E+03</rscale>
<asrwt>0</asrwt>
<pdfrwt beam="1">  1        1 0.29815061E+00 0.78883152E+03</pdfrwt>
<pdfrwt beam="2">  1       -1 0.98384933E-01 0.78883152E+03</pdfrwt>
<totfact> 0.33892400E+00</totfact>
</mgrwt>
</event>
<event>
 4    1  0.2731969E-009  0.5679194E+03  0.7818608E-02  0.9974293E-01
         -1   -1    0    0    0  501 -0.00000000000E+00  0.00000000000E+00  0.10751552945E+04  0.10751552945E+04  0.50400000000E-02 0.  1.
          1   -1    0    0  501    0  0.00000000000E+00 -0.00000000000E+00 -0.18848406335E+04  0.18848406335E+04  0.50400000000E-02 0. -1.
    8880022    1    1    2    0    0 -0.50035466225E+03 -0.22087566344E+03  0.95227777875E+03  0.11087675445E+04  0.15294330000E+03 0.  0.
    8880022    1    1    2    0    0  0.50035466225E+03  0.22087566344E+03 -0.17619631177E+04  0.18512283835E+04  0.15294330000E+03 0. -1.
<mgrwt>
<rscale>  0 0.56791945E+03</rscale>
<asrwt>0</asrwt>
<pdfrwt beam="1">  1        1 0.28997548E+00 0.56791945E+03</pdfrwt>
<pdfrwt beam="2">  1       -1 0.16540851E+00 0.56791945E+03</pdfrwt>
<totfact> 0.10497074E+00</totfact>
</mgrwt>
</event>
<event>
 4    1  0.2731969E-009  0.1249872E+04  0.7818608E-02  0.9070289E-01
         -1   -1    0    0    0  501 -0.00000000000E+00  0.00000000000E+00  0.15384698247E+04  0.15384698247E+04  0.50400000000E-02 0.  1.
          1   -1    0    0  501    0  0.00000000000E+00 -0.00000000000E+00 -0.10452648655E+04  0.10452648655E+04  0.50400000000E-02 0. -1.
    8880022    1    1    2    0    0 -0.11026917270E+04 -0.56820797013E+03  0.28281001619E+02  0.12501923093E+04  0.15294330000E+03 0.  0.
    8880022    1    1    2    0    0  0.11026917270E+04  0.56820797013E+03  0.46492395759E+03  0.13335423809E+04  0.15294330000E+03 0.  0.
<mgrwt>
<rscale>  0 0.12498724E+04</rscale>
<asrwt>0</asrwt>
<pdfrwt beam="1">  1        1 0.16080998E+00 0.12498724E+04</pdfrwt>
<pdfrwt beam="2">  1       -1 0.23668767E+00 0.12498724E+04</pdfrwt>
<totfact> 0.11609306E+00</totfact>
</mgrwt>
</event>
<event>
 4    1  0.2731969E-009  0.1238224E+04  0.7818608E-02  0.9080042E-01
         -1   -1    0    0    0  501 -0.00000000000E+00  0.00000000000E+00  0.27459978734E+04  0.27459978734E+04  0.50400000000E-02 0.  1.
          1   -1    0    0  501    0  0.00000000000E+00 -0.00000000000E+00 -0.10216569545E+04  0.10216569545E+04  0.50400000000E-02 0. -1.
    8880022    1    1    2    0    0 -0.64131069070E+03  0.10481064263E+04 -0.40643932489E+03  0.13032233349E+04  0.15294330000E+03 0.  0.
    8880022    1    1    2    0    0  0.64131069070E+03 -0.10481064263E+04  0.21307802439E+04  0.24644314930E+04  0.15294330000E+03 0.  0.
<mgrwt>
<rscale>  0 0.12382238E+04</rscale>
<asrwt>0</asrwt>
<pdfrwt beam="1">  1        1 0.15717799E+00 0.12382238E+04</pdfrwt>
<pdfrwt beam="2">  1       -1 0.42246121E+00 0.12382238E+04</pdfrwt>
<totfact> 0.71983579E-02</totfact>
</mgrwt>
</event>
<event>
 4    1  0.2731969E-009  0.4436421E+03  0.7818608E-02  0.1029635E+00
          1   -1    0    0  501    0  0.00000000000E+00  0.00000000000E+00  0.35601409686E+03  0.35601409690E+03  0.50400000000E-02 0. -1.
         -1   -1    0    0    0  501 -0.00000000000E+00 -0.00000000000E+00 -0.15078594089E+04  0.15078594089E+04  0.50400000000E-02 0.  1.
    8880022    1    1    2    0    0  0.14129038530E+03 -0.39174441355E+03  0.16575030514E+03  0.47359420942E+03  0.15294330000E+03 0.  0.
    8880022    1    1    2    0    0 -0.14129038530E+03  0.39174441355E+03 -0.13175956171E+04  0.13902792963E+04  0.15294330000E+03 0.  0.
<mgrwt>
<rscale>  0 0.44364210E+03</rscale>
<asrwt>0</asrwt>
<pdfrwt beam="1">  1        1 0.54771400E-01 0.44364210E+03</pdfrwt>
<pdfrwt beam="2">  1       -1 0.23197837E+00 0.44364210E+03</pdfrwt>
<totfact> 0.70046319E+00</totfact>
</mgrwt>
</event>
<event>
 4    1  0.2731969E-009  0.1072326E+04  0.7818608E-02  0.9232592E-01
          1   -1    0    0  501    0  0.00000000000E+00  0.00000000000E+00  0.22604585854E+04  0.22604585854E+04  0.50400000000E-02 0. -1.
         -1   -1    0    0    0  501 -0.00000000000E+00 -0.00000000000E+00 -0.81977420004E+03  0.81977420005E+03  0.50400000000E-02 0.  1.
    8880022    1    1    2    0    0  0.77172101794E+03  0.72865551288E+03 -0.22838631529E+03  0.10963777396E+04  0.15294330000E+03 0.  0.
    8880022    1    1    2    0    0 -0.77172101794E+03 -0.72865551288E+03  0.16690707006E+04  0.19838550458E+04  0.15294330000E+03 0.  0.
<mgrwt>
<rscale>  0 0.10723264E+04</rscale>
<asrwt>0</asrwt>
<pdfrwt beam="1">  1        1 0.34776285E+00 0.10723264E+04</pdfrwt>
<pdfrwt beam="2">  1       -1 0.12611911E+00 0.10723264E+04</pdfrwt>
<totfact> 0.10879582E+00</totfact>
</mgrwt>
</event>
<event>
 4    1  0.2731969E-009  0.8997314E+03  0.7818608E-02  0.9425917E-01
         -1   -1    0    0    0  501 -0.00000000000E+00  0.00000000000E+00  0.52955263504E+03  0.52955263506E+03  0.50400000000E-02 0.  1.
          1   -1    0    0  501    0  0.00000000000E+00 -0.00000000000E+00 -0.22459201554E+04  0.22459201554E+04  0.50400000000E-02 0. -1.
    8880022    1    1    2    0    0 -0.84450935035E+03 -0.27005336570E+03 -0.73956158810E+02  0.90276576674E+03  0.15294330000E+03 0.  0.
    8880022    1    1    2    0    0  0.84450935035E+03  0.27005336570E+03 -0.16424113616E+04  0.18727070238E+04  0.15294330000E+03 0.  0.
<mgrwt>
<rscale>  0 0.89973136E+03</rscale>
<asrwt>0</asrwt>
<pdfrwt beam="1">  1        1 0.34552617E+00 0.89973136E+03</pdfrwt>
<pdfrwt beam="2">  1       -1 0.81469638E-01 0.89973136E+03</pdfrwt>
<totfact> 0.31316163E+00</totfact>
</mgrwt>
</event>
<event>
 4    1  0.2731969E-009  0.9358447E+03  0.7818608E-02  0.9381851E-01
         -1   -1    0    0    0  501 -0.00000000000E+00  0.00000000000E+00  0.12802166006E+04  0.12802166006E+04  0.50400000000E-02 0.  1.
          1   -1    0    0  501    0  0.00000000000E+00 -0.00000000000E+00 -0.13316682879E+04  0.13316682880E+04  0.50400000000E-02 0. -1.
    8880022    1    1    2    0    0 -0.74687700041E+03 -0.54276000419E+03 -0.93640709853E+03  0.13238820125E+04  0.15294330000E+03 0.  0.
    8880022    1    1    2    0    0  0.74687700041E+03  0.54276000419E+03  0.88495541119E+03  0.12880028760E+04  0.15294330000E+03 0.  0.
<mgrwt>
<rscale>  0 0.93584471E+03</rscale>
<asrwt>0</asrwt>
<pdfrwt beam="1">  1        1 0.20487205E+00 0.93584471E+03</pdfrwt>
<pdfrwt beam="2">  1       -1 0.19695640E+00 0.93584471E+03</pdfrwt>
<totfact> 0.13775596E+00</totfact>
</mgrwt>
</event>
<event>
 4    1  0.2731969E-009  0.1618399E+04  0.7818608E-02  0.8809324E-01
         -1   -1    0    0    0  501 -0.00000000000E+00  0.00000000000E+00  0.16614942009E+04  0.16614942009E+04  0.50400000000E-02 0.  1.
          1   -1    0    0  501    0  0.00000000000E+00 -0.00000000000E+00 -0.32089680865E+04  0.32089680865E+04  0.50400000000E-02 0. -1.
    8880022    1    1    2    0    0 -0.14896760656E+04 -0.61375053544E+03 -0.25106984891E+04  0.29871094819E+04  0.15294330000E+03 0.  0.
    8880022    1    1    2    0    0  0.14896760656E+04  0.61375053544E+03  0.96322460351E+03  0.18833528055E+04  0.15294330000E+03 0.  0.
<mgrwt>
<rscale>  0 0.16183993E+04</rscale>
<asrwt>0</asrwt>
<pdfrwt beam="1">  1        1 0.49368740E+00 0.16183993E+04</pdfrwt>
<pdfrwt beam="2">  1       -1 0.25561449E+00 0.16183993E+04</pdfrwt>
<totfact> 0.24969945E-02</totfact>
</mgrwt>
</event>
<event>
 4    1  0.2731969E-009  0.9055639E+03  0.7818608E-02  0.9418653E-01
          1   -1    0    0  501    0  0.00000000000E+00  0.00000000000E+00  0.13187378057E+04  0.13187378057E+04  0.50400000000E-02 0. -1.
         -1   -1    0    0    0  501 -0.00000000000E+00 -0.00000000000E+00 -0.98228904516E+03  0.98228904517E+03  0.50400000000E-02 0.  1.
    8880022    1    1    2    0    0 -0.27412844883E+02 -0.89213386492E+03 -0.52871186539E+03  0.10486096445E+04  0.15294330000E+03 0.  0.
    8880022    1    1    2    0    0  0.27412844883E+02  0.89213386492E+03  0.86516062588E+03  0.12524172063E+04  0.15294330000E+03 0.  0.
<mgrwt>
<rscale>  0 0.90556389E+03</rscale>
<asrwt>0</asrwt>
<pdfrwt beam="1">  1        1 0.20288274E+00 0.90556389E+03</pdfrwt>
<pdfrwt beam="2">  1       -1 0.15112139E+00 0.90556389E+03</pdfrwt>
<totfact> 0.30504260E+00</totfact>
</mgrwt>
</event>
<event>
 4    1  0.2731969E-009  0.8670297E+03  0.7818608E-02  0.9467761E-01
         -1   -1    0    0    0  501 -0.00000000000E+00  0.00000000000E+00  0.62570867036E+03  0.62570867038E+03  0.50400000000E-02 0.  1.
          1   -1    0    0  501    0  0.00000000000E+00 -0.00000000000E+00 -0.12251864156E+04  0.12251864156E+04  0.50400000000E-02 0. -1.
    8880022    1    1    2    0    0 -0.76402426539E+03  0.38028390089E+03 -0.42862561328E+03  0.96719206611E+03  0.15294330000E+03 0.  0.
    8880022    1    1    2    0    0  0.76402426539E+03 -0.38028390089E+03 -0.17085213199E+03  0.88370301991E+03  0.15294330000E+03 0.  0.
<mgrwt>
<rscale>  0 0.86702974E+03</rscale>
<asrwt>0</asrwt>
<pdfrwt beam="1">  1        1 0.18849022E+00 0.86702974E+03</pdfrwt>
<pdfrwt beam="2">  1       -1 0.96262873E-01 0.86702974E+03</pdfrwt>
<totfact> 0.10845224E+01</totfact>
</mgrwt>
</event>
<event>
 4    1  0.2731969E-009  0.1379779E+04  0.7818608E-02  0.8968587E-01
          1   -1    0    0  501    0  0.00000000000E+00  0.00000000000E+00  0.10604689469E+04  0.10604689469E+04  0.50400000000E-02 0. -1.
         -1   -1    0    0    0  501 -0.00000000000E+00 -0.00000000000E+00 -0.28452956990E+04  0.28452956990E+04  0.50400000000E-02 0.  1.
    8880022    1    1    2    0    0  0.13677815438E+04  0.97837714387E+02 -0.20787821805E+04  0.24950201556E+04  0.15294330000E+03 0.  0.
    8880022    1    1    2    0    0 -0.13677815438E+04 -0.97837714387E+02  0.29395542844E+03  0.14107444903E+04  0.15294330000E+03 0.  0.
<mgrwt>
<rscale>  0 0.13797790E+04</rscale>
<asrwt>0</asrwt>
<pdfrwt beam="1">  1        1 0.16314907E+00 0.13797790E+04</pdfrwt>
<pdfrwt beam="2">  1       -1 0.43773779E+00 0.13797790E+04</pdfrwt>
<totfact> 0.51606470E-02</totfact>
</mgrwt>
</event>
<event>
 4    1  0.2731969E-009  0.9027230E+03  0.7818608E-02  0.9422184E-01
          1   -1    0    0  501    0  0.00000000000E+00  0.00000000000E+00  0.12104636069E+04  0.12104636069E+04  0.50400000000E-02 0. -1.
         -1   -1    0    0    0  501 -0.00000000000E+00 -0.00000000000E+00 -0.17318556469E+04  0.17318556470E+04  0.50400000000E-02 0.  1.
    8880022    1    1    2    0    0  0.17253036837E+03  0.87278311779E+03 -0.14109060091E+04  0.16749819456E+04  0.15294330000E+03 0.  0.
    8880022    1    1    2    0    0 -0.17253036837E+03 -0.87278311779E+03  0.88951396907E+03  0.12673373083E+04  0.15294330000E+03 0.  0.
<mgrwt>
<rscale>  0 0.90272297E+03</rscale>
<asrwt>0</asrwt>
<pdfrwt beam="1">  1        1 0.18622517E+00 0.90272297E+03</pdfrwt>
<pdfrwt beam="2">  1       -1 0.26643933E+00 0.90272297E+03</pdfrwt>
<totfact> 0.58789110E-01</totfact>
</mgrwt>
</event>
<event>
 4    1  0.2731969E-009  0.3715314E+03  0.7818608E-02  0.1054109E+00
         -1   -1    0    0    0  501 -0.00000000000E+00  0.00000000000E+00  0.61694463209E+03  0.61694463211E+03  0.50400000000E-02 0.  1.
          1   -1    0    0  501    0  0.00000000000E+00 -0.00000000000E+00 -0.16496897878E+04  0.16496897879E+04  0.50400000000E-02 0. -1.
    8880022    1    1    2    0    0  0.24287580437E+03 -0.23591370700E+03  0.53729195076E+03  0.65323673111E+03  0.15294330000E+03 0.  1.
    8880022    1    1    2    0    0 -0.24287580437E+03  0.23591370700E+03 -0.15700371065E+04  0.16133976888E+04  0.15294330000E+03 0.  0.
<mgrwt>
<rscale>  0 0.37153141E+03</rscale>
<asrwt>0</asrwt>
<pdfrwt beam="1">  1        1 0.25379843E+00 0.37153141E+03</pdfrwt>
<pdfrwt beam="2">  1       -1 0.94914560E-01 0.37153141E+03</pdfrwt>
<totfact> 0.63145565E+00</totfact>
</mgrwt>
</event>
<event>
 4    1  0.2731969E-009  0.4287285E+03  0.7818608E-02  0.1034262E+00
          1   -1    0    0  501    0  0.00000000000E+00  0.00000000000E+00  0.93289204819E+03  0.93289204821E+03  0.50400000000E-02 0. -1.
         -1   -1    0    0    0  501 -0.00000000000E+00 -0.00000000000E+00 -0.46861359253E+03  0.46861359256E+03  0.50400000000E-02 0.  1.
    8880022    1    1    2    0    0  0.37072071388E+03  0.15160013601E+03  0.76560781435E+03  0.87747559929E+03  0.15294330000E+03 0.  0.
    8880022    1    1    2    0    0 -0.37072071388E+03 -0.15160013601E+03 -0.30132935869E+03  0.52403004147E+03  0.15294330000E+03 0.  0.
<mgrwt>
<rscale>  0 0.42872847E+03</rscale>
<asrwt>0</asrwt>
<pdfrwt beam="1">  1        1 0.14352185E+00 0.42872847E+03</pdfrwt>
<pdfrwt beam="2">  1       -1 0.72094400E-01 0.42872847E+03</pdfrwt>
<totfact> 0.35629138E+01</totfact>
</mgrwt>
</event>
<event>
 4    1  0.2731969E-009  0.7027740E+03  0.7818608E-02  0.9712500E-01
          1   -1    0    0  501    0  0.00000000000E+00  0.00000000000E+00  0.21914821894E+04  0.21914821894E+04  0.50400000000E-02 0. -1.
         -1   -1    0    0    0  501 -0.00000000000E+00 -0.00000000000E+00 -0.50727805419E+03  0.50727805422E+03  0.50400000000E-02 0.  1.
    8880022    1    1    2    0    0  0.48745541401E+03  0.48258346386E+03 -0.16382409884E+03  0.72161594260E+03  0.15294330000E+03 0.  0.
    8880022    1    1    2    0    0 -0.48745541401E+03 -0.48258346386E+03  0.18480282340E+04  0.19771443010E+04  0.15294330000E+03 0.  0.
<mgrwt>
<rscale>  0 0.70277396E+03</rscale>
<asrwt>0</asrwt>
<pdfrwt beam="1">  1        1 0.33715110E+00 0.70277396E+03</pdfrwt>
<pdfrwt beam="2">  1       -1 0.78042779E-01 0.70277396E+03</pdfrwt>
<totfact> 0.38632830E+00</totfact>
</mgrwt>
</event>
<event>
 4    1  0.2731969E-009  0.5739314E+03  0.7818608E-02  0.9961016E-01
         -1   -1    0    0    0  501 -0.00000000000E+00  0.00000000000E+00  0.17846822268E+03  0.17846822275E+03  0.50400000000E-02 0.  1.
          1   -1    0    0  501    0  0.00000000000E+00 -0.00000000000E+00 -0.21464930116E+04  0.21464930116E+04  0.50400000000E-02 0. -1.
    8880022    1    1    2    0    0 -0.52457369010E+03  0.17557926151E+03 -0.14191844193E+04  0.15308434611E+04  0.15294330000E+03 0.  0.
    8880022    1    1    2    0    0  0.52457369010E+03 -0.17557926151E+03 -0.54884036955E+03  0.79411777318E+03  0.15294330000E+03 0. -1.
<mgrwt>
<rscale>  0 0.57393143E+03</rscale>
<asrwt>0</asrwt>
<pdfrwt beam="1">  1        1 0.33022968E+00 0.57393143E+03</pdfrwt>
<pdfrwt beam="2">  1       -1 0.27456651E-01 0.57393143E+03</pdfrwt>
<totfact> 0.30136334E+01</totfact>
</mgrwt>
</event>
<event>
 4    1  0.2731969E-009  0.8142337E+03  0.7818608E-02  0.9539640E-01
         -1   -1    0    0    0  501 -0.00000000000E+00  0.00000000000E+00  0.20454764704E+04  0.20454764704E+04  0.50400000000E-02 0.  1.
          1   -1    0    0  501    0  0.00000000000E+00 -0.00000000000E+00 -0.81929213114E+03  0.81929213116E+03  0.50400000000E-02 0. -1.
    8880022    1    1    2    0    0 -0.79452341316E+03  0.91199570254E+02 -0.50048156534E+03  0.95575010642E+03  0.15294330000E+03 0. -1.
    8880022    1    1    2    0    0  0.79452341316E+03 -0.91199570254E+02  0.17266659046E+04  0.19090184951E+04  0.15294330000E+03 0.  0.
<mgrwt>
<rscale>  0 0.81423367E+03</rscale>
<asrwt>0</asrwt>
<pdfrwt beam="1">  1        1 0.12604494E+00 0.81423367E+03</pdfrwt>
<pdfrwt beam="2">  1       -1 0.31468869E+00 0.81423367E+03</pdfrwt>
<totfact> 0.59133386E-01</totfact>
</mgrwt>
</event>
<event>
 4    1  0.2731969E-009  0.1971132E+03  0.7818608E-02  0.1152198E+00
         -1   -1    0    0    0  501 -0.00000000000E+00  0.00000000000E+00  0.16632693162E+03  0.16632693169E+03  0.50400000000E-02 0.  1.
          1   -1    0    0  501    0  0.00000000000E+00 -0.00000000000E+00 -0.88057726447E+03  0.88057726448E+03  0.50400000000E-02 0. -1.
    8880022    1    1    2    0    0  0.19796810819E+02 -0.12276012084E+03 -0.80580695380E+03  0.82956522396E+03  0.15294330000E+03 0.  0.
    8880022    1    1    2    0    0 -0.19796810819E+02  0.12276012084E+03  0.91556620955E+02  0.21733897222E+03  0.15294330000E+03 0.  1.
<mgrwt>
<rscale>  0 0.19711320E+03</rscale>
<asrwt>0</asrwt>
<pdfrwt beam="1">  1        1 0.13547342E+00 0.19711320E+03</pdfrwt>
<pdfrwt beam="2">  1       -1 0.25588759E-01 0.19711320E+03</pdfrwt>
<totfact> 0.27025826E+02</totfact>
</mgrwt>
</event>
<event>
 4    1  0.2731969E-009  0.4694530E+03  0.7818608E-02  0.1022075E+00
          1   -1    0    0  501    0  0.00000000000E+00  0.00000000000E+00  0.17202250626E+04  0.17202250626E+04  0.50400000000E-02 0. -1.
         -1   -1    0    0    0  501 -0.00000000000E+00 -0.00000000000E+00 -0.18455238950E+03  0.18455238956E+03  0.50400000000E-02 0.  1.
    8880022    1    1    2    0    0 -0.10409870197E+03 -0.43146018066E+03  0.12945069739E+04  0.13770019556E+04  0.15294330000E+03 0.  0.
    8880022    1    1    2    0    0  0.10409870197E+03  0.43146018066E+03  0.24116569913E+03  0.52777549650E+03  0.15294330000E+03 0.  0.
<mgrwt>
<rscale>  0 0.46945296E+03</rscale>
<asrwt>0</asrwt>
<pdfrwt beam="1">  1        1 0.26465002E+00 0.46945296E+03</pdfrwt>
<pdfrwt beam="2">  1       -1 0.28392674E-01 0.46945296E+03</pdfrwt>
<totfact> 0.55554882E+01</totfact>
</mgrwt>
</event>
<event>
 4    1  0.2731969E-009  0.2970744E+03  0.7818608E-02  0.1086712E+00
          1   -1    0    0  501    0  0.00000000000E+00  0.00000000000E+00  0.37220495944E+03  0.37220495947E+03  0.50400000000E-02 0. -1.
         -1   -1    0    0    0  501 -0.00000000000E+00 -0.00000000000E+00 -0.52567526411E+03  0.52567526414E+03  0.50400000000E-02 0.  1.
    8880022    1    1    2    0    0  0.16253429944E+03  0.19607180408E+03  0.25588786629E+03  0.39208647513E+03  0.15294330000E+03 0.  0.
    8880022    1    1    2    0    0 -0.16253429944E+03 -0.19607180408E+03 -0.40935817097E+03  0.50579374848E+03  0.15294330000E+03 0.  0.
<mgrwt>
<rscale>  0 0.29707441E+03</rscale>
<asrwt>0</asrwt>
<pdfrwt beam="1">  1        1 0.57262301E-01 0.29707441E+03</pdfrwt>
<pdfrwt beam="2">  1       -1 0.80873118E-01 0.29707441E+03</pdfrwt>
<totfact> 0.10677584E+02</totfact>
</mgrwt>
</event>
<event>
 4    1  0.2731969E-009  0.8884998E+03  0.7818608E-02  0.9440073E-01
          1   -1    0    0  501    0  0.00000000000E+00  0.00000000000E+00  0.13135000769E+04  0.13135000769E+04  0.50400000000E-02 0. -1.
         -1   -1    0    0    0  501 -0.00000000000E+00 -0.00000000000E+00 -0.13339871873E+04  0.13339871873E+04  0.50400000000E-02 0.  1.
    8880022    1    1    2    0    0 -0.70376673327E+03 -0.52033891587E+03 -0.99147649030E+03  0.13313367290E+04  0.15294330000E+03 0.  0.
    8880022    1    1    2    0    0  0.70376673327E+03  0.52033891587E+03  0.97098937998E+03  0.13161505352E+04  0.15294330000E+03 0.  0.
<mgrwt>
<rscale>  0 0.88849978E+03</rscale>
<asrwt>0</asrwt>
<pdfrwt beam="1">  1        1 0.20207693E+00 0.88849978E+03</pdfrwt>
<pdfrwt beam="2">  1       -1 0.20522880E+00 0.88849978E+03</pdfrwt>
<totfact> 0.12546700E+00</totfact>
</mgrwt>
</event>
<event>
 4    1  0.2731969E-009  0.9040470E+03  0.7818608E-02  0.9420537E-01
          1   -1    0    0  501    0  0.00000000000E+00  0.00000000000E+00  0.98163132509E+03  0.98163132510E+03  0.50400000000E-02 0. -1.
         -1   -1    0    0    0  501 -0.00000000000E+00 -0.00000000000E+00 -0.12939575926E+04  0.12939575926E+04  0.50400000000E-02 0.  1.
    8880022    1    1    2    0    0  0.42411380730E+03  0.78360497404E+03 -0.83556255969E+03  0.12310425342E+04  0.15294330000E+03 0.  0.
    8880022    1    1    2    0    0 -0.42411380730E+03 -0.78360497404E+03  0.52323629215E+03  0.10445463835E+04  0.15294330000E+03 0.  0.
<mgrwt>
<rscale>  0 0.90404697E+03</rscale>
<asrwt>0</asrwt>
<pdfrwt beam="1">  1        1 0.15102020E+00 0.90404697E+03</pdfrwt>
<pdfrwt beam="2">  1       -1 0.19907040E+00 0.90404697E+03</pdfrwt>
<totfact> 0.24305542E+00</totfact>
</mgrwt>
</event>
<event>
 4    1  0.2731969E-009  0.3944391E+03  0.7818608E-02  0.1045722E+00
         -1   -1    0    0    0  501 -0.00000000000E+00  0.00000000000E+00  0.17131362755E+03  0.17131362762E+03  0.50400000000E-02 0.  1.
          1   -1    0    0  501    0  0.00000000000E+00 -0.00000000000E+00 -0.18252197590E+04  0.18252197590E+04  0.50400000000E-02 0. -1.
    8880022    1    1    2    0    0 -0.34820688495E+03  0.10460665676E+03 -0.15345484262E+04  0.15844308482E+04  0.15294330000E+03 0.  0.
    8880022    1    1    2    0    0  0.34820688495E+03 -0.10460665676E+03 -0.11935770525E+03  0.41210253843E+03  0.15294330000E+03 0.  0.
<mgrwt>
<rscale>  0 0.39443915E+03</rscale>
<asrwt>0</asrwt>
<pdfrwt beam="1">  1        1 0.28080303E+00 0.39443915E+03</pdfrwt>
<pdfrwt beam="2">  1       -1 0.26355944E-01 0.39443915E+03</pdfrwt>
<totfact> 0.54570702E+01</totfact>
</mgrwt>
</event>
<event>
 4    1  0.2731969E-009  0.1547591E+03  0.7818608E-02  0.1194744E+00
         -1   -1    0    0    0  501 -0.00000000000E+00  0.00000000000E+00  0.38370923507E+03  0.38370923510E+03  0.50400000000E-02 0.  1.
          1   -1    0    0  501    0  0.00000000000E+00 -0.00000000000E+00 -0.76817762070E+03  0.76817762072E+03  0.50400000000E-02 0. -1.
    8880022    1    1    2    0    0 -0.21827015713E+02 -0.90730337786E+01  0.35981449532E+03  0.39168464689E+03  0.15294330000E+03 0.  1.
    8880022    1    1    2    0    0  0.21827015713E+02  0.90730337786E+01 -0.74428288095E+03  0.76020220892E+03  0.15294330000E+03 0.  0.
<mgrwt>
<rscale>  0 0.15475914E+03</rscale>
<asrwt>0</asrwt>
<pdfrwt beam="1">  1        1 0.11818117E+00 0.15475914E+03</pdfrwt>
<pdfrwt beam="2">  1       -1 0.59032190E-01 0.15475914E+03</pdfrwt>
<totfact> 0.77259148E+01</totfact>
</mgrwt>
</event>
<event>
 4    1  0.2731969E-009  0.1182070E+04  0.7818608E-02  0.9128697E-01
         -1   -1    0    0    0  501 -0.00000000000E+00  0.00000000000E+00  0.92379056543E+03  0.92379056544E+03  0.50400000000E-02 0.  1.
          1   -1    0    0  501    0  0.00000000000E+00 -0.00000000000E+00 -0.18887478779E+04  0.18887478779E+04  0.50400000000E-02 0. -1.
    8880022    1    1    2    0    0  0.11523087980E+04  0.21466532717E+03  0.14512291595E+03  0.11909446177E+04  0.15294330000E+03 0.  0.
    8880022    1    1    2    0    0 -0.11523087980E+04 -0.21466532717E+03 -0.11100802284E+04  0.16215938256E+04  0.15294330000E+03 0.  0.
<mgrwt>
<rscale>  0 0.11820696E+04</rscale>
<asrwt>0</asrwt>
<pdfrwt beam="1">  1        1 0.29057660E+00 0.11820696E+04</pdfrwt>
<pdfrwt beam="2">  1       -1 0.14212163E+00 0.11820696E+04</pdfrwt>
<totfact> 0.14070468E+00</totfact>
</mgrwt>
</event>
<event>
 4    1  0.2731969E-009  0.3346351E+03  0.7818608E-02  0.1069104E+00
         -1   -1    0    0    0  501 -0.00000000000E+00  0.00000000000E+00  0.22654008300E+03  0.22654008306E+03  0.50400000000E-02 0.  1.
          1   -1    0    0  501    0  0.00000000000E+00 -0.00000000000E+00 -0.22277374165E+04  0.22277374165E+04  0.50400000000E-02 0. -1.
    8880022    1    1    2    0    0  0.60799814813E+02 -0.29136302575E+03 -0.20830657334E+04  0.21097733368E+04  0.15294330000E+03 0. -1.
    8880022    1    1    2    0    0 -0.60799814813E+02  0.29136302575E+03  0.81868399838E+02  0.34450416276E+03  0.15294330000E+03 0.  0.
<mgrwt>
<rscale>  0 0.33463515E+03</rscale>
<asrwt>0</asrwt>
<pdfrwt beam="1">  1        1 0.34272882E+00 0.33463515E+03</pdfrwt>
<pdfrwt beam="2">  1       -1 0.34852322E-01 0.33463515E+03</pdfrwt>
<totfact> 0.18665015E+01</totfact>
</mgrwt>
</event>
<event>
 4    1  0.2731969E-009  0.1389657E+04  0.7818608E-02  0.8961340E-01
          1   -1    0    0  501    0  0.00000000000E+00  0.00000000000E+00  0.30716206274E+04  0.30716206274E+04  0.50400000000E-02 0. -1.
         -1   -1    0    0    0  501 -0.00000000000E+00 -0.00000000000E+00 -0.69000777678E+03  0.69000777680E+03  0.50400000000E-02 0.  1.
    8880022    1    1    2    0    0  0.65477638131E+03 -0.12161507474E+04  0.17514093203E+04  0.22357506592E+04  0.15294330000E+03 0.  0.
    8880022    1    1    2    0    0 -0.65477638131E+03  0.12161507474E+04  0.63020353032E+03  0.15258777450E+04  0.15294330000E+03 0.  0.
<mgrwt>
<rscale>  0 0.13896569E+04</rscale>
<asrwt>0</asrwt>
<pdfrwt beam="1">  1        1 0.47255702E+00 0.13896569E+04</pdfrwt>
<pdfrwt beam="2">  1       -1 0.10615504E+00 0.13896569E+04</pdfrwt>
<totfact> 0.42693344E-01</totfact>
</mgrwt>
</event>
<event>
 4    1  0.2731969E-009  0.7626096E+03  0.7818608E-02  0.9615773E-01
          1   -1    0    0  501    0  0.00000000000E+00  0.00000000000E+00  0.24813637850E+04  0.24813637850E+04  0.50400000000E-02 0. -1.
         -1   -1    0    0    0  501 -0.00000000000E+00 -0.00000000000E+00 -0.34679393949E+03  0.34679393953E+03  0.50400000000E-02 0.  1.
    8880022    1    1    2    0    0 -0.54836441315E+03  0.50742316700E+03  0.26217597664E+03  0.80641781711E+03  0.15294330000E+03 0.  0.
    8880022    1    1    2    0    0  0.54836441315E+03 -0.50742316700E+03  0.18723938688E+04  0.20217399074E+04  0.15294330000E+03 0.  0.
<mgrwt>
<rscale>  0 0.76260963E+03</rscale>
<asrwt>0</asrwt>
<pdfrwt beam="1">  1        1 0.38174828E+00 0.76260963E+03</pdfrwt>
<pdfrwt beam="2">  1       -1 0.53352913E-01 0.76260963E+03</pdfrwt>
<totfact> 0.52216703E+00</totfact>
</mgrwt>
</event>
<event>
 4    1  0.2731969E-009  0.9272044E+03  0.7818608E-02  0.9392199E-01
          1   -1    0    0  501    0  0.00000000000E+00  0.00000000000E+00  0.22496836887E+04  0.22496836887E+04  0.50400000000E-02 0. -1.
         -1   -1    0    0    0  501 -0.00000000000E+00 -0.00000000000E+00 -0.49136617836E+03  0.49136617838E+03  0.50400000000E-02 0.  1.
    8880022    1    1    2    0    0 -0.53325111713E+03  0.74293986187E+03  0.23300573523E+03  0.95603332470E+03  0.15294330000E+03 0.  0.
    8880022    1    1    2    0    0  0.53325111713E+03 -0.74293986187E+03  0.15253117751E+04  0.17850165423E+04  0.15294330000E+03 0.  0.
<mgrwt>
<rscale>  0 0.92720442E+03</rscale>
<asrwt>0</asrwt>
<pdfrwt beam="1">  1        1 0.34610519E+00 0.92720442E+03</pdfrwt>
<pdfrwt beam="2">  1       -1 0.75594795E-01 0.92720442E+03</pdfrwt>
<totfact> 0.36332331E+00</totfact>
</mgrwt>
</event>
<event>
 4    1  0.2731969E-009  0.9900915E+03  0.7818608E-02  0.9319479E-01
          1   -1    0    0  501    0  0.00000000000E+00  0.00000000000E+00  0.20952212938E+04  0.20952212938E+04  0.50400000000E-02 0. -1.
         -1   -1    0    0    0  501 -0.00000000000E+00 -0.00000000000E+00 -0.10348212928E+04  0.10348212928E+04  0.50400000000E-02 0.  1.
    8880022    1    1    2    0    0 -0.96907831088E+03 -0.13332956655E+03 -0.62820993412E+03  0.11725736311E+04  0.15294330000E+03 0.  1.
    8880022    1    1    2    0    0  0.96907831088E+03  0.13332956655E+03  0.16886099351E+04  0.19574689555E+04  0.15294330000E+03 0.  0.
<mgrwt>
<rscale>  0 0.99009151E+03</rscale>
<asrwt>0</asrwt>
<pdfrwt beam="1">  1        1 0.32234174E+00 0.99009151E+03</pdfrwt>
<pdfrwt beam="2">  1       -1 0.15920328E+00 0.99009151E+03</pdfrwt>
<totfact> 0.77165173E-01</totfact>
</mgrwt>
</event>
<event>
 4    1  0.2731969E-009  0.1400481E+04  0.7818608E-02  0.8953471E-01
         -1   -1    0    0    0  501 -0.00000000000E+00  0.00000000000E+00  0.14979298361E+04  0.14979298361E+04  0.50400000000E-02 0.  1.
          1   -1    0    0  501    0  0.00000000000E+00 -0.00000000000E+00 -0.19721478225E+04  0.19721478225E+04  0.50400000000E-02 0. -1.
    8880022    1    1    2    0    0 -0.10325207977E+04 -0.93373180604E+03  0.76871759568E+03  0.15975833869E+04  0.15294330000E+03 0.  0.
    8880022    1    1    2    0    0  0.10325207977E+04  0.93373180604E+03 -0.12429355821E+04  0.18724942717E+04  0.15294330000E+03 0.  0.
<mgrwt>
<rscale>  0 0.14004806E+04</rscale>
<asrwt>0</asrwt>
<pdfrwt beam="1">  1        1 0.30340736E+00 0.14004806E+04</pdfrwt>
<pdfrwt beam="2">  1       -1 0.23045074E+00 0.14004806E+04</pdfrwt>
<totfact> 0.27881201E-01</totfact>
</mgrwt>
</event>
<event>
 4    1  0.2731969E-009  0.3835179E+03  0.7818608E-02  0.1049641E+00
         -1   -1    0    0    0  501 -0.00000000000E+00  0.00000000000E+00  0.85235554630E+03  0.85235554632E+03  0.50400000000E-02 0.  1.
          1   -1    0    0  501    0  0.00000000000E+00 -0.00000000000E+00 -0.32630784570E+03  0.32630784574E+03  0.50400000000E-02 0. -1.
    8880022    1    1    2    0    0  0.32372593087E+03 -0.13746215333E+03 -0.14150058314E+03  0.40878893082E+03  0.15294330000E+03 0.  0.
    8880022    1    1    2    0    0 -0.32372593087E+03  0.13746215333E+03  0.66754828374E+03  0.76987446124E+03  0.15294330000E+03 0.  0.
<mgrwt>
<rscale>  0 0.38351789E+03</rscale>
<asrwt>0</asrwt>
<pdfrwt beam="1">  1        1 0.50201207E-01 0.38351789E+03</pdfrwt>
<pdfrwt beam="2">  1       -1 0.13113162E+00 0.38351789E+03</pdfrwt>
<totfact> 0.41527797E+01</totfact>
</mgrwt>
</event>
<event>
 4    1  0.2731969E-009  0.8898849E+03  0.7818608E-02  0.9438315E-01
          1   -1    0    0  501    0  0.00000000000E+00  0.00000000000E+00  0.15091926661E+04  0.15091926661E+04  0.50400000000E-02 0. -1.
         -1   -1    0    0    0  501 -0.00000000000E+00 -0.00000000000E+00 -0.79139904067E+03  0.79139904069E+03  0.50400000000E-02 0.  1.
    8880022    1    1    2    0    0  0.65617018538E+03 -0.58132971235E+03  0.10266419833E+04  0.13586349626E+04  0.15294330000E+03 0.  0.
    8880022    1    1    2    0    0 -0.65617018538E+03  0.58132971235E+03 -0.30884835795E+03  0.94195674416E+03  0.15294330000E+03 0.  0.
<mgrwt>
<rscale>  0 0.88988494E+03</rscale>
<asrwt>0</asrwt>
<pdfrwt beam="1">  1        1 0.23218349E+00 0.88988494E+03</pdfrwt>
<pdfrwt beam="2">  1       -1 0.12175370E+00 0.88988494E+03</pdfrwt>
<totfact> 0.39298564E+00</totfact>
</mgrwt>
</event>
<event>
 4    1  0.2731969E-009  0.7614144E+03  0.7818608E-02  0.9617611E-01
         -1   -1    0    0    0  501 -0.00000000000E+00  0.00000000000E+00  0.79518107926E+03  0.79518107928E+03  0.50400000000E-02 0.  1.
          1   -1    0    0  501    0  0.00000000000E+00 -0.00000000000E+00 -0.14871211491E+04  0.14871211491E+04  0.50400000000E-02 0. -1.
    8880022    1    1    2    0    0  0.73416394834E+03  0.13177099405E+03 -0.11607041379E+04  0.13881592295E+04  0.15294330000E+03 0.  0.
    8880022    1    1    2    0    0 -0.73416394834E+03 -0.13177099405E+03  0.46876406801E+03  0.89414299885E+03  0.15294330000E+03 0.  0.
<mgrwt>
<rscale>  0 0.76141444E+03</rscale>
<asrwt>0</asrwt>
<pdfrwt beam="1">  1        1 0.22878787E+00 0.76141444E+03</pdfrwt>
<pdfrwt beam="2">  1       -1 0.12233555E+00 0.76141444E+03</pdfrwt>
<totfact> 0.41030802E+00</totfact>
</mgrwt>
</event>
<event>
 4    1  0.2731969E-009  0.8262946E+03  0.7818608E-02  0.9522718E-01
          1   -1    0    0  501    0  0.00000000000E+00  0.00000000000E+00  0.20155876093E+04  0.20155876093E+04  0.50400000000E-02 0. -1.
         -1   -1    0    0    0  501 -0.00000000000E+00 -0.00000000000E+00 -0.42398385725E+03  0.42398385728E+03  0.50400000000E-02 0.  1.
    8880022    1    1    2    0    0  0.42044952685E+03  0.69468940683E+03  0.13427385492E+04  0.15766133455E+04  0.15294330000E+03 0.  0.
    8880022    1    1    2    0    0 -0.42044952685E+03 -0.69468940683E+03  0.24886520284E+03  0.86295812111E+03  0.15294330000E+03 0.  0.
<mgrwt>
<rscale>  0 0.82629464E+03</rscale>
<asrwt>0</asrwt>
<pdfrwt beam="1">  1        1 0.31009040E+00 0.82629464E+03</pdfrwt>
<pdfrwt beam="2">  1       -1 0.65228286E-01 0.82629464E+03</pdfrwt>
<totfact> 0.71761667E+00</totfact>
</mgrwt>
</event>
<event>
 4    1  0.2731969E-009  0.4004733E+03  0.7818608E-02  0.1043616E+00
         -1   -1    0    0    0  501 -0.00000000000E+00  0.00000000000E+00  0.85046471041E+03  0.85046471042E+03  0.50400000000E-02 0.  1.
          1   -1    0    0  501    0  0.00000000000E+00 -0.00000000000E+00 -0.32925610484E+04  0.32925610484E+04  0.50400000000E-02 0. -1.
    8880022    1    1    2    0    0 -0.28328540924E+02  0.36903208778E+03  0.79026824508E+03  0.88594736878E+03  0.15294330000E+03 0.  0.
    8880022    1    1    2    0    0  0.28328540924E+02 -0.36903208778E+03 -0.32323645831E+04  0.32570783901E+04  0.15294330000E+03 0.  0.
<mgrwt>
<rscale>  0 0.40047327E+03</rscale>
<asrwt>0</asrwt>
<pdfrwt beam="1">  1        1 0.50654785E+00 0.40047327E+03</pdfrwt>
<pdfrwt beam="2">  1       -1 0.13084073E+00 0.40047327E+03</pdfrwt>
<totfact> 0.22490080E-01</totfact>
</mgrwt>
</event>
<event>
 4    1  0.2731969E-009  0.4398774E+03  0.7818608E-02  0.1030784E+00
          1   -1    0    0  501    0  0.00000000000E+00  0.00000000000E+00  0.77546989044E+03  0.77546989046E+03  0.50400000000E-02 0. -1.
         -1   -1    0    0    0  501 -0.00000000000E+00 -0.00000000000E+00 -0.99555945173E+03  0.99555945174E+03  0.50400000000E-02 0.  1.
    8880022    1    1    2    0    0  0.23654257704E+03  0.33785808561E+03  0.65651182099E+03  0.79025306129E+03  0.15294330000E+03 0.  0.
    8880022    1    1    2    0    0 -0.23654257704E+03 -0.33785808561E+03 -0.87660138228E+03  0.98077628091E+03  0.15294330000E+03 0.  0.
<mgrwt>
<rscale>  0 0.43987740E+03</rscale>
<asrwt>0</asrwt>
<pdfrwt beam="1">  1        1 0.11930306E+00 0.43987740E+03</pdfrwt>
<pdfrwt beam="2">  1       -1 0.15316299E+00 0.43987740E+03</pdfrwt>
<totfact> 0.83659169E+00</totfact>
</mgrwt>
</event>
<event>
 4    1  0.2731969E-009  0.1485540E+04  0.7818608E-02  0.8894126E-01
         -1   -1    0    0    0  501 -0.00000000000E+00  0.00000000000E+00  0.21336980057E+04  0.21336980057E+04  0.50400000000E-02 0.  1.
          1   -1    0    0  501    0  0.00000000000E+00 -0.00000000000E+00 -0.25918466673E+04  0.25918466673E+04  0.50400000000E-02 0. -1.
    8880022    1    1    2    0    0 -0.12223924211E+04  0.83017684970E+03  0.16025709699E+04  0.21851915704E+04  0.15294330000E+03 0.  0.
    8880022    1    1    2    0    0  0.12223924211E+04 -0.83017684970E+03 -0.20607196315E+04  0.25403531025E+04  0.15294330000E+03 0.  0.
<mgrwt>
<rscale>  0 0.14855398E+04</rscale>
<asrwt>0</asrwt>
<pdfrwt beam="1">  1        1 0.39874564E+00 0.14855398E+04</pdfrwt>
<pdfrwt beam="2">  1       -1 0.32826123E+00 0.14855398E+04</pdfrwt>
<totfact> 0.23905388E-02</totfact>
</mgrwt>
</event>
<event>
 4    1  0.2731969E-009  0.1059999E+04  0.7818608E-02  0.9245081E-01
         -1   -1    0    0    0  501 -0.00000000000E+00  0.00000000000E+00  0.12439303404E+04  0.12439303404E+04  0.50400000000E-02 0.  1.
          1   -1    0    0  501    0  0.00000000000E+00 -0.00000000000E+00 -0.11293791373E+04  0.11293791373E+04  0.50400000000E-02 0. -1.
    8880022    1    1    2    0    0 -0.57071211765E+03 -0.88005364159E+03  0.58824394367E+03  0.12122826913E+04  0.15294330000E+03 0.  1.
    8880022    1    1    2    0    0  0.57071211765E+03  0.88005364159E+03 -0.47369274060E+03  0.11610267864E+04  0.15294330000E+03 0.  0.
<mgrwt>
<rscale>  0 0.10599992E+04</rscale>
<asrwt>0</asrwt>
<pdfrwt beam="1">  1        1 0.17375064E+00 0.10599992E+04</pdfrwt>
<pdfrwt beam="2">  1       -1 0.19137390E+00 0.10599992E+04</pdfrwt>
<totfact> 0.20754694E+00</totfact>
</mgrwt>
</event>
<event>
 4    1  0.2731969E-009  0.5532372E+03  0.7818608E-02  0.1000747E+00
         -1   -1    0    0    0  501 -0.00000000000E+00  0.00000000000E+00  0.13556888178E+04  0.13556888178E+04  0.50400000000E-02 0.  1.
          1   -1    0    0  501    0  0.00000000000E+00 -0.00000000000E+00 -0.59097741473E+03  0.59097741475E+03  0.50400000000E-02 0. -1.
    8880022    1    1    2    0    0 -0.50967134375E+03  0.15137665148E+03 -0.38279489682E+03  0.67275802136E+03  0.15294330000E+03 0.  0.
    8880022    1    1    2    0    0  0.50967134375E+03 -0.15137665148E+03  0.11475062999E+04  0.12739082112E+04  0.15294330000E+03 0.  0.
<mgrwt>
<rscale>  0 0.55323722E+03</rscale>
<asrwt>0</asrwt>
<pdfrwt beam="1">  1        1 0.90919602E-01 0.55323722E+03</pdfrwt>
<pdfrwt beam="2">  1       -1 0.20856751E+00 0.55323722E+03</pdfrwt>
<totfact> 0.49361202E+00</totfact>
</mgrwt>
</event>
<event>
 4    1  0.2731969E-009  0.1142079E+04  0.7818608E-02  0.9165122E-01
         -1   -1    0    0    0  501 -0.00000000000E+00  0.00000000000E+00  0.88978213747E+03  0.88978213749E+03  0.50400000000E-02 0.  1.
          1   -1    0    0  501    0  0.00000000000E+00 -0.00000000000E+00 -0.24910446284E+04  0.24910446284E+04  0.50400000000E-02 0. -1.
    8880022    1    1    2    0    0 -0.37114978036E+03 -0.10692059144E+04  0.28377380868E+03  0.11768061329E+04  0.15294330000E+03 0.  0.
    8880022    1    1    2    0    0  0.37114978036E+03  0.10692059144E+04 -0.18850362996E+04  0.22040206330E+04  0.15294330000E+03 0.  0.
<mgrwt>
<rscale>  0 0.11420793E+04</rscale>
<asrwt>0</asrwt>
<pdfrwt beam="1">  1        1 0.38323763E+00 0.11420793E+04</pdfrwt>
<pdfrwt beam="2">  1       -1 0.13688956E+00 0.11420793E+04</pdfrwt>
<totfact> 0.60815344E-01</totfact>
</mgrwt>
</event>
<event>
 4    1  0.2731969E-009  0.1118440E+04  0.7818608E-02  0.9187403E-01
          1   -1    0    0  501    0  0.00000000000E+00  0.00000000000E+00  0.22266665231E+04  0.22266665231E+04  0.50400000000E-02 0. -1.
         -1   -1    0    0    0  501 -0.00000000000E+00 -0.00000000000E+00 -0.10710115224E+04  0.10710115225E+04  0.50400000000E-02 0.  1.
    8880022    1    1    2    0    0 -0.93619281604E+03  0.59250223949E+03  0.17147654215E+04  0.20472733077E+04  0.15294330000E+03 0.  0.
    8880022    1    1    2    0    0  0.93619281604E+03 -0.59250223949E+03 -0.55911042090E+03  0.12504047378E+04  0.15294330000E+03 0.  0.
<mgrwt>
<rscale>  0 0.11184398E+04</rscale>
<asrwt>0</asrwt>
<pdfrwt beam="1">  1        1 0.34256408E+00 0.11184398E+04</pdfrwt>
<pdfrwt beam="2">  1       -1 0.16477100E+00 0.11184398E+04</pdfrwt>
<totfact> 0.55955503E-01</totfact>
</mgrwt>
</event>
<event>
 4    1  0.2731969E-009  0.8632589E+03  0.7818608E-02  0.9472712E-01
          1   -1    0    0  501    0  0.00000000000E+00  0.00000000000E+00  0.10090255133E+04  0.10090255133E+04  0.50400000000E-02 0. -1.
         -1   -1    0    0    0  501 -0.00000000000E+00 -0.00000000000E+00 -0.12691991523E+04  0.12691991523E+04  0.50400000000E-02 0.  1.
    8880022    1    1    2    0    0  0.72635191261E+03 -0.44072339750E+03 -0.86664214594E+03  0.12232270747E+04  0.15294330000E+03 0.  0.
    8880022    1    1    2    0    0 -0.72635191261E+03  0.44072339750E+03  0.60646850691E+03  0.10549975910E+04  0.15294330000E+03 0.  0.
<mgrwt>
<rscale>  0 0.86325886E+03</rscale>
<asrwt>0</asrwt>
<pdfrwt beam="1">  1        1 0.15523469E+00 0.86325886E+03</pdfrwt>
<pdfrwt beam="2">  1       -1 0.19526141E+00 0.86325886E+03</pdfrwt>
<totfact> 0.24727265E+00</totfact>
</mgrwt>
</event>
<event>
 4    1  0.2731969E-009  0.2064076E+04  0.7818608E-02  0.8577235E-01
         -1   -1    0    0    0  501 -0.00000000000E+00  0.00000000000E+00  0.18878464389E+04  0.18878464389E+04  0.50400000000E-02 0.  1.
          1   -1    0    0  501    0  0.00000000000E+00 -0.00000000000E+00 -0.27986991944E+04  0.27986991944E+04  0.50400000000E-02 0. -1.
    8880022    1    1    2    0    0  0.84750021785E+03  0.18758362028E+04 -0.14865753757E+04  0.25436815995E+04  0.15294330000E+03 0.  0.
    8880022    1    1    2    0    0 -0.84750021785E+03 -0.18758362028E+04  0.57572262009E+03  0.21428640338E+04  0.15294330000E+03 0.  0.
<mgrwt>
<rscale>  0 0.20640760E+04</rscale>
<asrwt>0</asrwt>
<pdfrwt beam="1">  1        1 0.43056911E+00 0.20640760E+04</pdfrwt>
<pdfrwt beam="2">  1       -1 0.29043791E+00 0.20640760E+04</pdfrwt>
<totfact> 0.28026279E-02</totfact>
</mgrwt>
</event>
<event>
 4    1  0.2731969E-009  0.6553558E+03  0.7818608E-02  0.9796781E-01
         -1   -1    0    0    0  501 -0.00000000000E+00  0.00000000000E+00  0.95727700655E+03  0.95727700656E+03  0.50400000000E-02 0.  1.
          1   -1    0    0  501    0  0.00000000000E+00 -0.00000000000E+00 -0.10510708089E+04  0.10510708089E+04  0.50400000000E-02 0. -1.
    8880022    1    1    2    0    0 -0.27147857362E+03  0.57654050245E+03  0.71332360452E+03  0.96867011138E+03  0.15294330000E+03 0.  0.
    8880022    1    1    2    0    0  0.27147857362E+03 -0.57654050245E+03 -0.80711740687E+03  0.10396777041E+04  0.15294330000E+03 0.  0.
<mgrwt>
<rscale>  0 0.65535580E+03</rscale>
<asrwt>0</asrwt>
<pdfrwt beam="1">  1        1 0.16170320E+00 0.65535580E+03</pdfrwt>
<pdfrwt beam="2">  1       -1 0.14727339E+00 0.65535580E+03</pdfrwt>
<totfact> 0.53323158E+00</totfact>
</mgrwt>
</event>
<event>
 4    1  0.2731969E-009  0.2593705E+03  0.7818608E-02  0.1107522E+00
         -1   -1    0    0    0  501 -0.00000000000E+00  0.00000000000E+00  0.42733798783E+03  0.42733798786E+03  0.50400000000E-02 0.  1.
          1   -1    0    0  501    0  0.00000000000E+00 -0.00000000000E+00 -0.59021956013E+03  0.59021956016E+03  0.50400000000E-02 0. -1.
    8880022    1    1    2    0    0 -0.98568997733E+02  0.18483927336E+03 -0.51711696646E+03  0.57851794640E+03  0.15294330000E+03 0.  0.
    8880022    1    1    2    0    0  0.98568997733E+02 -0.18483927336E+03  0.35423539416E+03  0.43903960161E+03  0.15294330000E+03 0.  1.
<mgrwt>
<rscale>  0 0.25937050E+03</rscale>
<asrwt>0</asrwt>
<pdfrwt beam="1">  1        1 0.90803009E-01 0.25937050E+03</pdfrwt>
<pdfrwt beam="2">  1       -1 0.65744306E-01 0.25937050E+03</pdfrwt>
<totfact> 0.88829022E+01</totfact>
</mgrwt>
</event>
<event>
 4    1  0.2731969E-009  0.2644444E+03  0.7818608E-02  0.1104502E+00
         -1   -1    0    0    0  501 -0.00000000000E+00  0.00000000000E+00  0.64089985855E+03  0.64089985857E+03  0.50400000000E-02 0.  1.
          1   -1    0    0  501    0  0.00000000000E+00 -0.00000000000E+00 -0.19477563411E+03  0.19477563417E+03  0.50400000000E-02 0. -1.
    8880022    1    1    2    0    0  0.19635145440E+03 -0.89360547621E+02  0.50016094317E+03  0.56576658014E+03  0.15294330000E+03 0.  0.
    8880022    1    1    2    0    0 -0.19635145440E+03  0.89360547621E+02 -0.54036718720E+02  0.26990891260E+03  0.15294330000E+03 0.  0.
<mgrwt>
<rscale>  0 0.26444443E+03</rscale>
<asrwt>0</asrwt>
<pdfrwt beam="1">  1        1 0.29965482E-01 0.26444443E+03</pdfrwt>
<pdfrwt beam="2">  1       -1 0.98599979E-01 0.26444443E+03</pdfrwt>
<totfact> 0.15901521E+02</totfact>
</mgrwt>
</event>
<event>
 4    1  0.2731969E-009  0.5061459E+03  0.7818608E-02  0.1012187E+00
         -1   -1    0    0    0  501 -0.00000000000E+00  0.00000000000E+00  0.88560073508E+02  0.88560073651E+02  0.50400000000E-02 0.  1.
          1   -1    0    0  501    0  0.00000000000E+00 -0.00000000000E+00 -0.33816710004E+04  0.33816710004E+04  0.50400000000E-02 0. -1.
    8880022    1    1    2    0    0  0.48161086268E+03  0.29034519427E+02 -0.98681303894E+03  0.11090462809E+04  0.15294330000E+03 0.  0.
    8880022    1    1    2    0    0 -0.48161086268E+03 -0.29034519427E+02 -0.23062978880E+04  0.23611847932E+04  0.15294330000E+03 0.  0.
<mgrwt>
<rscale>  0 0.50614591E+03</rscale>
<asrwt>0</asrwt>
<pdfrwt beam="1">  1        1 0.52025698E+00 0.50614591E+03</pdfrwt>
<pdfrwt beam="2">  1       -1 0.13624629E-01 0.50614591E+03</pdfrwt>
<totfact> 0.13369550E+01</totfact>
</mgrwt>
</event>
<event>
 4    1  0.2731969E-009  0.9234135E+03  0.7818608E-02  0.9396778E-01
          1   -1    0    0  501    0  0.00000000000E+00  0.00000000000E+00  0.15579192103E+04  0.15579192103E+04  0.50400000000E-02 0. -1.
         -1   -1    0    0    0  501 -0.00000000000E+00 -0.00000000000E+00 -0.93685690603E+03  0.93685690604E+03  0.50400000000E-02 0.  1.
    8880022    1    1    2    0    0  0.59164003446E+03  0.69228816407E+03 -0.49380003966E+03  0.10471537445E+04  0.15294330000E+03 0.  0.
    8880022    1    1    2    0    0 -0.59164003446E+03 -0.69228816407E+03  0.11148623439E+04  0.14476223718E+04  0.15294330000E+03 0.  0.
<mgrwt>
<rscale>  0 0.92341350E+03</rscale>
<asrwt>0</asrwt>
<pdfrwt beam="1">  1        1 0.23967988E+00 0.92341350E+03</pdfrwt>
<pdfrwt beam="2">  1       -1 0.14413183E+00 0.92341350E+03</pdfrwt>
<totfact> 0.23552866E+00</totfact>
</mgrwt>
</event>
<event>
 4    1  0.2731969E-009  0.7718742E+03  0.7818608E-02  0.9601645E-01
         -1   -1    0    0    0  501 -0.00000000000E+00  0.00000000000E+00  0.81269838226E+03  0.81269838228E+03  0.50400000000E-02 0.  1.
          1   -1    0    0  501    0  0.00000000000E+00 -0.00000000000E+00 -0.87202292962E+03  0.87202292964E+03  0.50400000000E-02 0. -1.
    8880022    1    1    2    0    0  0.35329988713E+03  0.66901216470E+03  0.30655499790E+03  0.83052134621E+03  0.15294330000E+03 0.  0.
    8880022    1    1    2    0    0 -0.35329988713E+03 -0.66901216470E+03 -0.36587954526E+03  0.85419996571E+03  0.15294330000E+03 0.  0.
<mgrwt>
<rscale>  0 0.77187417E+03</rscale>
<asrwt>0</asrwt>
<pdfrwt beam="1">  1        1 0.13415737E+00 0.77187417E+03</pdfrwt>
<pdfrwt beam="2">  1       -1 0.12503052E+00 0.77187417E+03</pdfrwt>
<totfact> 0.11036398E+01</totfact>
</mgrwt>
</event>
<event>
 4    1  0.2731969E-009  0.9548627E+03  0.7818608E-02  0.9359485E-01
         -1   -1    0    0    0  501 -0.00000000000E+00  0.00000000000E+00  0.12416044352E+04  0.12416044352E+04  0.50400000000E-02 0.  1.
          1   -1    0    0  501    0  0.00000000000E+00 -0.00000000000E+00 -0.10681059636E+04  0.10681059636E+04  0.50400000000E-02 0. -1.
    8880022    1    1    2    0    0  0.19866674137E+03  0.92135910982E+03 -0.55881557484E+03  0.11063623200E+04  0.15294330000E+03 0. -1.
    8880022    1    1    2    0    0 -0.19866674137E+03 -0.92135910982E+03  0.73231404643E+03  0.12033480789E+04  0.15294330000E+03 0.  0.
<mgrwt>
<rscale>  0 0.95486268E+03</rscale>
<asrwt>0</asrwt>
<pdfrwt beam="1">  1        1 0.16432399E+00 0.95486268E+03</pdfrwt>
<pdfrwt beam="2">  1       -1 0.19101607E+00 0.95486268E+03</pdfrwt>
<totfact> 0.23535526E+00</totfact>
</mgrwt>
</event>
<event>
 4    1  0.2731969E-009  0.1114074E+04  0.7818608E-02  0.9191582E-01
         -1   -1    0    0    0  501 -0.00000000000E+00  0.00000000000E+00  0.12872328957E+04  0.12872328957E+04  0.50400000000E-02 0.  1.
          1   -1    0    0  501    0  0.00000000000E+00 -0.00000000000E+00 -0.15128440671E+04  0.15128440671E+04  0.50400000000E-02 0. -1.
    8880022    1    1    2    0    0 -0.99816381264E+03  0.47057201902E+03 -0.95591694004E+03  0.14679706643E+04  0.15294330000E+03 0.  0.
    8880022    1    1    2    0    0  0.99816381264E+03 -0.47057201902E+03  0.73030576863E+03  0.13321062986E+04  0.15294330000E+03 0.  0.
<mgrwt>
<rscale>  0 0.11140739E+04</rscale>
<asrwt>0</asrwt>
<pdfrwt beam="1">  1        1 0.23274524E+00 0.11140739E+04</pdfrwt>
<pdfrwt beam="2">  1       -1 0.19803583E+00 0.11140739E+04</pdfrwt>
<totfact> 0.98616506E-01</totfact>
</mgrwt>
</event>
<event>
 4    1  0.2731969E-009  0.1760387E+04  0.7818608E-02  0.8727654E-01
          1   -1    0    0  501    0  0.00000000000E+00  0.00000000000E+00  0.17458001012E+04  0.17458001012E+04  0.50400000000E-02 0. -1.
         -1   -1    0    0    0  501 -0.00000000000E+00 -0.00000000000E+00 -0.21761675889E+04  0.21761675889E+04  0.50400000000E-02 0.  1.
    8880022    1    1    2    0    0  0.14922644860E+04  0.92125820057E+03 -0.10570423473E+04  0.20533631304E+04  0.15294330000E+03 0.  0.
    8880022    1    1    2    0    0 -0.14922644860E+04 -0.92125820057E+03  0.62667485957E+03  0.18686045598E+04  0.15294330000E+03 0.  0.
<mgrwt>
<rscale>  0 0.17603868E+04</rscale>
<asrwt>0</asrwt>
<pdfrwt beam="1">  1        1 0.26858463E+00 0.17603868E+04</pdfrwt>
<pdfrwt beam="2">  1       -1 0.33479501E+00 0.17603868E+04</pdfrwt>
<totfact> 0.79527820E-02</totfact>
</mgrwt>
</event>
<event>
 4    1  0.2731969E-009  0.2907447E+03  0.7818608E-02  0.1089961E+00
         -1   -1    0    0    0  501 -0.00000000000E+00  0.00000000000E+00  0.19198510752E+03  0.19198510758E+03  0.50400000000E-02 0.  1.
          1   -1    0    0  501    0  0.00000000000E+00 -0.00000000000E+00 -0.20467399483E+04  0.20467399483E+04  0.50400000000E-02 0. -1.
    8880022    1    1    2    0    0 -0.12913536105E+03 -0.21086698821E+03 -0.19190553918E+04  0.19409549397E+04  0.15294330000E+03 0.  0.
    8880022    1    1    2    0    0  0.12913536105E+03  0.21086698821E+03  0.64300551046E+02  0.29777011614E+03  0.15294330000E+03 0.  1.
<mgrwt>
<rscale>  0 0.29074470E+03</rscale>
<asrwt>0</asrwt>
<pdfrwt beam="1">  1        1 0.31488305E+00 0.29074470E+03</pdfrwt>
<pdfrwt beam="2">  1       -1 0.29536172E-01 0.29074470E+03</pdfrwt>
<totfact> 0.33143948E+01</totfact>
</mgrwt>
</event>
<event>
 4    1  0.2731969E-009  0.9242003E+03  0.7818608E-02  0.9395825E-01
          1   -1    0    0  501    0  0.00000000000E+00  0.00000000000E+00  0.23411971874E+04  0.23411971874E+04  0.50400000000E-02 0. -1.
         -1   -1    0    0    0  501 -0.00000000000E+00 -0.00000000000E+00 -0.61193059167E+03  0.61193059169E+03  0.50400000000E-02 0.  1.
    8880022    1    1    2    0    0 -0.45747999845E+03  0.78833152345E+03 -0.73652930789E+02  0.92713049086E+03  0.15294330000E+03 0.  0.
    8880022    1    1    2    0    0  0.45747999845E+03 -0.78833152345E+03  0.18029195265E+04  0.20259972883E+04  0.15294330000E+03 0.  0.
<mgrwt>
<rscale>  0 0.92420030E+03</rscale>
<asrwt>0</asrwt>
<pdfrwt beam="1">  1        1 0.36018418E+00 0.92420030E+03</pdfrwt>
<pdfrwt beam="2">  1       -1 0.94143168E-01 0.92420030E+03</pdfrwt>
<totfact> 0.19591952E+00</totfact>
</mgrwt>
</event>
<event>
 4    1  0.2731969E-009  0.6633578E+03  0.7818608E-02  0.9782032E-01
         -1   -1    0    0    0  501 -0.00000000000E+00  0.00000000000E+00  0.25207353246E+03  0.25207353251E+03  0.50400000000E-02 0.  1.
          1   -1    0    0  501    0  0.00000000000E+00 -0.00000000000E+00 -0.19849365235E+04  0.19849365235E+04  0.50400000000E-02 0. -1.
    8880022    1    1    2    0    0 -0.56695387038E+03 -0.30856965428E+03 -0.47811784705E+03  0.81770425666E+03  0.15294330000E+03 0.  0.
    8880022    1    1    2    0    0  0.56695387038E+03  0.30856965428E+03 -0.12547451439E+04  0.14193057993E+04  0.15294330000E+03 0.  0.
<mgrwt>
<rscale>  0 0.66335780E+03</rscale>
<asrwt>0</asrwt>
<pdfrwt beam="1">  1        1 0.30537484E+00 0.66335780E+03</pdfrwt>
<pdfrwt beam="2">  1       -1 0.38780545E-01 0.66335780E+03</pdfrwt>
<totfact> 0.20726880E+01</totfact>
</mgrwt>
</event>
<event>
 4    1  0.2731969E-009  0.6077580E+03  0.7818608E-02  0.9889440E-01
         -1   -1    0    0    0  501 -0.00000000000E+00  0.00000000000E+00  0.14116699398E+04  0.14116699398E+04  0.50400000000E-02 0.  1.
          1   -1    0    0  501    0  0.00000000000E+00 -0.00000000000E+00 -0.57432328057E+03  0.57432328059E+03  0.50400000000E-02 0. -1.
    8880022    1    1    2    0    0 -0.44955967037E+03 -0.37930749493E+03  0.11513491309E+04  0.13019118815E+04  0.15294330000E+03 0.  0.
    8880022    1    1    2    0    0  0.44955967037E+03  0.37930749493E+03 -0.31400247171E+03  0.68408133887E+03  0.15294330000E+03 0.  0.
<mgrwt>
<rscale>  0 0.60775795E+03</rscale>
<asrwt>0</asrwt>
<pdfrwt beam="1">  1        1 0.88357429E-01 0.60775795E+03</pdfrwt>
<pdfrwt beam="2">  1       -1 0.21717999E+00 0.60775795E+03</pdfrwt>
<totfact> 0.44562369E+00</totfact>
</mgrwt>
</event>
<event>
 4    1  0.2731969E-009  0.4584569E+03  0.7818608E-02  0.1025230E+00
          1   -1    0    0  501    0  0.00000000000E+00  0.00000000000E+00  0.14653080468E+04  0.14653080468E+04  0.50400000000E-02 0. -1.
         -1   -1    0    0    0  501 -0.00000000000E+00 -0.00000000000E+00 -0.31824795179E+03  0.31824795183E+03  0.50400000000E-02 0.  1.
    8880022    1    1    2    0    0  0.39130142846E+03  0.18350545582E+03  0.12344600197E+04  0.13168425318E+04  0.15294330000E+03 0.  0.
    8880022    1    1    2    0    0 -0.39130142846E+03 -0.18350545582E+03 -0.87399924761E+02  0.46671346680E+03  0.15294330000E+03 0.  0.
<mgrwt>
<rscale>  0 0.45845688E+03</rscale>
<asrwt>0</asrwt>
<pdfrwt beam="1">  1        1 0.22543201E+00 0.45845688E+03</pdfrwt>
<pdfrwt beam="2">  1       -1 0.48961223E-01 0.45845688E+03</pdfrwt>
<totfact> 0.31178748E+01</totfact>
</mgrwt>
</event>
<event>
 4    1  0.2731969E-009  0.1001387E+04  0.7818608E-02  0.9307025E-01
          1   -1    0    0  501    0  0.00000000000E+00  0.00000000000E+00  0.12837732079E+04  0.12837732079E+04  0.50400000000E-02 0. -1.
         -1   -1    0    0    0  501 -0.00000000000E+00 -0.00000000000E+00 -0.88170343136E+03  0.88170343137E+03  0.50400000000E-02 0.  1.
    8880022    1    1    2    0    0 -0.54577510074E+01  0.98962325545E+03 -0.16467304271E+03  0.10148363606E+04  0.15294330000E+03 0.  1.
    8880022    1    1    2    0    0  0.54577510074E+01 -0.98962325545E+03  0.56674281925E+03  0.11506402787E+04  0.15294330000E+03 0.  0.
<mgrwt>
<rscale>  0 0.10013869E+04</rscale>
<asrwt>0</asrwt>
<pdfrwt beam="1">  1        1 0.19750357E+00 0.10013869E+04</pdfrwt>
<pdfrwt beam="2">  1       -1 0.13564668E+00 0.10013869E+04</pdfrwt>
<totfact> 0.42429505E+00</totfact>
</mgrwt>
</event>
<event>
 4    1  0.2731969E-009  0.2318982E+03  0.7818608E-02  0.1125311E+00
          1   -1    0    0  501    0  0.00000000000E+00  0.00000000000E+00  0.11806287088E+04  0.11806287089E+04  0.50400000000E-02 0. -1.
         -1   -1    0    0    0  501 -0.00000000000E+00 -0.00000000000E+00 -0.41854491440E+03  0.41854491443E+03  0.50400000000E-02 0.  1.
    8880022    1    1    2    0    0  0.16073135495E+03 -0.67457900186E+02 -0.37378342478E+03  0.43987593526E+03  0.15294330000E+03 0.  0.
    8880022    1    1    2    0    0 -0.16073135495E+03  0.67457900186E+02  0.11358672192E+04  0.11592976880E+04  0.15294330000E+03 0. -1.
<mgrwt>
<rscale>  0 0.23189823E+03</rscale>
<asrwt>0</asrwt>
<pdfrwt beam="1">  1        1 0.18163518E+00 0.23189823E+03</pdfrwt>
<pdfrwt beam="2">  1       -1 0.64391526E-01 0.23189823E+03</pdfrwt>
<totfact> 0.30870342E+01</totfact>
</mgrwt>
</event>
<event>
 4    1  0.2731969E-009  0.3554937E+03  0.7818608E-02  0.1060383E+00
         -1   -1    0    0    0  501 -0.00000000000E+00  0.00000000000E+00  0.43744757924E+03  0.43744757927E+03  0.50400000000E-02 0.  1.
          1   -1    0    0  501    0  0.00000000000E+00 -0.00000000000E+00 -0.12309536307E+04  0.12309536307E+04  0.50400000000E-02 0. -1.
    8880022    1    1    2    0    0  0.31821163110E+03  0.41538505094E+02  0.33302196509E+03  0.48711330491E+03  0.15294330000E+03 0.  0.
    8880022    1    1    2    0    0 -0.31821163110E+03 -0.41538505094E+02 -0.11265280166E+04  0.11812879051E+04  0.15294330000E+03 0.  0.
<mgrwt>
<rscale>  0 0.35549366E+03</rscale>
<asrwt>0</asrwt>
<pdfrwt beam="1">  1        1 0.18937748E+00 0.35549366E+03</pdfrwt>
<pdfrwt beam="2">  1       -1 0.67299628E-01 0.35549366E+03</pdfrwt>
<totfact> 0.25064795E+01</totfact>
</mgrwt>
</event>
<event>
 4    1  0.2731969E-009  0.9163338E+03  0.7818608E-02  0.9405391E-01
          1   -1    0    0  501    0  0.00000000000E+00  0.00000000000E+00  0.23253857791E+04  0.23253857791E+04  0.50400000000E-02 0. -1.
         -1   -1    0    0    0  501 -0.00000000000E+00 -0.00000000000E+00 -0.90091629439E+03  0.90091629440E+03  0.50400000000E-02 0.  1.
    8880022    1    1    2    0    0 -0.65352861189E+03 -0.62384005575E+03  0.19609425801E+04  0.21644776545E+04  0.15294330000E+03 0.  0.
    8880022    1    1    2    0    0  0.65352861189E+03  0.62384005575E+03 -0.53647309533E+03  0.10618244190E+04  0.15294330000E+03 0.  0.
<mgrwt>
<rscale>  0 0.91633384E+03</rscale>
<asrwt>0</asrwt>
<pdfrwt beam="1">  1        1 0.35775165E+00 0.91633384E+03</pdfrwt>
<pdfrwt beam="2">  1       -1 0.13860251E+00 0.91633384E+03</pdfrwt>
<totfact> 0.79273049E-01</totfact>
</mgrwt>
</event>
<event>
 4    1  0.2731969E-009  0.1263162E+04  0.7818608E-02  0.9059299E-01
          1   -1    0    0  501    0  0.00000000000E+00  0.00000000000E+00  0.30947389650E+04  0.30947389650E+04  0.50400000000E-02 0. -1.
         -1   -1    0    0    0  501 -0.00000000000E+00 -0.00000000000E+00 -0.98931984563E+03  0.98931984564E+03  0.50400000000E-02 0.  1.
    8880022    1    1    2    0    0  0.28717444588E+03  0.12205395486E+04  0.24657830854E+04  0.27704988413E+04  0.15294330000E+03 0.  0.
    8880022    1    1    2    0    0 -0.28717444588E+03 -0.12205395486E+04 -0.36036396604E+03  0.13135599694E+04  0.15294330000E+03 0.  0.
<mgrwt>
<rscale>  0 0.12631617E+04</rscale>
<asrwt>0</asrwt>
<pdfrwt beam="1">  1        1 0.47611368E+00 0.12631617E+04</pdfrwt>
<pdfrwt beam="2">  1       -1 0.15220306E+00 0.12631617E+04</pdfrwt>
<totfact> 0.16807122E-01</totfact>
</mgrwt>
</event>
<event>
 4    1  0.2731969E-009  0.5776462E+03  0.7818608E-02  0.9952900E-01
         -1   -1    0    0    0  501 -0.00000000000E+00  0.00000000000E+00  0.47178321320E+03  0.47178321323E+03  0.50400000000E-02 0.  1.
          1   -1    0    0  501    0  0.00000000000E+00 -0.00000000000E+00 -0.11282193122E+04  0.11282193122E+04  0.50400000000E-02 0. -1.
    8880022    1    1    2    0    0 -0.45414144214E+03  0.32255078142E+03  0.16044791844E+03  0.59951534060E+03  0.15294330000E+03 0.  0.
    8880022    1    1    2    0    0  0.45414144214E+03 -0.32255078142E+03 -0.81688401745E+03  0.10004871848E+04  0.15294330000E+03 0.  0.
<mgrwt>
<rscale>  0 0.57764618E+03</rscale>
<asrwt>0</asrwt>
<pdfrwt beam="1">  1        1 0.17357220E+00 0.57764618E+03</pdfrwt>
<pdfrwt beam="2">  1       -1 0.72582033E-01 0.57764618E+03</pdfrwt>
<totfact> 0.24364302E+01</totfact>
</mgrwt>
</event>
<event>
 4    1  0.2731969E-009  0.6845815E+03  0.7818608E-02  0.9743969E-01
          1   -1    0    0  501    0  0.00000000000E+00  0.00000000000E+00  0.20803689530E+04  0.20803689530E+04  0.50400000000E-02 0. -1.
         -1   -1    0    0    0  501 -0.00000000000E+00 -0.00000000000E+00 -0.44298584923E+03  0.44298584926E+03  0.50400000000E-02 0.  1.
    8880022    1    1    2    0    0  0.31517154424E+03  0.58815563444E+03  0.17031858152E+04  0.18356180776E+04  0.15294330000E+03 0.  0.
    8880022    1    1    2    0    0 -0.31517154424E+03 -0.58815563444E+03 -0.65802711441E+02  0.68773672467E+03  0.15294330000E+03 0.  0.
<mgrwt>
<rscale>  0 0.68458148E+03</rscale>
<asrwt>0</asrwt>
<pdfrwt beam="1">  1        1 0.32005676E+00 0.68458148E+03</pdfrwt>
<pdfrwt beam="2">  1       -1 0.68151670E-01 0.68458148E+03</pdfrwt>
<totfact> 0.60869802E+00</totfact>
</mgrwt>
</event>
<event>
 4    1  0.2731969E-009  0.4084822E+03  0.7818608E-02  0.1040882E+00
         -1   -1    0    0    0  501 -0.00000000000E+00  0.00000000000E+00  0.10434824261E+04  0.10434824261E+04  0.50400000000E-02 0.  1.
          1   -1    0    0  501    0  0.00000000000E+00 -0.00000000000E+00 -0.84028497948E+03  0.84028497950E+03  0.50400000000E-02 0. -1.
    8880022    1    1    2    0    0  0.31505943940E+03  0.21024659525E+03  0.94913802063E+03  0.10333057226E+04  0.15294330000E+03 0.  0.
    8880022    1    1    2    0    0 -0.31505943940E+03 -0.21024659525E+03 -0.74594057405E+03  0.85046168297E+03  0.15294330000E+03 0.  0.
<mgrwt>
<rscale>  0 0.40848223E+03</rscale>
<asrwt>0</asrwt>
<pdfrwt beam="1">  1        1 0.12927461E+00 0.40848223E+03</pdfrwt>
<pdfrwt beam="2">  1       -1 0.16053576E+00 0.40848223E+03</pdfrwt>
<totfact> 0.65416915E+00</totfact>
</mgrwt>
</event>
<event>
 4    1  0.2731969E-009  0.6214677E+03  0.7818608E-02  0.9861842E-01
         -1   -1    0    0    0  501 -0.00000000000E+00  0.00000000000E+00  0.72055210915E+03  0.72055210917E+03  0.50400000000E-02 0.  1.
          1   -1    0    0  501    0  0.00000000000E+00 -0.00000000000E+00 -0.17959995856E+04  0.17959995856E+04  0.50400000000E-02 0. -1.
    8880022    1    1    2    0    0  0.59526706174E+03  0.92128010341E+02 -0.15916408850E+04  0.17086669672E+04  0.15294330000E+03 0.  0.
    8880022    1    1    2    0    0 -0.59526706174E+03 -0.92128010341E+02  0.51619340850E+03  0.80788472759E+03  0.15294330000E+03 0.  0.
<mgrwt>
<rscale>  0 0.62146770E+03</rscale>
<asrwt>0</asrwt>
<pdfrwt beam="1">  1        1 0.27630763E+00 0.62146770E+03</pdfrwt>
<pdfrwt beam="2">  1       -1 0.11085417E+00 0.62146770E+03</pdfrwt>
<totfact> 0.33060211E+00</totfact>
</mgrwt>
</event>
<event>
 4    1  0.2731969E-009  0.3370191E+03  0.7818608E-02  0.1068073E+00
         -1   -1    0    0    0  501 -0.00000000000E+00  0.00000000000E+00  0.10677681249E+04  0.10677681249E+04  0.50400000000E-02 0.  1.
          1   -1    0    0  501    0  0.00000000000E+00 -0.00000000000E+00 -0.12271402234E+04  0.12271402234E+04  0.50400000000E-02 0. -1.
    8880022    1    1    2    0    0 -0.17650329177E+03  0.24297491777E+03  0.10169081216E+04  0.10713001463E+04  0.15294330000E+03 0.  1.
    8880022    1    1    2    0    0  0.17650329177E+03 -0.24297491777E+03 -0.11762802201E+04  0.12236082019E+04  0.15294330000E+03 0.  0.
<mgrwt>
<rscale>  0 0.33701910E+03</rscale>
<asrwt>0</asrwt>
<pdfrwt beam="1">  1        1 0.18879080E+00 0.33701910E+03</pdfrwt>
<pdfrwt beam="2">  1       -1 0.16427202E+00 0.33701910E+03</pdfrwt>
<totfact> 0.32147732E+00</totfact>
</mgrwt>
</event>
<event>
 4    1  0.2731969E-009  0.2470295E+03  0.7818608E-02  0.1115197E+00
         -1   -1    0    0    0  501 -0.00000000000E+00  0.00000000000E+00  0.58151791943E+03  0.58151791945E+03  0.50400000000E-02 0.  1.
          1   -1    0    0  501    0  0.00000000000E+00 -0.00000000000E+00 -0.55481297242E+03  0.55481297245E+03  0.50400000000E-02 0. -1.
    8880022    1    1    2    0    0 -0.66738882970E+02 -0.18214788892E+03  0.52497212438E+03  0.58018903499E+03  0.15294330000E+03 0.  1.
    8880022    1    1    2    0    0  0.66738882970E+02  0.18214788892E+03 -0.49826717737E+03  0.55614185690E+03  0.15294330000E+03 0.  0.
<mgrwt>
<rscale>  0 0.24702952E+03</rscale>
<asrwt>0</asrwt>
<pdfrwt beam="1">  1        1 0.85355841E-01 0.24702952E+03</pdfrwt>
<pdfrwt beam="2">  1       -1 0.89464296E-01 0.24702952E+03</pdfrwt>
<totfact> 0.51511612E+01</totfact>
</mgrwt>
</event>
<event>
 4    1  0.2731969E-009  0.1392762E+04  0.7818608E-02  0.8959075E-01
          1   -1    0    0  501    0  0.00000000000E+00  0.00000000000E+00  0.20570534970E+04  0.20570534970E+04  0.50400000000E-02 0. -1.
         -1   -1    0    0    0  501 -0.00000000000E+00 -0.00000000000E+00 -0.15121575456E+04  0.15121575456E+04  0.50400000000E-02 0.  1.
    8880022    1    1    2    0    0  0.13077172260E+04 -0.45416905884E+03  0.13673188756E+04  0.19517547074E+04  0.15294330000E+03 0.  0.
    8880022    1    1    2    0    0 -0.13077172260E+04  0.45416905884E+03 -0.82242292415E+03  0.16174563352E+04  0.15294330000E+03 0.  0.
<mgrwt>
<rscale>  0 0.13927618E+04</rscale>
<asrwt>0</asrwt>
<pdfrwt beam="1">  1        1 0.31646977E+00 0.13927618E+04</pdfrwt>
<pdfrwt beam="2">  1       -1 0.23263962E+00 0.13927618E+04</pdfrwt>
<totfact> 0.23636849E-01</totfact>
</mgrwt>
</event>
<event>
 4    1  0.2731969E-009  0.1476409E+04  0.7818608E-02  0.8900294E-01
         -1   -1    0    0    0  501 -0.00000000000E+00  0.00000000000E+00  0.13589618952E+04  0.13589618952E+04  0.50400000000E-02 0.  1.
          1   -1    0    0  501    0  0.00000000000E+00 -0.00000000000E+00 -0.18796497852E+04  0.18796497852E+04  0.50400000000E-02 0. -1.
    8880022    1    1    2    0    0 -0.27712187469E+03 -0.14420805432E+04 -0.88044672297E+03  0.17190028829E+04  0.15294330000E+03 0.  0.
    8880022    1    1    2    0    0  0.27712187469E+03  0.14420805432E+04  0.35975883303E+03  0.15196087975E+04  0.15294330000E+03 0.  0.
<mgrwt>
<rscale>  0 0.14764093E+04</rscale>
<asrwt>0</asrwt>
<pdfrwt beam="1">  1        1 0.28917689E+00 0.14764093E+04</pdfrwt>
<pdfrwt beam="2">  1       -1 0.20907106E+00 0.14764093E+04</pdfrwt>
<totfact> 0.44463838E-01</totfact>
</mgrwt>
</event>
<event>
 4    1  0.2731969E-009  0.5654871E+03  0.7818608E-02  0.9979715E-01
          1   -1    0    0  501    0  0.00000000000E+00  0.00000000000E+00  0.10930493296E+04  0.10930493297E+04  0.50400000000E-02 0. -1.
         -1   -1    0    0    0  501 -0.00000000000E+00 -0.00000000000E+00 -0.75759114669E+03  0.75759114670E+03  0.50400000000E-02 0.  1.
    8880022    1    1    2    0    0 -0.11285233893E+03 -0.53258651647E+03 -0.55723842249E+03  0.79390828213E+03  0.15294330000E+03 0.  1.
    8880022    1    1    2    0    0  0.11285233893E+03  0.53258651647E+03  0.89269660544E+03  0.10567321942E+04  0.15294330000E+03 0.  0.
<mgrwt>
<rscale>  0 0.56548714E+03</rscale>
<asrwt>0</asrwt>
<pdfrwt beam="1">  1        1 0.16816143E+00 0.56548714E+03</pdfrwt>
<pdfrwt beam="2">  1       -1 0.11655249E+00 0.56548714E+03</pdfrwt>
<totfact> 0.90937285E+00</totfact>
</mgrwt>
</event>
<event>
 4    1  0.2731969E-009  0.1275165E+04  0.7818608E-02  0.9049495E-01
          1   -1    0    0  501    0  0.00000000000E+00  0.00000000000E+00  0.66907396893E+03  0.66907396895E+03  0.50400000000E-02 0. -1.
         -1   -1    0    0    0  501 -0.00000000000E+00 -0.00000000000E+00 -0.39915950072E+04  0.39915950072E+04  0.50400000000E-02 0.  1.
    8880022    1    1    2    0    0 -0.97219697991E+03  0.81085518536E+03 -0.31186938604E+04  0.33693168666E+04  0.15294330000E+03 0.  0.
    8880022    1    1    2    0    0  0.97219697991E+03 -0.81085518536E+03 -0.20382717782E+03  0.12913521095E+04  0.15294330000E+03 0.  0.
<mgrwt>
<rscale>  0 0.12751646E+04</rscale>
<asrwt>0</asrwt>
<pdfrwt beam="1">  1        1 0.10293446E+00 0.12751646E+04</pdfrwt>
<pdfrwt beam="2">  1       -1 0.61409152E+00 0.12751646E+04</pdfrwt>
<totfact> 0.10781004E-02</totfact>
</mgrwt>
</event>
<event>
 4    1  0.2731969E-009  0.5862229E+03  0.7818608E-02  0.9934409E-01
          1   -1    0    0  501    0  0.00000000000E+00  0.00000000000E+00  0.17610336334E+04  0.17610336334E+04  0.50400000000E-02 0. -1.
         -1   -1    0    0    0  501 -0.00000000000E+00 -0.00000000000E+00 -0.39797191790E+03  0.39797191793E+03  0.50400000000E-02 0.  1.
    8880022    1    1    2    0    0 -0.50626516402E+03  0.25290558489E+03 -0.89124326667E+02  0.59295906249E+03  0.15294330000E+03 0.  0.
    8880022    1    1    2    0    0  0.50626516402E+03 -0.25290558489E+03  0.14521860422E+04  0.15660464888E+04  0.15294330000E+03 0.  0.
<mgrwt>
<rscale>  0 0.58622291E+03</rscale>
<asrwt>0</asrwt>
<pdfrwt beam="1">  1        1 0.27092825E+00 0.58622291E+03</pdfrwt>
<pdfrwt beam="2">  1       -1 0.61226448E-01 0.58622291E+03</pdfrwt>
<totfact> 0.12539917E+01</totfact>
</mgrwt>
</event>
<event>
 4    1  0.2731969E-009  0.1107634E+04  0.7818608E-02  0.9197783E-01
          1   -1    0    0  501    0  0.00000000000E+00  0.00000000000E+00  0.17716174923E+04  0.17716174923E+04  0.50400000000E-02 0. -1.
         -1   -1    0    0    0  501 -0.00000000000E+00 -0.00000000000E+00 -0.10118019330E+04  0.10118019330E+04  0.50400000000E-02 0.  1.
    8880022    1    1    2    0    0  0.45056864474E+03 -0.10002246373E+04 -0.40189753940E+03  0.11782931358E+04  0.15294330000E+03 0.  0.
    8880022    1    1    2    0    0 -0.45056864474E+03  0.10002246373E+04  0.11617130987E+04  0.16051262895E+04  0.15294330000E+03 0.  0.
<mgrwt>
<rscale>  0 0.11076340E+04</rscale>
<asrwt>0</asrwt>
<pdfrwt beam="1">  1        1 0.27255654E+00 0.11076340E+04</pdfrwt>
<pdfrwt beam="2">  1       -1 0.15566184E+00 0.11076340E+04</pdfrwt>
<totfact> 0.13342006E+00</totfact>
</mgrwt>
</event>
<event>
 4    1  0.2731969E-009  0.4382444E+03  0.7818608E-02  0.1031287E+00
          1   -1    0    0  501    0  0.00000000000E+00  0.00000000000E+00  0.42728176787E+03  0.42728176790E+03  0.50400000000E-02 0. -1.
         -1   -1    0    0    0  501 -0.00000000000E+00 -0.00000000000E+00 -0.20616119822E+04  0.20616119822E+04  0.50400000000E-02 0.  1.
    8880022    1    1    2    0    0  0.27068497479E+03 -0.30886271758E+03 -0.19176195438E+04  0.19670594555E+04  0.15294330000E+03 0.  1.
    8880022    1    1    2    0    0 -0.27068497479E+03  0.30886271758E+03  0.28328932940E+03  0.52183429463E+03  0.15294330000E+03 0.  0.
<mgrwt>
<rscale>  0 0.43824444E+03</rscale>
<asrwt>0</asrwt>
<pdfrwt beam="1">  1        1 0.65735658E-01 0.43824444E+03</pdfrwt>
<pdfrwt beam="2">  1       -1 0.31717107E+00 0.43824444E+03</pdfrwt>
<totfact> 0.15910117E+00</totfact>
</mgrwt>
</event>
<event>
 4    1  0.2731969E-009  0.4115458E+03  0.7818608E-02  0.1039854E+00
          1   -1    0    0  501    0  0.00000000000E+00  0.00000000000E+00  0.22925211796E+04  0.22925211796E+04  0.50400000000E-02 0. -1.
         -1   -1    0    0    0  501 -0.00000000000E+00 -0.00000000000E+00 -0.11408775672E+03  0.11408775683E+03  0.50400000000E-02 0.  1.
    8880022    1    1    2    0    0  0.20206270051E+03  0.32426680080E+03  0.18035724019E+04  0.18499306352E+04  0.15294330000E+03 0.  0.
    8880022    1    1    2    0    0 -0.20206270051E+03 -0.32426680080E+03  0.37486102098E+03  0.55667830127E+03  0.15294330000E+03 0.  0.
<mgrwt>
<rscale>  0 0.41154580E+03</rscale>
<asrwt>0</asrwt>
<pdfrwt beam="1">  1        1 0.35269558E+00 0.41154580E+03</pdfrwt>
<pdfrwt beam="2">  1       -1 0.17551962E-01 0.41154580E+03</pdfrwt>
<totfact> 0.52514382E+01</totfact>
</mgrwt>
</event>
<event>
 4    1  0.2731969E-009  0.2991932E+03  0.7818608E-02  0.1085645E+00
         -1   -1    0    0    0  501 -0.00000000000E+00  0.00000000000E+00  0.51857850781E+03  0.51857850783E+03  0.50400000000E-02 0.  1.
          1   -1    0    0  501    0  0.00000000000E+00 -0.00000000000E+00 -0.88916247303E+03  0.88916247305E+03  0.50400000000E-02 0. -1.
    8880022    1    1    2    0    0 -0.42366298842E+02 -0.25363359953E+03 -0.81715572450E+03  0.87020689332E+03  0.15294330000E+03 0.  0.
    8880022    1    1    2    0    0  0.42366298842E+02  0.25363359953E+03  0.44657175928E+03  0.53753408756E+03  0.15294330000E+03 0.  1.
<mgrwt>
<rscale>  0 0.29919318E+03</rscale>
<asrwt>0</asrwt>
<pdfrwt beam="1">  1        1 0.13679423E+00 0.29919318E+03</pdfrwt>
<pdfrwt beam="2">  1       -1 0.79781309E-01 0.29919318E+03</pdfrwt>
<totfact> 0.32248230E+01</totfact>
</mgrwt>
</event>
<event>
 4    1  0.2731969E-009  0.7256045E+03  0.7818608E-02  0.9674420E-01
          1   -1    0    0  501    0  0.00000000000E+00  0.00000000000E+00  0.78103271088E+03  0.78103271089E+03  0.50400000000E-02 0. -1.
         -1   -1    0    0    0  501 -0.00000000000E+00 -0.00000000000E+00 -0.93298822196E+03  0.93298822197E+03  0.50400000000E-02 0.  1.
    8880022    1    1    2    0    0 -0.70845719913E+03  0.34621913695E+02 -0.52741338604E+03  0.89703222500E+03  0.15294330000E+03 0.  0.
    8880022    1    1    2    0    0  0.70845719913E+03 -0.34621913695E+02  0.37545787496E+03  0.81698870787E+03  0.15294330000E+03 0.  1.
<mgrwt>
<rscale>  0 0.72560453E+03</rscale>
<asrwt>0</asrwt>
<pdfrwt beam="1">  1        1 0.12015888E+00 0.72560453E+03</pdfrwt>
<pdfrwt beam="2">  1       -1 0.14353665E+00 0.72560453E+03</pdfrwt>
<totfact> 0.93326731E+00</totfact>
</mgrwt>
</event>
<event>
 4    1  0.2731969E-009  0.6079821E+03  0.7818608E-02  0.9888983E-01
          1   -1    0    0  501    0  0.00000000000E+00  0.00000000000E+00  0.11069441453E+04  0.11069441453E+04  0.50400000000E-02 0. -1.
         -1   -1    0    0    0  501 -0.00000000000E+00 -0.00000000000E+00 -0.49481654238E+03  0.49481654241E+03  0.50400000000E-02 0.  1.
    8880022    1    1    2    0    0  0.48794568225E+03 -0.32887630142E+03  0.76273633831E+03  0.97540196086E+03  0.15294330000E+03 0.  0.
    8880022    1    1    2    0    0 -0.48794568225E+03  0.32887630142E+03 -0.15060873543E+03  0.62635872682E+03  0.15294330000E+03 0.  0.
<mgrwt>
<rscale>  0 0.60798212E+03</rscale>
<asrwt>0</asrwt>
<pdfrwt beam="1">  1        1 0.17029910E+00 0.60798212E+03</pdfrwt>
<pdfrwt beam="2">  1       -1 0.76125623E-01 0.60798212E+03</pdfrwt>
<totfact> 0.22779771E+01</totfact>
</mgrwt>
</event>
<event>
 4    1  0.2731969E-009  0.6677901E+03  0.7818608E-02  0.9773958E-01
          1   -1    0    0  501    0  0.00000000000E+00  0.00000000000E+00  0.50089724458E+03  0.50089724460E+03  0.50400000000E-02 0. -1.
         -1   -1    0    0    0  501 -0.00000000000E+00 -0.00000000000E+00 -0.12223651321E+04  0.12223651321E+04  0.50400000000E-02 0.  1.
    8880022    1    1    2    0    0  0.57283843948E+03  0.30725892832E+03  0.88362285813E+02  0.67361077288E+03  0.15294330000E+03 0.  0.
    8880022    1    1    2    0    0 -0.57283843948E+03 -0.30725892832E+03 -0.80983017337E+03  0.10496516039E+04  0.15294330000E+03 0.  1.
<mgrwt>
<rscale>  0 0.66779007E+03</rscale>
<asrwt>0</asrwt>
<pdfrwt beam="1">  1        1 0.77061115E-01 0.66779007E+03</pdfrwt>
<pdfrwt beam="2">  1       -1 0.18805617E+00 0.66779007E+03</pdfrwt>
<totfact> 0.84169494E+00</totfact>
</mgrwt>
</event>
<event>
 4    1  0.2731969E-009  0.9036699E+03  0.7818608E-02  0.9421006E-01
          1   -1    0    0  501    0  0.00000000000E+00  0.00000000000E+00  0.20561490578E+04  0.20561490578E+04  0.50400000000E-02 0. -1.
         -1   -1    0    0    0  501 -0.00000000000E+00 -0.00000000000E+00 -0.64602143220E+03  0.64602143222E+03  0.50400000000E-02 0.  1.
    8880022    1    1    2    0    0  0.76952424759E+03  0.44839714424E+03 -0.13350457246E+03  0.91347834702E+03  0.15294330000E+03 0.  0.
    8880022    1    1    2    0    0 -0.76952424759E+03 -0.44839714424E+03  0.15436321980E+04  0.17886921430E+04  0.15294330000E+03 0.  0.
<mgrwt>
<rscale>  0 0.90366986E+03</rscale>
<asrwt>0</asrwt>
<pdfrwt beam="1">  1        1 0.31633063E+00 0.90366986E+03</pdfrwt>
<pdfrwt beam="2">  1       -1 0.99387911E-01 0.90366986E+03</pdfrwt>
<totfact> 0.27079475E+00</totfact>
</mgrwt>
</event>
<event>
 4    1  0.2731969E-009  0.3443419E+03  0.7818608E-02  0.1064962E+00
         -1   -1    0    0    0  501 -0.00000000000E+00  0.00000000000E+00  0.18700955387E+03  0.18700955394E+03  0.50400000000E-02 0.  1.
          1   -1    0    0  501    0  0.00000000000E+00 -0.00000000000E+00 -0.11584160779E+04  0.11584160779E+04  0.50400000000E-02 0. -1.
    8880022    1    1    2    0    0 -0.30484378950E+03 -0.47433833499E+02 -0.93830815770E+03  0.99949665151E+03  0.15294330000E+03 0. -1.
    8880022    1    1    2    0    0  0.30484378950E+03  0.47433833499E+02 -0.33098366300E+02  0.34592898032E+03  0.15294330000E+03 0.  0.
<mgrwt>
<rscale>  0 0.34434192E+03</rscale>
<asrwt>0</asrwt>
<pdfrwt beam="1">  1        1 0.17821785E+00 0.34434192E+03</pdfrwt>
<pdfrwt beam="2">  1       -1 0.28770701E-01 0.34434192E+03</pdfrwt>
<totfact> 0.13408891E+02</totfact>
</mgrwt>
</event>
<event>
 4    1  0.2731969E-009  0.5626368E+03  0.7818608E-02  0.9986106E-01
         -1   -1    0    0    0  501 -0.00000000000E+00  0.00000000000E+00  0.31462925782E+03  0.31462925786E+03  0.50400000000E-02 0.  1.
          1   -1    0    0  501    0  0.00000000000E+00 -0.00000000000E+00 -0.18545296592E+04  0.18545296592E+04  0.50400000000E-02 0. -1.
    8880022    1    1    2    0    0  0.37499358493E+03  0.39057430956E+03 -0.15035225245E+04  0.16053473502E+04  0.15294330000E+03 0.  0.
    8880022    1    1    2    0    0 -0.37499358493E+03 -0.39057430956E+03 -0.36377876878E+02  0.56381156690E+03  0.15294330000E+03 0.  0.
<mgrwt>
<rscale>  0 0.56263677E+03</rscale>
<asrwt>0</asrwt>
<pdfrwt beam="1">  1        1 0.28531225E+00 0.56263677E+03</pdfrwt>
<pdfrwt beam="2">  1       -1 0.48404502E-01 0.56263677E+03</pdfrwt>
<totfact> 0.17137494E+01</totfact>
</mgrwt>
</event>
<event>
 4    1  0.2731969E-009  0.5804775E+03  0.7818608E-02  0.9946758E-01
         -1   -1    0    0    0  501 -0.00000000000E+00  0.00000000000E+00  0.24569879377E+04  0.24569879377E+04  0.50400000000E-02 0.  1.
          1   -1    0    0  501    0  0.00000000000E+00 -0.00000000000E+00 -0.38041623482E+03  0.38041623486E+03  0.50400000000E-02 0. -1.
    8880022    1    1    2    0    0 -0.84705490278E+02  0.55352281937E+03  0.21728014991E+04  0.22490043440E+04  0.15294330000E+03 0.  0.
    8880022    1    1    2    0    0  0.84705490278E+02 -0.55352281937E+03 -0.96229796192E+02  0.58839982863E+03  0.15294330000E+03 0.  0.
<mgrwt>
<rscale>  0 0.58047755E+03</rscale>
<asrwt>0</asrwt>
<pdfrwt beam="1">  1        1 0.58525573E-01 0.58047755E+03</pdfrwt>
<pdfrwt beam="2">  1       -1 0.37799815E+00 0.58047755E+03</pdfrwt>
<totfact> 0.71732618E-01</totfact>
</mgrwt>
</event>
<event>
 4    1  0.3804479E-009  0.1665690E+04  0.7818608E-02  0.8781178E-01
         -1   -1    0    0    0  501 -0.00000000000E+00  0.00000000000E+00  0.29000153163E+04  0.29000153163E+04  0.50400000000E-02 0.  1.
          1   -1    0    0  501    0  0.00000000000E+00 -0.00000000000E+00 -0.18988805672E+04  0.18988805672E+04  0.50400000000E-02 0. -1.
    8880022    1    1    2    0    0 -0.15287319313E+04  0.64351493895E+03 -0.11895747910E+04  0.20468543257E+04  0.15294330000E+03 0.  0.
    8880022    1    1    2    0    0  0.15287319313E+04 -0.64351493895E+03  0.21907095401E+04  0.27520415579E+04  0.15294330000E+03 0.  0.
<mgrwt>
<rscale>  0 0.16656904E+04</rscale>
<asrwt>0</asrwt>
<pdfrwt beam="1">  1        1 0.29213547E+00 0.16656904E+04</pdfrwt>
<pdfrwt beam="2">  1       -1 0.44615620E+00 0.16656904E+04</pdfrwt>
<totfact> 0.11065574E-02</totfact>
</mgrwt>
</event>
<event>
 4    1  0.2731969E-009  0.4446376E+03  0.7818608E-02  0.1029333E+00
         -1   -1    0    0    0  501 -0.00000000000E+00  0.00000000000E+00  0.19008860169E+03  0.19008860176E+03  0.50400000000E-02 0.  1.
          1   -1    0    0  501    0  0.00000000000E+00 -0.00000000000E+00 -0.11655347408E+04  0.11655347408E+04  0.50400000000E-02 0. -1.
    8880022    1    1    2    0    0  0.41259025840E+03  0.63876717994E+02 -0.26532390170E+03  0.51778314212E+03  0.15294330000E+03 0.  0.
    8880022    1    1    2    0    0 -0.41259025840E+03 -0.63876717994E+02 -0.71012223743E+03  0.83784020048E+03  0.15294330000E+03 0.  0.
<mgrwt>
<rscale>  0 0.44463762E+03</rscale>
<asrwt>0</asrwt>
<pdfrwt beam="1">  1        1 0.17931303E+00 0.44463762E+03</pdfrwt>
<pdfrwt beam="2">  1       -1 0.29244401E-01 0.44463762E+03</pdfrwt>
<totfact> 0.12695494E+02</totfact>
</mgrwt>
</event>
<event>
 4    1  0.2731969E-009  0.2362261E+03  0.7818608E-02  0.1122333E+00
          1   -1    0    0  501    0  0.00000000000E+00  0.00000000000E+00  0.29475878865E+03  0.29475878869E+03  0.50400000000E-02 0. -1.
         -1   -1    0    0    0  501 -0.00000000000E+00 -0.00000000000E+00 -0.34758633929E+03  0.34758633933E+03  0.50400000000E-02 0.  1.
    8880022    1    1    2    0    0  0.72303012568E+02 -0.16487381245E+03  0.19030968930E+03  0.30334885943E+03  0.15294330000E+03 0.  0.
    8880022    1    1    2    0    0 -0.72303012568E+02  0.16487381245E+03 -0.24313723994E+03  0.33899626859E+03  0.15294330000E+03 0.  0.
<mgrwt>
<rscale>  0 0.23622606E+03</rscale>
<asrwt>0</asrwt>
<pdfrwt beam="1">  1        1 0.45347506E-01 0.23622606E+03</pdfrwt>
<pdfrwt beam="2">  1       -1 0.53474822E-01 0.23622606E+03</pdfrwt>
<totfact> 0.32742487E+02</totfact>
</mgrwt>
</event>
<event>
 4    1  0.2731969E-009  0.1169391E+04  0.7818608E-02  0.9140079E-01
          1   -1    0    0  501    0  0.00000000000E+00  0.00000000000E+00  0.98136580994E+03  0.98136580995E+03  0.50400000000E-02 0. -1.
         -1   -1    0    0    0  501 -0.00000000000E+00 -0.00000000000E+00 -0.15143225704E+04  0.15143225704E+04  0.50400000000E-02 0.  1.
    8880022    1    1    2    0    0 -0.35304185429E+03 -0.11042847748E+04  0.86080564255E+02  0.11725548734E+04  0.15294330000E+03 0.  0.
    8880022    1    1    2    0    0  0.35304185429E+03  0.11042847748E+04 -0.61903732471E+03  0.13231335069E+04  0.15294330000E+03 0.  0.
<mgrwt>
<rscale>  0 0.11693909E+04</rscale>
<asrwt>0</asrwt>
<pdfrwt beam="1">  1        1 0.15097935E+00 0.11693909E+04</pdfrwt>
<pdfrwt beam="2">  1       -1 0.23297270E+00 0.11693909E+04</pdfrwt>
<totfact> 0.13908396E+00</totfact>
</mgrwt>
</event>
<event>
 4    1  0.2731969E-009  0.2086609E+03  0.7818608E-02  0.1142631E+00
          1   -1    0    0  501    0  0.00000000000E+00  0.00000000000E+00  0.31375625287E+04  0.31375625287E+04  0.50400000000E-02 0. -1.
         -1   -1    0    0    0  501 -0.00000000000E+00 -0.00000000000E+00 -0.18139468768E+03  0.18139468775E+03  0.50400000000E-02 0.  1.
    8880022    1    1    2    0    0  0.14165605672E+03 -0.90162276126E+01  0.30728241397E+04  0.30799005792E+04  0.15294330000E+03 0. -1.
    8880022    1    1    2    0    0 -0.14165605672E+03  0.90162276126E+01 -0.11665629874E+03  0.23905663726E+03  0.15294330000E+03 0.  0.
<mgrwt>
<rscale>  0 0.20866093E+03</rscale>
<asrwt>0</asrwt>
<pdfrwt beam="1">  1        1 0.48270186E+00 0.20866093E+03</pdfrwt>
<pdfrwt beam="2">  1       -1 0.27906879E-01 0.20866093E+03</pdfrwt>
<totfact> 0.70262478E+00</totfact>
</mgrwt>
</event>
<event>
 4    1  0.2731969E-009  0.9014930E+03  0.7818608E-02  0.9423717E-01
          1   -1    0    0  501    0  0.00000000000E+00  0.00000000000E+00  0.16790896983E+04  0.16790896983E+04  0.50400000000E-02 0. -1.
         -1   -1    0    0    0  501 -0.00000000000E+00 -0.00000000000E+00 -0.90083462467E+03  0.90083462469E+03  0.50400000000E-02 0.  1.
    8880022    1    1    2    0    0 -0.87523140545E+03 -0.15253859188E+03  0.12665992838E+04  0.15546586229E+04  0.15294330000E+03 0.  0.
    8880022    1    1    2    0    0  0.87523140545E+03  0.15253859188E+03 -0.48834421019E+03  0.10252657001E+04  0.15294330000E+03 0.  0.
<mgrwt>
<rscale>  0 0.90149303E+03</rscale>
<asrwt>0</asrwt>
<pdfrwt beam="1">  1        1 0.25832149E+00 0.90149303E+03</pdfrwt>
<pdfrwt beam="2">  1       -1 0.13858994E+00 0.90149303E+03</pdfrwt>
<totfact> 0.21662831E+00</totfact>
</mgrwt>
</event>
<event>
 4    1  0.2731969E-009  0.1686124E+04  0.7818608E-02  0.8769318E-01
         -1   -1    0    0    0  501 -0.00000000000E+00  0.00000000000E+00  0.18866375354E+04  0.18866375354E+04  0.50400000000E-02 0.  1.
          1   -1    0    0  501    0  0.00000000000E+00 -0.00000000000E+00 -0.25246185678E+04  0.25246185678E+04  0.50400000000E-02 0. -1.
    8880022    1    1    2    0    0 -0.29606188112E+03  0.16528667418E+04  0.10813829329E+04  0.20030980516E+04  0.15294330000E+03 0.  0.
    8880022    1    1    2    0    0  0.29606188112E+03 -0.16528667418E+04 -0.17193639653E+04  0.24081580516E+04  0.15294330000E+03 0.  0.
<mgrwt>
<rscale>  0 0.16861236E+04</rscale>
<asrwt>0</asrwt>
<pdfrwt beam="1">  1        1 0.38840286E+00 0.16861236E+04</pdfrwt>
<pdfrwt beam="2">  1       -1 0.29025193E+00 0.16861236E+04</pdfrwt>
<totfact> 0.45794504E-02</totfact>
</mgrwt>
</event>
<event>
 4    1  0.2731969E-009  0.1432856E+04  0.7818608E-02  0.8930373E-01
         -1   -1    0    0    0  501 -0.00000000000E+00  0.00000000000E+00  0.15563636235E+04  0.15563636235E+04  0.50400000000E-02 0.  1.
          1   -1    0    0  501    0  0.00000000000E+00 -0.00000000000E+00 -0.16879450549E+04  0.16879450549E+04  0.50400000000E-02 0. -1.
    8880022    1    1    2    0    0  0.11931412689E+04 -0.77852376898E+03 -0.82402879733E+03  0.16529066695E+04  0.15294330000E+03 0.  0.
    8880022    1    1    2    0    0 -0.11931412689E+04  0.77852376898E+03  0.69244736596E+03  0.15914020089E+04  0.15294330000E+03 0.  0.
<mgrwt>
<rscale>  0 0.14328562E+04</rscale>
<asrwt>0</asrwt>
<pdfrwt beam="1">  1        1 0.25968385E+00 0.14328562E+04</pdfrwt>
<pdfrwt beam="2">  1       -1 0.23944056E+00 0.14328562E+04</pdfrwt>
<totfact> 0.37813019E-01</totfact>
</mgrwt>
</event>
<event>
 4    1  0.2731969E-009  0.2899824E+03  0.7818608E-02  0.1090358E+00
          1   -1    0    0  501    0  0.00000000000E+00  0.00000000000E+00  0.39052278200E+03  0.39052278204E+03  0.50400000000E-02 0. -1.
         -1   -1    0    0    0  501 -0.00000000000E+00 -0.00000000000E+00 -0.14717640806E+04  0.14717640806E+04  0.50400000000E-02 0.  1.
    8880022    1    1    2    0    0  0.21705713126E+03 -0.11655185154E+03 -0.14009564504E+04  0.14306532638E+04  0.15294330000E+03 0.  0.
    8880022    1    1    2    0    0 -0.21705713126E+03  0.11655185154E+03  0.31971515181E+03  0.43163359883E+03  0.15294330000E+03 0.  0.
<mgrwt>
<rscale>  0 0.28998239E+03</rscale>
<asrwt>0</asrwt>
<pdfrwt beam="1">  1        1 0.60080429E-01 0.28998239E+03</pdfrwt>
<pdfrwt beam="2">  1       -1 0.22642524E+00 0.28998239E+03</pdfrwt>
<totfact> 0.70529367E+00</totfact>
</mgrwt>
</event>
<event>
 4    1  0.2731969E-009  0.6874497E+03  0.7818608E-02  0.9738939E-01
          1   -1    0    0  501    0  0.00000000000E+00  0.00000000000E+00  0.20249508607E+04  0.20249508607E+04  0.50400000000E-02 0. -1.
         -1   -1    0    0    0  501 -0.00000000000E+00 -0.00000000000E+00 -0.31300125879E+03  0.31300125883E+03  0.50400000000E-02 0.  1.
    8880022    1    1    2    0    0 -0.58092273627E+03  0.33425171707E+03  0.14455532911E+04  0.16006909153E+04  0.15294330000E+03 0.  0.
    8880022    1    1    2    0    0  0.58092273627E+03 -0.33425171707E+03  0.26639631086E+03  0.73726120428E+03  0.15294330000E+03 0.  0.
<mgrwt>
<rscale>  0 0.68744970E+03</rscale>
<asrwt>0</asrwt>
<pdfrwt beam="1">  1        1 0.31153090E+00 0.68744970E+03</pdfrwt>
<pdfrwt beam="2">  1       -1 0.48154040E-01 0.68744970E+03</pdfrwt>
<totfact> 0.13034807E+01</totfact>
</mgrwt>
</event>
<event>
 4    1  0.2731969E-009  0.7783123E+03  0.7818608E-02  0.9591951E-01
          1   -1    0    0  501    0  0.00000000000E+00  0.00000000000E+00  0.91998266255E+03  0.91998266257E+03  0.50400000000E-02 0. -1.
         -1   -1    0    0    0  501 -0.00000000000E+00 -0.00000000000E+00 -0.10452747317E+04  0.10452747317E+04  0.50400000000E-02 0.  1.
    8880022    1    1    2    0    0 -0.57170963792E+02 -0.76099266839E+03 -0.66040596624E+03  0.10207379946E+04  0.15294330000E+03 0.  0.
    8880022    1    1    2    0    0  0.57170963792E+02  0.76099266839E+03  0.53511389708E+03  0.94451939965E+03  0.15294330000E+03 0.  0.
<mgrwt>
<rscale>  0 0.77831229E+03</rscale>
<asrwt>0</asrwt>
<pdfrwt beam="1">  1        1 0.14153579E+00 0.77831229E+03</pdfrwt>
<pdfrwt beam="2">  1       -1 0.16081150E+00 0.77831229E+03</pdfrwt>
<totfact> 0.52086922E+00</totfact>
</mgrwt>
</event>
<event>
 4    1  0.2731969E-009  0.7434277E+03  0.7818608E-02  0.9645718E-01
          1   -1    0    0  501    0  0.00000000000E+00  0.00000000000E+00  0.99963745825E+03  0.99963745826E+03  0.50400000000E-02 0. -1.
         -1   -1    0    0    0  501 -0.00000000000E+00 -0.00000000000E+00 -0.11771055800E+04  0.11771055800E+04  0.50400000000E-02 0.  1.
    8880022    1    1    2    0    0  0.72526473188E+03  0.57307529127E+02  0.70383741386E+03  0.10237537997E+04  0.15294330000E+03 0.  0.
    8880022    1    1    2    0    0 -0.72526473188E+03 -0.57307529127E+02 -0.88130553564E+03  0.11529892386E+04  0.15294330000E+03 0.  0.
<mgrwt>
<rscale>  0 0.74342769E+03</rscale>
<asrwt>0</asrwt>
<pdfrwt beam="1">  1        1 0.15379038E+00 0.74342769E+03</pdfrwt>
<pdfrwt beam="2">  1       -1 0.18109317E+00 0.74342769E+03</pdfrwt>
<totfact> 0.32214613E+00</totfact>
</mgrwt>
</event>
<event>
 4    1  0.2731969E-009  0.3056636E+03  0.7818608E-02  0.1082443E+00
          1   -1    0    0  501    0  0.00000000000E+00  0.00000000000E+00  0.96535520395E+03  0.96535520396E+03  0.50400000000E-02 0. -1.
         -1   -1    0    0    0  501 -0.00000000000E+00 -0.00000000000E+00 -0.26542065821E+03  0.26542065826E+03  0.50400000000E-02 0.  1.
    8880022    1    1    2    0    0 -0.15573963035E+03 -0.21397142318E+03  0.84048930417E+03  0.89434474664E+03  0.15294330000E+03 0.  0.
    8880022    1    1    2    0    0  0.15573963035E+03  0.21397142318E+03 -0.14055475843E+03  0.33643111558E+03  0.15294330000E+03 0.  0.
<mgrwt>
<rscale>  0 0.30566363E+03</rscale>
<asrwt>0</asrwt>
<pdfrwt beam="1">  1        1 0.14851618E+00 0.30566363E+03</pdfrwt>
<pdfrwt beam="2">  1       -1 0.40833948E-01 0.30566363E+03</pdfrwt>
<totfact> 0.10167250E+02</totfact>
</mgrwt>
</event>
<event>
 4    1  0.2731969E-009  0.6006619E+03  0.7818608E-02  0.9904034E-01
         -1   -1    0    0    0  501 -0.00000000000E+00  0.00000000000E+00  0.30507892053E+03  0.30507892057E+03  0.50400000000E-02 0.  1.
          1   -1    0    0  501    0  0.00000000000E+00 -0.00000000000E+00 -0.23668735666E+04  0.23668735666E+04  0.50400000000E-02 0. -1.
    8880022    1    1    2    0    0 -0.57988053976E+03  0.33788183708E+02 -0.19758981163E+04  0.20651799197E+04  0.15294330000E+03 0. -1.
    8880022    1    1    2    0    0  0.57988053976E+03 -0.33788183708E+02 -0.85896529727E+02  0.60677256743E+03  0.15294330000E+03 0.  0.
<mgrwt>
<rscale>  0 0.60066191E+03</rscale>
<asrwt>0</asrwt>
<pdfrwt beam="1">  1        1 0.36413438E+00 0.60066191E+03</pdfrwt>
<pdfrwt beam="2">  1       -1 0.46935220E-01 0.60066191E+03</pdfrwt>
<totfact> 0.82070695E+00</totfact>
</mgrwt>
</event>
<event>
 4    1  0.2731969E-009  0.1064725E+04  0.7818608E-02  0.9240272E-01
         -1   -1    0    0    0  501 -0.00000000000E+00  0.00000000000E+00  0.81287928458E+03  0.81287928460E+03  0.50400000000E-02 0.  1.
          1   -1    0    0  501    0  0.00000000000E+00 -0.00000000000E+00 -0.16227531235E+04  0.16227531235E+04  0.50400000000E-02 0. -1.
    8880022    1    1    2    0    0  0.71248443137E+03  0.77628151460E+03  0.51700967643E+02  0.10659792202E+04  0.15294330000E+03 0.  0.
    8880022    1    1    2    0    0 -0.71248443137E+03 -0.77628151460E+03 -0.86157480660E+03  0.13696531879E+04  0.15294330000E+03 0.  0.
<mgrwt>
<rscale>  0 0.10647247E+04</rscale>
<asrwt>0</asrwt>
<pdfrwt beam="1">  1        1 0.24965433E+00 0.10647247E+04</pdfrwt>
<pdfrwt beam="2">  1       -1 0.12505835E+00 0.10647247E+04</pdfrwt>
<totfact> 0.30035800E+00</totfact>
</mgrwt>
</event>
<event>
 4    1  0.2731969E-009  0.1137671E+04  0.7818608E-02  0.9169234E-01
          1   -1    0    0  501    0  0.00000000000E+00  0.00000000000E+00  0.19628944809E+04  0.19628944809E+04  0.50400000000E-02 0. -1.
         -1   -1    0    0    0  501 -0.00000000000E+00 -0.00000000000E+00 -0.11150398492E+04  0.11150398492E+04  0.50400000000E-02 0.  1.
    8880022    1    1    2    0    0  0.74737921598E+02 -0.11248630624E+04  0.14077216308E+04  0.18099653337E+04  0.15294330000E+03 0.  0.
    8880022    1    1    2    0    0 -0.74737921598E+02  0.11248630624E+04 -0.55986699908E+03  0.12679689964E+04  0.15294330000E+03 0.  0.
<mgrwt>
<rscale>  0 0.11376706E+04</rscale>
<asrwt>0</asrwt>
<pdfrwt beam="1">  1        1 0.30198376E+00 0.11376706E+04</pdfrwt>
<pdfrwt beam="2">  1       -1 0.17154459E+00 0.11376706E+04</pdfrwt>
<totfact> 0.74966914E-01</totfact>
</mgrwt>
</event>
<event>
 4    1  0.2731969E-009  0.1245136E+04  0.7818608E-02  0.9074241E-01
         -1   -1    0    0    0  501 -0.00000000000E+00  0.00000000000E+00  0.16900482895E+04  0.16900482895E+04  0.50400000000E-02 0.  1.
          1   -1    0    0  501    0  0.00000000000E+00 -0.00000000000E+00 -0.16904086615E+04  0.16904086615E+04  0.50400000000E-02 0. -1.
    8880022    1    1    2    0    0  0.10950752144E+04  0.57252247636E+03  0.11428460243E+04  0.16901066237E+04  0.15294330000E+03 0.  1.
    8880022    1    1    2    0    0 -0.10950752144E+04 -0.57252247636E+03 -0.11432063964E+04  0.16903503273E+04  0.15294330000E+03 0.  0.
<mgrwt>
<rscale>  0 0.12451359E+04</rscale>
<asrwt>0</asrwt>
<pdfrwt beam="1">  1        1 0.26006287E+00 0.12451359E+04</pdfrwt>
<pdfrwt beam="2">  1       -1 0.26000743E+00 0.12451359E+04</pdfrwt>
<totfact> 0.28317112E-01</totfact>
</mgrwt>
</event>
<event>
 4    1  0.2731969E-009  0.1226874E+04  0.7818608E-02  0.9089654E-01
          1   -1    0    0  501    0  0.00000000000E+00  0.00000000000E+00  0.11559368065E+04  0.11559368065E+04  0.50400000000E-02 0. -1.
         -1   -1    0    0    0  501 -0.00000000000E+00 -0.00000000000E+00 -0.21859859690E+04  0.21859859690E+04  0.50400000000E-02 0.  1.
    8880022    1    1    2    0    0 -0.40801849566E+03 -0.11468865681E+04 -0.15775151227E+04  0.19984427708E+04  0.15294330000E+03 0.  0.
    8880022    1    1    2    0    0  0.40801849566E+03  0.11468865681E+04  0.54746596014E+03  0.13434800048E+04  0.15294330000E+03 0.  0.
<mgrwt>
<rscale>  0 0.12268739E+04</rscale>
<asrwt>0</asrwt>
<pdfrwt beam="1">  1        1 0.17783643E+00 0.12268739E+04</pdfrwt>
<pdfrwt beam="2">  1       -1 0.33630553E+00 0.12268739E+04</pdfrwt>
<totfact> 0.21671626E-01</totfact>
</mgrwt>
</event>
<event>
 4    1  0.2731969E-009  0.1053900E+04  0.7818608E-02  0.9251326E-01
         -1   -1    0    0    0  501 -0.00000000000E+00  0.00000000000E+00  0.84760099308E+03  0.84760099310E+03  0.50400000000E-02 0.  1.
          1   -1    0    0  501    0  0.00000000000E+00 -0.00000000000E+00 -0.19970180316E+04  0.19970180316E+04  0.50400000000E-02 0. -1.
    8880022    1    1    2    0    0  0.49016657574E+03 -0.92035387215E+03  0.25927420523E+03  0.10853245084E+04  0.15294330000E+03 0.  0.
    8880022    1    1    2    0    0 -0.49016657574E+03  0.92035387215E+03 -0.14086912438E+04  0.17592945163E+04  0.15294330000E+03 0.  0.
<mgrwt>
<rscale>  0 0.10539005E+04</rscale>
<asrwt>0</asrwt>
<pdfrwt beam="1">  1        1 0.30723354E+00 0.10539005E+04</pdfrwt>
<pdfrwt beam="2">  1       -1 0.13040015E+00 0.10539005E+04</pdfrwt>
<totfact> 0.15110398E+00</totfact>
</mgrwt>
</event>
<event>
 4    1  0.2731969E-009  0.9878413E+03  0.7818608E-02  0.9321982E-01
         -1   -1    0    0    0  501 -0.00000000000E+00  0.00000000000E+00  0.46125154976E+03  0.46125154979E+03  0.50400000000E-02 0.  1.
          1   -1    0    0  501    0  0.00000000000E+00 -0.00000000000E+00 -0.27185381190E+04  0.27185381190E+04  0.50400000000E-02 0. -1.
    8880022    1    1    2    0    0  0.90624448060E+03 -0.36215968097E+03 -0.37990174572E+03  0.10583740750E+04  0.15294330000E+03 0.  0.
    8880022    1    1    2    0    0 -0.90624448060E+03  0.36215968097E+03 -0.18773848235E+04  0.21214155939E+04  0.15294330000E+03 0.  0.
<mgrwt>
<rscale>  0 0.98784126E+03</rscale>
<asrwt>0</asrwt>
<pdfrwt beam="1">  1        1 0.41823663E+00 0.98784126E+03</pdfrwt>
<pdfrwt beam="2">  1       -1 0.70961778E-01 0.98784126E+03</pdfrwt>
<totfact> 0.19571771E+00</totfact>
</mgrwt>
</event>
<event>
 4    1  0.2731969E-009  0.1138545E+04  0.7818608E-02  0.9168417E-01
          1   -1    0    0  501    0  0.00000000000E+00  0.00000000000E+00  0.10588692039E+04  0.10588692039E+04  0.50400000000E-02 0. -1.
         -1   -1    0    0    0  501 -0.00000000000E+00 -0.00000000000E+00 -0.15473693434E+04  0.15473693434E+04  0.50400000000E-02 0.  1.
    8880022    1    1    2    0    0 -0.11282250653E+04 -0.87896037167E+00 -0.83976376449E+03  0.14147393413E+04  0.15294330000E+03 0.  0.
    8880022    1    1    2    0    0  0.11282250653E+04  0.87896037167E+00  0.35126362503E+03  0.11914992060E+04  0.15294330000E+03 0.  0.
<mgrwt>
<rscale>  0 0.11385448E+04</rscale>
<asrwt>0</asrwt>
<pdfrwt beam="1">  1        1 0.16290295E+00 0.11385448E+04</pdfrwt>
<pdfrwt beam="2">  1       -1 0.23805682E+00 0.11385448E+04</pdfrwt>
<totfact> 0.11248488E+00</totfact>
</mgrwt>
</event>
<event>
 4    1  0.2731969E-009  0.6642769E+03  0.7818608E-02  0.9780352E-01
          1   -1    0    0  501    0  0.00000000000E+00  0.00000000000E+00  0.33034355032E+03  0.33034355036E+03  0.50400000000E-02 0. -1.
         -1   -1    0    0    0  501 -0.00000000000E+00 -0.00000000000E+00 -0.19041955771E+04  0.19041955771E+04  0.50400000000E-02 0.  1.
    8880022    1    1    2    0    0 -0.30013967134E+03  0.57252798353E+03 -0.13973591706E+04  0.15472156989E+04  0.15294330000E+03 0.  0.
    8880022    1    1    2    0    0  0.30013967134E+03 -0.57252798353E+03 -0.17649285626E+03  0.68732342865E+03  0.15294330000E+03 0.  0.
<mgrwt>
<rscale>  0 0.66427688E+03</rscale>
<asrwt>0</asrwt>
<pdfrwt beam="1">  1        1 0.50822086E-01 0.66427688E+03</pdfrwt>
<pdfrwt beam="2">  1       -1 0.29295316E+00 0.66427688E+03</pdfrwt>
<totfact> 0.30130868E+00</totfact>
</mgrwt>
</event>
<event>
 4    1  0.2731969E-009  0.6971905E+03  0.7818608E-02  0.9722049E-01
          1   -1    0    0  501    0  0.00000000000E+00  0.00000000000E+00  0.89370244844E+03  0.89370244845E+03  0.50400000000E-02 0. -1.
         -1   -1    0    0    0  501 -0.00000000000E+00 -0.00000000000E+00 -0.84744335721E+03  0.84744335722E+03  0.50400000000E-02 0.  1.
    8880022    1    1    2    0    0  0.66068015154E+03  0.16181681641E+03 -0.49790714622E+03  0.85672990142E+03  0.15294330000E+03 0.  0.
    8880022    1    1    2    0    0 -0.66068015154E+03 -0.16181681641E+03  0.54416623745E+03  0.88441590426E+03  0.15294330000E+03 0.  0.
<mgrwt>
<rscale>  0 0.69719050E+03</rscale>
<asrwt>0</asrwt>
<pdfrwt beam="1">  1        1 0.13749268E+00 0.69719050E+03</pdfrwt>
<pdfrwt beam="2">  1       -1 0.13037590E+00 0.69719050E+03</pdfrwt>
<totfact> 0.96394430E+00</totfact>
</mgrwt>
</event>
<event>
 4    1  0.2731969E-009  0.2379069E+03  0.7818608E-02  0.1121195E+00
          1   -1    0    0  501    0  0.00000000000E+00  0.00000000000E+00  0.33574557501E+03  0.33574557505E+03  0.50400000000E-02 0. -1.
         -1   -1    0    0    0  501 -0.00000000000E+00 -0.00000000000E+00 -0.15091361056E+04  0.15091361056E+04  0.50400000000E-02 0.  1.
    8880022    1    1    2    0    0  0.13216518429E+03 -0.12546072079E+03 -0.14560899164E+04  0.14753974129E+04  0.15294330000E+03 0.  1.
    8880022    1    1    2    0    0 -0.13216518429E+03  0.12546072079E+03  0.28269938577E+03  0.36948426777E+03  0.15294330000E+03 0.  0.
<mgrwt>
<rscale>  0 0.23790688E+03</rscale>
<asrwt>0</asrwt>
<pdfrwt beam="1">  1        1 0.51653166E-01 0.23790688E+03</pdfrwt>
<pdfrwt beam="2">  1       -1 0.23217478E+00 0.23790688E+03</pdfrwt>
<totfact> 0.80194445E+00</totfact>
</mgrwt>
</event>
<event>
 4    1  0.2731969E-009  0.3349704E+03  0.7818608E-02  0.1068959E+00
         -1   -1    0    0    0  501 -0.00000000000E+00  0.00000000000E+00  0.12633148941E+03  0.12633148951E+03  0.50400000000E-02 0.  1.
          1   -1    0    0  501    0  0.00000000000E+00 -0.00000000000E+00 -0.14172568728E+04  0.14172568728E+04  0.50400000000E-02 0. -1.
    8880022    1    1    2    0    0 -0.18398933799E+03 -0.23443851253E+03 -0.17390323116E+03  0.37742215021E+03  0.15294330000E+03 0.  0.
    8880022    1    1    2    0    0  0.18398933799E+03  0.23443851253E+03 -0.11170221522E+04  0.11661662121E+04  0.15294330000E+03 0.  0.
<mgrwt>
<rscale>  0 0.33497037E+03</rscale>
<asrwt>0</asrwt>
<pdfrwt beam="1">  1        1 0.21803951E+00 0.33497037E+03</pdfrwt>
<pdfrwt beam="2">  1       -1 0.19435615E-01 0.33497037E+03</pdfrwt>
<totfact> 0.17101018E+02</totfact>
</mgrwt>
</event>
<event>
 4    1  0.2731969E-009  0.7244279E+03  0.7818608E-02  0.9676346E-01
         -1   -1    0    0    0  501 -0.00000000000E+00  0.00000000000E+00  0.11841378554E+04  0.11841378554E+04  0.50400000000E-02 0.  1.
          1   -1    0    0  501    0  0.00000000000E+00 -0.00000000000E+00 -0.58784868873E+03  0.58784868875E+03  0.50400000000E-02 0. -1.
    8880022    1    1    2    0    0  0.59836487209E+03  0.37863385421E+03 -0.14136951333E+03  0.73809288576E+03  0.15294330000E+03 0.  0.
    8880022    1    1    2    0    0 -0.59836487209E+03 -0.37863385421E+03  0.73765867998E+03  0.10338936584E+04  0.15294330000E+03 0.  0.
<mgrwt>
<rscale>  0 0.72442789E+03</rscale>
<asrwt>0</asrwt>
<pdfrwt beam="1">  1        1 0.90438261E-01 0.72442789E+03</pdfrwt>
<pdfrwt beam="2">  1       -1 0.18217505E+00 0.72442789E+03</pdfrwt>
<totfact> 0.73413338E+00</totfact>
</mgrwt>
</event>
<event>
 4    1  0.2731969E-009  0.1333943E+04  0.7818608E-02  0.9003073E-01
          1   -1    0    0  501    0  0.00000000000E+00  0.00000000000E+00  0.22768936574E+04  0.22768936574E+04  0.50400000000E-02 0. -1.
         -1   -1    0    0    0  501 -0.00000000000E+00 -0.00000000000E+00 -0.17281235122E+04  0.17281235122E+04  0.50400000000E-02 0.  1.
    8880022    1    1    2    0    0 -0.11178769462E+04  0.71159189122E+03  0.17564748703E+04  0.22055855253E+04  0.15294330000E+03 0.  0.
    8880022    1    1    2    0    0  0.11178769462E+04 -0.71159189122E+03 -0.12077047251E+04  0.17994316443E+04  0.15294330000E+03 0.  0.
<mgrwt>
<rscale>  0 0.13339429E+04</rscale>
<asrwt>0</asrwt>
<pdfrwt beam="1">  1        1 0.35029133E+00 0.13339429E+04</pdfrwt>
<pdfrwt beam="2">  1       -1 0.26586516E+00 0.13339429E+04</pdfrwt>
<totfact> 0.10239178E-01</totfact>
</mgrwt>
</event>
<event>
 4    1  0.2731969E-009  0.3815655E+03  0.7818608E-02  0.1050357E+00
          1   -1    0    0  501    0  0.00000000000E+00  0.00000000000E+00  0.14339813798E+04  0.14339813798E+04  0.50400000000E-02 0. -1.
         -1   -1    0    0    0  501 -0.00000000000E+00 -0.00000000000E+00 -0.26805314849E+03  0.26805314854E+03  0.50400000000E-02 0.  1.
    8880022    1    1    2    0    0 -0.34284527754E+03  0.68247050259E+02 -0.87792800496E+02  0.39153514917E+03  0.15294330000E+03 0.  0.
    8880022    1    1    2    0    0  0.34284527754E+03 -0.68247050259E+02  0.12537210318E+04  0.13104993792E+04  0.15294330000E+03 0.  0.
<mgrwt>
<rscale>  0 0.38156546E+03</rscale>
<asrwt>0</asrwt>
<pdfrwt beam="1">  1        1 0.22061252E+00 0.38156546E+03</pdfrwt>
<pdfrwt beam="2">  1       -1 0.41238945E-01 0.38156546E+03</pdfrwt>
<totfact> 0.45605687E+01</totfact>
</mgrwt>
</event>
<event>
 4    1  0.2731969E-009  0.1113024E+04  0.7818608E-02  0.9192590E-01
         -1   -1    0    0    0  501 -0.00000000000E+00  0.00000000000E+00  0.96752313332E+03  0.96752313333E+03  0.50400000000E-02 0.  1.
          1   -1    0    0  501    0  0.00000000000E+00 -0.00000000000E+00 -0.23787142498E+04  0.23787142498E+04  0.50400000000E-02 0. -1.
    8880022    1    1    2    0    0  0.42772452641E+02 -0.11016358884E+04 -0.18424835179E+04  0.21525724796E+04  0.15294330000E+03 0.  1.
    8880022    1    1    2    0    0 -0.42772452641E+02  0.11016358884E+04  0.43129240141E+03  0.11936649035E+04  0.15294330000E+03 0.  0.
<mgrwt>
<rscale>  0 0.11130242E+04</rscale>
<asrwt>0</asrwt>
<pdfrwt beam="1">  1        1 0.36595604E+00 0.11130242E+04</pdfrwt>
<pdfrwt beam="2">  1       -1 0.14884971E+00 0.11130242E+04</pdfrwt>
<totfact> 0.58436942E-01</totfact>
</mgrwt>
</event>
<event>
 4    1  0.2731969E-009  0.9974284E+03  0.7818608E-02  0.9311370E-01
         -1   -1    0    0    0  501 -0.00000000000E+00  0.00000000000E+00  0.23863847204E+04  0.23863847204E+04  0.50400000000E-02 0.  1.
          1   -1    0    0  501    0  0.00000000000E+00 -0.00000000000E+00 -0.57698872108E+03  0.57698872111E+03  0.50400000000E-02 0. -1.
    8880022    1    1    2    0    0 -0.97928068074E+03 -0.11171844680E+03  0.16851833061E+04  0.19582405601E+04  0.15294330000E+03 0.  0.
    8880022    1    1    2    0    0  0.97928068074E+03  0.11171844680E+03  0.12421269316E+03  0.10051328814E+04  0.15294330000E+03 0.  0.
<mgrwt>
<rscale>  0 0.99742835E+03</rscale>
<asrwt>0</asrwt>
<pdfrwt beam="1">  1        1 0.88767495E-01 0.99742835E+03</pdfrwt>
<pdfrwt beam="2">  1       -1 0.36713612E+00 0.99742835E+03</pdfrwt>
<totfact> 0.44274980E-01</totfact>
</mgrwt>
</event>
<event>
 4    1  0.2731969E-009  0.5651642E+03  0.7818608E-02  0.9980437E-01
          1   -1    0    0  501    0  0.00000000000E+00  0.00000000000E+00  0.13139138441E+04  0.13139138441E+04  0.50400000000E-02 0. -1.
         -1   -1    0    0    0  501 -0.00000000000E+00 -0.00000000000E+00 -0.31947152721E+03  0.31947152725E+03  0.50400000000E-02 0.  1.
    8880022    1    1    2    0    0  0.30072879758E+03 -0.45341056715E+03  0.97909188474E+02  0.57358243897E+03  0.15294330000E+03 0.  0.
    8880022    1    1    2    0    0 -0.30072879758E+03  0.45341056715E+03  0.89653312837E+03  0.10598029323E+04  0.15294330000E+03 0.  0.
<mgrwt>
<rscale>  0 0.56516423E+03</rscale>
<asrwt>0</asrwt>
<pdfrwt beam="1">  1        1 0.20214059E+00 0.56516423E+03</pdfrwt>
<pdfrwt beam="2">  1       -1 0.49149467E-01 0.56516423E+03</pdfrwt>
<totfact> 0.38620719E+01</totfact>
</mgrwt>
</event>
<event>
 4    1  0.2731969E-009  0.8202921E+03  0.7818608E-02  0.9531101E-01
         -1   -1    0    0    0  501 -0.00000000000E+00  0.00000000000E+00  0.34565204309E+03  0.34565204312E+03  0.50400000000E-02 0.  1.
          1   -1    0    0  501    0  0.00000000000E+00 -0.00000000000E+00 -0.20637367403E+04  0.20637367403E+04  0.50400000000E-02 0. -1.
    8880022    1    1    2    0    0 -0.79837406294E+03  0.10993755411E+03 -0.57214908874E+03  0.10001168147E+04  0.15294330000E+03 0.  0.
    8880022    1    1    2    0    0  0.79837406294E+03 -0.10993755411E+03 -0.11459356084E+04  0.14092719687E+04  0.15294330000E+03 0.  0.
<mgrwt>
<rscale>  0 0.82029206E+03</rscale>
<asrwt>0</asrwt>
<pdfrwt beam="1">  1        1 0.31749795E+00 0.82029206E+03</pdfrwt>
<pdfrwt beam="2">  1       -1 0.53177239E-01 0.82029206E+03</pdfrwt>
<totfact> 0.99639236E+00</totfact>
</mgrwt>
</event>
<event>
 4    1  0.2731969E-009  0.4917885E+03  0.7818608E-02  0.1015945E+00
          1   -1    0    0  501    0  0.00000000000E+00  0.00000000000E+00  0.91595190744E+03  0.91595190745E+03  0.50400000000E-02 0. -1.
         -1   -1    0    0    0  501 -0.00000000000E+00 -0.00000000000E+00 -0.45163872532E+03  0.45163872535E+03  0.50400000000E-02 0.  1.
    8880022    1    1    2    0    0 -0.14310786110E+03  0.44495443264E+03  0.67284877056E+03  0.83341551947E+03  0.15294330000E+03 0.  0.
    8880022    1    1    2    0    0  0.14310786110E+03 -0.44495443264E+03 -0.20853558845E+03  0.53417511333E+03  0.15294330000E+03 0.  0.
<mgrwt>
<rscale>  0 0.49178853E+03</rscale>
<asrwt>0</asrwt>
<pdfrwt beam="1">  1        1 0.14091568E+00 0.49178853E+03</pdfrwt>
<pdfrwt beam="2">  1       -1 0.69482881E-01 0.49178853E+03</pdfrwt>
<totfact> 0.39180181E+01</totfact>
</mgrwt>
</event>
<event>
 4    1  0.2731969E-009  0.7672031E+03  0.7818608E-02  0.9608741E-01
          1   -1    0    0  501    0  0.00000000000E+00  0.00000000000E+00  0.22582461383E+04  0.22582461383E+04  0.50400000000E-02 0. -1.
         -1   -1    0    0    0  501 -0.00000000000E+00 -0.00000000000E+00 -0.30895614013E+03  0.30895614018E+03  0.50400000000E-02 0.  1.
    8880022    1    1    2    0    0 -0.53427631945E+03 -0.52892129204E+03  0.14822259420E+04  0.16690099804E+04  0.15294330000E+03 0.  0.
    8880022    1    1    2    0    0  0.53427631945E+03  0.52892129204E+03  0.46706405620E+03  0.89819229806E+03  0.15294330000E+03 0.  0.
<mgrwt>
<rscale>  0 0.76720308E+03</rscale>
<asrwt>0</asrwt>
<pdfrwt beam="1">  1        1 0.34742248E+00 0.76720308E+03</pdfrwt>
<pdfrwt beam="2">  1       -1 0.47531715E-01 0.76720308E+03</pdfrwt>
<totfact> 0.92008886E+00</totfact>
</mgrwt>
</event>
<event>
 4    1  0.2731969E-009  0.3320747E+03  0.7818608E-02  0.1070223E+00
         -1   -1    0    0    0  501 -0.00000000000E+00  0.00000000000E+00  0.36315579504E+03  0.36315579508E+03  0.50400000000E-02 0.  1.
          1   -1    0    0  501    0  0.00000000000E+00 -0.00000000000E+00 -0.14052973962E+04  0.14052973962E+04  0.50400000000E-02 0. -1.
    8880022    1    1    2    0    0  0.88182689957E+02 -0.28125747129E+03  0.26181790411E+03  0.42287376354E+03  0.15294330000E+03 0.  1.
    8880022    1    1    2    0    0 -0.88182689957E+02  0.28125747129E+03 -0.13039595053E+04  0.13455794278E+04  0.15294330000E+03 0.  0.
<mgrwt>
<rscale>  0 0.33207470E+03</rscale>
<asrwt>0</asrwt>
<pdfrwt beam="1">  1        1 0.21619960E+00 0.33207470E+03</pdfrwt>
<pdfrwt beam="2">  1       -1 0.55870123E-01 0.33207470E+03</pdfrwt>
<totfact> 0.27512953E+01</totfact>
</mgrwt>
</event>
<event>
 4    1  0.2731969E-009  0.1180222E+04  0.7818608E-02  0.9130347E-01
          1   -1    0    0  501    0  0.00000000000E+00  0.00000000000E+00  0.19204235869E+04  0.19204235869E+04  0.50400000000E-02 0. -1.
         -1   -1    0    0    0  501 -0.00000000000E+00 -0.00000000000E+00 -0.97023515011E+03  0.97023515013E+03  0.50400000000E-02 0.  1.
    8880022    1    1    2    0    0  0.76508486611E+02 -0.11677661757E+04 -0.25107109672E+03  0.12066315669E+04  0.15294330000E+03 0.  0.
    8880022    1    1    2    0    0 -0.76508486611E+02  0.11677661757E+04  0.12012595335E+04  0.16840271701E+04  0.15294330000E+03 0.  0.
<mgrwt>
<rscale>  0 0.11802216E+04</rscale>
<asrwt>0</asrwt>
<pdfrwt beam="1">  1        1 0.29544978E+00 0.11802216E+04</pdfrwt>
<pdfrwt beam="2">  1       -1 0.14926695E+00 0.11802216E+04</pdfrwt>
<totfact> 0.11751014E+00</totfact>
</mgrwt>
</event>
<event>
 4    1  0.2731969E-009  0.1143843E+04  0.7818608E-02  0.9163482E-01
         -1   -1    0    0    0  501 -0.00000000000E+00  0.00000000000E+00  0.27963516654E+04  0.27963516654E+04  0.50400000000E-02 0.  1.
          1   -1    0    0  501    0  0.00000000000E+00 -0.00000000000E+00 -0.73368889392E+03  0.73368889394E+03  0.50400000000E-02 0. -1.
    8880022    1    1    2    0    0 -0.10016153189E+04 -0.53080352068E+03 -0.31030698567E+02  0.11442640350E+04  0.15294330000E+03 0. -1.
    8880022    1    1    2    0    0  0.10016153189E+04  0.53080352068E+03  0.20936934701E+04  0.23857765243E+04  0.15294330000E+03 0.  0.
<mgrwt>
<rscale>  0 0.11438432E+04</rscale>
<asrwt>0</asrwt>
<pdfrwt beam="1">  1        1 0.11287521E+00 0.11438432E+04</pdfrwt>
<pdfrwt beam="2">  1       -1 0.43020795E+00 0.11438432E+04</pdfrwt>
<totfact> 0.11270299E-01</totfact>
</mgrwt>
</event>
<event>
 4    1  0.2731969E-009  0.6252286E+03  0.7818608E-02  0.9854404E-01
         -1   -1    0    0    0  501 -0.00000000000E+00  0.00000000000E+00  0.16233905755E+03  0.16233905763E+03  0.50400000000E-02 0.  1.
          1   -1    0    0  501    0  0.00000000000E+00 -0.00000000000E+00 -0.26481418852E+04  0.26481418853E+04  0.50400000000E-02 0. -1.
    8880022    1    1    2    0    0 -0.60563636303E+03 -0.26903212851E+02 -0.81972353955E+03  0.10309498152E+04  0.15294330000E+03 0. -1.
    8880022    1    1    2    0    0  0.60563636303E+03  0.26903212851E+02 -0.16660792881E+04  0.17795311277E+04  0.15294330000E+03 0.  0.
<mgrwt>
<rscale>  0 0.62522863E+03</rscale>
<asrwt>0</asrwt>
<pdfrwt beam="1">  1        1 0.40740641E+00 0.62522863E+03</pdfrwt>
<pdfrwt beam="2">  1       -1 0.24975242E-01 0.62522863E+03</pdfrwt>
<totfact> 0.16091669E+01</totfact>
</mgrwt>
</event>
<event>
 4    1  0.2731969E-009  0.3886442E+03  0.7818608E-02  0.1047784E+00
         -1   -1    0    0    0  501 -0.00000000000E+00  0.00000000000E+00  0.27241798682E+03  0.27241798686E+03  0.50400000000E-02 0.  1.
          1   -1    0    0  501    0  0.00000000000E+00 -0.00000000000E+00 -0.21482233804E+04  0.21482233804E+04  0.50400000000E-02 0. -1.
    8880022    1    1    2    0    0 -0.24952752754E+03  0.25571211788E+03 -0.19803951809E+04  0.20181698144E+04  0.15294330000E+03 0. -1.
    8880022    1    1    2    0    0  0.24952752754E+03 -0.25571211788E+03  0.10458978732E+03  0.40247155286E+03  0.15294330000E+03 0.  0.
<mgrwt>
<rscale>  0 0.38864422E+03</rscale>
<asrwt>0</asrwt>
<pdfrwt beam="1">  1        1 0.33049589E+00 0.38864422E+03</pdfrwt>
<pdfrwt beam="2">  1       -1 0.41910461E-01 0.38864422E+03</pdfrwt>
<totfact> 0.14903763E+01</totfact>
</mgrwt>
</event>
<event>
 4    1  0.2731969E-009  0.3483788E+03  0.7818608E-02  0.1063282E+00
          1   -1    0    0  501    0  0.00000000000E+00  0.00000000000E+00  0.14588646717E+04  0.14588646717E+04  0.50400000000E-02 0. -1.
         -1   -1    0    0    0  501 -0.00000000000E+00 -0.00000000000E+00 -0.41533717426E+03  0.41533717429E+03  0.50400000000E-02 0.  1.
    8880022    1    1    2    0    0 -0.10686548383E+03 -0.29420383883E+03  0.13597735143E+04  0.14036922004E+04  0.15294330000E+03 0.  0.
    8880022    1    1    2    0    0  0.10686548383E+03  0.29420383883E+03 -0.31624601681E+03  0.47050964558E+03  0.15294330000E+03 0.  0.
<mgrwt>
<rscale>  0 0.34837879E+03</rscale>
<asrwt>0</asrwt>
<pdfrwt beam="1">  1        1 0.22444072E+00 0.34837879E+03</pdfrwt>
<pdfrwt beam="2">  1       -1 0.63898027E-01 0.34837879E+03</pdfrwt>
<totfact> 0.19421665E+01</totfact>
</mgrwt>
</event>
<event>
 4    1  0.2731969E-009  0.6094960E+03  0.7818608E-02  0.9885898E-01
          1   -1    0    0  501    0  0.00000000000E+00  0.00000000000E+00  0.19227106890E+04  0.19227106890E+04  0.50400000000E-02 0. -1.
         -1   -1    0    0    0  501 -0.00000000000E+00 -0.00000000000E+00 -0.45783859013E+03  0.45783859016E+03  0.50400000000E-02 0.  1.
    8880022    1    1    2    0    0  0.58187537496E+03 -0.97543885664E+02  0.16373556848E+04  0.17471173553E+04  0.15294330000E+03 0.  0.
    8880022    1    1    2    0    0 -0.58187537496E+03  0.97543885664E+02 -0.17248358601E+03  0.63343192379E+03  0.15294330000E+03 0.  0.
<mgrwt>
<rscale>  0 0.60949603E+03</rscale>
<asrwt>0</asrwt>
<pdfrwt beam="1">  1        1 0.29580165E+00 0.60949603E+03</pdfrwt>
<pdfrwt beam="2">  1       -1 0.70436704E-01 0.60949603E+03</pdfrwt>
<totfact> 0.73561121E+00</totfact>
</mgrwt>
</event>
<event>
 4    1  0.2731969E-009  0.1979493E+04  0.7818608E-02  0.8616269E-01
         -1   -1    0    0    0  501 -0.00000000000E+00  0.00000000000E+00  0.29755812895E+04  0.29755812895E+04  0.50400000000E-02 0.  1.
          1   -1    0    0  501    0  0.00000000000E+00 -0.00000000000E+00 -0.19702608990E+04  0.19702608990E+04  0.50400000000E-02 0. -1.
    8880022    1    1    2    0    0 -0.35249092946E+02  0.19732607718E+04 -0.92144411182E+03  0.21834494444E+04  0.15294330000E+03 0.  0.
    8880022    1    1    2    0    0  0.35249092946E+02 -0.19732607718E+04  0.19267645024E+04  0.27623927441E+04  0.15294330000E+03 0.  0.
<mgrwt>
<rscale>  0 0.19794929E+04</rscale>
<asrwt>0</asrwt>
<pdfrwt beam="1">  1        1 0.30311706E+00 0.19794929E+04</pdfrwt>
<pdfrwt beam="2">  1       -1 0.45778173E+00 0.19794929E+04</pdfrwt>
<totfact> 0.79092654E-03</totfact>
</mgrwt>
</event>
<event>
 4    1  0.2731969E-009  0.1489041E+04  0.7818608E-02  0.8891774E-01
          1   -1    0    0  501    0  0.00000000000E+00  0.00000000000E+00  0.22620775212E+04  0.22620775212E+04  0.50400000000E-02 0. -1.
         -1   -1    0    0    0  501 -0.00000000000E+00 -0.00000000000E+00 -0.10944582259E+04  0.10944582259E+04  0.50400000000E-02 0.  1.
    8880022    1    1    2    0    0 -0.28662978987E+03  0.14531669513E+04  0.11261151256E+04  0.18669166435E+04  0.15294330000E+03 0.  0.
    8880022    1    1    2    0    0  0.28662978987E+03 -0.14531669513E+04  0.41504169799E+02  0.14896191036E+04  0.15294330000E+03 0.  0.
<mgrwt>
<rscale>  0 0.14890408E+04</rscale>
<asrwt>0</asrwt>
<pdfrwt beam="1">  1        1 0.34801192E+00 0.14890408E+04</pdfrwt>
<pdfrwt beam="2">  1       -1 0.16837819E+00 0.14890408E+04</pdfrwt>
<totfact> 0.47422336E-01</totfact>
</mgrwt>
</event>
<event>
 4    1  0.2731969E-009  0.1445291E+04  0.7818608E-02  0.8921672E-01
         -1   -1    0    0    0  501 -0.00000000000E+00  0.00000000000E+00  0.11455343186E+04  0.11455343187E+04  0.50400000000E-02 0.  1.
          1   -1    0    0  501    0  0.00000000000E+00 -0.00000000000E+00 -0.27942974828E+04  0.27942974828E+04  0.50400000000E-02 0. -1.
    8880022    1    1    2    0    0  0.14142835789E+04  0.25549110645E+03  0.33674320138E+03  0.14840018139E+04  0.15294330000E+03 0.  0.
    8880022    1    1    2    0    0 -0.14142835789E+04 -0.25549110645E+03 -0.19855063655E+04  0.24558299875E+04  0.15294330000E+03 0.  0.
<mgrwt>
<rscale>  0 0.14452908E+04</rscale>
<asrwt>0</asrwt>
<pdfrwt beam="1">  1        1 0.42989192E+00 0.14452908E+04</pdfrwt>
<pdfrwt beam="2">  1       -1 0.17623605E+00 0.14452908E+04</pdfrwt>
<totfact> 0.17799355E-01</totfact>
</mgrwt>
</event>
<event>
 4    1  0.2731969E-009  0.3298283E+03  0.7818608E-02  0.1071213E+00
          1   -1    0    0  501    0  0.00000000000E+00  0.00000000000E+00  0.27234504349E+04  0.27234504349E+04  0.50400000000E-02 0. -1.
         -1   -1    0    0    0  501 -0.00000000000E+00 -0.00000000000E+00 -0.10339889314E+03  0.10339889326E+03  0.50400000000E-02 0.  1.
    8880022    1    1    2    0    0 -0.28877086477E+03 -0.44793008496E+02  0.24172760617E+04  0.24396742072E+04  0.15294330000E+03 0.  0.
    8880022    1    1    2    0    0  0.28877086477E+03  0.44793008496E+02  0.20277548008E+03  0.38717512096E+03  0.15294330000E+03 0.  1.
<mgrwt>
<rscale>  0 0.32982826E+03</rscale>
<asrwt>0</asrwt>
<pdfrwt beam="1">  1        1 0.41899235E+00 0.32982826E+03</pdfrwt>
<pdfrwt beam="2">  1       -1 0.15907523E-01 0.32982826E+03</pdfrwt>
<totfact> 0.32320536E+01</totfact>
</mgrwt>
</event>
<event>
 4    1  0.2731969E-009  0.8962450E+03  0.7818608E-02  0.9430288E-01
         -1   -1    0    0    0  501 -0.00000000000E+00  0.00000000000E+00  0.36821887547E+03  0.36821887551E+03  0.50400000000E-02 0.  1.
          1   -1    0    0  501    0  0.00000000000E+00 -0.00000000000E+00 -0.23545376115E+04  0.23545376115E+04  0.50400000000E-02 0. -1.
    8880022    1    1    2    0    0  0.87675985379E+03  0.10562041060E+03 -0.62405854412E+03  0.10921099907E+04  0.15294330000E+03 0.  0.
    8880022    1    1    2    0    0 -0.87675985379E+03 -0.10562041060E+03 -0.13622601919E+04  0.16306464963E+04  0.15294330000E+03 0.  0.
<mgrwt>
<rscale>  0 0.89624504E+03</rscale>
<asrwt>0</asrwt>
<pdfrwt beam="1">  1        1 0.36223655E+00 0.89624504E+03</pdfrwt>
<pdfrwt beam="2">  1       -1 0.56649059E-01 0.89624504E+03</pdfrwt>
<totfact> 0.55518220E+00</totfact>
</mgrwt>
</event>
<event>
 4    1  0.2731969E-009  0.9309477E+03  0.7818608E-02  0.9387701E-01
         -1   -1    0    0    0  501 -0.00000000000E+00  0.00000000000E+00  0.10862129998E+04  0.10862129998E+04  0.50400000000E-02 0.  1.
          1   -1    0    0  501    0  0.00000000000E+00 -0.00000000000E+00 -0.19043361391E+04  0.19043361391E+04  0.50400000000E-02 0. -1.
    8880022    1    1    2    0    0 -0.68982757996E+03  0.60614350970E+03 -0.15488308677E+04  0.18070807271E+04  0.15294330000E+03 0.  0.
    8880022    1    1    2    0    0  0.68982757996E+03 -0.60614350970E+03  0.73070772836E+03  0.11834684118E+04  0.15294330000E+03 0.  0.
<mgrwt>
<rscale>  0 0.93094774E+03</rscale>
<asrwt>0</asrwt>
<pdfrwt beam="1">  1        1 0.29297479E+00 0.93094774E+03</pdfrwt>
<pdfrwt beam="2">  1       -1 0.16710969E+00 0.93094774E+03</pdfrwt>
<totfact> 0.91388251E-01</totfact>
</mgrwt>
</event>
<event>
 4    1  0.2731969E-009  0.1203762E+04  0.7818608E-02  0.9109570E-01
         -1   -1    0    0    0  501 -0.00000000000E+00  0.00000000000E+00  0.90429865553E+03  0.90429865554E+03  0.50400000000E-02 0.  1.
          1   -1    0    0  501    0  0.00000000000E+00 -0.00000000000E+00 -0.21213722830E+04  0.21213722830E+04  0.50400000000E-02 0. -1.
    8880022    1    1    2    0    0  0.66055806423E+03 -0.99464304287E+03 -0.13568054530E+04  0.18138259093E+04  0.15294330000E+03 0.  0.
    8880022    1    1    2    0    0 -0.66055806423E+03  0.99464304287E+03  0.13973182548E+03  0.12118450293E+04  0.15294330000E+03 0.  0.
<mgrwt>
<rscale>  0 0.12037622E+04</rscale>
<asrwt>0</asrwt>
<pdfrwt beam="1">  1        1 0.32636496E+00 0.12037622E+04</pdfrwt>
<pdfrwt beam="2">  1       -1 0.13912287E+00 0.12037622E+04</pdfrwt>
<totfact> 0.10330767E+00</totfact>
</mgrwt>
</event>
<event>
 4    1  0.2731969E-009  0.4152657E+03  0.7818608E-02  0.1038618E+00
         -1   -1    0    0    0  501 -0.00000000000E+00  0.00000000000E+00  0.73825596476E+03  0.73825596478E+03  0.50400000000E-02 0.  1.
          1   -1    0    0  501    0  0.00000000000E+00 -0.00000000000E+00 -0.82404428054E+03  0.82404428056E+03  0.50400000000E-02 0. -1.
    8880022    1    1    2    0    0 -0.35484308782E+03 -0.15211956339E+03 -0.70412659703E+03  0.81745941562E+03  0.15294330000E+03 0.  0.
    8880022    1    1    2    0    0  0.35484308782E+03  0.15211956339E+03  0.61833828124E+03  0.74484082971E+03  0.15294330000E+03 0.  1.
<mgrwt>
<rscale>  0 0.41526574E+03</rscale>
<asrwt>0</asrwt>
<pdfrwt beam="1">  1        1 0.12677604E+00 0.41526574E+03</pdfrwt>
<pdfrwt beam="2">  1       -1 0.11357784E+00 0.41526574E+03</pdfrwt>
<totfact> 0.16204456E+01</totfact>
</mgrwt>
</event>
<event>
 4    1  0.2731969E-009  0.5029904E+03  0.7818608E-02  0.1013001E+00
         -1   -1    0    0    0  501 -0.00000000000E+00  0.00000000000E+00  0.17556375977E+04  0.17556375977E+04  0.50400000000E-02 0.  1.
          1   -1    0    0  501    0  0.00000000000E+00 -0.00000000000E+00 -0.93454510108E+03  0.93454510110E+03  0.50400000000E-02 0. -1.
    8880022    1    1    2    0    0 -0.30953523461E+03 -0.36578084215E+03 -0.82649913119E+03  0.96752268853E+03  0.15294330000E+03 0.  0.
    8880022    1    1    2    0    0  0.30953523461E+03  0.36578084215E+03  0.16475916278E+04  0.17226600102E+04  0.15294330000E+03 0.  0.
<mgrwt>
<rscale>  0 0.50299040E+03</rscale>
<asrwt>0</asrwt>
<pdfrwt beam="1">  1        1 0.14377617E+00 0.50299040E+03</pdfrwt>
<pdfrwt beam="2">  1       -1 0.27009809E+00 0.50299040E+03</pdfrwt>
<totfact> 0.98578827E-01</totfact>
</mgrwt>
</event>
<event>
 4    1  0.2731969E-009  0.5551138E+03  0.7818608E-02  0.1000317E+00
          1   -1    0    0  501    0  0.00000000000E+00  0.00000000000E+00  0.24490063601E+04  0.24490063601E+04  0.50400000000E-02 0. -1.
         -1   -1    0    0    0  501 -0.00000000000E+00 -0.00000000000E+00 -0.30024137545E+03  0.30024137550E+03  0.50400000000E-02 0.  1.
    8880022    1    1    2    0    0 -0.37228398544E+03 -0.38231442597E+03  0.26675991275E+02  0.55575439508E+03  0.15294330000E+03 0.  0.
    8880022    1    1    2    0    0  0.37228398544E+03  0.38231442597E+03  0.21220889934E+04  0.21934933406E+04  0.15294330000E+03 0.  0.
<mgrwt>
<rscale>  0 0.55511381E+03</rscale>
<asrwt>0</asrwt>
<pdfrwt beam="1">  1        1 0.37677022E+00 0.55511381E+03</pdfrwt>
<pdfrwt beam="2">  1       -1 0.46190979E-01 0.55511381E+03</pdfrwt>
<totfact> 0.75193246E+00</totfact>
</mgrwt>
</event>
<event>
 4    1  0.2731969E-009  0.9734428E+03  0.7818608E-02  0.9338162E-01
          1   -1    0    0  501    0  0.00000000000E+00  0.00000000000E+00  0.63989926722E+03  0.63989926724E+03  0.50400000000E-02 0. -1.
         -1   -1    0    0    0  501 -0.00000000000E+00 -0.00000000000E+00 -0.17230823121E+04  0.17230823121E+04  0.50400000000E-02 0.  1.
    8880022    1    1    2    0    0 -0.71568146960E+03  0.64187173124E+03 -0.98596529822E+02  0.97842333067E+03  0.15294330000E+03 0.  0.
    8880022    1    1    2    0    0  0.71568146960E+03 -0.64187173124E+03 -0.98458651507E+03  0.13845582487E+04  0.15294330000E+03 0.  0.
<mgrwt>
<rscale>  0 0.97344283E+03</rscale>
<asrwt>0</asrwt>
<pdfrwt beam="1">  1        1 0.98446042E-01 0.97344283E+03</pdfrwt>
<pdfrwt beam="2">  1       -1 0.26508958E+00 0.97344283E+03</pdfrwt>
<totfact> 0.17562897E+00</totfact>
</mgrwt>
</event>
<event>
 4    1  0.2731969E-009  0.5549124E+03  0.7818608E-02  0.1000363E+00
          1   -1    0    0  501    0  0.00000000000E+00  0.00000000000E+00  0.10859147467E+04  0.10859147468E+04  0.50400000000E-02 0. -1.
         -1   -1    0    0    0  501 -0.00000000000E+00 -0.00000000000E+00 -0.12542159388E+04  0.12542159388E+04  0.50400000000E-02 0.  1.
    8880022    1    1    2    0    0  0.24135306315E+03 -0.47569405001E+03  0.94518127889E+03  0.10960362372E+04  0.15294330000E+03 0.  0.
    8880022    1    1    2    0    0 -0.24135306315E+03  0.47569405001E+03 -0.11134824710E+04  0.12440944484E+04  0.15294330000E+03 0.  0.
<mgrwt>
<rscale>  0 0.55491241E+03</rscale>
<asrwt>0</asrwt>
<pdfrwt beam="1">  1        1 0.16706381E+00 0.55491241E+03</pdfrwt>
<pdfrwt beam="2">  1       -1 0.19295630E+00 0.55491241E+03</pdfrwt>
<totfact> 0.23780178E+00</totfact>
</mgrwt>
</event>
<event>
 4    1  0.2731969E-009  0.4754098E+03  0.7818608E-02  0.1020404E+00
          1   -1    0    0  501    0  0.00000000000E+00  0.00000000000E+00  0.25697762696E+04  0.25697762696E+04  0.50400000000E-02 0. -1.
         -1   -1    0    0    0  501 -0.00000000000E+00 -0.00000000000E+00 -0.14431686937E+03  0.14431686946E+03  0.50400000000E-02 0.  1.
    8880022    1    1    2    0    0  0.18013689964E+02 -0.44977588315E+03  0.20608240295E+04  0.21149492125E+04  0.15294330000E+03 0. -1.
    8880022    1    1    2    0    0 -0.18013689964E+02  0.44977588315E+03  0.36463537075E+03  0.59914392654E+03  0.15294330000E+03 0.  0.
<mgrwt>
<rscale>  0 0.47540981E+03</rscale>
<asrwt>0</asrwt>
<pdfrwt beam="1">  1        1 0.39535017E+00 0.47540981E+03</pdfrwt>
<pdfrwt beam="2">  1       -1 0.22202597E-01 0.47540981E+03</pdfrwt>
<totfact> 0.22893102E+01</totfact>
</mgrwt>
</event>
<event>
 4    1  0.2731969E-009  0.8525708E+03  0.7818608E-02  0.9486893E-01
          1   -1    0    0  501    0  0.00000000000E+00  0.00000000000E+00  0.21226694909E+04  0.21226694909E+04  0.50400000000E-02 0. -1.
         -1   -1    0    0    0  501 -0.00000000000E+00 -0.00000000000E+00 -0.40902413603E+03  0.40902413607E+03  0.50400000000E-02 0.  1.
    8880022    1    1    2    0    0  0.82737835755E+03  0.13758773896E+03  0.13675714874E+04  0.16115609696E+04  0.15294330000E+03 0. -1.
    8880022    1    1    2    0    0 -0.82737835755E+03 -0.13758773896E+03  0.34607386746E+03  0.92013265740E+03  0.15294330000E+03 0.  0.
<mgrwt>
<rscale>  0 0.85257081E+03</rscale>
<asrwt>0</asrwt>
<pdfrwt beam="1">  1        1 0.32656454E+00 0.85257081E+03</pdfrwt>
<pdfrwt beam="2">  1       -1 0.62926790E-01 0.85257081E+03</pdfrwt>
<totfact> 0.65107575E+00</totfact>
</mgrwt>
</event>
<event>
 4    1  0.2731969E-009  0.1150965E+04  0.7818608E-02  0.9156894E-01
          1   -1    0    0  501    0  0.00000000000E+00  0.00000000000E+00  0.30800240699E+04  0.30800240699E+04  0.50400000000E-02 0. -1.
         -1   -1    0    0    0  501 -0.00000000000E+00 -0.00000000000E+00 -0.10326583777E+04  0.10326583777E+04  0.50400000000E-02 0.  1.
    8880022    1    1    2    0    0  0.59410906218E+03 -0.97383885282E+03  0.25944662149E+04  0.28383048254E+04  0.15294330000E+03 0.  0.
    8880022    1    1    2    0    0 -0.59410906218E+03  0.97383885282E+03 -0.54710052265E+03  0.12743776222E+04  0.15294330000E+03 0.  0.
<mgrwt>
<rscale>  0 0.11509645E+04</rscale>
<asrwt>0</asrwt>
<pdfrwt beam="1">  1        1 0.47384985E+00 0.11509645E+04</pdfrwt>
<pdfrwt beam="2">  1       -1 0.15887052E+00 0.11509645E+04</pdfrwt>
<totfact> 0.15589176E-01</totfact>
</mgrwt>
</event>
<event>
 4    1  0.2731969E-009  0.1368965E+04  0.7818608E-02  0.8976595E-01
          1   -1    0    0  501    0  0.00000000000E+00  0.00000000000E+00  0.20244615192E+04  0.20244615192E+04  0.50400000000E-02 0. -1.
         -1   -1    0    0    0  501 -0.00000000000E+00 -0.00000000000E+00 -0.10521499217E+04  0.10521499218E+04  0.50400000000E-02 0.  1.
    8880022    1    1    2    0    0 -0.38848039422E+03  0.13037468041E+04 -0.47112594263E+02  0.13697751624E+04  0.15294330000E+03 0.  0.
    8880022    1    1    2    0    0  0.38848039422E+03 -0.13037468041E+04  0.10194241917E+04  0.17068362785E+04  0.15294330000E+03 0.  0.
<mgrwt>
<rscale>  0 0.13689647E+04</rscale>
<asrwt>0</asrwt>
<pdfrwt beam="1">  1        1 0.31145561E+00 0.13689647E+04</pdfrwt>
<pdfrwt beam="2">  1       -1 0.16186922E+00 0.13689647E+04</pdfrwt>
<totfact> 0.78076704E-01</totfact>
</mgrwt>
</event>
<event>
 4    1  0.2731969E-009  0.7331165E+03  0.7818608E-02  0.9662217E-01
         -1   -1    0    0    0  501 -0.00000000000E+00  0.00000000000E+00  0.53464947137E+03  0.53464947140E+03  0.50400000000E-02 0.  1.
          1   -1    0    0  501    0  0.00000000000E+00 -0.00000000000E+00 -0.17002741753E+04  0.17002741753E+04  0.50400000000E-02 0. -1.
    8880022    1    1    2    0    0  0.59648118227E+02 -0.71450005027E+03  0.13163648031E+03  0.74484094665E+03  0.15294330000E+03 0.  0.
    8880022    1    1    2    0    0 -0.59648118227E+02  0.71450005027E+03 -0.12972611842E+04  0.14900827001E+04  0.15294330000E+03 0.  0.
<mgrwt>
<rscale>  0 0.73311655E+03</rscale>
<asrwt>0</asrwt>
<pdfrwt beam="1">  1        1 0.26158064E+00 0.73311655E+03</pdfrwt>
<pdfrwt beam="2">  1       -1 0.82253766E-01 0.73311655E+03</pdfrwt>
<totfact> 0.73229965E+00</totfact>
</mgrwt>
</event>
<event>
 4    1  0.2731969E-009  0.6936545E+03  0.7818608E-02  0.9728146E-01
         -1   -1    0    0    0  501 -0.00000000000E+00  0.00000000000E+00  0.13367014629E+04  0.13367014629E+04  0.50400000000E-02 0.  1.
          1   -1    0    0  501    0  0.00000000000E+00 -0.00000000000E+00 -0.12197880504E+04  0.12197880505E+04  0.50400000000E-02 0. -1.
    8880022    1    1    2    0    0  0.48962948671E+03  0.46693462251E+03 -0.10147369486E+04  0.12291654502E+04  0.15294330000E+03 0. -1.
    8880022    1    1    2    0    0 -0.48962948671E+03 -0.46693462251E+03  0.11316503611E+04  0.13273240632E+04  0.15294330000E+03 0.  0.
<mgrwt>
<rscale>  0 0.69365455E+03</rscale>
<asrwt>0</asrwt>
<pdfrwt beam="1">  1        1 0.18765970E+00 0.69365455E+03</pdfrwt>
<pdfrwt beam="2">  1       -1 0.20564638E+00 0.69365455E+03</pdfrwt>
<totfact> 0.15074160E+00</totfact>
</mgrwt>
</event>
<event>
 4    1  0.2731969E-009  0.1701276E+04  0.7818608E-02  0.8760637E-01
          1   -1    0    0  501    0  0.00000000000E+00  0.00000000000E+00  0.27992022582E+04  0.27992022582E+04  0.50400000000E-02 0. -1.
         -1   -1    0    0    0  501 -0.00000000000E+00 -0.00000000000E+00 -0.12069389220E+04  0.12069389220E+04  0.50400000000E-02 0.  1.
    8880022    1    1    2    0    0  0.13230658645E+04 -0.10585108229E+04  0.15543873935E+04  0.23044435914E+04  0.15294330000E+03 0.  0.
    8880022    1    1    2    0    0 -0.13230658645E+04  0.10585108229E+04  0.37875942785E+02  0.17016975889E+04  0.15294330000E+03 0.  0.
<mgrwt>
<rscale>  0 0.17012760E+04</rscale>
<asrwt>0</asrwt>
<pdfrwt beam="1">  1        1 0.43064650E+00 0.17012760E+04</pdfrwt>
<pdfrwt beam="2">  1       -1 0.18568291E+00 0.17012760E+04</pdfrwt>
<totfact> 0.14635803E-01</totfact>
</mgrwt>
</event>
<event>
 4    1  0.2731969E-009  0.3678907E+03  0.7818608E-02  0.1055502E+00
         -1   -1    0    0    0  501 -0.00000000000E+00  0.00000000000E+00  0.75830338397E+03  0.75830338399E+03  0.50400000000E-02 0.  1.
          1   -1    0    0  501    0  0.00000000000E+00 -0.00000000000E+00 -0.12149023024E+04  0.12149023024E+04  0.50400000000E-02 0. -1.
    8880022    1    1    2    0    0 -0.28867886508E+03  0.16916400453E+03 -0.11395538092E+04  0.11974666946E+04  0.15294330000E+03 0.  0.
    8880022    1    1    2    0    0  0.28867886508E+03 -0.16916400453E+03  0.68295489077E+03  0.77573899181E+03  0.15294330000E+03 0.  1.
<mgrwt>
<rscale>  0 0.36789075E+03</rscale>
<asrwt>0</asrwt>
<pdfrwt beam="1">  1        1 0.18690805E+00 0.36789075E+03</pdfrwt>
<pdfrwt beam="2">  1       -1 0.11666206E+00 0.36789075E+03</pdfrwt>
<totfact> 0.77788089E+00</totfact>
</mgrwt>
</event>
<event>
 4    1  0.2731969E-009  0.6093748E+03  0.7818608E-02  0.9886145E-01
          1   -1    0    0  501    0  0.00000000000E+00  0.00000000000E+00  0.13129179136E+04  0.13129179136E+04  0.50400000000E-02 0. -1.
         -1   -1    0    0    0  501 -0.00000000000E+00 -0.00000000000E+00 -0.86366521080E+03  0.86366521081E+03  0.50400000000E-02 0.  1.
    8880022    1    1    2    0    0 -0.58578853143E+03  0.69265944734E+02 -0.66785176839E+03  0.90408164024E+03  0.15294330000E+03 0.  0.
    8880022    1    1    2    0    0  0.58578853143E+03 -0.69265944734E+02  0.11171044712E+04  0.12725014842E+04  0.15294330000E+03 0.  0.
<mgrwt>
<rscale>  0 0.60937478E+03</rscale>
<asrwt>0</asrwt>
<pdfrwt beam="1">  1        1 0.20198737E+00 0.60937478E+03</pdfrwt>
<pdfrwt beam="2">  1       -1 0.13287157E+00 0.60937478E+03</pdfrwt>
<totfact> 0.45354024E+00</totfact>
</mgrwt>
</event>
<event>
 4    1  0.2731969E-009  0.5607696E+03  0.7818608E-02  0.9990315E-01
          1   -1    0    0  501    0  0.00000000000E+00  0.00000000000E+00  0.77171606061E+03  0.77171606062E+03  0.50400000000E-02 0. -1.
         -1   -1    0    0    0  501 -0.00000000000E+00 -0.00000000000E+00 -0.13574513204E+04  0.13574513204E+04  0.50400000000E-02 0.  1.
    8880022    1    1    2    0    0 -0.27661597200E+03  0.46320031696E+03  0.59771007962E+03  0.81958521332E+03  0.15294330000E+03 0.  0.
    8880022    1    1    2    0    0  0.27661597200E+03 -0.46320031696E+03 -0.11834453394E+04  0.13095821677E+04  0.15294330000E+03 0.  0.
<mgrwt>
<rscale>  0 0.56076963E+03</rscale>
<asrwt>0</asrwt>
<pdfrwt beam="1">  1        1 0.11872555E+00 0.56076963E+03</pdfrwt>
<pdfrwt beam="2">  1       -1 0.20883866E+00 0.56076963E+03</pdfrwt>
<totfact> 0.33039104E+00</totfact>
</mgrwt>
</event>
<event>
 4    1  0.2731969E-009  0.5343243E+03  0.7818608E-02  0.1005189E+00
          1   -1    0    0  501    0  0.00000000000E+00  0.00000000000E+00  0.72485027008E+03  0.72485027010E+03  0.50400000000E-02 0. -1.
         -1   -1    0    0    0  501 -0.00000000000E+00 -0.00000000000E+00 -0.81109287782E+03  0.81109287784E+03  0.50400000000E-02 0.  1.
    8880022    1    1    2    0    0 -0.32231912274E+03  0.39777026253E+03 -0.59391610583E+03  0.79889848693E+03  0.15294330000E+03 0.  0.
    8880022    1    1    2    0    0  0.32231912274E+03 -0.39777026253E+03  0.50767349809E+03  0.73704466101E+03  0.15294330000E+03 0.  0.
<mgrwt>
<rscale>  0 0.53432429E+03</rscale>
<asrwt>0</asrwt>
<pdfrwt beam="1">  1        1 0.11151543E+00 0.53432429E+03</pdfrwt>
<pdfrwt beam="2">  1       -1 0.12478352E+00 0.53432429E+03</pdfrwt>
<totfact> 0.15398084E+01</totfact>
</mgrwt>
</event>
<event>
 4    1  0.2731969E-009  0.7530545E+03  0.7818608E-02  0.9630570E-01
         -1   -1    0    0    0  501 -0.00000000000E+00  0.00000000000E+00  0.34138365936E+03  0.34138365940E+03  0.50400000000E-02 0.  1.
          1   -1    0    0  501    0  0.00000000000E+00 -0.00000000000E+00 -0.25690423664E+04  0.25690423664E+04  0.50400000000E-02 0. -1.
    8880022    1    1    2    0    0 -0.49927016162E+03  0.54261286360E+03 -0.19789107983E+04  0.21173518873E+04  0.15294330000E+03 0.  0.
    8880022    1    1    2    0    0  0.49927016162E+03 -0.54261286360E+03 -0.24874790873E+03  0.79307413849E+03  0.15294330000E+03 0.  0.
<mgrwt>
<rscale>  0 0.75305449E+03</rscale>
<asrwt>0</asrwt>
<pdfrwt beam="1">  1        1 0.39523727E+00 0.75305449E+03</pdfrwt>
<pdfrwt beam="2">  1       -1 0.52520565E-01 0.75305449E+03</pdfrwt>
<totfact> 0.46951623E+00</totfact>
</mgrwt>
</event>
<event>
 4    1  0.2731969E-009  0.1028772E+04  0.7818608E-02  0.9277540E-01
          1   -1    0    0  501    0  0.00000000000E+00  0.00000000000E+00  0.14890881965E+04  0.14890881965E+04  0.50400000000E-02 0. -1.
         -1   -1    0    0    0  501 -0.00000000000E+00 -0.00000000000E+00 -0.89304854392E+03  0.89304854394E+03  0.50400000000E-02 0.  1.
    8880022    1    1    2    0    0  0.10173065026E+04  0.81682481835E+01 -0.24011313284E+03  0.10564209436E+04  0.15294330000E+03 0.  0.
    8880022    1    1    2    0    0 -0.10173065026E+04 -0.81682481835E+01  0.83615278545E+03  0.13257157969E+04  0.15294330000E+03 0.  0.
<mgrwt>
<rscale>  0 0.10287715E+04</rscale>
<asrwt>0</asrwt>
<pdfrwt beam="1">  1        1 0.22909049E+00 0.10287715E+04</pdfrwt>
<pdfrwt beam="2">  1       -1 0.13739209E+00 0.10287715E+04</pdfrwt>
<totfact> 0.29351243E+00</totfact>
</mgrwt>
</event>
<event>
 4    1  0.2731969E-009  0.5834477E+03  0.7818608E-02  0.9940355E-01
          1   -1    0    0  501    0  0.00000000000E+00  0.00000000000E+00  0.10842514211E+04  0.10842514211E+04  0.50400000000E-02 0. -1.
         -1   -1    0    0    0  501 -0.00000000000E+00 -0.00000000000E+00 -0.50413870111E+03  0.50413870114E+03  0.50400000000E-02 0.  1.
    8880022    1    1    2    0    0  0.50481300729E+03  0.24936606338E+03  0.77784696959E+03  0.97234621767E+03  0.15294330000E+03 0.  0.
    8880022    1    1    2    0    0 -0.50481300729E+03 -0.24936606338E+03 -0.19773424960E+03  0.61604390458E+03  0.15294330000E+03 0.  1.
<mgrwt>
<rscale>  0 0.58344773E+03</rscale>
<asrwt>0</asrwt>
<pdfrwt beam="1">  1        1 0.16680791E+00 0.58344773E+03</pdfrwt>
<pdfrwt beam="2">  1       -1 0.77559801E-01 0.58344773E+03</pdfrwt>
<totfact> 0.22860702E+01</totfact>
</mgrwt>
</event>
<event>
 4    1  0.2731969E-009  0.5390125E+03  0.7818608E-02  0.1004070E+00
         -1   -1    0    0    0  501 -0.00000000000E+00  0.00000000000E+00  0.10360212999E+04  0.10360212999E+04  0.50400000000E-02 0.  1.
          1   -1    0    0  501    0  0.00000000000E+00 -0.00000000000E+00 -0.19511329823E+04  0.19511329823E+04  0.50400000000E-02 0. -1.
    8880022    1    1    2    0    0  0.30748536130E+03  0.41544627869E+03  0.92452505296E+03  0.10701780620E+04  0.15294330000E+03 0.  0.
    8880022    1    1    2    0    0 -0.30748536130E+03 -0.41544627869E+03 -0.18396367353E+04  0.19169762202E+04  0.15294330000E+03 0.  0.
<mgrwt>
<rscale>  0 0.53901253E+03</rscale>
<asrwt>0</asrwt>
<pdfrwt beam="1">  1        1 0.30017431E+00 0.53901253E+03</pdfrwt>
<pdfrwt beam="2">  1       -1 0.15938789E+00 0.53901253E+03</pdfrwt>
<totfact> 0.10606940E+00</totfact>
</mgrwt>
</event>
<event>
 4    1  0.2731969E-009  0.7611339E+03  0.7818608E-02  0.9618043E-01
          1   -1    0    0  501    0  0.00000000000E+00  0.00000000000E+00  0.64496999385E+03  0.64496999387E+03  0.50400000000E-02 0. -1.
         -1   -1    0    0    0  501 -0.00000000000E+00 -0.00000000000E+00 -0.11336249336E+04  0.11336249336E+04  0.50400000000E-02 0.  1.
    8880022    1    1    2    0    0  0.43222653070E+03  0.60754696784E+03 -0.64957504922E+03  0.10006360425E+04  0.15294330000E+03 0.  0.
    8880022    1    1    2    0    0 -0.43222653070E+03 -0.60754696784E+03  0.16092010951E+03  0.77795888493E+03  0.15294330000E+03 0.  0.
<mgrwt>
<rscale>  0 0.76113385E+03</rscale>
<asrwt>0</asrwt>
<pdfrwt beam="1">  1        1 0.99226153E-01 0.76113385E+03</pdfrwt>
<pdfrwt beam="2">  1       -1 0.17440384E+00 0.76113385E+03</pdfrwt>
<totfact> 0.72594518E+00</totfact>
</mgrwt>
</event>
<event>
 4    1  0.2731969E-009  0.1971040E+03  0.7818608E-02  0.1152206E+00
          1   -1    0    0  501    0  0.00000000000E+00  0.00000000000E+00  0.10713346206E+04  0.10713346206E+04  0.50400000000E-02 0. -1.
         -1   -1    0    0    0  501 -0.00000000000E+00 -0.00000000000E+00 -0.15330602802E+03  0.15330602810E+03  0.50400000000E-02 0.  1.
    8880022    1    1    2    0    0  0.74947400931E+02  0.99202989423E+02 -0.76007532590E+02  0.21125137643E+03  0.15294330000E+03 0.  0.
    8880022    1    1    2    0    0 -0.74947400931E+02 -0.99202989423E+02  0.99403612512E+03  0.10133892722E+04  0.15294330000E+03 0. -1.
<mgrwt>
<rscale>  0 0.19710403E+03</rscale>
<asrwt>0</asrwt>
<pdfrwt beam="1">  1        1 0.16482071E+00 0.19710403E+03</pdfrwt>
<pdfrwt beam="2">  1       -1 0.23585542E-01 0.19710403E+03</pdfrwt>
<totfact> 0.22231072E+02</totfact>
</mgrwt>
</event>
<event>
 4    1  0.2731969E-009  0.9737859E+03  0.7818608E-02  0.9337773E-01
         -1   -1    0    0    0  501 -0.00000000000E+00  0.00000000000E+00  0.97707143670E+03  0.97707143672E+03  0.50400000000E-02 0.  1.
          1   -1    0    0  501    0  0.00000000000E+00 -0.00000000000E+00 -0.22404328993E+04  0.22404328993E+04  0.50400000000E-02 0. -1.
    8880022    1    1    2    0    0 -0.80474104646E+03 -0.52655401315E+03 -0.18428688959E+04  0.20843283573E+04  0.15294330000E+03 0.  0.
    8880022    1    1    2    0    0  0.80474104646E+03  0.52655401315E+03  0.57950743325E+03  0.11331759788E+04  0.15294330000E+03 0.  0.
<mgrwt>
<rscale>  0 0.97378588E+03</rscale>
<asrwt>0</asrwt>
<pdfrwt beam="1">  1        1 0.34468198E+00 0.97378588E+03</pdfrwt>
<pdfrwt beam="2">  1       -1 0.15031868E+00 0.97378588E+03</pdfrwt>
<totfact> 0.72262061E-01</totfact>
</mgrwt>
</event>
<event>
 4    1  0.2731969E-009  0.1128062E+04  0.7818608E-02  0.9178265E-01
         -1   -1    0    0    0  501 -0.00000000000E+00  0.00000000000E+00  0.11954272030E+04  0.11954272030E+04  0.50400000000E-02 0.  1.
          1   -1    0    0  501    0  0.00000000000E+00 -0.00000000000E+00 -0.31733853119E+04  0.31733853119E+04  0.50400000000E-02 0. -1.
    8880022    1    1    2    0    0 -0.77850565112E+03  0.80191041194E+03 -0.27697140178E+04  0.29906251438E+04  0.15294330000E+03 0.  0.
    8880022    1    1    2    0    0  0.77850565112E+03 -0.80191041194E+03  0.79175590888E+03  0.13781873711E+04  0.15294330000E+03 0.  0.
<mgrwt>
<rscale>  0 0.11280616E+04</rscale>
<asrwt>0</asrwt>
<pdfrwt beam="1">  1        1 0.48821312E+00 0.11280616E+04</pdfrwt>
<pdfrwt beam="2">  1       -1 0.18391188E+00 0.11280616E+04</pdfrwt>
<totfact> 0.87450861E-02</totfact>
</mgrwt>
</event>
<event>
 4    1  0.2731969E-009  0.2863426E+03  0.7818608E-02  0.1092274E+00
         -1   -1    0    0    0  501 -0.00000000000E+00  0.00000000000E+00  0.44785006858E+03  0.44785006861E+03  0.50400000000E-02 0.  1.
          1   -1    0    0  501    0  0.00000000000E+00 -0.00000000000E+00 -0.31750733264E+04  0.31750733264E+04  0.50400000000E-02 0. -1.
    8880022    1    1    2    0    0  0.12248849576E+03 -0.20879893944E+03  0.39484894715E+03  0.48774765277E+03  0.15294330000E+03 0.  0.
    8880022    1    1    2    0    0 -0.12248849576E+03  0.20879893944E+03 -0.31220722049E+04  0.31351757422E+04  0.15294330000E+03 0. -1.
<mgrwt>
<rscale>  0 0.28634260E+03</rscale>
<asrwt>0</asrwt>
<pdfrwt beam="1">  1        1 0.48847280E+00 0.28634260E+03</pdfrwt>
<pdfrwt beam="2">  1       -1 0.68900013E-01 0.28634260E+03</pdfrwt>
<totfact> 0.12130792E+00</totfact>
</mgrwt>
</event>
<event>
 4    1  0.2731969E-009  0.1954012E+04  0.7818608E-02  0.8628429E-01
          1   -1    0    0  501    0  0.00000000000E+00  0.00000000000E+00  0.31768120562E+04  0.31768120562E+04  0.50400000000E-02 0. -1.
         -1   -1    0    0    0  501 -0.00000000000E+00 -0.00000000000E+00 -0.14420747567E+04  0.14420747567E+04  0.50400000000E-02 0.  1.
    8880022    1    1    2    0    0  0.90096451504E+03 -0.17271458985E+04  0.18098895493E+04  0.26634304657E+04  0.15294330000E+03 0.  0.
    8880022    1    1    2    0    0 -0.90096451504E+03  0.17271458985E+04 -0.75152249693E+02  0.19554563472E+04  0.15294330000E+03 0.  0.
<mgrwt>
<rscale>  0 0.19540117E+04</rscale>
<asrwt>0</asrwt>
<pdfrwt beam="1">  1        1 0.48874031E+00 0.19540117E+04</pdfrwt>
<pdfrwt beam="2">  1       -1 0.22185766E+00 0.19540117E+04</pdfrwt>
<totfact> 0.42404596E-02</totfact>
</mgrwt>
</event>
<event>
 4    1  0.2731969E-009  0.5119886E+03  0.7818608E-02  0.1010696E+00
          1   -1    0    0  501    0  0.00000000000E+00  0.00000000000E+00  0.52382638768E+03  0.52382638771E+03  0.50400000000E-02 0. -1.
         -1   -1    0    0    0  501 -0.00000000000E+00 -0.00000000000E+00 -0.11692392123E+04  0.11692392123E+04  0.50400000000E-02 0.  1.
    8880022    1    1    2    0    0  0.46742926133E+03  0.14230443147E+03 -0.96295262941E+03  0.10906007909E+04  0.15294330000E+03 0.  0.
    8880022    1    1    2    0    0 -0.46742926133E+03 -0.14230443147E+03  0.31753980482E+03  0.60246480912E+03  0.15294330000E+03 0.  0.
<mgrwt>
<rscale>  0 0.51198859E+03</rscale>
<asrwt>0</asrwt>
<pdfrwt beam="1">  1        1 0.80588675E-01 0.51198859E+03</pdfrwt>
<pdfrwt beam="2">  1       -1 0.17988295E+00 0.51198859E+03</pdfrwt>
<totfact> 0.92724301E+00</totfact>
</mgrwt>
</event>
<event>
 4    1  0.2731969E-009  0.1044872E+04  0.7818608E-02  0.9260655E-01
          1   -1    0    0  501    0  0.00000000000E+00  0.00000000000E+00  0.14089409555E+04  0.14089409555E+04  0.50400000000E-02 0. -1.
         -1   -1    0    0    0  501 -0.00000000000E+00 -0.00000000000E+00 -0.14526069565E+04  0.14526069565E+04  0.50400000000E-02 0.  1.
    8880022    1    1    2    0    0  0.94296336911E+02 -0.10293070717E+04 -0.99912688332E+03  0.14456870440E+04  0.15294330000E+03 0.  0.
    8880022    1    1    2    0    0 -0.94296336911E+02  0.10293070717E+04  0.95546088230E+03  0.14158608681E+04  0.15294330000E+03 0.  0.
<mgrwt>
<rscale>  0 0.10448715E+04</rscale>
<asrwt>0</asrwt>
<pdfrwt beam="1">  1        1 0.21676015E+00 0.10448715E+04</pdfrwt>
<pdfrwt beam="2">  1       -1 0.22347799E+00 0.10448715E+04</pdfrwt>
<totfact> 0.79079531E-01</totfact>
</mgrwt>
</event>
<event>
 4    1  0.2731969E-009  0.1065323E+04  0.7818608E-02  0.9239666E-01
         -1   -1    0    0    0  501 -0.00000000000E+00  0.00000000000E+00  0.11784266448E+04  0.11784266448E+04  0.50400000000E-02 0.  1.
          1   -1    0    0  501    0  0.00000000000E+00 -0.00000000000E+00 -0.20158338113E+04  0.20158338113E+04  0.50400000000E-02 0. -1.
    8880022    1    1    2    0    0  0.92243381522E+03  0.51052612366E+03 -0.15728940971E+04  0.18997127573E+04  0.15294330000E+03 0.  0.
    8880022    1    1    2    0    0 -0.92243381522E+03 -0.51052612366E+03  0.73548693061E+03  0.12945476988E+04  0.15294330000E+03 0.  0.
<mgrwt>
<rscale>  0 0.10653228E+04</rscale>
<asrwt>0</asrwt>
<pdfrwt beam="1">  1        1 0.31012828E+00 0.10653228E+04</pdfrwt>
<pdfrwt beam="2">  1       -1 0.18129641E+00 0.10653228E+04</pdfrwt>
<totfact> 0.59302148E-01</totfact>
</mgrwt>
</event>
<event>
 4    1  0.2731969E-009  0.1988474E+03  0.7818608E-02  0.1150715E+00
         -1   -1    0    0    0  501 -0.00000000000E+00  0.00000000000E+00  0.91519561744E+02  0.91519561883E+02  0.50400000000E-02 0.  1.
          1   -1    0    0  501    0  0.00000000000E+00 -0.00000000000E+00 -0.93454860344E+03  0.93454860345E+03  0.50400000000E-02 0. -1.
    8880022    1    1    2    0    0  0.30861584726E+02  0.12327287748E+03 -0.45316794554E+02  0.20394583746E+03  0.15294330000E+03 0.  0.
    8880022    1    1    2    0    0 -0.30861584726E+02 -0.12327287748E+03 -0.79771224714E+03  0.82212232787E+03  0.15294330000E+03 0. -1.
<mgrwt>
<rscale>  0 0.19884741E+03</rscale>
<asrwt>0</asrwt>
<pdfrwt beam="1">  1        1 0.14377670E+00 0.19884741E+03</pdfrwt>
<pdfrwt beam="2">  1       -1 0.14079933E-01 0.19884741E+03</pdfrwt>
<totfact> 0.64369741E+02</totfact>
</mgrwt>
</event>
<event>
 4    1  0.2731969E-009  0.8705704E+03  0.7818608E-02  0.9463136E-01
          1   -1    0    0  501    0  0.00000000000E+00  0.00000000000E+00  0.12341560825E+04  0.12341560825E+04  0.50400000000E-02 0. -1.
         -1   -1    0    0    0  501 -0.00000000000E+00 -0.00000000000E+00 -0.78560899253E+03  0.78560899255E+03  0.50400000000E-02 0.  1.
    8880022    1    1    2    0    0  0.83990616301E+03  0.17046656180E+03  0.69613394902E+03  0.11146727499E+04  0.15294330000E+03 0.  0.
    8880022    1    1    2    0    0 -0.83990616301E+03 -0.17046656180E+03 -0.24758685903E+03  0.90509232520E+03  0.15294330000E+03 0.  0.
<mgrwt>
<rscale>  0 0.87057042E+03</rscale>
<asrwt>0</asrwt>
<pdfrwt beam="1">  1        1 0.18987017E+00 0.87057042E+03</pdfrwt>
<pdfrwt beam="2">  1       -1 0.12086292E+00 0.87057042E+03</pdfrwt>
<totfact> 0.62574923E+00</totfact>
</mgrwt>
</event>
<event>
 4    1  0.2731969E-009  0.3879764E+03  0.7818608E-02  0.1048024E+00
         -1   -1    0    0    0  501 -0.00000000000E+00  0.00000000000E+00  0.36550373502E+04  0.36550373502E+04  0.50400000000E-02 0.  1.
          1   -1    0    0  501    0  0.00000000000E+00 -0.00000000000E+00 -0.11348484826E+03  0.11348484837E+03  0.50400000000E-02 0. -1.
    8880022    1    1    2    0    0 -0.25043034842E+03  0.25380831112E+03  0.32747720425E+04  0.32976745749E+04  0.15294330000E+03 0.  0.
    8880022    1    1    2    0    0  0.25043034842E+03 -0.25380831112E+03  0.26678045939E+03  0.47084762369E+03  0.15294330000E+03 0.  0.
<mgrwt>
<rscale>  0 0.38797638E+03</rscale>
<asrwt>0</asrwt>
<pdfrwt beam="1">  1        1 0.17459210E-01 0.38797638E+03</pdfrwt>
<pdfrwt beam="2">  1       -1 0.56231334E+00 0.38797638E+03</pdfrwt>
<totfact> 0.22639178E-01</totfact>
</mgrwt>
</event>
<event>
 4    1  0.2731969E-009  0.4197571E+03  0.7818608E-02  0.1037145E+00
          1   -1    0    0  501    0  0.00000000000E+00  0.00000000000E+00  0.10318629115E+04  0.10318629115E+04  0.50400000000E-02 0. -1.
         -1   -1    0    0    0  501 -0.00000000000E+00 -0.00000000000E+00 -0.18180332263E+03  0.18180332270E+03  0.50400000000E-02 0.  1.
    8880022    1    1    2    0    0 -0.12032505052E+03 -0.37192232411E+03  0.57462307058E+03  0.71160920400E+03  0.15294330000E+03 0.  0.
    8880022    1    1    2    0    0  0.12032505052E+03  0.37192232411E+03  0.27543651828E+03  0.50205703020E+03  0.15294330000E+03 0.  0.
<mgrwt>
<rscale>  0 0.41975706E+03</rscale>
<asrwt>0</asrwt>
<pdfrwt beam="1">  1        1 0.15874814E+00 0.41975706E+03</pdfrwt>
<pdfrwt beam="2">  1       -1 0.27969743E-01 0.41975706E+03</pdfrwt>
<totfact> 0.17234487E+02</totfact>
</mgrwt>
</event>
<event>
 4    1  0.2731969E-009  0.1195451E+04  0.7818608E-02  0.9116847E-01
         -1   -1    0    0    0  501 -0.00000000000E+00  0.00000000000E+00  0.16933236060E+04  0.16933236061E+04  0.50400000000E-02 0.  1.
          1   -1    0    0  501    0  0.00000000000E+00 -0.00000000000E+00 -0.23910015243E+04  0.23910015243E+04  0.50400000000E-02 0. -1.
    8880022    1    1    2    0    0  0.12690397923E+03  0.11788161927E+04 -0.19915108707E+04  0.23227611667E+04  0.15294330000E+03 0.  0.
    8880022    1    1    2    0    0 -0.12690397923E+03 -0.11788161927E+04  0.12938329525E+04  0.17615639637E+04  0.15294330000E+03 0.  0.
<mgrwt>
<rscale>  0 0.11954513E+04</rscale>
<asrwt>0</asrwt>
<pdfrwt beam="1">  1        1 0.36784639E+00 0.11954513E+04</pdfrwt>
<pdfrwt beam="2">  1       -1 0.26051132E+00 0.11954513E+04</pdfrwt>
<totfact> 0.94719315E-02</totfact>
</mgrwt>
</event>
<event>
 4    1  0.2731969E-009  0.1019945E+04  0.7818608E-02  0.9286936E-01
         -1   -1    0    0    0  501 -0.00000000000E+00  0.00000000000E+00  0.95498438987E+03  0.95498438988E+03  0.50400000000E-02 0.  1.
          1   -1    0    0  501    0  0.00000000000E+00 -0.00000000000E+00 -0.14232804405E+04  0.14232804405E+04  0.50400000000E-02 0. -1.
    8880022    1    1    2    0    0  0.91455477947E+03 -0.42483578393E+03  0.34186168355E+03  0.10757122997E+04  0.15294330000E+03 0.  0.
    8880022    1    1    2    0    0 -0.91455477947E+03  0.42483578393E+03 -0.81015773414E+03  0.13025525307E+04  0.15294330000E+03 0.  0.
<mgrwt>
<rscale>  0 0.10199449E+04</rscale>
<asrwt>0</asrwt>
<pdfrwt beam="1">  1        1 0.21896622E+00 0.10199449E+04</pdfrwt>
<pdfrwt beam="2">  1       -1 0.14692068E+00 0.10199449E+04</pdfrwt>
<totfact> 0.27356655E+00</totfact>
</mgrwt>
</event>
<event>
 4    1  0.2731969E-009  0.2176560E+04  0.7818608E-02  0.8528248E-01
          1   -1    0    0  501    0  0.00000000000E+00  0.00000000000E+00  0.29859140546E+04  0.29859140547E+04  0.50400000000E-02 0. -1.
         -1   -1    0    0    0  501 -0.00000000000E+00 -0.00000000000E+00 -0.25971855810E+04  0.25971855810E+04  0.50400000000E-02 0.  1.
    8880022    1    1    2    0    0  0.87630627329E+02 -0.21694103099E+04  0.19357030198E+04  0.29127921404E+04  0.15294330000E+03 0.  0.
    8880022    1    1    2    0    0 -0.87630627329E+02  0.21694103099E+04 -0.15469745461E+04  0.26703074952E+04  0.15294330000E+03 0.  0.
<mgrwt>
<rscale>  0 0.21765596E+04</rscale>
<asrwt>0</asrwt>
<pdfrwt beam="1">  1        1 0.45937139E+00 0.21765596E+04</pdfrwt>
<pdfrwt beam="2">  1       -1 0.39956701E+00 0.21765596E+04</pdfrwt>
<totfact> 0.38024709E-03</totfact>
</mgrwt>
</event>
<event>
 4    1  0.2731969E-009  0.1320345E+04  0.7818608E-02  0.9013585E-01
         -1   -1    0    0    0  501 -0.00000000000E+00  0.00000000000E+00  0.12807630216E+04  0.12807630216E+04  0.50400000000E-02 0.  1.
          1   -1    0    0  501    0  0.00000000000E+00 -0.00000000000E+00 -0.30044655104E+04  0.30044655104E+04  0.50400000000E-02 0. -1.
    8880022    1    1    2    0    0  0.49689142604E+03  0.12136795285E+04  0.72275309941E+03  0.15052185166E+04  0.15294330000E+03 0.  0.
    8880022    1    1    2    0    0 -0.49689142604E+03 -0.12136795285E+04 -0.24464555882E+04  0.27800100153E+04  0.15294330000E+03 0.  0.
<mgrwt>
<rscale>  0 0.13203449E+04</rscale>
<asrwt>0</asrwt>
<pdfrwt beam="1">  1        1 0.46222546E+00 0.13203449E+04</pdfrwt>
<pdfrwt beam="2">  1       -1 0.19704047E+00 0.13203449E+04</pdfrwt>
<totfact> 0.91034962E-02</totfact>
</mgrwt>
</event>
<event>
 4    1  0.2731969E-009  0.2598594E+04  0.7818608E-02  0.8368679E-01
         -1   -1    0    0    0  501 -0.00000000000E+00  0.00000000000E+00  0.28180387799E+04  0.28180387799E+04  0.50400000000E-02 0.  1.
          1   -1    0    0  501    0  0.00000000000E+00 -0.00000000000E+00 -0.32873458901E+04  0.32873458901E+04  0.50400000000E-02 0. -1.
    8880022    1    1    2    0    0  0.13191231047E+04  0.22336551207E+04 -0.18240249502E+04  0.31748637192E+04  0.15294330000E+03 0.  0.
    8880022    1    1    2    0    0 -0.13191231047E+04 -0.22336551207E+04  0.13547178401E+04  0.29305209508E+04  0.15294330000E+03 0.  0.
<mgrwt>
<rscale>  0 0.25985944E+04</rscale>
<asrwt>0</asrwt>
<pdfrwt beam="1">  1        1 0.50574552E+00 0.25985944E+04</pdfrwt>
<pdfrwt beam="2">  1       -1 0.43354443E+00 0.25985944E+04</pdfrwt>
<totfact> 0.12596966E-03</totfact>
</mgrwt>
</event>
<event>
 4    1  0.2731969E-009  0.5018617E+03  0.7818608E-02  0.1013294E+00
         -1   -1    0    0    0  501 -0.00000000000E+00  0.00000000000E+00  0.12378657210E+04  0.12378657210E+04  0.50400000000E-02 0.  1.
          1   -1    0    0  501    0  0.00000000000E+00 -0.00000000000E+00 -0.12095455551E+04  0.12095455551E+04  0.50400000000E-02 0. -1.
    8880022    1    1    2    0    0  0.49743501631E+02  0.47539361420E+03  0.11302051547E+04  0.12366199291E+04  0.15294330000E+03 0.  0.
    8880022    1    1    2    0    0 -0.49743501631E+02 -0.47539361420E+03 -0.11018849888E+04  0.12107913470E+04  0.15294330000E+03 0.  0.
<mgrwt>
<rscale>  0 0.50186169E+03</rscale>
<asrwt>0</asrwt>
<pdfrwt beam="1">  1        1 0.18608393E+00 0.50186169E+03</pdfrwt>
<pdfrwt beam="2">  1       -1 0.19044088E+00 0.50186169E+03</pdfrwt>
<totfact> 0.20401705E+00</totfact>
</mgrwt>
</event>
<event>
 4    1  0.2731969E-009  0.6769150E+03  0.7818608E-02  0.9757546E-01
         -1   -1    0    0    0  501 -0.00000000000E+00  0.00000000000E+00  0.43143369645E+03  0.43143369647E+03  0.50400000000E-02 0.  1.
          1   -1    0    0  501    0  0.00000000000E+00 -0.00000000000E+00 -0.14944008585E+04  0.14944008585E+04  0.50400000000E-02 0. -1.
    8880022    1    1    2    0    0 -0.63293705309E+03 -0.18496741085E+03 -0.10494030479E+04  0.12487836747E+04  0.15294330000E+03 0.  0.
    8880022    1    1    2    0    0  0.63293705309E+03  0.18496741085E+03 -0.13564114131E+02  0.67705088026E+03  0.15294330000E+03 0.  0.
<mgrwt>
<rscale>  0 0.67691499E+03</rscale>
<asrwt>0</asrwt>
<pdfrwt beam="1">  1        1 0.22990782E+00 0.67691499E+03</pdfrwt>
<pdfrwt beam="2">  1       -1 0.66374415E-01 0.67691499E+03</pdfrwt>
<totfact> 0.15895648E+01</totfact>
</mgrwt>
</event>
<event>
 4    1  0.2731969E-009  0.3126680E+03  0.7818608E-02  0.1079074E+00
          1   -1    0    0  501    0  0.00000000000E+00  0.00000000000E+00  0.18940220070E+03  0.18940220077E+03  0.50400000000E-02 0. -1.
         -1   -1    0    0    0  501 -0.00000000000E+00 -0.00000000000E+00 -0.12086193983E+04  0.12086193983E+04  0.50400000000E-02 0.  1.
    8880022    1    1    2    0    0 -0.25267910074E+03  0.10258104075E+03 -0.10387079605E+04  0.10847467346E+04  0.15294330000E+03 0.  0.
    8880022    1    1    2    0    0  0.25267910074E+03 -0.10258104075E+03  0.19490762943E+02  0.31327486450E+03  0.15294330000E+03 0. -1.
<mgrwt>
<rscale>  0 0.31266796E+03</rscale>
<asrwt>0</asrwt>
<pdfrwt beam="1">  1        1 0.29138801E-01 0.31266796E+03</pdfrwt>
<pdfrwt beam="2">  1       -1 0.18594144E+00 0.31266796E+03</pdfrwt>
<totfact> 0.32669801E+01</totfact>
</mgrwt>
</event>
<event>
 4    1  0.2731969E-009  0.1141486E+04  0.7818608E-02  0.9165674E-01
         -1   -1    0    0    0  501 -0.00000000000E+00  0.00000000000E+00  0.16258361863E+04  0.16258361863E+04  0.50400000000E-02 0.  1.
          1   -1    0    0  501    0  0.00000000000E+00 -0.00000000000E+00 -0.12525584261E+04  0.12525584261E+04  0.50400000000E-02 0. -1.
    8880022    1    1    2    0    0  0.47404123606E+03 -0.10270753754E+04  0.10503577762E+04  0.15512066372E+04  0.15294330000E+03 0.  0.
    8880022    1    1    2    0    0 -0.47404123606E+03  0.10270753754E+04 -0.67708001608E+03  0.13271879752E+04  0.15294330000E+03 0.  0.
<mgrwt>
<rscale>  0 0.11414861E+04</rscale>
<asrwt>0</asrwt>
<pdfrwt beam="1">  1        1 0.19270130E+00 0.11414861E+04</pdfrwt>
<pdfrwt beam="2">  1       -1 0.25012864E+00 0.11414861E+04</pdfrwt>
<totfact> 0.67327305E-01</totfact>
</mgrwt>
</event>
<event>
 4    1  0.2731969E-009  0.1237745E+04  0.7818608E-02  0.9080445E-01
          1   -1    0    0  501    0  0.00000000000E+00  0.00000000000E+00  0.14288179542E+04  0.14288179542E+04  0.50400000000E-02 0. -1.
         -1   -1    0    0    0  501 -0.00000000000E+00 -0.00000000000E+00 -0.14873847140E+04  0.14873847141E+04  0.50400000000E-02 0.  1.
    8880022    1    1    2    0    0 -0.12190606664E+04 -0.15004234692E+03 -0.79962620482E+03  0.14735723039E+04  0.15294330000E+03 0.  0.
    8880022    1    1    2    0    0  0.12190606664E+04  0.15004234692E+03  0.74105944500E+03  0.14426303644E+04  0.15294330000E+03 0.  0.
<mgrwt>
<rscale>  0 0.12377452E+04</rscale>
<asrwt>0</asrwt>
<pdfrwt beam="1">  1        1 0.21981815E+00 0.12377452E+04</pdfrwt>
<pdfrwt beam="2">  1       -1 0.22882842E+00 0.12377452E+04</pdfrwt>
<totfact> 0.68744078E-01</totfact>
</mgrwt>
</event>
<event>
 4    1  0.2731969E-009  0.6056545E+03  0.7818608E-02  0.9893744E-01
          1   -1    0    0  501    0  0.00000000000E+00  0.00000000000E+00  0.11034093942E+04  0.11034093942E+04  0.50400000000E-02 0. -1.
         -1   -1    0    0    0  501 -0.00000000000E+00 -0.00000000000E+00 -0.18241624740E+04  0.18241624740E+04  0.50400000000E-02 0.  1.
    8880022    1    1    2    0    0 -0.56396414588E+03  0.15928005620E+03  0.96332427671E+03  0.11378976269E+04  0.15294330000E+03 0.  0.
    8880022    1    1    2    0    0  0.56396414588E+03 -0.15928005620E+03 -0.16840773565E+04  0.17896742413E+04  0.15294330000E+03 0.  0.
<mgrwt>
<rscale>  0 0.60565448E+03</rscale>
<asrwt>0</asrwt>
<pdfrwt beam="1">  1        1 0.16975529E+00 0.60565448E+03</pdfrwt>
<pdfrwt beam="2">  1       -1 0.28064038E+00 0.60565448E+03</pdfrwt>
<totfact> 0.60970702E-01</totfact>
</mgrwt>
</event>
<event>
 4    1  0.2731969E-009  0.1007912E+04  0.7818608E-02  0.9299910E-01
         -1   -1    0    0    0  501 -0.00000000000E+00  0.00000000000E+00  0.11084977135E+04  0.11084977135E+04  0.50400000000E-02 0.  1.
          1   -1    0    0  501    0  0.00000000000E+00 -0.00000000000E+00 -0.14882790169E+04  0.14882790169E+04  0.50400000000E-02 0. -1.
    8880022    1    1    2    0    0 -0.98268205961E+03 -0.16380010123E+03  0.61492118761E+03  0.11806837949E+04  0.15294330000E+03 0.  0.
    8880022    1    1    2    0    0  0.98268205961E+03  0.16380010123E+03 -0.99470249106E+03  0.14160929356E+04  0.15294330000E+03 0.  0.
<mgrwt>
<rscale>  0 0.10079118E+04</rscale>
<asrwt>0</asrwt>
<pdfrwt beam="1">  1        1 0.22896600E+00 0.10079118E+04</pdfrwt>
<pdfrwt beam="2">  1       -1 0.17053811E+00 0.10079118E+04</pdfrwt>
<totfact> 0.16329421E+00</totfact>
</mgrwt>
</event>
<event>
 4    1  0.2731969E-009  0.9406729E+03  0.7818608E-02  0.9376119E-01
          1   -1    0    0  501    0  0.00000000000E+00  0.00000000000E+00  0.14216715362E+04  0.14216715362E+04  0.50400000000E-02 0. -1.
         -1   -1    0    0    0  501 -0.00000000000E+00 -0.00000000000E+00 -0.11908941424E+04  0.11908941425E+04  0.50400000000E-02 0.  1.
    8880022    1    1    2    0    0 -0.92606258750E+03 -0.62305091450E+02  0.10179132731E+04  0.13860061057E+04  0.15294330000E+03 0.  0.
    8880022    1    1    2    0    0  0.92606258750E+03  0.62305091450E+02 -0.78713587938E+03  0.12265595730E+04  0.15294330000E+03 0.  0.
<mgrwt>
<rscale>  0 0.94067289E+03</rscale>
<asrwt>0</asrwt>
<pdfrwt beam="1">  1        1 0.21871870E+00 0.94067289E+03</pdfrwt>
<pdfrwt beam="2">  1       -1 0.18321448E+00 0.94067289E+03</pdfrwt>
<totfact> 0.14856069E+00</totfact>
</mgrwt>
</event>
<event>
 4    1  0.2731969E-009  0.6251177E+03  0.7818608E-02  0.9854623E-01
         -1   -1    0    0    0  501 -0.00000000000E+00  0.00000000000E+00  0.25374935133E+03  0.25374935138E+03  0.50400000000E-02 0.  1.
          1   -1    0    0  501    0  0.00000000000E+00 -0.00000000000E+00 -0.32713297520E+04  0.32713297520E+04  0.50400000000E-02 0. -1.
    8880022    1    1    2    0    0  0.86808221136E+02 -0.59987063200E+03 -0.27910249656E+04  0.28601735007E+04  0.15294330000E+03 0.  0.
    8880022    1    1    2    0    0 -0.86808221136E+02  0.59987063200E+03 -0.22655543514E+03  0.66490560277E+03  0.15294330000E+03 0.  0.
<mgrwt>
<rscale>  0 0.62511767E+03</rscale>
<asrwt>0</asrwt>
<pdfrwt beam="1">  1        1 0.50328147E+00 0.62511767E+03</pdfrwt>
<pdfrwt beam="2">  1       -1 0.39038364E-01 0.62511767E+03</pdfrwt>
<totfact> 0.26525242E+00</totfact>
</mgrwt>
</event>
<event>
 4    1  0.2731969E-009  0.1504728E+04  0.7818608E-02  0.8881315E-01
          1   -1    0    0  501    0  0.00000000000E+00  0.00000000000E+00  0.12577069621E+04  0.12577069621E+04  0.50400000000E-02 0. -1.
         -1   -1    0    0    0  501 -0.00000000000E+00 -0.00000000000E+00 -0.28073268418E+04  0.28073268418E+04  0.50400000000E-02 0.  1.
    8880022    1    1    2    0    0  0.44021196917E+03  0.14307442151E+04 -0.19921600637E+04  0.24965794519E+04  0.15294330000E+03 0.  0.
    8880022    1    1    2    0    0 -0.44021196917E+03 -0.14307442151E+04  0.44254018402E+03  0.15684543520E+04  0.15294330000E+03 0.  0.
<mgrwt>
<rscale>  0 0.15047283E+04</rscale>
<asrwt>0</asrwt>
<pdfrwt beam="1">  1        1 0.19349338E+00 0.15047283E+04</pdfrwt>
<pdfrwt beam="2">  1       -1 0.43189644E+00 0.15047283E+04</pdfrwt>
<totfact> 0.39684793E-02</totfact>
</mgrwt>
</event>
<event>
 4    1  0.2731969E-009  0.6917922E+03  0.7818608E-02  0.9731372E-01
          1   -1    0    0  501    0  0.00000000000E+00  0.00000000000E+00  0.25917039692E+04  0.25917039692E+04  0.50400000000E-02 0. -1.
         -1   -1    0    0    0  501 -0.00000000000E+00 -0.00000000000E+00 -0.11296001184E+04  0.11296001184E+04  0.50400000000E-02 0.  1.
    8880022    1    1    2    0    0  0.66757346705E+03 -0.97624182006E+02  0.24328405500E+04  0.25292863835E+04  0.15294330000E+03 0.  0.
    8880022    1    1    2    0    0 -0.66757346705E+03  0.97624182006E+02 -0.97073669922E+03  0.11920177042E+04  0.15294330000E+03 0.  0.
<mgrwt>
<rscale>  0 0.69179221E+03</rscale>
<asrwt>0</asrwt>
<pdfrwt beam="1">  1        1 0.39872369E+00 0.69179221E+03</pdfrwt>
<pdfrwt beam="2">  1       -1 0.17378463E+00 0.69179221E+03</pdfrwt>
<totfact> 0.29530801E-01</totfact>
</mgrwt>
</event>
<event>
 4    1  0.2731969E-009  0.5992110E+03  0.7818608E-02  0.9907044E-01
         -1   -1    0    0    0  501 -0.00000000000E+00  0.00000000000E+00  0.30436042743E+03  0.30436042747E+03  0.50400000000E-02 0.  1.
          1   -1    0    0  501    0  0.00000000000E+00 -0.00000000000E+00 -0.13815622012E+04  0.13815622012E+04  0.50400000000E-02 0. -1.
    8880022    1    1    2    0    0  0.21467923948E+03  0.53812167940E+03 -0.21638220080E+03  0.63708321869E+03  0.15294330000E+03 0.  0.
    8880022    1    1    2    0    0 -0.21467923948E+03 -0.53812167940E+03 -0.86081957297E+03  0.10488394100E+04  0.15294330000E+03 0.  0.
<mgrwt>
<rscale>  0 0.59921096E+03</rscale>
<asrwt>0</asrwt>
<pdfrwt beam="1">  1        1 0.21254803E+00 0.59921096E+03</pdfrwt>
<pdfrwt beam="2">  1       -1 0.46824682E-01 0.59921096E+03</pdfrwt>
<totfact> 0.37751871E+01</totfact>
</mgrwt>
</event>
<event>
 4    1  0.2731969E-009  0.1172198E+04  0.7818608E-02  0.9137546E-01
          1   -1    0    0  501    0  0.00000000000E+00  0.00000000000E+00  0.17430379000E+04  0.17430379000E+04  0.50400000000E-02 0. -1.
         -1   -1    0    0    0  501 -0.00000000000E+00 -0.00000000000E+00 -0.10152930536E+04  0.10152930536E+04  0.50400000000E-02 0.  1.
    8880022    1    1    2    0    0  0.19121501545E+03  0.11463388005E+04 -0.28823790524E+03  0.12071158067E+04  0.15294330000E+03 0.  0.
    8880022    1    1    2    0    0 -0.19121501545E+03 -0.11463388005E+04  0.10159827516E+04  0.15512151470E+04  0.15294330000E+03 0.  0.
<mgrwt>
<rscale>  0 0.11721977E+04</rscale>
<asrwt>0</asrwt>
<pdfrwt beam="1">  1        1 0.26815967E+00 0.11721977E+04</pdfrwt>
<pdfrwt beam="2">  1       -1 0.15619893E+00 0.11721977E+04</pdfrwt>
<totfact> 0.13704400E+00</totfact>
</mgrwt>
</event>
<event>
 4    1  0.2731969E-009  0.1051188E+04  0.7818608E-02  0.9254118E-01
         -1   -1    0    0    0  501 -0.00000000000E+00  0.00000000000E+00  0.21820685710E+04  0.21820685710E+04  0.50400000000E-02 0.  1.
          1   -1    0    0  501    0  0.00000000000E+00 -0.00000000000E+00 -0.76188845563E+03  0.76188845564E+03  0.50400000000E-02 0. -1.
    8880022    1    1    2    0    0  0.72382471130E+03  0.74678152971E+03 -0.14230826271E+03  0.10607771493E+04  0.15294330000E+03 0.  0.
    8880022    1    1    2    0    0 -0.72382471130E+03 -0.74678152971E+03  0.15624883780E+04  0.18831798773E+04  0.15294330000E+03 0.  0.
<mgrwt>
<rscale>  0 0.10511881E+04</rscale>
<asrwt>0</asrwt>
<pdfrwt beam="1">  1        1 0.11721361E+00 0.10511881E+04</pdfrwt>
<pdfrwt beam="2">  1       -1 0.33570286E+00 0.10511881E+04</pdfrwt>
<totfact> 0.46634848E-01</totfact>
</mgrwt>
</event>
<event>
 4    1  0.2731969E-009  0.1342535E+04  0.7818608E-02  0.8996498E-01
         -1   -1    0    0    0  501 -0.00000000000E+00  0.00000000000E+00  0.14926389577E+04  0.14926389578E+04  0.50400000000E-02 0.  1.
          1   -1    0    0  501    0  0.00000000000E+00 -0.00000000000E+00 -0.24690088823E+04  0.24690088823E+04  0.50400000000E-02 0. -1.
    8880022    1    1    2    0    0 -0.93420074526E+03 -0.95198598880E+03  0.92769118670E+03  0.16318734467E+04  0.15294330000E+03 0.  0.
    8880022    1    1    2    0    0  0.93420074526E+03  0.95198598880E+03 -0.19040611113E+04  0.23297743933E+04  0.15294330000E+03 0.  0.
<mgrwt>
<rscale>  0 0.13425349E+04</rscale>
<asrwt>0</asrwt>
<pdfrwt beam="1">  1        1 0.37984752E+00 0.13425349E+04</pdfrwt>
<pdfrwt beam="2">  1       -1 0.22963676E+00 0.13425349E+04</pdfrwt>
<totfact> 0.13031620E-01</totfact>
</mgrwt>
</event>
<event>
 4    1  0.2731969E-009  0.1518619E+04  0.7818608E-02  0.8872165E-01
         -1   -1    0    0    0  501 -0.00000000000E+00  0.00000000000E+00  0.14303578704E+04  0.14303578705E+04  0.50400000000E-02 0.  1.
          1   -1    0    0  501    0  0.00000000000E+00 -0.00000000000E+00 -0.18344407788E+04  0.18344407788E+04  0.50400000000E-02 0. -1.
    8880022    1    1    2    0    0 -0.23874811119E+03 -0.14919150824E+04 -0.77006123789E+03  0.17027029209E+04  0.15294330000E+03 0.  0.
    8880022    1    1    2    0    0  0.23874811119E+03  0.14919150824E+04  0.36597832959E+03  0.15620957283E+04  0.15294330000E+03 0.  0.
<mgrwt>
<rscale>  0 0.15186188E+04</rscale>
<asrwt>0</asrwt>
<pdfrwt beam="1">  1        1 0.28222166E+00 0.15186188E+04</pdfrwt>
<pdfrwt beam="2">  1       -1 0.22005506E+00 0.15186188E+04</pdfrwt>
<totfact> 0.40020989E-01</totfact>
</mgrwt>
</event>
<event>
 4    1  0.2731969E-009  0.2061123E+03  0.7818608E-02  0.1144682E+00
          1   -1    0    0  501    0  0.00000000000E+00  0.00000000000E+00  0.16354187355E+04  0.16354187356E+04  0.50400000000E-02 0. -1.
         -1   -1    0    0    0  501 -0.00000000000E+00 -0.00000000000E+00 -0.23186575163E+03  0.23186575168E+03  0.50400000000E-02 0.  1.
    8880022    1    1    2    0    0 -0.12541782929E+03 -0.57974261920E+02 -0.17801372535E+03  0.27234387523E+03  0.15294330000E+03 0.  0.
    8880022    1    1    2    0    0  0.12541782929E+03  0.57974261920E+02  0.15815667093E+04  0.15949406120E+04  0.15294330000E+03 0. -1.
<mgrwt>
<rscale>  0 0.20611235E+03</rscale>
<asrwt>0</asrwt>
<pdfrwt beam="1">  1        1 0.25160288E+00 0.20611235E+03</pdfrwt>
<pdfrwt beam="2">  1       -1 0.35671655E-01 0.20611235E+03</pdfrwt>
<totfact> 0.45773799E+01</totfact>
</mgrwt>
</event>
<event>
 4    1  0.2731969E-009  0.6000154E+03  0.7818608E-02  0.9905374E-01
          1   -1    0    0  501    0  0.00000000000E+00  0.00000000000E+00  0.46557596364E+03  0.46557596367E+03  0.50400000000E-02 0. -1.
         -1   -1    0    0    0  501 -0.00000000000E+00 -0.00000000000E+00 -0.15579776842E+04  0.15579776842E+04  0.50400000000E-02 0.  1.
    8880022    1    1    2    0    0  0.44178793579E+03 -0.37609871301E+03  0.17185221737E+03  0.62414073715E+03  0.15294330000E+03 0.  0.
    8880022    1    1    2    0    0 -0.44178793579E+03  0.37609871301E+03 -0.12642539379E+04  0.13994129107E+04  0.15294330000E+03 0.  1.
<mgrwt>
<rscale>  0 0.60001540E+03</rscale>
<asrwt>0</asrwt>
<pdfrwt beam="1">  1        1 0.71627072E-01 0.60001540E+03</pdfrwt>
<pdfrwt beam="2">  1       -1 0.23968887E+00 0.60001540E+03</pdfrwt>
<totfact> 0.42456950E+00</totfact>
</mgrwt>
</event>
<event>
 4    1  0.2731969E-009  0.5360069E+03  0.7818608E-02  0.1004786E+00
         -1   -1    0    0    0  501 -0.00000000000E+00  0.00000000000E+00  0.75070093728E+03  0.75070093730E+03  0.50400000000E-02 0.  1.
          1   -1    0    0  501    0  0.00000000000E+00 -0.00000000000E+00 -0.54303973182E+03  0.54303973184E+03  0.50400000000E-02 0. -1.
    8880022    1    1    2    0    0 -0.31670075288E+03  0.40449029734E+03 -0.24765185707E+03  0.59045309961E+03  0.15294330000E+03 0.  0.
    8880022    1    1    2    0    0  0.31670075288E+03 -0.40449029734E+03  0.45531306254E+03  0.70328756953E+03  0.15294330000E+03 0.  0.
<mgrwt>
<rscale>  0 0.53600692E+03</rscale>
<asrwt>0</asrwt>
<pdfrwt beam="1">  1        1 0.83544575E-01 0.53600692E+03</pdfrwt>
<pdfrwt beam="2">  1       -1 0.11549245E+00 0.53600692E+03</pdfrwt>
<totfact> 0.28194926E+01</totfact>
</mgrwt>
</event>
<event>
 4    1  0.2731969E-009  0.1396859E+04  0.7818608E-02  0.8956095E-01
          1   -1    0    0  501    0  0.00000000000E+00  0.00000000000E+00  0.17663833591E+04  0.17663833591E+04  0.50400000000E-02 0. -1.
         -1   -1    0    0    0  501 -0.00000000000E+00 -0.00000000000E+00 -0.12211814894E+04  0.12211814895E+04  0.50400000000E-02 0.  1.
    8880022    1    1    2    0    0 -0.90769764779E+03  0.10506704495E+04 -0.18886570822E+03  0.14095691973E+04  0.15294330000E+03 0.  0.
    8880022    1    1    2    0    0  0.90769764779E+03 -0.10506704495E+04  0.73406757789E+03  0.15779956512E+04  0.15294330000E+03 0.  0.
<mgrwt>
<rscale>  0 0.13968590E+04</rscale>
<asrwt>0</asrwt>
<pdfrwt beam="1">  1        1 0.27175129E+00 0.13968590E+04</pdfrwt>
<pdfrwt beam="2">  1       -1 0.18787407E+00 0.13968590E+04</pdfrwt>
<totfact> 0.75213094E-01</totfact>
</mgrwt>
</event>
<event>
 4    1  0.2731969E-009  0.6103486E+03  0.7818608E-02  0.9884166E-01
         -1   -1    0    0    0  501 -0.00000000000E+00  0.00000000000E+00  0.48273261174E+03  0.48273261177E+03  0.50400000000E-02 0.  1.
          1   -1    0    0  501    0  0.00000000000E+00 -0.00000000000E+00 -0.26109292689E+04  0.26109292689E+04  0.50400000000E-02 0. -1.
    8880022    1    1    2    0    0  0.35919578374E+03  0.46916117246E+03  0.23416579931E+03  0.65372707713E+03  0.15294330000E+03 0.  0.
    8880022    1    1    2    0    0 -0.35919578374E+03 -0.46916117246E+03 -0.23623624565E+04  0.24399348036E+04  0.15294330000E+03 0.  0.
<mgrwt>
<rscale>  0 0.61034865E+03</rscale>
<asrwt>0</asrwt>
<pdfrwt beam="1">  1        1 0.40168142E+00 0.61034865E+03</pdfrwt>
<pdfrwt beam="2">  1       -1 0.74266557E-01 0.61034865E+03</pdfrwt>
<totfact> 0.22756769E+00</totfact>
</mgrwt>
</event>
<event>
 4    1  0.2731969E-009  0.1162814E+04  0.7818608E-02  0.9146042E-01
         -1   -1    0    0    0  501 -0.00000000000E+00  0.00000000000E+00  0.17894822911E+04  0.17894822911E+04  0.50400000000E-02 0.  1.
          1   -1    0    0  501    0  0.00000000000E+00 -0.00000000000E+00 -0.10647450323E+04  0.10647450323E+04  0.50400000000E-02 0. -1.
    8880022    1    1    2    0    0  0.57228509458E+03 -0.10006175126E+04 -0.40661152879E+03  0.12318564139E+04  0.15294330000E+03 0.  0.
    8880022    1    1    2    0    0 -0.57228509458E+03  0.10006175126E+04  0.11313487875E+04  0.16223709095E+04  0.15294330000E+03 0.  0.
<mgrwt>
<rscale>  0 0.11628144E+04</rscale>
<asrwt>0</asrwt>
<pdfrwt beam="1">  1        1 0.16380693E+00 0.11628144E+04</pdfrwt>
<pdfrwt beam="2">  1       -1 0.27530497E+00 0.11628144E+04</pdfrwt>
<totfact> 0.63594881E-01</totfact>
</mgrwt>
</event>
<event>
 4    1  0.2731969E-009  0.4622838E+03  0.7818608E-02  0.1024121E+00
         -1   -1    0    0    0  501 -0.00000000000E+00  0.00000000000E+00  0.49363997356E+03  0.49363997358E+03  0.50400000000E-02 0.  1.
          1   -1    0    0  501    0  0.00000000000E+00 -0.00000000000E+00 -0.11952571564E+04  0.11952571564E+04  0.50400000000E-02 0. -1.
    8880022    1    1    2    0    0  0.33966794072E+03 -0.27375228053E+03 -0.10252065822E+04  0.11246131825E+04  0.15294330000E+03 0.  0.
    8880022    1    1    2    0    0 -0.33966794072E+03  0.27375228053E+03  0.32358939934E+03  0.56428394752E+03  0.15294330000E+03 0.  0.
<mgrwt>
<rscale>  0 0.46228376E+03</rscale>
<asrwt>0</asrwt>
<pdfrwt beam="1">  1        1 0.18388572E+00 0.46228376E+03</pdfrwt>
<pdfrwt beam="2">  1       -1 0.75944612E-01 0.46228376E+03</pdfrwt>
<totfact> 0.20263091E+01</totfact>
</mgrwt>
</event>
<event>
 4    1  0.2731969E-009  0.1035161E+04  0.7818608E-02  0.9270800E-01
          1   -1    0    0  501    0  0.00000000000E+00  0.00000000000E+00  0.24320777860E+04  0.24320777860E+04  0.50400000000E-02 0. -1.
         -1   -1    0    0    0  501 -0.00000000000E+00 -0.00000000000E+00 -0.74947597785E+03  0.74947597787E+03  0.50400000000E-02 0.  1.
    8880022    1    1    2    0    0  0.25947841764E+03 -0.99037244003E+03  0.18625386837E+04  0.21308703904E+04  0.15294330000E+03 0. -1.
    8880022    1    1    2    0    0 -0.25947841764E+03  0.99037244003E+03 -0.17993687556E+03  0.10506833735E+04  0.15294330000E+03 0.  0.
<mgrwt>
<rscale>  0 0.10351610E+04</rscale>
<asrwt>0</asrwt>
<pdfrwt beam="1">  1        1 0.37416581E+00 0.10351610E+04</pdfrwt>
<pdfrwt beam="2">  1       -1 0.11530400E+00 0.10351610E+04</pdfrwt>
<totfact> 0.10417698E+00</totfact>
</mgrwt>
</event>
<event>
 4    1  0.2731969E-009  0.6417650E+03  0.7818608E-02  0.9822355E-01
          1   -1    0    0  501    0  0.00000000000E+00  0.00000000000E+00  0.26741526589E+04  0.26741526589E+04  0.50400000000E-02 0. -1.
         -1   -1    0    0    0  501 -0.00000000000E+00 -0.00000000000E+00 -0.49278133663E+03  0.49278133665E+03  0.50400000000E-02 0.  1.
    8880022    1    1    2    0    0 -0.48122719400E+03  0.39609471386E+03  0.24035848367E+04  0.24877866378E+04  0.15294330000E+03 0.  0.
    8880022    1    1    2    0    0  0.48122719400E+03 -0.39609471386E+03 -0.22221351446E+03  0.67914735781E+03  0.15294330000E+03 0.  0.
<mgrwt>
<rscale>  0 0.64176498E+03</rscale>
<asrwt>0</asrwt>
<pdfrwt beam="1">  1        1 0.41140810E+00 0.64176498E+03</pdfrwt>
<pdfrwt beam="2">  1       -1 0.75812514E-01 0.64176498E+03</pdfrwt>
<totfact> 0.19574439E+00</totfact>
</mgrwt>
</event>
<event>
 4    1  0.2731969E-009  0.1054866E+04  0.7818608E-02  0.9250335E-01
          1   -1    0    0  501    0  0.00000000000E+00  0.00000000000E+00  0.22425520177E+04  0.22425520177E+04  0.50400000000E-02 0. -1.
         -1   -1    0    0    0  501 -0.00000000000E+00 -0.00000000000E+00 -0.15217030906E+04  0.15217030906E+04  0.50400000000E-02 0.  1.
    8880022    1    1    2    0    0 -0.75931633569E+03  0.71609237996E+03  0.19055145703E+04  0.21780098771E+04  0.15294330000E+03 0.  0.
    8880022    1    1    2    0    0  0.75931633569E+03 -0.71609237996E+03 -0.11846656432E+04  0.15862452312E+04  0.15294330000E+03 0.  0.
<mgrwt>
<rscale>  0 0.10548655E+04</rscale>
<asrwt>0</asrwt>
<pdfrwt beam="1">  1        1 0.34500800E+00 0.10548655E+04</pdfrwt>
<pdfrwt beam="2">  1       -1 0.23410817E+00 0.10548655E+04</pdfrwt>
<totfact> 0.18213051E-01</totfact>
</mgrwt>
</event>
<event>
 4    1  0.2731969E-009  0.6240219E+03  0.7818608E-02  0.9856785E-01
         -1   -1    0    0    0  501 -0.00000000000E+00  0.00000000000E+00  0.18372930536E+04  0.18372930536E+04  0.50400000000E-02 0.  1.
          1   -1    0    0  501    0  0.00000000000E+00 -0.00000000000E+00 -0.29454343779E+03  0.29454343783E+03  0.50400000000E-02 0. -1.
    8880022    1    1    2    0    0  0.24737252400E+03 -0.55210372146E+03  0.13358405959E+04  0.14744061298E+04  0.15294330000E+03 0.  0.
    8880022    1    1    2    0    0 -0.24737252400E+03  0.55210372146E+03  0.20690901990E+03  0.65743036165E+03  0.15294330000E+03 0.  0.
<mgrwt>
<rscale>  0 0.62402190E+03</rscale>
<asrwt>0</asrwt>
<pdfrwt beam="1">  1        1 0.45314376E-01 0.62402190E+03</pdfrwt>
<pdfrwt beam="2">  1       -1 0.28266047E+00 0.62402190E+03</pdfrwt>
<totfact> 0.40939738E+00</totfact>
</mgrwt>
</event>
<event>
 4    1  0.2731969E-009  0.9897415E+03  0.7818608E-02  0.9319868E-01
          1   -1    0    0  501    0  0.00000000000E+00  0.00000000000E+00  0.15534033642E+04  0.15534033642E+04  0.50400000000E-02 0. -1.
         -1   -1    0    0    0  501 -0.00000000000E+00 -0.00000000000E+00 -0.72230547464E+03  0.72230547465E+03  0.50400000000E-02 0.  1.
    8880022    1    1    2    0    0 -0.93302540452E+03  0.29267747948E+03  0.10128561217E+02  0.98979328813E+03  0.15294330000E+03 0.  0.
    8880022    1    1    2    0    0  0.93302540452E+03 -0.29267747948E+03  0.82096932830E+03  0.12859155507E+04  0.15294330000E+03 0.  0.
<mgrwt>
<rscale>  0 0.98974146E+03</rscale>
<asrwt>0</asrwt>
<pdfrwt beam="1">  1        1 0.23898513E+00 0.98974146E+03</pdfrwt>
<pdfrwt beam="2">  1       -1 0.11112392E+00 0.98974146E+03</pdfrwt>
<totfact> 0.45087026E+00</totfact>
</mgrwt>
</event>
<event>
 4    1  0.2731969E-009  0.2158393E+03  0.7818608E-02  0.1137024E+00
         -1   -1    0    0    0  501 -0.00000000000E+00  0.00000000000E+00  0.24350912830E+03  0.24350912835E+03  0.50400000000E-02 0.  1.
          1   -1    0    0  501    0  0.00000000000E+00 -0.00000000000E+00 -0.29974505919E+04  0.29974505919E+04  0.50400000000E-02 0. -1.
    8880022    1    1    2    0    0  0.37314670152E+02 -0.14765690226E+03 -0.29448840847E+04  0.29527832414E+04  0.15294330000E+03 0. -1.
    8880022    1    1    2    0    0 -0.37314670152E+02  0.14765690226E+03  0.19094262111E+03  0.28817647885E+03  0.15294330000E+03 0.  0.
<mgrwt>
<rscale>  0 0.21583929E+03</rscale>
<asrwt>0</asrwt>
<pdfrwt beam="1">  1        1 0.46114622E+00 0.21583929E+03</pdfrwt>
<pdfrwt beam="2">  1       -1 0.37462945E-01 0.21583929E+03</pdfrwt>
<totfact> 0.52893251E+00</totfact>
</mgrwt>
</event>
<event>
 4    1  0.2731969E-009  0.1184488E+04  0.7818608E-02  0.9126543E-01
         -1   -1    0    0    0  501 -0.00000000000E+00  0.00000000000E+00  0.98374763125E+03  0.98374763126E+03  0.50400000000E-02 0.  1.
          1   -1    0    0  501    0  0.00000000000E+00 -0.00000000000E+00 -0.16976655225E+04  0.16976655225E+04  0.50400000000E-02 0. -1.
    8880022    1    1    2    0    0 -0.82299067733E+03  0.83803793563E+03  0.17917277797E+03  0.11979631772E+04  0.15294330000E+03 0.  0.
    8880022    1    1    2    0    0  0.82299067733E+03 -0.83803793563E+03 -0.89309066919E+03  0.14834499765E+04  0.15294330000E+03 0.  0.
<mgrwt>
<rscale>  0 0.11844885E+04</rscale>
<asrwt>0</asrwt>
<pdfrwt beam="1">  1        1 0.26117931E+00 0.11844885E+04</pdfrwt>
<pdfrwt beam="2">  1       -1 0.15134579E+00 0.11844885E+04</pdfrwt>
<totfact> 0.16018210E+00</totfact>
</mgrwt>
</event>
<event>
 4    1  0.2731969E-009  0.7032392E+03  0.7818608E-02  0.9711709E-01
          1   -1    0    0  501    0  0.00000000000E+00  0.00000000000E+00  0.13234754987E+04  0.13234754987E+04  0.50400000000E-02 0. -1.
         -1   -1    0    0    0  501 -0.00000000000E+00 -0.00000000000E+00 -0.65723548793E+03  0.65723548795E+03  0.50400000000E-02 0.  1.
    8880022    1    1    2    0    0 -0.66714293630E+03  0.16147471394E+03 -0.31739293800E+03  0.77154631151E+03  0.15294330000E+03 0.  0.
    8880022    1    1    2    0    0  0.66714293630E+03 -0.16147471394E+03  0.98363294877E+03  0.12091646751E+04  0.15294330000E+03 0.  0.
<mgrwt>
<rscale>  0 0.70323924E+03</rscale>
<asrwt>0</asrwt>
<pdfrwt beam="1">  1        1 0.20361161E+00 0.70323924E+03</pdfrwt>
<pdfrwt beam="2">  1       -1 0.10111315E+00 0.70323924E+03</pdfrwt>
<totfact> 0.84467069E+00</totfact>
</mgrwt>
</event>
<event>
 4    1  0.2731969E-009  0.5667934E+03  0.7818608E-02  0.9976800E-01
          1   -1    0    0  501    0  0.00000000000E+00  0.00000000000E+00  0.27238972109E+04  0.27238972109E+04  0.50400000000E-02 0. -1.
         -1   -1    0    0    0  501 -0.00000000000E+00 -0.00000000000E+00 -0.24195645650E+03  0.24195645655E+03  0.50400000000E-02 0.  1.
    8880022    1    1    2    0    0  0.75594939666E+02 -0.54050761662E+03  0.17929469107E+03  0.59447566627E+03  0.15294330000E+03 0.  0.
    8880022    1    1    2    0    0 -0.75594939666E+02  0.54050761662E+03  0.23026460634E+04  0.23713780012E+04  0.15294330000E+03 0.  0.
<mgrwt>
<rscale>  0 0.56679338E+03</rscale>
<asrwt>0</asrwt>
<pdfrwt beam="1">  1        1 0.41906111E+00 0.56679338E+03</pdfrwt>
<pdfrwt beam="2">  1       -1 0.37224070E-01 0.56679338E+03</pdfrwt>
<totfact> 0.72101224E+00</totfact>
</mgrwt>
</event>
<event>
 4    1  0.2731969E-009  0.9303586E+03  0.7818608E-02  0.9388408E-01
         -1   -1    0    0    0  501 -0.00000000000E+00  0.00000000000E+00  0.20942503894E+04  0.20942503894E+04  0.50400000000E-02 0.  1.
          1   -1    0    0  501    0  0.00000000000E+00 -0.00000000000E+00 -0.73096796537E+03  0.73096796539E+03  0.50400000000E-02 0. -1.
    8880022    1    1    2    0    0  0.55418154838E+03 -0.73147678119E+03  0.16128673899E+04  0.18619635712E+04  0.15294330000E+03 0.  0.
    8880022    1    1    2    0    0 -0.55418154838E+03  0.73147678119E+03 -0.24958496586E+03  0.96325478363E+03  0.15294330000E+03 0.  0.
<mgrwt>
<rscale>  0 0.93035860E+03</rscale>
<asrwt>0</asrwt>
<pdfrwt beam="1">  1        1 0.11245661E+00 0.93035860E+03</pdfrwt>
<pdfrwt beam="2">  1       -1 0.32219236E+00 0.93035860E+03</pdfrwt>
<totfact> 0.62058125E-01</totfact>
</mgrwt>
</event>
<event>
 4    1  0.2731969E-009  0.9782227E+03  0.7818608E-02  0.9332758E-01
          1   -1    0    0  501    0  0.00000000000E+00  0.00000000000E+00  0.11442496004E+04  0.11442496004E+04  0.50400000000E-02 0. -1.
         -1   -1    0    0    0  501 -0.00000000000E+00 -0.00000000000E+00 -0.22446842996E+04  0.22446842996E+04  0.50400000000E-02 0.  1.
    8880022    1    1    2    0    0  0.95096989907E+03 -0.17083369587E+03 -0.18924205302E+04  0.21302992786E+04  0.15294330000E+03 0.  0.
    8880022    1    1    2    0    0 -0.95096989907E+03  0.17083369587E+03  0.79198583101E+03  0.12586346214E+04  0.15294330000E+03 0.  0.
<mgrwt>
<rscale>  0 0.97822265E+03</rscale>
<asrwt>0</asrwt>
<pdfrwt beam="1">  1        1 0.17603840E+00 0.97822265E+03</pdfrwt>
<pdfrwt beam="2">  1       -1 0.34533605E+00 0.97822265E+03</pdfrwt>
<totfact> 0.20081574E-01</totfact>
</mgrwt>
</event>
<event>
 4    1  0.2731969E-009  0.2140872E+03  0.7818608E-02  0.1138370E+00
          1   -1    0    0  501    0  0.00000000000E+00  0.00000000000E+00  0.49441940460E+03  0.49441940462E+03  0.50400000000E-02 0. -1.
         -1   -1    0    0    0  501 -0.00000000000E+00 -0.00000000000E+00 -0.41545572740E+03  0.41545572743E+03  0.50400000000E-02 0.  1.
    8880022    1    1    2    0    0  0.14502207573E+03 -0.37553578224E+02  0.44046443327E+03  0.48973691272E+03  0.15294330000E+03 0.  0.
    8880022    1    1    2    0    0 -0.14502207573E+03  0.37553578224E+02 -0.36150075607E+03  0.42013821933E+03  0.15294330000E+03 0.  1.
<mgrwt>
<rscale>  0 0.21408719E+03</rscale>
<asrwt>0</asrwt>
<pdfrwt beam="1">  1        1 0.76064523E-01 0.21408719E+03</pdfrwt>
<pdfrwt beam="2">  1       -1 0.63916266E-01 0.21408719E+03</pdfrwt>
<totfact> 0.12040821E+02</totfact>
</mgrwt>
</event>
<event>
 4    1  0.2731969E-009  0.5408235E+03  0.7818608E-02  0.1003641E+00
          1   -1    0    0  501    0  0.00000000000E+00  0.00000000000E+00  0.37429523483E+03  0.37429523487E+03  0.50400000000E-02 0. -1.
         -1   -1    0    0    0  501 -0.00000000000E+00 -0.00000000000E+00 -0.19940087755E+04  0.19940087755E+04  0.50400000000E-02 0.  1.
    8880022    1    1    2    0    0  0.32297362859E+03  0.40593890437E+03  0.11355787183E+03  0.55261686738E+03  0.15294330000E+03 0.  0.
    8880022    1    1    2    0    0 -0.32297362859E+03 -0.40593890437E+03 -0.17332714125E+04  0.18156871430E+04  0.15294330000E+03 0.  1.
<mgrwt>
<rscale>  0 0.54082346E+03</rscale>
<asrwt>0</asrwt>
<pdfrwt beam="1">  1        1 0.57583883E-01 0.54082346E+03</pdfrwt>
<pdfrwt beam="2">  1       -1 0.30677057E+00 0.54082346E+03</pdfrwt>
<totfact> 0.21440139E+00</totfact>
</mgrwt>
</event>
<event>
 4    1  0.2731969E-009  0.8823925E+03  0.7818608E-02  0.9447863E-01
          1   -1    0    0  501    0  0.00000000000E+00  0.00000000000E+00  0.60913259689E+03  0.60913259691E+03  0.50400000000E-02 0. -1.
         -1   -1    0    0    0  501 -0.00000000000E+00 -0.00000000000E+00 -0.13405632989E+04  0.13405632990E+04  0.50400000000E-02 0.  1.
    8880022    1    1    2    0    0  0.86695424502E+03 -0.60126308604E+02 -0.57591165771E+03  0.10537033389E+04  0.15294330000E+03 0.  0.
    8880022    1    1    2    0    0 -0.86695424502E+03  0.60126308604E+02 -0.15551904434E+03  0.89599255695E+03  0.15294330000E+03 0.  0.
<mgrwt>
<rscale>  0 0.88239248E+03</rscale>
<asrwt>0</asrwt>
<pdfrwt beam="1">  1        1 0.93712707E-01 0.88239248E+03</pdfrwt>
<pdfrwt beam="2">  1       -1 0.20624051E+00 0.88239248E+03</pdfrwt>
<totfact> 0.46532173E+00</totfact>
</mgrwt>
</event>
<event>
 4    1  0.2731969E-009  0.6521740E+03  0.7818608E-02  0.9802708E-01
          1   -1    0    0  501    0  0.00000000000E+00  0.00000000000E+00  0.58481587157E+03  0.58481587160E+03  0.50400000000E-02 0. -1.
         -1   -1    0    0    0  501 -0.00000000000E+00 -0.00000000000E+00 -0.73483711100E+03  0.73483711102E+03  0.50400000000E-02 0.  1.
    8880022    1    1    2    0    0  0.60999430668E+03 -0.17276043223E+03 -0.81427106336E+01  0.65222479091E+03  0.15294330000E+03 0.  0.
    8880022    1    1    2    0    0 -0.60999430668E+03  0.17276043223E+03 -0.14187852880E+03  0.66742819170E+03  0.15294330000E+03 0.  0.
<mgrwt>
<rscale>  0 0.65217396E+03</rscale>
<asrwt>0</asrwt>
<pdfrwt beam="1">  1        1 0.89971673E-01 0.65217396E+03</pdfrwt>
<pdfrwt beam="2">  1       -1 0.11305186E+00 0.65217396E+03</pdfrwt>
<totfact> 0.26331116E+01</totfact>
</mgrwt>
</event>
<event>
 4    1  0.2731969E-009  0.8102578E+03  0.7818608E-02  0.9545287E-01
         -1   -1    0    0    0  501 -0.00000000000E+00  0.00000000000E+00  0.62343664326E+03  0.62343664328E+03  0.50400000000E-02 0.  1.
          1   -1    0    0  501    0  0.00000000000E+00 -0.00000000000E+00 -0.11250683328E+04  0.11250683328E+04  0.50400000000E-02 0. -1.
    8880022    1    1    2    0    0  0.52143246216E+03  0.60102763722E+03 -0.29643117010E+02  0.81079985243E+03  0.15294330000E+03 0.  0.
    8880022    1    1    2    0    0 -0.52143246216E+03 -0.60102763722E+03 -0.47198857250E+03  0.93770512363E+03  0.15294330000E+03 0.  1.
<mgrwt>
<rscale>  0 0.81025779E+03</rscale>
<asrwt>0</asrwt>
<pdfrwt beam="1">  1        1 0.17308744E+00 0.81025779E+03</pdfrwt>
<pdfrwt beam="2">  1       -1 0.95913329E-01 0.81025779E+03</pdfrwt>
<totfact> 0.13034115E+01</totfact>
</mgrwt>
</event>
<event>
 4    1  0.2731969E-009  0.8036259E+03  0.7818608E-02  0.9554783E-01
          1   -1    0    0  501    0  0.00000000000E+00  0.00000000000E+00  0.76688544011E+03  0.76688544012E+03  0.50400000000E-02 0. -1.
         -1   -1    0    0    0  501 -0.00000000000E+00 -0.00000000000E+00 -0.17411130827E+04  0.17411130828E+04  0.50400000000E-02 0.  1.
    8880022    1    1    2    0    0 -0.51287205452E+03 -0.59948748973E+03  0.41395998676E+03  0.90397871562E+03  0.15294330000E+03 0.  0.
    8880022    1    1    2    0    0  0.51287205452E+03  0.59948748973E+03 -0.13881876294E+04  0.16040198073E+04  0.15294330000E+03 0.  0.
<mgrwt>
<rscale>  0 0.80362594E+03</rscale>
<asrwt>0</asrwt>
<pdfrwt beam="1">  1        1 0.11798238E+00 0.80362594E+03</pdfrwt>
<pdfrwt beam="2">  1       -1 0.26786355E+00 0.80362594E+03</pdfrwt>
<totfact> 0.13132455E+00</totfact>
</mgrwt>
</event>
<event>
 4    1  0.2731969E-009  0.2412698E+03  0.7818608E-02  0.1118950E+00
          1   -1    0    0  501    0  0.00000000000E+00  0.00000000000E+00  0.25778514570E+03  0.25778514575E+03  0.50400000000E-02 0. -1.
         -1   -1    0    0    0  501 -0.00000000000E+00 -0.00000000000E+00 -0.11322315043E+04  0.11322315043E+04  0.50400000000E-02 0.  1.
    8880022    1    1    2    0    0 -0.10632850609E+03  0.15334186385E+03 -0.10590749409E+04  0.10862094006E+04  0.15294330000E+03 0.  0.
    8880022    1    1    2    0    0  0.10632850609E+03 -0.15334186385E+03  0.18462858231E+03  0.30380724949E+03  0.15294330000E+03 0. -1.
<mgrwt>
<rscale>  0 0.24126983E+03</rscale>
<asrwt>0</asrwt>
<pdfrwt beam="1">  1        1 0.39659254E-01 0.24126983E+03</pdfrwt>
<pdfrwt beam="2">  1       -1 0.17418946E+00 0.24126983E+03</pdfrwt>
<totfact> 0.27196615E+01</totfact>
</mgrwt>
</event>
<event>
 4    1  0.2731969E-009  0.4792414E+03  0.7818608E-02  0.1019344E+00
         -1   -1    0    0    0  501 -0.00000000000E+00  0.00000000000E+00  0.41037732177E+03  0.41037732180E+03  0.50400000000E-02 0.  1.
          1   -1    0    0  501    0  0.00000000000E+00 -0.00000000000E+00 -0.19742534952E+04  0.19742534952E+04  0.50400000000E-02 0. -1.
    8880022    1    1    2    0    0 -0.27681685641E+03  0.36007367840E+03 -0.17912033764E+04  0.18542065188E+04  0.15294330000E+03 0.  0.
    8880022    1    1    2    0    0  0.27681685641E+03 -0.36007367840E+03  0.22732720296E+03  0.53042429817E+03  0.15294330000E+03 0.  0.
<mgrwt>
<rscale>  0 0.47924136E+03</rscale>
<asrwt>0</asrwt>
<pdfrwt beam="1">  1        1 0.30373130E+00 0.47924136E+03</pdfrwt>
<pdfrwt beam="2">  1       -1 0.63134973E-01 0.47924136E+03</pdfrwt>
<totfact> 0.87305739E+00</totfact>
</mgrwt>
</event>
<event>
 4    1  0.2731969E-009  0.9004796E+03  0.7818608E-02  0.9424982E-01
         -1   -1    0    0    0  501 -0.00000000000E+00  0.00000000000E+00  0.49950209863E+03  0.49950209866E+03  0.50400000000E-02 0.  1.
          1   -1    0    0  501    0  0.00000000000E+00 -0.00000000000E+00 -0.30855516189E+04  0.30855516189E+04  0.50400000000E-02 0. -1.
    8880022    1    1    2    0    0  0.13983731662E+03  0.87630896768E+03 -0.25269926091E+04  0.26826395922E+04  0.15294330000E+03 0.  0.
    8880022    1    1    2    0    0 -0.13983731662E+03 -0.87630896768E+03 -0.59056911169E+02  0.90241412541E+03  0.15294330000E+03 0.  0.
<mgrwt>
<rscale>  0 0.90047961E+03</rscale>
<asrwt>0</asrwt>
<pdfrwt beam="1">  1        1 0.47470024E+00 0.90047961E+03</pdfrwt>
<pdfrwt beam="2">  1       -1 0.76846479E-01 0.90047961E+03</pdfrwt>
<totfact> 0.92103560E-01</totfact>
</mgrwt>
</event>
<event>
 4    1  0.2731969E-009  0.8335502E+03  0.7818608E-02  0.9512685E-01
          1   -1    0    0  501    0  0.00000000000E+00  0.00000000000E+00  0.11840939104E+04  0.11840939104E+04  0.50400000000E-02 0. -1.
         -1   -1    0    0    0  501 -0.00000000000E+00 -0.00000000000E+00 -0.12038928025E+04  0.12038928025E+04  0.50400000000E-02 0.  1.
    8880022    1    1    2    0    0 -0.76374844489E+03  0.29682069493E+03  0.84494937401E+03  0.11869057712E+04  0.15294330000E+03 0.  0.
    8880022    1    1    2    0    0  0.76374844489E+03 -0.29682069493E+03 -0.86474826607E+03  0.12010809418E+04  0.15294330000E+03 0.  0.
<mgrwt>
<rscale>  0 0.83355016E+03</rscale>
<asrwt>0</asrwt>
<pdfrwt beam="1">  1        1 0.18216829E+00 0.83355016E+03</pdfrwt>
<pdfrwt beam="2">  1       -1 0.18521428E+00 0.83355016E+03</pdfrwt>
<totfact> 0.21576197E+00</totfact>
</mgrwt>
</event>
<event>
 4    1  0.2731969E-009  0.6069142E+03  0.7818608E-02  0.9891164E-01
         -1   -1    0    0    0  501 -0.00000000000E+00  0.00000000000E+00  0.50491189322E+03  0.50491189324E+03  0.50400000000E-02 0.  1.
          1   -1    0    0  501    0  0.00000000000E+00 -0.00000000000E+00 -0.17966428132E+04  0.17966428132E+04  0.50400000000E-02 0. -1.
    8880022    1    1    2    0    0 -0.21533565695E+03  0.54642820223E+03  0.24101892855E+03  0.65301990956E+03  0.15294330000E+03 0.  0.
    8880022    1    1    2    0    0  0.21533565695E+03 -0.54642820223E+03 -0.15327498485E+04  0.16485347969E+04  0.15294330000E+03 0.  0.
<mgrwt>
<rscale>  0 0.60691423E+03</rscale>
<asrwt>0</asrwt>
<pdfrwt beam="1">  1        1 0.27640658E+00 0.60691423E+03</pdfrwt>
<pdfrwt beam="2">  1       -1 0.77678754E-01 0.60691423E+03</pdfrwt>
<totfact> 0.72918640E+00</totfact>
</mgrwt>
</event>
<event>
 4    1  0.2731969E-009  0.5240176E+03  0.7818608E-02  0.1007693E+00
         -1   -1    0    0    0  501 -0.00000000000E+00  0.00000000000E+00  0.75123134240E+03  0.75123134242E+03  0.50400000000E-02 0.  1.
          1   -1    0    0  501    0  0.00000000000E+00 -0.00000000000E+00 -0.11661868087E+04  0.11661868087E+04  0.50400000000E-02 0. -1.
    8880022    1    1    2    0    0  0.36033963200E+03  0.34836495873E+03 -0.10018555579E+04  0.11306232824E+04  0.15294330000E+03 0.  0.
    8880022    1    1    2    0    0 -0.36033963200E+03 -0.34836495873E+03  0.58690009161E+03  0.78679486869E+03  0.15294330000E+03 0.  0.
<mgrwt>
<rscale>  0 0.52401760E+03</rscale>
<asrwt>0</asrwt>
<pdfrwt beam="1">  1        1 0.17941336E+00 0.52401760E+03</pdfrwt>
<pdfrwt beam="2">  1       -1 0.11557405E+00 0.52401760E+03</pdfrwt>
<totfact> 0.82718563E+00</totfact>
</mgrwt>
</event>
<event>
 4    1  0.2731969E-009  0.1119145E+04  0.7818608E-02  0.9186731E-01
          1   -1    0    0  501    0  0.00000000000E+00  0.00000000000E+00  0.19840974929E+04  0.19840974929E+04  0.50400000000E-02 0. -1.
         -1   -1    0    0    0  501 -0.00000000000E+00 -0.00000000000E+00 -0.89268786863E+03  0.89268786864E+03  0.50400000000E-02 0.  1.
    8880022    1    1    2    0    0  0.10994633099E+04 -0.14238474379E+03 -0.23269411125E+03  0.11430796943E+04  0.15294330000E+03 0.  0.
    8880022    1    1    2    0    0 -0.10994633099E+04  0.14238474379E+03  0.13241037355E+04  0.17337056672E+04  0.15294330000E+03 0.  0.
<mgrwt>
<rscale>  0 0.11191446E+04</rscale>
<asrwt>0</asrwt>
<pdfrwt beam="1">  1        1 0.30524577E+00 0.11191446E+04</pdfrwt>
<pdfrwt beam="2">  1       -1 0.13733660E+00 0.11191446E+04</pdfrwt>
<totfact> 0.13379158E+00</totfact>
</mgrwt>
</event>
<event>
 4    1  0.2731969E-009  0.4653408E+03  0.7818608E-02  0.1023244E+00
          1   -1    0    0  501    0  0.00000000000E+00  0.00000000000E+00  0.11938369882E+04  0.11938369882E+04  0.50400000000E-02 0. -1.
         -1   -1    0    0    0  501 -0.00000000000E+00 -0.00000000000E+00 -0.30510244785E+03  0.30510244789E+03  0.50400000000E-02 0.  1.
    8880022    1    1    2    0    0 -0.31265999348E+03 -0.30885945858E+03 -0.32886874153E+02  0.46650148572E+03  0.15294330000E+03 0.  0.
    8880022    1    1    2    0    0  0.31265999348E+03  0.30885945858E+03  0.92162141447E+03  0.10324379503E+04  0.15294330000E+03 0.  0.
<mgrwt>
<rscale>  0 0.46534083E+03</rscale>
<asrwt>0</asrwt>
<pdfrwt beam="1">  1        1 0.18366723E+00 0.46534083E+03</pdfrwt>
<pdfrwt beam="2">  1       -1 0.46938838E-01 0.46534083E+03</pdfrwt>
<totfact> 0.51979362E+01</totfact>
</mgrwt>
</event>
<event>
 4    1  0.2731969E-009  0.3010600E+03  0.7818608E-02  0.1084712E+00
         -1   -1    0    0    0  501 -0.00000000000E+00  0.00000000000E+00  0.20051772798E+03  0.20051772804E+03  0.50400000000E-02 0.  1.
          1   -1    0    0  501    0  0.00000000000E+00 -0.00000000000E+00 -0.47363312440E+03  0.47363312443E+03  0.50400000000E-02 0. -1.
    8880022    1    1    2    0    0 -0.25644849140E+03  0.38465916290E+02 -0.64544736215E+02  0.30790117156E+03  0.15294330000E+03 0.  0.
    8880022    1    1    2    0    0  0.25644849140E+03 -0.38465916290E+02 -0.20857066020E+03  0.36624968092E+03  0.15294330000E+03 0.  0.
<mgrwt>
<rscale>  0 0.30105997E+03</rscale>
<asrwt>0</asrwt>
<pdfrwt beam="1">  1        1 0.72866634E-01 0.30105997E+03</pdfrwt>
<pdfrwt beam="2">  1       -1 0.30848881E-01 0.30105997E+03</pdfrwt>
<totfact> 0.47476419E+02</totfact>
</mgrwt>
</event>
<event>
 4    1  0.2731969E-009  0.7168780E+03  0.7818608E-02  0.9688796E-01
          1   -1    0    0  501    0  0.00000000000E+00  0.00000000000E+00  0.84191975008E+03  0.84191975009E+03  0.50400000000E-02 0. -1.
         -1   -1    0    0    0  501 -0.00000000000E+00 -0.00000000000E+00 -0.19533697016E+04  0.19533697016E+04  0.50400000000E-02 0.  1.
    8880022    1    1    2    0    0 -0.54710485333E+03 -0.43726274914E+03 -0.17145996438E+04  0.18584310651E+04  0.15294330000E+03 0.  0.
    8880022    1    1    2    0    0  0.54710485333E+03  0.43726274914E+03  0.60314969222E+03  0.93685838661E+03  0.15294330000E+03 0.  0.
<mgrwt>
<rscale>  0 0.71687801E+03</rscale>
<asrwt>0</asrwt>
<pdfrwt beam="1">  1        1 0.12952612E+00 0.71687801E+03</pdfrwt>
<pdfrwt beam="2">  1       -1 0.30051842E+00 0.71687801E+03</pdfrwt>
<totfact> 0.71123981E-01</totfact>
</mgrwt>
</event>
<event>
 4    1  0.2731969E-009  0.8589916E+03  0.7818608E-02  0.9478348E-01
          1   -1    0    0  501    0  0.00000000000E+00  0.00000000000E+00  0.31232182249E+04  0.31232182249E+04  0.50400000000E-02 0. -1.
         -1   -1    0    0    0  501 -0.00000000000E+00 -0.00000000000E+00 -0.10330349524E+04  0.10330349524E+04  0.50400000000E-02 0.  1.
    8880022    1    1    2    0    0 -0.16614812355E+03 -0.82877604900E+03 -0.77999928334E+03  0.11602868065E+04  0.15294330000E+03 0.  0.
    8880022    1    1    2    0    0  0.16614812355E+03  0.82877604900E+03  0.28701825559E+04  0.29959663709E+04  0.15294330000E+03 0.  0.
<mgrwt>
<rscale>  0 0.85899161E+03</rscale>
<asrwt>0</asrwt>
<pdfrwt beam="1">  1        1 0.48049510E+00 0.85899161E+03</pdfrwt>
<pdfrwt beam="2">  1       -1 0.15892846E+00 0.85899161E+03</pdfrwt>
<totfact> 0.15345931E-01</totfact>
</mgrwt>
</event>
<event>
 4    1  0.2731969E-009  0.6210720E+03  0.7818608E-02  0.9862628E-01
         -1   -1    0    0    0  501 -0.00000000000E+00  0.00000000000E+00  0.58083126622E+03  0.58083126624E+03  0.50400000000E-02 0.  1.
          1   -1    0    0  501    0  0.00000000000E+00 -0.00000000000E+00 -0.11537074895E+04  0.11537074895E+04  0.50400000000E-02 0. -1.
    8880022    1    1    2    0    0  0.58197385269E+03  0.15376982786E+03 -0.85141401777E+03  0.10538672629E+04  0.15294330000E+03 0.  0.
    8880022    1    1    2    0    0 -0.58197385269E+03 -0.15376982786E+03  0.27853779450E+03  0.68067149283E+03  0.15294330000E+03 0.  0.
<mgrwt>
<rscale>  0 0.62107196E+03</rscale>
<asrwt>0</asrwt>
<pdfrwt beam="1">  1        1 0.17749346E+00 0.62107196E+03</pdfrwt>
<pdfrwt beam="2">  1       -1 0.89358657E-01 0.62107196E+03</pdfrwt>
<totfact> 0.14919597E+01</totfact>
</mgrwt>
</event>
<event>
 4    1  0.2731969E-009  0.6781200E+03  0.7818608E-02  0.9755399E-01
          1   -1    0    0  501    0  0.00000000000E+00  0.00000000000E+00  0.18022132649E+04  0.18022132649E+04  0.50400000000E-02 0. -1.
         -1   -1    0    0    0  501 -0.00000000000E+00 -0.00000000000E+00 -0.13766546330E+04  0.13766546330E+04  0.50400000000E-02 0.  1.
    8880022    1    1    2    0    0  0.50572807374E+03 -0.42508133661E+03 -0.12218154271E+04  0.13973831322E+04  0.15294330000E+03 0.  0.
    8880022    1    1    2    0    0 -0.50572807374E+03  0.42508133661E+03  0.16473740589E+04  0.17814847657E+04  0.15294330000E+03 0.  0.
<mgrwt>
<rscale>  0 0.67811996E+03</rscale>
<asrwt>0</asrwt>
<pdfrwt beam="1">  1        1 0.27726358E+00 0.67811996E+03</pdfrwt>
<pdfrwt beam="2">  1       -1 0.21179302E+00 0.67811996E+03</pdfrwt>
<totfact> 0.54826815E-01</totfact>
</mgrwt>
</event>
<event>
 4    1  0.2731969E-009  0.8849053E+03  0.7818608E-02  0.9444650E-01
         -1   -1    0    0    0  501 -0.00000000000E+00  0.00000000000E+00  0.64428730791E+03  0.64428730793E+03  0.50400000000E-02 0.  1.
          1   -1    0    0  501    0  0.00000000000E+00 -0.00000000000E+00 -0.14366220108E+04  0.14366220108E+04  0.50400000000E-02 0. -1.
    8880022    1    1    2    0    0  0.83155616640E+03  0.26111316707E+03 -0.80446829673E+03  0.11959208324E+04  0.15294330000E+03 0.  0.
    8880022    1    1    2    0    0 -0.83155616640E+03 -0.26111316707E+03  0.12133593812E+02  0.88498848637E+03  0.15294330000E+03 0.  0.
<mgrwt>
<rscale>  0 0.88490530E+03</rscale>
<asrwt>0</asrwt>
<pdfrwt beam="1">  1        1 0.22101877E+00 0.88490530E+03</pdfrwt>
<pdfrwt beam="2">  1       -1 0.99121125E-01 0.88490530E+03</pdfrwt>
<totfact> 0.71791084E+00</totfact>
</mgrwt>
</event>
<event>
 4    1  0.2731969E-009  0.9463381E+03  0.7818608E-02  0.9369441E-01
          1   -1    0    0  501    0  0.00000000000E+00  0.00000000000E+00  0.24218488895E+04  0.24218488895E+04  0.50400000000E-02 0. -1.
         -1   -1    0    0    0  501 -0.00000000000E+00 -0.00000000000E+00 -0.68858839806E+03  0.68858839808E+03  0.50400000000E-02 0.  1.
    8880022    1    1    2    0    0  0.78604294071E+03 -0.50428233593E+03 -0.19158789041E+03  0.96553702764E+03  0.15294330000E+03 0.  0.
    8880022    1    1    2    0    0 -0.78604294071E+03  0.50428233593E+03  0.19248483819E+04  0.21449002600E+04  0.15294330000E+03 0. -1.
<mgrwt>
<rscale>  0 0.94633812E+03</rscale>
<asrwt>0</asrwt>
<pdfrwt beam="1">  1        1 0.37259213E+00 0.94633812E+03</pdfrwt>
<pdfrwt beam="2">  1       -1 0.10593668E+00 0.94633812E+03</pdfrwt>
<totfact> 0.13129953E+00</totfact>
</mgrwt>
</event>
<event>
 4    1  0.2731969E-009  0.1260076E+04  0.7818608E-02  0.9061839E-01
         -1   -1    0    0    0  501 -0.00000000000E+00  0.00000000000E+00  0.18124614208E+04  0.18124614209E+04  0.50400000000E-02 0.  1.
          1   -1    0    0  501    0  0.00000000000E+00 -0.00000000000E+00 -0.11439832000E+04  0.11439832000E+04  0.50400000000E-02 0. -1.
    8880022    1    1    2    0    0  0.46778067508E+03  0.11599916087E+04  0.10496413522E+04  0.16399810711E+04  0.15294330000E+03 0.  0.
    8880022    1    1    2    0    0 -0.46778067508E+03 -0.11599916087E+04 -0.38116313133E+03  0.13164635498E+04  0.15294330000E+03 0.  0.
<mgrwt>
<rscale>  0 0.12600758E+04</rscale>
<asrwt>0</asrwt>
<pdfrwt beam="1">  1        1 0.17599742E+00 0.12600758E+04</pdfrwt>
<pdfrwt beam="2">  1       -1 0.27884022E+00 0.12600758E+04</pdfrwt>
<totfact> 0.51915256E-01</totfact>
</mgrwt>
</event>
<event>
 4    1  0.2731969E-009  0.3126598E+03  0.7818608E-02  0.1079078E+00
          1   -1    0    0  501    0  0.00000000000E+00  0.00000000000E+00  0.13349258328E+04  0.13349258328E+04  0.50400000000E-02 0. -1.
         -1   -1    0    0    0  501 -0.00000000000E+00 -0.00000000000E+00 -0.60426658152E+03  0.60426658155E+03  0.50400000000E-02 0.  1.
    8880022    1    1    2    0    0 -0.20523318877E+03 -0.17956574012E+03  0.12742774968E+04  0.13120744296E+04  0.15294330000E+03 0.  0.
    8880022    1    1    2    0    0  0.20523318877E+03  0.17956574012E+03 -0.54361824561E+03  0.62711798473E+03  0.15294330000E+03 0.  1.
<mgrwt>
<rscale>  0 0.31265983E+03</rscale>
<asrwt>0</asrwt>
<pdfrwt beam="1">  1        1 0.20537321E+00 0.31265983E+03</pdfrwt>
<pdfrwt beam="2">  1       -1 0.92964089E-01 0.31265983E+03</pdfrwt>
<totfact> 0.10974894E+01</totfact>
</mgrwt>
</event>
<event>
 4    1  0.2731969E-009  0.1064911E+04  0.7818608E-02  0.9240084E-01
         -1   -1    0    0    0  501 -0.00000000000E+00  0.00000000000E+00  0.78657479610E+03  0.78657479612E+03  0.50400000000E-02 0.  1.
          1   -1    0    0  501    0  0.00000000000E+00 -0.00000000000E+00 -0.18626750678E+04  0.18626750679E+04  0.50400000000E-02 0. -1.
    8880022    1    1    2    0    0 -0.10369760922E+04  0.18794689251E+03  0.91648487250E+02  0.10688472990E+04  0.15294330000E+03 0.  0.
    8880022    1    1    2    0    0  0.10369760922E+04 -0.18794689251E+03 -0.11677487590E+04  0.15804025650E+04  0.15294330000E+03 0.  0.
<mgrwt>
<rscale>  0 0.10649108E+04</rscale>
<asrwt>0</asrwt>
<pdfrwt beam="1">  1        1 0.28656539E+00 0.10649108E+04</pdfrwt>
<pdfrwt beam="2">  1       -1 0.12101151E+00 0.10649108E+04</pdfrwt>
<totfact> 0.22405573E+00</totfact>
</mgrwt>
</event>
<event>
 4    1  0.2731969E-009  0.3949695E+03  0.7818608E-02  0.1045536E+00
          1   -1    0    0  501    0  0.00000000000E+00  0.00000000000E+00  0.32514080779E+03  0.32514080783E+03  0.50400000000E-02 0. -1.
         -1   -1    0    0    0  501 -0.00000000000E+00 -0.00000000000E+00 -0.17045975041E+04  0.17045975041E+04  0.50400000000E-02 0.  1.
    8880022    1    1    2    0    0  0.34195395670E+03  0.12520665565E+03 -0.15499932376E+04  0.15995248997E+04  0.15294330000E+03 0.  0.
    8880022    1    1    2    0    0 -0.34195395670E+03 -0.12520665565E+03  0.17053654131E+03  0.43021341223E+03  0.15294330000E+03 0. -1.
<mgrwt>
<rscale>  0 0.39496945E+03</rscale>
<asrwt>0</asrwt>
<pdfrwt beam="1">  1        1 0.50021664E-01 0.39496945E+03</pdfrwt>
<pdfrwt beam="2">  1       -1 0.26224577E+00 0.39496945E+03</pdfrwt>
<totfact> 0.51060290E+00</totfact>
</mgrwt>
</event>
<event>
 4    1  0.2731969E-009  0.6223762E+03  0.7818608E-02  0.9860040E-01
          1   -1    0    0  501    0  0.00000000000E+00  0.00000000000E+00  0.90775204913E+03  0.90775204914E+03  0.50400000000E-02 0. -1.
         -1   -1    0    0    0  501 -0.00000000000E+00 -0.00000000000E+00 -0.10419752897E+04  0.10419752897E+04  0.50400000000E-02 0.  1.
    8880022    1    1    2    0    0  0.53445689144E+03  0.27985058989E+03  0.68199618733E+03  0.92329354705E+03  0.15294330000E+03 0.  0.
    8880022    1    1    2    0    0 -0.53445689144E+03 -0.27985058989E+03 -0.81621942794E+03  0.10264337918E+04  0.15294330000E+03 0.  1.
<mgrwt>
<rscale>  0 0.62237623E+03</rscale>
<asrwt>0</asrwt>
<pdfrwt beam="1">  1        1 0.13965416E+00 0.62237623E+03</pdfrwt>
<pdfrwt beam="2">  1       -1 0.16030389E+00 0.62237623E+03</pdfrwt>
<totfact> 0.55144194E+00</totfact>
</mgrwt>
</event>
<event>
 4    1  0.2731969E-009  0.9130412E+03  0.7818608E-02  0.9409425E-01
         -1   -1    0    0    0  501 -0.00000000000E+00  0.00000000000E+00  0.55548717363E+03  0.55548717365E+03  0.50400000000E-02 0.  1.
          1   -1    0    0  501    0  0.00000000000E+00 -0.00000000000E+00 -0.24342519497E+04  0.24342519497E+04  0.50400000000E-02 0. -1.
    8880022    1    1    2    0    0  0.15546654313E+03  0.88661307167E+03 -0.18651019995E+04  0.20765957012E+04  0.15294330000E+03 0.  0.
    8880022    1    1    2    0    0 -0.15546654313E+03 -0.88661307167E+03 -0.13662776575E+02  0.91314342212E+03  0.15294330000E+03 0.  0.
<mgrwt>
<rscale>  0 0.91304120E+03</rscale>
<asrwt>0</asrwt>
<pdfrwt beam="1">  1        1 0.37450029E+00 0.91304120E+03</pdfrwt>
<pdfrwt beam="2">  1       -1 0.85459567E-01 0.91304120E+03</pdfrwt>
<totfact> 0.20999754E+00</totfact>
</mgrwt>
</event>
<event>
 4    1  0.2731969E-009  0.1062878E+04  0.7818608E-02  0.9242148E-01
          1   -1    0    0  501    0  0.00000000000E+00  0.00000000000E+00  0.12744768744E+04  0.12744768744E+04  0.50400000000E-02 0. -1.
         -1   -1    0    0    0  501 -0.00000000000E+00 -0.00000000000E+00 -0.16092781002E+04  0.16092781002E+04  0.50400000000E-02 0.  1.
    8880022    1    1    2    0    0 -0.89094772992E+03 -0.55904439876E+03 -0.11337675888E+04  0.15540717795E+04  0.15294330000E+03 0.  0.
    8880022    1    1    2    0    0  0.89094772992E+03  0.55904439876E+03  0.79896636298E+03  0.13296831951E+04  0.15294330000E+03 0.  0.
<mgrwt>
<rscale>  0 0.10628782E+04</rscale>
<asrwt>0</asrwt>
<pdfrwt beam="1">  1        1 0.19607336E+00 0.10628782E+04</pdfrwt>
<pdfrwt beam="2">  1       -1 0.24758125E+00 0.10628782E+04</pdfrwt>
<totfact> 0.68197855E-01</totfact>
</mgrwt>
</event>
<event>
 4    1  0.2731969E-009  0.6934564E+03  0.7818608E-02  0.9728489E-01
         -1   -1    0    0    0  501 -0.00000000000E+00  0.00000000000E+00  0.57703195912E+03  0.57703195914E+03  0.50400000000E-02 0.  1.
          1   -1    0    0  501    0  0.00000000000E+00 -0.00000000000E+00 -0.14076120610E+04  0.14076120610E+04  0.50400000000E-02 0. -1.
    8880022    1    1    2    0    0 -0.42082792286E+03  0.52952237455E+03 -0.10490988022E+04  0.12575730736E+04  0.15294330000E+03 0.  0.
    8880022    1    1    2    0    0  0.42082792286E+03 -0.52952237455E+03  0.21851870032E+03  0.72707094648E+03  0.15294330000E+03 0.  0.
<mgrwt>
<rscale>  0 0.69345637E+03</rscale>
<asrwt>0</asrwt>
<pdfrwt beam="1">  1        1 0.21655570E+00 0.69345637E+03</pdfrwt>
<pdfrwt beam="2">  1       -1 0.88774148E-01 0.69345637E+03</pdfrwt>
<totfact> 0.98864641E+00</totfact>
</mgrwt>
</event>
<event>
 4    1  0.2731969E-009  0.1367365E+04  0.7818608E-02  0.8977786E-01
          1   -1    0    0  501    0  0.00000000000E+00  0.00000000000E+00  0.30214747968E+04  0.30214747968E+04  0.50400000000E-02 0. -1.
         -1   -1    0    0    0  501 -0.00000000000E+00 -0.00000000000E+00 -0.97668574438E+03  0.97668574440E+03  0.50400000000E-02 0.  1.
    8880022    1    1    2    0    0  0.65703366567E+03 -0.11893703372E+04  0.22325060391E+04  0.26179705699E+04  0.15294330000E+03 0.  0.
    8880022    1    1    2    0    0 -0.65703366567E+03  0.11893703372E+04 -0.18771698670E+03  0.13801899714E+04  0.15294330000E+03 0.  0.
<mgrwt>
<rscale>  0 0.13673649E+04</rscale>
<asrwt>0</asrwt>
<pdfrwt beam="1">  1        1 0.46484228E+00 0.13673649E+04</pdfrwt>
<pdfrwt beam="2">  1       -1 0.15025935E+00 0.13673649E+04</pdfrwt>
<totfact> 0.19397867E-01</totfact>
</mgrwt>
</event>
<event>
 4    1  0.2731969E-009  0.8946408E+03  0.7818608E-02  0.9432306E-01
          1   -1    0    0  501    0  0.00000000000E+00  0.00000000000E+00  0.17194168222E+04  0.17194168222E+04  0.50400000000E-02 0. -1.
         -1   -1    0    0    0  501 -0.00000000000E+00 -0.00000000000E+00 -0.75137165044E+03  0.75137165046E+03  0.50400000000E-02 0.  1.
    8880022    1    1    2    0    0 -0.30524663727E+03 -0.82693110301E+03 -0.27799765005E+03  0.93683771548E+03  0.15294330000E+03 0.  1.
    8880022    1    1    2    0    0  0.30524663727E+03  0.82693110301E+03  0.12460428218E+04  0.15339507572E+04  0.15294330000E+03 0.  0.
<mgrwt>
<rscale>  0 0.89464083E+03</rscale>
<asrwt>0</asrwt>
<pdfrwt beam="1">  1        1 0.26452566E+00 0.89464083E+03</pdfrwt>
<pdfrwt beam="2">  1       -1 0.11559564E+00 0.89464083E+03</pdfrwt>
<totfact> 0.32050720E+00</totfact>
</mgrwt>
</event>
<event>
 4    1  0.2731969E-009  0.4444052E+03  0.7818608E-02  0.1029404E+00
          1   -1    0    0  501    0  0.00000000000E+00  0.00000000000E+00  0.54846116503E+03  0.54846116505E+03  0.50400000000E-02 0. -1.
         -1   -1    0    0    0  501 -0.00000000000E+00 -0.00000000000E+00 -0.38405151813E+03  0.38405151816E+03  0.50400000000E-02 0.  1.
    8880022    1    1    2    0    0 -0.41706718590E+03  0.12620628119E+02 -0.34255348443E+02  0.44572345655E+03  0.15294330000E+03 0.  0.
    8880022    1    1    2    0    0  0.41706718590E+03 -0.12620628119E+02  0.19866499534E+03  0.48678922666E+03  0.15294330000E+03 0.  1.
<mgrwt>
<rscale>  0 0.44440519E+03</rscale>
<asrwt>0</asrwt>
<pdfrwt beam="1">  1        1 0.84378640E-01 0.44440519E+03</pdfrwt>
<pdfrwt beam="2">  1       -1 0.59084849E-01 0.44440519E+03</pdfrwt>
<totfact> 0.11793612E+02</totfact>
</mgrwt>
</event>
<event>
 4    1  0.2731969E-009  0.2885633E+03  0.7818608E-02  0.1091102E+00
          1   -1    0    0  501    0  0.00000000000E+00  0.00000000000E+00  0.20600713546E+04  0.20600713546E+04  0.50400000000E-02 0. -1.
         -1   -1    0    0    0  501 -0.00000000000E+00 -0.00000000000E+00 -0.73904137101E+02  0.73904137273E+02  0.50400000000E-02 0.  1.
    8880022    1    1    2    0    0  0.94613024455E+02 -0.22566685349E+03  0.17112785463E+04  0.17354374288E+04  0.15294330000E+03 0.  0.
    8880022    1    1    2    0    0 -0.94613024455E+02  0.22566685349E+03  0.27488867114E+03  0.39853806305E+03  0.15294330000E+03 0.  0.
<mgrwt>
<rscale>  0 0.28856335E+03</rscale>
<asrwt>0</asrwt>
<pdfrwt beam="1">  1        1 0.31693407E+00 0.28856335E+03</pdfrwt>
<pdfrwt beam="2">  1       -1 0.11369867E-01 0.28856335E+03</pdfrwt>
<totfact> 0.15358055E+02</totfact>
</mgrwt>
</event>
<event>
 4    1  0.2731969E-009  0.5521726E+03  0.7818608E-02  0.1000992E+00
          1   -1    0    0  501    0  0.00000000000E+00  0.00000000000E+00  0.82055044690E+03  0.82055044692E+03  0.50400000000E-02 0. -1.
         -1   -1    0    0    0  501 -0.00000000000E+00 -0.00000000000E+00 -0.73904631186E+03  0.73904631187E+03  0.50400000000E-02 0.  1.
    8880022    1    1    2    0    0 -0.40244409518E+03 -0.34574797676E+03 -0.50911698423E+03  0.75106236081E+03  0.15294330000E+03 0.  0.
    8880022    1    1    2    0    0  0.40244409518E+03  0.34574797676E+03  0.59062111927E+03  0.80853439798E+03  0.15294330000E+03 0.  0.
<mgrwt>
<rscale>  0 0.55217259E+03</rscale>
<asrwt>0</asrwt>
<pdfrwt beam="1">  1        1 0.12623853E+00 0.55217259E+03</pdfrwt>
<pdfrwt beam="2">  1       -1 0.11369943E+00 0.55217259E+03</pdfrwt>
<totfact> 0.15845073E+01</totfact>
</mgrwt>
</event>
<event>
 4    1  0.2731969E-009  0.9043997E+03  0.7818608E-02  0.9420098E-01
         -1   -1    0    0    0  501 -0.00000000000E+00  0.00000000000E+00  0.10382478482E+04  0.10382478482E+04  0.50400000000E-02 0.  1.
          1   -1    0    0  501    0  0.00000000000E+00 -0.00000000000E+00 -0.11816588919E+04  0.11816588919E+04  0.50400000000E-02 0. -1.
    8880022    1    1    2    0    0  0.57496144563E+03 -0.68115082537E+03  0.56909849092E+03  0.10685559678E+04  0.15294330000E+03 0.  0.
    8880022    1    1    2    0    0 -0.57496144563E+03  0.68115082537E+03 -0.71250953464E+03  0.11513507723E+04  0.15294330000E+03 0. -1.
<mgrwt>
<rscale>  0 0.90439967E+03</rscale>
<asrwt>0</asrwt>
<pdfrwt beam="1">  1        1 0.18179367E+00 0.90439967E+03</pdfrwt>
<pdfrwt beam="2">  1       -1 0.15973044E+00 0.90439967E+03</pdfrwt>
<totfact> 0.32887939E+00</totfact>
</mgrwt>
</event>
<event>
 4    1  0.2731969E-009  0.1242624E+04  0.7818608E-02  0.9076345E-01
          1   -1    0    0  501    0  0.00000000000E+00  0.00000000000E+00  0.19653459608E+04  0.19653459608E+04  0.50400000000E-02 0. -1.
         -1   -1    0    0    0  501 -0.00000000000E+00 -0.00000000000E+00 -0.11528466050E+04  0.11528466050E+04  0.50400000000E-02 0.  1.
    8880022    1    1    2    0    0 -0.12330974586E+04 -0.13895925430E+02 -0.47363236529E+03  0.13298276992E+04  0.15294330000E+03 0.  0.
    8880022    1    1    2    0    0  0.12330974586E+04  0.13895925430E+02  0.12861317211E+04  0.17883648666E+04  0.15294330000E+03 0.  0.
<mgrwt>
<rscale>  0 0.12426239E+04</rscale>
<asrwt>0</asrwt>
<pdfrwt beam="1">  1        1 0.30236091E+00 0.12426239E+04</pdfrwt>
<pdfrwt beam="2">  1       -1 0.17736102E+00 0.12426239E+04</pdfrwt>
<totfact> 0.66772284E-01</totfact>
</mgrwt>
</event>
<event>
 4    1  0.2731969E-009  0.1588259E+04  0.7818608E-02  0.8827793E-01
          1   -1    0    0  501    0  0.00000000000E+00  0.00000000000E+00  0.28505645007E+04  0.28505645007E+04  0.50400000000E-02 0. -1.
         -1   -1    0    0    0  501 -0.00000000000E+00 -0.00000000000E+00 -0.10568898744E+04  0.10568898744E+04  0.50400000000E-02 0.  1.
    8880022    1    1    2    0    0 -0.13319133425E+04  0.85157660862E+03  0.16848892970E+04  0.23154739188E+04  0.15294330000E+03 0.  0.
    8880022    1    1    2    0    0  0.13319133425E+04 -0.85157660862E+03  0.10878532923E+03  0.15919804563E+04  0.15294330000E+03 0.  0.
<mgrwt>
<rscale>  0 0.15882593E+04</rscale>
<asrwt>0</asrwt>
<pdfrwt beam="1">  1        1 0.43854839E+00 0.15882593E+04</pdfrwt>
<pdfrwt beam="2">  1       -1 0.16259844E+00 0.15882593E+04</pdfrwt>
<totfact> 0.20131347E-01</totfact>
</mgrwt>
</event>
<event>
 4    1  0.4448932E-009  0.1874064E+04  0.7818608E-02  0.8667875E-01
          1   -1    0    0  501    0  0.00000000000E+00  0.00000000000E+00  0.28856206419E+04  0.28856206419E+04  0.50400000000E-02 0. -1.
         -1   -1    0    0    0  501 -0.00000000000E+00 -0.00000000000E+00 -0.21274067936E+04  0.21274067936E+04  0.50400000000E-02 0.  1.
    8880022    1    1    2    0    0  0.32700211831E+03  0.18389654786E+04  0.20187014490E+04  0.27545002469E+04  0.15294330000E+03 0.  0.
    8880022    1    1    2    0    0 -0.32700211831E+03 -0.18389654786E+04 -0.12604876007E+04  0.22585271886E+04  0.15294330000E+03 0.  0.
<mgrwt>
<rscale>  0 0.18740641E+04</rscale>
<asrwt>0</asrwt>
<pdfrwt beam="1">  1        1 0.44394164E+00 0.18740641E+04</pdfrwt>
<pdfrwt beam="2">  1       -1 0.32729335E+00 0.18740641E+04</pdfrwt>
<totfact> 0.14244558E-02</totfact>
</mgrwt>
</event>
<event>
 4    1  0.2731969E-009  0.1596352E+04  0.7818608E-02  0.8822792E-01
         -1   -1    0    0    0  501 -0.00000000000E+00  0.00000000000E+00  0.89957978062E+03  0.89957978064E+03  0.50400000000E-02 0.  1.
          1   -1    0    0  501    0  0.00000000000E+00 -0.00000000000E+00 -0.35975950335E+04  0.35975950335E+04  0.50400000000E-02 0. -1.
    8880022    1    1    2    0    0  0.13070747715E+04 -0.90360600262E+03 -0.31226033385E+03  0.16266058021E+04  0.15294330000E+03 0.  0.
    8880022    1    1    2    0    0 -0.13070747715E+04  0.90360600262E+03 -0.23857549191E+04  0.28705690121E+04  0.15294330000E+03 0.  0.
<mgrwt>
<rscale>  0 0.15963521E+04</rscale>
<asrwt>0</asrwt>
<pdfrwt beam="1">  1        1 0.55347615E+00 0.15963521E+04</pdfrwt>
<pdfrwt beam="2">  1       -1 0.13839689E+00 0.15963521E+04</pdfrwt>
<totfact> 0.85440192E-02</totfact>
</mgrwt>
</event>
<event>
 4    1  0.2731969E-009  0.1133952E+04  0.7818608E-02  0.9172718E-01
          1   -1    0    0  501    0  0.00000000000E+00  0.00000000000E+00  0.40909772220E+04  0.40909772220E+04  0.50400000000E-02 0. -1.
         -1   -1    0    0    0  501 -0.00000000000E+00 -0.00000000000E+00 -0.51432731191E+03  0.51432731194E+03  0.50400000000E-02 0.  1.
    8880022    1    1    2    0    0 -0.51958600678E+03  0.99623565036E+03  0.32242747478E+04  0.34178640101E+04  0.15294330000E+03 0.  0.
    8880022    1    1    2    0    0  0.51958600678E+03 -0.99623565036E+03  0.35237516224E+03  0.11874405238E+04  0.15294330000E+03 0.  0.
<mgrwt>
<rscale>  0 0.11339518E+04</rscale>
<asrwt>0</asrwt>
<pdfrwt beam="1">  1        1 0.62938112E+00 0.11339518E+04</pdfrwt>
<pdfrwt beam="2">  1       -1 0.79127277E-01 0.11339518E+04</pdfrwt>
<totfact> 0.13105594E-01</totfact>
</mgrwt>
</event>
<event>
 4    1  0.2731969E-009  0.4153376E+03  0.7818608E-02  0.1038595E+00
          1   -1    0    0  501    0  0.00000000000E+00  0.00000000000E+00  0.11549494421E+04  0.11549494421E+04  0.50400000000E-02 0. -1.
         -1   -1    0    0    0  501 -0.00000000000E+00 -0.00000000000E+00 -0.18480284982E+03  0.18480284989E+03  0.50400000000E-02 0.  1.
    8880022    1    1    2    0    0 -0.38610226287E+03  0.62203850594E+01  0.19171822689E+03  0.45745074284E+03  0.15294330000E+03 0.  0.
    8880022    1    1    2    0    0  0.38610226287E+03 -0.62203850594E+01  0.77842836538E+03  0.88230154915E+03  0.15294330000E+03 0.  0.
<mgrwt>
<rscale>  0 0.41533758E+03</rscale>
<asrwt>0</asrwt>
<pdfrwt beam="1">  1        1 0.17768453E+00 0.41533758E+03</pdfrwt>
<pdfrwt beam="2">  1       -1 0.28431207E-01 0.41533758E+03</pdfrwt>
<totfact> 0.13614679E+02</totfact>
</mgrwt>
</event>
<event>
 4    1  0.2731969E-009  0.3908477E+03  0.7818608E-02  0.1046996E+00
         -1   -1    0    0    0  501 -0.00000000000E+00  0.00000000000E+00  0.35968150693E+03  0.35968150696E+03  0.50400000000E-02 0.  1.
          1   -1    0    0  501    0  0.00000000000E+00 -0.00000000000E+00 -0.17032923886E+04  0.17032923886E+04  0.50400000000E-02 0. -1.
    8880022    1    1    2    0    0 -0.34759133039E+03  0.92469243848E+02  0.22187598326E+03  0.44943397622E+03  0.15294330000E+03 0.  1.
    8880022    1    1    2    0    0  0.34759133039E+03 -0.92469243848E+02 -0.15654868649E+04  0.16135399194E+04  0.15294330000E+03 0.  0.
<mgrwt>
<rscale>  0 0.39084773E+03</rscale>
<asrwt>0</asrwt>
<pdfrwt beam="1">  1        1 0.26204498E+00 0.39084773E+03</pdfrwt>
<pdfrwt beam="2">  1       -1 0.55335617E-01 0.39084773E+03</pdfrwt>
<totfact> 0.17435975E+01</totfact>
</mgrwt>
</event>
<event>
 4    1  0.2731969E-009  0.6041551E+03  0.7818608E-02  0.9896823E-01
          1   -1    0    0  501    0  0.00000000000E+00  0.00000000000E+00  0.32526244227E+04  0.32526244227E+04  0.50400000000E-02 0. -1.
         -1   -1    0    0    0  501 -0.00000000000E+00 -0.00000000000E+00 -0.18208703178E+03  0.18208703185E+03  0.50400000000E-02 0.  1.
    8880022    1    1    2    0    0 -0.55854067267E+03  0.17217433672E+03  0.47146180007E+03  0.76634167784E+03  0.15294330000E+03 0.  0.
    8880022    1    1    2    0    0  0.55854067267E+03 -0.17217433672E+03  0.25990755908E+04  0.26683697767E+04  0.15294330000E+03 0.  0.
<mgrwt>
<rscale>  0 0.60415506E+03</rscale>
<asrwt>0</asrwt>
<pdfrwt beam="1">  1        1 0.50040373E+00 0.60415506E+03</pdfrwt>
<pdfrwt beam="2">  1       -1 0.28013391E-01 0.60415506E+03</pdfrwt>
<totfact> 0.49373521E+00</totfact>
</mgrwt>
</event>
<event>
 4    1  0.2731969E-009  0.3640821E+03  0.7818608E-02  0.1056979E+00
         -1   -1    0    0    0  501 -0.00000000000E+00  0.00000000000E+00  0.42113092119E+03  0.42113092122E+03  0.50400000000E-02 0.  1.
          1   -1    0    0  501    0  0.00000000000E+00 -0.00000000000E+00 -0.10071289421E+04  0.10071289421E+04  0.50400000000E-02 0. -1.
    8880022    1    1    2    0    0 -0.33039888770E+03 -0.82605235173E+00  0.29911187668E+03  0.47119388276E+03  0.15294330000E+03 0.  0.
    8880022    1    1    2    0    0  0.33039888770E+03  0.82605235173E+00 -0.88510989760E+03  0.95706598059E+03  0.15294330000E+03 0.  0.
<mgrwt>
<rscale>  0 0.36408208E+03</rscale>
<asrwt>0</asrwt>
<pdfrwt beam="1">  1        1 0.15494291E+00 0.36408208E+03</pdfrwt>
<pdfrwt beam="2">  1       -1 0.64789373E-01 0.36408208E+03</pdfrwt>
<totfact> 0.39221638E+01</totfact>
</mgrwt>
</event>
<event>
 4    1  0.2731969E-009  0.1544389E+04  0.7818608E-02  0.8855459E-01
         -1   -1    0    0    0  501 -0.00000000000E+00  0.00000000000E+00  0.19441171518E+04  0.19441171518E+04  0.50400000000E-02 0.  1.
          1   -1    0    0  501    0  0.00000000000E+00 -0.00000000000E+00 -0.26079479937E+04  0.26079479937E+04  0.50400000000E-02 0. -1.
    8880022    1    1    2    0    0 -0.14717842150E+04 -0.44226493099E+03  0.13243936204E+04  0.20344918676E+04  0.15294330000E+03 0.  1.
    8880022    1    1    2    0    0  0.14717842150E+04  0.44226493099E+03 -0.19882244622E+04  0.25175732779E+04  0.15294330000E+03 0.  0.
<mgrwt>
<rscale>  0 0.15443894E+04</rscale>
<asrwt>0</asrwt>
<pdfrwt beam="1">  1        1 0.40122277E+00 0.15443894E+04</pdfrwt>
<pdfrwt beam="2">  1       -1 0.29909495E+00 0.15443894E+04</pdfrwt>
<totfact> 0.35757535E-02</totfact>
</mgrwt>
</event>
<event>
 4    1  0.2731969E-009  0.4137969E+03  0.7818608E-02  0.1039104E+00
          1   -1    0    0  501    0  0.00000000000E+00  0.00000000000E+00  0.89615026229E+03  0.89615026230E+03  0.50400000000E-02 0. -1.
         -1   -1    0    0    0  501 -0.00000000000E+00 -0.00000000000E+00 -0.65790225292E+03  0.65790225294E+03  0.50400000000E-02 0.  1.
    8880022    1    1    2    0    0 -0.37191154862E+03  0.97560523135E+02  0.77366248928E+03  0.87737195989E+03  0.15294330000E+03 0.  0.
    8880022    1    1    2    0    0  0.37191154862E+03 -0.97560523135E+02 -0.53541447991E+03  0.67668055535E+03  0.15294330000E+03 0.  0.
<mgrwt>
<rscale>  0 0.41379694E+03</rscale>
<asrwt>0</asrwt>
<pdfrwt beam="1">  1        1 0.13786927E+00 0.41379694E+03</pdfrwt>
<pdfrwt beam="2">  1       -1 0.10121573E+00 0.41379694E+03</pdfrwt>
<totfact> 0.18467630E+01</totfact>
</mgrwt>
</event>
<event>
 4    1  0.2731969E-009  0.9992144E+03  0.7818608E-02  0.9309407E-01
         -1   -1    0    0    0  501 -0.00000000000E+00  0.00000000000E+00  0.76264856756E+03  0.76264856757E+03  0.50400000000E-02 0.  1.
          1   -1    0    0  501    0  0.00000000000E+00 -0.00000000000E+00 -0.19815795595E+04  0.19815795595E+04  0.50400000000E-02 0. -1.
    8880022    1    1    2    0    0 -0.83432056643E+03  0.52815428073E+03  0.18982464436E+03  0.10170854440E+04  0.15294330000E+03 0.  0.
    8880022    1    1    2    0    0  0.83432056643E+03 -0.52815428073E+03 -0.14087556363E+04  0.17271426830E+04  0.15294330000E+03 0.  0.
<mgrwt>
<rscale>  0 0.99921439E+03</rscale>
<asrwt>0</asrwt>
<pdfrwt beam="1">  1        1 0.30485839E+00 0.99921439E+03</pdfrwt>
<pdfrwt beam="2">  1       -1 0.11733055E+00 0.99921439E+03</pdfrwt>
<totfact> 0.20275884E+00</totfact>
</mgrwt>
</event>
<event>
 4    1  0.2731969E-009  0.3077961E+03  0.7818608E-02  0.1081407E+00
         -1   -1    0    0    0  501 -0.00000000000E+00  0.00000000000E+00  0.76928432421E+03  0.76928432422E+03  0.50400000000E-02 0.  1.
          1   -1    0    0  501    0  0.00000000000E+00 -0.00000000000E+00 -0.17753771712E+04  0.17753771712E+04  0.50400000000E-02 0. -1.
    8880022    1    1    2    0    0  0.26709204356E+03 -0.29390391652E+01 -0.17304557006E+04  0.17576163922E+04  0.15294330000E+03 0.  0.
    8880022    1    1    2    0    0 -0.26709204356E+03  0.29390391652E+01  0.72436285360E+03  0.78704510314E+03  0.15294330000E+03 0.  0.
<mgrwt>
<rscale>  0 0.30779612E+03</rscale>
<asrwt>0</asrwt>
<pdfrwt beam="1">  1        1 0.27313495E+00 0.30779612E+03</pdfrwt>
<pdfrwt beam="2">  1       -1 0.11835143E+00 0.30779612E+03</pdfrwt>
<totfact> 0.32321187E+00</totfact>
</mgrwt>
</event>
<event>
 4    1  0.2731969E-009  0.1146974E+04  0.7818608E-02  0.9160579E-01
         -1   -1    0    0    0  501 -0.00000000000E+00  0.00000000000E+00  0.16909913758E+04  0.16909913758E+04  0.50400000000E-02 0.  1.
          1   -1    0    0  501    0  0.00000000000E+00 -0.00000000000E+00 -0.10991808322E+04  0.10991808322E+04  0.50400000000E-02 0. -1.
    8880022    1    1    2    0    0  0.27132195546E+03 -0.11038763791E+04  0.10500550897E+04  0.15550453396E+04  0.15294330000E+03 0.  0.
    8880022    1    1    2    0    0 -0.27132195546E+03  0.11038763791E+04 -0.45824454614E+03  0.12351268684E+04  0.15294330000E+03 0.  0.
<mgrwt>
<rscale>  0 0.11469744E+04</rscale>
<asrwt>0</asrwt>
<pdfrwt beam="1">  1        1 0.16910474E+00 0.11469744E+04</pdfrwt>
<pdfrwt beam="2">  1       -1 0.26015252E+00 0.11469744E+04</pdfrwt>
<totfact> 0.75167014E-01</totfact>
</mgrwt>
</event>
<event>
 4    1  0.2731969E-009  0.9036701E+03  0.7818608E-02  0.9421005E-01
         -1   -1    0    0    0  501 -0.00000000000E+00  0.00000000000E+00  0.10311712141E+04  0.10311712142E+04  0.50400000000E-02 0.  1.
          1   -1    0    0  501    0  0.00000000000E+00 -0.00000000000E+00 -0.11005326181E+04  0.11005326181E+04  0.50400000000E-02 0. -1.
    8880022    1    1    2    0    0 -0.34360484511E+03 -0.82168348960E+03 -0.59908757443E+03  0.10842165935E+04  0.15294330000E+03 0.  0.
    8880022    1    1    2    0    0  0.34360484511E+03  0.82168348960E+03  0.52972617051E+03  0.10474872388E+04  0.15294330000E+03 0.  0.
<mgrwt>
<rscale>  0 0.90367013E+03</rscale>
<asrwt>0</asrwt>
<pdfrwt beam="1">  1        1 0.16931271E+00 0.90367013E+03</pdfrwt>
<pdfrwt beam="2">  1       -1 0.15864172E+00 0.90367013E+03</pdfrwt>
<totfact> 0.38495414E+00</totfact>
</mgrwt>
</event>
<event>
 4    1  0.2731969E-009  0.1358747E+04  0.7818608E-02  0.8984233E-01
         -1   -1    0    0    0  501 -0.00000000000E+00  0.00000000000E+00  0.12052105000E+04  0.12052105000E+04  0.50400000000E-02 0.  1.
          1   -1    0    0  501    0  0.00000000000E+00 -0.00000000000E+00 -0.31283052221E+04  0.31283052221E+04  0.50400000000E-02 0. -1.
    8880022    1    1    2    0    0  0.11528463221E+04  0.70267197416E+03 -0.25094193427E+04  0.28536607430E+04  0.15294330000E+03 0.  0.
    8880022    1    1    2    0    0 -0.11528463221E+04 -0.70267197416E+03  0.58632462060E+03  0.14798549792E+04  0.15294330000E+03 0.  0.
<mgrwt>
<rscale>  0 0.13587473E+04</rscale>
<asrwt>0</asrwt>
<pdfrwt beam="1">  1        1 0.48127772E+00 0.13587473E+04</pdfrwt>
<pdfrwt beam="2">  1       -1 0.18541700E+00 0.13587473E+04</pdfrwt>
<totfact> 0.88677346E-02</totfact>
</mgrwt>
</event>
<event>
 4    1  0.2731969E-009  0.6314415E+03  0.7818608E-02  0.9842240E-01
          1   -1    0    0  501    0  0.00000000000E+00  0.00000000000E+00  0.13812405352E+04  0.13812405352E+04  0.50400000000E-02 0. -1.
         -1   -1    0    0    0  501 -0.00000000000E+00 -0.00000000000E+00 -0.49848381219E+03  0.49848381221E+03  0.50400000000E-02 0.  1.
    8880022    1    1    2    0    0  0.59995083425E+03 -0.12403898222E+03 -0.16838167898E+03  0.65350647698E+03  0.15294330000E+03 0.  0.
    8880022    1    1    2    0    0 -0.59995083425E+03  0.12403898222E+03  0.10511384020E+04  0.12262178704E+04  0.15294330000E+03 0.  0.
<mgrwt>
<rscale>  0 0.63144147E+03</rscale>
<asrwt>0</asrwt>
<pdfrwt beam="1">  1        1 0.21249854E+00 0.63144147E+03</pdfrwt>
<pdfrwt beam="2">  1       -1 0.76689819E-01 0.63144147E+03</pdfrwt>
<totfact> 0.14240902E+01</totfact>
</mgrwt>
</event>
<event>
 4    1  0.2731969E-009  0.4216600E+03  0.7818608E-02  0.1036527E+00
          1   -1    0    0  501    0  0.00000000000E+00  0.00000000000E+00  0.28739488246E+04  0.28739488246E+04  0.50400000000E-02 0. -1.
         -1   -1    0    0    0  501 -0.00000000000E+00 -0.00000000000E+00 -0.19702333282E+03  0.19702333288E+03  0.50400000000E-02 0.  1.
    8880022    1    1    2    0    0  0.39265474326E+03 -0.15092776897E+02  0.26102318526E+04  0.26440702556E+04  0.15294330000E+03 0.  0.
    8880022    1    1    2    0    0 -0.39265474326E+03  0.15092776897E+02  0.66693639209E+02  0.42690190189E+03  0.15294330000E+03 0.  0.
<mgrwt>
<rscale>  0 0.42166004E+03</rscale>
<asrwt>0</asrwt>
<pdfrwt beam="1">  1        1 0.44214597E+00 0.42166004E+03</pdfrwt>
<pdfrwt beam="2">  1       -1 0.30311282E-01 0.42166004E+03</pdfrwt>
<totfact> 0.84653196E+00</totfact>
</mgrwt>
</event>
<event>
 4    1  0.2731969E-009  0.2766124E+03  0.7818608E-02  0.1097554E+00
          1   -1    0    0  501    0  0.00000000000E+00  0.00000000000E+00  0.14421627970E+04  0.14421627970E+04  0.50400000000E-02 0. -1.
         -1   -1    0    0    0  501 -0.00000000000E+00 -0.00000000000E+00 -0.21032837363E+03  0.21032837369E+03  0.50400000000E-02 0.  1.
    8880022    1    1    2    0    0 -0.86753853936E+02 -0.21353347670E+03 -0.98558318787E+02  0.29364633841E+03  0.15294330000E+03 0.  1.
    8880022    1    1    2    0    0  0.86753853936E+02  0.21353347670E+03  0.13303927421E+04  0.13588448322E+04  0.15294330000E+03 0.  0.
<mgrwt>
<rscale>  0 0.27661242E+03</rscale>
<asrwt>0</asrwt>
<pdfrwt beam="1">  1        1 0.22187120E+00 0.27661242E+03</pdfrwt>
<pdfrwt beam="2">  1       -1 0.32358211E-01 0.27661242E+03</pdfrwt>
<totfact> 0.70886370E+01</totfact>
</mgrwt>
</event>
<event>
 4    1  0.2731969E-009  0.7908599E+03  0.7818608E-02  0.9573342E-01
         -1   -1    0    0    0  501 -0.00000000000E+00  0.00000000000E+00  0.12336549762E+04  0.12336549762E+04  0.50400000000E-02 0.  1.
          1   -1    0    0  501    0  0.00000000000E+00 -0.00000000000E+00 -0.20336463748E+04  0.20336463749E+04  0.50400000000E-02 0. -1.
    8880022    1    1    2    0    0 -0.73397152011E+03  0.25170120824E+03 -0.18154346209E+04  0.19802177169E+04  0.15294330000E+03 0.  0.
    8880022    1    1    2    0    0  0.73397152011E+03 -0.25170120824E+03  0.10154432223E+04  0.12870836341E+04  0.15294330000E+03 0.  0.
<mgrwt>
<rscale>  0 0.79085988E+03</rscale>
<asrwt>0</asrwt>
<pdfrwt beam="1">  1        1 0.31286867E+00 0.79085988E+03</pdfrwt>
<pdfrwt beam="2">  1       -1 0.18979307E+00 0.79085988E+03</pdfrwt>
<totfact> 0.52849794E-01</totfact>
</mgrwt>
</event>
<event>
 4    1  0.2731969E-009  0.4391391E+03  0.7818608E-02  0.1031011E+00
          1   -1    0    0  501    0  0.00000000000E+00  0.00000000000E+00  0.25546164938E+04  0.25546164938E+04  0.50400000000E-02 0. -1.
         -1   -1    0    0    0  501 -0.00000000000E+00 -0.00000000000E+00 -0.13007061221E+03  0.13007061231E+03  0.50400000000E-02 0.  1.
    8880022    1    1    2    0    0 -0.49893024819E+02  0.40861005354E+03  0.20818355431E+04  0.21276471444E+04  0.15294330000E+03 0.  0.
    8880022    1    1    2    0    0  0.49893024819E+02 -0.40861005354E+03  0.34271033853E+03  0.55703996170E+03  0.15294330000E+03 0.  0.
<mgrwt>
<rscale>  0 0.43913909E+03</rscale>
<asrwt>0</asrwt>
<pdfrwt beam="1">  1        1 0.39301788E+00 0.43913909E+03</pdfrwt>
<pdfrwt beam="2">  1       -1 0.20010865E-01 0.43913909E+03</pdfrwt>
<totfact> 0.28095286E+01</totfact>
</mgrwt>
</event>
<event>
 4    1  0.2731969E-009  0.8167194E+03  0.7818608E-02  0.9536127E-01
         -1   -1    0    0    0  501 -0.00000000000E+00  0.00000000000E+00  0.99784240784E+03  0.99784240785E+03  0.50400000000E-02 0.  1.
          1   -1    0    0  501    0  0.00000000000E+00 -0.00000000000E+00 -0.23035022306E+04  0.23035022306E+04  0.50400000000E-02 0. -1.
    8880022    1    1    2    0    0  0.25169847635E+03 -0.76176555993E+03 -0.20435167109E+04  0.22006796887E+04  0.15294330000E+03 0.  0.
    8880022    1    1    2    0    0 -0.25169847635E+03  0.76176555993E+03  0.73785688815E+03  0.11006649498E+04  0.15294330000E+03 0.  0.
<mgrwt>
<rscale>  0 0.81671938E+03</rscale>
<asrwt>0</asrwt>
<pdfrwt beam="1">  1        1 0.35438496E+00 0.81671938E+03</pdfrwt>
<pdfrwt beam="2">  1       -1 0.15351422E+00 0.81671938E+03</pdfrwt>
<totfact> 0.63736180E-01</totfact>
</mgrwt>
</event>
<event>
 4    1  0.2731969E-009  0.1314773E+04  0.7818608E-02  0.9017931E-01
         -1   -1    0    0    0  501 -0.00000000000E+00  0.00000000000E+00  0.11386995531E+04  0.11386995531E+04  0.50400000000E-02 0.  1.
          1   -1    0    0  501    0  0.00000000000E+00 -0.00000000000E+00 -0.23489352756E+04  0.23489352756E+04  0.50400000000E-02 0. -1.
    8880022    1    1    2    0    0 -0.11709258117E+04  0.57807459546E+03  0.43200446285E+03  0.13839281063E+04  0.15294330000E+03 0.  0.
    8880022    1    1    2    0    0  0.11709258117E+04 -0.57807459546E+03 -0.16422401853E+04  0.21037067224E+04  0.15294330000E+03 0.  0.
<mgrwt>
<rscale>  0 0.13147734E+04</rscale>
<asrwt>0</asrwt>
<pdfrwt beam="1">  1        1 0.36137466E+00 0.13147734E+04</pdfrwt>
<pdfrwt beam="2">  1       -1 0.17518455E+00 0.13147734E+04</pdfrwt>
<totfact> 0.37639670E-01</totfact>
</mgrwt>
</event>
<event>
 4    1  0.2731969E-009  0.5634016E+03  0.7818608E-02  0.9984387E-01
          1   -1    0    0  501    0  0.00000000000E+00  0.00000000000E+00  0.69743173016E+03  0.69743173018E+03  0.50400000000E-02 0. -1.
         -1   -1    0    0    0  501 -0.00000000000E+00 -0.00000000000E+00 -0.10562090990E+04  0.10562090991E+04  0.50400000000E-02 0.  1.
    8880022    1    1    2    0    0  0.51706211467E+03  0.16332951194E+03 -0.84084607234E+03  0.10121479784E+04  0.15294330000E+03 0.  0.
    8880022    1    1    2    0    0 -0.51706211467E+03 -0.16332951194E+03  0.48206870346E+03  0.74149285078E+03  0.15294330000E+03 0.  0.
<mgrwt>
<rscale>  0 0.56340164E+03</rscale>
<asrwt>0</asrwt>
<pdfrwt beam="1">  1        1 0.10729719E+00 0.56340164E+03</pdfrwt>
<pdfrwt beam="2">  1       -1 0.16249371E+00 0.56340164E+03</pdfrwt>
<totfact> 0.81503555E+00</totfact>
</mgrwt>
</event>
<event>
 4    1  0.2731969E-009  0.6100910E+03  0.7818608E-02  0.9884689E-01
          1   -1    0    0  501    0  0.00000000000E+00  0.00000000000E+00  0.17053577309E+04  0.17053577309E+04  0.50400000000E-02 0. -1.
         -1   -1    0    0    0  501 -0.00000000000E+00 -0.00000000000E+00 -0.87857554900E+03  0.87857554902E+03  0.50400000000E-02 0.  1.
    8880022    1    1    2    0    0 -0.52106847078E+03 -0.27804137305E+03  0.15334415200E+04  0.16503496310E+04  0.15294330000E+03 0. -1.
    8880022    1    1    2    0    0  0.52106847078E+03  0.27804137305E+03 -0.70665933809E+03  0.93358364890E+03  0.15294330000E+03 0.  0.
<mgrwt>
<rscale>  0 0.61009098E+03</rscale>
<asrwt>0</asrwt>
<pdfrwt beam="1">  1        1 0.26236273E+00 0.61009098E+03</pdfrwt>
<pdfrwt beam="2">  1       -1 0.13516547E+00 0.61009098E+03</pdfrwt>
<totfact> 0.23451043E+00</totfact>
</mgrwt>
</event>
<event>
 4    1  0.2731969E-009  0.6643103E+03  0.7818608E-02  0.9780291E-01
         -1   -1    0    0    0  501 -0.00000000000E+00  0.00000000000E+00  0.38020333555E+03  0.38020333558E+03  0.50400000000E-02 0.  1.
          1   -1    0    0  501    0  0.00000000000E+00 -0.00000000000E+00 -0.31007109755E+04  0.31007109755E+04  0.50400000000E-02 0. -1.
    8880022    1    1    2    0    0  0.21472589115E+03  0.60976170941E+03 -0.27369336962E+04  0.28164009411E+04  0.15294330000E+03 0.  0.
    8880022    1    1    2    0    0 -0.21472589115E+03 -0.60976170941E+03  0.16426056216E+02  0.66451337002E+03  0.15294330000E+03 0.  0.
<mgrwt>
<rscale>  0 0.66431032E+03</rscale>
<asrwt>0</asrwt>
<pdfrwt beam="1">  1        1 0.47703244E+00 0.66431032E+03</pdfrwt>
<pdfrwt beam="2">  1       -1 0.58492823E-01 0.66431032E+03</pdfrwt>
<totfact> 0.16417195E+00</totfact>
</mgrwt>
</event>
<event>
 4    1  0.2731969E-009  0.3099037E+03  0.7818608E-02  0.1080392E+00
          1   -1    0    0  501    0  0.00000000000E+00  0.00000000000E+00  0.12291521370E+04  0.12291521370E+04  0.50400000000E-02 0. -1.
         -1   -1    0    0    0  501 -0.00000000000E+00 -0.00000000000E+00 -0.92591350452E+02  0.92591350589E+02  0.50400000000E-02 0.  1.
    8880022    1    1    2    0    0  0.37807199908E+02  0.26686940903E+03  0.82940932726E+03  0.88541524214E+03  0.15294330000E+03 0.  0.
    8880022    1    1    2    0    0 -0.37807199908E+02 -0.26686940903E+03  0.30715145932E+03  0.43632824550E+03  0.15294330000E+03 0. -1.
<mgrwt>
<rscale>  0 0.30990373E+03</rscale>
<asrwt>0</asrwt>
<pdfrwt beam="1">  1        1 0.18910033E+00 0.30990373E+03</pdfrwt>
<pdfrwt beam="2">  1       -1 0.14244823E-01 0.30990373E+03</pdfrwt>
<totfact> 0.38137440E+02</totfact>
</mgrwt>
</event>
<event>
 4    1  0.2731969E-009  0.1378832E+04  0.7818608E-02  0.8969285E-01
          1   -1    0    0  501    0  0.00000000000E+00  0.00000000000E+00  0.19431899641E+04  0.19431899641E+04  0.50400000000E-02 0. -1.
         -1   -1    0    0    0  501 -0.00000000000E+00 -0.00000000000E+00 -0.10846299859E+04  0.10846299859E+04  0.50400000000E-02 0.  1.
    8880022    1    1    2    0    0  0.10354717830E+04 -0.89754347987E+03  0.90311172187E+03  0.16482683480E+04  0.15294330000E+03 0.  0.
    8880022    1    1    2    0    0 -0.10354717830E+04  0.89754347987E+03 -0.44551743645E+02  0.13795516020E+04  0.15294330000E+03 0.  0.
<mgrwt>
<rscale>  0 0.13788320E+04</rscale>
<asrwt>0</asrwt>
<pdfrwt beam="1">  1        1 0.29895230E+00 0.13788320E+04</pdfrwt>
<pdfrwt beam="2">  1       -1 0.16686615E+00 0.13788320E+04</pdfrwt>
<totfact> 0.81210665E-01</totfact>
</mgrwt>
</event>
<event>
 4    1  0.2731969E-009  0.1340416E+04  0.7818608E-02  0.8998115E-01
         -1   -1    0    0    0  501 -0.00000000000E+00  0.00000000000E+00  0.13636865479E+04  0.13636865479E+04  0.50400000000E-02 0.  1.
          1   -1    0    0  501    0  0.00000000000E+00 -0.00000000000E+00 -0.19961423412E+04  0.19961423412E+04  0.50400000000E-02 0. -1.
    8880022    1    1    2    0    0 -0.99145239582E+03 -0.88901422773E+03  0.66325779323E+03  0.14955355909E+04  0.15294330000E+03 0.  0.
    8880022    1    1    2    0    0  0.99145239582E+03  0.88901422773E+03 -0.12957135865E+04  0.18642932982E+04  0.15294330000E+03 0.  0.
<mgrwt>
<rscale>  0 0.13404163E+04</rscale>
<asrwt>0</asrwt>
<pdfrwt beam="1">  1        1 0.30709882E+00 0.13404163E+04</pdfrwt>
<pdfrwt beam="2">  1       -1 0.20979793E+00 0.13404163E+04</pdfrwt>
<totfact> 0.37242639E-01</totfact>
</mgrwt>
</event>
<event>
 4    1  0.2731969E-009  0.3057593E+03  0.7818608E-02  0.1082396E+00
         -1   -1    0    0    0  501 -0.00000000000E+00  0.00000000000E+00  0.85394035024E+03  0.85394035026E+03  0.50400000000E-02 0.  1.
          1   -1    0    0  501    0  0.00000000000E+00 -0.00000000000E+00 -0.30095198065E+04  0.30095198065E+04  0.50400000000E-02 0. -1.
    8880022    1    1    2    0    0 -0.26287985248E+03 -0.31484977628E+02  0.81847895514E+03  0.87372568560E+03  0.15294330000E+03 0.  0.
    8880022    1    1    2    0    0  0.26287985248E+03  0.31484977628E+02 -0.29740584114E+04  0.29897344712E+04  0.15294330000E+03 0. -1.
<mgrwt>
<rscale>  0 0.30575934E+03</rscale>
<asrwt>0</asrwt>
<pdfrwt beam="1">  1        1 0.46300304E+00 0.30575934E+03</pdfrwt>
<pdfrwt beam="2">  1       -1 0.13137544E+00 0.30575934E+03</pdfrwt>
<totfact> 0.37641817E-01</totfact>
</mgrwt>
</event>
<event>
 4    1  0.2731969E-009  0.8258976E+03  0.7818608E-02  0.9523270E-01
         -1   -1    0    0    0  501 -0.00000000000E+00  0.00000000000E+00  0.15595435243E+04  0.15595435243E+04  0.50400000000E-02 0.  1.
          1   -1    0    0  501    0  0.00000000000E+00 -0.00000000000E+00 -0.10293581202E+04  0.10293581202E+04  0.50400000000E-02 0. -1.
    8880022    1    1    2    0    0  0.11208855691E+02  0.81153530343E+03  0.12467425852E+04  0.14954845081E+04  0.15294330000E+03 0.  0.
    8880022    1    1    2    0    0 -0.11208855691E+02 -0.81153530343E+03 -0.71655718114E+03  0.10934171363E+04  0.15294330000E+03 0.  0.
<mgrwt>
<rscale>  0 0.82589760E+03</rscale>
<asrwt>0</asrwt>
<pdfrwt beam="1">  1        1 0.15836279E+00 0.82589760E+03</pdfrwt>
<pdfrwt beam="2">  1       -1 0.23992977E+00 0.82589760E+03</pdfrwt>
<totfact> 0.12063667E+00</totfact>
</mgrwt>
</event>
<event>
 4    1  0.2731969E-009  0.1033514E+04  0.7818608E-02  0.9272532E-01
          1   -1    0    0  501    0  0.00000000000E+00  0.00000000000E+00  0.33807076940E+04  0.33807076940E+04  0.50400000000E-02 0. -1.
         -1   -1    0    0    0  501 -0.00000000000E+00 -0.00000000000E+00 -0.40265806938E+03  0.40265806941E+03  0.50400000000E-02 0.  1.
    8880022    1    1    2    0    0  0.72952107095E+03  0.71593247742E+03  0.23668277434E+04  0.25826392557E+04  0.15294330000E+03 0.  0.
    8880022    1    1    2    0    0 -0.72952107095E+03 -0.71593247742E+03  0.61122188121E+03  0.12007265077E+04  0.15294330000E+03 0.  0.
<mgrwt>
<rscale>  0 0.10335144E+04</rscale>
<asrwt>0</asrwt>
<pdfrwt beam="1">  1        1 0.52010888E+00 0.10335144E+04</pdfrwt>
<pdfrwt beam="2">  1       -1 0.61947395E-01 0.10335144E+04</pdfrwt>
<totfact> 0.84384124E-01</totfact>
</mgrwt>
</event>
<event>
 4    1  0.2731969E-009  0.6326371E+03  0.7818608E-02  0.9839916E-01
         -1   -1    0    0    0  501 -0.00000000000E+00  0.00000000000E+00  0.78413055533E+03  0.78413055534E+03  0.50400000000E-02 0.  1.
          1   -1    0    0  501    0  0.00000000000E+00 -0.00000000000E+00 -0.16884823792E+04  0.16884823792E+04  0.50400000000E-02 0. -1.
    8880022    1    1    2    0    0 -0.13729982247E+03 -0.59831995005E+03  0.58049867629E+03  0.85860839157E+03  0.15294330000E+03 0.  0.
    8880022    1    1    2    0    0  0.13729982247E+03  0.59831995005E+03 -0.14848505001E+04  0.16140045429E+04  0.15294330000E+03 0.  0.
<mgrwt>
<rscale>  0 0.63263707E+03</rscale>
<asrwt>0</asrwt>
<pdfrwt beam="1">  1        1 0.25976652E+00 0.63263707E+03</pdfrwt>
<pdfrwt beam="2">  1       -1 0.12063547E+00 0.63263707E+03</pdfrwt>
<totfact> 0.31789327E+00</totfact>
</mgrwt>
</event>
<event>
 4    1  0.2731969E-009  0.5541127E+03  0.7818608E-02  0.1000546E+00
         -1   -1    0    0    0  501 -0.00000000000E+00  0.00000000000E+00  0.75831964733E+03  0.75831964734E+03  0.50400000000E-02 0.  1.
          1   -1    0    0  501    0  0.00000000000E+00 -0.00000000000E+00 -0.15999012945E+04  0.15999012945E+04  0.50400000000E-02 0. -1.
    8880022    1    1    2    0    0 -0.52016027570E+03  0.11437881385E+03  0.59825273288E+03  0.81544295379E+03  0.15294330000E+03 0.  0.
    8880022    1    1    2    0    0  0.52016027570E+03 -0.11437881385E+03 -0.14398343800E+04  0.15427779881E+04  0.15294330000E+03 0.  0.
<mgrwt>
<rscale>  0 0.55411269E+03</rscale>
<asrwt>0</asrwt>
<pdfrwt beam="1">  1        1 0.24613866E+00 0.55411269E+03</pdfrwt>
<pdfrwt beam="2">  1       -1 0.11666456E+00 0.55411269E+03</pdfrwt>
<totfact> 0.40239289E+00</totfact>
</mgrwt>
</event>
<event>
 4    1  0.2731969E-009  0.1060479E+04  0.7818608E-02  0.9244591E-01
          1   -1    0    0  501    0  0.00000000000E+00  0.00000000000E+00  0.22003205329E+04  0.22003205329E+04  0.50400000000E-02 0. -1.
         -1   -1    0    0    0  501 -0.00000000000E+00 -0.00000000000E+00 -0.12946225217E+04  0.12946225217E+04  0.50400000000E-02 0.  1.
    8880022    1    1    2    0    0  0.87221783134E+02  0.10457614053E+04  0.18122894689E+04  0.20997641126E+04  0.15294330000E+03 0.  0.
    8880022    1    1    2    0    0 -0.87221783134E+02 -0.10457614053E+04 -0.90659145767E+03  0.13951789421E+04  0.15294330000E+03 0.  0.
<mgrwt>
<rscale>  0 0.10604792E+04</rscale>
<asrwt>0</asrwt>
<pdfrwt beam="1">  1        1 0.33851085E+00 0.10604792E+04</pdfrwt>
<pdfrwt beam="2">  1       -1 0.19917270E+00 0.10604792E+04</pdfrwt>
<totfact> 0.33365347E-01</totfact>
</mgrwt>
</event>
<event>
 4    1  0.2731969E-009  0.7177615E+03  0.7818608E-02  0.9687331E-01
         -1   -1    0    0    0  501 -0.00000000000E+00  0.00000000000E+00  0.10523434013E+04  0.10523434013E+04  0.50400000000E-02 0.  1.
          1   -1    0    0  501    0  0.00000000000E+00 -0.00000000000E+00 -0.16564744521E+04  0.16564744521E+04  0.50400000000E-02 0. -1.
    8880022    1    1    2    0    0 -0.66561854929E+03 -0.22077562446E+03  0.83471753044E+03  0.11008791660E+04  0.15294330000E+03 0.  0.
    8880022    1    1    2    0    0  0.66561854929E+03  0.22077562446E+03 -0.14388485813E+04  0.16079386874E+04  0.15294330000E+03 0.  0.
<mgrwt>
<rscale>  0 0.71776151E+03</rscale>
<asrwt>0</asrwt>
<pdfrwt beam="1">  1        1 0.25484222E+00 0.71776151E+03</pdfrwt>
<pdfrwt beam="2">  1       -1 0.16189899E+00 0.71776151E+03</pdfrwt>
<totfact> 0.15266878E+00</totfact>
</mgrwt>
</event>
<event>
 4    1  0.2731969E-009  0.4417584E+03  0.7818608E-02  0.1030209E+00
         -1   -1    0    0    0  501 -0.00000000000E+00  0.00000000000E+00  0.27590594280E+03  0.27590594284E+03  0.50400000000E-02 0.  1.
          1   -1    0    0  501    0  0.00000000000E+00 -0.00000000000E+00 -0.40530406492E+04  0.40530406492E+04  0.50400000000E-02 0. -1.
    8880022    1    1    2    0    0  0.29552506505E+03 -0.29055762902E+03 -0.38551281447E+04  0.38803561003E+04  0.15294330000E+03 0.  0.
    8880022    1    1    2    0    0 -0.29552506505E+03  0.29055762902E+03  0.77993438322E+02  0.44859049175E+03  0.15294330000E+03 0.  0.
<mgrwt>
<rscale>  0 0.44175836E+03</rscale>
<asrwt>0</asrwt>
<pdfrwt beam="1">  1        1 0.62354467E+00 0.44175836E+03</pdfrwt>
<pdfrwt beam="2">  1       -1 0.42447071E-01 0.44175836E+03</pdfrwt>
<totfact> 0.57807042E-01</totfact>
</mgrwt>
</event>
<event>
 4    1  0.2731969E-009  0.3741585E+03  0.7818608E-02  0.1053114E+00
          1   -1    0    0  501    0  0.00000000000E+00  0.00000000000E+00  0.19493309155E+04  0.19493309155E+04  0.50400000000E-02 0. -1.
         -1   -1    0    0    0  501 -0.00000000000E+00 -0.00000000000E+00 -0.16667536901E+03  0.16667536909E+03  0.50400000000E-02 0.  1.
    8880022    1    1    2    0    0 -0.19949879238E+03  0.27713380130E+03  0.16894872930E+04  0.17304224565E+04  0.15294330000E+03 0.  0.
    8880022    1    1    2    0    0  0.19949879238E+03 -0.27713380130E+03  0.93168253533E+02  0.38558382807E+03  0.15294330000E+03 0.  1.
<mgrwt>
<rscale>  0 0.37415848E+03</rscale>
<asrwt>0</asrwt>
<pdfrwt beam="1">  1        1 0.29989707E+00 0.37415848E+03</pdfrwt>
<pdfrwt beam="2">  1       -1 0.25642364E-01 0.37415848E+03</pdfrwt>
<totfact> 0.47606882E+01</totfact>
</mgrwt>
</event>
<event>
 4    1  0.2731969E-009  0.7382753E+03  0.7818608E-02  0.9653926E-01
          1   -1    0    0  501    0  0.00000000000E+00  0.00000000000E+00  0.24169281789E+04  0.24169281789E+04  0.50400000000E-02 0. -1.
         -1   -1    0    0    0  501 -0.00000000000E+00 -0.00000000000E+00 -0.59748535321E+03  0.59748535324E+03  0.50400000000E-02 0.  1.
    8880022    1    1    2    0    0 -0.69000749216E+03  0.21342073354E+03 -0.27950385800E+03  0.78941295175E+03  0.15294330000E+03 0.  0.
    8880022    1    1    2    0    0  0.69000749216E+03 -0.21342073354E+03  0.20989466837E+04  0.22250005804E+04  0.15294330000E+03 0.  0.
<mgrwt>
<rscale>  0 0.73827529E+03</rscale>
<asrwt>0</asrwt>
<pdfrwt beam="1">  1        1 0.37183511E+00 0.73827529E+03</pdfrwt>
<pdfrwt beam="2">  1       -1 0.91920823E-01 0.73827529E+03</pdfrwt>
<totfact> 0.18988838E+00</totfact>
</mgrwt>
</event>
<event>
 4    1  0.2731969E-009  0.1452726E+04  0.7818608E-02  0.8916513E-01
         -1   -1    0    0    0  501 -0.00000000000E+00  0.00000000000E+00  0.13381622474E+04  0.13381622474E+04  0.50400000000E-02 0.  1.
          1   -1    0    0  501    0  0.00000000000E+00 -0.00000000000E+00 -0.16347818657E+04  0.16347818657E+04  0.50400000000E-02 0. -1.
    8880022    1    1    2    0    0  0.91063656203E+03  0.11214998274E+04 -0.42753560763E+03  0.15143312583E+04  0.15294330000E+03 0.  0.
    8880022    1    1    2    0    0 -0.91063656203E+03 -0.11214998274E+04  0.13091598925E+03  0.14586128548E+04  0.15294330000E+03 0.  0.
<mgrwt>
<rscale>  0 0.14527259E+04</rscale>
<asrwt>0</asrwt>
<pdfrwt beam="1">  1        1 0.25150490E+00 0.14527259E+04</pdfrwt>
<pdfrwt beam="2">  1       -1 0.20587112E+00 0.14527259E+04</pdfrwt>
<totfact> 0.68912504E-01</totfact>
</mgrwt>
</event>
<event>
 4    1  0.2731969E-009  0.4221125E+03  0.7818608E-02  0.1036381E+00
         -1   -1    0    0    0  501 -0.00000000000E+00  0.00000000000E+00  0.68315594828E+03  0.68315594829E+03  0.50400000000E-02 0.  1.
          1   -1    0    0  501    0  0.00000000000E+00 -0.00000000000E+00 -0.49898545851E+03  0.49898545854E+03  0.50400000000E-02 0. -1.
    8880022    1    1    2    0    0 -0.31091298832E+03  0.24108173062E+03  0.50043967503E+03  0.65468985673E+03  0.15294330000E+03 0.  0.
    8880022    1    1    2    0    0  0.31091298832E+03 -0.24108173062E+03 -0.31626918527E+03  0.52745155011E+03  0.15294330000E+03 0.  0.
<mgrwt>
<rscale>  0 0.42211247E+03</rscale>
<asrwt>0</asrwt>
<pdfrwt beam="1">  1        1 0.76766994E-01 0.42211247E+03</pdfrwt>
<pdfrwt beam="2">  1       -1 0.10510091E+00 0.42211247E+03</pdfrwt>
<totfact> 0.40148100E+01</totfact>
</mgrwt>
</event>
<event>
 4    1  0.2731969E-009  0.1486992E+04  0.7818608E-02  0.8893150E-01
          1   -1    0    0  501    0  0.00000000000E+00  0.00000000000E+00  0.24923637452E+04  0.24923637452E+04  0.50400000000E-02 0. -1.
         -1   -1    0    0    0  501 -0.00000000000E+00 -0.00000000000E+00 -0.11383256539E+04  0.11383256539E+04  0.50400000000E-02 0.  1.
    8880022    1    1    2    0    0  0.12559728077E+04  0.78120709986E+03 -0.17568743137E+03  0.14973342824E+04  0.15294330000E+03 0.  0.
    8880022    1    1    2    0    0 -0.12559728077E+04 -0.78120709986E+03  0.15297255226E+04  0.21333551168E+04  0.15294330000E+03 0.  0.
<mgrwt>
<rscale>  0 0.14869916E+04</rscale>
<asrwt>0</asrwt>
<pdfrwt beam="1">  1        1 0.38344057E+00 0.14869916E+04</pdfrwt>
<pdfrwt beam="2">  1       -1 0.17512703E+00 0.14869916E+04</pdfrwt>
<totfact> 0.29370175E-01</totfact>
</mgrwt>
</event>
<event>
 4    1  0.2731969E-009  0.1087068E+04  0.7818608E-02  0.9217889E-01
         -1   -1    0    0    0  501 -0.00000000000E+00  0.00000000000E+00  0.21934502096E+04  0.21934502096E+04  0.50400000000E-02 0.  1.
          1   -1    0    0  501    0  0.00000000000E+00 -0.00000000000E+00 -0.17386165795E+04  0.17386165795E+04  0.50400000000E-02 0. -1.
    8880022    1    1    2    0    0 -0.77087728709E+03 -0.75104788594E+03 -0.14058452200E+04  0.17771092129E+04  0.15294330000E+03 0.  0.
    8880022    1    1    2    0    0  0.77087728709E+03  0.75104788594E+03  0.18606788502E+04  0.21549575762E+04  0.15294330000E+03 0.  0.
<mgrwt>
<rscale>  0 0.10870678E+04</rscale>
<asrwt>0</asrwt>
<pdfrwt beam="1">  1        1 0.26747947E+00 0.10870678E+04</pdfrwt>
<pdfrwt beam="2">  1       -1 0.33745388E+00 0.10870678E+04</pdfrwt>
<totfact> 0.84969397E-02</totfact>
</mgrwt>
</event>
<event>
 4    1  0.2731969E-009  0.8045295E+03  0.7818608E-02  0.9553484E-01
         -1   -1    0    0    0  501 -0.00000000000E+00  0.00000000000E+00  0.76816137303E+03  0.76816137305E+03  0.50400000000E-02 0.  1.
          1   -1    0    0  501    0  0.00000000000E+00 -0.00000000000E+00 -0.14595915043E+04  0.14595915043E+04  0.50400000000E-02 0. -1.
    8880022    1    1    2    0    0 -0.35358556851E+03  0.70629551349E+03 -0.10699076605E+04  0.13386448975E+04  0.15294330000E+03 0.  0.
    8880022    1    1    2    0    0  0.35358556851E+03 -0.70629551349E+03  0.37847752924E+03  0.88910797982E+03  0.15294330000E+03 0.  0.
<mgrwt>
<rscale>  0 0.80452953E+03</rscale>
<asrwt>0</asrwt>
<pdfrwt beam="1">  1        1 0.22455254E+00 0.80452953E+03</pdfrwt>
<pdfrwt beam="2">  1       -1 0.11817867E+00 0.80452953E+03</pdfrwt>
<totfact> 0.46315714E+00</totfact>
</mgrwt>
</event>
<event>
 4    1  0.2731969E-009  0.1025753E+04  0.7818608E-02  0.9280742E-01
          1   -1    0    0  501    0  0.00000000000E+00  0.00000000000E+00  0.12274194799E+04  0.12274194799E+04  0.50400000000E-02 0. -1.
         -1   -1    0    0    0  501 -0.00000000000E+00 -0.00000000000E+00 -0.87320164527E+03  0.87320164528E+03  0.50400000000E-02 0.  1.
    8880022    1    1    2    0    0  0.80649694685E+03 -0.61509403394E+03  0.31919736821E+03  0.10742702680E+04  0.15294330000E+03 0.  0.
    8880022    1    1    2    0    0 -0.80649694685E+03  0.61509403394E+03  0.35020466392E+02  0.10263508571E+04  0.15294330000E+03 0.  0.
<mgrwt>
<rscale>  0 0.10257532E+04</rscale>
<asrwt>0</asrwt>
<pdfrwt beam="1">  1        1 0.18883377E+00 0.10257532E+04</pdfrwt>
<pdfrwt beam="2">  1       -1 0.13433871E+00 0.10257532E+04</pdfrwt>
<totfact> 0.47621123E+00</totfact>
</mgrwt>
</event>
<event>
 4    1  0.2731969E-009  0.1781081E+03  0.7818608E-02  0.1169647E+00
          1   -1    0    0  501    0  0.00000000000E+00  0.00000000000E+00  0.65832568240E+03  0.65832568242E+03  0.50400000000E-02 0. -1.
         -1   -1    0    0    0  501 -0.00000000000E+00 -0.00000000000E+00 -0.34687001312E+03  0.34687001315E+03  0.50400000000E-02 0.  1.
    8880022    1    1    2    0    0 -0.85057465818E+02  0.33106777660E+02 -0.31065524963E+03  0.35809100569E+03  0.15294330000E+03 0.  1.
    8880022    1    1    2    0    0  0.85057465818E+02 -0.33106777660E+02  0.62211091891E+03  0.64710468988E+03  0.15294330000E+03 0.  0.
<mgrwt>
<rscale>  0 0.17810807E+03</rscale>
<asrwt>0</asrwt>
<pdfrwt beam="1">  1        1 0.10128087E+00 0.17810807E+03</pdfrwt>
<pdfrwt beam="2">  1       -1 0.53364618E-01 0.17810807E+03</pdfrwt>
<totfact> 0.11590489E+02</totfact>
</mgrwt>
</event>
<event>
 4    1  0.2731969E-009  0.6157854E+03  0.7818608E-02  0.9873187E-01
         -1   -1    0    0    0  501 -0.00000000000E+00  0.00000000000E+00  0.13717101583E+04  0.13717101583E+04  0.50400000000E-02 0.  1.
          1   -1    0    0  501    0  0.00000000000E+00 -0.00000000000E+00 -0.33449737743E+03  0.33449737747E+03  0.50400000000E-02 0. -1.
    8880022    1    1    2    0    0 -0.61006306702E+01 -0.59645858884E+03  0.87402868907E+03  0.10691669038E+04  0.15294330000E+03 0.  0.
    8880022    1    1    2    0    0  0.61006306702E+01  0.59645858884E+03  0.16318409177E+03  0.63704063193E+03  0.15294330000E+03 0.  0.
<mgrwt>
<rscale>  0 0.61578545E+03</rscale>
<asrwt>0</asrwt>
<pdfrwt beam="1">  1        1 0.51461134E-01 0.61578545E+03</pdfrwt>
<pdfrwt beam="2">  1       -1 0.21103234E+00 0.61578545E+03</pdfrwt>
<totfact> 0.10103470E+01</totfact>
</mgrwt>
</event>
<event>
 4    1  0.2731969E-009  0.7534468E+03  0.7818608E-02  0.9629958E-01
         -1   -1    0    0    0  501 -0.00000000000E+00  0.00000000000E+00  0.32775783948E+03  0.32775783952E+03  0.50400000000E-02 0.  1.
          1   -1    0    0  501    0  0.00000000000E+00 -0.00000000000E+00 -0.21249124755E+04  0.21249124755E+04  0.50400000000E-02 0. -1.
    8880022    1    1    2    0    0 -0.72654910470E+03 -0.12812789358E+03 -0.14259011543E+04  0.16127231980E+04  0.15294330000E+03 0.  0.
    8880022    1    1    2    0    0  0.72654910470E+03  0.12812789358E+03 -0.37125348175E+03  0.83994711702E+03  0.15294330000E+03 0.  0.
<mgrwt>
<rscale>  0 0.75344675E+03</rscale>
<asrwt>0</asrwt>
<pdfrwt beam="1">  1        1 0.32690960E+00 0.75344675E+03</pdfrwt>
<pdfrwt beam="2">  1       -1 0.50424284E-01 0.75344675E+03</pdfrwt>
<totfact> 0.10136463E+01</totfact>
</mgrwt>
</event>
<event>
 4    1  0.2731969E-009  0.4674634E+03  0.7818608E-02  0.1022639E+00
          1   -1    0    0  501    0  0.00000000000E+00  0.00000000000E+00  0.11141391967E+04  0.11141391967E+04  0.50400000000E-02 0. -1.
         -1   -1    0    0    0  501 -0.00000000000E+00 -0.00000000000E+00 -0.21701329568E+03  0.21701329574E+03  0.50400000000E-02 0.  1.
    8880022    1    1    2    0    0  0.41684246880E+03 -0.14619417244E+03  0.65500538746E+03  0.80470745645E+03  0.15294330000E+03 0.  0.
    8880022    1    1    2    0    0 -0.41684246880E+03  0.14619417244E+03  0.24212051359E+03  0.52644503603E+03  0.15294330000E+03 0.  0.
<mgrwt>
<rscale>  0 0.46746340E+03</rscale>
<asrwt>0</asrwt>
<pdfrwt beam="1">  1        1 0.17140603E+00 0.46746340E+03</pdfrwt>
<pdfrwt beam="2">  1       -1 0.33386661E-01 0.46746340E+03</pdfrwt>
<totfact> 0.10958607E+02</totfact>
</mgrwt>
</event>
<event>
 4    1  0.2731969E-009  0.9130877E+03  0.7818608E-02  0.9409367E-01
          1   -1    0    0  501    0  0.00000000000E+00  0.00000000000E+00  0.28363080032E+04  0.28363080032E+04  0.50400000000E-02 0. -1.
         -1   -1    0    0    0  501 -0.00000000000E+00 -0.00000000000E+00 -0.10729277444E+04  0.10729277444E+04  0.50400000000E-02 0.  1.
    8880022    1    1    2    0    0 -0.54934311963E+03  0.71313372422E+03 -0.78379016351E+03  0.12033520869E+04  0.15294330000E+03 0.  0.
    8880022    1    1    2    0    0  0.54934311963E+03 -0.71313372422E+03  0.25471704224E+04  0.27058836607E+04  0.15294330000E+03 0.  0.
<mgrwt>
<rscale>  0 0.91308774E+03</rscale>
<asrwt>0</asrwt>
<pdfrwt beam="1">  1        1 0.43635507E+00 0.91308774E+03</pdfrwt>
<pdfrwt beam="2">  1       -1 0.16506581E+00 0.91308774E+03</pdfrwt>
<totfact> 0.21916753E-01</totfact>
</mgrwt>
</event>
<event>
 4    1  0.2731969E-009  0.2113661E+04  0.7818608E-02  0.8555249E-01
          1   -1    0    0  501    0  0.00000000000E+00  0.00000000000E+00  0.14102836839E+04  0.14102836839E+04  0.50400000000E-02 0. -1.
         -1   -1    0    0    0  501 -0.00000000000E+00 -0.00000000000E+00 -0.32013371239E+04  0.32013371239E+04  0.50400000000E-02 0.  1.
    8880022    1    1    2    0    0  0.22585014174E+03  0.20959872861E+04 -0.11313668024E+04  0.23974055737E+04  0.15294330000E+03 0.  0.
    8880022    1    1    2    0    0 -0.22585014174E+03 -0.20959872861E+04 -0.65968663766E+03  0.22142152341E+04  0.15294330000E+03 0.  0.
<mgrwt>
<rscale>  0 0.21136610E+04</rscale>
<asrwt>0</asrwt>
<pdfrwt beam="1">  1        1 0.21696672E+00 0.21136610E+04</pdfrwt>
<pdfrwt beam="2">  1       -1 0.49251340E+00 0.21136610E+04</pdfrwt>
<totfact> 0.11064054E-02</totfact>
</mgrwt>
</event>
<event>
 4    1  0.2731969E-009  0.6885047E+03  0.7818608E-02  0.9737095E-01
         -1   -1    0    0    0  501 -0.00000000000E+00  0.00000000000E+00  0.31953534680E+03  0.31953534684E+03  0.50400000000E-02 0.  1.
          1   -1    0    0  501    0  0.00000000000E+00 -0.00000000000E+00 -0.27399797838E+04  0.27399797838E+04  0.50400000000E-02 0. -1.
    8880022    1    1    2    0    0 -0.61763544180E+03 -0.26300856209E+03 -0.22461329962E+04  0.23492875797E+04  0.15294330000E+03 0.  0.
    8880022    1    1    2    0    0  0.61763544180E+03  0.26300856209E+03 -0.17431144084E+03  0.71022755094E+03  0.15294330000E+03 0.  1.
<mgrwt>
<rscale>  0 0.68850468E+03</rscale>
<asrwt>0</asrwt>
<pdfrwt beam="1">  1        1 0.42153534E+00 0.68850468E+03</pdfrwt>
<pdfrwt beam="2">  1       -1 0.49159286E-01 0.68850468E+03</pdfrwt>
<totfact> 0.41073058E+00</totfact>
</mgrwt>
</event>
<event>
 4    1  0.2731969E-009  0.4273635E+03  0.7818608E-02  0.1034696E+00
         -1   -1    0    0    0  501 -0.00000000000E+00  0.00000000000E+00  0.29048371591E+03  0.29048371596E+03  0.50400000000E-02 0.  1.
          1   -1    0    0  501    0  0.00000000000E+00 -0.00000000000E+00 -0.43023964512E+04  0.43023964512E+04  0.50400000000E-02 0. -1.
    8880022    1    1    2    0    0  0.37065424216E+03 -0.14786264966E+03 -0.41279740676E+04  0.41500372873E+04  0.15294330000E+03 0. -1.
    8880022    1    1    2    0    0 -0.37065424216E+03  0.14786264966E+03  0.11606133227E+03  0.44284287988E+03  0.15294330000E+03 0.  0.
<mgrwt>
<rscale>  0 0.42736353E+03</rscale>
<asrwt>0</asrwt>
<pdfrwt beam="1">  1        1 0.66190710E+00 0.42736353E+03</pdfrwt>
<pdfrwt beam="2">  1       -1 0.44689805E-01 0.42736353E+03</pdfrwt>
<totfact> 0.31685307E-01</totfact>
</mgrwt>
</event>
<event>
 4    1  0.2731969E-009  0.5065639E+03  0.7818608E-02  0.1012080E+00
         -1   -1    0    0    0  501 -0.00000000000E+00  0.00000000000E+00  0.12079708692E+04  0.12079708692E+04  0.50400000000E-02 0.  1.
          1   -1    0    0  501    0  0.00000000000E+00 -0.00000000000E+00 -0.10328085540E+04  0.10328085541E+04  0.50400000000E-02 0. -1.
    8880022    1    1    2    0    0  0.33476104050E+03  0.34806659194E+03 -0.91096202423E+03  0.10423333292E+04  0.15294330000E+03 0.  0.
    8880022    1    1    2    0    0 -0.33476104050E+03 -0.34806659194E+03  0.10861243394E+04  0.11984460940E+04  0.15294330000E+03 0.  0.
<mgrwt>
<rscale>  0 0.50656388E+03</rscale>
<asrwt>0</asrwt>
<pdfrwt beam="1">  1        1 0.15889363E+00 0.50656388E+03</pdfrwt>
<pdfrwt beam="2">  1       -1 0.18584167E+00 0.50656388E+03</pdfrwt>
<totfact> 0.29552963E+00</totfact>
</mgrwt>
</event>
<event>
 4    1  0.2731969E-009  0.7257576E+03  0.7818608E-02  0.9674170E-01
          1   -1    0    0  501    0  0.00000000000E+00  0.00000000000E+00  0.14273706117E+04  0.14273706117E+04  0.50400000000E-02 0. -1.
         -1   -1    0    0    0  501 -0.00000000000E+00 -0.00000000000E+00 -0.11141771909E+04  0.11141771910E+04  0.50400000000E-02 0.  1.
    8880022    1    1    2    0    0 -0.39345638221E+02 -0.70836742772E+03  0.11958369455E+04  0.13988388561E+04  0.15294330000E+03 0.  0.
    8880022    1    1    2    0    0  0.39345638221E+02  0.70836742772E+03 -0.88264352475E+03  0.11427089466E+04  0.15294330000E+03 0.  0.
<mgrwt>
<rscale>  0 0.72575764E+03</rscale>
<asrwt>0</asrwt>
<pdfrwt beam="1">  1        1 0.21959548E+00 0.72575764E+03</pdfrwt>
<pdfrwt beam="2">  1       -1 0.17141187E+00 0.72575764E+03</pdfrwt>
<totfact> 0.18578122E+00</totfact>
</mgrwt>
</event>
<event>
 4    1  0.2731969E-009  0.1131488E+04  0.7818608E-02  0.9175033E-01
         -1   -1    0    0    0  501 -0.00000000000E+00  0.00000000000E+00  0.12006160699E+04  0.12006160699E+04  0.50400000000E-02 0.  1.
          1   -1    0    0  501    0  0.00000000000E+00 -0.00000000000E+00 -0.29016954642E+04  0.29016954642E+04  0.50400000000E-02 0. -1.
    8880022    1    1    2    0    0 -0.53488816150E+02  0.11198272783E+04  0.78075615865E+03  0.13747167050E+04  0.15294330000E+03 0.  0.
    8880022    1    1    2    0    0  0.53488816150E+02 -0.11198272783E+04 -0.24818355530E+04  0.27275948291E+04  0.15294330000E+03 0.  0.
<mgrwt>
<rscale>  0 0.11314883E+04</rscale>
<asrwt>0</asrwt>
<pdfrwt beam="1">  1        1 0.44641469E+00 0.11314883E+04</pdfrwt>
<pdfrwt beam="2">  1       -1 0.18471016E+00 0.11314883E+04</pdfrwt>
<totfact> 0.13594227E-01</totfact>
</mgrwt>
</event>
<event>
 4    1  0.2731969E-009  0.1894987E+03  0.7818608E-02  0.1158914E+00
          1   -1    0    0  501    0  0.00000000000E+00  0.00000000000E+00  0.19127077892E+04  0.19127077892E+04  0.50400000000E-02 0. -1.
         -1   -1    0    0    0  501 -0.00000000000E+00 -0.00000000000E+00 -0.21157118590E+03  0.21157118596E+03  0.50400000000E-02 0.  1.
    8880022    1    1    2    0    0 -0.10968579294E+03 -0.22070789899E+02 -0.16335079906E+03  0.25018638953E+03  0.15294330000E+03 0.  0.
    8880022    1    1    2    0    0  0.10968579294E+03  0.22070789899E+02  0.18644874023E+04  0.18740925856E+04  0.15294330000E+03 0. -1.
<mgrwt>
<rscale>  0 0.18949867E+03</rscale>
<asrwt>0</asrwt>
<pdfrwt beam="1">  1        1 0.29426274E+00 0.18949867E+03</pdfrwt>
<pdfrwt beam="2">  1       -1 0.32549413E-01 0.18949867E+03</pdfrwt>
<totfact> 0.35795631E+01</totfact>
</mgrwt>
</event>
<event>
 4    1  0.2731969E-009  0.5577824E+03  0.7818608E-02  0.9997085E-01
          1   -1    0    0  501    0  0.00000000000E+00  0.00000000000E+00  0.24524708808E+04  0.24524708808E+04  0.50400000000E-02 0. -1.
         -1   -1    0    0    0  501 -0.00000000000E+00 -0.00000000000E+00 -0.47146255061E+03  0.47146255064E+03  0.50400000000E-02 0.  1.
    8880022    1    1    2    0    0 -0.12288071435E+03  0.52213973442E+03 -0.25938910796E+03  0.61514545805E+03  0.15294330000E+03 0.  0.
    8880022    1    1    2    0    0  0.12288071435E+03 -0.52213973442E+03  0.22403974382E+04  0.23087879734E+04  0.15294330000E+03 0.  0.
<mgrwt>
<rscale>  0 0.55778242E+03</rscale>
<asrwt>0</asrwt>
<pdfrwt beam="1">  1        1 0.37730320E+00 0.55778242E+03</pdfrwt>
<pdfrwt beam="2">  1       -1 0.72532702E-01 0.55778242E+03</pdfrwt>
<totfact> 0.31045753E+00</totfact>
</mgrwt>
</event>
<event>
 4    1  0.2731969E-009  0.6700343E+03  0.7818608E-02  0.9769896E-01
          1   -1    0    0  501    0  0.00000000000E+00  0.00000000000E+00  0.14872162485E+04  0.14872162485E+04  0.50400000000E-02 0. -1.
         -1   -1    0    0    0  501 -0.00000000000E+00 -0.00000000000E+00 -0.54052831968E+03  0.54052831970E+03  0.50400000000E-02 0.  1.
    8880022    1    1    2    0    0  0.34607558755E+03 -0.55297922027E+03  0.11470373838E+04  0.13283978106E+04  0.15294330000E+03 0.  0.
    8880022    1    1    2    0    0 -0.34607558755E+03  0.55297922027E+03 -0.20034945492E+03  0.69934675766E+03  0.15294330000E+03 0.  0.
<mgrwt>
<rscale>  0 0.67003432E+03</rscale>
<asrwt>0</asrwt>
<pdfrwt beam="1">  1        1 0.22880249E+00 0.67003432E+03</pdfrwt>
<pdfrwt beam="2">  1       -1 0.83158205E-01 0.67003432E+03</pdfrwt>
<totfact> 0.10078890E+01</totfact>
</mgrwt>
</event>
<event>
 4    1  0.2731969E-009  0.4429493E+03  0.7818608E-02  0.1029846E+00
          1   -1    0    0  501    0  0.00000000000E+00  0.00000000000E+00  0.22133203502E+04  0.22133203502E+04  0.50400000000E-02 0. -1.
         -1   -1    0    0    0  501 -0.00000000000E+00 -0.00000000000E+00 -0.61621601324E+03  0.61621601327E+03  0.50400000000E-02 0.  1.
    8880022    1    1    2    0    0  0.39059416196E+03 -0.14229761360E+03  0.21076088774E+04  0.21536525354E+04  0.15294330000E+03 0.  0.
    8880022    1    1    2    0    0 -0.39059416196E+03  0.14229761360E+03 -0.51050454045E+03  0.67588382805E+03  0.15294330000E+03 0.  0.
<mgrwt>
<rscale>  0 0.44294928E+03</rscale>
<asrwt>0</asrwt>
<pdfrwt beam="1">  1        1 0.34051082E+00 0.44294928E+03</pdfrwt>
<pdfrwt beam="2">  1       -1 0.94802465E-01 0.44294928E+03</pdfrwt>
<totfact> 0.26258670E+00</totfact>
</mgrwt>
</event>
<event>
 4    1  0.2731969E-009  0.4381420E+03  0.7818608E-02  0.1031318E+00
          1   -1    0    0  501    0  0.00000000000E+00  0.00000000000E+00  0.46727074084E+03  0.46727074086E+03  0.50400000000E-02 0. -1.
         -1   -1    0    0    0  501 -0.00000000000E+00 -0.00000000000E+00 -0.13283544277E+04  0.13283544277E+04  0.50400000000E-02 0.  1.
    8880022    1    1    2    0    0 -0.41048678845E+03  0.87966359301E+01 -0.11767117428E+04  0.12556348844E+04  0.15294330000E+03 0.  0.
    8880022    1    1    2    0    0  0.41048678845E+03 -0.87966359301E+01  0.31562805593E+03  0.53999028417E+03  0.15294330000E+03 0. -1.
<mgrwt>
<rscale>  0 0.43814203E+03</rscale>
<asrwt>0</asrwt>
<pdfrwt beam="1">  1        1 0.71887807E-01 0.43814203E+03</pdfrwt>
<pdfrwt beam="2">  1       -1 0.20436222E+00 0.43814203E+03</pdfrwt>
<totfact> 0.74589498E+00</totfact>
</mgrwt>
</event>
<event>
 4    1  0.3497220E-009  0.7299010E+03  0.7818608E-02  0.9667421E-01
         -1   -1    0    0    0  501 -0.00000000000E+00  0.00000000000E+00  0.20793991259E+04  0.20793991259E+04  0.50400000000E-02 0.  1.
          1   -1    0    0  501    0  0.00000000000E+00 -0.00000000000E+00 -0.23224706643E+04  0.23224706643E+04  0.50400000000E-02 0. -1.
    8880022    1    1    2    0    0 -0.35733582447E+03  0.61779839882E+03  0.19544530387E+04  0.20862986570E+04  0.15294330000E+03 0.  0.
    8880022    1    1    2    0    0  0.35733582447E+03 -0.61779839882E+03 -0.21975245770E+04  0.23155711332E+04  0.15294330000E+03 0.  0.
<mgrwt>
<rscale>  0 0.72990096E+03</rscale>
<asrwt>0</asrwt>
<pdfrwt beam="1">  1        1 0.35730318E+00 0.72990096E+03</pdfrwt>
<pdfrwt beam="2">  1       -1 0.31990755E+00 0.72990096E+03</pdfrwt>
<totfact> 0.48637964E-02</totfact>
</mgrwt>
</event>
<event>
 4    1  0.2731969E-009  0.4093635E+03  0.7818608E-02  0.1040585E+00
          1   -1    0    0  501    0  0.00000000000E+00  0.00000000000E+00  0.10054980760E+04  0.10054980760E+04  0.50400000000E-02 0. -1.
         -1   -1    0    0    0  501 -0.00000000000E+00 -0.00000000000E+00 -0.99946254197E+03  0.99946254198E+03  0.50400000000E-02 0.  1.
    8880022    1    1    2    0    0 -0.21670668855E+03 -0.31180935057E+03  0.91810614436E+03  0.10052350000E+04  0.15294330000E+03 0.  0.
    8880022    1    1    2    0    0  0.21670668855E+03  0.31180935057E+03 -0.91207061033E+03  0.99972561796E+03  0.15294330000E+03 0.  0.
<mgrwt>
<rscale>  0 0.40936355E+03</rscale>
<asrwt>0</asrwt>
<pdfrwt beam="1">  1        1 0.15469201E+00 0.40936355E+03</pdfrwt>
<pdfrwt beam="2">  1       -1 0.15376347E+00 0.40936355E+03</pdfrwt>
<totfact> 0.54423680E+00</totfact>
</mgrwt>
</event>
<event>
 4    1  0.2731969E-009  0.7539781E+03  0.7818608E-02  0.9629130E-01
         -1   -1    0    0    0  501 -0.00000000000E+00  0.00000000000E+00  0.18539743632E+04  0.18539743632E+04  0.50400000000E-02 0.  1.
          1   -1    0    0  501    0  0.00000000000E+00 -0.00000000000E+00 -0.56258483873E+03  0.56258483875E+03  0.50400000000E-02 0. -1.
    8880022    1    1    2    0    0  0.26009218376E+03 -0.69097278866E+03 -0.16930153883E+03  0.77275222600E+03  0.15294330000E+03 0.  0.
    8880022    1    1    2    0    0 -0.26009218376E+03  0.69097278866E+03  0.14606910633E+04  0.16438069759E+04  0.15294330000E+03 0.  0.
<mgrwt>
<rscale>  0 0.75397811E+03</rscale>
<asrwt>0</asrwt>
<pdfrwt beam="1">  1        1 0.86551512E-01 0.75397811E+03</pdfrwt>
<pdfrwt beam="2">  1       -1 0.28522683E+00 0.75397811E+03</pdfrwt>
<totfact> 0.16245825E+00</totfact>
</mgrwt>
</event>
<event>
 4    1  0.2731969E-009  0.9569016E+03  0.7818608E-02  0.9357120E-01
         -1   -1    0    0    0  501 -0.00000000000E+00  0.00000000000E+00  0.90407671055E+03  0.90407671056E+03  0.50400000000E-02 0.  1.
          1   -1    0    0  501    0  0.00000000000E+00 -0.00000000000E+00 -0.13539271802E+04  0.13539271802E+04  0.50400000000E-02 0. -1.
    8880022    1    1    2    0    0  0.92553969270E+03  0.18879954414E+03 -0.79161703010E+03  0.12419010291E+04  0.15294330000E+03 0.  0.
    8880022    1    1    2    0    0 -0.92553969270E+03 -0.18879954414E+03  0.34176656048E+03  0.10161028617E+04  0.15294330000E+03 0.  0.
<mgrwt>
<rscale>  0 0.95690159E+03</rscale>
<asrwt>0</asrwt>
<pdfrwt beam="1">  1        1 0.20829649E+00 0.95690159E+03</pdfrwt>
<pdfrwt beam="2">  1       -1 0.13908872E+00 0.95690159E+03</pdfrwt>
<totfact> 0.35654541E+00</totfact>
</mgrwt>
</event>
<event>
 4    1  0.2731969E-009  0.3698811E+03  0.7818608E-02  0.1054738E+00
          1   -1    0    0  501    0  0.00000000000E+00  0.00000000000E+00  0.23482628302E+04  0.23482628302E+04  0.50400000000E-02 0. -1.
         -1   -1    0    0    0  501 -0.00000000000E+00 -0.00000000000E+00 -0.23919243409E+03  0.23919243415E+03  0.50400000000E-02 0.  1.
    8880022    1    1    2    0    0 -0.33582876089E+03 -0.25286522299E+02 -0.70655700403E+02  0.37656904528E+03  0.15294330000E+03 0.  1.
    8880022    1    1    2    0    0  0.33582876089E+03  0.25286522299E+02  0.21797260965E+04  0.22108862191E+04  0.15294330000E+03 0.  0.
<mgrwt>
<rscale>  0 0.36988109E+03</rscale>
<asrwt>0</asrwt>
<pdfrwt beam="1">  1        1 0.36127118E+00 0.36988109E+03</pdfrwt>
<pdfrwt beam="2">  1       -1 0.36798838E-01 0.36988109E+03</pdfrwt>
<totfact> 0.13953978E+01</totfact>
</mgrwt>
</event>
<event>
 4    1  0.2731969E-009  0.1032557E+04  0.7818608E-02  0.9273540E-01
         -1   -1    0    0    0  501 -0.00000000000E+00  0.00000000000E+00  0.19235810688E+04  0.19235810688E+04  0.50400000000E-02 0.  1.
          1   -1    0    0  501    0  0.00000000000E+00 -0.00000000000E+00 -0.15121507980E+04  0.15121507980E+04  0.50400000000E-02 0. -1.
    8880022    1    1    2    0    0 -0.98592567447E+03  0.26595721884E+03  0.15729669364E+04  0.18815948857E+04  0.15294330000E+03 0.  0.
    8880022    1    1    2    0    0  0.98592567447E+03 -0.26595721884E+03 -0.11615366655E+04  0.15541369812E+04  0.15294330000E+03 0.  0.
<mgrwt>
<rscale>  0 0.10325572E+04</rscale>
<asrwt>0</asrwt>
<pdfrwt beam="1">  1        1 0.23263859E+00 0.10325572E+04</pdfrwt>
<pdfrwt beam="2">  1       -1 0.29593555E+00 0.10325572E+04</pdfrwt>
<totfact> 0.22755318E-01</totfact>
</mgrwt>
</event>
<event>
 4    1  0.2731969E-009  0.8870183E+03  0.7818608E-02  0.9441956E-01
          1   -1    0    0  501    0  0.00000000000E+00  0.00000000000E+00  0.24640316427E+04  0.24640316427E+04  0.50400000000E-02 0. -1.
         -1   -1    0    0    0  501 -0.00000000000E+00 -0.00000000000E+00 -0.57264558792E+03  0.57264558794E+03  0.50400000000E-02 0.  1.
    8880022    1    1    2    0    0 -0.85058312726E+03  0.19979544658E+03  0.19555729750E+04  0.21473395611E+04  0.15294330000E+03 0.  0.
    8880022    1    1    2    0    0  0.85058312726E+03 -0.19979544658E+03 -0.64186920217E+02  0.88933766962E+03  0.15294330000E+03 0.  0.
<mgrwt>
<rscale>  0 0.88701834E+03</rscale>
<asrwt>0</asrwt>
<pdfrwt beam="1">  1        1 0.37908180E+00 0.88701834E+03</pdfrwt>
<pdfrwt beam="2">  1       -1 0.88099320E-01 0.88701834E+03</pdfrwt>
<totfact> 0.18832285E+00</totfact>
</mgrwt>
</event>
<event>
 4    1  0.2731969E-009  0.1411683E+04  0.7818608E-02  0.8945405E-01
         -1   -1    0    0    0  501 -0.00000000000E+00  0.00000000000E+00  0.13476670727E+04  0.13476670727E+04  0.50400000000E-02 0.  1.
          1   -1    0    0  501    0  0.00000000000E+00 -0.00000000000E+00 -0.18942808082E+04  0.18942808082E+04  0.50400000000E-02 0. -1.
    8880022    1    1    2    0    0 -0.80556258590E+03  0.11491414320E+04  0.48590128912E+03  0.14929664518E+04  0.15294330000E+03 0.  0.
    8880022    1    1    2    0    0  0.80556258590E+03 -0.11491414320E+04 -0.10325150246E+04  0.17489814292E+04  0.15294330000E+03 0.  0.
<mgrwt>
<rscale>  0 0.14116830E+04</rscale>
<asrwt>0</asrwt>
<pdfrwt beam="1">  1        1 0.29142782E+00 0.14116830E+04</pdfrwt>
<pdfrwt beam="2">  1       -1 0.20733339E+00 0.14116830E+04</pdfrwt>
<totfact> 0.44995756E-01</totfact>
</mgrwt>
</event>
<event>
 4    1  0.2731969E-009  0.7281595E+03  0.7818608E-02  0.9670252E-01
          1   -1    0    0  501    0  0.00000000000E+00  0.00000000000E+00  0.35460367403E+04  0.35460367403E+04  0.50400000000E-02 0. -1.
         -1   -1    0    0    0  501 -0.00000000000E+00 -0.00000000000E+00 -0.83604728535E+03  0.83604728536E+03  0.50400000000E-02 0.  1.
    8880022    1    1    2    0    0  0.18426019347E+03  0.68765744551E+03 -0.63047396016E+03  0.96317892871E+03  0.15294330000E+03 0.  0.
    8880022    1    1    2    0    0 -0.18426019347E+03 -0.68765744551E+03  0.33404634152E+04  0.34189050970E+04  0.15294330000E+03 0.  0.
<mgrwt>
<rscale>  0 0.72815948E+03</rscale>
<asrwt>0</asrwt>
<pdfrwt beam="1">  1        1 0.54554412E+00 0.72815948E+03</pdfrwt>
<pdfrwt beam="2">  1       -1 0.12862266E+00 0.72815948E+03</pdfrwt>
<totfact> 0.13299681E-01</totfact>
</mgrwt>
</event>
<event>
 4    1  0.2731969E-009  0.7466393E+03  0.7818608E-02  0.9640637E-01
         -1   -1    0    0    0  501 -0.00000000000E+00  0.00000000000E+00  0.35584734850E+03  0.35584734853E+03  0.50400000000E-02 0.  1.
          1   -1    0    0  501    0  0.00000000000E+00 -0.00000000000E+00 -0.20785577602E+04  0.20785577602E+04  0.50400000000E-02 0. -1.
    8880022    1    1    2    0    0  0.61761875358E+03 -0.39067341477E+03 -0.25726879821E+03  0.78971990562E+03  0.15294330000E+03 0.  0.
    8880022    1    1    2    0    0 -0.61761875358E+03  0.39067341477E+03 -0.14654416135E+04  0.16446852031E+04  0.15294330000E+03 0.  0.
<mgrwt>
<rscale>  0 0.74663933E+03</rscale>
<asrwt>0</asrwt>
<pdfrwt beam="1">  1        1 0.31977811E+00 0.74663933E+03</pdfrwt>
<pdfrwt beam="2">  1       -1 0.54745747E-01 0.74663933E+03</pdfrwt>
<totfact> 0.93123573E+00</totfact>
</mgrwt>
</event>
<event>
 4    1  0.2731969E-009  0.5420686E+03  0.7818608E-02  0.1003347E+00
          1   -1    0    0  501    0  0.00000000000E+00  0.00000000000E+00  0.96917353528E+03  0.96917353529E+03  0.50400000000E-02 0. -1.
         -1   -1    0    0    0  501 -0.00000000000E+00 -0.00000000000E+00 -0.85168163290E+03  0.85168163292E+03  0.50400000000E-02 0.  1.
    8880022    1    1    2    0    0  0.49261286963E+02 -0.51770653949E+03  0.78936997760E+03  0.95757159000E+03  0.15294330000E+03 0.  0.
    8880022    1    1    2    0    0 -0.49261286963E+02  0.51770653949E+03 -0.67187807522E+03  0.86328357821E+03  0.15294330000E+03 0.  1.
<mgrwt>
<rscale>  0 0.54206862E+03</rscale>
<asrwt>0</asrwt>
<pdfrwt beam="1">  1        1 0.14910362E+00 0.54206862E+03</pdfrwt>
<pdfrwt beam="2">  1       -1 0.13102794E+00 0.54206862E+03</pdfrwt>
<totfact> 0.85125296E+00</totfact>
</mgrwt>
</event>
<event>
 4    1  0.2731969E-009  0.9791381E+03  0.7818608E-02  0.9331726E-01
         -1   -1    0    0    0  501 -0.00000000000E+00  0.00000000000E+00  0.79248518597E+03  0.79248518599E+03  0.50400000000E-02 0.  1.
          1   -1    0    0  501    0  0.00000000000E+00 -0.00000000000E+00 -0.14970400678E+04  0.14970400678E+04  0.50400000000E-02 0. -1.
    8880022    1    1    2    0    0  0.96689271381E+03 -0.20934153239E+02 -0.85376099133E+03  0.12990840012E+04  0.15294330000E+03 0.  0.
    8880022    1    1    2    0    0 -0.96689271381E+03  0.20934153239E+02  0.14920610947E+03  0.99044125263E+03  0.15294330000E+03 0.  0.
<mgrwt>
<rscale>  0 0.97913810E+03</rscale>
<asrwt>0</asrwt>
<pdfrwt beam="1">  1        1 0.23031386E+00 0.97913810E+03</pdfrwt>
<pdfrwt beam="2">  1       -1 0.12192080E+00 0.97913810E+03</pdfrwt>
<totfact> 0.39447514E+00</totfact>
</mgrwt>
</event>
<event>
 4    1  0.2731969E-009  0.9945251E+03  0.7818608E-02  0.9314570E-01
          1   -1    0    0  501    0  0.00000000000E+00  0.00000000000E+00  0.82328257744E+03  0.82328257746E+03  0.50400000000E-02 0. -1.
         -1   -1    0    0    0  501 -0.00000000000E+00 -0.00000000000E+00 -0.17256235250E+04  0.17256235250E+04  0.50400000000E-02 0.  1.
    8880022    1    1    2    0    0  0.46173808645E+03 -0.86745972404E+03 -0.11536196470E+04  0.15231278266E+04  0.15294330000E+03 0.  0.
    8880022    1    1    2    0    0 -0.46173808645E+03  0.86745972404E+03  0.25127869946E+03  0.10257782758E+04  0.15294330000E+03 0.  0.
<mgrwt>
<rscale>  0 0.99452506E+03</rscale>
<asrwt>0</asrwt>
<pdfrwt beam="1">  1        1 0.12665886E+00 0.99452506E+03</pdfrwt>
<pdfrwt beam="2">  1       -1 0.26548054E+00 0.99452506E+03</pdfrwt>
<totfact> 0.11788944E+00</totfact>
</mgrwt>
</event>
<event>
 4    1  0.2731969E-009  0.6056482E+03  0.7818608E-02  0.9893757E-01
         -1   -1    0    0    0  501 -0.00000000000E+00  0.00000000000E+00  0.63549617125E+03  0.63549617127E+03  0.50400000000E-02 0.  1.
          1   -1    0    0  501    0  0.00000000000E+00 -0.00000000000E+00 -0.13698381345E+04  0.13698381345E+04  0.50400000000E-02 0. -1.
    8880022    1    1    2    0    0  0.73363931269E+02 -0.58140853321E+03 -0.11298802684E+04  0.12819669352E+04  0.15294330000E+03 0. -1.
    8880022    1    1    2    0    0 -0.73363931269E+02  0.58140853321E+03  0.39553830520E+03  0.72336737056E+03  0.15294330000E+03 0.  0.
<mgrwt>
<rscale>  0 0.60564825E+03</rscale>
<asrwt>0</asrwt>
<pdfrwt beam="1">  1        1 0.21074433E+00 0.60564825E+03</pdfrwt>
<pdfrwt beam="2">  1       -1 0.97768642E-01 0.60564825E+03</pdfrwt>
<totfact> 0.86070501E+00</totfact>
</mgrwt>
</event>
<event>
 4    1  0.7799384E-009  0.2278354E+04  0.7818608E-02  0.8486505E-01
         -1   -1    0    0    0  501 -0.00000000000E+00  0.00000000000E+00  0.20510969002E+04  0.20510969002E+04  0.50400000000E-02 0.  1.
          1   -1    0    0  501    0  0.00000000000E+00 -0.00000000000E+00 -0.41377806652E+04  0.41377806652E+04  0.50400000000E-02 0. -1.
    8880022    1    1    2    0    0  0.15764471202E+04 -0.16377792214E+04  0.88509167145E+03  0.24442350994E+04  0.15294330000E+03 0.  0.
    8880022    1    1    2    0    0 -0.15764471202E+04  0.16377792214E+04 -0.29717754364E+04  0.37446424660E+04  0.15294330000E+03 0.  0.
<mgrwt>
<rscale>  0 0.22783542E+04</rscale>
<asrwt>0</asrwt>
<pdfrwt beam="1">  1        1 0.63658164E+00 0.22783542E+04</pdfrwt>
<pdfrwt beam="2">  1       -1 0.31555337E+00 0.22783542E+04</pdfrwt>
<totfact> 0.16166976E-03</totfact>
</mgrwt>
</event>
<event>
 4    1  0.2731969E-009  0.8637131E+03  0.7818608E-02  0.9472114E-01
          1   -1    0    0  501    0  0.00000000000E+00  0.00000000000E+00  0.10031966520E+04  0.10031966520E+04  0.50400000000E-02 0. -1.
         -1   -1    0    0    0  501 -0.00000000000E+00 -0.00000000000E+00 -0.10437151004E+04  0.10437151004E+04  0.50400000000E-02 0.  1.
    8880022    1    1    2    0    0 -0.88032829368E+02 -0.84549324737E+03  0.52852966115E+03  0.10125926457E+04  0.15294330000E+03 0.  0.
    8880022    1    1    2    0    0  0.88032829368E+02  0.84549324737E+03 -0.56904810964E+03  0.10343191067E+04  0.15294330000E+03 0.  0.
<mgrwt>
<rscale>  0 0.86371307E+03</rscale>
<asrwt>0</asrwt>
<pdfrwt beam="1">  1        1 0.15433795E+00 0.86371307E+03</pdfrwt>
<pdfrwt beam="2">  1       -1 0.16057155E+00 0.86371307E+03</pdfrwt>
<totfact> 0.44404785E+00</totfact>
</mgrwt>
</event>
<event>
 4    1  0.2731969E-009  0.4598537E+03  0.7818608E-02  0.1024824E+00
         -1   -1    0    0    0  501 -0.00000000000E+00  0.00000000000E+00  0.10436318232E+04  0.10436318232E+04  0.50400000000E-02 0.  1.
          1   -1    0    0  501    0  0.00000000000E+00 -0.00000000000E+00 -0.18618267273E+04  0.18618267273E+04  0.50400000000E-02 0. -1.
    8880022    1    1    2    0    0  0.40848281496E+03 -0.14565562478E+03  0.96230434197E+03  0.10665341395E+04  0.15294330000E+03 0.  0.
    8880022    1    1    2    0    0 -0.40848281496E+03  0.14565562478E+03 -0.17804992461E+04  0.18389244111E+04  0.15294330000E+03 0.  0.
<mgrwt>
<rscale>  0 0.45985370E+03</rscale>
<asrwt>0</asrwt>
<pdfrwt beam="1">  1        1 0.28643488E+00 0.45985370E+03</pdfrwt>
<pdfrwt beam="2">  1       -1 0.16055874E+00 0.45985370E+03</pdfrwt>
<totfact> 0.12224050E+00</totfact>
</mgrwt>
</event>
<event>
 4    1  0.2731969E-009  0.6693562E+03  0.7818608E-02  0.9771122E-01
          1   -1    0    0  501    0  0.00000000000E+00  0.00000000000E+00  0.21433576341E+04  0.21433576341E+04  0.50400000000E-02 0. -1.
         -1   -1    0    0    0  501 -0.00000000000E+00 -0.00000000000E+00 -0.63943178470E+03  0.63943178472E+03  0.50400000000E-02 0.  1.
    8880022    1    1    2    0    0 -0.26148156678E+03  0.59688643215E+03  0.18934934567E+04  0.20083214748E+04  0.15294330000E+03 0.  0.
    8880022    1    1    2    0    0  0.26148156678E+03 -0.59688643215E+03 -0.38956760729E+03  0.77446794402E+03  0.15294330000E+03 0.  0.
<mgrwt>
<rscale>  0 0.66935617E+03</rscale>
<asrwt>0</asrwt>
<pdfrwt beam="1">  1        1 0.32974732E+00 0.66935617E+03</pdfrwt>
<pdfrwt beam="2">  1       -1 0.98374122E-01 0.66935617E+03</pdfrwt>
<totfact> 0.25297244E+00</totfact>
</mgrwt>
</event>
<event>
 4    1  0.2731969E-009  0.1076779E+04  0.7818608E-02  0.9228125E-01
         -1   -1    0    0    0  501 -0.00000000000E+00  0.00000000000E+00  0.28961421846E+04  0.28961421846E+04  0.50400000000E-02 0.  1.
          1   -1    0    0  501    0  0.00000000000E+00 -0.00000000000E+00 -0.94677069910E+03  0.94677069912E+03  0.50400000000E-02 0. -1.
    8880022    1    1    2    0    0  0.86999544490E+03 -0.61576686120E+03 -0.48504977852E+03  0.11809851151E+04  0.15294330000E+03 0.  0.
    8880022    1    1    2    0    0 -0.86999544490E+03  0.61576686120E+03  0.24344212641E+04  0.26619277686E+04  0.15294330000E+03 0.  0.
<mgrwt>
<rscale>  0 0.10767788E+04</rscale>
<asrwt>0</asrwt>
<pdfrwt beam="1">  1        1 0.14565703E+00 0.10767788E+04</pdfrwt>
<pdfrwt beam="2">  1       -1 0.44556033E+00 0.10767788E+04</pdfrwt>
<totfact> 0.58620807E-02</totfact>
</mgrwt>
</event>
<event>
 4    1  0.2731969E-009  0.1543853E+04  0.7818608E-02  0.8855804E-01
          1   -1    0    0  501    0  0.00000000000E+00  0.00000000000E+00  0.32731153245E+04  0.32731153245E+04  0.50400000000E-02 0. -1.
         -1   -1    0    0    0  501 -0.00000000000E+00 -0.00000000000E+00 -0.80882266195E+03  0.80882266197E+03  0.50400000000E-02 0.  1.
    8880022    1    1    2    0    0  0.33828835078E+03  0.14985497741E+04  0.18765213916E+04  0.24299824321E+04  0.15294330000E+03 0.  0.
    8880022    1    1    2    0    0 -0.33828835078E+03 -0.14985497741E+04  0.58777127094E+03  0.16519555544E+04  0.15294330000E+03 0.  0.
<mgrwt>
<rscale>  0 0.15438530E+04</rscale>
<asrwt>0</asrwt>
<pdfrwt beam="1">  1        1 0.50355621E+00 0.15438530E+04</pdfrwt>
<pdfrwt beam="2">  1       -1 0.12443425E+00 0.15438530E+04</pdfrwt>
<totfact> 0.20172541E-01</totfact>
</mgrwt>
</event>
<event>
 4    1  0.2731969E-009  0.8817691E+03  0.7818608E-02  0.9448662E-01
          1   -1    0    0  501    0  0.00000000000E+00  0.00000000000E+00  0.12138360856E+04  0.12138360856E+04  0.50400000000E-02 0. -1.
         -1   -1    0    0    0  501 -0.00000000000E+00 -0.00000000000E+00 -0.95585062242E+03  0.95585062244E+03  0.50400000000E-02 0.  1.
    8880022    1    1    2    0    0  0.65631304547E+03 -0.56866364253E+03  0.75206407922E+03  0.11589293267E+04  0.15294330000E+03 0.  0.
    8880022    1    1    2    0    0 -0.65631304547E+03  0.56866364253E+03 -0.49407861609E+03  0.10107573813E+04  0.15294330000E+03 0.  0.
<mgrwt>
<rscale>  0 0.88176913E+03</rscale>
<asrwt>0</asrwt>
<pdfrwt beam="1">  1        1 0.18674401E+00 0.88176913E+03</pdfrwt>
<pdfrwt beam="2">  1       -1 0.14705394E+00 0.88176913E+03</pdfrwt>
<totfact> 0.39151465E+00</totfact>
</mgrwt>
</event>
<event>
 4    1  0.2731969E-009  0.2849756E+03  0.7818608E-02  0.1093002E+00
         -1   -1    0    0    0  501 -0.00000000000E+00  0.00000000000E+00  0.51896202471E+03  0.51896202473E+03  0.50400000000E-02 0.  1.
          1   -1    0    0  501    0  0.00000000000E+00 -0.00000000000E+00 -0.95713974448E+03  0.95713974450E+03  0.50400000000E-02 0. -1.
    8880022    1    1    2    0    0  0.54104756391E+02  0.23429071458E+03  0.45593724476E+03  0.53767079871E+03  0.15294330000E+03 0.  0.
    8880022    1    1    2    0    0 -0.54104756391E+02 -0.23429071458E+03 -0.89411496454E+03  0.93843097052E+03  0.15294330000E+03 0. -1.
<mgrwt>
<rscale>  0 0.28497564E+03</rscale>
<asrwt>0</asrwt>
<pdfrwt beam="1">  1        1 0.14725227E+00 0.28497564E+03</pdfrwt>
<pdfrwt beam="2">  1       -1 0.79840312E-01 0.28497564E+03</pdfrwt>
<totfact> 0.28612664E+01</totfact>
</mgrwt>
</event>
<event>
 4    1  0.2731969E-009  0.8140430E+03  0.7818608E-02  0.9539910E-01
         -1   -1    0    0    0  501 -0.00000000000E+00  0.00000000000E+00  0.16016960708E+04  0.16016960708E+04  0.50400000000E-02 0.  1.
          1   -1    0    0  501    0  0.00000000000E+00 -0.00000000000E+00 -0.25173041004E+04  0.25173041004E+04  0.50400000000E-02 0. -1.
    8880022    1    1    2    0    0 -0.50663981610E+03  0.61853897050E+03 -0.23404693179E+04  0.24779956906E+04  0.15294330000E+03 0.  0.
    8880022    1    1    2    0    0  0.50663981610E+03 -0.61853897050E+03  0.14248612884E+04  0.16410044806E+04  0.15294330000E+03 0.  0.
<mgrwt>
<rscale>  0 0.81404301E+03</rscale>
<asrwt>0</asrwt>
<pdfrwt beam="1">  1        1 0.38727755E+00 0.81404301E+03</pdfrwt>
<pdfrwt beam="2">  1       -1 0.24641478E+00 0.81404301E+03</pdfrwt>
<totfact> 0.10364161E-01</totfact>
</mgrwt>
</event>
<event>
 4    1  0.2731969E-009  0.6478395E+03  0.7818608E-02  0.9810842E-01
          1   -1    0    0  501    0  0.00000000000E+00  0.00000000000E+00  0.12038813126E+04  0.12038813127E+04  0.50400000000E-02 0. -1.
         -1   -1    0    0    0  501 -0.00000000000E+00 -0.00000000000E+00 -0.60231489361E+03  0.60231489363E+03  0.50400000000E-02 0.  1.
    8880022    1    1    2    0    0 -0.56841446283E+03 -0.27057218781E+03  0.88689411517E+03  0.10983064850E+04  0.15294330000E+03 0.  0.
    8880022    1    1    2    0    0  0.56841446283E+03  0.27057218781E+03 -0.28532769613E+03  0.70788972133E+03  0.15294330000E+03 0.  0.
<mgrwt>
<rscale>  0 0.64783946E+03</rscale>
<asrwt>0</asrwt>
<pdfrwt beam="1">  1        1 0.18521251E+00 0.64783946E+03</pdfrwt>
<pdfrwt beam="2">  1       -1 0.92663830E-01 0.64783946E+03</pdfrwt>
<totfact> 0.12613007E+01</totfact>
</mgrwt>
</event>
<event>
 4    1  0.2731969E-009  0.3210051E+03  0.7818608E-02  0.1075188E+00
          1   -1    0    0  501    0  0.00000000000E+00  0.00000000000E+00  0.15206177784E+04  0.15206177785E+04  0.50400000000E-02 0. -1.
         -1   -1    0    0    0  501 -0.00000000000E+00 -0.00000000000E+00 -0.81900218537E+03  0.81900218539E+03  0.50400000000E-02 0.  1.
    8880022    1    1    2    0    0  0.20496288151E+03  0.19401768647E+03 -0.76956202071E+03  0.83382852086E+03  0.15294330000E+03 0.  0.
    8880022    1    1    2    0    0 -0.20496288151E+03 -0.19401768647E+03  0.14711776138E+04  0.15057914430E+04  0.15294330000E+03 0. -1.
<mgrwt>
<rscale>  0 0.32100514E+03</rscale>
<asrwt>0</asrwt>
<pdfrwt beam="1">  1        1 0.23394119E+00 0.32100514E+03</pdfrwt>
<pdfrwt beam="2">  1       -1 0.12600034E+00 0.32100514E+03</pdfrwt>
<totfact> 0.40647736E+00</totfact>
</mgrwt>
</event>
<event>
 4    1  0.2731969E-009  0.4889776E+03  0.7818608E-02  0.1016697E+00
          1   -1    0    0  501    0  0.00000000000E+00  0.00000000000E+00  0.74594838711E+03  0.74594838712E+03  0.50400000000E-02 0. -1.
         -1   -1    0    0    0  501 -0.00000000000E+00 -0.00000000000E+00 -0.83938389251E+03  0.83938389252E+03  0.50400000000E-02 0.  1.
    8880022    1    1    2    0    0 -0.45142041519E+03  0.10921103707E+03 -0.66992484352E+03  0.82939640151E+03  0.15294330000E+03 0.  0.
    8880022    1    1    2    0    0  0.45142041519E+03 -0.10921103707E+03  0.57648933811E+03  0.75593587813E+03  0.15294330000E+03 0.  0.
<mgrwt>
<rscale>  0 0.48897760E+03</rscale>
<asrwt>0</asrwt>
<pdfrwt beam="1">  1        1 0.11476129E+00 0.48897760E+03</pdfrwt>
<pdfrwt beam="2">  1       -1 0.12913598E+00 0.48897760E+03</pdfrwt>
<totfact> 0.13652768E+01</totfact>
</mgrwt>
</event>
<event>
 4    1  0.2731969E-009  0.7611820E+03  0.7818608E-02  0.9617969E-01
          1   -1    0    0  501    0  0.00000000000E+00  0.00000000000E+00  0.22776660250E+04  0.22776660250E+04  0.50400000000E-02 0. -1.
         -1   -1    0    0    0  501 -0.00000000000E+00 -0.00000000000E+00 -0.31031157012E+03  0.31031157016E+03  0.50400000000E-02 0.  1.
    8880022    1    1    2    0    0 -0.11989940821E+03 -0.73595546850E+03  0.43432483301E+03  0.87637665036E+03  0.15294330000E+03 0.  0.
    8880022    1    1    2    0    0  0.11989940821E+03  0.73595546850E+03  0.15330296219E+04  0.17116009448E+04  0.15294330000E+03 0.  0.
<mgrwt>
<rscale>  0 0.76118196E+03</rscale>
<asrwt>0</asrwt>
<pdfrwt beam="1">  1        1 0.35041015E+00 0.76118196E+03</pdfrwt>
<pdfrwt beam="2">  1       -1 0.47740243E-01 0.76118196E+03</pdfrwt>
<totfact> 0.88633172E+00</totfact>
</mgrwt>
</event>
<event>
 4    1  0.2731969E-009  0.1603021E+04  0.7818608E-02  0.8818694E-01
          1   -1    0    0  501    0  0.00000000000E+00  0.00000000000E+00  0.32597661289E+04  0.32597661289E+04  0.50400000000E-02 0. -1.
         -1   -1    0    0    0  501 -0.00000000000E+00 -0.00000000000E+00 -0.86344784655E+03  0.86344784657E+03  0.50400000000E-02 0.  1.
    8880022    1    1    2    0    0  0.13893437149E+04  0.78486146686E+03  0.58996144890E+03  0.17081363074E+04  0.15294330000E+03 0.  0.
    8880022    1    1    2    0    0 -0.13893437149E+04 -0.78486146686E+03  0.18063568335E+04  0.24150776682E+04  0.15294330000E+03 0.  0.
<mgrwt>
<rscale>  0 0.16030206E+04</rscale>
<asrwt>0</asrwt>
<pdfrwt beam="1">  1        1 0.50150249E+00 0.16030206E+04</pdfrwt>
<pdfrwt beam="2">  1       -1 0.13283813E+00 0.16030206E+04</pdfrwt>
<totfact> 0.17367709E-01</totfact>
</mgrwt>
</event>
<event>
 4    1  0.2731969E-009  0.7338624E+03  0.7818608E-02  0.9661014E-01
          1   -1    0    0  501    0  0.00000000000E+00  0.00000000000E+00  0.98939102176E+03  0.98939102177E+03  0.50400000000E-02 0. -1.
         -1   -1    0    0    0  501 -0.00000000000E+00 -0.00000000000E+00 -0.69815238556E+03  0.69815238558E+03  0.50400000000E-02 0.  1.
    8880022    1    1    2    0    0  0.59908651675E+02 -0.71524349307E+03 -0.25044107497E+03  0.77541903895E+03  0.15294330000E+03 0.  0.
    8880022    1    1    2    0    0 -0.59908651675E+02  0.71524349307E+03  0.54167971116E+03  0.91212436840E+03  0.15294330000E+03 0.  0.
<mgrwt>
<rscale>  0 0.73386235E+03</rscale>
<asrwt>0</asrwt>
<pdfrwt beam="1">  1        1 0.15221400E+00 0.73386235E+03</pdfrwt>
<pdfrwt beam="2">  1       -1 0.10740806E+00 0.73386235E+03</pdfrwt>
<totfact> 0.12868864E+01</totfact>
</mgrwt>
</event>
<event>
 4    1  0.2731969E-009  0.1021560E+04  0.7818608E-02  0.9285209E-01
          1   -1    0    0  501    0  0.00000000000E+00  0.00000000000E+00  0.21750597864E+04  0.21750597864E+04  0.50400000000E-02 0. -1.
         -1   -1    0    0    0  501 -0.00000000000E+00 -0.00000000000E+00 -0.96310065576E+03  0.96310065578E+03  0.50400000000E-02 0.  1.
    8880022    1    1    2    0    0 -0.10041891445E+04  0.10861618334E+03  0.17175060162E+04  0.19983522917E+04  0.15294330000E+03 0.  0.
    8880022    1    1    2    0    0  0.10041891445E+04 -0.10861618334E+03 -0.50554688563E+03  0.11398081504E+04  0.15294330000E+03 0.  0.
<mgrwt>
<rscale>  0 0.10215601E+04</rscale>
<asrwt>0</asrwt>
<pdfrwt beam="1">  1        1 0.33462458E+00 0.10215601E+04</pdfrwt>
<pdfrwt beam="2">  1       -1 0.14816933E+00 0.10215601E+04</pdfrwt>
<totfact> 0.82513304E-01</totfact>
</mgrwt>
</event>
<event>
 4    1  0.2731969E-009  0.8317297E+03  0.7818608E-02  0.9515192E-01
         -1   -1    0    0    0  501 -0.00000000000E+00  0.00000000000E+00  0.34774019428E+03  0.34774019432E+03  0.50400000000E-02 0.  1.
          1   -1    0    0  501    0  0.00000000000E+00 -0.00000000000E+00 -0.22069875558E+04  0.22069875558E+04  0.50400000000E-02 0. -1.
    8880022    1    1    2    0    0 -0.46725015148E+03 -0.67086512031E+03 -0.13307572754E+04  0.15692957952E+04  0.15294330000E+03 0.  0.
    8880022    1    1    2    0    0  0.46725015148E+03  0.67086512031E+03 -0.52849008611E+03  0.98543195495E+03  0.15294330000E+03 0.  0.
<mgrwt>
<rscale>  0 0.83172974E+03</rscale>
<asrwt>0</asrwt>
<pdfrwt beam="1">  1        1 0.33953654E+00 0.83172974E+03</pdfrwt>
<pdfrwt beam="2">  1       -1 0.53498493E-01 0.83172974E+03</pdfrwt>
<totfact> 0.78786752E+00</totfact>
</mgrwt>
</event>
<event>
 4    1  0.2731969E-009  0.3713241E+03  0.7818608E-02  0.1054188E+00
          1   -1    0    0  501    0  0.00000000000E+00  0.00000000000E+00  0.13114752406E+04  0.13114752406E+04  0.50400000000E-02 0. -1.
         -1   -1    0    0    0  501 -0.00000000000E+00 -0.00000000000E+00 -0.22414780675E+04  0.22414780675E+04  0.50400000000E-02 0.  1.
    8880022    1    1    2    0    0 -0.33521418005E+03 -0.46058888069E+02  0.12693127905E+04  0.13225114672E+04  0.15294330000E+03 0.  0.
    8880022    1    1    2    0    0  0.33521418005E+03  0.46058888069E+02 -0.21993156174E+04  0.22304418409E+04  0.15294330000E+03 0.  0.
<mgrwt>
<rscale>  0 0.37132415E+03</rscale>
<asrwt>0</asrwt>
<pdfrwt beam="1">  1        1 0.20176542E+00 0.37132415E+03</pdfrwt>
<pdfrwt beam="2">  1       -1 0.34484278E+00 0.37132415E+03</pdfrwt>
<totfact> 0.18476985E-01</totfact>
</mgrwt>
</event>
<event>
 4    1  0.2731969E-009  0.2807440E+03  0.7818608E-02  0.1095283E+00
         -1   -1    0    0    0  501 -0.00000000000E+00  0.00000000000E+00  0.11985121683E+03  0.11985121694E+03  0.50400000000E-02 0.  1.
          1   -1    0    0  501    0  0.00000000000E+00 -0.00000000000E+00 -0.12323285244E+04  0.12323285244E+04  0.50400000000E-02 0. -1.
    8880022    1    1    2    0    0 -0.86214071000E+01  0.23526838542E+03 -0.94535343761E+02  0.29623322919E+03  0.15294330000E+03 0.  1.
    8880022    1    1    2    0    0  0.86214071000E+01 -0.23526838542E+03 -0.10179419638E+04  0.10559465121E+04  0.15294330000E+03 0.  0.
<mgrwt>
<rscale>  0 0.28074400E+03</rscale>
<asrwt>0</asrwt>
<pdfrwt beam="1">  1        1 0.18958900E+00 0.28074400E+03</pdfrwt>
<pdfrwt beam="2">  1       -1 0.18438650E-01 0.28074400E+03</pdfrwt>
<totfact> 0.25169973E+02</totfact>
</mgrwt>
</event>
<event>
 4    1  0.2731969E-009  0.6160567E+03  0.7818608E-02  0.9872642E-01
         -1   -1    0    0    0  501 -0.00000000000E+00  0.00000000000E+00  0.50843069807E+03  0.50843069809E+03  0.50400000000E-02 0.  1.
          1   -1    0    0  501    0  0.00000000000E+00 -0.00000000000E+00 -0.90377933749E+03  0.90377933751E+03  0.50400000000E-02 0. -1.
    8880022    1    1    2    0    0 -0.38678235815E+03 -0.45445967665E+03 -0.49226697481E+03  0.78857632337E+03  0.15294330000E+03 0.  0.
    8880022    1    1    2    0    0  0.38678235815E+03  0.45445967665E+03  0.96918335385E+02  0.62363371223E+03  0.15294330000E+03 0.  0.
<mgrwt>
<rscale>  0 0.61605669E+03</rscale>
<asrwt>0</asrwt>
<pdfrwt beam="1">  1        1 0.13904297E+00 0.61605669E+03</pdfrwt>
<pdfrwt beam="2">  1       -1 0.78220108E-01 0.61605669E+03</pdfrwt>
<totfact> 0.30827292E+01</totfact>
</mgrwt>
</event>
<event>
 4    1  0.2731969E-009  0.1014222E+04  0.7818608E-02  0.9293082E-01
         -1   -1    0    0    0  501 -0.00000000000E+00  0.00000000000E+00  0.94970192378E+03  0.94970192379E+03  0.50400000000E-02 0.  1.
          1   -1    0    0  501    0  0.00000000000E+00 -0.00000000000E+00 -0.24715612094E+04  0.24715612094E+04  0.50400000000E-02 0. -1.
    8880022    1    1    2    0    0 -0.62047857215E+03  0.78756656712E+03  0.52120512688E+03  0.11403074995E+04  0.15294330000E+03 0.  0.
    8880022    1    1    2    0    0  0.62047857215E+03 -0.78756656712E+03 -0.20430644125E+04  0.22809556336E+04  0.15294330000E+03 0.  0.
<mgrwt>
<rscale>  0 0.10142221E+04</rscale>
<asrwt>0</asrwt>
<pdfrwt beam="1">  1        1 0.38024018E+00 0.10142221E+04</pdfrwt>
<pdfrwt beam="2">  1       -1 0.14610799E+00 0.10142221E+04</pdfrwt>
<totfact> 0.53903637E-01</totfact>
</mgrwt>
</event>
<event>
 4    1  0.2731969E-009  0.8213848E+03  0.7818608E-02  0.9529569E-01
         -1   -1    0    0    0  501 -0.00000000000E+00  0.00000000000E+00  0.68623735547E+03  0.68623735549E+03  0.50400000000E-02 0.  1.
          1   -1    0    0  501    0  0.00000000000E+00 -0.00000000000E+00 -0.11919862748E+04  0.11919862748E+04  0.50400000000E-02 0. -1.
    8880022    1    1    2    0    0  0.52641456960E+03  0.61169360793E+03 -0.64595949957E+03  0.10449577490E+04  0.15294330000E+03 0.  0.
    8880022    1    1    2    0    0 -0.52641456960E+03 -0.61169360793E+03  0.14021058028E+03  0.83326588128E+03  0.15294330000E+03 0.  0.
<mgrwt>
<rscale>  0 0.82138482E+03</rscale>
<asrwt>0</asrwt>
<pdfrwt beam="1">  1        1 0.18338250E+00 0.82138482E+03</pdfrwt>
<pdfrwt beam="2">  1       -1 0.10557498E+00 0.82138482E+03</pdfrwt>
<totfact> 0.93298948E+00</totfact>
</mgrwt>
</event>
<event>
 4    1  0.2731969E-009  0.9205304E+03  0.7818608E-02  0.9400275E-01
         -1   -1    0    0    0  501 -0.00000000000E+00  0.00000000000E+00  0.36481417296E+03  0.36481417299E+03  0.50400000000E-02 0.  1.
          1   -1    0    0  501    0  0.00000000000E+00 -0.00000000000E+00 -0.30775316265E+04  0.30775316265E+04  0.50400000000E-02 0. -1.
    8880022    1    1    2    0    0  0.76203775630E+03 -0.49323736201E+03 -0.22087335401E+04  0.23928811382E+04  0.15294330000E+03 0.  0.
    8880022    1    1    2    0    0 -0.76203775630E+03  0.49323736201E+03 -0.50398391345E+03  0.10494646613E+04  0.15294330000E+03 0.  0.
<mgrwt>
<rscale>  0 0.92053044E+03</rscale>
<asrwt>0</asrwt>
<pdfrwt beam="1">  1        1 0.47346639E+00 0.92053044E+03</pdfrwt>
<pdfrwt beam="2">  1       -1 0.56125260E-01 0.92053044E+03</pdfrwt>
<totfact> 0.17565204E+00</totfact>
</mgrwt>
</event>
<event>
 4    1  0.2731969E-009  0.7201053E+03  0.7818608E-02  0.9683454E-01
          1   -1    0    0  501    0  0.00000000000E+00  0.00000000000E+00  0.12280060625E+04  0.12280060626E+04  0.50400000000E-02 0. -1.
         -1   -1    0    0    0  501 -0.00000000000E+00 -0.00000000000E+00 -0.79833400222E+03  0.79833400224E+03  0.50400000000E-02 0.  1.
    8880022    1    1    2    0    0 -0.39312419565E+03 -0.58362088828E+03 -0.48054076690E+03  0.86571996403E+03  0.15294330000E+03 0.  0.
    8880022    1    1    2    0    0  0.39312419565E+03  0.58362088828E+03  0.91021282722E+03  0.11606201008E+04  0.15294330000E+03 0. -1.
<mgrwt>
<rscale>  0 0.72010529E+03</rscale>
<asrwt>0</asrwt>
<pdfrwt beam="1">  1        1 0.18892401E+00 0.72010529E+03</pdfrwt>
<pdfrwt beam="2">  1       -1 0.12282062E+00 0.72010529E+03</pdfrwt>
<totfact> 0.62119606E+00</totfact>
</mgrwt>
</event>
<event>
 4    1  0.2731969E-009  0.9083814E+03  0.7818608E-02  0.9415165E-01
         -1   -1    0    0    0  501 -0.00000000000E+00  0.00000000000E+00  0.16865015492E+04  0.16865015492E+04  0.50400000000E-02 0.  1.
          1   -1    0    0  501    0  0.00000000000E+00 -0.00000000000E+00 -0.61493604020E+03  0.61493604022E+03  0.50400000000E-02 0. -1.
    8880022    1    1    2    0    0  0.33001949127E+03 -0.83237742026E+03  0.15593864034E+02  0.90851519304E+03  0.15294330000E+03 0.  0.
    8880022    1    1    2    0    0 -0.33001949127E+03  0.83237742026E+03  0.10559716450E+04  0.13929223964E+04  0.15294330000E+03 0.  0.
<mgrwt>
<rscale>  0 0.90838136E+03</rscale>
<asrwt>0</asrwt>
<pdfrwt beam="1">  1        1 0.94605546E-01 0.90838136E+03</pdfrwt>
<pdfrwt beam="2">  1       -1 0.25946177E+00 0.90838136E+03</pdfrwt>
<totfact> 0.20418036E+00</totfact>
</mgrwt>
</event>
<event>
 4    1  0.2731969E-009  0.1115210E+04  0.7818608E-02  0.9190493E-01
         -1   -1    0    0    0  501 -0.00000000000E+00  0.00000000000E+00  0.13437903923E+04  0.13437903923E+04  0.50400000000E-02 0.  1.
          1   -1    0    0  501    0  0.00000000000E+00 -0.00000000000E+00 -0.15417782377E+04  0.15417782377E+04  0.50400000000E-02 0. -1.
    8880022    1    1    2    0    0  0.44339596991E+03 -0.10117811043E+04  0.81317450348E+03  0.13801976001E+04  0.15294330000E+03 0.  0.
    8880022    1    1    2    0    0 -0.44339596991E+03  0.10117811043E+04 -0.10111623489E+04  0.15053710300E+04  0.15294330000E+03 0.  0.
<mgrwt>
<rscale>  0 0.11152097E+04</rscale>
<asrwt>0</asrwt>
<pdfrwt beam="1">  1        1 0.23719665E+00 0.11152097E+04</pdfrwt>
<pdfrwt beam="2">  1       -1 0.20673698E+00 0.11152097E+04</pdfrwt>
<totfact> 0.82070518E-01</totfact>
</mgrwt>
</event>
<event>
 4    1  0.2731969E-009  0.2983203E+03  0.7818608E-02  0.1086083E+00
         -1   -1    0    0    0  501 -0.00000000000E+00  0.00000000000E+00  0.41519890696E+02  0.41519891002E+02  0.50400000000E-02 0.  1.
          1   -1    0    0  501    0  0.00000000000E+00 -0.00000000000E+00 -0.23986192293E+04  0.23986192293E+04  0.50400000000E-02 0. -1.
    8880022    1    1    2    0    0  0.17204015182E+03  0.18975128426E+03 -0.15765050184E+04  0.16044821874E+04  0.15294330000E+03 0.  0.
    8880022    1    1    2    0    0 -0.17204015182E+03 -0.18975128426E+03 -0.78059432017E+03  0.83565693285E+03  0.15294330000E+03 0.  0.
<mgrwt>
<rscale>  0 0.29832033E+03</rscale>
<asrwt>0</asrwt>
<pdfrwt beam="1">  1        1 0.36901824E+00 0.29832033E+03</pdfrwt>
<pdfrwt beam="2">  1       -1 0.63876774E-02 0.29832033E+03</pdfrwt>
<totfact> 0.22358335E+02</totfact>
</mgrwt>
</event>
<event>
 4    1  0.2731969E-009  0.1846676E+04  0.7818608E-02  0.8681864E-01
          1   -1    0    0  501    0  0.00000000000E+00  0.00000000000E+00  0.18047141695E+04  0.18047141695E+04  0.50400000000E-02 0. -1.
         -1   -1    0    0    0  501 -0.00000000000E+00 -0.00000000000E+00 -0.24030324304E+04  0.24030324304E+04  0.50400000000E-02 0.  1.
    8880022    1    1    2    0    0 -0.11587199022E+04 -0.14297510264E+04  0.67331015071E+03  0.19655935544E+04  0.15294330000E+03 0.  0.
    8880022    1    1    2    0    0  0.11587199022E+04  0.14297510264E+04 -0.12716284116E+04  0.22421530455E+04  0.15294330000E+03 0.  0.
<mgrwt>
<rscale>  0 0.18466758E+04</rscale>
<asrwt>0</asrwt>
<pdfrwt beam="1">  1        1 0.27764833E+00 0.18466758E+04</pdfrwt>
<pdfrwt beam="2">  1       -1 0.36969730E+00 0.18466758E+04</pdfrwt>
<totfact> 0.42040950E-02</totfact>
</mgrwt>
</event>
<event>
 4    1  0.2731969E-009  0.8951864E+03  0.7818608E-02  0.9431619E-01
          1   -1    0    0  501    0  0.00000000000E+00  0.00000000000E+00  0.70645517597E+03  0.70645517598E+03  0.50400000000E-02 0. -1.
         -1   -1    0    0    0  501 -0.00000000000E+00 -0.00000000000E+00 -0.17208442122E+04  0.17208442122E+04  0.50400000000E-02 0.  1.
    8880022    1    1    2    0    0  0.70239964505E+03  0.53348080329E+03  0.20133675280E+03  0.91754845643E+03  0.15294330000E+03 0.  0.
    8880022    1    1    2    0    0 -0.70239964505E+03 -0.53348080329E+03 -0.12157257890E+04  0.15097509318E+04  0.15294330000E+03 0.  0.
<mgrwt>
<rscale>  0 0.89518640E+03</rscale>
<asrwt>0</asrwt>
<pdfrwt beam="1">  1        1 0.10868541E+00 0.89518640E+03</pdfrwt>
<pdfrwt beam="2">  1       -1 0.26474526E+00 0.89518640E+03</pdfrwt>
<totfact> 0.15384565E+00</totfact>
</mgrwt>
</event>
<event>
 4    1  0.2731969E-009  0.5714892E+03  0.7818608E-02  0.9966389E-01
          1   -1    0    0  501    0  0.00000000000E+00  0.00000000000E+00  0.16258385810E+04  0.16258385810E+04  0.50400000000E-02 0. -1.
         -1   -1    0    0    0  501 -0.00000000000E+00 -0.00000000000E+00 -0.10273453021E+04  0.10273453021E+04  0.50400000000E-02 0.  1.
    8880022    1    1    2    0    0 -0.52245234054E+03 -0.17393049779E+03 -0.89060060990E+03  0.10581915543E+04  0.15294330000E+03 0.  0.
    8880022    1    1    2    0    0  0.52245234054E+03  0.17393049779E+03  0.14890938888E+04  0.15949923288E+04  0.15294330000E+03 0.  0.
<mgrwt>
<rscale>  0 0.57148921E+03</rscale>
<asrwt>0</asrwt>
<pdfrwt beam="1">  1        1 0.25012901E+00 0.57148921E+03</pdfrwt>
<pdfrwt beam="2">  1       -1 0.15805312E+00 0.57148921E+03</pdfrwt>
<totfact> 0.17705582E+00</totfact>
</mgrwt>
</event>
<event>
 4    1  0.2731969E-009  0.4706458E+03  0.7818608E-02  0.1021738E+00
          1   -1    0    0  501    0  0.00000000000E+00  0.00000000000E+00  0.12018139959E+04  0.12018139960E+04  0.50400000000E-02 0. -1.
         -1   -1    0    0    0  501 -0.00000000000E+00 -0.00000000000E+00 -0.24372012786E+03  0.24372012791E+03  0.50400000000E-02 0.  1.
    8880022    1    1    2    0    0 -0.29684153713E+03  0.33166380287E+03  0.83589190232E+03  0.95928238891E+03  0.15294330000E+03 0.  0.
    8880022    1    1    2    0    0  0.29684153713E+03 -0.33166380287E+03  0.12220196576E+03  0.48625173496E+03  0.15294330000E+03 0.  0.
<mgrwt>
<rscale>  0 0.47064576E+03</rscale>
<asrwt>0</asrwt>
<pdfrwt beam="1">  1        1 0.18489446E+00 0.47064576E+03</pdfrwt>
<pdfrwt beam="2">  1       -1 0.37495405E-01 0.47064576E+03</pdfrwt>
<totfact> 0.77109083E+01</totfact>
</mgrwt>
</event>
<event>
 4    1  0.2731969E-009  0.5043053E+03  0.7818608E-02  0.1012661E+00
          1   -1    0    0  501    0  0.00000000000E+00  0.00000000000E+00  0.16929628710E+04  0.16929628710E+04  0.50400000000E-02 0. -1.
         -1   -1    0    0    0  501 -0.00000000000E+00 -0.00000000000E+00 -0.39803044677E+03  0.39803044680E+03  0.50400000000E-02 0.  1.
    8880022    1    1    2    0    0 -0.44134835379E+03  0.19011519314E+03  0.14724030971E+04  0.15563722850E+04  0.15294330000E+03 0.  0.
    8880022    1    1    2    0    0  0.44134835379E+03 -0.19011519314E+03 -0.17747067284E+03  0.53462103287E+03  0.15294330000E+03 0.  0.
<mgrwt>
<rscale>  0 0.50430527E+03</rscale>
<asrwt>0</asrwt>
<pdfrwt beam="1">  1        1 0.26045583E+00 0.50430527E+03</pdfrwt>
<pdfrwt beam="2">  1       -1 0.61235453E-01 0.50430527E+03</pdfrwt>
<totfact> 0.14153246E+01</totfact>
</mgrwt>
</event>
<event>
 4    1  0.2731969E-009  0.5905936E+03  0.7818608E-02  0.9925116E-01
         -1   -1    0    0    0  501 -0.00000000000E+00  0.00000000000E+00  0.13831196006E+04  0.13831196006E+04  0.50400000000E-02 0.  1.
          1   -1    0    0  501    0  0.00000000000E+00 -0.00000000000E+00 -0.11303300092E+04  0.11303300092E+04  0.50400000000E-02 0. -1.
    8880022    1    1    2    0    0 -0.43875201743E+03  0.36456250015E+03 -0.98130198626E+03  0.11453184669E+04  0.15294330000E+03 0.  0.
    8880022    1    1    2    0    0  0.43875201743E+03 -0.36456250015E+03  0.12340915776E+04  0.13681311429E+04  0.15294330000E+03 0.  0.
<mgrwt>
<rscale>  0 0.59059360E+03</rscale>
<asrwt>0</asrwt>
<pdfrwt beam="1">  1        1 0.17389692E+00 0.59059360E+03</pdfrwt>
<pdfrwt beam="2">  1       -1 0.21278763E+00 0.59059360E+03</pdfrwt>
<totfact> 0.16044070E+00</totfact>
</mgrwt>
</event>
<event>
 4    1  0.2731969E-009  0.7508249E+03  0.7818608E-02  0.9634057E-01
         -1   -1    0    0    0  501 -0.00000000000E+00  0.00000000000E+00  0.51697253118E+03  0.51697253121E+03  0.50400000000E-02 0.  1.
          1   -1    0    0  501    0  0.00000000000E+00 -0.00000000000E+00 -0.17996907387E+04  0.17996907387E+04  0.50400000000E-02 0. -1.
    8880022    1    1    2    0    0 -0.53750520266E+03  0.50143242463E+03 -0.13685152659E+04  0.15609522751E+04  0.15294330000E+03 0.  0.
    8880022    1    1    2    0    0  0.53750520266E+03 -0.50143242463E+03  0.85797058363E+02  0.75571099476E+03  0.15294330000E+03 0.  0.
<mgrwt>
<rscale>  0 0.75082486E+03</rscale>
<asrwt>0</asrwt>
<pdfrwt beam="1">  1        1 0.27687549E+00 0.75082486E+03</pdfrwt>
<pdfrwt beam="2">  1       -1 0.79534237E-01 0.75082486E+03</pdfrwt>
<totfact> 0.67264770E+00</totfact>
</mgrwt>
</event>
<event>
 4    1  0.2731969E-009  0.9117003E+03  0.7818608E-02  0.9411072E-01
          1   -1    0    0  501    0  0.00000000000E+00  0.00000000000E+00  0.98119385008E+03  0.98119385010E+03  0.50400000000E-02 0. -1.
         -1   -1    0    0    0  501 -0.00000000000E+00 -0.00000000000E+00 -0.10624005782E+04  0.10624005782E+04  0.50400000000E-02 0.  1.
    8880022    1    1    2    0    0  0.89853902869E+03  0.20819449713E+02  0.41935042052E+03  0.10035199369E+04  0.15294330000E+03 0.  0.
    8880022    1    1    2    0    0 -0.89853902869E+03 -0.20819449713E+02 -0.50055714859E+03  0.10400744914E+04  0.15294330000E+03 0.  0.
<mgrwt>
<rscale>  0 0.91170033E+03</rscale>
<asrwt>0</asrwt>
<pdfrwt beam="1">  1        1 0.15095290E+00 0.91170033E+03</pdfrwt>
<pdfrwt beam="2">  1       -1 0.16344624E+00 0.91170033E+03</pdfrwt>
<totfact> 0.43681910E+00</totfact>
</mgrwt>
</event>
<event>
 4    1  0.2731969E-009  0.8017418E+03  0.7818608E-02  0.9557499E-01
          1   -1    0    0  501    0  0.00000000000E+00  0.00000000000E+00  0.32494554890E+04  0.32494554890E+04  0.50400000000E-02 0. -1.
         -1   -1    0    0    0  501 -0.00000000000E+00 -0.00000000000E+00 -0.28624008429E+03  0.28624008434E+03  0.50400000000E-02 0.  1.
    8880022    1    1    2    0    0 -0.63062118014E+03 -0.47086646349E+03  0.49902705752E+03  0.94436113666E+03  0.15294330000E+03 0.  0.
    8880022    1    1    2    0    0  0.63062118014E+03  0.47086646349E+03  0.24641883472E+04  0.25913344367E+04  0.15294330000E+03 0.  0.
<mgrwt>
<rscale>  0 0.80174182E+03</rscale>
<asrwt>0</asrwt>
<pdfrwt beam="1">  1        1 0.49991622E+00 0.80174182E+03</pdfrwt>
<pdfrwt beam="2">  1       -1 0.44036937E-01 0.80174182E+03</pdfrwt>
<totfact> 0.21258063E+00</totfact>
</mgrwt>
</event>
<event>
 4    1  0.2731969E-009  0.2179322E+03  0.7818608E-02  0.1135434E+00
         -1   -1    0    0    0  501 -0.00000000000E+00  0.00000000000E+00  0.24032451395E+03  0.24032451400E+03  0.50400000000E-02 0.  1.
          1   -1    0    0  501    0  0.00000000000E+00 -0.00000000000E+00 -0.59723289767E+03  0.59723289769E+03  0.50400000000E-02 0. -1.
    8880022    1    1    2    0    0 -0.15418977774E+03 -0.18119413242E+02  0.16409980058E+03  0.27280615510E+03  0.15294330000E+03 0.  0.
    8880022    1    1    2    0    0  0.15418977774E+03  0.18119413242E+02 -0.52100818430E+03  0.56475125659E+03  0.15294330000E+03 0. -1.
<mgrwt>
<rscale>  0 0.21793222E+03</rscale>
<asrwt>0</asrwt>
<pdfrwt beam="1">  1        1 0.91881984E-01 0.21793222E+03</pdfrwt>
<pdfrwt beam="2">  1       -1 0.36973002E-01 0.21793222E+03</pdfrwt>
<totfact> 0.25534271E+02</totfact>
</mgrwt>
</event>
<event>
 4    1  0.2731969E-009  0.5635833E+03  0.7818608E-02  0.9983979E-01
          1   -1    0    0  501    0  0.00000000000E+00  0.00000000000E+00  0.75967525427E+03  0.75967525429E+03  0.50400000000E-02 0. -1.
         -1   -1    0    0    0  501 -0.00000000000E+00 -0.00000000000E+00 -0.82114521793E+03  0.82114521795E+03  0.50400000000E-02 0.  1.
    8880022    1    1    2    0    0  0.52259107167E+03  0.14537213949E+03  0.52301696015E+03  0.76887767606E+03  0.15294330000E+03 0.  0.
    8880022    1    1    2    0    0 -0.52259107167E+03 -0.14537213949E+03 -0.58448692381E+03  0.81194279617E+03  0.15294330000E+03 0.  0.
<mgrwt>
<rscale>  0 0.56358330E+03</rscale>
<asrwt>0</asrwt>
<pdfrwt beam="1">  1        1 0.11687312E+00 0.56358330E+03</pdfrwt>
<pdfrwt beam="2">  1       -1 0.12633003E+00 0.56358330E+03</pdfrwt>
<totfact> 0.13832452E+01</totfact>
</mgrwt>
</event>
<event>
 4    1  0.2731969E-009  0.2915938E+03  0.7818608E-02  0.1089520E+00
          1   -1    0    0  501    0  0.00000000000E+00  0.00000000000E+00  0.21699612544E+04  0.21699612545E+04  0.50400000000E-02 0. -1.
         -1   -1    0    0    0  501 -0.00000000000E+00 -0.00000000000E+00 -0.10503220122E+03  0.10503220134E+03  0.50400000000E-02 0.  1.
    8880022    1    1    2    0    0  0.23917027351E+03 -0.66579817074E+02  0.13180194131E+03  0.31999796331E+03  0.15294330000E+03 0.  0.
    8880022    1    1    2    0    0 -0.23917027351E+03  0.66579817074E+02  0.19331271119E+04  0.19549954925E+04  0.15294330000E+03 0.  0.
<mgrwt>
<rscale>  0 0.29159380E+03</rscale>
<asrwt>0</asrwt>
<pdfrwt beam="1">  1        1 0.33384017E+00 0.29159380E+03</pdfrwt>
<pdfrwt beam="2">  1       -1 0.16158801E-01 0.29159380E+03</pdfrwt>
<totfact> 0.74541398E+01</totfact>
</mgrwt>
</event>
<event>
 4    1  0.2731969E-009  0.4169535E+03  0.7818608E-02  0.1038062E+00
         -1   -1    0    0    0  501 -0.00000000000E+00  0.00000000000E+00  0.26309587928E+03  0.26309587933E+03  0.50400000000E-02 0.  1.
          1   -1    0    0  501    0  0.00000000000E+00 -0.00000000000E+00 -0.11738802710E+04  0.11738802710E+04  0.50400000000E-02 0. -1.
    8880022    1    1    2    0    0  0.20354819483E+03  0.33019185864E+03  0.19621430181E+02  0.41741488314E+03  0.15294330000E+03 0.  0.
    8880022    1    1    2    0    0 -0.20354819483E+03 -0.33019185864E+03 -0.93040582192E+03  0.10195612672E+04  0.15294330000E+03 0.  0.
<mgrwt>
<rscale>  0 0.41695346E+03</rscale>
<asrwt>0</asrwt>
<pdfrwt beam="1">  1        1 0.18059696E+00 0.41695346E+03</pdfrwt>
<pdfrwt beam="2">  1       -1 0.40476290E-01 0.41695346E+03</pdfrwt>
<totfact> 0.70995945E+01</totfact>
</mgrwt>
</event>
<event>
 4    1  0.2731969E-009  0.8006412E+03  0.7818608E-02  0.9559089E-01
         -1   -1    0    0    0  501 -0.00000000000E+00  0.00000000000E+00  0.57866906278E+03  0.57866906280E+03  0.50400000000E-02 0.  1.
          1   -1    0    0  501    0  0.00000000000E+00 -0.00000000000E+00 -0.29840534993E+04  0.29840534993E+04  0.50400000000E-02 0. -1.
    8880022    1    1    2    0    0 -0.73616053291E+03  0.27514066415E+03 -0.26152268597E+04  0.27350389203E+04  0.15294330000E+03 0.  0.
    8880022    1    1    2    0    0  0.73616053291E+03 -0.27514066415E+03  0.20984242313E+03  0.82768364177E+03  0.15294330000E+03 0.  0.
<mgrwt>
<rscale>  0 0.80064122E+03</rscale>
<asrwt>0</asrwt>
<pdfrwt beam="1">  1        1 0.45908515E+00 0.80064122E+03</pdfrwt>
<pdfrwt beam="2">  1       -1 0.89026011E-01 0.80064122E+03</pdfrwt>
<totfact> 0.81088048E-01</totfact>
</mgrwt>
</event>
<event>
 4    1  0.2731969E-009  0.7297842E+03  0.7818608E-02  0.9667611E-01
          1   -1    0    0  501    0  0.00000000000E+00  0.00000000000E+00  0.10192598212E+04  0.10192598212E+04  0.50400000000E-02 0. -1.
         -1   -1    0    0    0  501 -0.00000000000E+00 -0.00000000000E+00 -0.84601475470E+03  0.84601475472E+03  0.50400000000E-02 0.  1.
    8880022    1    1    2    0    0 -0.53139101188E+03 -0.47625299312E+03  0.66333129648E+03  0.98620149202E+03  0.15294330000E+03 0. -1.
    8880022    1    1    2    0    0  0.53139101188E+03  0.47625299312E+03 -0.49008623000E+03  0.87907308389E+03  0.15294330000E+03 0.  0.
<mgrwt>
<rscale>  0 0.72978420E+03</rscale>
<asrwt>0</asrwt>
<pdfrwt beam="1">  1        1 0.15680920E+00 0.72978420E+03</pdfrwt>
<pdfrwt beam="2">  1       -1 0.13015612E+00 0.72978420E+03</pdfrwt>
<totfact> 0.76656366E+00</totfact>
</mgrwt>
</event>
<event>
 4    1  0.2731969E-009  0.3562983E+03  0.7818608E-02  0.1060059E+00
          1   -1    0    0  501    0  0.00000000000E+00  0.00000000000E+00  0.82399980595E+03  0.82399980597E+03  0.50400000000E-02 0. -1.
         -1   -1    0    0    0  501 -0.00000000000E+00 -0.00000000000E+00 -0.14901513938E+04  0.14901513938E+04  0.50400000000E-02 0.  1.
    8880022    1    1    2    0    0  0.29564671172E+03 -0.12708201891E+03  0.76255446581E+03  0.84168746220E+03  0.15294330000E+03 0.  0.
    8880022    1    1    2    0    0 -0.29564671172E+03  0.12708201891E+03 -0.14287060536E+04  0.14724637375E+04  0.15294330000E+03 0.  0.
<mgrwt>
<rscale>  0 0.35629829E+03</rscale>
<asrwt>0</asrwt>
<pdfrwt beam="1">  1        1 0.12676920E+00 0.35629829E+03</pdfrwt>
<pdfrwt beam="2">  1       -1 0.22925406E+00 0.35629829E+03</pdfrwt>
<totfact> 0.23218697E+00</totfact>
</mgrwt>
</event>
<event>
 4    1  0.2731969E-009  0.1463290E+04  0.7818608E-02  0.8909238E-01
          1   -1    0    0  501    0  0.00000000000E+00  0.00000000000E+00  0.12329248016E+04  0.12329248016E+04  0.50400000000E-02 0. -1.
         -1   -1    0    0    0  501 -0.00000000000E+00 -0.00000000000E+00 -0.22012519809E+04  0.22012519809E+04  0.50400000000E-02 0.  1.
    8880022    1    1    2    0    0 -0.43543319482E+03  0.13886053026E+04  0.30465243595E+03  0.14946676933E+04  0.15294330000E+03 0.  0.
    8880022    1    1    2    0    0  0.43543319482E+03 -0.13886053026E+04 -0.12729796152E+04  0.19395090892E+04  0.15294330000E+03 0.  0.
<mgrwt>
<rscale>  0 0.14632903E+04</rscale>
<asrwt>0</asrwt>
<pdfrwt beam="1">  1        1 0.18968074E+00 0.14632903E+04</pdfrwt>
<pdfrwt beam="2">  1       -1 0.33865415E+00 0.14632903E+04</pdfrwt>
<totfact> 0.17796537E-01</totfact>
</mgrwt>
</event>
<event>
 4    1  0.2731969E-009  0.1282491E+04  0.7818608E-02  0.9043566E-01
         -1   -1    0    0    0  501 -0.00000000000E+00  0.00000000000E+00  0.14608028530E+04  0.14608028530E+04  0.50400000000E-02 0.  1.
          1   -1    0    0  501    0  0.00000000000E+00 -0.00000000000E+00 -0.17341261056E+04  0.17341261056E+04  0.50400000000E-02 0. -1.
    8880022    1    1    2    0    0  0.60495351925E+03  0.11204568931E+04  0.80937344660E+03  0.15165320434E+04  0.15294330000E+03 0.  0.
    8880022    1    1    2    0    0 -0.60495351925E+03 -0.11204568931E+04 -0.10826966992E+04  0.16783969152E+04  0.15294330000E+03 0.  0.
<mgrwt>
<rscale>  0 0.12824913E+04</rscale>
<asrwt>0</asrwt>
<pdfrwt beam="1">  1        1 0.26678863E+00 0.12824913E+04</pdfrwt>
<pdfrwt beam="2">  1       -1 0.22473890E+00 0.12824913E+04</pdfrwt>
<totfact> 0.44821462E-01</totfact>
</mgrwt>
</event>
<event>
 4    1  0.2731969E-009  0.1882139E+04  0.7818608E-02  0.8663798E-01
         -1   -1    0    0    0  501 -0.00000000000E+00  0.00000000000E+00  0.13529638036E+04  0.13529638036E+04  0.50400000000E-02 0.  1.
          1   -1    0    0  501    0  0.00000000000E+00 -0.00000000000E+00 -0.32793168049E+04  0.32793168049E+04  0.50400000000E-02 0. -1.
    8880022    1    1    2    0    0  0.14094010331E+04 -0.12380000576E+04 -0.20030579046E+04  0.27485792761E+04  0.15294330000E+03 0.  0.
    8880022    1    1    2    0    0 -0.14094010331E+04  0.12380000576E+04  0.76704903338E+02  0.18837013324E+04  0.15294330000E+03 0.  0.
<mgrwt>
<rscale>  0 0.18821390E+04</rscale>
<asrwt>0</asrwt>
<pdfrwt beam="1">  1        1 0.50451028E+00 0.18821390E+04</pdfrwt>
<pdfrwt beam="2">  1       -1 0.20814828E+00 0.18821390E+04</pdfrwt>
<totfact> 0.44338788E-02</totfact>
</mgrwt>
</event>
<event>
 4    1  0.2731969E-009  0.1933035E+04  0.7818608E-02  0.8638585E-01
         -1   -1    0    0    0  501 -0.00000000000E+00  0.00000000000E+00  0.14675028446E+04  0.14675028446E+04  0.50400000000E-02 0.  1.
          1   -1    0    0  501    0  0.00000000000E+00 -0.00000000000E+00 -0.40396567180E+04  0.40396567180E+04  0.50400000000E-02 0. -1.
    8880022    1    1    2    0    0  0.17085778272E+03  0.19193856896E+04 -0.29603058827E+04  0.35355390508E+04  0.15294330000E+03 0.  0.
    8880022    1    1    2    0    0 -0.17085778272E+03 -0.19193856896E+04  0.38815200922E+03  0.19716205118E+04  0.15294330000E+03 0.  0.
<mgrwt>
<rscale>  0 0.19330353E+04</rscale>
<asrwt>0</asrwt>
<pdfrwt beam="1">  1        1 0.62148565E+00 0.19330353E+04</pdfrwt>
<pdfrwt beam="2">  1       -1 0.22576967E+00 0.19330353E+04</pdfrwt>
<totfact> 0.80221179E-03</totfact>
</mgrwt>
</event>
<event>
 4    1  0.2731969E-009  0.8465925E+03  0.7818608E-02  0.9494922E-01
         -1   -1    0    0    0  501 -0.00000000000E+00  0.00000000000E+00  0.69587160583E+03  0.69587160585E+03  0.50400000000E-02 0.  1.
          1   -1    0    0  501    0  0.00000000000E+00 -0.00000000000E+00 -0.23582076703E+04  0.23582076703E+04  0.50400000000E-02 0. -1.
    8880022    1    1    2    0    0 -0.67614696267E+02  0.82991288242E+03  0.31487013820E+03  0.90325079381E+03  0.15294330000E+03 0.  0.
    8880022    1    1    2    0    0  0.67614696267E+02 -0.82991288242E+03 -0.19772062026E+04  0.21508284823E+04  0.15294330000E+03 0.  0.
<mgrwt>
<rscale>  0 0.84659246E+03</rscale>
<asrwt>0</asrwt>
<pdfrwt beam="1">  1        1 0.36280118E+00 0.84659246E+03</pdfrwt>
<pdfrwt beam="2">  1       -1 0.10705717E+00 0.84659246E+03</pdfrwt>
<totfact> 0.14401719E+00</totfact>
</mgrwt>
</event>
<event>
 4    1  0.2731969E-009  0.7369602E+03  0.7818608E-02  0.9656033E-01
          1   -1    0    0  501    0  0.00000000000E+00  0.00000000000E+00  0.10043720205E+04  0.10043720205E+04  0.50400000000E-02 0. -1.
         -1   -1    0    0    0  501 -0.00000000000E+00 -0.00000000000E+00 -0.12590370250E+04  0.12590370250E+04  0.50400000000E-02 0.  1.
    8880022    1    1    2    0    0  0.56237939277E+03  0.45105217189E+03  0.72746644261E+03  0.10355277501E+04  0.15294330000E+03 0.  0.
    8880022    1    1    2    0    0 -0.56237939277E+03 -0.45105217189E+03 -0.98213144709E+03  0.12278812954E+04  0.15294330000E+03 0.  0.
<mgrwt>
<rscale>  0 0.73696017E+03</rscale>
<asrwt>0</asrwt>
<pdfrwt beam="1">  1        1 0.15451877E+00 0.73696017E+03</pdfrwt>
<pdfrwt beam="2">  1       -1 0.19369800E+00 0.73696017E+03</pdfrwt>
<totfact> 0.26091840E+00</totfact>
</mgrwt>
</event>
<event>
 4    1  0.2731969E-009  0.1369988E+04  0.7818608E-02  0.8975834E-01
          1   -1    0    0  501    0  0.00000000000E+00  0.00000000000E+00  0.23016200460E+04  0.23016200460E+04  0.50400000000E-02 0. -1.
         -1   -1    0    0    0  501 -0.00000000000E+00 -0.00000000000E+00 -0.98695399406E+03  0.98695399407E+03  0.50400000000E-02 0.  1.
    8880022    1    1    2    0    0  0.11538152455E+04 -0.72262470303E+03  0.13427579210E+04  0.19182978313E+04  0.15294330000E+03 0.  0.
    8880022    1    1    2    0    0 -0.11538152455E+04  0.72262470303E+03 -0.28091868986E+02  0.13702762088E+04  0.15294330000E+03 0.  0.
<mgrwt>
<rscale>  0 0.13699882E+04</rscale>
<asrwt>0</asrwt>
<pdfrwt beam="1">  1        1 0.35409539E+00 0.13699882E+04</pdfrwt>
<pdfrwt beam="2">  1       -1 0.15183908E+00 0.13699882E+04</pdfrwt>
<totfact> 0.60392908E-01</totfact>
</mgrwt>
</event>
<event>
 4    1  0.2731969E-009  0.6562448E+03  0.7818608E-02  0.9795131E-01
          1   -1    0    0  501    0  0.00000000000E+00  0.00000000000E+00  0.12818899896E+04  0.12818899897E+04  0.50400000000E-02 0. -1.
         -1   -1    0    0    0  501 -0.00000000000E+00 -0.00000000000E+00 -0.78096877568E+03  0.78096877569E+03  0.50400000000E-02 0.  1.
    8880022    1    1    2    0    0  0.28092408372E+03 -0.57301586917E+03 -0.52813053177E+03  0.84236514572E+03  0.15294330000E+03 0.  0.
    8880022    1    1    2    0    0 -0.28092408372E+03  0.57301586917E+03  0.10290517457E+04  0.12204936196E+04  0.15294330000E+03 0.  0.
<mgrwt>
<rscale>  0 0.65624476E+03</rscale>
<asrwt>0</asrwt>
<pdfrwt beam="1">  1        1 0.19721384E+00 0.65624476E+03</pdfrwt>
<pdfrwt beam="2">  1       -1 0.12014904E+00 0.65624476E+03</pdfrwt>
<totfact> 0.60675175E+00</totfact>
</mgrwt>
</event>
<event>
 4    1  0.2731969E-009  0.1162874E+04  0.7818608E-02  0.9145988E-01
          1   -1    0    0  501    0  0.00000000000E+00  0.00000000000E+00  0.10874678999E+04  0.10874678999E+04  0.50400000000E-02 0. -1.
         -1   -1    0    0    0  501 -0.00000000000E+00 -0.00000000000E+00 -0.16484323241E+04  0.16484323241E+04  0.50400000000E-02 0.  1.
    8880022    1    1    2    0    0 -0.11044694590E+04  0.33019991660E+03  0.39750413057E+03  0.12289369218E+04  0.15294330000E+03 0.  0.
    8880022    1    1    2    0    0  0.11044694590E+04 -0.33019991660E+03 -0.95846855474E+03  0.15069633022E+04  0.15294330000E+03 0.  0.
<mgrwt>
<rscale>  0 0.11628742E+04</rscale>
<asrwt>0</asrwt>
<pdfrwt beam="1">  1        1 0.16730275E+00 0.11628742E+04</pdfrwt>
<pdfrwt beam="2">  1       -1 0.25360497E+00 0.11628742E+04</pdfrwt>
<totfact> 0.84423531E-01</totfact>
</mgrwt>
</event>
<event>
 4    1  0.2731969E-009  0.5831951E+03  0.7818608E-02  0.9940898E-01
         -1   -1    0    0    0  501 -0.00000000000E+00  0.00000000000E+00  0.30156758015E+03  0.30156758019E+03  0.50400000000E-02 0.  1.
          1   -1    0    0  501    0  0.00000000000E+00 -0.00000000000E+00 -0.19126157616E+04  0.19126157616E+04  0.50400000000E-02 0. -1.
    8880022    1    1    2    0    0 -0.37638460688E+03  0.41840110531E+03 -0.15146864759E+04  0.16230809069E+04  0.15294330000E+03 0. -1.
    8880022    1    1    2    0    0  0.37638460688E+03 -0.41840110531E+03 -0.96361705611E+02  0.59110243490E+03  0.15294330000E+03 0.  0.
<mgrwt>
<rscale>  0 0.58319509E+03</rscale>
<asrwt>0</asrwt>
<pdfrwt beam="1">  1        1 0.29424857E+00 0.58319509E+03</pdfrwt>
<pdfrwt beam="2">  1       -1 0.46395013E-01 0.58319509E+03</pdfrwt>
<totfact> 0.16905065E+01</totfact>
</mgrwt>
</event>
<event>
 4    1  0.2731969E-009  0.1203546E+04  0.7818608E-02  0.9109758E-01
          1   -1    0    0  501    0  0.00000000000E+00  0.00000000000E+00  0.22311761398E+04  0.22311761398E+04  0.50400000000E-02 0. -1.
         -1   -1    0    0    0  501 -0.00000000000E+00 -0.00000000000E+00 -0.78711545454E+03  0.78711545455E+03  0.50400000000E-02 0.  1.
    8880022    1    1    2    0    0  0.94029880104E+03 -0.73550655338E+03  0.90364322046E+02  0.12069337550E+04  0.15294330000E+03 0.  0.
    8880022    1    1    2    0    0 -0.94029880104E+03  0.73550655338E+03  0.13536963632E+04  0.18113578393E+04  0.15294330000E+03 0.  0.
<mgrwt>
<rscale>  0 0.12035462E+04</rscale>
<asrwt>0</asrwt>
<pdfrwt beam="1">  1        1 0.34325787E+00 0.12035462E+04</pdfrwt>
<pdfrwt beam="2">  1       -1 0.12109469E+00 0.12035462E+04</pdfrwt>
<totfact> 0.12378951E+00</totfact>
</mgrwt>
</event>
<event>
 4    1  0.2731969E-009  0.1573510E+04  0.7818608E-02  0.8836989E-01
         -1   -1    0    0    0  501 -0.00000000000E+00  0.00000000000E+00  0.20689043934E+04  0.20689043934E+04  0.50400000000E-02 0.  1.
          1   -1    0    0  501    0  0.00000000000E+00 -0.00000000000E+00 -0.13826698091E+04  0.13826698091E+04  0.50400000000E-02 0. -1.
    8880022    1    1    2    0    0 -0.10852524484E+04  0.11290569447E+04 -0.28974056497E+03  0.15999636587E+04  0.15294330000E+03 0.  0.
    8880022    1    1    2    0    0  0.10852524484E+04 -0.11290569447E+04  0.97597514926E+03  0.18516105439E+04  0.15294330000E+03 0.  0.
<mgrwt>
<rscale>  0 0.15735101E+04</rscale>
<asrwt>0</asrwt>
<pdfrwt beam="1">  1        1 0.21271843E+00 0.15735101E+04</pdfrwt>
<pdfrwt beam="2">  1       -1 0.31829298E+00 0.15735101E+04</pdfrwt>
<totfact> 0.18632010E-01</totfact>
</mgrwt>
</event>
<event>
 4    1  0.2731969E-009  0.5762108E+03  0.7818608E-02  0.9956028E-01
         -1   -1    0    0    0  501 -0.00000000000E+00  0.00000000000E+00  0.47779462564E+03  0.47779462567E+03  0.50400000000E-02 0.  1.
          1   -1    0    0  501    0  0.00000000000E+00 -0.00000000000E+00 -0.70801014161E+03  0.70801014163E+03  0.50400000000E-02 0. -1.
    8880022    1    1    2    0    0 -0.51096834138E+03  0.21803338187E+03 -0.34423461433E+02  0.57723810444E+03  0.15294330000E+03 0.  0.
    8880022    1    1    2    0    0  0.51096834138E+03 -0.21803338187E+03 -0.19579205454E+03  0.60856666285E+03  0.15294330000E+03 0.  0.
<mgrwt>
<rscale>  0 0.57621077E+03</rscale>
<asrwt>0</asrwt>
<pdfrwt beam="1">  1        1 0.10892464E+00 0.57621077E+03</pdfrwt>
<pdfrwt beam="2">  1       -1 0.73506866E-01 0.57621077E+03</pdfrwt>
<totfact> 0.51949896E+01</totfact>
</mgrwt>
</event>
<event>
 4    1  0.2731969E-009  0.2163755E+03  0.7818608E-02  0.1136614E+00
         -1   -1    0    0    0  501 -0.00000000000E+00  0.00000000000E+00  0.70644990691E+03  0.70644990692E+03  0.50400000000E-02 0.  1.
          1   -1    0    0  501    0  0.00000000000E+00 -0.00000000000E+00 -0.13204040570E+03  0.13204040579E+03  0.50400000000E-02 0. -1.
    8880022    1    1    2    0    0  0.27171036423E+02 -0.15062681089E+03  0.58308836848E+03  0.62194083308E+03  0.15294330000E+03 0.  1.
    8880022    1    1    2    0    0 -0.27171036423E+02  0.15062681089E+03 -0.86788672674E+01  0.21654947964E+03  0.15294330000E+03 0.  0.
<mgrwt>
<rscale>  0 0.21637549E+03</rscale>
<asrwt>0</asrwt>
<pdfrwt beam="1">  1        1 0.20313908E-01 0.21637549E+03</pdfrwt>
<pdfrwt beam="2">  1       -1 0.10868460E+00 0.21637549E+03</pdfrwt>
<totfact> 0.21072273E+02</totfact>
</mgrwt>
</event>
<event>
 4    1  0.2731969E-009  0.9229596E+03  0.7818608E-02  0.9397327E-01
          1   -1    0    0  501    0  0.00000000000E+00  0.00000000000E+00  0.22333834476E+04  0.22333834476E+04  0.50400000000E-02 0. -1.
         -1   -1    0    0    0  501 -0.00000000000E+00 -0.00000000000E+00 -0.51127367167E+03  0.51127367169E+03  0.50400000000E-02 0.  1.
    8880022    1    1    2    0    0  0.23886557061E+03 -0.87829718316E+03  0.16944599381E+03  0.93838494266E+03  0.15294330000E+03 0.  0.
    8880022    1    1    2    0    0 -0.23886557061E+03  0.87829718316E+03  0.15526637821E+04  0.18062721766E+04  0.15294330000E+03 0.  0.
<mgrwt>
<rscale>  0 0.92295956E+03</rscale>
<asrwt>0</asrwt>
<pdfrwt beam="1">  1        1 0.34359745E+00 0.92295956E+03</pdfrwt>
<pdfrwt beam="2">  1       -1 0.78657490E-01 0.92295956E+03</pdfrwt>
<totfact> 0.34293668E+00</totfact>
</mgrwt>
</event>
<event>
 4    1  0.2731969E-009  0.4536603E+03  0.7818608E-02  0.1026636E+00
          1   -1    0    0  501    0  0.00000000000E+00  0.00000000000E+00  0.24663837264E+04  0.24663837264E+04  0.50400000000E-02 0. -1.
         -1   -1    0    0    0  501 -0.00000000000E+00 -0.00000000000E+00 -0.51729967457E+03  0.51729967460E+03  0.50400000000E-02 0.  1.
    8880022    1    1    2    0    0  0.31040356989E+03  0.29336945483E+03  0.23407717334E+04  0.23843279922E+04  0.15294330000E+03 0. -1.
    8880022    1    1    2    0    0 -0.31040356989E+03 -0.29336945483E+03 -0.39168768156E+03  0.59935540886E+03  0.15294330000E+03 0.  0.
<mgrwt>
<rscale>  0 0.45366030E+03</rscale>
<asrwt>0</asrwt>
<pdfrwt beam="1">  1        1 0.37944365E+00 0.45366030E+03</pdfrwt>
<pdfrwt beam="2">  1       -1 0.79584565E-01 0.45366030E+03</pdfrwt>
<totfact> 0.25855738E+00</totfact>
</mgrwt>
</event>
<event>
 4    1  0.2731969E-009  0.9528067E+03  0.7818608E-02  0.9361876E-01
          1   -1    0    0  501    0  0.00000000000E+00  0.00000000000E+00  0.22407541216E+04  0.22407541216E+04  0.50400000000E-02 0. -1.
         -1   -1    0    0    0  501 -0.00000000000E+00 -0.00000000000E+00 -0.57126970250E+03  0.57126970252E+03  0.50400000000E-02 0.  1.
    8880022    1    1    2    0    0 -0.94002000975E+03  0.28485000913E+02  0.15929347050E+04  0.18561469881E+04  0.15294330000E+03 0.  0.
    8880022    1    1    2    0    0  0.94002000975E+03 -0.28485000913E+02  0.76549714161E+02  0.95587683608E+03  0.15294330000E+03 0.  0.
<mgrwt>
<rscale>  0 0.95280673E+03</rscale>
<asrwt>0</asrwt>
<pdfrwt beam="1">  1        1 0.34473140E+00 0.95280673E+03</pdfrwt>
<pdfrwt beam="2">  1       -1 0.87887647E-01 0.95280673E+03</pdfrwt>
<totfact> 0.26571080E+00</totfact>
</mgrwt>
</event>
<event>
 4    1  0.2731969E-009  0.1422017E+04  0.7818608E-02  0.8938034E-01
          1   -1    0    0  501    0  0.00000000000E+00  0.00000000000E+00  0.17688898133E+04  0.17688898133E+04  0.50400000000E-02 0. -1.
         -1   -1    0    0    0  501 -0.00000000000E+00 -0.00000000000E+00 -0.15337627041E+04  0.15337627042E+04  0.50400000000E-02 0.  1.
    8880022    1    1    2    0    0 -0.11818107907E+04 -0.77592757986E+03 -0.71577011944E+03  0.15919983892E+04  0.15294330000E+03 0.  0.
    8880022    1    1    2    0    0  0.11818107907E+04  0.77592757986E+03  0.95089722856E+03  0.17106541283E+04  0.15294330000E+03 0.  0.
<mgrwt>
<rscale>  0 0.14220169E+04</rscale>
<asrwt>0</asrwt>
<pdfrwt beam="1">  1        1 0.27213689E+00 0.14220169E+04</pdfrwt>
<pdfrwt beam="2">  1       -1 0.23596349E+00 0.14220169E+04</pdfrwt>
<totfact> 0.35141756E-01</totfact>
</mgrwt>
</event>
<event>
 4    1  0.2731969E-009  0.6684627E+03  0.7818608E-02  0.9772739E-01
          1   -1    0    0  501    0  0.00000000000E+00  0.00000000000E+00  0.18138929891E+04  0.18138929891E+04  0.50400000000E-02 0. -1.
         -1   -1    0    0    0  501 -0.00000000000E+00 -0.00000000000E+00 -0.28533784297E+03  0.28533784301E+03  0.50400000000E-02 0.  1.
    8880022    1    1    2    0    0  0.23773680343E+03  0.60574903552E+03  0.37626442271E+03  0.76708360076E+03  0.15294330000E+03 0.  0.
    8880022    1    1    2    0    0 -0.23773680343E+03 -0.60574903552E+03  0.11522907234E+04  0.13321472313E+04  0.15294330000E+03 0.  0.
<mgrwt>
<rscale>  0 0.66846267E+03</rscale>
<asrwt>0</asrwt>
<pdfrwt beam="1">  1        1 0.27906047E+00 0.66846267E+03</pdfrwt>
<pdfrwt beam="2">  1       -1 0.43898127E-01 0.66846267E+03</pdfrwt>
<totfact> 0.21476758E+01</totfact>
</mgrwt>
</event>
<event>
 4    1  0.2731969E-009  0.9172353E+03  0.7818608E-02  0.9404289E-01
         -1   -1    0    0    0  501 -0.00000000000E+00  0.00000000000E+00  0.73087160844E+03  0.73087160846E+03  0.50400000000E-02 0.  1.
          1   -1    0    0  501    0  0.00000000000E+00 -0.00000000000E+00 -0.14441140812E+04  0.14441140812E+04  0.50400000000E-02 0. -1.
    8880022    1    1    2    0    0  0.75912316294E+03  0.49159029864E+03  0.13322001850E+03  0.92685933376E+03  0.15294330000E+03 0.  0.
    8880022    1    1    2    0    0 -0.75912316294E+03 -0.49159029864E+03 -0.84646249129E+03  0.12481263559E+04  0.15294330000E+03 0. -1.
<mgrwt>
<rscale>  0 0.91723533E+03</rscale>
<asrwt>0</asrwt>
<pdfrwt beam="1">  1        1 0.22217140E+00 0.91723533E+03</pdfrwt>
<pdfrwt beam="2">  1       -1 0.11244179E+00 0.91723533E+03</pdfrwt>
<totfact> 0.52636287E+00</totfact>
</mgrwt>
</event>
<event>
 4    1  0.2731969E-009  0.6703945E+03  0.7818608E-02  0.9769245E-01
          1   -1    0    0  501    0  0.00000000000E+00  0.00000000000E+00  0.10057823650E+04  0.10057823650E+04  0.50400000000E-02 0. -1.
         -1   -1    0    0    0  501 -0.00000000000E+00 -0.00000000000E+00 -0.84007609242E+03  0.84007609243E+03  0.50400000000E-02 0.  1.
    8880022    1    1    2    0    0 -0.53220799741E+03  0.37787805110E+03 -0.54858820009E+03  0.86624352252E+03  0.15294330000E+03 0.  0.
    8880022    1    1    2    0    0  0.53220799741E+03 -0.37787805110E+03  0.71429447265E+03  0.97961493490E+03  0.15294330000E+03 0.  0.
<mgrwt>
<rscale>  0 0.67039453E+03</rscale>
<asrwt>0</asrwt>
<pdfrwt beam="1">  1        1 0.15473575E+00 0.67039453E+03</pdfrwt>
<pdfrwt beam="2">  1       -1 0.12924248E+00 0.67039453E+03</pdfrwt>
<totfact> 0.80654685E+00</totfact>
</mgrwt>
</event>
<event>
 4    1  0.2731969E-009  0.1381451E+04  0.7818608E-02  0.8967356E-01
          1   -1    0    0  501    0  0.00000000000E+00  0.00000000000E+00  0.96021362990E+03  0.96021362991E+03  0.50400000000E-02 0. -1.
         -1   -1    0    0    0  501 -0.00000000000E+00 -0.00000000000E+00 -0.22907622536E+04  0.22907622536E+04  0.50400000000E-02 0.  1.
    8880022    1    1    2    0    0  0.60212096902E+03  0.12338826160E+04 -0.73827667016E+02  0.13834226212E+04  0.15294330000E+03 0.  0.
    8880022    1    1    2    0    0 -0.60212096902E+03 -0.12338826160E+04 -0.12567209567E+04  0.18675532623E+04  0.15294330000E+03 0.  0.
<mgrwt>
<rscale>  0 0.13814513E+04</rscale>
<asrwt>0</asrwt>
<pdfrwt beam="1">  1        1 0.14772517E+00 0.13814513E+04</pdfrwt>
<pdfrwt beam="2">  1       -1 0.35242496E+00 0.13814513E+04</pdfrwt>
<totfact> 0.23536548E-01</totfact>
</mgrwt>
</event>
<event>
 4    1  0.2731969E-009  0.9112479E+03  0.7818608E-02  0.9411629E-01
          1   -1    0    0  501    0  0.00000000000E+00  0.00000000000E+00  0.44635571306E+03  0.44635571309E+03  0.50400000000E-02 0. -1.
         -1   -1    0    0    0  501 -0.00000000000E+00 -0.00000000000E+00 -0.23738236581E+04  0.23738236581E+04  0.50400000000E-02 0.  1.
    8880022    1    1    2    0    0  0.43310525577E+03 -0.78702028039E+03 -0.30791128290E+03  0.96186386535E+03  0.15294330000E+03 0.  1.
    8880022    1    1    2    0    0 -0.43310525577E+03  0.78702028039E+03 -0.16195566621E+04  0.18583155058E+04  0.15294330000E+03 0.  0.
<mgrwt>
<rscale>  0 0.91124790E+03</rscale>
<asrwt>0</asrwt>
<pdfrwt beam="1">  1        1 0.68670111E-01 0.91124790E+03</pdfrwt>
<pdfrwt beam="2">  1       -1 0.36520363E+00 0.91124790E+03</pdfrwt>
<totfact> 0.66038808E-01</totfact>
</mgrwt>
</event>
<event>
 4    1  0.2731969E-009  0.9866799E+03  0.7818608E-02  0.9323276E-01
         -1   -1    0    0    0  501 -0.00000000000E+00  0.00000000000E+00  0.10419209893E+04  0.10419209893E+04  0.50400000000E-02 0.  1.
          1   -1    0    0  501    0  0.00000000000E+00 -0.00000000000E+00 -0.14367322435E+04  0.14367322435E+04  0.50400000000E-02 0. -1.
    8880022    1    1    2    0    0 -0.45858431618E+03  0.86014300801E+03 -0.93024262573E+03  0.13560562544E+04  0.15294330000E+03 0.  0.
    8880022    1    1    2    0    0  0.45858431618E+03 -0.86014300801E+03  0.53543137150E+03  0.11225969784E+04  0.15294330000E+03 0.  0.
<mgrwt>
<rscale>  0 0.98667990E+03</rscale>
<asrwt>0</asrwt>
<pdfrwt beam="1">  1        1 0.22103573E+00 0.98667990E+03</pdfrwt>
<pdfrwt beam="2">  1       -1 0.16029554E+00 0.98667990E+03</pdfrwt>
<totfact> 0.21198750E+00</totfact>
</mgrwt>
</event>
<event>
 4    1  0.2731969E-009  0.8613109E+03  0.7818608E-02  0.9475280E-01
         -1   -1    0    0    0  501 -0.00000000000E+00  0.00000000000E+00  0.41730605884E+03  0.41730605887E+03  0.50400000000E-02 0.  1.
          1   -1    0    0  501    0  0.00000000000E+00 -0.00000000000E+00 -0.20352009415E+04  0.20352009415E+04  0.50400000000E-02 0. -1.
    8880022    1    1    2    0    0  0.61697404863E+03  0.58121238686E+03 -0.12451044024E+04  0.15139819818E+04  0.15294330000E+03 0.  0.
    8880022    1    1    2    0    0 -0.61697404863E+03 -0.58121238686E+03 -0.37279048026E+03  0.93852501858E+03  0.15294330000E+03 0.  0.
<mgrwt>
<rscale>  0 0.86131090E+03</rscale>
<asrwt>0</asrwt>
<pdfrwt beam="1">  1        1 0.31310783E+00 0.86131090E+03</pdfrwt>
<pdfrwt beam="2">  1       -1 0.64200933E-01 0.86131090E+03</pdfrwt>
<totfact> 0.71508722E+00</totfact>
</mgrwt>
</event>
<event>
 4    1  0.2731969E-009  0.8523996E+03  0.7818608E-02  0.9487122E-01
          1   -1    0    0  501    0  0.00000000000E+00  0.00000000000E+00  0.26654818049E+04  0.26654818049E+04  0.50400000000E-02 0. -1.
         -1   -1    0    0    0  501 -0.00000000000E+00 -0.00000000000E+00 -0.97292421652E+03  0.97292421654E+03  0.50400000000E-02 0.  1.
    8880022    1    1    2    0    0  0.21968221512E+02  0.83827851551E+03 -0.69717689032E+03  0.11011996830E+04  0.15294330000E+03 0.  0.
    8880022    1    1    2    0    0 -0.21968221512E+02 -0.83827851551E+03  0.23897344787E+04  0.25372063384E+04  0.15294330000E+03 0.  0.
<mgrwt>
<rscale>  0 0.85239963E+03</rscale>
<asrwt>0</asrwt>
<pdfrwt beam="1">  1        1 0.41007412E+00 0.85239963E+03</pdfrwt>
<pdfrwt beam="2">  1       -1 0.14968065E+00 0.85239963E+03</pdfrwt>
<totfact> 0.38294562E-01</totfact>
</mgrwt>
</event>
<event>
 4    1  0.2731969E-009  0.1012048E+04  0.7818608E-02  0.9295428E-01
         -1   -1    0    0    0  501 -0.00000000000E+00  0.00000000000E+00  0.72114414139E+03  0.72114414140E+03  0.50400000000E-02 0.  1.
          1   -1    0    0  501    0  0.00000000000E+00 -0.00000000000E+00 -0.16456971957E+04  0.16456971957E+04  0.50400000000E-02 0. -1.
    8880022    1    1    2    0    0 -0.50753774991E+03 -0.86212260659E+03 -0.90023976482E+03  0.13545011050E+04  0.15294330000E+03 0.  0.
    8880022    1    1    2    0    0  0.50753774991E+03  0.86212260659E+03 -0.24313289480E+02  0.10123402321E+04  0.15294330000E+03 0.  0.
<mgrwt>
<rscale>  0 0.10120482E+04</rscale>
<asrwt>0</asrwt>
<pdfrwt beam="1">  1        1 0.25318418E+00 0.10120482E+04</pdfrwt>
<pdfrwt beam="2">  1       -1 0.11094525E+00 0.10120482E+04</pdfrwt>
<totfact> 0.39032051E+00</totfact>
</mgrwt>
</event>
<event>
 4    1  0.2731969E-009  0.9485800E+03  0.7818608E-02  0.9366812E-01
         -1   -1    0    0    0  501 -0.00000000000E+00  0.00000000000E+00  0.16543125451E+04  0.16543125451E+04  0.50400000000E-02 0.  1.
          1   -1    0    0  501    0  0.00000000000E+00 -0.00000000000E+00 -0.98290856133E+03  0.98290856135E+03  0.50400000000E-02 0. -1.
    8880022    1    1    2    0    0  0.72505460297E+03 -0.59220619950E+03 -0.54552842830E+03  0.10942601515E+04  0.15294330000E+03 0. -1.
    8880022    1    1    2    0    0 -0.72505460297E+03  0.59220619950E+03  0.12169324120E+04  0.15429609549E+04  0.15294330000E+03 0.  0.
<mgrwt>
<rscale>  0 0.94858000E+03</rscale>
<asrwt>0</asrwt>
<pdfrwt beam="1">  1        1 0.15121670E+00 0.94858000E+03</pdfrwt>
<pdfrwt beam="2">  1       -1 0.25450962E+00 0.94858000E+03</pdfrwt>
<totfact> 0.10334563E+00</totfact>
</mgrwt>
</event>
<event>
 4    1  0.2731969E-009  0.7037874E+03  0.7818608E-02  0.9710777E-01
         -1   -1    0    0    0  501 -0.00000000000E+00  0.00000000000E+00  0.45939150421E+03  0.45939150423E+03  0.50400000000E-02 0.  1.
          1   -1    0    0  501    0  0.00000000000E+00 -0.00000000000E+00 -0.14303599757E+04  0.14303599757E+04  0.50400000000E-02 0. -1.
    8880022    1    1    2    0    0  0.68478647771E+03 -0.54703623063E+02 -0.16648152852E+02  0.70398424729E+03  0.15294330000E+03 0.  0.
    8880022    1    1    2    0    0 -0.68478647771E+03  0.54703623063E+02 -0.95432031861E+03  0.11857672326E+04  0.15294330000E+03 0.  0.
<mgrwt>
<rscale>  0 0.70378737E+03</rscale>
<asrwt>0</asrwt>
<pdfrwt beam="1">  1        1 0.22005538E+00 0.70378737E+03</pdfrwt>
<pdfrwt beam="2">  1       -1 0.70675617E-01 0.70378737E+03</pdfrwt>
<totfact> 0.15419458E+01</totfact>
</mgrwt>
</event>
<event>
 4    1  0.2731969E-009  0.7830102E+03  0.7818608E-02  0.9584940E-01
          1   -1    0    0  501    0  0.00000000000E+00  0.00000000000E+00  0.16772084630E+04  0.16772084630E+04  0.50400000000E-02 0. -1.
         -1   -1    0    0    0  501 -0.00000000000E+00 -0.00000000000E+00 -0.42111149214E+03  0.42111149217E+03  0.50400000000E-02 0.  1.
    8880022    1    1    2    0    0 -0.29042904723E+03 -0.71088977484E+03  0.10091378686E+04  0.12772878275E+04  0.15294330000E+03 0.  0.
    8880022    1    1    2    0    0  0.29042904723E+03  0.71088977484E+03  0.24695910223E+03  0.82103212765E+03  0.15294330000E+03 0.  0.
<mgrwt>
<rscale>  0 0.78301019E+03</rscale>
<asrwt>0</asrwt>
<pdfrwt beam="1">  1        1 0.25803207E+00 0.78301019E+03</pdfrwt>
<pdfrwt beam="2">  1       -1 0.64786383E-01 0.78301019E+03</pdfrwt>
<totfact> 0.12349610E+01</totfact>
</mgrwt>
</event>
<event>
 4    1  0.2731969E-009  0.7406587E+03  0.7818608E-02  0.9650120E-01
          1   -1    0    0  501    0  0.00000000000E+00  0.00000000000E+00  0.99337066233E+03  0.99337066234E+03  0.50400000000E-02 0. -1.
         -1   -1    0    0    0  501 -0.00000000000E+00 -0.00000000000E+00 -0.10981336374E+04  0.10981336375E+04  0.50400000000E-02 0.  1.
    8880022    1    1    2    0    0 -0.24908602097E+02  0.72426736628E+03  0.68493962316E+03  0.10088199030E+04  0.15294330000E+03 0.  0.
    8880022    1    1    2    0    0  0.24908602097E+02 -0.72426736628E+03 -0.78970259828E+03  0.10826843968E+04  0.15294330000E+03 0.  0.
<mgrwt>
<rscale>  0 0.74065870E+03</rscale>
<asrwt>0</asrwt>
<pdfrwt beam="1">  1        1 0.15282626E+00 0.74065870E+03</pdfrwt>
<pdfrwt beam="2">  1       -1 0.16894364E+00 0.74065870E+03</pdfrwt>
<totfact> 0.39886239E+00</totfact>
</mgrwt>
</event>
<event>
 4    1  0.2731969E-009  0.7756172E+03  0.7818608E-02  0.9595997E-01
         -1   -1    0    0    0  501 -0.00000000000E+00  0.00000000000E+00  0.93454354522E+03  0.93454354524E+03  0.50400000000E-02 0.  1.
          1   -1    0    0  501    0  0.00000000000E+00 -0.00000000000E+00 -0.13081825331E+04  0.13081825331E+04  0.50400000000E-02 0. -1.
    8880022    1    1    2    0    0 -0.39244188051E+03  0.65129087762E+03  0.61236695388E+03  0.98821828361E+03  0.15294330000E+03 0.  0.
    8880022    1    1    2    0    0  0.39244188051E+03 -0.65129087762E+03 -0.98600594177E+03  0.12545077947E+04  0.15294330000E+03 0.  0.
<mgrwt>
<rscale>  0 0.77561723E+03</rscale>
<asrwt>0</asrwt>
<pdfrwt beam="1">  1        1 0.20125885E+00 0.77561723E+03</pdfrwt>
<pdfrwt beam="2">  1       -1 0.14377593E+00 0.77561723E+03</pdfrwt>
<totfact> 0.36160348E+00</totfact>
</mgrwt>
</event>
<event>
 4    1  0.2731969E-009  0.7668384E+03  0.7818608E-02  0.9609298E-01
          1   -1    0    0  501    0  0.00000000000E+00  0.00000000000E+00  0.19666779725E+04  0.19666779725E+04  0.50400000000E-02 0. -1.
         -1   -1    0    0    0  501 -0.00000000000E+00 -0.00000000000E+00 -0.88818864040E+03  0.88818864042E+03  0.50400000000E-02 0.  1.
    8880022    1    1    2    0    0 -0.44294253589E+01 -0.75141855196E+03 -0.62335334830E+03  0.98823605980E+03  0.15294330000E+03 0.  1.
    8880022    1    1    2    0    0  0.44294253589E+01  0.75141855196E+03  0.17018426804E+04  0.18666305531E+04  0.15294330000E+03 0.  0.
<mgrwt>
<rscale>  0 0.76683839E+03</rscale>
<asrwt>0</asrwt>
<pdfrwt beam="1">  1        1 0.30256584E+00 0.76683839E+03</pdfrwt>
<pdfrwt beam="2">  1       -1 0.13664441E+00 0.76683839E+03</pdfrwt>
<totfact> 0.14747360E+00</totfact>
</mgrwt>
</event>
<event>
 4    1  0.2731969E-009  0.1252245E+04  0.7818608E-02  0.9068317E-01
          1   -1    0    0  501    0  0.00000000000E+00  0.00000000000E+00  0.21118390347E+04  0.21118390347E+04  0.50400000000E-02 0. -1.
         -1   -1    0    0    0  501 -0.00000000000E+00 -0.00000000000E+00 -0.80054544137E+03  0.80054544139E+03  0.50400000000E-02 0.  1.
    8880022    1    1    2    0    0 -0.10999863081E+04 -0.57858009603E+03  0.10476369424E+04  0.16326847894E+04  0.15294330000E+03 0.  0.
    8880022    1    1    2    0    0  0.10999863081E+04  0.57858009603E+03  0.26365665092E+03  0.12796996867E+04  0.15294330000E+03 0.  0.
<mgrwt>
<rscale>  0 0.12522446E+04</rscale>
<asrwt>0</asrwt>
<pdfrwt beam="1">  1        1 0.32489831E+00 0.12522446E+04</pdfrwt>
<pdfrwt beam="2">  1       -1 0.12316084E+00 0.12522446E+04</pdfrwt>
<totfact> 0.14218009E+00</totfact>
</mgrwt>
</event>
<event>
 4    1  0.2731969E-009  0.6591887E+03  0.7818608E-02  0.9789688E-01
         -1   -1    0    0    0  501 -0.00000000000E+00  0.00000000000E+00  0.85682637756E+03  0.85682637758E+03  0.50400000000E-02 0.  1.
          1   -1    0    0  501    0  0.00000000000E+00 -0.00000000000E+00 -0.20085904422E+04  0.20085904422E+04  0.50400000000E-02 0. -1.
    8880022    1    1    2    0    0  0.56311610214E+03 -0.30665670024E+03 -0.18145868248E+04  0.19306100264E+04  0.15294330000E+03 0.  0.
    8880022    1    1    2    0    0 -0.56311610214E+03  0.30665670024E+03  0.66282276025E+03  0.93480679330E+03  0.15294330000E+03 0.  0.
<mgrwt>
<rscale>  0 0.65918869E+03</rscale>
<asrwt>0</asrwt>
<pdfrwt beam="1">  1        1 0.30901391E+00 0.65918869E+03</pdfrwt>
<pdfrwt beam="2">  1       -1 0.13181944E+00 0.65918869E+03</pdfrwt>
<totfact> 0.15509958E+00</totfact>
</mgrwt>
</event>
<event>
 4    1  0.2731969E-009  0.6256415E+03  0.7818608E-02  0.9853591E-01
         -1   -1    0    0    0  501 -0.00000000000E+00  0.00000000000E+00  0.70914033919E+03  0.70914033921E+03  0.50400000000E-02 0.  1.
          1   -1    0    0  501    0  0.00000000000E+00 -0.00000000000E+00 -0.13853462131E+04  0.13853462131E+04  0.50400000000E-02 0. -1.
    8880022    1    1    2    0    0  0.26304553211E+02 -0.60608883751E+03  0.47414355140E+03  0.78500915206E+03  0.15294330000E+03 0.  0.
    8880022    1    1    2    0    0 -0.26304553211E+02  0.60608883751E+03 -0.11503494253E+04  0.13094774003E+04  0.15294330000E+03 0.  0.
<mgrwt>
<rscale>  0 0.62564148E+03</rscale>
<asrwt>0</asrwt>
<pdfrwt beam="1">  1        1 0.21313019E+00 0.62564148E+03</pdfrwt>
<pdfrwt beam="2">  1       -1 0.10909851E+00 0.62564148E+03</pdfrwt>
<totfact> 0.65012983E+00</totfact>
</mgrwt>
</event>
<event>
 4    1  0.2731969E-009  0.8469442E+03  0.7818608E-02  0.9494448E-01
         -1   -1    0    0    0  501 -0.00000000000E+00  0.00000000000E+00  0.91283241417E+03  0.91283241418E+03  0.50400000000E-02 0.  1.
          1   -1    0    0  501    0  0.00000000000E+00 -0.00000000000E+00 -0.18154511391E+04  0.18154511391E+04  0.50400000000E-02 0. -1.
    8880022    1    1    2    0    0  0.75421861003E+03  0.35366242478E+03  0.57602021552E+03  0.10242625465E+04  0.15294330000E+03 0.  0.
    8880022    1    1    2    0    0 -0.75421861003E+03 -0.35366242478E+03 -0.14786389405E+04  0.17040210068E+04  0.15294330000E+03 0.  0.
<mgrwt>
<rscale>  0 0.84694420E+03</rscale>
<asrwt>0</asrwt>
<pdfrwt beam="1">  1        1 0.27930017E+00 0.84694420E+03</pdfrwt>
<pdfrwt beam="2">  1       -1 0.14043576E+00 0.84694420E+03</pdfrwt>
<totfact> 0.17087651E+00</totfact>
</mgrwt>
</event>
<event>
 4    1  0.2731969E-009  0.2674189E+03  0.7818608E-02  0.1102766E+00
         -1   -1    0    0    0  501 -0.00000000000E+00  0.00000000000E+00  0.54366951768E+03  0.54366951770E+03  0.50400000000E-02 0.  1.
          1   -1    0    0  501    0  0.00000000000E+00 -0.00000000000E+00 -0.35878185202E+03  0.35878185206E+03  0.50400000000E-02 0. -1.
    8880022    1    1    2    0    0  0.21929428796E+03 -0.55901229080E+01  0.45155193344E+03  0.52479713778E+03  0.15294330000E+03 0.  0.
    8880022    1    1    2    0    0 -0.21929428796E+03  0.55901229080E+01 -0.26666426779E+03  0.37765423198E+03  0.15294330000E+03 0.  0.
<mgrwt>
<rscale>  0 0.26741894E+03</rscale>
<asrwt>0</asrwt>
<pdfrwt beam="1">  1        1 0.55197208E-01 0.26741894E+03</pdfrwt>
<pdfrwt beam="2">  1       -1 0.83641464E-01 0.26741894E+03</pdfrwt>
<totfact> 0.10477303E+02</totfact>
</mgrwt>
</event>
<event>
 4    1  0.2731969E-009  0.6970185E+03  0.7818608E-02  0.9722345E-01
          1   -1    0    0  501    0  0.00000000000E+00  0.00000000000E+00  0.39060547451E+04  0.39060547451E+04  0.50400000000E-02 0. -1.
         -1   -1    0    0    0  501 -0.00000000000E+00 -0.00000000000E+00 -0.37700556649E+03  0.37700556653E+03  0.50400000000E-02 0.  1.
    8880022    1    1    2    0    0  0.55234355150E+03 -0.39668596190E+03  0.35175532876E+04  0.35859470068E+04  0.15294330000E+03 0.  0.
    8880022    1    1    2    0    0 -0.55234355150E+03  0.39668596190E+03  0.11495890984E+02  0.69711330484E+03  0.15294330000E+03 0.  0.
<mgrwt>
<rscale>  0 0.69701851E+03</rscale>
<asrwt>0</asrwt>
<pdfrwt beam="1">  1        1 0.60093146E+00 0.69701851E+03</pdfrwt>
<pdfrwt beam="2">  1       -1 0.58000860E-01 0.69701851E+03</pdfrwt>
<totfact> 0.39259518E-01</totfact>
</mgrwt>
</event>
<event>
 4    1  0.2731969E-009  0.5240159E+03  0.7818608E-02  0.1007694E+00
         -1   -1    0    0    0  501 -0.00000000000E+00  0.00000000000E+00  0.71695376019E+03  0.71695376020E+03  0.50400000000E-02 0.  1.
          1   -1    0    0  501    0  0.00000000000E+00 -0.00000000000E+00 -0.11209332418E+04  0.11209332418E+04  0.50400000000E-02 0. -1.
    8880022    1    1    2    0    0  0.29235938048E+03  0.40709576291E+03  0.54361343382E+03  0.75505508804E+03  0.15294330000E+03 0.  0.
    8880022    1    1    2    0    0 -0.29235938048E+03 -0.40709576291E+03 -0.94759291547E+03  0.10828319140E+04  0.15294330000E+03 0.  0.
<mgrwt>
<rscale>  0 0.52401586E+03</rscale>
<asrwt>0</asrwt>
<pdfrwt beam="1">  1        1 0.17245127E+00 0.52401586E+03</pdfrwt>
<pdfrwt beam="2">  1       -1 0.11030058E+00 0.52401586E+03</pdfrwt>
<totfact> 0.99640054E+00</totfact>
</mgrwt>
</event>
<event>
 4    1  0.2731969E-009  0.5699366E+03  0.7818608E-02  0.9969819E-01
          1   -1    0    0  501    0  0.00000000000E+00  0.00000000000E+00  0.59817103585E+03  0.59817103587E+03  0.50400000000E-02 0. -1.
         -1   -1    0    0    0  501 -0.00000000000E+00 -0.00000000000E+00 -0.10057583639E+04  0.10057583639E+04  0.50400000000E-02 0.  1.
    8880022    1    1    2    0    0 -0.37057969875E+03  0.40510096449E+03  0.34016911030E+03  0.66373396868E+03  0.15294330000E+03 0.  0.
    8880022    1    1    2    0    0  0.37057969875E+03 -0.40510096449E+03 -0.74775643831E+03  0.94019543107E+03  0.15294330000E+03 0.  0.
<mgrwt>
<rscale>  0 0.56993663E+03</rscale>
<asrwt>0</asrwt>
<pdfrwt beam="1">  1        1 0.92026313E-01 0.56993663E+03</pdfrwt>
<pdfrwt beam="2">  1       -1 0.15473206E+00 0.56993663E+03</pdfrwt>
<totfact> 0.11653221E+01</totfact>
</mgrwt>
</event>
<event>
 4    1  0.2731969E-009  0.8065739E+03  0.7818608E-02  0.9550550E-01
          1   -1    0    0  501    0  0.00000000000E+00  0.00000000000E+00  0.86975318633E+03  0.86975318634E+03  0.50400000000E-02 0. -1.
         -1   -1    0    0    0  501 -0.00000000000E+00 -0.00000000000E+00 -0.16174108309E+04  0.16174108309E+04  0.50400000000E-02 0.  1.
    8880022    1    1    2    0    0  0.73091191006E+03 -0.30485656193E+03  0.53793172593E+03  0.96950087076E+03  0.15294330000E+03 0.  0.
    8880022    1    1    2    0    0 -0.73091191006E+03  0.30485656193E+03 -0.12855893705E+04  0.15176631465E+04  0.15294330000E+03 0.  0.
<mgrwt>
<rscale>  0 0.80657386E+03</rscale>
<asrwt>0</asrwt>
<pdfrwt beam="1">  1        1 0.13380818E+00 0.80657386E+03</pdfrwt>
<pdfrwt beam="2">  1       -1 0.24883243E+00 0.80657386E+03</pdfrwt>
<totfact> 0.14201661E+00</totfact>
</mgrwt>
</event>
<event>
 4    1  0.2731969E-009  0.8914946E+03  0.7818608E-02  0.9436277E-01
          1   -1    0    0  501    0  0.00000000000E+00  0.00000000000E+00  0.42744481033E+04  0.42744481033E+04  0.50400000000E-02 0. -1.
         -1   -1    0    0    0  501 -0.00000000000E+00 -0.00000000000E+00 -0.36761072873E+03  0.36761072876E+03  0.50400000000E-02 0.  1.
    8880022    1    1    2    0    0 -0.58434926314E+03  0.65567280840E+03  0.35851060799E+04  0.36942858782E+04  0.15294330000E+03 0.  0.
    8880022    1    1    2    0    0  0.58434926314E+03 -0.65567280840E+03  0.32173129466E+03  0.94777295382E+03  0.15294330000E+03 0.  0.
<mgrwt>
<rscale>  0 0.89149456E+03</rscale>
<asrwt>0</asrwt>
<pdfrwt beam="1">  1        1 0.65760742E+00 0.89149456E+03</pdfrwt>
<pdfrwt beam="2">  1       -1 0.56555495E-01 0.89149456E+03</pdfrwt>
<totfact> 0.18546761E-01</totfact>
</mgrwt>
</event>
<event>
 4    1  0.2731969E-009  0.1075545E+04  0.7818608E-02  0.9229360E-01
          1   -1    0    0  501    0  0.00000000000E+00  0.00000000000E+00  0.20660575729E+04  0.20660575729E+04  0.50400000000E-02 0. -1.
         -1   -1    0    0    0  501 -0.00000000000E+00 -0.00000000000E+00 -0.14172699486E+04  0.14172699486E+04  0.50400000000E-02 0.  1.
    8880022    1    1    2    0    0 -0.61911752512E+02  0.10628136319E+04 -0.10302362086E+04  0.14893569686E+04  0.15294330000E+03 0.  0.
    8880022    1    1    2    0    0  0.61911752512E+02 -0.10628136319E+04  0.16790238329E+04  0.19939705529E+04  0.15294330000E+03 0.  0.
<mgrwt>
<rscale>  0 0.10755452E+04</rscale>
<asrwt>0</asrwt>
<pdfrwt beam="1">  1        1 0.31785501E+00 0.10755452E+04</pdfrwt>
<pdfrwt beam="2">  1       -1 0.21804153E+00 0.10755452E+04</pdfrwt>
<totfact> 0.30534054E-01</totfact>
</mgrwt>
</event>
<event>
 4    1  0.2731969E-009  0.6936081E+03  0.7818608E-02  0.9728226E-01
          1   -1    0    0  501    0  0.00000000000E+00  0.00000000000E+00  0.17083237887E+04  0.17083237888E+04  0.50400000000E-02 0. -1.
         -1   -1    0    0    0  501 -0.00000000000E+00 -0.00000000000E+00 -0.82308460298E+03  0.82308460299E+03  0.50400000000E-02 0.  1.
    8880022    1    1    2    0    0 -0.18445724514E+03  0.65090403963E+03 -0.58396894941E+03  0.90670388274E+03  0.15294330000E+03 0.  0.
    8880022    1    1    2    0    0  0.18445724514E+03 -0.65090403963E+03  0.14692081352E+04  0.16247045090E+04  0.15294330000E+03 0.  0.
<mgrwt>
<rscale>  0 0.69360810E+03</rscale>
<asrwt>0</asrwt>
<pdfrwt beam="1">  1        1 0.26281905E+00 0.69360810E+03</pdfrwt>
<pdfrwt beam="2">  1       -1 0.12662840E+00 0.69360810E+03</pdfrwt>
<totfact> 0.27011181E+00</totfact>
</mgrwt>
</event>
<event>
 4    1  0.2731969E-009  0.7509797E+03  0.7818608E-02  0.9633815E-01
         -1   -1    0    0    0  501 -0.00000000000E+00  0.00000000000E+00  0.91194623476E+03  0.91194623477E+03  0.50400000000E-02 0.  1.
          1   -1    0    0  501    0  0.00000000000E+00 -0.00000000000E+00 -0.14398373870E+04  0.14398373871E+04  0.50400000000E-02 0. -1.
    8880022    1    1    2    0    0 -0.69887698904E+03 -0.22836317996E+03  0.62421448600E+03  0.97653170216E+03  0.15294330000E+03 0.  0.
    8880022    1    1    2    0    0  0.69887698904E+03  0.22836317996E+03 -0.11521056383E+04  0.13752519197E+04  0.15294330000E+03 0.  0.
<mgrwt>
<rscale>  0 0.75097965E+03</rscale>
<asrwt>0</asrwt>
<pdfrwt beam="1">  1        1 0.22151344E+00 0.75097965E+03</pdfrwt>
<pdfrwt beam="2">  1       -1 0.14029942E+00 0.75097965E+03</pdfrwt>
<totfact> 0.31335014E+00</totfact>
</mgrwt>
</event>
<event>
 4    1  0.2731969E-009  0.2061638E+03  0.7818608E-02  0.1144640E+00
          1   -1    0    0  501    0  0.00000000000E+00  0.00000000000E+00  0.13252459680E+04  0.13252459680E+04  0.50400000000E-02 0. -1.
         -1   -1    0    0    0  501 -0.00000000000E+00 -0.00000000000E+00 -0.12151399341E+04  0.12151399341E+04  0.50400000000E-02 0.  1.
    8880022    1    1    2    0    0 -0.37140114807E+02  0.13316326841E+03 -0.11982652349E+04  0.12158713215E+04  0.15294330000E+03 0.  0.
    8880022    1    1    2    0    0  0.37140114807E+02 -0.13316326841E+03  0.13083712688E+04  0.13245145806E+04  0.15294330000E+03 0. -1.
<mgrwt>
<rscale>  0 0.20616376E+03</rscale>
<asrwt>0</asrwt>
<pdfrwt beam="1">  1        1 0.20388399E+00 0.20616376E+03</pdfrwt>
<pdfrwt beam="2">  1       -1 0.18694461E+00 0.20616376E+03</pdfrwt>
<totfact> 0.20468663E+00</totfact>
</mgrwt>
</event>
<event>
 4    1  0.2731969E-009  0.1096128E+04  0.7818608E-02  0.9208974E-01
          1   -1    0    0  501    0  0.00000000000E+00  0.00000000000E+00  0.23261297969E+04  0.23261297969E+04  0.50400000000E-02 0. -1.
         -1   -1    0    0    0  501 -0.00000000000E+00 -0.00000000000E+00 -0.94027947411E+03  0.94027947412E+03  0.50400000000E-02 0.  1.
    8880022    1    1    2    0    0  0.92599458360E+03 -0.56624902312E+03 -0.40348025475E+03  0.11680290639E+04  0.15294330000E+03 0.  0.
    8880022    1    1    2    0    0 -0.92599458360E+03  0.56624902312E+03  0.17893305775E+04  0.20983802071E+04  0.15294330000E+03 0.  0.
<mgrwt>
<rscale>  0 0.10961275E+04</rscale>
<asrwt>0</asrwt>
<pdfrwt beam="1">  1        1 0.35786612E+00 0.10961275E+04</pdfrwt>
<pdfrwt beam="2">  1       -1 0.14465838E+00 0.10961275E+04</pdfrwt>
<totfact> 0.68687087E-01</totfact>
</mgrwt>
</event>
<event>
 4    1  0.2731969E-009  0.2001916E+04  0.7818608E-02  0.8605725E-01
         -1   -1    0    0    0  501 -0.00000000000E+00  0.00000000000E+00  0.16264908524E+04  0.16264908525E+04  0.50400000000E-02 0.  1.
          1   -1    0    0  501    0  0.00000000000E+00 -0.00000000000E+00 -0.27652435433E+04  0.27652435433E+04  0.50400000000E-02 0. -1.
    8880022    1    1    2    0    0  0.14332176729E+04  0.13893035547E+04  0.15539374793E+03  0.20079382797E+04  0.15294330000E+03 0.  0.
    8880022    1    1    2    0    0 -0.14332176729E+04 -0.13893035547E+04 -0.12941464388E+04  0.23837961161E+04  0.15294330000E+03 0.  0.
<mgrwt>
<rscale>  0 0.20019163E+04</rscale>
<asrwt>0</asrwt>
<pdfrwt beam="1">  1        1 0.42542208E+00 0.20019163E+04</pdfrwt>
<pdfrwt beam="2">  1       -1 0.25022936E+00 0.20019163E+04</pdfrwt>
<totfact> 0.54557685E-02</totfact>
</mgrwt>
</event>
<event>
 4    1  0.2731969E-009  0.6930452E+03  0.7818608E-02  0.9729200E-01
         -1   -1    0    0    0  501 -0.00000000000E+00  0.00000000000E+00  0.63819492145E+03  0.63819492147E+03  0.50400000000E-02 0.  1.
          1   -1    0    0  501    0  0.00000000000E+00 -0.00000000000E+00 -0.12338683234E+04  0.12338683234E+04  0.50400000000E-02 0. -1.
    8880022    1    1    2    0    0 -0.54771759803E+03  0.39613806126E+03 -0.88241871575E+03  0.11220402728E+04  0.15294330000E+03 0.  0.
    8880022    1    1    2    0    0  0.54771759803E+03 -0.39613806126E+03  0.28674531378E+03  0.75002297215E+03  0.15294330000E+03 0.  0.
<mgrwt>
<rscale>  0 0.69304515E+03</rscale>
<asrwt>0</asrwt>
<pdfrwt beam="1">  1        1 0.18982590E+00 0.69304515E+03</pdfrwt>
<pdfrwt beam="2">  1       -1 0.98183834E-01 0.69304515E+03</pdfrwt>
<totfact> 0.10470441E+01</totfact>
</mgrwt>
</event>
<event>
 4    1  0.2731969E-009  0.5418984E+03  0.7818608E-02  0.1003387E+00
         -1   -1    0    0    0  501 -0.00000000000E+00  0.00000000000E+00  0.23831336814E+03  0.23831336820E+03  0.50400000000E-02 0.  1.
          1   -1    0    0  501    0  0.00000000000E+00 -0.00000000000E+00 -0.19122164055E+04  0.19122164055E+04  0.50400000000E-02 0. -1.
    8880022    1    1    2    0    0  0.51984014971E+03  0.53355223645E+01 -0.19574038911E+03  0.57616681786E+03  0.15294330000E+03 0.  0.
    8880022    1    1    2    0    0 -0.51984014971E+03 -0.53355223645E+01 -0.14781626482E+04  0.15743629558E+04  0.15294330000E+03 0. -1.
<mgrwt>
<rscale>  0 0.54189842E+03</rscale>
<asrwt>0</asrwt>
<pdfrwt beam="1">  1        1 0.29418713E+00 0.54189842E+03</pdfrwt>
<pdfrwt beam="2">  1       -1 0.36663596E-01 0.54189842E+03</pdfrwt>
<totfact> 0.26160244E+01</totfact>
</mgrwt>
</event>
<event>
 4    1  0.2731969E-009  0.9525289E+03  0.7818608E-02  0.9362200E-01
          1   -1    0    0  501    0  0.00000000000E+00  0.00000000000E+00  0.24985979752E+04  0.24985979752E+04  0.50400000000E-02 0. -1.
         -1   -1    0    0    0  501 -0.00000000000E+00 -0.00000000000E+00 -0.15810476335E+04  0.15810476335E+04  0.50400000000E-02 0.  1.
    8880022    1    1    2    0    0  0.60615989260E+03 -0.71867226547E+03 -0.13315390119E+04  0.16371644492E+04  0.15294330000E+03 0.  0.
    8880022    1    1    2    0    0 -0.60615989260E+03  0.71867226547E+03  0.22490893536E+04  0.24424811594E+04  0.15294330000E+03 0.  0.
<mgrwt>
<rscale>  0 0.95252889E+03</rscale>
<asrwt>0</asrwt>
<pdfrwt beam="1">  1        1 0.38439969E+00 0.95252889E+03</pdfrwt>
<pdfrwt beam="2">  1       -1 0.24323810E+00 0.95252889E+03</pdfrwt>
<totfact> 0.10836608E-01</totfact>
</mgrwt>
</event>
<event>
 4    1  0.2731969E-009  0.2143917E+03  0.7818608E-02  0.1138135E+00
         -1   -1    0    0    0  501 -0.00000000000E+00  0.00000000000E+00  0.38390582994E+03  0.38390582998E+03  0.50400000000E-02 0.  1.
          1   -1    0    0  501    0  0.00000000000E+00 -0.00000000000E+00 -0.18542831394E+03  0.18542831401E+03  0.50400000000E-02 0. -1.
    8880022    1    1    2    0    0 -0.94688034957E+02  0.11664613403E+03 -0.70209481684E+02  0.22559514375E+03  0.15294330000E+03 0.  0.
    8880022    1    1    2    0    0  0.94688034957E+02 -0.11664613403E+03  0.26868699768E+03  0.34373900024E+03  0.15294330000E+03 0.  0.
<mgrwt>
<rscale>  0 0.21439169E+03</rscale>
<asrwt>0</asrwt>
<pdfrwt beam="1">  1        1 0.28527433E-01 0.21439169E+03</pdfrwt>
<pdfrwt beam="2">  1       -1 0.59062435E-01 0.21439169E+03</pdfrwt>
<totfact> 0.48630489E+02</totfact>
</mgrwt>
</event>
<event>
 4    1  0.2731969E-009  0.1873628E+04  0.7818608E-02  0.8668096E-01
         -1   -1    0    0    0  501 -0.00000000000E+00  0.00000000000E+00  0.29855436223E+04  0.29855436223E+04  0.50400000000E-02 0.  1.
          1   -1    0    0  501    0  0.00000000000E+00 -0.00000000000E+00 -0.14656563194E+04  0.14656563194E+04  0.50400000000E-02 0. -1.
    8880022    1    1    2    0    0 -0.17612859744E+04  0.62045392859E+03  0.17496403909E+04  0.25635374995E+04  0.15294330000E+03 0.  0.
    8880022    1    1    2    0    0  0.17612859744E+04 -0.62045392859E+03 -0.22975308791E+03  0.18876624421E+04  0.15294330000E+03 0.  0.
<mgrwt>
<rscale>  0 0.18736283E+04</rscale>
<asrwt>0</asrwt>
<pdfrwt beam="1">  1        1 0.22548559E+00 0.18736283E+04</pdfrwt>
<pdfrwt beam="2">  1       -1 0.45931440E+00 0.18736283E+04</pdfrwt>
<totfact> 0.17416676E-02</totfact>
</mgrwt>
</event>
<event>
 4    1  0.2731969E-009  0.8683528E+03  0.7818608E-02  0.9466030E-01
         -1   -1    0    0    0  501 -0.00000000000E+00  0.00000000000E+00  0.11649799299E+04  0.11649799300E+04  0.50400000000E-02 0.  1.
          1   -1    0    0  501    0  0.00000000000E+00 -0.00000000000E+00 -0.14832550408E+04  0.14832550408E+04  0.50400000000E-02 0. -1.
    8880022    1    1    2    0    0 -0.70720393785E+03  0.48011203245E+03  0.83494465397E+03  0.12046448446E+04  0.15294330000E+03 0.  1.
    8880022    1    1    2    0    0  0.70720393785E+03 -0.48011203245E+03 -0.11532197648E+04  0.14435901262E+04  0.15294330000E+03 0.  0.
<mgrwt>
<rscale>  0 0.86835282E+03</rscale>
<asrwt>0</asrwt>
<pdfrwt beam="1">  1        1 0.22819308E+00 0.86835282E+03</pdfrwt>
<pdfrwt beam="2">  1       -1 0.17922768E+00 0.86835282E+03</pdfrwt>
<totfact> 0.14545049E+00</totfact>
</mgrwt>
</event>
<event>
 4    1  0.2731969E-009  0.8956675E+03  0.7818608E-02  0.9431014E-01
         -1   -1    0    0    0  501 -0.00000000000E+00  0.00000000000E+00  0.87561026960E+03  0.87561026962E+03  0.50400000000E-02 0.  1.
          1   -1    0    0  501    0  0.00000000000E+00 -0.00000000000E+00 -0.23482919641E+04  0.23482919641E+04  0.50400000000E-02 0. -1.
    8880022    1    1    2    0    0 -0.70424511054E+03  0.53185279411E+03 -0.19951609897E+04  0.21869813895E+04  0.15294330000E+03 0.  0.
    8880022    1    1    2    0    0  0.70424511054E+03 -0.53185279411E+03  0.52247929516E+03  0.10369208442E+04  0.15294330000E+03 0.  0.
<mgrwt>
<rscale>  0 0.89566747E+03</rscale>
<asrwt>0</asrwt>
<pdfrwt beam="1">  1        1 0.36127568E+00 0.89566747E+03</pdfrwt>
<pdfrwt beam="2">  1       -1 0.13470927E+00 0.89566747E+03</pdfrwt>
<totfact> 0.82630308E-01</totfact>
</mgrwt>
</event>
<event>
 4    1  0.2731969E-009  0.1554076E+04  0.7818608E-02  0.8849268E-01
          1   -1    0    0  501    0  0.00000000000E+00  0.00000000000E+00  0.30539335609E+04  0.30539335609E+04  0.50400000000E-02 0. -1.
         -1   -1    0    0    0  501 -0.00000000000E+00 -0.00000000000E+00 -0.14789517572E+04  0.14789517572E+04  0.50400000000E-02 0.  1.
    8880022    1    1    2    0    0  0.91568923661E+03 -0.12463044010E+04 -0.75847268172E+03  0.17292871074E+04  0.15294330000E+03 0.  0.
    8880022    1    1    2    0    0 -0.91568923661E+03  0.12463044010E+04  0.23334544855E+04  0.28035982107E+04  0.15294330000E+03 0.  0.
<mgrwt>
<rscale>  0 0.15540763E+04</rscale>
<asrwt>0</asrwt>
<pdfrwt beam="1">  1        1 0.46983593E+00 0.15540763E+04</pdfrwt>
<pdfrwt beam="2">  1       -1 0.22753104E+00 0.15540763E+04</pdfrwt>
<totfact> 0.50259900E-02</totfact>
</mgrwt>
</event>
<event>
 4    1  0.2731969E-009  0.1867537E+03  0.7818608E-02  0.1161422E+00
         -1   -1    0    0    0  501 -0.00000000000E+00  0.00000000000E+00  0.22492674387E+03  0.22492674393E+03  0.50400000000E-02 0.  1.
          1   -1    0    0  501    0  0.00000000000E+00 -0.00000000000E+00 -0.71221261692E+03  0.71221261694E+03  0.50400000000E-02 0. -1.
    8880022    1    1    2    0    0 -0.10643476281E+03 -0.12526840990E+02  0.17079241966E+03  0.25307505627E+03  0.15294330000E+03 0.  1.
    8880022    1    1    2    0    0  0.10643476281E+03  0.12526840990E+02 -0.65807829270E+03  0.68406430460E+03  0.15294330000E+03 0.  0.
<mgrwt>
<rscale>  0 0.18675367E+03</rscale>
<asrwt>0</asrwt>
<pdfrwt beam="1">  1        1 0.10957117E+00 0.18675367E+03</pdfrwt>
<pdfrwt beam="2">  1       -1 0.34604115E-01 0.18675367E+03</pdfrwt>
<totfact> 0.22434246E+02</totfact>
</mgrwt>
</event>
<event>
 4    1  0.2731969E-009  0.1281336E+04  0.7818608E-02  0.9044498E-01
          1   -1    0    0  501    0  0.00000000000E+00  0.00000000000E+00  0.29330612111E+04  0.29330612111E+04  0.50400000000E-02 0. -1.
         -1   -1    0    0    0  501 -0.00000000000E+00 -0.00000000000E+00 -0.61419304813E+03  0.61419304815E+03  0.50400000000E-02 0.  1.
    8880022    1    1    2    0    0 -0.11325910941E+04  0.57936799522E+03  0.16874244615E+04  0.21187786167E+04  0.15294330000E+03 0.  0.
    8880022    1    1    2    0    0  0.11325910941E+04 -0.57936799522E+03  0.63144370148E+03  0.14284756426E+04  0.15294330000E+03 0.  0.
<mgrwt>
<rscale>  0 0.12813358E+04</rscale>
<asrwt>0</asrwt>
<pdfrwt beam="1">  1        1 0.45124019E+00 0.12813358E+04</pdfrwt>
<pdfrwt beam="2">  1       -1 0.94491238E-01 0.12813358E+04</pdfrwt>
<totfact> 0.71366661E-01</totfact>
</mgrwt>
</event>
<event>
 4    1  0.2731969E-009  0.1718006E+03  0.7818608E-02  0.1175983E+00
         -1   -1    0    0    0  501 -0.00000000000E+00  0.00000000000E+00  0.38779199052E+03  0.38779199056E+03  0.50400000000E-02 0.  1.
          1   -1    0    0  501    0  0.00000000000E+00 -0.00000000000E+00 -0.34244698761E+03  0.34244698765E+03  0.50400000000E-02 0. -1.
    8880022    1    1    2    0    0 -0.59791702752E+02  0.50485085320E+02 -0.29932524202E+03  0.34512468049E+03  0.15294330000E+03 0.  0.
    8880022    1    1    2    0    0  0.59791702752E+02 -0.50485085320E+02  0.34467024493E+03  0.38511429772E+03  0.15294330000E+03 0.  1.
<mgrwt>
<rscale>  0 0.17180060E+03</rscale>
<asrwt>0</asrwt>
<pdfrwt beam="1">  1        1 0.52684152E-01 0.17180060E+03</pdfrwt>
<pdfrwt beam="2">  1       -1 0.59660306E-01 0.17180060E+03</pdfrwt>
<totfact> 0.22193459E+02</totfact>
</mgrwt>
</event>
<event>
 4    1  0.2731969E-009  0.8228760E+03  0.7818608E-02  0.9527483E-01
         -1   -1    0    0    0  501 -0.00000000000E+00  0.00000000000E+00  0.16958252092E+04  0.16958252092E+04  0.50400000000E-02 0.  1.
          1   -1    0    0  501    0  0.00000000000E+00 -0.00000000000E+00 -0.50951931377E+03  0.50951931379E+03  0.50400000000E-02 0. -1.
    8880022    1    1    2    0    0  0.71803161787E+03 -0.37170400759E+03  0.11060332014E+04  0.13785624284E+04  0.15294330000E+03 0.  0.
    8880022    1    1    2    0    0 -0.71803161787E+03  0.37170400759E+03  0.80272694094E+02  0.82678209460E+03  0.15294330000E+03 0.  0.
<mgrwt>
<rscale>  0 0.82287601E+03</rscale>
<asrwt>0</asrwt>
<pdfrwt beam="1">  1        1 0.78387586E-01 0.82287601E+03</pdfrwt>
<pdfrwt beam="2">  1       -1 0.26089619E+00 0.82287601E+03</pdfrwt>
<totfact> 0.26417257E+00</totfact>
</mgrwt>
</event>
<event>
 4    1  0.2731969E-009  0.1462108E+04  0.7818608E-02  0.8910049E-01
          1   -1    0    0  501    0  0.00000000000E+00  0.00000000000E+00  0.23898618268E+04  0.23898618268E+04  0.50400000000E-02 0. -1.
         -1   -1    0    0    0  501 -0.00000000000E+00 -0.00000000000E+00 -0.93927383728E+03  0.93927383730E+03  0.50400000000E-02 0.  1.
    8880022    1    1    2    0    0  0.14441880291E+04 -0.16938021246E+03  0.36191589664E+03  0.15062348718E+04  0.15294330000E+03 0.  0.
    8880022    1    1    2    0    0 -0.14441880291E+04  0.16938021246E+03  0.10886720929E+04  0.18229007923E+04  0.15294330000E+03 0.  0.
<mgrwt>
<rscale>  0 0.14621082E+04</rscale>
<asrwt>0</asrwt>
<pdfrwt beam="1">  1        1 0.36767105E+00 0.14621082E+04</pdfrwt>
<pdfrwt beam="2">  1       -1 0.14450367E+00 0.14621082E+04</pdfrwt>
<totfact> 0.59412248E-01</totfact>
</mgrwt>
</event>
<event>
 4    1  0.2731969E-009  0.9131139E+03  0.7818608E-02  0.9409335E-01
          1   -1    0    0  501    0  0.00000000000E+00  0.00000000000E+00  0.13677482276E+04  0.13677482276E+04  0.50400000000E-02 0. -1.
         -1   -1    0    0    0  501 -0.00000000000E+00 -0.00000000000E+00 -0.10450483720E+04  0.10450483720E+04  0.50400000000E-02 0.  1.
    8880022    1    1    2    0    0 -0.89982283824E+03  0.26537727109E+02 -0.61738864181E+03  0.11022457889E+04  0.15294330000E+03 0.  0.
    8880022    1    1    2    0    0  0.89982283824E+03 -0.26537727109E+02  0.94008849743E+03  0.13105508106E+04  0.15294330000E+03 0.  0.
<mgrwt>
<rscale>  0 0.91311393E+03</rscale>
<asrwt>0</asrwt>
<pdfrwt beam="1">  1        1 0.21042280E+00 0.91311393E+03</pdfrwt>
<pdfrwt beam="2">  1       -1 0.16077667E+00 0.91311393E+03</pdfrwt>
<totfact> 0.23737922E+00</totfact>
</mgrwt>
</event>
<event>
 4    1  0.2731969E-009  0.6938111E+03  0.7818608E-02  0.9727875E-01
         -1   -1    0    0    0  501 -0.00000000000E+00  0.00000000000E+00  0.70249080158E+03  0.70249080160E+03  0.50400000000E-02 0.  1.
          1   -1    0    0  501    0  0.00000000000E+00 -0.00000000000E+00 -0.71352201886E+03  0.71352201888E+03  0.50400000000E-02 0. -1.
    8880022    1    1    2    0    0  0.15081386910E+02 -0.67657571180E+03 -0.14647682977E+03  0.70910454568E+03  0.15294330000E+03 0.  0.
    8880022    1    1    2    0    0 -0.15081386910E+02  0.67657571180E+03  0.13544561249E+03  0.70690827480E+03  0.15294330000E+03 0.  1.
<mgrwt>
<rscale>  0 0.69381107E+03</rscale>
<asrwt>0</asrwt>
<pdfrwt beam="1">  1        1 0.10977262E+00 0.69381107E+03</pdfrwt>
<pdfrwt beam="2">  1       -1 0.10807551E+00 0.69381107E+03</pdfrwt>
<totfact> 0.21753420E+01</totfact>
</mgrwt>
</event>
<event>
 4    1  0.2731969E-009  0.5352630E+03  0.7818608E-02  0.1004964E+00
          1   -1    0    0  501    0  0.00000000000E+00  0.00000000000E+00  0.16137256770E+04  0.16137256770E+04  0.50400000000E-02 0. -1.
         -1   -1    0    0    0  501 -0.00000000000E+00 -0.00000000000E+00 -0.34498534155E+03  0.34498534159E+03  0.50400000000E-02 0.  1.
    8880022    1    1    2    0    0 -0.15253234372E+03 -0.48974346978E+03  0.13166650307E+04  0.14213068769E+04  0.15294330000E+03 0.  0.
    8880022    1    1    2    0    0  0.15253234372E+03  0.48974346978E+03 -0.47924695311E+02  0.53740414169E+03  0.15294330000E+03 0.  0.
<mgrwt>
<rscale>  0 0.53526296E+03</rscale>
<asrwt>0</asrwt>
<pdfrwt beam="1">  1        1 0.24826550E+00 0.53526296E+03</pdfrwt>
<pdfrwt beam="2">  1       -1 0.53074667E-01 0.53526296E+03</pdfrwt>
<totfact> 0.20950820E+01</totfact>
</mgrwt>
</event>
<event>
 4    1  0.2731969E-009  0.1361450E+04  0.7818608E-02  0.8982206E-01
          1   -1    0    0  501    0  0.00000000000E+00  0.00000000000E+00  0.14730219028E+04  0.14730219028E+04  0.50400000000E-02 0. -1.
         -1   -1    0    0    0  501 -0.00000000000E+00 -0.00000000000E+00 -0.16677900319E+04  0.16677900319E+04  0.50400000000E-02 0.  1.
    8880022    1    1    2    0    0 -0.11880071804E+04  0.64714182275E+03  0.68073825272E+03  0.15221530216E+04  0.15294330000E+03 0.  0.
    8880022    1    1    2    0    0  0.11880071804E+04 -0.64714182275E+03 -0.87550638178E+03  0.16186589131E+04  0.15294330000E+03 0.  0.
<mgrwt>
<rscale>  0 0.13614497E+04</rscale>
<asrwt>0</asrwt>
<pdfrwt beam="1">  1        1 0.22661875E+00 0.13614497E+04</pdfrwt>
<pdfrwt beam="2">  1       -1 0.25658308E+00 0.13614497E+04</pdfrwt>
<totfact> 0.41457436E-01</totfact>
</mgrwt>
</event>
<event>
 4    1  0.2731969E-009  0.9272160E+03  0.7818608E-02  0.9392185E-01
          1   -1    0    0  501    0  0.00000000000E+00  0.00000000000E+00  0.18132357802E+04  0.18132357802E+04  0.50400000000E-02 0. -1.
         -1   -1    0    0    0  501 -0.00000000000E+00 -0.00000000000E+00 -0.11482375441E+04  0.11482375442E+04  0.50400000000E-02 0.  1.
    8880022    1    1    2    0    0  0.18180405717E+03 -0.89626175857E+03  0.14670474291E+04  0.17354992560E+04  0.15294330000E+03 0.  0.
    8880022    1    1    2    0    0 -0.18180405717E+03  0.89626175857E+03 -0.80204919313E+03  0.12259740684E+04  0.15294330000E+03 0.  0.
<mgrwt>
<rscale>  0 0.92721600E+03</rscale>
<asrwt>0</asrwt>
<pdfrwt beam="1">  1        1 0.27895935E+00 0.92721600E+03</pdfrwt>
<pdfrwt beam="2">  1       -1 0.17665193E+00 0.92721600E+03</pdfrwt>
<totfact> 0.89688951E-01</totfact>
</mgrwt>
</event>
<event>
 4    1  0.2731969E-009  0.1179891E+04  0.7818608E-02  0.9130643E-01
         -1   -1    0    0    0  501 -0.00000000000E+00  0.00000000000E+00  0.15255502251E+04  0.15255502251E+04  0.50400000000E-02 0.  1.
          1   -1    0    0  501    0  0.00000000000E+00 -0.00000000000E+00 -0.17020949374E+04  0.17020949374E+04  0.50400000000E-02 0. -1.
    8880022    1    1    2    0    0 -0.10523354328E+04  0.51121477671E+03  0.10108653511E+04  0.15537022952E+04  0.15294330000E+03 0.  0.
    8880022    1    1    2    0    0  0.10523354328E+04 -0.51121477671E+03 -0.11874100635E+04  0.16739428673E+04  0.15294330000E+03 0.  0.
<mgrwt>
<rscale>  0 0.11798907E+04</rscale>
<asrwt>0</asrwt>
<pdfrwt beam="1">  1        1 0.26186076E+00 0.11798907E+04</pdfrwt>
<pdfrwt beam="2">  1       -1 0.23470003E+00 0.11798907E+04</pdfrwt>
<totfact> 0.41057762E-01</totfact>
</mgrwt>
</event>
<event>
 4    1  0.2731969E-009  0.1240626E+04  0.7818608E-02  0.9078022E-01
          1   -1    0    0  501    0  0.00000000000E+00  0.00000000000E+00  0.22106043304E+04  0.22106043304E+04  0.50400000000E-02 0. -1.
         -1   -1    0    0    0  501 -0.00000000000E+00 -0.00000000000E+00 -0.16013092306E+04  0.16013092306E+04  0.50400000000E-02 0.  1.
    8880022    1    1    2    0    0  0.78323476492E+03  0.94989651189E+03 -0.11282394464E+04  0.16769245605E+04  0.15294330000E+03 0.  0.
    8880022    1    1    2    0    0 -0.78323476492E+03 -0.94989651189E+03  0.17375345462E+04  0.21349890005E+04  0.15294330000E+03 0.  0.
<mgrwt>
<rscale>  0 0.12406255E+04</rscale>
<asrwt>0</asrwt>
<pdfrwt beam="1">  1        1 0.34009297E+00 0.12406255E+04</pdfrwt>
<pdfrwt beam="2">  1       -1 0.24635527E+00 0.12406255E+04</pdfrwt>
<totfact> 0.15430976E-01</totfact>
</mgrwt>
</event>
<event>
 4    1  0.2731969E-009  0.4745945E+03  0.7818608E-02  0.1020631E+00
         -1   -1    0    0    0  501 -0.00000000000E+00  0.00000000000E+00  0.14326139430E+04  0.14326139430E+04  0.50400000000E-02 0.  1.
          1   -1    0    0  501    0  0.00000000000E+00 -0.00000000000E+00 -0.43311029286E+03  0.43311029289E+03  0.50400000000E-02 0. -1.
    8880022    1    1    2    0    0  0.94089622112E+02  0.43931250158E+03  0.12442848850E+04  0.13317225158E+04  0.15294330000E+03 0.  0.
    8880022    1    1    2    0    0 -0.94089622112E+02 -0.43931250158E+03 -0.24478123491E+03  0.53400172005E+03  0.15294330000E+03 0.  0.
<mgrwt>
<rscale>  0 0.47459455E+03</rscale>
<asrwt>0</asrwt>
<pdfrwt beam="1">  1        1 0.66632352E-01 0.47459455E+03</pdfrwt>
<pdfrwt beam="2">  1       -1 0.22040215E+00 0.47459455E+03</pdfrwt>
<totfact> 0.64050381E+00</totfact>
</mgrwt>
</event>
<event>
 4    1  0.2731969E-009  0.5363023E+03  0.7818608E-02  0.1004715E+00
         -1   -1    0    0    0  501 -0.00000000000E+00  0.00000000000E+00  0.23615997372E+03  0.23615997378E+03  0.50400000000E-02 0.  1.
          1   -1    0    0  501    0  0.00000000000E+00 -0.00000000000E+00 -0.19176091809E+04  0.19176091810E+04  0.50400000000E-02 0. -1.
    8880022    1    1    2    0    0 -0.21017052752E+03  0.46910215193E+03 -0.19022548891E+03  0.56903942678E+03  0.15294330000E+03 0.  0.
    8880022    1    1    2    0    0  0.21017052752E+03 -0.46910215193E+03 -0.14912237183E+04  0.15847297279E+04  0.15294330000E+03 0.  0.
<mgrwt>
<rscale>  0 0.53630228E+03</rscale>
<asrwt>0</asrwt>
<pdfrwt beam="1">  1        1 0.29501679E+00 0.53630228E+03</pdfrwt>
<pdfrwt beam="2">  1       -1 0.36332305E-01 0.53630228E+03</pdfrwt>
<totfact> 0.26396384E+01</totfact>
</mgrwt>
</event>
<event>
 4    1  0.2731969E-009  0.3804612E+03  0.7818608E-02  0.1050763E+00
         -1   -1    0    0    0  501 -0.00000000000E+00  0.00000000000E+00  0.81836252332E+03  0.81836252334E+03  0.50400000000E-02 0.  1.
          1   -1    0    0  501    0  0.00000000000E+00 -0.00000000000E+00 -0.11471144976E+04  0.11471144976E+04  0.50400000000E-02 0. -1.
    8880022    1    1    2    0    0  0.23311190609E+03 -0.25887818088E+03 -0.10681779604E+04  0.11339113199E+04  0.15294330000E+03 0.  0.
    8880022    1    1    2    0    0 -0.23311190609E+03  0.25887818088E+03  0.73942598609E+03  0.83156570108E+03  0.15294330000E+03 0.  0.
<mgrwt>
<rscale>  0 0.38046120E+03</rscale>
<asrwt>0</asrwt>
<pdfrwt beam="1">  1        1 0.17647915E+00 0.38046120E+03</pdfrwt>
<pdfrwt beam="2">  1       -1 0.12590193E+00 0.38046120E+03</pdfrwt>
<totfact> 0.72035617E+00</totfact>
</mgrwt>
</event>
<event>
 4    1  0.2731969E-009  0.1741236E+04  0.7818608E-02  0.8738189E-01
         -1   -1    0    0    0  501 -0.00000000000E+00  0.00000000000E+00  0.18140919189E+04  0.18140919190E+04  0.50400000000E-02 0.  1.
          1   -1    0    0  501    0  0.00000000000E+00 -0.00000000000E+00 -0.23510748172E+04  0.23510748172E+04  0.50400000000E-02 0. -1.
    8880022    1    1    2    0    0 -0.15992143180E+03 -0.17271177935E+04 -0.13883156430E+04  0.22269536849E+04  0.15294330000E+03 0.  0.
    8880022    1    1    2    0    0  0.15992143180E+03  0.17271177935E+04  0.85133274467E+03  0.19382130513E+04  0.15294330000E+03 0.  0.
<mgrwt>
<rscale>  0 0.17412359E+04</rscale>
<asrwt>0</asrwt>
<pdfrwt beam="1">  1        1 0.36170382E+00 0.17412359E+04</pdfrwt>
<pdfrwt beam="2">  1       -1 0.27909107E+00 0.17412359E+04</pdfrwt>
<totfact> 0.70887304E-02</totfact>
</mgrwt>
</event>
<event>
 4    1  0.2731969E-009  0.8782351E+03  0.7818608E-02  0.9453205E-01
          1   -1    0    0  501    0  0.00000000000E+00  0.00000000000E+00  0.21742870086E+04  0.21742870086E+04  0.50400000000E-02 0. -1.
         -1   -1    0    0    0  501 -0.00000000000E+00 -0.00000000000E+00 -0.41614952570E+03  0.41614952573E+03  0.50400000000E-02 0.  1.
    8880022    1    1    2    0    0 -0.32150389620E+03  0.80283274208E+03  0.13766362259E+04  0.16329188953E+04  0.15294330000E+03 0.  0.
    8880022    1    1    2    0    0  0.32150389620E+03 -0.80283274208E+03  0.38150125698E+03  0.95751763906E+03  0.15294330000E+03 0.  1.
<mgrwt>
<rscale>  0 0.87823506E+03</rscale>
<asrwt>0</asrwt>
<pdfrwt beam="1">  1        1 0.33450571E+00 0.87823506E+03</pdfrwt>
<pdfrwt beam="2">  1       -1 0.64023002E-01 0.87823506E+03</pdfrwt>
<totfact> 0.57842661E+00</totfact>
</mgrwt>
</event>
<event>
 4    1  0.2731969E-009  0.1377366E+04  0.7818608E-02  0.8970367E-01
         -1   -1    0    0    0  501 -0.00000000000E+00  0.00000000000E+00  0.16146984632E+04  0.16146984632E+04  0.50400000000E-02 0.  1.
          1   -1    0    0  501    0  0.00000000000E+00 -0.00000000000E+00 -0.15056504886E+04  0.15056504887E+04  0.50400000000E-02 0. -1.
    8880022    1    1    2    0    0  0.86548567485E+03  0.10605094646E+04 -0.67669904470E+03  0.15346201576E+04  0.15294330000E+03 0.  0.
    8880022    1    1    2    0    0 -0.86548567485E+03 -0.10605094646E+04  0.78574701928E+03  0.15857287943E+04  0.15294330000E+03 0.  0.
<mgrwt>
<rscale>  0 0.13773661E+04</rscale>
<asrwt>0</asrwt>
<pdfrwt beam="1">  1        1 0.23163854E+00 0.13773661E+04</pdfrwt>
<pdfrwt beam="2">  1       -1 0.24841515E+00 0.13773661E+04</pdfrwt>
<totfact> 0.44394460E-01</totfact>
</mgrwt>
</event>
<event>
 4    1  0.2731969E-009  0.5509964E+03  0.7818608E-02  0.1001264E+00
          1   -1    0    0  501    0  0.00000000000E+00  0.00000000000E+00  0.72788610752E+03  0.72788610754E+03  0.50400000000E-02 0. -1.
         -1   -1    0    0    0  501 -0.00000000000E+00 -0.00000000000E+00 -0.93940819578E+03  0.93940819579E+03  0.50400000000E-02 0.  1.
    8880022    1    1    2    0    0  0.25183519933E+03 -0.46560114100E+03  0.51585318520E+03  0.75478576552E+03  0.15294330000E+03 0.  0.
    8880022    1    1    2    0    0 -0.25183519933E+03  0.46560114100E+03 -0.72737527346E+03  0.91250853781E+03  0.15294330000E+03 0.  0.
<mgrwt>
<rscale>  0 0.55099641E+03</rscale>
<asrwt>0</asrwt>
<pdfrwt beam="1">  1        1 0.11198248E+00 0.55099641E+03</pdfrwt>
<pdfrwt beam="2">  1       -1 0.14452434E+00 0.55099641E+03</pdfrwt>
<totfact> 0.10508041E+01</totfact>
</mgrwt>
</event>
<event>
 4    1  0.2731969E-009  0.6299828E+03  0.7818608E-02  0.9845082E-01
         -1   -1    0    0    0  501 -0.00000000000E+00  0.00000000000E+00  0.40184303284E+03  0.40184303287E+03  0.50400000000E-02 0.  1.
          1   -1    0    0  501    0  0.00000000000E+00 -0.00000000000E+00 -0.12351369914E+04  0.12351369914E+04  0.50400000000E-02 0. -1.
    8880022    1    1    2    0    0 -0.15176076095E+03 -0.59199268448E+03 -0.78303078423E+03  0.10049952881E+04  0.15294330000E+03 0.  0.
    8880022    1    1    2    0    0  0.15176076095E+03  0.59199268448E+03 -0.50263174314E+02  0.63198473617E+03  0.15294330000E+03 0.  0.
<mgrwt>
<rscale>  0 0.62998279E+03</rscale>
<asrwt>0</asrwt>
<pdfrwt beam="1">  1        1 0.19002107E+00 0.62998279E+03</pdfrwt>
<pdfrwt beam="2">  1       -1 0.61822006E-01 0.62998279E+03</pdfrwt>
<totfact> 0.27958624E+01</totfact>
</mgrwt>
</event>
<event>
 4    1  0.2731969E-009  0.3456106E+03  0.7818608E-02  0.1064431E+00
         -1   -1    0    0    0  501 -0.00000000000E+00  0.00000000000E+00  0.34784355230E+03  0.34784355233E+03  0.50400000000E-02 0.  1.
          1   -1    0    0  501    0  0.00000000000E+00 -0.00000000000E+00 -0.58088112393E+03  0.58088112395E+03  0.50400000000E-02 0. -1.
    8880022    1    1    2    0    0  0.12796499135E+03  0.28227640209E+03 -0.41343595350E+03  0.53886542555E+03  0.15294330000E+03 0.  0.
    8880022    1    1    2    0    0 -0.12796499135E+03 -0.28227640209E+03  0.18039838187E+03  0.38985925074E+03  0.15294330000E+03 0.  0.
<mgrwt>
<rscale>  0 0.34561056E+03</rscale>
<asrwt>0</asrwt>
<pdfrwt beam="1">  1        1 0.89366327E-01 0.34561056E+03</pdfrwt>
<pdfrwt beam="2">  1       -1 0.53514393E-01 0.34561056E+03</pdfrwt>
<totfact> 0.13320581E+02</totfact>
</mgrwt>
</event>
<event>
 4    1  0.2731969E-009  0.4899952E+03  0.7818608E-02  0.1016424E+00
          1   -1    0    0  501    0  0.00000000000E+00  0.00000000000E+00  0.87698788910E+03  0.87698788911E+03  0.50400000000E-02 0. -1.
         -1   -1    0    0    0  501 -0.00000000000E+00 -0.00000000000E+00 -0.84587957076E+03  0.84587957077E+03  0.50400000000E-02 0.  1.
    8880022    1    1    2    0    0  0.12129465658E+03 -0.44943437590E+03 -0.69289094371E+03  0.84864195327E+03  0.15294330000E+03 0.  0.
    8880022    1    1    2    0    0 -0.12129465658E+03  0.44943437590E+03  0.72399926205E+03  0.87422550662E+03  0.15294330000E+03 0.  0.
<mgrwt>
<rscale>  0 0.48999521E+03</rscale>
<asrwt>0</asrwt>
<pdfrwt beam="1">  1        1 0.13492121E+00 0.48999521E+03</pdfrwt>
<pdfrwt beam="2">  1       -1 0.13013532E+00 0.48999521E+03</pdfrwt>
<totfact> 0.10362119E+01</totfact>
</mgrwt>
</event>
<event>
 4    1  0.2731969E-009  0.7350412E+03  0.7818608E-02  0.9659115E-01
         -1   -1    0    0    0  501 -0.00000000000E+00  0.00000000000E+00  0.10504909859E+04  0.10504909859E+04  0.50400000000E-02 0.  1.
          1   -1    0    0  501    0  0.00000000000E+00 -0.00000000000E+00 -0.12403672734E+04  0.12403672735E+04  0.50400000000E-02 0. -1.
    8880022    1    1    2    0    0  0.47592441112E+03 -0.53887829733E+03 -0.97128569894E+03  0.12180646233E+04  0.15294330000E+03 0.  0.
    8880022    1    1    2    0    0 -0.47592441112E+03  0.53887829733E+03  0.78140941139E+03  0.10727936361E+04  0.15294330000E+03 0.  0.
<mgrwt>
<rscale>  0 0.73504117E+03</rscale>
<asrwt>0</asrwt>
<pdfrwt beam="1">  1        1 0.19082573E+00 0.73504117E+03</pdfrwt>
<pdfrwt beam="2">  1       -1 0.16161400E+00 0.73504117E+03</pdfrwt>
<totfact> 0.29642741E+00</totfact>
</mgrwt>
</event>
<event>
 4    1  0.2731969E-009  0.2443338E+03  0.7818608E-02  0.1116939E+00
         -1   -1    0    0    0  501 -0.00000000000E+00  0.00000000000E+00  0.10032920093E+04  0.10032920093E+04  0.50400000000E-02 0.  1.
          1   -1    0    0  501    0  0.00000000000E+00 -0.00000000000E+00 -0.78308415504E+03  0.78308415506E+03  0.50400000000E-02 0. -1.
    8880022    1    1    2    0    0 -0.13551873518E+03  0.13394784917E+03 -0.74847907952E+03  0.78734994721E+03  0.15294330000E+03 0.  0.
    8880022    1    1    2    0    0  0.13551873518E+03 -0.13394784917E+03  0.96868693373E+03  0.99902621711E+03  0.15294330000E+03 0.  1.
<mgrwt>
<rscale>  0 0.24433380E+03</rscale>
<asrwt>0</asrwt>
<pdfrwt beam="1">  1        1 0.12047448E+00 0.24433380E+03</pdfrwt>
<pdfrwt beam="2">  1       -1 0.15435262E+00 0.24433380E+03</pdfrwt>
<totfact> 0.86030686E+00</totfact>
</mgrwt>
</event>
<event>
 4    1  0.2731969E-009  0.1288602E+04  0.7818608E-02  0.9038653E-01
         -1   -1    0    0    0  501 -0.00000000000E+00  0.00000000000E+00  0.18589543121E+04  0.18589543122E+04  0.50400000000E-02 0.  1.
          1   -1    0    0  501    0  0.00000000000E+00 -0.00000000000E+00 -0.12111828272E+04  0.12111828272E+04  0.50400000000E-02 0. -1.
    8880022    1    1    2    0    0  0.10684825223E+04  0.70388016805E+03 -0.46261093817E+03  0.13691248024E+04  0.15294330000E+03 0.  0.
    8880022    1    1    2    0    0 -0.10684825223E+04 -0.70388016805E+03  0.11103824232E+04  0.17010123369E+04  0.15294330000E+03 0.  0.
<mgrwt>
<rscale>  0 0.12886015E+04</rscale>
<asrwt>0</asrwt>
<pdfrwt beam="1">  1        1 0.18633582E+00 0.12886015E+04</pdfrwt>
<pdfrwt beam="2">  1       -1 0.28599297E+00 0.12886015E+04</pdfrwt>
<totfact> 0.41485400E-01</totfact>
</mgrwt>
</event>
<event>
 4    1  0.2731969E-009  0.1031243E+04  0.7818608E-02  0.9274927E-01
         -1   -1    0    0    0  501 -0.00000000000E+00  0.00000000000E+00  0.75042744741E+03  0.75042744742E+03  0.50400000000E-02 0.  1.
          1   -1    0    0  501    0  0.00000000000E+00 -0.00000000000E+00 -0.25385330256E+04  0.25385330256E+04  0.50400000000E-02 0. -1.
    8880022    1    1    2    0    0 -0.26195422424E+03  0.98562183225E+03 -0.19870419028E+04  0.22387044442E+04  0.15294330000E+03 0.  0.
    8880022    1    1    2    0    0  0.26195422424E+03 -0.98562183225E+03  0.19893632465E+03  0.10502560288E+04  0.15294330000E+03 0.  0.
<mgrwt>
<rscale>  0 0.10312430E+04</rscale>
<asrwt>0</asrwt>
<pdfrwt beam="1">  1        1 0.39054354E+00 0.10312430E+04</pdfrwt>
<pdfrwt beam="2">  1       -1 0.11545038E+00 0.10312430E+04</pdfrwt>
<totfact> 0.87816624E-01</totfact>
</mgrwt>
</event>
<event>
 4    1  0.2731969E-009  0.2890515E+03  0.7818608E-02  0.1090845E+00
         -1   -1    0    0    0  501 -0.00000000000E+00  0.00000000000E+00  0.30726458189E+03  0.30726458193E+03  0.50400000000E-02 0.  1.
          1   -1    0    0  501    0  0.00000000000E+00 -0.00000000000E+00 -0.30739314972E+03  0.30739314976E+03  0.50400000000E-02 0. -1.
    8880022    1    1    2    0    0  0.15406819436E+03 -0.19084580006E+03  0.10433996504E+03  0.30730702763E+03  0.15294330000E+03 0.  0.
    8880022    1    1    2    0    0 -0.15406819436E+03  0.19084580006E+03 -0.10446853287E+03  0.30735070406E+03  0.15294330000E+03 0.  0.
<mgrwt>
<rscale>  0 0.28905152E+03</rscale>
<asrwt>0</asrwt>
<pdfrwt beam="1">  1        1 0.47291254E-01 0.28905152E+03</pdfrwt>
<pdfrwt beam="2">  1       -1 0.47271474E-01 0.28905152E+03</pdfrwt>
<totfact> 0.38915356E+02</totfact>
</mgrwt>
</event>
<event>
 4    1  0.2731969E-009  0.1599557E+04  0.7818608E-02  0.8820820E-01
         -1   -1    0    0    0  501 -0.00000000000E+00  0.00000000000E+00  0.12132246691E+04  0.12132246691E+04  0.50400000000E-02 0.  1.
          1   -1    0    0  501    0  0.00000000000E+00 -0.00000000000E+00 -0.26906971423E+04  0.26906971423E+04  0.50400000000E-02 0. -1.
    8880022    1    1    2    0    0  0.15873677566E+04  0.12431632466E+03 -0.16463905395E+04  0.22954704104E+04  0.15294330000E+03 0.  0.
    8880022    1    1    2    0    0 -0.15873677566E+04 -0.12431632466E+03  0.16891806628E+03  0.16084514010E+04  0.15294330000E+03 0.  0.
<mgrwt>
<rscale>  0 0.15995570E+04</rscale>
<asrwt>0</asrwt>
<pdfrwt beam="1">  1        1 0.41395340E+00 0.15995570E+04</pdfrwt>
<pdfrwt beam="2">  1       -1 0.18664995E+00 0.15995570E+04</pdfrwt>
<totfact> 0.17395886E-01</totfact>
</mgrwt>
</event>
<event>
 4    1  0.2731969E-009  0.3031347E+03  0.7818608E-02  0.1083684E+00
         -1   -1    0    0    0  501 -0.00000000000E+00  0.00000000000E+00  0.19183921919E+03  0.19183921926E+03  0.50400000000E-02 0.  1.
          1   -1    0    0  501    0  0.00000000000E+00 -0.00000000000E+00 -0.10247210535E+04  0.10247210535E+04  0.50400000000E-02 0. -1.
    8880022    1    1    2    0    0 -0.24233461660E+03  0.98857978060E+02  0.27460897337E+02  0.30437595195E+03  0.15294330000E+03 0.  1.
    8880022    1    1    2    0    0  0.24233461660E+03 -0.98857978060E+02 -0.86034273167E+03  0.91218432084E+03  0.15294330000E+03 0.  0.
<mgrwt>
<rscale>  0 0.30313466E+03</rscale>
<asrwt>0</asrwt>
<pdfrwt beam="1">  1        1 0.15764939E+00 0.30313466E+03</pdfrwt>
<pdfrwt beam="2">  1       -1 0.29513727E-01 0.30313466E+03</pdfrwt>
<totfact> 0.16181629E+02</totfact>
</mgrwt>
</event>
<event>
 4    1  0.2731969E-009  0.2349990E+03  0.7818608E-02  0.1123170E+00
         -1   -1    0    0    0  501 -0.00000000000E+00  0.00000000000E+00  0.92570706502E+03  0.92570706504E+03  0.50400000000E-02 0.  1.
          1   -1    0    0  501    0  0.00000000000E+00 -0.00000000000E+00 -0.21683059990E+03  0.21683059996E+03  0.50400000000E-02 0. -1.
    8880022    1    1    2    0    0 -0.13487677420E+03 -0.11679535239E+03  0.84081248282E+03  0.87303504101E+03  0.15294330000E+03 0.  1.
    8880022    1    1    2    0    0  0.13487677420E+03  0.11679535239E+03 -0.13193601770E+03  0.26950262399E+03  0.15294330000E+03 0.  0.
<mgrwt>
<rscale>  0 0.23499905E+03</rscale>
<asrwt>0</asrwt>
<pdfrwt beam="1">  1        1 0.33358554E-01 0.23499905E+03</pdfrwt>
<pdfrwt beam="2">  1       -1 0.14241647E+00 0.23499905E+03</pdfrwt>
<totfact> 0.58205231E+01</totfact>
</mgrwt>
</event>
<event>
 4    1  0.2731969E-009  0.6864310E+03  0.7818608E-02  0.9740723E-01
          1   -1    0    0  501    0  0.00000000000E+00  0.00000000000E+00  0.25230712221E+04  0.25230712221E+04  0.50400000000E-02 0. -1.
         -1   -1    0    0    0  501 -0.00000000000E+00 -0.00000000000E+00 -0.81988409269E+03  0.81988409271E+03  0.50400000000E-02 0.  1.
    8880022    1    1    2    0    0 -0.13901215155E+03 -0.65457729341E+03 -0.61723687275E+03  0.92312990496E+03  0.15294330000E+03 0.  1.
    8880022    1    1    2    0    0  0.13901215155E+03  0.65457729341E+03  0.23204240021E+04  0.24198254098E+04  0.15294330000E+03 0.  0.
<mgrwt>
<rscale>  0 0.68643096E+03</rscale>
<asrwt>0</asrwt>
<pdfrwt beam="1">  1        1 0.38816480E+00 0.68643096E+03</pdfrwt>
<pdfrwt beam="2">  1       -1 0.12613601E+00 0.68643096E+03</pdfrwt>
<totfact> 0.77573450E-01</totfact>
</mgrwt>
</event>
<event>
 4    1  0.2731969E-009  0.3387191E+03  0.7818608E-02  0.1067343E+00
          1   -1    0    0  501    0  0.00000000000E+00  0.00000000000E+00  0.50456134121E+03  0.50456134124E+03  0.50400000000E-02 0. -1.
         -1   -1    0    0    0  501 -0.00000000000E+00 -0.00000000000E+00 -0.14710576912E+04  0.14710576912E+04  0.50400000000E-02 0.  1.
    8880022    1    1    2    0    0  0.23014001415E+03 -0.19589423845E+03 -0.13915100257E+04  0.14321420262E+04  0.15294330000E+03 0.  0.
    8880022    1    1    2    0    0 -0.23014001415E+03  0.19589423845E+03  0.42501367567E+03  0.54347700622E+03  0.15294330000E+03 0. -1.
<mgrwt>
<rscale>  0 0.33871910E+03</rscale>
<asrwt>0</asrwt>
<pdfrwt beam="1">  1        1 0.77624822E-01 0.33871910E+03</pdfrwt>
<pdfrwt beam="2">  1       -1 0.22631657E+00 0.33871910E+03</pdfrwt>
<totfact> 0.49596153E+00</totfact>
</mgrwt>
</event>
<event>
 4    1  0.2731969E-009  0.6752690E+03  0.7818608E-02  0.9760486E-01
         -1   -1    0    0    0  501 -0.00000000000E+00  0.00000000000E+00  0.56454444209E+03  0.56454444211E+03  0.50400000000E-02 0.  1.
          1   -1    0    0  501    0  0.00000000000E+00 -0.00000000000E+00 -0.35424474779E+04  0.35424474779E+04  0.50400000000E-02 0. -1.
    8880022    1    1    2    0    0  0.65248091934E+03 -0.82856396098E+02 -0.32932150236E+04  0.33617336862E+04  0.15294330000E+03 0.  0.
    8880022    1    1    2    0    0 -0.65248091934E+03  0.82856396098E+02  0.31531198773E+03  0.74525823384E+03  0.15294330000E+03 0.  0.
<mgrwt>
<rscale>  0 0.67526897E+03</rscale>
<asrwt>0</asrwt>
<pdfrwt beam="1">  1        1 0.54499191E+00 0.67526897E+03</pdfrwt>
<pdfrwt beam="2">  1       -1 0.86852993E-01 0.67526897E+03</pdfrwt>
<totfact> 0.33888848E-01</totfact>
</mgrwt>
</event>
<event>
 4    1  0.2731969E-009  0.9553242E+03  0.7818608E-02  0.9358949E-01
          1   -1    0    0  501    0  0.00000000000E+00  0.00000000000E+00  0.12111385461E+04  0.12111385461E+04  0.50400000000E-02 0. -1.
         -1   -1    0    0    0  501 -0.00000000000E+00 -0.00000000000E+00 -0.11629460660E+04  0.11629460660E+04  0.50400000000E-02 0.  1.
    8880022    1    1    2    0    0  0.31118549674E+03  0.89017768674E+03 -0.68021110177E+03  0.11727452935E+04  0.15294330000E+03 0.  1.
    8880022    1    1    2    0    0 -0.31118549674E+03 -0.89017768674E+03  0.72840358186E+03  0.12013393186E+04  0.15294330000E+03 0.  0.
<mgrwt>
<rscale>  0 0.95532423E+03</rscale>
<asrwt>0</asrwt>
<pdfrwt beam="1">  1        1 0.18632901E+00 0.95532423E+03</pdfrwt>
<pdfrwt beam="2">  1       -1 0.17891478E+00 0.95532423E+03</pdfrwt>
<totfact> 0.22450385E+00</totfact>
</mgrwt>
</event>
<event>
 4    1  0.2731969E-009  0.6795522E+03  0.7818608E-02  0.9752854E-01
         -1   -1    0    0    0  501 -0.00000000000E+00  0.00000000000E+00  0.27533299384E+03  0.27533299389E+03  0.50400000000E-02 0.  1.
          1   -1    0    0  501    0  0.00000000000E+00 -0.00000000000E+00 -0.31554426836E+04  0.31554426836E+04  0.50400000000E-02 0. -1.
    8880022    1    1    2    0    0 -0.56999771787E+03  0.33690082546E+03 -0.26595887689E+03  0.72974333966E+03  0.15294330000E+03 0.  0.
    8880022    1    1    2    0    0  0.56999771787E+03 -0.33690082546E+03 -0.26141508129E+04  0.27010323379E+04  0.15294330000E+03 0.  0.
<mgrwt>
<rscale>  0 0.67955222E+03</rscale>
<asrwt>0</asrwt>
<pdfrwt beam="1">  1        1 0.48545269E+00 0.67955222E+03</pdfrwt>
<pdfrwt beam="2">  1       -1 0.42358924E-01 0.67955222E+03</pdfrwt>
<totfact> 0.27471804E+00</totfact>
</mgrwt>
</event>
<event>
 4    1  0.2731969E-009  0.1159710E+04  0.7818608E-02  0.9148872E-01
          1   -1    0    0  501    0  0.00000000000E+00  0.00000000000E+00  0.14493817386E+04  0.14493817386E+04  0.50400000000E-02 0. -1.
         -1   -1    0    0    0  501 -0.00000000000E+00 -0.00000000000E+00 -0.10038968525E+04  0.10038968525E+04  0.50400000000E-02 0.  1.
    8880022    1    1    2    0    0  0.40409952608E+03 -0.10762148350E+04 -0.11468556698E+03  0.11653665648E+04  0.15294330000E+03 0.  0.
    8880022    1    1    2    0    0 -0.40409952608E+03  0.10762148350E+04  0.56017045307E+03  0.12879120263E+04  0.15294330000E+03 0.  0.
<mgrwt>
<rscale>  0 0.11597096E+04</rscale>
<asrwt>0</asrwt>
<pdfrwt beam="1">  1        1 0.22298180E+00 0.11597096E+04</pdfrwt>
<pdfrwt beam="2">  1       -1 0.15444567E+00 0.11597096E+04</pdfrwt>
<totfact> 0.22528101E+00</totfact>
</mgrwt>
</event>
<event>
 4    1  0.2731969E-009  0.4950576E+03  0.7818608E-02  0.1015077E+00
          1   -1    0    0  501    0  0.00000000000E+00  0.00000000000E+00  0.26027164166E+04  0.26027164166E+04  0.50400000000E-02 0. -1.
         -1   -1    0    0    0  501 -0.00000000000E+00 -0.00000000000E+00 -0.19450340404E+03  0.19450340410E+03  0.50400000000E-02 0.  1.
    8880022    1    1    2    0    0  0.42502740019E+03  0.20258854986E+03  0.22086502657E+04  0.22634526857E+04  0.15294330000E+03 0.  0.
    8880022    1    1    2    0    0 -0.42502740019E+03 -0.20258854986E+03  0.19956274693E+03  0.53376713501E+03  0.15294330000E+03 0.  1.
<mgrwt>
<rscale>  0 0.49505764E+03</rscale>
<asrwt>0</asrwt>
<pdfrwt beam="1">  1        1 0.40041793E+00 0.49505764E+03</pdfrwt>
<pdfrwt beam="2">  1       -1 0.29923599E-01 0.49505764E+03</pdfrwt>
<totfact> 0.13037952E+01</totfact>
</mgrwt>
</event>
<event>
 4    1  0.2731969E-009  0.8738248E+03  0.7818608E-02  0.9458906E-01
         -1   -1    0    0    0  501 -0.00000000000E+00  0.00000000000E+00  0.46185142021E+03  0.46185142023E+03  0.50400000000E-02 0.  1.
          1   -1    0    0  501    0  0.00000000000E+00 -0.00000000000E+00 -0.26094214161E+04  0.26094214161E+04  0.50400000000E-02 0. -1.
    8880022    1    1    2    0    0  0.82342817328E+03 -0.24928748896E+03 -0.14422530162E+03  0.88564710768E+03  0.15294330000E+03 0.  0.
    8880022    1    1    2    0    0 -0.82342817328E+03  0.24928748896E+03 -0.20033446943E+04  0.21856257287E+04  0.15294330000E+03 0.  0.
<mgrwt>
<rscale>  0 0.87382485E+03</rscale>
<asrwt>0</asrwt>
<pdfrwt beam="1">  1        1 0.40144944E+00 0.87382485E+03</pdfrwt>
<pdfrwt beam="2">  1       -1 0.71054066E-01 0.87382485E+03</pdfrwt>
<totfact> 0.23672954E+00</totfact>
</mgrwt>
</event>
<event>
 4    1  0.2731969E-009  0.1074150E+04  0.7818608E-02  0.9230760E-01
          1   -1    0    0  501    0  0.00000000000E+00  0.00000000000E+00  0.68273911289E+03  0.68273911291E+03  0.50400000000E-02 0. -1.
         -1   -1    0    0    0  501 -0.00000000000E+00 -0.00000000000E+00 -0.41771527662E+04  0.41771527662E+04  0.50400000000E-02 0.  1.
    8880022    1    1    2    0    0  0.93241440701E+03 -0.51089114425E+03  0.12783791434E+03  0.10817303606E+04  0.15294330000E+03 0.  0.
    8880022    1    1    2    0    0 -0.93241440701E+03  0.51089114425E+03 -0.36222515676E+04  0.37781615185E+04  0.15294330000E+03 0.  0.
<mgrwt>
<rscale>  0 0.10741499E+04</rscale>
<asrwt>0</asrwt>
<pdfrwt beam="1">  1        1 0.10503679E+00 0.10741499E+04</pdfrwt>
<pdfrwt beam="2">  1       -1 0.64263887E+00 0.10741499E+04</pdfrwt>
<totfact> 0.85642355E-03</totfact>
</mgrwt>
</event>
<event>
 4    1  0.2731969E-009  0.8358921E+03  0.7818608E-02  0.9509470E-01
          1   -1    0    0  501    0  0.00000000000E+00  0.00000000000E+00  0.11160497840E+04  0.11160497840E+04  0.50400000000E-02 0. -1.
         -1   -1    0    0    0  501 -0.00000000000E+00 -0.00000000000E+00 -0.21080143095E+04  0.21080143095E+04  0.50400000000E-02 0.  1.
    8880022    1    1    2    0    0 -0.63626952309E+03  0.52008182217E+03  0.85563615071E+03  0.11961725976E+04  0.15294330000E+03 0.  0.
    8880022    1    1    2    0    0  0.63626952309E+03 -0.52008182217E+03 -0.18476006762E+04  0.20278914959E+04  0.15294330000E+03 0.  0.
<mgrwt>
<rscale>  0 0.83589213E+03</rscale>
<asrwt>0</asrwt>
<pdfrwt beam="1">  1        1 0.17169997E+00 0.83589213E+03</pdfrwt>
<pdfrwt beam="2">  1       -1 0.32430990E+00 0.83589213E+03</pdfrwt>
<totfact> 0.29693037E-01</totfact>
</mgrwt>
</event>
<event>
 4    1  0.2731969E-009  0.3555772E+03  0.7818608E-02  0.1060349E+00
          1   -1    0    0  501    0  0.00000000000E+00  0.00000000000E+00  0.10715075154E+04  0.10715075155E+04  0.50400000000E-02 0. -1.
         -1   -1    0    0    0  501 -0.00000000000E+00 -0.00000000000E+00 -0.67677906361E+03  0.67677906363E+03  0.50400000000E-02 0.  1.
    8880022    1    1    2    0    0 -0.17193405367E+03  0.27107597870E+03 -0.59692783705E+03  0.69480788762E+03  0.15294330000E+03 0.  0.
    8880022    1    1    2    0    0  0.17193405367E+03 -0.27107597870E+03  0.99165628889E+03  0.10534786915E+04  0.15294330000E+03 0.  0.
<mgrwt>
<rscale>  0 0.35557722E+03</rscale>
<asrwt>0</asrwt>
<pdfrwt beam="1">  1        1 0.16484731E+00 0.35557722E+03</pdfrwt>
<pdfrwt beam="2">  1       -1 0.10411986E+00 0.35557722E+03</pdfrwt>
<totfact> 0.12902274E+01</totfact>
</mgrwt>
</event>
<event>
 4    1  0.2731969E-009  0.1151963E+04  0.7818608E-02  0.9155974E-01
          1   -1    0    0  501    0  0.00000000000E+00  0.00000000000E+00  0.16613463180E+04  0.16613463180E+04  0.50400000000E-02 0. -1.
         -1   -1    0    0    0  501 -0.00000000000E+00 -0.00000000000E+00 -0.11476888808E+04  0.11476888808E+04  0.50400000000E-02 0.  1.
    8880022    1    1    2    0    0 -0.10293222374E+04 -0.49408787721E+03  0.10312600148E+04  0.15461293510E+04  0.15294330000E+03 0.  0.
    8880022    1    1    2    0    0  0.10293222374E+04  0.49408787721E+03 -0.51760257759E+03  0.12629058477E+04  0.15294330000E+03 0.  0.
<mgrwt>
<rscale>  0 0.11519630E+04</rscale>
<asrwt>0</asrwt>
<pdfrwt beam="1">  1        1 0.25559174E+00 0.11519630E+04</pdfrwt>
<pdfrwt beam="2">  1       -1 0.17656752E+00 0.11519630E+04</pdfrwt>
<totfact> 0.11008828E+00</totfact>
</mgrwt>
</event>
<event>
 4    1  0.2731969E-009  0.9019127E+03  0.7818608E-02  0.9423194E-01
         -1   -1    0    0    0  501 -0.00000000000E+00  0.00000000000E+00  0.55560654755E+03  0.55560654757E+03  0.50400000000E-02 0.  1.
          1   -1    0    0  501    0  0.00000000000E+00 -0.00000000000E+00 -0.16883494021E+04  0.16883494022E+04  0.50400000000E-02 0. -1.
    8880022    1    1    2    0    0  0.48835474290E+03 -0.74267389027E+03 -0.15744187733E+03  0.91555145129E+03  0.15294330000E+03 0.  0.
    8880022    1    1    2    0    0 -0.48835474290E+03  0.74267389027E+03 -0.97530097726E+03  0.13284044984E+04  0.15294330000E+03 0.  0.
<mgrwt>
<rscale>  0 0.90191270E+03</rscale>
<asrwt>0</asrwt>
<pdfrwt beam="1">  1        1 0.25974606E+00 0.90191270E+03</pdfrwt>
<pdfrwt beam="2">  1       -1 0.85477931E-01 0.90191270E+03</pdfrwt>
<totfact> 0.66974885E+00</totfact>
</mgrwt>
</event>
<event>
 4    1  0.2731969E-009  0.9687450E+03  0.7818608E-02  0.9343505E-01
          1   -1    0    0  501    0  0.00000000000E+00  0.00000000000E+00  0.21602191306E+04  0.21602191306E+04  0.50400000000E-02 0. -1.
         -1   -1    0    0    0  501 -0.00000000000E+00 -0.00000000000E+00 -0.11946967281E+04  0.11946967282E+04  0.50400000000E-02 0.  1.
    8880022    1    1    2    0    0 -0.87551912258E+03  0.38541090175E+03  0.18209130598E+04  0.20625691071E+04  0.15294330000E+03 0.  0.
    8880022    1    1    2    0    0  0.87551912258E+03 -0.38541090175E+03 -0.85539065727E+03  0.12923467517E+04  0.15294330000E+03 0.  0.
<mgrwt>
<rscale>  0 0.96874504E+03</rscale>
<asrwt>0</asrwt>
<pdfrwt beam="1">  1        1 0.33234140E+00 0.96874504E+03</pdfrwt>
<pdfrwt beam="2">  1       -1 0.18379950E+00 0.96874504E+03</pdfrwt>
<totfact> 0.46227593E-01</totfact>
</mgrwt>
</event>
<event>
 4    1  0.2731969E-009  0.4824527E+03  0.7818608E-02  0.1018463E+00
          1   -1    0    0  501    0  0.00000000000E+00  0.00000000000E+00  0.96511495150E+03  0.96511495151E+03  0.50400000000E-02 0. -1.
         -1   -1    0    0    0  501 -0.00000000000E+00 -0.00000000000E+00 -0.26179403211E+03  0.26179403216E+03  0.50400000000E-02 0.  1.
    8880022    1    1    2    0    0  0.97502052336E+02  0.44705965171E+03  0.17949456418E+03  0.51476104551E+03  0.15294330000E+03 0.  0.
    8880022    1    1    2    0    0 -0.97502052336E+02 -0.44705965171E+03  0.52382635521E+03  0.71214793816E+03  0.15294330000E+03 0.  0.
<mgrwt>
<rscale>  0 0.48245273E+03</rscale>
<asrwt>0</asrwt>
<pdfrwt beam="1">  1        1 0.14847922E+00 0.48245273E+03</pdfrwt>
<pdfrwt beam="2">  1       -1 0.40276004E-01 0.48245273E+03</pdfrwt>
<totfact> 0.10145752E+02</totfact>
</mgrwt>
</event>
<event>
 4    1  0.2731969E-009  0.1876408E+04  0.7818608E-02  0.8666690E-01
          1   -1    0    0  501    0  0.00000000000E+00  0.00000000000E+00  0.31522206229E+04  0.31522206229E+04  0.50400000000E-02 0. -1.
         -1   -1    0    0    0  501 -0.00000000000E+00 -0.00000000000E+00 -0.25854724659E+04  0.25854724659E+04  0.50400000000E-02 0.  1.
    8880022    1    1    2    0    0 -0.16427996962E+02  0.18700920691E+04 -0.18787275637E+04  0.26552821201E+04  0.15294330000E+03 0.  0.
    8880022    1    1    2    0    0  0.16427996962E+02 -0.18700920691E+04  0.24454757207E+04  0.30824109687E+04  0.15294330000E+03 0.  0.
<mgrwt>
<rscale>  0 0.18764077E+04</rscale>
<asrwt>0</asrwt>
<pdfrwt beam="1">  1        1 0.48495702E+00 0.18764077E+04</pdfrwt>
<pdfrwt beam="2">  1       -1 0.39776500E+00 0.18764077E+04</pdfrwt>
<totfact> 0.30601384E-03</totfact>
</mgrwt>
</event>
<event>
 4    1  0.2731969E-009  0.1001234E+04  0.7818608E-02  0.9307192E-01
          1   -1    0    0  501    0  0.00000000000E+00  0.00000000000E+00  0.84761776823E+03  0.84761776824E+03  0.50400000000E-02 0. -1.
         -1   -1    0    0    0  501 -0.00000000000E+00 -0.00000000000E+00 -0.32819026536E+04  0.32819026537E+04  0.50400000000E-02 0.  1.
    8880022    1    1    2    0    0 -0.85722668535E+03 -0.49420746208E+03  0.43419126611E+03  0.10913259432E+04  0.15294330000E+03 0.  0.
    8880022    1    1    2    0    0  0.85722668535E+03  0.49420746208E+03 -0.28684761515E+04  0.30381944787E+04  0.15294330000E+03 0.  0.
<mgrwt>
<rscale>  0 0.10012344E+04</rscale>
<asrwt>0</asrwt>
<pdfrwt beam="1">  1        1 0.13040274E+00 0.10012344E+04</pdfrwt>
<pdfrwt beam="2">  1       -1 0.50490809E+00 0.10012344E+04</pdfrwt>
<totfact> 0.28361118E-02</totfact>
</mgrwt>
</event>
<event>
 4    1  0.2731969E-009  0.4188266E+03  0.7818608E-02  0.1037449E+00
         -1   -1    0    0    0  501 -0.00000000000E+00  0.00000000000E+00  0.35969490972E+03  0.35969490976E+03  0.50400000000E-02 0.  1.
          1   -1    0    0  501    0  0.00000000000E+00 -0.00000000000E+00 -0.11958166612E+04  0.11958166612E+04  0.50400000000E-02 0. -1.
    8880022    1    1    2    0    0 -0.15854585411E+03  0.35621245414E+03  0.18044678229E+03  0.45604472872E+03  0.15294330000E+03 0.  0.
    8880022    1    1    2    0    0  0.15854585411E+03 -0.35621245414E+03 -0.10165685337E+04  0.10994668422E+04  0.15294330000E+03 0. -1.
<mgrwt>
<rscale>  0 0.41882664E+03</rscale>
<asrwt>0</asrwt>
<pdfrwt beam="1">  1        1 0.18397179E+00 0.41882664E+03</pdfrwt>
<pdfrwt beam="2">  1       -1 0.55337679E-01 0.41882664E+03</pdfrwt>
<totfact> 0.38331752E+01</totfact>
</mgrwt>
</event>
<event>
 4    1  0.2731969E-009  0.6900372E+03  0.7818608E-02  0.9734423E-01
          1   -1    0    0  501    0  0.00000000000E+00  0.00000000000E+00  0.73115314694E+03  0.73115314696E+03  0.50400000000E-02 0. -1.
         -1   -1    0    0    0  501 -0.00000000000E+00 -0.00000000000E+00 -0.13575013527E+04  0.13575013528E+04  0.50400000000E-02 0.  1.
    8880022    1    1    2    0    0  0.13230752897E+03  0.65973812881E+03  0.44009686887E+03  0.81843545123E+03  0.15294330000E+03 0. -1.
    8880022    1    1    2    0    0 -0.13230752897E+03 -0.65973812881E+03 -0.10664450747E+04  0.12702190485E+04  0.15294330000E+03 0.  0.
<mgrwt>
<rscale>  0 0.69003720E+03</rscale>
<asrwt>0</asrwt>
<pdfrwt beam="1">  1        1 0.11248510E+00 0.69003720E+03</pdfrwt>
<pdfrwt beam="2">  1       -1 0.20884636E+00 0.69003720E+03</pdfrwt>
<totfact> 0.35013789E+00</totfact>
</mgrwt>
</event>
<event>
 4    1  0.2731969E-009  0.1316800E+04  0.7818608E-02  0.9016348E-01
         -1   -1    0    0    0  501 -0.00000000000E+00  0.00000000000E+00  0.62992368322E+03  0.62992368324E+03  0.50400000000E-02 0.  1.
          1   -1    0    0  501    0  0.00000000000E+00 -0.00000000000E+00 -0.31147135630E+04  0.31147135631E+04  0.50400000000E-02 0. -1.
    8880022    1    1    2    0    0  0.10838706148E+04 -0.73197959035E+03 -0.18807485853E+04  0.22959042934E+04  0.15294330000E+03 0.  0.
    8880022    1    1    2    0    0 -0.10838706148E+04  0.73197959035E+03 -0.60404129452E+03  0.14487329529E+04  0.15294330000E+03 0.  0.
<mgrwt>
<rscale>  0 0.13167996E+04</rscale>
<asrwt>0</asrwt>
<pdfrwt beam="1">  1        1 0.47918669E+00 0.13167996E+04</pdfrwt>
<pdfrwt beam="2">  1       -1 0.96911337E-01 0.13167996E+04</pdfrwt>
<totfact> 0.49479274E-01</totfact>
</mgrwt>
</event>
<event>
 4    1  0.2731969E-009  0.4601560E+03  0.7818608E-02  0.1024736E+00
         -1   -1    0    0    0  501 -0.00000000000E+00  0.00000000000E+00  0.21144228986E+03  0.21144228992E+03  0.50400000000E-02 0.  1.
          1   -1    0    0  501    0  0.00000000000E+00 -0.00000000000E+00 -0.17961576379E+04  0.17961576379E+04  0.50400000000E-02 0. -1.
    8880022    1    1    2    0    0 -0.37328283602E+03 -0.22138621015E+03 -0.12465134695E+03  0.47674053847E+03  0.15294330000E+03 0.  0.
    8880022    1    1    2    0    0  0.37328283602E+03  0.22138621015E+03 -0.14600640011E+04  0.15308593894E+04  0.15294330000E+03 0. -1.
<mgrwt>
<rscale>  0 0.46015604E+03</rscale>
<asrwt>0</asrwt>
<pdfrwt beam="1">  1        1 0.27633193E+00 0.46015604E+03</pdfrwt>
<pdfrwt beam="2">  1       -1 0.32529584E-01 0.46015604E+03</pdfrwt>
<totfact> 0.39172030E+01</totfact>
</mgrwt>
</event>
<event>
 4    1  0.2731969E-009  0.3417421E+03  0.7818608E-02  0.1066056E+00
          1   -1    0    0  501    0  0.00000000000E+00  0.00000000000E+00  0.25316275847E+04  0.25316275847E+04  0.50400000000E-02 0. -1.
         -1   -1    0    0    0  501 -0.00000000000E+00 -0.00000000000E+00 -0.29071101999E+03  0.29071102003E+03  0.50400000000E-02 0.  1.
    8880022    1    1    2    0    0  0.30380515245E+03 -0.33142628759E+02 -0.17391177985E+03  0.38344877713E+03  0.15294330000E+03 0.  0.
    8880022    1    1    2    0    0 -0.30380515245E+03  0.33142628759E+02  0.24148283445E+04  0.24388898276E+04  0.15294330000E+03 0. -1.
<mgrwt>
<rscale>  0 0.34174209E+03</rscale>
<asrwt>0</asrwt>
<pdfrwt beam="1">  1        1 0.38948118E+00 0.34174209E+03</pdfrwt>
<pdfrwt beam="2">  1       -1 0.44724771E-01 0.34174209E+03</pdfrwt>
<totfact> 0.74902231E+00</totfact>
</mgrwt>
</event>
<event>
 4    1  0.2731969E-009  0.7858236E+03  0.7818608E-02  0.9580767E-01
         -1   -1    0    0    0  501 -0.00000000000E+00  0.00000000000E+00  0.20391501394E+04  0.20391501394E+04  0.50400000000E-02 0.  1.
          1   -1    0    0  501    0  0.00000000000E+00 -0.00000000000E+00 -0.13990965801E+04  0.13990965801E+04  0.50400000000E-02 0. -1.
    8880022    1    1    2    0    0  0.56875724489E+03 -0.52023287664E+03 -0.12017151357E+04  0.14358405099E+04  0.15294330000E+03 0.  0.
    8880022    1    1    2    0    0 -0.56875724489E+03  0.52023287664E+03  0.18417686949E+04  0.20024062096E+04  0.15294330000E+03 0.  0.
<mgrwt>
<rscale>  0 0.78582358E+03</rscale>
<asrwt>0</asrwt>
<pdfrwt beam="1">  1        1 0.21524563E+00 0.78582358E+03</pdfrwt>
<pdfrwt beam="2">  1       -1 0.31371541E+00 0.78582358E+03</pdfrwt>
<totfact> 0.22021583E-01</totfact>
</mgrwt>
</event>
<event>
 4    1  0.2731969E-009  0.1627885E+04  0.7818608E-02  0.8803598E-01
          1   -1    0    0  501    0  0.00000000000E+00  0.00000000000E+00  0.22358934697E+04  0.22358934697E+04  0.50400000000E-02 0. -1.
         -1   -1    0    0    0  501 -0.00000000000E+00 -0.00000000000E+00 -0.13451960853E+04  0.13451960853E+04  0.50400000000E-02 0.  1.
    8880022    1    1    2    0    0  0.18619314530E+02 -0.16205770830E+04  0.10628393480E+04  0.19441285691E+04  0.15294330000E+03 0.  0.
    8880022    1    1    2    0    0 -0.18619314530E+02  0.16205770830E+04 -0.17214196365E+03  0.16369609859E+04  0.15294330000E+03 0.  0.
<mgrwt>
<rscale>  0 0.16278846E+04</rscale>
<asrwt>0</asrwt>
<pdfrwt beam="1">  1        1 0.34398361E+00 0.16278846E+04</pdfrwt>
<pdfrwt beam="2">  1       -1 0.20695325E+00 0.16278846E+04</pdfrwt>
<totfact> 0.25857148E-01</totfact>
</mgrwt>
</event>
<event>
 4    1  0.2731969E-009  0.9981166E+03  0.7818608E-02  0.9310613E-01
         -1   -1    0    0    0  501 -0.00000000000E+00  0.00000000000E+00  0.11044277171E+04  0.11044277171E+04  0.50400000000E-02 0.  1.
          1   -1    0    0  501    0  0.00000000000E+00 -0.00000000000E+00 -0.13084372416E+04  0.13084372416E+04  0.50400000000E-02 0. -1.
    8880022    1    1    2    0    0 -0.12449429501E+03  0.97844071558E+03  0.57035630576E+03  0.11495838516E+04  0.15294330000E+03 0.  0.
    8880022    1    1    2    0    0  0.12449429501E+03 -0.97844071558E+03 -0.77436583022E+03  0.12632811070E+04  0.15294330000E+03 0.  0.
<mgrwt>
<rscale>  0 0.99811658E+03</rscale>
<asrwt>0</asrwt>
<pdfrwt beam="1">  1        1 0.20129804E+00 0.99811658E+03</pdfrwt>
<pdfrwt beam="2">  1       -1 0.16991196E+00 0.99811658E+03</pdfrwt>
<totfact> 0.22087868E+00</totfact>
</mgrwt>
</event>
<event>
 4    1  0.2731969E-009  0.6011144E+03  0.7818608E-02  0.9903097E-01
         -1   -1    0    0    0  501 -0.00000000000E+00  0.00000000000E+00  0.50979639977E+03  0.50979639979E+03  0.50400000000E-02 0.  1.
          1   -1    0    0  501    0  0.00000000000E+00 -0.00000000000E+00 -0.13045914558E+04  0.13045914558E+04  0.50400000000E-02 0. -1.
    8880022    1    1    2    0    0 -0.36164775872E+03  0.45514584831E+03  0.21567762603E+03  0.63863552673E+03  0.15294330000E+03 0.  0.
    8880022    1    1    2    0    0  0.36164775872E+03 -0.45514584831E+03 -0.10104726821E+04  0.11757523289E+04  0.15294330000E+03 0.  0.
<mgrwt>
<rscale>  0 0.60111438E+03</rscale>
<asrwt>0</asrwt>
<pdfrwt beam="1">  1        1 0.20070638E+00 0.60111438E+03</pdfrwt>
<pdfrwt beam="2">  1       -1 0.78430216E-01 0.60111438E+03</pdfrwt>
<totfact> 0.15443908E+01</totfact>
</mgrwt>
</event>
<event>
 4    1  0.2731969E-009  0.1780241E+04  0.7818608E-02  0.8716878E-01
         -1   -1    0    0    0  501 -0.00000000000E+00  0.00000000000E+00  0.18497269751E+04  0.18497269751E+04  0.50400000000E-02 0.  1.
          1   -1    0    0  501    0  0.00000000000E+00 -0.00000000000E+00 -0.27225288045E+04  0.27225288045E+04  0.50400000000E-02 0. -1.
    8880022    1    1    2    0    0  0.14179847703E+04  0.10654512333E+04 -0.18282590038E+04  0.25518208749E+04  0.15294330000E+03 0.  0.
    8880022    1    1    2    0    0 -0.14179847703E+04 -0.10654512333E+04  0.95545717437E+03  0.20204349048E+04  0.15294330000E+03 0.  0.
<mgrwt>
<rscale>  0 0.17802412E+04</rscale>
<asrwt>0</asrwt>
<pdfrwt beam="1">  1        1 0.41885059E+00 0.17802412E+04</pdfrwt>
<pdfrwt beam="2">  1       -1 0.28457338E+00 0.17802412E+04</pdfrwt>
<totfact> 0.35785631E-02</totfact>
</mgrwt>
</event>
<event>
 4    1  0.2731969E-009  0.8778482E+03  0.7818608E-02  0.9453704E-01
          1   -1    0    0  501    0  0.00000000000E+00  0.00000000000E+00  0.51290717079E+04  0.51290717079E+04  0.50400000000E-02 0. -1.
         -1   -1    0    0    0  501 -0.00000000000E+00 -0.00000000000E+00 -0.72271700772E+03  0.72271700774E+03  0.50400000000E-02 0.  1.
    8880022    1    1    2    0    0 -0.80001821736E+03 -0.32740897034E+03 -0.40088649374E+03  0.96505306375E+03  0.15294330000E+03 0.  0.
    8880022    1    1    2    0    0  0.80001821736E+03  0.32740897034E+03  0.48072411939E+04  0.48867356519E+04  0.15294330000E+03 0.  0.
<mgrwt>
<rscale>  0 0.87784818E+03</rscale>
<asrwt>0</asrwt>
<pdfrwt beam="1">  1        1 0.78908799E+00 0.87784818E+03</pdfrwt>
<pdfrwt beam="2">  1       -1 0.11118723E+00 0.87784818E+03</pdfrwt>
<totfact> 0.49680981E-03</totfact>
</mgrwt>
</event>
<event>
 4    1  0.2731969E-009  0.6811828E+03  0.7818608E-02  0.9749964E-01
         -1   -1    0    0    0  501 -0.00000000000E+00  0.00000000000E+00  0.25288424999E+03  0.25288425004E+03  0.50400000000E-02 0.  1.
          1   -1    0    0  501    0  0.00000000000E+00 -0.00000000000E+00 -0.27744843800E+04  0.27744843800E+04  0.50400000000E-02 0. -1.
    8880022    1    1    2    0    0 -0.44396934977E+03  0.49346687758E+03 -0.21416841172E+04  0.22474031355E+04  0.15294330000E+03 0.  0.
    8880022    1    1    2    0    0  0.44396934977E+03 -0.49346687758E+03 -0.37991601284E+03  0.77996549451E+03  0.15294330000E+03 0.  0.
<mgrwt>
<rscale>  0 0.68118279E+03</rscale>
<asrwt>0</asrwt>
<pdfrwt beam="1">  1        1 0.42684373E+00 0.68118279E+03</pdfrwt>
<pdfrwt beam="2">  1       -1 0.38905271E-01 0.68118279E+03</pdfrwt>
<totfact> 0.59927392E+00</totfact>
</mgrwt>
</event>
<event>
 4    1  0.2731969E-009  0.1358106E+04  0.7818608E-02  0.8984714E-01
         -1   -1    0    0    0  501 -0.00000000000E+00  0.00000000000E+00  0.12841314062E+04  0.12841314062E+04  0.50400000000E-02 0.  1.
          1   -1    0    0  501    0  0.00000000000E+00 -0.00000000000E+00 -0.27757780514E+04  0.27757780514E+04  0.50400000000E-02 0. -1.
    8880022    1    1    2    0    0  0.11275227396E+04  0.74145397452E+03 -0.21559392274E+04  0.25480437849E+04  0.15294330000E+03 0.  0.
    8880022    1    1    2    0    0 -0.11275227396E+04 -0.74145397452E+03  0.66429258222E+03  0.15118656727E+04  0.15294330000E+03 0.  0.
<mgrwt>
<rscale>  0 0.13581065E+04</rscale>
<asrwt>0</asrwt>
<pdfrwt beam="1">  1        1 0.42704278E+00 0.13581065E+04</pdfrwt>
<pdfrwt beam="2">  1       -1 0.19755868E+00 0.13581065E+04</pdfrwt>
<totfact> 0.13095421E-01</totfact>
</mgrwt>
</event>
<event>
 4    1  0.2731969E-009  0.5732016E+03  0.7818608E-02  0.9962619E-01
          1   -1    0    0  501    0  0.00000000000E+00  0.00000000000E+00  0.12718442712E+04  0.12718442712E+04  0.50400000000E-02 0. -1.
         -1   -1    0    0    0  501 -0.00000000000E+00 -0.00000000000E+00 -0.94791411411E+03  0.94791411413E+03  0.50400000000E-02 0.  1.
    8880022    1    1    2    0    0  0.22526508711E+03 -0.50440462657E+03  0.11086026172E+04  0.12480223566E+04  0.15294330000E+03 0.  0.
    8880022    1    1    2    0    0 -0.22526508711E+03  0.50440462657E+03 -0.78467246012E+03  0.97173602870E+03  0.15294330000E+03 0.  0.
<mgrwt>
<rscale>  0 0.57320157E+03</rscale>
<asrwt>0</asrwt>
<pdfrwt beam="1">  1        1 0.19566835E+00 0.57320157E+03</pdfrwt>
<pdfrwt beam="2">  1       -1 0.14583294E+00 0.57320157E+03</pdfrwt>
<totfact> 0.38413711E+00</totfact>
</mgrwt>
</event>
<event>
 4    1  0.2731969E-009  0.1331036E+04  0.7818608E-02  0.9005309E-01
          1   -1    0    0  501    0  0.00000000000E+00  0.00000000000E+00  0.24088907497E+04  0.24088907497E+04  0.50400000000E-02 0. -1.
         -1   -1    0    0    0  501 -0.00000000000E+00 -0.00000000000E+00 -0.17420909454E+04  0.17420909454E+04  0.50400000000E-02 0.  1.
    8880022    1    1    2    0    0 -0.12957986561E+04 -0.26300185250E+03 -0.12442817897E+04  0.18220573418E+04  0.15294330000E+03 0.  0.
    8880022    1    1    2    0    0  0.12957986561E+04  0.26300185250E+03  0.19110815940E+04  0.23289243533E+04  0.15294330000E+03 0.  0.
<mgrwt>
<rscale>  0 0.13310356E+04</rscale>
<asrwt>0</asrwt>
<pdfrwt beam="1">  1        1 0.37059858E+00 0.13310356E+04</pdfrwt>
<pdfrwt beam="2">  1       -1 0.26801399E+00 0.13310356E+04</pdfrwt>
<totfact> 0.80559833E-02</totfact>
</mgrwt>
</event>
<event>
 4    1  0.2731969E-009  0.9828315E+03  0.7818608E-02  0.9327578E-01
          1   -1    0    0  501    0  0.00000000000E+00  0.00000000000E+00  0.12197793316E+04  0.12197793316E+04  0.50400000000E-02 0. -1.
         -1   -1    0    0    0  501 -0.00000000000E+00 -0.00000000000E+00 -0.15163593027E+04  0.15163593027E+04  0.50400000000E-02 0.  1.
    8880022    1    1    2    0    0  0.36453005671E+02 -0.97017379450E+03  0.79731662072E+03  0.12655715941E+04  0.15294330000E+03 0.  0.
    8880022    1    1    2    0    0 -0.36453005671E+02  0.97017379450E+03 -0.10938965918E+04  0.14705670402E+04  0.15294330000E+03 0.  0.
<mgrwt>
<rscale>  0 0.98283145E+03</rscale>
<asrwt>0</asrwt>
<pdfrwt beam="1">  1        1 0.18765836E+00 0.98283145E+03</pdfrwt>
<pdfrwt beam="2">  1       -1 0.23328605E+00 0.98283145E+03</pdfrwt>
<totfact> 0.93742853E-01</totfact>
</mgrwt>
</event>
<event>
 4    1  0.2731969E-009  0.8570771E+03  0.7818608E-02  0.9480887E-01
          1   -1    0    0  501    0  0.00000000000E+00  0.00000000000E+00  0.19973382319E+04  0.19973382319E+04  0.50400000000E-02 0. -1.
         -1   -1    0    0    0  501 -0.00000000000E+00 -0.00000000000E+00 -0.12012653938E+04  0.12012653938E+04  0.50400000000E-02 0.  1.
    8880022    1    1    2    0    0  0.32040810330E+03  0.78008214272E+03  0.17302072808E+04  0.19308543160E+04  0.15294330000E+03 0.  0.
    8880022    1    1    2    0    0 -0.32040810330E+03 -0.78008214272E+03 -0.93413444270E+03  0.12677493096E+04  0.15294330000E+03 0.  0.
<mgrwt>
<rscale>  0 0.85707710E+03</rscale>
<asrwt>0</asrwt>
<pdfrwt beam="1">  1        1 0.30728280E+00 0.85707710E+03</pdfrwt>
<pdfrwt beam="2">  1       -1 0.18481006E+00 0.85707710E+03</pdfrwt>
<totfact> 0.59751258E-01</totfact>
</mgrwt>
</event>
<event>
 4    1  0.2731969E-009  0.5522322E+03  0.7818608E-02  0.1000979E+00
         -1   -1    0    0    0  501 -0.00000000000E+00  0.00000000000E+00  0.18755167889E+03  0.18755167895E+03  0.50400000000E-02 0.  1.
          1   -1    0    0  501    0  0.00000000000E+00 -0.00000000000E+00 -0.23271407423E+04  0.23271407423E+04  0.50400000000E-02 0. -1.
    8880022    1    1    2    0    0  0.52216645644E+03 -0.94397662168E+02 -0.37964384362E+03  0.67014164761E+03  0.15294330000E+03 0.  0.
    8880022    1    1    2    0    0 -0.52216645644E+03  0.94397662168E+02 -0.17599452198E+04  0.18445507737E+04  0.15294330000E+03 0.  0.
<mgrwt>
<rscale>  0 0.55223218E+03</rscale>
<asrwt>0</asrwt>
<pdfrwt beam="1">  1        1 0.35802163E+00 0.55223218E+03</pdfrwt>
<pdfrwt beam="2">  1       -1 0.28854106E-01 0.55223218E+03</pdfrwt>
<totfact> 0.21045272E+01</totfact>
</mgrwt>
</event>
<event>
 4    1  0.2731969E-009  0.4042674E+03  0.7818608E-02  0.1042312E+00
          1   -1    0    0  501    0  0.00000000000E+00  0.00000000000E+00  0.11739964433E+04  0.11739964433E+04  0.50400000000E-02 0. -1.
         -1   -1    0    0    0  501 -0.00000000000E+00 -0.00000000000E+00 -0.10501260783E+04  0.10501260784E+04  0.50400000000E-02 0.  1.
    8880022    1    1    2    0    0 -0.25093184937E+03 -0.27762143744E+03  0.10976666264E+04  0.11697453276E+04  0.15294330000E+03 0.  0.
    8880022    1    1    2    0    0  0.25093184937E+03  0.27762143744E+03 -0.97379626148E+03  0.10543771941E+04  0.15294330000E+03 0.  0.
<mgrwt>
<rscale>  0 0.40426737E+03</rscale>
<asrwt>0</asrwt>
<pdfrwt beam="1">  1        1 0.18061484E+00 0.40426737E+03</pdfrwt>
<pdfrwt beam="2">  1       -1 0.16155786E+00 0.40426737E+03</pdfrwt>
<totfact> 0.35816540E+00</totfact>
</mgrwt>
</event>
<event>
 4    1  0.2731969E-009  0.1453647E+04  0.7818608E-02  0.8915876E-01
          1   -1    0    0  501    0  0.00000000000E+00  0.00000000000E+00  0.15708873113E+04  0.15708873113E+04  0.50400000000E-02 0. -1.
         -1   -1    0    0    0  501 -0.00000000000E+00 -0.00000000000E+00 -0.15967239990E+04  0.15967239990E+04  0.50400000000E-02 0.  1.
    8880022    1    1    2    0    0 -0.10704624911E+04 -0.97149791009E+03 -0.64157562357E+03  0.15889333113E+04  0.15294330000E+03 0.  0.
    8880022    1    1    2    0    0  0.10704624911E+04  0.97149791009E+03  0.61573893593E+03  0.15786779990E+04  0.15294330000E+03 0.  0.
<mgrwt>
<rscale>  0 0.14536471E+04</rscale>
<asrwt>0</asrwt>
<pdfrwt beam="1">  1        1 0.24167497E+00 0.14536471E+04</pdfrwt>
<pdfrwt beam="2">  1       -1 0.24564985E+00 0.14536471E+04</pdfrwt>
<totfact> 0.41338002E-01</totfact>
</mgrwt>
</event>
<event>
 4    1  0.2731969E-009  0.3627652E+03  0.7818608E-02  0.1057494E+00
         -1   -1    0    0    0  501 -0.00000000000E+00  0.00000000000E+00  0.12764449850E+04  0.12764449850E+04  0.50400000000E-02 0.  1.
          1   -1    0    0  501    0  0.00000000000E+00 -0.00000000000E+00 -0.66745935032E+03  0.66745935034E+03  0.50400000000E-02 0. -1.
    8880022    1    1    2    0    0  0.94826424683E+02  0.31498398095E+03 -0.58924720887E+03  0.69196162123E+03  0.15294330000E+03 0.  0.
    8880022    1    1    2    0    0 -0.94826424683E+02 -0.31498398095E+03  0.11982328436E+04  0.12519427142E+04  0.15294330000E+03 0.  0.
<mgrwt>
<rscale>  0 0.36276523E+03</rscale>
<asrwt>0</asrwt>
<pdfrwt beam="1">  1        1 0.10268605E+00 0.36276523E+03</pdfrwt>
<pdfrwt beam="2">  1       -1 0.19637615E+00 0.36276523E+03</pdfrwt>
<totfact> 0.52527680E+00</totfact>
</mgrwt>
</event>
<event>
 4    1  0.2731969E-009  0.3907994E+03  0.7818608E-02  0.1047013E+00
         -1   -1    0    0    0  501 -0.00000000000E+00  0.00000000000E+00  0.65476575326E+03  0.65476575328E+03  0.50400000000E-02 0.  1.
          1   -1    0    0  501    0  0.00000000000E+00 -0.00000000000E+00 -0.21743901437E+04  0.21743901437E+04  0.50400000000E-02 0. -1.
    8880022    1    1    2    0    0  0.35270903695E+03 -0.70205646549E+02  0.57674204256E+03  0.69667462580E+03  0.15294330000E+03 0.  0.
    8880022    1    1    2    0    0 -0.35270903695E+03  0.70205646549E+02 -0.20963664330E+04  0.21324812712E+04  0.15294330000E+03 0.  0.
<mgrwt>
<rscale>  0 0.39079937E+03</rscale>
<asrwt>0</asrwt>
<pdfrwt beam="1">  1        1 0.33452156E+00 0.39079937E+03</pdfrwt>
<pdfrwt beam="2">  1       -1 0.10073319E+00 0.39079937E+03</pdfrwt>
<totfact> 0.24800692E+00</totfact>
</mgrwt>
</event>
<event>
 4    1  0.2731969E-009  0.4611044E+03  0.7818608E-02  0.1024461E+00
         -1   -1    0    0    0  501 -0.00000000000E+00  0.00000000000E+00  0.98899392079E+03  0.98899392081E+03  0.50400000000E-02 0.  1.
          1   -1    0    0  501    0  0.00000000000E+00 -0.00000000000E+00 -0.70553401914E+03  0.70553401916E+03  0.50400000000E-02 0. -1.
    8880022    1    1    2    0    0 -0.12115111683E+03 -0.41778943187E+03  0.84821289541E+03  0.96544413171E+03  0.15294330000E+03 0.  0.
    8880022    1    1    2    0    0  0.12115111683E+03  0.41778943187E+03 -0.56475299376E+03  0.72908380826E+03  0.15294330000E+03 0.  0.
<mgrwt>
<rscale>  0 0.46110439E+03</rscale>
<asrwt>0</asrwt>
<pdfrwt beam="1">  1        1 0.10854370E+00 0.46110439E+03</pdfrwt>
<pdfrwt beam="2">  1       -1 0.15215291E+00 0.46110439E+03</pdfrwt>
<totfact> 0.97836534E+00</totfact>
</mgrwt>
</event>
<event>
 4    1  0.2731969E-009  0.6707882E+03  0.7818608E-02  0.9768535E-01
         -1   -1    0    0    0  501 -0.00000000000E+00  0.00000000000E+00  0.25404142979E+04  0.25404142979E+04  0.50400000000E-02 0.  1.
          1   -1    0    0  501    0  0.00000000000E+00 -0.00000000000E+00 -0.39160417665E+03  0.39160417668E+03  0.50400000000E-02 0. -1.
    8880022    1    1    2    0    0  0.59007339524E+03  0.27996169461E+03 -0.10548682156E+02  0.67087114257E+03  0.15294330000E+03 0.  0.
    8880022    1    1    2    0    0 -0.59007339524E+03 -0.27996169461E+03  0.21593588034E+04  0.22611473320E+04  0.15294330000E+03 0.  0.
<mgrwt>
<rscale>  0 0.67078820E+03</rscale>
<asrwt>0</asrwt>
<pdfrwt beam="1">  1        1 0.60246796E-01 0.67078820E+03</pdfrwt>
<pdfrwt beam="2">  1       -1 0.39083297E+00 0.67078820E+03</pdfrwt>
<totfact> 0.55464304E-01</totfact>
</mgrwt>
</event>
<event>
 4    1  0.2731969E-009  0.6052839E+03  0.7818608E-02  0.9894504E-01
         -1   -1    0    0    0  501 -0.00000000000E+00  0.00000000000E+00  0.46096166897E+03  0.46096166900E+03  0.50400000000E-02 0.  1.
          1   -1    0    0  501    0  0.00000000000E+00 -0.00000000000E+00 -0.12968620029E+04  0.12968620029E+04  0.50400000000E-02 0. -1.
    8880022    1    1    2    0    0 -0.56790040944E+03 -0.14305970245E+03 -0.96481576656E+03  0.11389635946E+04  0.15294330000E+03 0.  0.
    8880022    1    1    2    0    0  0.56790040944E+03  0.14305970245E+03  0.12891543259E+03  0.61886007730E+03  0.15294330000E+03 0.  0.
<mgrwt>
<rscale>  0 0.60528391E+03</rscale>
<asrwt>0</asrwt>
<pdfrwt beam="1">  1        1 0.19951723E+00 0.60528391E+03</pdfrwt>
<pdfrwt beam="2">  1       -1 0.70917180E-01 0.60528391E+03</pdfrwt>
<totfact> 0.19254836E+01</totfact>
</mgrwt>
</event>
<event>
 4    1  0.2731969E-009  0.1248746E+04  0.7818608E-02  0.9071228E-01
         -1   -1    0    0    0  501 -0.00000000000E+00  0.00000000000E+00  0.12278457073E+04  0.12278457073E+04  0.50400000000E-02 0.  1.
          1   -1    0    0  501    0  0.00000000000E+00 -0.00000000000E+00 -0.17209834567E+04  0.17209834567E+04  0.50400000000E-02 0. -1.
    8880022    1    1    2    0    0 -0.10125532792E+04 -0.71464042770E+03 -0.10013317334E+04  0.16006348670E+04  0.15294330000E+03 0.  0.
    8880022    1    1    2    0    0  0.10125532792E+04  0.71464042770E+03  0.50819398398E+03  0.13481942970E+04  0.15294330000E+03 0.  0.
<mgrwt>
<rscale>  0 0.12487461E+04</rscale>
<asrwt>0</asrwt>
<pdfrwt beam="1">  1        1 0.26476669E+00 0.12487461E+04</pdfrwt>
<pdfrwt beam="2">  1       -1 0.18889934E+00 0.12487461E+04</pdfrwt>
<totfact> 0.80818577E-01</totfact>
</mgrwt>
</event>
<event>
 4    1  0.2731969E-009  0.1022169E+04  0.7818608E-02  0.9284559E-01
          1   -1    0    0  501    0  0.00000000000E+00  0.00000000000E+00  0.26296529197E+04  0.26296529197E+04  0.50400000000E-02 0. -1.
         -1   -1    0    0    0  501 -0.00000000000E+00 -0.00000000000E+00 -0.57573271704E+03  0.57573271706E+03  0.50400000000E-02 0.  1.
    8880022    1    1    2    0    0 -0.88144176478E+03  0.49446761040E+03  0.19191256450E+04  0.21743671945E+04  0.15294330000E+03 0.  0.
    8880022    1    1    2    0    0  0.88144176478E+03 -0.49446761040E+03  0.13479455770E+03  0.10310184422E+04  0.15294330000E+03 0.  0.
<mgrwt>
<rscale>  0 0.10221690E+04</rscale>
<asrwt>0</asrwt>
<pdfrwt beam="1">  1        1 0.40456198E+00 0.10221690E+04</pdfrwt>
<pdfrwt beam="2">  1       -1 0.88574265E-01 0.10221690E+04</pdfrwt>
<totfact> 0.14003119E+00</totfact>
</mgrwt>
</event>
<event>
 4    1  0.2731969E-009  0.2728497E+03  0.7818608E-02  0.1099660E+00
         -1   -1    0    0    0  501 -0.00000000000E+00  0.00000000000E+00  0.70900229826E+02  0.70900230005E+02  0.50400000000E-02 0.  1.
          1   -1    0    0  501    0  0.00000000000E+00 -0.00000000000E+00 -0.17075498884E+04  0.17075498885E+04  0.50400000000E-02 0. -1.
    8880022    1    1    2    0    0  0.57020091355E+02  0.21864132707E+03 -0.26652536078E+03  0.38142199947E+03  0.15294330000E+03 0.  0.
    8880022    1    1    2    0    0 -0.57020091355E+02 -0.21864132707E+03 -0.13701242978E+04  0.13970281190E+04  0.15294330000E+03 0.  0.
<mgrwt>
<rscale>  0 0.27284973E+03</rscale>
<asrwt>0</asrwt>
<pdfrwt beam="1">  1        1 0.26269995E+00 0.27284973E+03</pdfrwt>
<pdfrwt beam="2">  1       -1 0.10907729E-01 0.27284973E+03</pdfrwt>
<totfact> 0.27891326E+02</totfact>
</mgrwt>
</event>
<event>
 4    1  0.2731969E-009  0.6291951E+03  0.7818608E-02  0.9846621E-01
         -1   -1    0    0    0  501 -0.00000000000E+00  0.00000000000E+00  0.70632180337E+03  0.70632180339E+03  0.50400000000E-02 0.  1.
          1   -1    0    0  501    0  0.00000000000E+00 -0.00000000000E+00 -0.16207730093E+04  0.16207730093E+04  0.50400000000E-02 0. -1.
    8880022    1    1    2    0    0 -0.38250090087E+03  0.47559218365E+03  0.48387017431E+03  0.79373601588E+03  0.15294330000E+03 0.  0.
    8880022    1    1    2    0    0  0.38250090087E+03 -0.47559218365E+03 -0.13983213802E+04  0.15333587968E+04  0.15294330000E+03 0.  0.
<mgrwt>
<rscale>  0 0.62919513E+03</rscale>
<asrwt>0</asrwt>
<pdfrwt beam="1">  1        1 0.24934969E+00 0.62919513E+03</pdfrwt>
<pdfrwt beam="2">  1       -1 0.10866489E+00 0.62919513E+03</pdfrwt>
<totfact> 0.45316521E+00</totfact>
</mgrwt>
</event>
<event>
 4    1  0.2731969E-009  0.1360552E+04  0.7818608E-02  0.8982878E-01
         -1   -1    0    0    0  501 -0.00000000000E+00  0.00000000000E+00  0.11115773102E+04  0.11115773102E+04  0.50400000000E-02 0.  1.
          1   -1    0    0  501    0  0.00000000000E+00 -0.00000000000E+00 -0.29161241198E+04  0.29161241198E+04  0.50400000000E-02 0. -1.
    8880022    1    1    2    0    0 -0.10520758065E+04  0.84902741268E+03 -0.22212086887E+04  0.26047784439E+04  0.15294330000E+03 0.  0.
    8880022    1    1    2    0    0  0.10520758065E+04 -0.84902741268E+03  0.41666187904E+03  0.14229229862E+04  0.15294330000E+03 0.  0.
<mgrwt>
<rscale>  0 0.13605524E+04</rscale>
<asrwt>0</asrwt>
<pdfrwt beam="1">  1        1 0.44863448E+00 0.13605524E+04</pdfrwt>
<pdfrwt beam="2">  1       -1 0.17101190E+00 0.13605524E+04</pdfrwt>
<totfact> 0.16092207E-01</totfact>
</mgrwt>
</event>
<event>
 4    1  0.2731969E-009  0.9866453E+03  0.7818608E-02  0.9323314E-01
          1   -1    0    0  501    0  0.00000000000E+00  0.00000000000E+00  0.29800326442E+04  0.29800326442E+04  0.50400000000E-02 0. -1.
         -1   -1    0    0    0  501 -0.00000000000E+00 -0.00000000000E+00 -0.54914403565E+03  0.54914403567E+03  0.50400000000E-02 0.  1.
    8880022    1    1    2    0    0 -0.92135325319E+03  0.31809664468E+03  0.92273163740E+02  0.99095069619E+03  0.15294330000E+03 0.  0.
    8880022    1    1    2    0    0  0.92135325319E+03 -0.31809664468E+03  0.23386154448E+04  0.25382259837E+04  0.15294330000E+03 0.  0.
<mgrwt>
<rscale>  0 0.98664530E+03</rscale>
<asrwt>0</asrwt>
<pdfrwt beam="1">  1        1 0.45846657E+00 0.98664530E+03</pdfrwt>
<pdfrwt beam="2">  1       -1 0.84483696E-01 0.98664530E+03</pdfrwt>
<totfact> 0.88332218E-01</totfact>
</mgrwt>
</event>
<event>
 4    1  0.2731969E-009  0.9778768E+03  0.7818608E-02  0.9333147E-01
         -1   -1    0    0    0  501 -0.00000000000E+00  0.00000000000E+00  0.14702617490E+04  0.14702617491E+04  0.50400000000E-02 0.  1.
          1   -1    0    0  501    0  0.00000000000E+00 -0.00000000000E+00 -0.77771653097E+03  0.77771653099E+03  0.50400000000E-02 0. -1.
    8880022    1    1    2    0    0  0.40308111250E+02 -0.96500089704E+03  0.80106310450E+03  0.12640985822E+04  0.15294330000E+03 0.  0.
    8880022    1    1    2    0    0 -0.40308111250E+02  0.96500089704E+03 -0.10851788643E+03  0.98387969784E+03  0.15294330000E+03 0.  0.
<mgrwt>
<rscale>  0 0.97787685E+03</rscale>
<asrwt>0</asrwt>
<pdfrwt beam="1">  1        1 0.11964870E+00 0.97787685E+03</pdfrwt>
<pdfrwt beam="2">  1       -1 0.22619411E+00 0.97787685E+03</pdfrwt>
<totfact> 0.23343430E+00</totfact>
</mgrwt>
</event>
<event>
 4    1  0.2731969E-009  0.4268936E+03  0.7818608E-02  0.1034846E+00
         -1   -1    0    0    0  501 -0.00000000000E+00  0.00000000000E+00  0.88431382289E+03  0.88431382290E+03  0.50400000000E-02 0.  1.
          1   -1    0    0  501    0  0.00000000000E+00 -0.00000000000E+00 -0.12634245416E+04  0.12634245416E+04  0.50400000000E-02 0. -1.
    8880022    1    1    2    0    0  0.39193277970E+03 -0.72354604613E+02  0.79283768377E+03  0.90046084780E+03  0.15294330000E+03 0.  0.
    8880022    1    1    2    0    0 -0.39193277970E+03  0.72354604613E+02 -0.11719484024E+04  0.12472775167E+04  0.15294330000E+03 0.  0.
<mgrwt>
<rscale>  0 0.42689360E+03</rscale>
<asrwt>0</asrwt>
<pdfrwt beam="1">  1        1 0.19437301E+00 0.42689360E+03</pdfrwt>
<pdfrwt beam="2">  1       -1 0.13604828E+00 0.42689360E+03</pdfrwt>
<totfact> 0.48408936E+00</totfact>
</mgrwt>
</event>
<event>
 4    1  0.2731969E-009  0.7330506E+03  0.7818608E-02  0.9662323E-01
         -1   -1    0    0    0  501 -0.00000000000E+00  0.00000000000E+00  0.14768191035E+04  0.14768191035E+04  0.50400000000E-02 0.  1.
          1   -1    0    0  501    0  0.00000000000E+00 -0.00000000000E+00 -0.19660310289E+04  0.19660310289E+04  0.50400000000E-02 0. -1.
    8880022    1    1    2    0    0  0.19120222443E+02 -0.71666307731E+03  0.13093784551E+04  0.15006115890E+04  0.15294330000E+03 0.  0.
    8880022    1    1    2    0    0 -0.19120222443E+02  0.71666307731E+03 -0.17985903805E+04  0.19422385433E+04  0.15294330000E+03 0.  0.
<mgrwt>
<rscale>  0 0.73305061E+03</rscale>
<asrwt>0</asrwt>
<pdfrwt beam="1">  1        1 0.30246631E+00 0.73305061E+03</pdfrwt>
<pdfrwt beam="2">  1       -1 0.22720294E+00 0.73305061E+03</pdfrwt>
<totfact> 0.33215829E-01</totfact>
</mgrwt>
</event>
<event>
 4    1  0.2731969E-009  0.3913726E+03  0.7818608E-02  0.1046809E+00
         -1   -1    0    0    0  501 -0.00000000000E+00  0.00000000000E+00  0.33199782736E+03  0.33199782739E+03  0.50400000000E-02 0.  1.
          1   -1    0    0  501    0  0.00000000000E+00 -0.00000000000E+00 -0.83404092466E+03  0.83404092467E+03  0.50400000000E-02 0. -1.
    8880022    1    1    2    0    0 -0.23470274723E+03  0.27330471235E+03 -0.64074309197E+03  0.75081569528E+03  0.15294330000E+03 0. -1.
    8880022    1    1    2    0    0  0.23470274723E+03 -0.27330471235E+03  0.13869999467E+03  0.41522305679E+03  0.15294330000E+03 0.  0.
<mgrwt>
<rscale>  0 0.39137258E+03</rscale>
<asrwt>0</asrwt>
<pdfrwt beam="1">  1        1 0.12831399E+00 0.39137258E+03</pdfrwt>
<pdfrwt beam="2">  1       -1 0.51076589E-01 0.39137258E+03</pdfrwt>
<totfact> 0.84515306E+01</totfact>
</mgrwt>
</event>
<event>
 4    1  0.2731969E-009  0.8100553E+03  0.7818608E-02  0.9545575E-01
          1   -1    0    0  501    0  0.00000000000E+00  0.00000000000E+00  0.13947037370E+04  0.13947037370E+04  0.50400000000E-02 0. -1.
         -1   -1    0    0    0  501 -0.00000000000E+00 -0.00000000000E+00 -0.10038849546E+04  0.10038849546E+04  0.50400000000E-02 0.  1.
    8880022    1    1    2    0    0 -0.65083825669E+03 -0.45739202020E+03  0.10696069940E+04  0.13417334576E+04  0.15294330000E+03 0.  0.
    8880022    1    1    2    0    0  0.65083825669E+03  0.45739202020E+03 -0.67878821163E+03  0.10568552341E+04  0.15294330000E+03 0.  0.
<mgrwt>
<rscale>  0 0.81005528E+03</rscale>
<asrwt>0</asrwt>
<pdfrwt beam="1">  1        1 0.21456980E+00 0.81005528E+03</pdfrwt>
<pdfrwt beam="2">  1       -1 0.15444384E+00 0.81005528E+03</pdfrwt>
<totfact> 0.25810927E+00</totfact>
</mgrwt>
</event>
<event>
 4    1  0.2731969E-009  0.3937348E+03  0.7818608E-02  0.1045971E+00
          1   -1    0    0  501    0  0.00000000000E+00  0.00000000000E+00  0.63002493822E+03  0.63002493824E+03  0.50400000000E-02 0. -1.
         -1   -1    0    0    0  501 -0.00000000000E+00 -0.00000000000E+00 -0.31829157664E+03  0.31829157668E+03  0.50400000000E-02 0.  1.
    8880022    1    1    2    0    0  0.30030405518E+03 -0.20359995475E+03  0.38173696590E+03  0.54840699419E+03  0.15294330000E+03 0.  0.
    8880022    1    1    2    0    0 -0.30030405518E+03  0.20359995475E+03 -0.70003604324E+02  0.39990952073E+03  0.15294330000E+03 0.  0.
<mgrwt>
<rscale>  0 0.39373483E+03</rscale>
<asrwt>0</asrwt>
<pdfrwt beam="1">  1        1 0.96926912E-01 0.39373483E+03</pdfrwt>
<pdfrwt beam="2">  1       -1 0.48967936E-01 0.39373483E+03</pdfrwt>
<totfact> 0.13947488E+02</totfact>
</mgrwt>
</event>
<event>
 4    1  0.2731969E-009  0.8358062E+03  0.7818608E-02  0.9509588E-01
          1   -1    0    0  501    0  0.00000000000E+00  0.00000000000E+00  0.60284187737E+03  0.60284187739E+03  0.50400000000E-02 0. -1.
         -1   -1    0    0    0  501 -0.00000000000E+00 -0.00000000000E+00 -0.20184487814E+04  0.20184487814E+04  0.50400000000E-02 0.  1.
    8880022    1    1    2    0    0 -0.43384379283E+03  0.69782517285E+03 -0.15631405461E+04  0.17725632367E+04  0.15294330000E+03 0.  0.
    8880022    1    1    2    0    0  0.43384379283E+03 -0.69782517285E+03  0.14753364203E+03  0.84872742208E+03  0.15294330000E+03 0.  0.
<mgrwt>
<rscale>  0 0.83580623E+03</rscale>
<asrwt>0</asrwt>
<pdfrwt beam="1">  1        1 0.92744905E-01 0.83580623E+03</pdfrwt>
<pdfrwt beam="2">  1       -1 0.31053058E+00 0.83580623E+03</pdfrwt>
<totfact> 0.99934580E-01</totfact>
</mgrwt>
</event>
<event>
 4    1  0.2731969E-009  0.5152698E+03  0.7818608E-02  0.1009868E+00
          1   -1    0    0  501    0  0.00000000000E+00  0.00000000000E+00  0.45043384593E+03  0.45043384596E+03  0.50400000000E-02 0. -1.
         -1   -1    0    0    0  501 -0.00000000000E+00 -0.00000000000E+00 -0.95571197256E+03  0.95571197257E+03  0.50400000000E-02 0.  1.
    8880022    1    1    2    0    0  0.33412785289E+03 -0.36120612574E+03 -0.68789001431E+03  0.85947403227E+03  0.15294330000E+03 0.  0.
    8880022    1    1    2    0    0 -0.33412785289E+03  0.36120612574E+03  0.18261188768E+03  0.54667178626E+03  0.15294330000E+03 0.  0.
<mgrwt>
<rscale>  0 0.51526977E+03</rscale>
<asrwt>0</asrwt>
<pdfrwt beam="1">  1        1 0.69297515E-01 0.51526977E+03</pdfrwt>
<pdfrwt beam="2">  1       -1 0.14703261E+00 0.51526977E+03</pdfrwt>
<totfact> 0.19908322E+01</totfact>
</mgrwt>
</event>
<event>
 4    1  0.2731969E-009  0.9631646E+03  0.7818608E-02  0.9349894E-01
          1   -1    0    0  501    0  0.00000000000E+00  0.00000000000E+00  0.17543656188E+04  0.17543656188E+04  0.50400000000E-02 0. -1.
         -1   -1    0    0    0  501 -0.00000000000E+00 -0.00000000000E+00 -0.72079815533E+03  0.72079815535E+03  0.50400000000E-02 0.  1.
    8880022    1    1    2    0    0 -0.44645467872E+03 -0.83962644740E+03  0.11555326335E+04  0.15043077050E+04  0.15294330000E+03 0.  0.
    8880022    1    1    2    0    0  0.44645467872E+03  0.83962644740E+03 -0.12196516998E+03  0.97085606917E+03  0.15294330000E+03 0.  0.
<mgrwt>
<rscale>  0 0.96316458E+03</rscale>
<asrwt>0</asrwt>
<pdfrwt beam="1">  1        1 0.26990240E+00 0.96316458E+03</pdfrwt>
<pdfrwt beam="2">  1       -1 0.11089203E+00 0.96316458E+03</pdfrwt>
<totfact> 0.33193528E+00</totfact>
</mgrwt>
</event>
<event>
 4    1  0.2731969E-009  0.1180313E+04  0.7818608E-02  0.9130265E-01
          1   -1    0    0  501    0  0.00000000000E+00  0.00000000000E+00  0.25419080802E+04  0.25419080802E+04  0.50400000000E-02 0. -1.
         -1   -1    0    0    0  501 -0.00000000000E+00 -0.00000000000E+00 -0.60845144035E+03  0.60845144037E+03  0.50400000000E-02 0.  1.
    8880022    1    1    2    0    0 -0.11469012201E+04  0.23316367908E+03  0.47050766729E+03  0.12706363869E+04  0.15294330000E+03 0.  0.
    8880022    1    1    2    0    0  0.11469012201E+04 -0.23316367908E+03  0.14629489725E+04  0.18797231336E+04  0.15294330000E+03 0.  0.
<mgrwt>
<rscale>  0 0.11803132E+04</rscale>
<asrwt>0</asrwt>
<pdfrwt beam="1">  1        1 0.39106277E+00 0.11803132E+04</pdfrwt>
<pdfrwt beam="2">  1       -1 0.93607916E-01 0.11803132E+04</pdfrwt>
<totfact> 0.13933021E+00</totfact>
</mgrwt>
</event>
<event>
 4    1  0.2731969E-009  0.5810939E+03  0.7818608E-02  0.9945425E-01
         -1   -1    0    0    0  501 -0.00000000000E+00  0.00000000000E+00  0.10447645193E+04  0.10447645193E+04  0.50400000000E-02 0.  1.
          1   -1    0    0  501    0  0.00000000000E+00 -0.00000000000E+00 -0.55269981579E+03  0.55269981581E+03  0.50400000000E-02 0. -1.
    8880022    1    1    2    0    0 -0.40566859535E+03 -0.38692570054E+03  0.76072223587E+03  0.95727137227E+03  0.15294330000E+03 0.  0.
    8880022    1    1    2    0    0  0.40566859535E+03  0.38692570054E+03 -0.26865753235E+03  0.64019296286E+03  0.15294330000E+03 0.  0.
<mgrwt>
<rscale>  0 0.58109393E+03</rscale>
<asrwt>0</asrwt>
<pdfrwt beam="1">  1        1 0.85030743E-01 0.58109393E+03</pdfrwt>
<pdfrwt beam="2">  1       -1 0.16073300E+00 0.58109393E+03</pdfrwt>
<totfact> 0.11717034E+01</totfact>
</mgrwt>
</event>
<event>
 4    1  0.2731969E-009  0.2714096E+03  0.7818608E-02  0.1100476E+00
          1   -1    0    0  501    0  0.00000000000E+00  0.00000000000E+00  0.19420115024E+04  0.19420115024E+04  0.50400000000E-02 0. -1.
         -1   -1    0    0    0  501 -0.00000000000E+00 -0.00000000000E+00 -0.98008277452E+03  0.98008277453E+03  0.50400000000E-02 0.  1.
    8880022    1    1    2    0    0  0.41867124337E+02 -0.22026947729E+03 -0.95153091853E+03  0.98948180410E+03  0.15294330000E+03 0.  0.
    8880022    1    1    2    0    0 -0.41867124337E+02  0.22026947729E+03  0.19134596464E+04  0.19326124728E+04  0.15294330000E+03 0. -1.
<mgrwt>
<rscale>  0 0.27140956E+03</rscale>
<asrwt>0</asrwt>
<pdfrwt beam="1">  1        1 0.29877100E+00 0.27140956E+03</pdfrwt>
<pdfrwt beam="2">  1       -1 0.15078197E+00 0.27140956E+03</pdfrwt>
<totfact> 0.14007471E+00</totfact>
</mgrwt>
</event>
<event>
 4    1  0.2731969E-009  0.1351259E+04  0.7818608E-02  0.8989875E-01
          1   -1    0    0  501    0  0.00000000000E+00  0.00000000000E+00  0.14189775684E+04  0.14189775685E+04  0.50400000000E-02 0. -1.
         -1   -1    0    0    0  501 -0.00000000000E+00 -0.00000000000E+00 -0.19763592067E+04  0.19763592067E+04  0.50400000000E-02 0.  1.
    8880022    1    1    2    0    0 -0.53010328378E+03  0.12334913327E+04 -0.12814905446E+04  0.18622889218E+04  0.15294330000E+03 0.  0.
    8880022    1    1    2    0    0  0.53010328378E+03 -0.12334913327E+04  0.72410890641E+03  0.15330478533E+04  0.15294330000E+03 0.  0.
<mgrwt>
<rscale>  0 0.13512594E+04</rscale>
<asrwt>0</asrwt>
<pdfrwt beam="1">  1        1 0.21830424E+00 0.13512594E+04</pdfrwt>
<pdfrwt beam="2">  1       -1 0.30405526E+00 0.13512594E+04</pdfrwt>
<totfact> 0.22323767E-01</totfact>
</mgrwt>
</event>
<event>
 4    1  0.2731969E-009  0.1182700E+04  0.7818608E-02  0.9128135E-01
          1   -1    0    0  501    0  0.00000000000E+00  0.00000000000E+00  0.23493332350E+04  0.23493332350E+04  0.50400000000E-02 0. -1.
         -1   -1    0    0    0  501 -0.00000000000E+00 -0.00000000000E+00 -0.15359329133E+04  0.15359329133E+04  0.50400000000E-02 0.  1.
    8880022    1    1    2    0    0 -0.11685199136E+04 -0.99742836020E+02  0.19268731909E+04  0.22608890660E+04  0.15294330000E+03 0.  0.
    8880022    1    1    2    0    0  0.11685199136E+04  0.99742836020E+02 -0.11134728692E+04  0.16243770823E+04  0.15294330000E+03 0.  0.
<mgrwt>
<rscale>  0 0.11826999E+04</rscale>
<asrwt>0</asrwt>
<pdfrwt beam="1">  1        1 0.36143588E+00 0.11826999E+04</pdfrwt>
<pdfrwt beam="2">  1       -1 0.23629737E+00 0.11826999E+04</pdfrwt>
<totfact> 0.14581714E-01</totfact>
</mgrwt>
</event>
<event>
 4    1  0.2731969E-009  0.6799935E+03  0.7818608E-02  0.9752071E-01
          1   -1    0    0  501    0  0.00000000000E+00  0.00000000000E+00  0.23604812063E+04  0.23604812063E+04  0.50400000000E-02 0. -1.
         -1   -1    0    0    0  501 -0.00000000000E+00 -0.00000000000E+00 -0.11140138321E+04  0.11140138321E+04  0.50400000000E-02 0.  1.
    8880022    1    1    2    0    0  0.91760167510E+02 -0.65618567644E+03  0.22003632900E+04  0.23030392596E+04  0.15294330000E+03 0.  0.
    8880022    1    1    2    0    0 -0.91760167510E+02  0.65618567644E+03 -0.95389591589E+03  0.11714557788E+04  0.15294330000E+03 0.  0.
<mgrwt>
<rscale>  0 0.67999355E+03</rscale>
<asrwt>0</asrwt>
<pdfrwt beam="1">  1        1 0.36315095E+00 0.67999355E+03</pdfrwt>
<pdfrwt beam="2">  1       -1 0.17138675E+00 0.67999355E+03</pdfrwt>
<totfact> 0.44293335E-01</totfact>
</mgrwt>
</event>
<event>
 4    1  0.2731969E-009  0.4736191E+03  0.7818608E-02  0.1020904E+00
         -1   -1    0    0    0  501 -0.00000000000E+00  0.00000000000E+00  0.77344816166E+03  0.77344816168E+03  0.50400000000E-02 0.  1.
          1   -1    0    0  501    0  0.00000000000E+00 -0.00000000000E+00 -0.36900587072E+04  0.36900587072E+04  0.50400000000E-02 0. -1.
    8880022    1    1    2    0    0 -0.26604503944E+03 -0.36075398606E+03 -0.36005621024E+04  0.36315785146E+04  0.15294330000E+03 0.  0.
    8880022    1    1    2    0    0  0.26604503944E+03  0.36075398606E+03  0.68395155687E+03  0.83192835427E+03  0.15294330000E+03 0.  0.
<mgrwt>
<rscale>  0 0.47361910E+03</rscale>
<asrwt>0</asrwt>
<pdfrwt beam="1">  1        1 0.56770133E+00 0.47361910E+03</pdfrwt>
<pdfrwt beam="2">  1       -1 0.11899203E+00 0.47361910E+03</pdfrwt>
<totfact> 0.13604277E-01</totfact>
</mgrwt>
</event>
<event>
 4    1  0.2731969E-009  0.1229116E+04  0.7818608E-02  0.9087746E-01
         -1   -1    0    0    0  501 -0.00000000000E+00  0.00000000000E+00  0.17396154199E+04  0.17396154199E+04  0.50400000000E-02 0.  1.
          1   -1    0    0  501    0  0.00000000000E+00 -0.00000000000E+00 -0.98720355041E+03  0.98720355042E+03  0.50400000000E-02 0. -1.
    8880022    1    1    2    0    0  0.92819562965E+02 -0.12160262346E+04  0.84912899278E+03  0.14939032679E+04  0.15294330000E+03 0.  0.
    8880022    1    1    2    0    0 -0.92819562965E+02  0.12160262346E+04 -0.96717123291E+02  0.12329157024E+04  0.15294330000E+03 0.  0.
<mgrwt>
<rscale>  0 0.12291163E+04</rscale>
<asrwt>0</asrwt>
<pdfrwt beam="1">  1        1 0.15187747E+00 0.12291163E+04</pdfrwt>
<pdfrwt beam="2">  1       -1 0.26763314E+00 0.12291163E+04</pdfrwt>
<totfact> 0.81211202E-01</totfact>
</mgrwt>
</event>
<event>
 4    1  0.2731969E-009  0.1124466E+04  0.7818608E-02  0.9181668E-01
          1   -1    0    0  501    0  0.00000000000E+00  0.00000000000E+00  0.14757117032E+04  0.14757117032E+04  0.50400000000E-02 0. -1.
         -1   -1    0    0    0  501 -0.00000000000E+00 -0.00000000000E+00 -0.14178307829E+04  0.14178307829E+04  0.50400000000E-02 0.  1.
    8880022    1    1    2    0    0 -0.79017508616E+03 -0.78527434785E+03 -0.88112369159E+03  0.14285667927E+04  0.15294330000E+03 0.  0.
    8880022    1    1    2    0    0  0.79017508616E+03  0.78527434785E+03  0.93900461187E+03  0.14649756934E+04  0.15294330000E+03 0.  0.
<mgrwt>
<rscale>  0 0.11244661E+04</rscale>
<asrwt>0</asrwt>
<pdfrwt beam="1">  1        1 0.22703257E+00 0.11244661E+04</pdfrwt>
<pdfrwt beam="2">  1       -1 0.21812781E+00 0.11244661E+04</pdfrwt>
<totfact> 0.76267266E-01</totfact>
</mgrwt>
</event>
<event>
 4    1  0.2731969E-009  0.1177062E+04  0.7818608E-02  0.9133174E-01
          1   -1    0    0  501    0  0.00000000000E+00  0.00000000000E+00  0.33056551824E+04  0.33056551824E+04  0.50400000000E-02 0. -1.
         -1   -1    0    0    0  501 -0.00000000000E+00 -0.00000000000E+00 -0.83511847906E+03  0.83511847907E+03  0.50400000000E-02 0.  1.
    8880022    1    1    2    0    0 -0.10237619234E+03  0.11625846053E+04  0.26965093615E+04  0.29422165520E+04  0.15294330000E+03 0.  0.
    8880022    1    1    2    0    0  0.10237619234E+03 -0.11625846053E+04 -0.22597265818E+03  0.11985571094E+04  0.15294330000E+03 0.  0.
<mgrwt>
<rscale>  0 0.11770622E+04</rscale>
<asrwt>0</asrwt>
<pdfrwt beam="1">  1        1 0.50856234E+00 0.11770622E+04</pdfrwt>
<pdfrwt beam="2">  1       -1 0.12847977E+00 0.11770622E+04</pdfrwt>
<totfact> 0.18517280E-01</totfact>
</mgrwt>
</event>
<event>
 4    1  0.2731969E-009  0.4415597E+03  0.7818608E-02  0.1030269E+00
         -1   -1    0    0    0  501 -0.00000000000E+00  0.00000000000E+00  0.65385736237E+03  0.65385736239E+03  0.50400000000E-02 0.  1.
          1   -1    0    0  501    0  0.00000000000E+00 -0.00000000000E+00 -0.34024197867E+03  0.34024197871E+03  0.50400000000E-02 0. -1.
    8880022    1    1    2    0    0  0.18705708514E+03  0.36958487853E+03  0.33154639024E+03  0.55217569435E+03  0.15294330000E+03 0.  1.
    8880022    1    1    2    0    0 -0.18705708514E+03 -0.36958487853E+03 -0.17931006540E+02  0.44192364674E+03  0.15294330000E+03 0.  0.
<mgrwt>
<rscale>  0 0.44155972E+03</rscale>
<asrwt>0</asrwt>
<pdfrwt beam="1">  1        1 0.52344920E-01 0.44155972E+03</pdfrwt>
<pdfrwt beam="2">  1       -1 0.10059344E+00 0.44155972E+03</pdfrwt>
<totfact> 0.73203592E+01</totfact>
</mgrwt>
</event>
<event>
 4    1  0.2731969E-009  0.4863718E+03  0.7818608E-02  0.1017399E+00
          1   -1    0    0  501    0  0.00000000000E+00  0.00000000000E+00  0.23652861322E+03  0.23652861327E+03  0.50400000000E-02 0. -1.
         -1   -1    0    0    0  501 -0.00000000000E+00 -0.00000000000E+00 -0.24260751661E+04  0.24260751661E+04  0.50400000000E-02 0.  1.
    8880022    1    1    2    0    0  0.46160967795E+03  0.90773363284E+01 -0.74122890276E+02  0.49198754933E+03  0.15294330000E+03 0.  0.
    8880022    1    1    2    0    0 -0.46160967795E+03 -0.90773363284E+01 -0.21154236626E+04  0.21706162300E+04  0.15294330000E+03 0.  1.
<mgrwt>
<rscale>  0 0.48637182E+03</rscale>
<asrwt>0</asrwt>
<pdfrwt beam="1">  1        1 0.36389019E-01 0.48637182E+03</pdfrwt>
<pdfrwt beam="2">  1       -1 0.37324232E+00 0.48637182E+03</pdfrwt>
<totfact> 0.14593477E+00</totfact>
</mgrwt>
</event>
<event>
 4    1  0.2731969E-009  0.5649458E+03  0.7818608E-02  0.9980926E-01
          1   -1    0    0  501    0  0.00000000000E+00  0.00000000000E+00  0.69738032964E+03  0.69738032966E+03  0.50400000000E-02 0. -1.
         -1   -1    0    0    0  501 -0.00000000000E+00 -0.00000000000E+00 -0.84528572393E+03  0.84528572395E+03  0.50400000000E-02 0.  1.
    8880022    1    1    2    0    0  0.21857898880E+03  0.49799124630E+03 -0.59628387750E+03  0.82141230287E+03  0.15294330000E+03 0.  1.
    8880022    1    1    2    0    0 -0.21857898880E+03 -0.49799124630E+03  0.44837848321E+03  0.72125375074E+03  0.15294330000E+03 0.  0.
<mgrwt>
<rscale>  0 0.56494576E+03</rscale>
<asrwt>0</asrwt>
<pdfrwt beam="1">  1        1 0.10728928E+00 0.56494576E+03</pdfrwt>
<pdfrwt beam="2">  1       -1 0.13004396E+00 0.56494576E+03</pdfrwt>
<totfact> 0.14655985E+01</totfact>
</mgrwt>
</event>
<event>
 4    1  0.2731969E-009  0.5166232E+03  0.7818608E-02  0.1009529E+00
          1   -1    0    0  501    0  0.00000000000E+00  0.00000000000E+00  0.10912204136E+04  0.10912204136E+04  0.50400000000E-02 0. -1.
         -1   -1    0    0    0  501 -0.00000000000E+00 -0.00000000000E+00 -0.68198422193E+03  0.68198422195E+03  0.50400000000E-02 0.  1.
    8880022    1    1    2    0    0 -0.49144685550E+03 -0.44585584519E+02  0.91465211574E+03  0.10504703860E+04  0.15294330000E+03 0.  0.
    8880022    1    1    2    0    0  0.49144685550E+03  0.44585584519E+02 -0.50541592406E+03  0.72273424952E+03  0.15294330000E+03 0.  0.
<mgrwt>
<rscale>  0 0.51662321E+03</rscale>
<asrwt>0</asrwt>
<pdfrwt beam="1">  1        1 0.16788006E+00 0.51662321E+03</pdfrwt>
<pdfrwt beam="2">  1       -1 0.10492065E+00 0.51662321E+03</pdfrwt>
<totfact> 0.11787804E+01</totfact>
</mgrwt>
</event>
<event>
 4    1  0.2731969E-009  0.1507298E+04  0.7818608E-02  0.8879614E-01
          1   -1    0    0  501    0  0.00000000000E+00  0.00000000000E+00  0.16345273172E+04  0.16345273172E+04  0.50400000000E-02 0. -1.
         -1   -1    0    0    0  501 -0.00000000000E+00 -0.00000000000E+00 -0.17188506472E+04  0.17188506472E+04  0.50400000000E-02 0.  1.
    8880022    1    1    2    0    0  0.12169906479E+04  0.87606517208E+03 -0.77557858700E+03  0.16951313284E+04  0.15294330000E+03 0.  0.
    8880022    1    1    2    0    0 -0.12169906479E+04 -0.87606517208E+03  0.69125525696E+03  0.16582466361E+04  0.15294330000E+03 0.  0.
<mgrwt>
<rscale>  0 0.15072983E+04</rscale>
<asrwt>0</asrwt>
<pdfrwt beam="1">  1        1 0.25146574E+00 0.15072983E+04</pdfrwt>
<pdfrwt beam="2">  1       -1 0.26443856E+00 0.15072983E+04</pdfrwt>
<totfact> 0.28001760E-01</totfact>
</mgrwt>
</event>
<event>
 4    1  0.2731969E-009  0.1305268E+04  0.7818608E-02  0.9025398E-01
          1   -1    0    0  501    0  0.00000000000E+00  0.00000000000E+00  0.23679697665E+04  0.23679697665E+04  0.50400000000E-02 0. -1.
         -1   -1    0    0    0  501 -0.00000000000E+00 -0.00000000000E+00 -0.10139680420E+04  0.10139680420E+04  0.50400000000E-02 0.  1.
    8880022    1    1    2    0    0  0.90292418514E+03  0.93008658639E+03 -0.23427893762E+03  0.13261264706E+04  0.15294330000E+03 0.  0.
    8880022    1    1    2    0    0 -0.90292418514E+03 -0.93008658639E+03  0.15882806621E+04  0.20558113379E+04  0.15294330000E+03 0.  0.
<mgrwt>
<rscale>  0 0.13052681E+04</rscale>
<asrwt>0</asrwt>
<pdfrwt beam="1">  1        1 0.36430304E+00 0.13052681E+04</pdfrwt>
<pdfrwt beam="2">  1       -1 0.15599508E+00 0.13052681E+04</pdfrwt>
<totfact> 0.50912375E-01</totfact>
</mgrwt>
</event>
<event>
 4    1  0.2731969E-009  0.8504910E+03  0.7818608E-02  0.9489678E-01
         -1   -1    0    0    0  501 -0.00000000000E+00  0.00000000000E+00  0.94789826915E+03  0.94789826916E+03  0.50400000000E-02 0.  1.
          1   -1    0    0  501    0  0.00000000000E+00 -0.00000000000E+00 -0.16673340642E+04  0.16673340642E+04  0.50400000000E-02 0. -1.
    8880022    1    1    2    0    0 -0.30391590205E+03 -0.77947321777E+03  0.60324811257E+03  0.10427096005E+04  0.15294330000E+03 0.  0.
    8880022    1    1    2    0    0  0.30391590205E+03  0.77947321777E+03 -0.13226839076E+04  0.15725227328E+04  0.15294330000E+03 0.  0.
<mgrwt>
<rscale>  0 0.85049105E+03</rscale>
<asrwt>0</asrwt>
<pdfrwt beam="1">  1        1 0.25651293E+00 0.85049105E+03</pdfrwt>
<pdfrwt beam="2">  1       -1 0.14583050E+00 0.85049105E+03</pdfrwt>
<totfact> 0.19458392E+00</totfact>
</mgrwt>
</event>
<event>
 4    1  0.2731969E-009  0.6496244E+03  0.7818608E-02  0.9807484E-01
          1   -1    0    0  501    0  0.00000000000E+00  0.00000000000E+00  0.16411823706E+04  0.16411823706E+04  0.50400000000E-02 0. -1.
         -1   -1    0    0    0  501 -0.00000000000E+00 -0.00000000000E+00 -0.10275714661E+04  0.10275714661E+04  0.50400000000E-02 0.  1.
    8880022    1    1    2    0    0  0.59210828114E+03 -0.21915280312E+03 -0.84861438749E+03  0.10687180168E+04  0.15294330000E+03 0.  0.
    8880022    1    1    2    0    0 -0.59210828114E+03  0.21915280312E+03  0.14622252919E+04  0.16000358199E+04  0.15294330000E+03 0.  0.
<mgrwt>
<rscale>  0 0.64962437E+03</rscale>
<asrwt>0</asrwt>
<pdfrwt beam="1">  1        1 0.25248959E+00 0.64962437E+03</pdfrwt>
<pdfrwt beam="2">  1       -1 0.15808792E+00 0.64962437E+03</pdfrwt>
<totfact> 0.16952265E+00</totfact>
</mgrwt>
</event>
<event>
 4    1  0.2731969E-009  0.4727562E+03  0.7818608E-02  0.1021145E+00
          1   -1    0    0  501    0  0.00000000000E+00  0.00000000000E+00  0.54694308501E+03  0.54694308504E+03  0.50400000000E-02 0. -1.
         -1   -1    0    0    0  501 -0.00000000000E+00 -0.00000000000E+00 -0.11427335327E+04  0.11427335327E+04  0.50400000000E-02 0.  1.
    8880022    1    1    2    0    0 -0.30249427065E+03 -0.32955114268E+03  0.37924592733E+03  0.60607414219E+03  0.15294330000E+03 0.  0.
    8880022    1    1    2    0    0  0.30249427065E+03  0.32955114268E+03 -0.97503637502E+03  0.10836024756E+04  0.15294330000E+03 0.  0.
<mgrwt>
<rscale>  0 0.47275617E+03</rscale>
<asrwt>0</asrwt>
<pdfrwt beam="1">  1        1 0.84145090E-01 0.47275617E+03</pdfrwt>
<pdfrwt beam="2">  1       -1 0.17580516E+00 0.47275617E+03</pdfrwt>
<totfact> 0.94127553E+00</totfact>
</mgrwt>
</event>
<event>
 4    1  0.2731969E-009  0.2223793E+03  0.7818608E-02  0.1132122E+00
         -1   -1    0    0    0  501 -0.00000000000E+00  0.00000000000E+00  0.17182408411E+03  0.17182408419E+03  0.50400000000E-02 0.  1.
          1   -1    0    0  501    0  0.00000000000E+00 -0.00000000000E+00 -0.66814054151E+03  0.66814054153E+03  0.50400000000E-02 0. -1.
    8880022    1    1    2    0    0 -0.16073024756E+03  0.15056623725E+02  0.68709561864E+02  0.23275216713E+03  0.15294330000E+03 0.  0.
    8880022    1    1    2    0    0  0.16073024756E+03 -0.15056623725E+02 -0.56502601927E+03  0.60721245859E+03  0.15294330000E+03 0.  0.
<mgrwt>
<rscale>  0 0.22237933E+03</rscale>
<asrwt>0</asrwt>
<pdfrwt beam="1">  1        1 0.10279085E+00 0.22237933E+03</pdfrwt>
<pdfrwt beam="2">  1       -1 0.26434475E-01 0.22237933E+03</pdfrwt>
<totfact> 0.38682975E+02</totfact>
</mgrwt>
</event>
<event>
 4    1  0.2731969E-009  0.6868410E+03  0.7818608E-02  0.9740004E-01
          1   -1    0    0  501    0  0.00000000000E+00  0.00000000000E+00  0.51866605273E+03  0.51866605275E+03  0.50400000000E-02 0. -1.
         -1   -1    0    0    0  501 -0.00000000000E+00 -0.00000000000E+00 -0.12979514536E+04  0.12979514536E+04  0.50400000000E-02 0.  1.
    8880022    1    1    2    0    0 -0.60570954414E+03  0.28543803396E+03  0.10723212845E+03  0.69516135212E+03  0.15294330000E+03 0.  0.
    8880022    1    1    2    0    0  0.60570954414E+03 -0.28543803396E+03 -0.88651752935E+03  0.11214561543E+04  0.15294330000E+03 0.  0.
<mgrwt>
<rscale>  0 0.68684101E+03</rscale>
<asrwt>0</asrwt>
<pdfrwt beam="1">  1        1 0.79794778E-01 0.68684101E+03</pdfrwt>
<pdfrwt beam="2">  1       -1 0.19968484E+00 0.68684101E+03</pdfrwt>
<totfact> 0.66491994E+00</totfact>
</mgrwt>
</event>
<event>
 4    1  0.2731969E-009  0.6324869E+03  0.7818608E-02  0.9840208E-01
          1   -1    0    0  501    0  0.00000000000E+00  0.00000000000E+00  0.21250500493E+04  0.21250500494E+04  0.50400000000E-02 0. -1.
         -1   -1    0    0    0  501 -0.00000000000E+00 -0.00000000000E+00 -0.27241723530E+03  0.27241723535E+03  0.50400000000E-02 0.  1.
    8880022    1    1    2    0    0 -0.24051781402E+03  0.56462304335E+03  0.15926292301E+04  0.17136240888E+04  0.15294330000E+03 0.  0.
    8880022    1    1    2    0    0  0.24051781402E+03 -0.56462304335E+03  0.26000358390E+03  0.68384319592E+03  0.15294330000E+03 0.  0.
<mgrwt>
<rscale>  0 0.63248688E+03</rscale>
<asrwt>0</asrwt>
<pdfrwt beam="1">  1        1 0.32693077E+00 0.63248688E+03</pdfrwt>
<pdfrwt beam="2">  1       -1 0.41910344E-01 0.63248688E+03</pdfrwt>
<totfact> 0.14594412E+01</totfact>
</mgrwt>
</event>
<event>
 4    1  0.2731969E-009  0.3116978E+03  0.7818608E-02  0.1079535E+00
          1   -1    0    0  501    0  0.00000000000E+00  0.00000000000E+00  0.18425971229E+04  0.18425971229E+04  0.50400000000E-02 0. -1.
         -1   -1    0    0    0  501 -0.00000000000E+00 -0.00000000000E+00 -0.86909613109E+03  0.86909613111E+03  0.50400000000E-02 0.  1.
    8880022    1    1    2    0    0  0.28456939642E+02 -0.27010008780E+03 -0.82732348335E+03  0.88409255961E+03  0.15294330000E+03 0.  1.
    8880022    1    1    2    0    0 -0.28456939642E+02  0.27010008780E+03  0.18008244751E+04  0.18276006944E+04  0.15294330000E+03 0.  0.
<mgrwt>
<rscale>  0 0.31169778E+03</rscale>
<asrwt>0</asrwt>
<pdfrwt beam="1">  1        1 0.28347648E+00 0.31169778E+03</pdfrwt>
<pdfrwt beam="2">  1       -1 0.13370710E+00 0.31169778E+03</pdfrwt>
<totfact> 0.21644850E+00</totfact>
</mgrwt>
</event>
<event>
 4    1  0.2731969E-009  0.7306738E+03  0.7818608E-02  0.9666168E-01
         -1   -1    0    0    0  501 -0.00000000000E+00  0.00000000000E+00  0.20336771428E+03  0.20336771434E+03  0.50400000000E-02 0.  1.
          1   -1    0    0  501    0  0.00000000000E+00 -0.00000000000E+00 -0.32735600801E+04  0.32735600801E+04  0.50400000000E-02 0. -1.
    8880022    1    1    2    0    0 -0.36209559519E+02  0.71356947440E+03 -0.23087706934E+04  0.24216329810E+04  0.15294330000E+03 0. -1.
    8880022    1    1    2    0    0  0.36209559519E+02 -0.71356947440E+03 -0.76142167237E+03  0.10552948134E+04  0.15294330000E+03 0.  0.
<mgrwt>
<rscale>  0 0.73067378E+03</rscale>
<asrwt>0</asrwt>
<pdfrwt beam="1">  1        1 0.50362459E+00 0.73067378E+03</pdfrwt>
<pdfrwt beam="2">  1       -1 0.31287343E-01 0.73067378E+03</pdfrwt>
<totfact> 0.38257502E+00</totfact>
</mgrwt>
</event>
<event>
 4    1  0.2731969E-009  0.6996282E+03  0.7818608E-02  0.9717868E-01
         -1   -1    0    0    0  501 -0.00000000000E+00  0.00000000000E+00  0.43087122125E+03  0.43087122128E+03  0.50400000000E-02 0.  1.
          1   -1    0    0  501    0  0.00000000000E+00 -0.00000000000E+00 -0.14747832443E+04  0.14747832444E+04  0.50400000000E-02 0. -1.
    8880022    1    1    2    0    0  0.29033598038E+03 -0.61789401591E+03 -0.65292580868E+02  0.70266832185E+03  0.15294330000E+03 0.  0.
    8880022    1    1    2    0    0 -0.29033598038E+03  0.61789401591E+03 -0.97861944222E+03  0.12029861438E+04  0.15294330000E+03 0.  0.
<mgrwt>
<rscale>  0 0.69962822E+03</rscale>
<asrwt>0</asrwt>
<pdfrwt beam="1">  1        1 0.22688973E+00 0.69962822E+03</pdfrwt>
<pdfrwt beam="2">  1       -1 0.66287881E-01 0.69962822E+03</pdfrwt>
<totfact> 0.16381636E+01</totfact>
</mgrwt>
</event>
<event>
 4    1  0.2731969E-009  0.5262578E+03  0.7818608E-02  0.1007144E+00
         -1   -1    0    0    0  501 -0.00000000000E+00  0.00000000000E+00  0.14467436022E+04  0.14467436022E+04  0.50400000000E-02 0.  1.
          1   -1    0    0  501    0  0.00000000000E+00 -0.00000000000E+00 -0.31110352390E+03  0.31110352394E+03  0.50400000000E-02 0. -1.
    8880022    1    1    2    0    0  0.47660892973E+03  0.16247945034E+03  0.11129514824E+04  0.12311004422E+04  0.15294330000E+03 0.  0.
    8880022    1    1    2    0    0 -0.47660892973E+03 -0.16247945034E+03  0.22688595956E+02  0.52674668398E+03  0.15294330000E+03 0.  0.
<mgrwt>
<rscale>  0 0.52625782E+03</rscale>
<asrwt>0</asrwt>
<pdfrwt beam="1">  1        1 0.47862081E-01 0.52625782E+03</pdfrwt>
<pdfrwt beam="2">  1       -1 0.22257594E+00 0.52625782E+03</pdfrwt>
<totfact> 0.94408988E+00</totfact>
</mgrwt>
</event>
<event>
 4    1  0.2731969E-009  0.6680323E+03  0.7818608E-02  0.9773519E-01
         -1   -1    0    0    0  501 -0.00000000000E+00  0.00000000000E+00  0.57691265250E+03  0.57691265252E+03  0.50400000000E-02 0.  1.
          1   -1    0    0  501    0  0.00000000000E+00 -0.00000000000E+00 -0.20734567639E+04  0.20734567639E+04  0.50400000000E-02 0. -1.
    8880022    1    1    2    0    0 -0.60257791943E+03 -0.24449004443E+03  0.30099507312E+03  0.73271086922E+03  0.15294330000E+03 0.  0.
    8880022    1    1    2    0    0  0.60257791943E+03  0.24449004443E+03 -0.17975391845E+04  0.19176585472E+04  0.15294330000E+03 0.  0.
<mgrwt>
<rscale>  0 0.66803232E+03</rscale>
<asrwt>0</asrwt>
<pdfrwt beam="1">  1        1 0.31899334E+00 0.66803232E+03</pdfrwt>
<pdfrwt beam="2">  1       -1 0.88755794E-01 0.66803232E+03</pdfrwt>
<totfact> 0.35412067E+00</totfact>
</mgrwt>
</event>
<event>
 4    1  0.2731969E-009  0.4715285E+03  0.7818608E-02  0.1021490E+00
         -1   -1    0    0    0  501 -0.00000000000E+00  0.00000000000E+00  0.18183222421E+03  0.18183222428E+03  0.50400000000E-02 0.  1.
          1   -1    0    0  501    0  0.00000000000E+00 -0.00000000000E+00 -0.15194806212E+04  0.15194806212E+04  0.50400000000E-02 0. -1.
    8880022    1    1    2    0    0 -0.52340848910E+02  0.44295366888E+03 -0.29292411783E+03  0.55510693479E+03  0.15294330000E+03 0.  0.
    8880022    1    1    2    0    0  0.52340848910E+02 -0.44295366888E+03 -0.10447242791E+04  0.11462059107E+04  0.15294330000E+03 0.  0.
<mgrwt>
<rscale>  0 0.47152855E+03</rscale>
<asrwt>0</asrwt>
<pdfrwt beam="1">  1        1 0.23376624E+00 0.47152855E+03</pdfrwt>
<pdfrwt beam="2">  1       -1 0.27974189E-01 0.47152855E+03</pdfrwt>
<totfact> 0.77581781E+01</totfact>
</mgrwt>
</event>
<event>
 4    1  0.2731969E-009  0.6894169E+03  0.7818608E-02  0.9735504E-01
         -1   -1    0    0    0  501 -0.00000000000E+00  0.00000000000E+00  0.36072082617E+03  0.36072082621E+03  0.50400000000E-02 0.  1.
          1   -1    0    0  501    0  0.00000000000E+00 -0.00000000000E+00 -0.17085044260E+04  0.17085044260E+04  0.50400000000E-02 0. -1.
    8880022    1    1    2    0    0  0.17644704691E+03 -0.64866820102E+03 -0.11687602725E+04  0.13569437067E+04  0.15294330000E+03 0.  0.
    8880022    1    1    2    0    0 -0.17644704691E+03  0.64866820102E+03 -0.17902332727E+03  0.71228154553E+03  0.15294330000E+03 0.  0.
<mgrwt>
<rscale>  0 0.68941689E+03</rscale>
<asrwt>0</asrwt>
<pdfrwt beam="1">  1        1 0.26284683E+00 0.68941689E+03</pdfrwt>
<pdfrwt beam="2">  1       -1 0.55495513E-01 0.68941689E+03</pdfrwt>
<totfact> 0.16180960E+01</totfact>
</mgrwt>
</event>
<event>
 4    1  0.2731969E-009  0.4333358E+03  0.7818608E-02  0.1032811E+00
         -1   -1    0    0    0  501 -0.00000000000E+00  0.00000000000E+00  0.17819323816E+04  0.17819323816E+04  0.50400000000E-02 0.  1.
          1   -1    0    0  501    0  0.00000000000E+00 -0.00000000000E+00 -0.20325648478E+04  0.20325648479E+04  0.50400000000E-02 0. -1.
    8880022    1    1    2    0    0  0.34029846050E+03 -0.22042058035E+03  0.17318329683E+04  0.17852241757E+04  0.15294330000E+03 0.  0.
    8880022    1    1    2    0    0 -0.34029846050E+03  0.22042058035E+03 -0.19824654345E+04  0.20292730537E+04  0.15294330000E+03 0. -1.
<mgrwt>
<rscale>  0 0.43333581E+03</rscale>
<asrwt>0</asrwt>
<pdfrwt beam="1">  1        1 0.31270228E+00 0.43333581E+03</pdfrwt>
<pdfrwt beam="2">  1       -1 0.27414344E+00 0.43333581E+03</pdfrwt>
<totfact> 0.16620052E-01</totfact>
</mgrwt>
</event>
<event>
 4    1  0.2731969E-009  0.9863395E+03  0.7818608E-02  0.9323656E-01
         -1   -1    0    0    0  501 -0.00000000000E+00  0.00000000000E+00  0.75421245383E+03  0.75421245385E+03  0.50400000000E-02 0.  1.
          1   -1    0    0  501    0  0.00000000000E+00 -0.00000000000E+00 -0.20173002426E+04  0.20173002426E+04  0.50400000000E-02 0. -1.
    8880022    1    1    2    0    0  0.70591441596E+03 -0.67168352877E+03 -0.14636631704E+04  0.17649859645E+04  0.15294330000E+03 0.  0.
    8880022    1    1    2    0    0 -0.70591441596E+03  0.67168352877E+03  0.20057538161E+03  0.10065267320E+04  0.15294330000E+03 0.  0.
<mgrwt>
<rscale>  0 0.98633948E+03</rscale>
<asrwt>0</asrwt>
<pdfrwt beam="1">  1        1 0.31035388E+00 0.98633948E+03</pdfrwt>
<pdfrwt beam="2">  1       -1 0.11603269E+00 0.98633948E+03</pdfrwt>
<totfact> 0.19743530E+00</totfact>
</mgrwt>
</event>
<event>
 4    1  0.2731969E-009  0.4394766E+03  0.7818608E-02  0.1030908E+00
         -1   -1    0    0    0  501 -0.00000000000E+00  0.00000000000E+00  0.65729206566E+03  0.65729206568E+03  0.50400000000E-02 0.  1.
          1   -1    0    0  501    0  0.00000000000E+00 -0.00000000000E+00 -0.19133762137E+04  0.19133762137E+04  0.50400000000E-02 0. -1.
    8880022    1    1    2    0    0  0.12847307645E+03  0.39146229483E+03  0.55448470105E+03  0.70752596868E+03  0.15294330000E+03 0.  0.
    8880022    1    1    2    0    0 -0.12847307645E+03 -0.39146229483E+03 -0.18105688491E+04  0.18631423107E+04  0.15294330000E+03 0. -1.
<mgrwt>
<rscale>  0 0.43947663E+03</rscale>
<asrwt>0</asrwt>
<pdfrwt beam="1">  1        1 0.29436557E+00 0.43947663E+03</pdfrwt>
<pdfrwt beam="2">  1       -1 0.10112186E+00 0.43947663E+03</pdfrwt>
<totfact> 0.35890628E+00</totfact>
</mgrwt>
</event>
<event>
 4    1  0.2731969E-009  0.8374077E+03  0.7818608E-02  0.9507395E-01
         -1   -1    0    0    0  501 -0.00000000000E+00  0.00000000000E+00  0.34016294837E+04  0.34016294837E+04  0.50400000000E-02 0.  1.
          1   -1    0    0  501    0  0.00000000000E+00 -0.00000000000E+00 -0.50728692669E+03  0.50728692672E+03  0.50400000000E-02 0. -1.
    8880022    1    1    2    0    0  0.47873554902E+03 -0.66983008567E+03 -0.58673922014E+02  0.83946075054E+03  0.15294330000E+03 0.  0.
    8880022    1    1    2    0    0 -0.47873554902E+03  0.66983008567E+03  0.29530164791E+04  0.30694556599E+04  0.15294330000E+03 0.  0.
<mgrwt>
<rscale>  0 0.83740774E+03</rscale>
<asrwt>0</asrwt>
<pdfrwt beam="1">  1        1 0.78044148E-01 0.83740774E+03</pdfrwt>
<pdfrwt beam="2">  1       -1 0.52332757E+00 0.83740774E+03</pdfrwt>
<totfact> 0.48164303E-02</totfact>
</mgrwt>
</event>
<event>
 4    1  0.2731969E-009  0.1212486E+04  0.7818608E-02  0.9101997E-01
          1   -1    0    0  501    0  0.00000000000E+00  0.00000000000E+00  0.27851545267E+04  0.27851545267E+04  0.50400000000E-02 0. -1.
         -1   -1    0    0    0  501 -0.00000000000E+00 -0.00000000000E+00 -0.88906194699E+03  0.88906194701E+03  0.50400000000E-02 0.  1.
    8880022    1    1    2    0    0  0.82650171870E+03  0.87385680941E+03 -0.22294696760E+03  0.12328129695E+04  0.15294330000E+03 0.  0.
    8880022    1    1    2    0    0 -0.82650171870E+03 -0.87385680941E+03  0.21190395473E+04  0.24414035042E+04  0.15294330000E+03 0.  0.
<mgrwt>
<rscale>  0 0.12124861E+04</rscale>
<asrwt>0</asrwt>
<pdfrwt beam="1">  1        1 0.42848531E+00 0.12124861E+04</pdfrwt>
<pdfrwt beam="2">  1       -1 0.13677876E+00 0.12124861E+04</pdfrwt>
<totfact> 0.37608865E-01</totfact>
</mgrwt>
</event>
<event>
 4    1  0.2731969E-009  0.8639816E+03  0.7818608E-02  0.9471761E-01
         -1   -1    0    0    0  501 -0.00000000000E+00  0.00000000000E+00  0.17304121444E+04  0.17304121444E+04  0.50400000000E-02 0.  1.
          1   -1    0    0  501    0  0.00000000000E+00 -0.00000000000E+00 -0.21910479336E+04  0.21910479337E+04  0.50400000000E-02 0. -1.
    8880022    1    1    2    0    0  0.92394436795E+02  0.84530218784E+03 -0.19874616587E+04  0.21671335950E+04  0.15294330000E+03 0.  0.
    8880022    1    1    2    0    0 -0.92394436795E+02 -0.84530218784E+03  0.15268258695E+04  0.17543264831E+04  0.15294330000E+03 0.  0.
<mgrwt>
<rscale>  0 0.86398158E+03</rscale>
<asrwt>0</asrwt>
<pdfrwt beam="1">  1        1 0.33708430E+00 0.86398158E+03</pdfrwt>
<pdfrwt beam="2">  1       -1 0.26621725E+00 0.86398158E+03</pdfrwt>
<totfact> 0.12701155E-01</totfact>
</mgrwt>
</event>
<event>
 4    1  0.2731969E-009  0.1052075E+04  0.7818608E-02  0.9253205E-01
          1   -1    0    0  501    0  0.00000000000E+00  0.00000000000E+00  0.13645191498E+04  0.13645191499E+04  0.50400000000E-02 0. -1.
         -1   -1    0    0    0  501 -0.00000000000E+00 -0.00000000000E+00 -0.10779093106E+04  0.10779093106E+04  0.50400000000E-02 0.  1.
    8880022    1    1    2    0    0 -0.93953671607E+03  0.44804029935E+03  0.75079874415E+03  0.12925013570E+04  0.15294330000E+03 0.  0.
    8880022    1    1    2    0    0  0.93953671607E+03 -0.44804029935E+03 -0.46418890487E+03  0.11499271034E+04  0.15294330000E+03 0.  0.
<mgrwt>
<rscale>  0 0.10520746E+04</rscale>
<asrwt>0</asrwt>
<pdfrwt beam="1">  1        1 0.20992602E+00 0.10520746E+04</pdfrwt>
<pdfrwt beam="2">  1       -1 0.16583220E+00 0.10520746E+04</pdfrwt>
<totfact> 0.21454040E+00</totfact>
</mgrwt>
</event>
<event>
 4    1  0.2731969E-009  0.6384033E+03  0.7818608E-02  0.9828786E-01
         -1   -1    0    0    0  501 -0.00000000000E+00  0.00000000000E+00  0.10083645637E+04  0.10083645637E+04  0.50400000000E-02 0.  1.
          1   -1    0    0  501    0  0.00000000000E+00 -0.00000000000E+00 -0.82203044931E+03  0.82203044932E+03  0.50400000000E-02 0. -1.
    8880022    1    1    2    0    0  0.60682866522E+03  0.12619878542E+03 -0.55933566802E+03  0.84877276401E+03  0.15294330000E+03 0.  0.
    8880022    1    1    2    0    0 -0.60682866522E+03 -0.12619878542E+03  0.74566978244E+03  0.98162224906E+03  0.15294330000E+03 0.  0.
<mgrwt>
<rscale>  0 0.63840333E+03</rscale>
<asrwt>0</asrwt>
<pdfrwt beam="1">  1        1 0.12646622E+00 0.63840333E+03</pdfrwt>
<pdfrwt beam="2">  1       -1 0.15513301E+00 0.63840333E+03</pdfrwt>
<totfact> 0.70835112E+00</totfact>
</mgrwt>
</event>
<event>
 4    1  0.2731969E-009  0.1113818E+04  0.7818608E-02  0.9191828E-01
          1   -1    0    0  501    0  0.00000000000E+00  0.00000000000E+00  0.18688774104E+04  0.18688774104E+04  0.50400000000E-02 0. -1.
         -1   -1    0    0    0  501 -0.00000000000E+00 -0.00000000000E+00 -0.17830962962E+04  0.17830962962E+04  0.50400000000E-02 0.  1.
    8880022    1    1    2    0    0 -0.16473549851E+03  0.10908992489E+04  0.14895945795E+04  0.18599684460E+04  0.15294330000E+03 0.  0.
    8880022    1    1    2    0    0  0.16473549851E+03 -0.10908992489E+04 -0.14038134654E+04  0.17920052607E+04  0.15294330000E+03 0.  0.
<mgrwt>
<rscale>  0 0.11138180E+04</rscale>
<asrwt>0</asrwt>
<pdfrwt beam="1">  1        1 0.28751960E+00 0.11138180E+04</pdfrwt>
<pdfrwt beam="2">  1       -1 0.27432251E+00 0.11138180E+04</pdfrwt>
<totfact> 0.17670349E-01</totfact>
</mgrwt>
</event>
<event>
 4    1  0.2731969E-009  0.9604933E+03  0.7818608E-02  0.9352969E-01
         -1   -1    0    0    0  501 -0.00000000000E+00  0.00000000000E+00  0.18200333791E+04  0.18200333791E+04  0.50400000000E-02 0.  1.
          1   -1    0    0  501    0  0.00000000000E+00 -0.00000000000E+00 -0.10129462467E+04  0.10129462467E+04  0.50400000000E-02 0. -1.
    8880022    1    1    2    0    0  0.88839955292E+03 -0.33151460378E+03  0.14047459143E+04  0.17017221968E+04  0.15294330000E+03 0.  0.
    8880022    1    1    2    0    0 -0.88839955292E+03  0.33151460378E+03 -0.59765878187E+03  0.11312574290E+04  0.15294330000E+03 0.  0.
<mgrwt>
<rscale>  0 0.96049329E+03</rscale>
<asrwt>0</asrwt>
<pdfrwt beam="1">  1        1 0.15583788E+00 0.96049329E+03</pdfrwt>
<pdfrwt beam="2">  1       -1 0.28000514E+00 0.96049329E+03</pdfrwt>
<totfact> 0.66971166E-01</totfact>
</mgrwt>
</event>
<event>
 4    1  0.2731969E-009  0.4360859E+03  0.7818608E-02  0.1031955E+00
          1   -1    0    0  501    0  0.00000000000E+00  0.00000000000E+00  0.32868079389E+04  0.32868079389E+04  0.50400000000E-02 0. -1.
         -1   -1    0    0    0  501 -0.00000000000E+00 -0.00000000000E+00 -0.38763947189E+03  0.38763947192E+03  0.50400000000E-02 0.  1.
    8880022    1    1    2    0    0  0.30735309796E+03  0.26891145795E+03 -0.24499002601E+03  0.50019102841E+03  0.15294330000E+03 0.  0.
    8880022    1    1    2    0    0 -0.30735309796E+03 -0.26891145795E+03  0.31441584930E+04  0.31742563824E+04  0.15294330000E+03 0.  0.
<mgrwt>
<rscale>  0 0.43608595E+03</rscale>
<asrwt>0</asrwt>
<pdfrwt beam="1">  1        1 0.50566275E+00 0.43608595E+03</pdfrwt>
<pdfrwt beam="2">  1       -1 0.59636842E-01 0.43608595E+03</pdfrwt>
<totfact> 0.12406537E+00</totfact>
</mgrwt>
</event>
<event>
 4    1  0.2731969E-009  0.1103151E+04  0.7818608E-02  0.9202126E-01
         -1   -1    0    0    0  501 -0.00000000000E+00  0.00000000000E+00  0.26145859690E+04  0.26145859690E+04  0.50400000000E-02 0.  1.
          1   -1    0    0  501    0  0.00000000000E+00 -0.00000000000E+00 -0.12516633123E+04  0.12516633123E+04  0.50400000000E-02 0. -1.
    8880022    1    1    2    0    0  0.82292830012E+03  0.71856749253E+03  0.22135648268E+04  0.24732187780E+04  0.15294330000E+03 0.  0.
    8880022    1    1    2    0    0 -0.82292830012E+03 -0.71856749253E+03 -0.85064217010E+03  0.13930305033E+04  0.15294330000E+03 0.  0.
<mgrwt>
<rscale>  0 0.11031509E+04</rscale>
<asrwt>0</asrwt>
<pdfrwt beam="1">  1        1 0.19256359E+00 0.11031509E+04</pdfrwt>
<pdfrwt beam="2">  1       -1 0.40224399E+00 0.11031509E+04</pdfrwt>
<totfact> 0.68169502E-02</totfact>
</mgrwt>
</event>
<event>
 4    1  0.2731969E-009  0.5212397E+03  0.7818608E-02  0.1008379E+00
          1   -1    0    0  501    0  0.00000000000E+00  0.00000000000E+00  0.26998271592E+04  0.26998271592E+04  0.50400000000E-02 0. -1.
         -1   -1    0    0    0  501 -0.00000000000E+00 -0.00000000000E+00 -0.27166872410E+03  0.27166872415E+03  0.50400000000E-02 0.  1.
    8880022    1    1    2    0    0  0.30735218731E+03  0.39221657341E+03  0.35200495958E+02  0.52242696660E+03  0.15294330000E+03 0.  0.
    8880022    1    1    2    0    0 -0.30735218731E+03 -0.39221657341E+03  0.23929579392E+04  0.24490689168E+04  0.15294330000E+03 0.  0.
<mgrwt>
<rscale>  0 0.52123973E+03</rscale>
<asrwt>0</asrwt>
<pdfrwt beam="1">  1        1 0.41535804E+00 0.52123973E+03</pdfrwt>
<pdfrwt beam="2">  1       -1 0.41795186E-01 0.52123973E+03</pdfrwt>
<totfact> 0.61479191E+00</totfact>
</mgrwt>
</event>
<event>
 4    1  0.2731969E-009  0.7233321E+03  0.7818608E-02  0.9678143E-01
          1   -1    0    0  501    0  0.00000000000E+00  0.00000000000E+00  0.20918347696E+04  0.20918347696E+04  0.50400000000E-02 0. -1.
         -1   -1    0    0    0  501 -0.00000000000E+00 -0.00000000000E+00 -0.61633976393E+03  0.61633976395E+03  0.50400000000E-02 0.  1.
    8880022    1    1    2    0    0  0.35446583178E+03 -0.61169572890E+03  0.17815240974E+04  0.19227681746E+04  0.15294330000E+03 0.  0.
    8880022    1    1    2    0    0 -0.35446583178E+03  0.61169572890E+03 -0.30602909174E+03  0.78540635894E+03  0.15294330000E+03 0.  0.
<mgrwt>
<rscale>  0 0.72333211E+03</rscale>
<asrwt>0</asrwt>
<pdfrwt beam="1">  1        1 0.32182073E+00 0.72333211E+03</pdfrwt>
<pdfrwt beam="2">  1       -1 0.94821505E-01 0.72333211E+03</pdfrwt>
<totfact> 0.29411102E+00</totfact>
</mgrwt>
</event>
<event>
 4    1  0.2731969E-009  0.5114678E+03  0.7818608E-02  0.1010828E+00
          1   -1    0    0  501    0  0.00000000000E+00  0.00000000000E+00  0.61831287269E+03  0.61831287271E+03  0.50400000000E-02 0. -1.
         -1   -1    0    0    0  501 -0.00000000000E+00 -0.00000000000E+00 -0.64909057727E+03  0.64909057729E+03  0.50400000000E-02 0.  1.
    8880022    1    1    2    0    0 -0.81568974851E+02 -0.48120074059E+03  0.35854190682E+03  0.62462116708E+03  0.15294330000E+03 0.  0.
    8880022    1    1    2    0    0  0.81568974851E+02  0.48120074059E+03 -0.38931961140E+03  0.64278228292E+03  0.15294330000E+03 0.  0.
<mgrwt>
<rscale>  0 0.51146779E+03</rscale>
<asrwt>0</asrwt>
<pdfrwt beam="1">  1        1 0.95125057E-01 0.51146779E+03</pdfrwt>
<pdfrwt beam="2">  1       -1 0.99860089E-01 0.51146779E+03</pdfrwt>
<totfact> 0.33026620E+01</totfact>
</mgrwt>
</event>
<event>
 4    1  0.2731969E-009  0.2079094E+03  0.7818608E-02  0.1143232E+00
          1   -1    0    0  501    0  0.00000000000E+00  0.00000000000E+00  0.15739251998E+04  0.15739251998E+04  0.50400000000E-02 0. -1.
         -1   -1    0    0    0  501 -0.00000000000E+00 -0.00000000000E+00 -0.33853218965E+03  0.33853218969E+03  0.50400000000E-02 0.  1.
    8880022    1    1    2    0    0  0.14173404902E+02  0.14012065519E+03  0.15343169998E+04  0.15483394306E+04  0.15294330000E+03 0. -1.
    8880022    1    1    2    0    0 -0.14173404902E+02 -0.14012065519E+03 -0.29892398963E+03  0.36411795893E+03  0.15294330000E+03 0.  0.
<mgrwt>
<rscale>  0 0.20790944E+03</rscale>
<asrwt>0</asrwt>
<pdfrwt beam="1">  1        1 0.24214234E+00 0.20790944E+03</pdfrwt>
<pdfrwt beam="2">  1       -1 0.52081875E-01 0.20790944E+03</pdfrwt>
<totfact> 0.25422653E+01</totfact>
</mgrwt>
</event>
<event>
 4    1  0.2731969E-009  0.8364647E+03  0.7818608E-02  0.9508686E-01
         -1   -1    0    0    0  501 -0.00000000000E+00  0.00000000000E+00  0.97572022837E+03  0.97572022838E+03  0.50400000000E-02 0.  1.
          1   -1    0    0  501    0  0.00000000000E+00 -0.00000000000E+00 -0.97812907806E+03  0.97812907808E+03  0.50400000000E-02 0. -1.
    8880022    1    1    2    0    0 -0.54391101025E+03  0.61680010734E+03  0.50348112288E+03  0.97630243962E+03  0.15294330000E+03 0.  0.
    8880022    1    1    2    0    0  0.54391101025E+03 -0.61680010734E+03 -0.50588997257E+03  0.97754686684E+03  0.15294330000E+03 0.  0.
<mgrwt>
<rscale>  0 0.83646471E+03</rscale>
<asrwt>0</asrwt>
<pdfrwt beam="1">  1        1 0.15048140E+00 0.83646471E+03</pdfrwt>
<pdfrwt beam="2">  1       -1 0.15011080E+00 0.83646471E+03</pdfrwt>
<totfact> 0.56071280E+00</totfact>
</mgrwt>
</event>
<event>
 4    1  0.2731969E-009  0.1999739E+03  0.7818608E-02  0.1149761E+00
          1   -1    0    0  501    0  0.00000000000E+00  0.00000000000E+00  0.12751772195E+04  0.12751772195E+04  0.50400000000E-02 0. -1.
         -1   -1    0    0    0  501 -0.00000000000E+00 -0.00000000000E+00 -0.51759205455E+03  0.51759205458E+03  0.50400000000E-02 0.  1.
    8880022    1    1    2    0    0 -0.11815050445E+03 -0.51364895930E+02 -0.49001259595E+03  0.52924653181E+03  0.15294330000E+03 0.  0.
    8880022    1    1    2    0    0  0.11815050445E+03  0.51364895930E+02  0.12475977609E+04  0.12635227423E+04  0.15294330000E+03 0.  0.
<mgrwt>
<rscale>  0 0.19997387E+03</rscale>
<asrwt>0</asrwt>
<pdfrwt beam="1">  1        1 0.19618111E+00 0.19997387E+03</pdfrwt>
<pdfrwt beam="2">  1       -1 0.79629547E-01 0.19997387E+03</pdfrwt>
<totfact> 0.17595862E+01</totfact>
</mgrwt>
</event>
<event>
 4    1  0.2731969E-009  0.4063317E+03  0.7818608E-02  0.1041609E+00
          1   -1    0    0  501    0  0.00000000000E+00  0.00000000000E+00  0.13639882689E+04  0.13639882689E+04  0.50400000000E-02 0. -1.
         -1   -1    0    0    0  501 -0.00000000000E+00 -0.00000000000E+00 -0.51594024016E+03  0.51594024018E+03  0.50400000000E-02 0.  1.
    8880022    1    1    2    0    0 -0.37422412974E+03  0.40867266192E+02 -0.39831703923E+03  0.56900083434E+03  0.15294330000E+03 0.  0.
    8880022    1    1    2    0    0  0.37422412974E+03 -0.40867266192E+02  0.12463650680E+04  0.13109276748E+04  0.15294330000E+03 0.  0.
<mgrwt>
<rscale>  0 0.40633174E+03</rscale>
<asrwt>0</asrwt>
<pdfrwt beam="1">  1        1 0.20984435E+00 0.40633174E+03</pdfrwt>
<pdfrwt beam="2">  1       -1 0.79375422E-01 0.40633174E+03</pdfrwt>
<totfact> 0.14272268E+01</totfact>
</mgrwt>
</event>
<event>
 4    1  0.2731969E-009  0.7508516E+03  0.7818608E-02  0.9634015E-01
          1   -1    0    0  501    0  0.00000000000E+00  0.00000000000E+00  0.13170711633E+04  0.13170711633E+04  0.50400000000E-02 0. -1.
         -1   -1    0    0    0  501 -0.00000000000E+00 -0.00000000000E+00 -0.72371632923E+03  0.72371632925E+03  0.50400000000E-02 0.  1.
    8880022    1    1    2    0    0  0.68033113262E+03  0.27845288781E+03 -0.35552334455E+03  0.83076769453E+03  0.15294330000E+03 0.  0.
    8880022    1    1    2    0    0 -0.68033113262E+03 -0.27845288781E+03  0.94887817859E+03  0.12100197980E+04  0.15294330000E+03 0.  0.
<mgrwt>
<rscale>  0 0.75085159E+03</rscale>
<asrwt>0</asrwt>
<pdfrwt beam="1">  1        1 0.20262633E+00 0.75085159E+03</pdfrwt>
<pdfrwt beam="2">  1       -1 0.11134097E+00 0.75085159E+03</pdfrwt>
<totfact> 0.67689349E+00</totfact>
</mgrwt>
</event>
<event>
 4    1  0.2731969E-009  0.9067797E+03  0.7818608E-02  0.9417146E-01
          1   -1    0    0  501    0  0.00000000000E+00  0.00000000000E+00  0.18981218066E+04  0.18981218066E+04  0.50400000000E-02 0. -1.
         -1   -1    0    0    0  501 -0.00000000000E+00 -0.00000000000E+00 -0.86024435877E+03  0.86024435879E+03  0.50400000000E-02 0.  1.
    8880022    1    1    2    0    0  0.20244193860E+03 -0.87056014293E+03 -0.45280569907E+03  0.10135493846E+04  0.15294330000E+03 0.  0.
    8880022    1    1    2    0    0 -0.20244193860E+03  0.87056014293E+03  0.14906831469E+04  0.17448167808E+04  0.15294330000E+03 0.  0.
<mgrwt>
<rscale>  0 0.90677966E+03</rscale>
<asrwt>0</asrwt>
<pdfrwt beam="1">  1        1 0.29201874E+00 0.90677966E+03</pdfrwt>
<pdfrwt beam="2">  1       -1 0.13234529E+00 0.90677966E+03</pdfrwt>
<totfact> 0.17345609E+00</totfact>
</mgrwt>
</event>
<event>
 4    1  0.2731969E-009  0.8541672E+03  0.7818608E-02  0.9484761E-01
         -1   -1    0    0    0  501 -0.00000000000E+00  0.00000000000E+00  0.81029285450E+03  0.81029285452E+03  0.50400000000E-02 0.  1.
          1   -1    0    0  501    0  0.00000000000E+00 -0.00000000000E+00 -0.20310548608E+04  0.20310548608E+04  0.50400000000E-02 0. -1.
    8880022    1    1    2    0    0  0.49079275433E+03  0.68215274593E+03  0.44959321736E+03  0.96526452882E+03  0.15294330000E+03 0.  0.
    8880022    1    1    2    0    0 -0.49079275433E+03 -0.68215274593E+03 -0.16703552236E+04  0.18760831865E+04  0.15294330000E+03 0.  0.
<mgrwt>
<rscale>  0 0.85416717E+03</rscale>
<asrwt>0</asrwt>
<pdfrwt beam="1">  1        1 0.31246998E+00 0.85416717E+03</pdfrwt>
<pdfrwt beam="2">  1       -1 0.12466044E+00 0.85416717E+03</pdfrwt>
<totfact> 0.16561203E+00</totfact>
</mgrwt>
</event>
<event>
 4    1  0.2731969E-009  0.2852897E+03  0.7818608E-02  0.1092834E+00
          1   -1    0    0  501    0  0.00000000000E+00  0.00000000000E+00  0.23889615761E+04  0.23889615761E+04  0.50400000000E-02 0. -1.
         -1   -1    0    0    0  501 -0.00000000000E+00 -0.00000000000E+00 -0.35160958856E+03  0.35160958859E+03  0.50400000000E-02 0.  1.
    8880022    1    1    2    0    0  0.12654642571E+03  0.20490132626E+03 -0.28353141980E+03  0.40221918203E+03  0.15294330000E+03 0.  0.
    8880022    1    1    2    0    0 -0.12654642571E+03 -0.20490132626E+03  0.23208834074E+04  0.23383519827E+04  0.15294330000E+03 0. -1.
<mgrwt>
<rscale>  0 0.28528969E+03</rscale>
<asrwt>0</asrwt>
<pdfrwt beam="1">  1        1 0.36753256E+00 0.28528969E+03</pdfrwt>
<pdfrwt beam="2">  1       -1 0.54093782E-01 0.28528969E+03</pdfrwt>
<totfact> 0.67160275E+00</totfact>
</mgrwt>
</event>
<event>
 4    1  0.2731969E-009  0.7063130E+03  0.7818608E-02  0.9706497E-01
          1   -1    0    0  501    0  0.00000000000E+00  0.00000000000E+00  0.81159861086E+03  0.81159861088E+03  0.50400000000E-02 0. -1.
         -1   -1    0    0    0  501 -0.00000000000E+00 -0.00000000000E+00 -0.14653611438E+04  0.14653611438E+04  0.50400000000E-02 0.  1.
    8880022    1    1    2    0    0 -0.21755880793E+03  0.65433525538E+03 -0.11943122975E+04  0.13875373791E+04  0.15294330000E+03 0.  0.
    8880022    1    1    2    0    0  0.21755880793E+03 -0.65433525538E+03  0.54054976453E+03  0.88942237564E+03  0.15294330000E+03 0.  0.
<mgrwt>
<rscale>  0 0.70631304E+03</rscale>
<asrwt>0</asrwt>
<pdfrwt beam="1">  1        1 0.12486133E+00 0.70631304E+03</pdfrwt>
<pdfrwt beam="2">  1       -1 0.22544018E+00 0.70631304E+03</pdfrwt>
<totfact> 0.22991320E+00</totfact>
</mgrwt>
</event>
<event>
 4    1  0.2731969E-009  0.8964595E+03  0.7818608E-02  0.9430018E-01
         -1   -1    0    0    0  501 -0.00000000000E+00  0.00000000000E+00  0.46981267061E+03  0.46981267064E+03  0.50400000000E-02 0.  1.
          1   -1    0    0  501    0  0.00000000000E+00 -0.00000000000E+00 -0.23884580065E+04  0.23884580065E+04  0.50400000000E-02 0. -1.
    8880022    1    1    2    0    0 -0.87394303076E+03  0.12834173224E+03 -0.19794727469E+03  0.91805380987E+03  0.15294330000E+03 0.  0.
    8880022    1    1    2    0    0  0.87394303076E+03 -0.12834173224E+03 -0.17206980612E+04  0.19402168672E+04  0.15294330000E+03 0.  0.
<mgrwt>
<rscale>  0 0.89645952E+03</rscale>
<asrwt>0</asrwt>
<pdfrwt beam="1">  1        1 0.36745507E+00 0.89645952E+03</pdfrwt>
<pdfrwt beam="2">  1       -1 0.72278873E-01 0.89645952E+03</pdfrwt>
<totfact> 0.32269189E+00</totfact>
</mgrwt>
</event>
<event>
 4    1  0.2731969E-009  0.1075194E+04  0.7818608E-02  0.9229713E-01
          1   -1    0    0  501    0  0.00000000000E+00  0.00000000000E+00  0.11623946707E+04  0.11623946707E+04  0.50400000000E-02 0. -1.
         -1   -1    0    0    0  501 -0.00000000000E+00 -0.00000000000E+00 -0.11725250130E+04  0.11725250130E+04  0.50400000000E-02 0.  1.
    8880022    1    1    2    0    0  0.23852534801E+03 -0.10371863206E+04 -0.45992697743E+03  0.11694333170E+04  0.15294330000E+03 0.  0.
    8880022    1    1    2    0    0 -0.23852534801E+03  0.10371863206E+04  0.44979663508E+03  0.11654863668E+04  0.15294330000E+03 0.  0.
<mgrwt>
<rscale>  0 0.10751937E+04</rscale>
<asrwt>0</asrwt>
<pdfrwt beam="1">  1        1 0.17882995E+00 0.10751937E+04</pdfrwt>
<pdfrwt beam="2">  1       -1 0.18038846E+00 0.10751937E+04</pdfrwt>
<totfact> 0.23420386E+00</totfact>
</mgrwt>
</event>
<event>
 4    1  0.2731969E-009  0.5252007E+03  0.7818608E-02  0.1007403E+00
          1   -1    0    0  501    0  0.00000000000E+00  0.00000000000E+00  0.17970056866E+04  0.17970056866E+04  0.50400000000E-02 0. -1.
         -1   -1    0    0    0  501 -0.00000000000E+00 -0.00000000000E+00 -0.24738030316E+03  0.24738030321E+03  0.50400000000E-02 0.  1.
    8880022    1    1    2    0    0  0.16827009898E+03 -0.47342293741E+03  0.14045269471E+04  0.14995104874E+04  0.15294330000E+03 0.  0.
    8880022    1    1    2    0    0 -0.16827009898E+03  0.47342293741E+03  0.14509843640E+03  0.54487550242E+03  0.15294330000E+03 0.  0.
<mgrwt>
<rscale>  0 0.52520068E+03</rscale>
<asrwt>0</asrwt>
<pdfrwt beam="1">  1        1 0.27646242E+00 0.52520068E+03</pdfrwt>
<pdfrwt beam="2">  1       -1 0.38058507E-01 0.52520068E+03</pdfrwt>
<totfact> 0.29268634E+01</totfact>
</mgrwt>
</event>
<event>
 4    1  0.2731969E-009  0.2045868E+04  0.7818608E-02  0.8585471E-01
          1   -1    0    0  501    0  0.00000000000E+00  0.00000000000E+00  0.28162722915E+04  0.28162722915E+04  0.50400000000E-02 0. -1.
         -1   -1    0    0    0  501 -0.00000000000E+00 -0.00000000000E+00 -0.15399874600E+04  0.15399874600E+04  0.50400000000E-02 0.  1.
    8880022    1    1    2    0    0 -0.77690662881E+03  0.18864247739E+04  0.23111606222E+03  0.20588804299E+04  0.15294330000E+03 0.  0.
    8880022    1    1    2    0    0  0.77690662881E+03 -0.18864247739E+04  0.10451687693E+04  0.22973793215E+04  0.15294330000E+03 0.  0.
<mgrwt>
<rscale>  0 0.20458675E+04</rscale>
<asrwt>0</asrwt>
<pdfrwt beam="1">  1        1 0.43327266E+00 0.20458675E+04</pdfrwt>
<pdfrwt beam="2">  1       -1 0.23692115E+00 0.20458675E+04</pdfrwt>
<totfact> 0.61150696E-02</totfact>
</mgrwt>
</event>
<event>
 4    1  0.2731969E-009  0.3311166E+03  0.7818608E-02  0.1070644E+00
          1   -1    0    0  501    0  0.00000000000E+00  0.00000000000E+00  0.57525574137E+03  0.57525574139E+03  0.50400000000E-02 0. -1.
         -1   -1    0    0    0  501 -0.00000000000E+00 -0.00000000000E+00 -0.80068124512E+03  0.80068124514E+03  0.50400000000E-02 0.  1.
    8880022    1    1    2    0    0  0.24312855295E+03  0.16472715837E+03 -0.71324453807E+03  0.78635612420E+03  0.15294330000E+03 0.  0.
    8880022    1    1    2    0    0 -0.24312855295E+03 -0.16472715837E+03  0.48781903432E+03  0.58958086233E+03  0.15294330000E+03 0. -1.
<mgrwt>
<rscale>  0 0.33111657E+03</rscale>
<asrwt>0</asrwt>
<pdfrwt beam="1">  1        1 0.88500883E-01 0.33111657E+03</pdfrwt>
<pdfrwt beam="2">  1       -1 0.12318173E+00 0.33111657E+03</pdfrwt>
<totfact> 0.23152850E+01</totfact>
</mgrwt>
</event>
<event>
 4    1  0.2731969E-009  0.6291206E+03  0.7818608E-02  0.9846766E-01
          1   -1    0    0  501    0  0.00000000000E+00  0.00000000000E+00  0.27170999733E+04  0.27170999733E+04  0.50400000000E-02 0. -1.
         -1   -1    0    0    0  501 -0.00000000000E+00 -0.00000000000E+00 -0.10742465474E+04  0.10742465475E+04  0.50400000000E-02 0.  1.
    8880022    1    1    2    0    0 -0.54209689630E+03  0.28023573105E+03 -0.94104020969E+03  0.11319670663E+04  0.15294330000E+03 0.  0.
    8880022    1    1    2    0    0  0.54209689630E+03 -0.28023573105E+03  0.25838936355E+04  0.26593794544E+04  0.15294330000E+03 0.  0.
<mgrwt>
<rscale>  0 0.62912063E+03</rscale>
<asrwt>0</asrwt>
<pdfrwt beam="1">  1        1 0.41801538E+00 0.62912063E+03</pdfrwt>
<pdfrwt beam="2">  1       -1 0.16526870E+00 0.62912063E+03</pdfrwt>
<totfact> 0.28442831E-01</totfact>
</mgrwt>
</event>
<event>
 4    1  0.2731969E-009  0.1496636E+04  0.7818608E-02  0.8886693E-01
          1   -1    0    0  501    0  0.00000000000E+00  0.00000000000E+00  0.30455278031E+04  0.30455278031E+04  0.50400000000E-02 0. -1.
         -1   -1    0    0    0  501 -0.00000000000E+00 -0.00000000000E+00 -0.82862717772E+03  0.82862717774E+03  0.50400000000E-02 0.  1.
    8880022    1    1    2    0    0 -0.14884798671E+04  0.30899394364E+02  0.17579170117E+04  0.23087206328E+04  0.15294330000E+03 0.  0.
    8880022    1    1    2    0    0  0.14884798671E+04 -0.30899394364E+02  0.45898361369E+03  0.15654343480E+04  0.15294330000E+03 0.  0.
<mgrwt>
<rscale>  0 0.14966358E+04</rscale>
<asrwt>0</asrwt>
<pdfrwt beam="1">  1        1 0.46854274E+00 0.14966358E+04</pdfrwt>
<pdfrwt beam="2">  1       -1 0.12748110E+00 0.14966358E+04</pdfrwt>
<totfact> 0.28180624E-01</totfact>
</mgrwt>
</event>
<event>
 4    1  0.2731969E-009  0.4820044E+03  0.7818608E-02  0.1018586E+00
         -1   -1    0    0    0  501 -0.00000000000E+00  0.00000000000E+00  0.17589776982E+04  0.17589776982E+04  0.50400000000E-02 0.  1.
          1   -1    0    0  501    0  0.00000000000E+00 -0.00000000000E+00 -0.32984188964E+03  0.32984188968E+03  0.50400000000E-02 0. -1.
    8880022    1    1    2    0    0 -0.40145284014E+03 -0.21856857209E+03  0.15232685371E+04  0.15977093893E+04  0.15294330000E+03 0.  1.
    8880022    1    1    2    0    0  0.40145284014E+03  0.21856857209E+03 -0.94132728527E+02  0.49111019859E+03  0.15294330000E+03 0.  0.
<mgrwt>
<rscale>  0 0.48200442E+03</rscale>
<asrwt>0</asrwt>
<pdfrwt beam="1">  1        1 0.50744906E-01 0.48200442E+03</pdfrwt>
<pdfrwt beam="2">  1       -1 0.27061195E+00 0.48200442E+03</pdfrwt>
<totfact> 0.43410367E+00</totfact>
</mgrwt>
</event>
<event>
 4    1  0.2731969E-009  0.5255560E+03  0.7818608E-02  0.1007316E+00
         -1   -1    0    0    0  501 -0.00000000000E+00  0.00000000000E+00  0.30667149331E+03  0.30667149335E+03  0.50400000000E-02 0.  1.
          1   -1    0    0  501    0  0.00000000000E+00 -0.00000000000E+00 -0.27763831469E+04  0.27763831469E+04  0.50400000000E-02 0. -1.
    8880022    1    1    2    0    0  0.45189794145E+03  0.22046694385E+03 -0.25019095112E+04  0.25565133049E+04  0.15294330000E+03 0.  0.
    8880022    1    1    2    0    0 -0.45189794145E+03 -0.22046694385E+03  0.32197857597E+02  0.52654133538E+03  0.15294330000E+03 0.  0.
<mgrwt>
<rscale>  0 0.52555597E+03</rscale>
<asrwt>0</asrwt>
<pdfrwt beam="1">  1        1 0.42713585E+00 0.52555597E+03</pdfrwt>
<pdfrwt beam="2">  1       -1 0.47180232E-01 0.52555597E+03</pdfrwt>
<totfact> 0.43500064E+00</totfact>
</mgrwt>
</event>
<event>
 4    1  0.2731969E-009  0.7539789E+03  0.7818608E-02  0.9629129E-01
         -1   -1    0    0    0  501 -0.00000000000E+00  0.00000000000E+00  0.79176037627E+03  0.79176037628E+03  0.50400000000E-02 0.  1.
          1   -1    0    0  501    0  0.00000000000E+00 -0.00000000000E+00 -0.15834191198E+04  0.15834191198E+04  0.50400000000E-02 0. -1.
    8880022    1    1    2    0    0 -0.16085126082E+03 -0.72056880673E+03  0.48214464951E+03  0.89495678634E+03  0.15294330000E+03 0.  0.
    8880022    1    1    2    0    0  0.16085126082E+03  0.72056880673E+03 -0.12738033931E+04  0.14802227098E+04  0.15294330000E+03 0.  0.
<mgrwt>
<rscale>  0 0.75397890E+03</rscale>
<asrwt>0</asrwt>
<pdfrwt beam="1">  1        1 0.24360294E+00 0.75397890E+03</pdfrwt>
<pdfrwt beam="2">  1       -1 0.12180929E+00 0.75397890E+03</pdfrwt>
<totfact> 0.35690673E+00</totfact>
</mgrwt>
</event>
<event>
 4    1  0.2731969E-009  0.7182559E+03  0.7818608E-02  0.9686512E-01
         -1   -1    0    0    0  501 -0.00000000000E+00  0.00000000000E+00  0.57273059275E+03  0.57273059277E+03  0.50400000000E-02 0.  1.
          1   -1    0    0  501    0  0.00000000000E+00 -0.00000000000E+00 -0.10890852451E+04  0.10890852451E+04  0.50400000000E-02 0. -1.
    8880022    1    1    2    0    0 -0.58977529196E+03 -0.38034859123E+03  0.87347030723E+02  0.72354758147E+03  0.15294330000E+03 0.  0.
    8880022    1    1    2    0    0  0.58977529196E+03  0.38034859123E+03 -0.60370168311E+03  0.93826825645E+03  0.15294330000E+03 0.  0.
<mgrwt>
<rscale>  0 0.71825594E+03</rscale>
<asrwt>0</asrwt>
<pdfrwt beam="1">  1        1 0.16755158E+00 0.71825594E+03</pdfrwt>
<pdfrwt beam="2">  1       -1 0.88112399E-01 0.71825594E+03</pdfrwt>
<totfact> 0.16928787E+01</totfact>
</mgrwt>
</event>
<event>
 4    1  0.2731969E-009  0.9535704E+03  0.7818608E-02  0.9360987E-01
          1   -1    0    0  501    0  0.00000000000E+00  0.00000000000E+00  0.47723156448E+03  0.47723156450E+03  0.50400000000E-02 0. -1.
         -1   -1    0    0    0  501 -0.00000000000E+00 -0.00000000000E+00 -0.20662990098E+04  0.20662990098E+04  0.50400000000E-02 0.  1.
    8880022    1    1    2    0    0  0.84603978972E+03  0.41245789104E+03 -0.11494656973E+04  0.14935085804E+04  0.15294330000E+03 0.  0.
    8880022    1    1    2    0    0 -0.84603978972E+03 -0.41245789104E+03 -0.43960174805E+03  0.10500219938E+04  0.15294330000E+03 0.  0.
<mgrwt>
<rscale>  0 0.95357039E+03</rscale>
<asrwt>0</asrwt>
<pdfrwt beam="1">  1        1 0.73420242E-01 0.95357039E+03</pdfrwt>
<pdfrwt beam="2">  1       -1 0.31789215E+00 0.95357039E+03</pdfrwt>
<totfact> 0.12217363E+00</totfact>
</mgrwt>
</event>
<event>
 4    1  0.2731969E-009  0.2657933E+03  0.7818608E-02  0.1103712E+00
          1   -1    0    0  501    0  0.00000000000E+00  0.00000000000E+00  0.22531909851E+04  0.22531909851E+04  0.50400000000E-02 0. -1.
         -1   -1    0    0    0  501 -0.00000000000E+00 -0.00000000000E+00 -0.73155724528E+02  0.73155724701E+02  0.50400000000E-02 0.  1.
    8880022    1    1    2    0    0 -0.18291687685E+03  0.11745576617E+03  0.21075535769E+03  0.33921072308E+03  0.15294330000E+03 0.  0.
    8880022    1    1    2    0    0  0.18291687685E+03 -0.11745576617E+03  0.19692799029E+04  0.19871359867E+04  0.15294330000E+03 0.  0.
<mgrwt>
<rscale>  0 0.26579333E+03</rscale>
<asrwt>0</asrwt>
<pdfrwt beam="1">  1        1 0.34664474E+00 0.26579333E+03</pdfrwt>
<pdfrwt beam="2">  1       -1 0.11254728E-01 0.26579333E+03</pdfrwt>
<totfact> 0.11742140E+02</totfact>
</mgrwt>
</event>
<event>
 4    1  0.2731969E-009  0.5009523E+03  0.7818608E-02  0.1013531E+00
         -1   -1    0    0    0  501 -0.00000000000E+00  0.00000000000E+00  0.20849812027E+03  0.20849812033E+03  0.50400000000E-02 0.  1.
          1   -1    0    0  501    0  0.00000000000E+00 -0.00000000000E+00 -0.16813127693E+04  0.16813127693E+04  0.50400000000E-02 0. -1.
    8880022    1    1    2    0    0  0.38728581601E+03 -0.27851611292E+03 -0.23274790529E+03  0.55238099974E+03  0.15294330000E+03 0.  0.
    8880022    1    1    2    0    0 -0.38728581601E+03  0.27851611292E+03 -0.12400667438E+04  0.13374298899E+04  0.15294330000E+03 0.  0.
<mgrwt>
<rscale>  0 0.50095227E+03</rscale>
<asrwt>0</asrwt>
<pdfrwt beam="1">  1        1 0.25866349E+00 0.50095227E+03</pdfrwt>
<pdfrwt beam="2">  1       -1 0.32076635E-01 0.50095227E+03</pdfrwt>
<totfact> 0.47477098E+01</totfact>
</mgrwt>
</event>
<event>
 4    1  0.2731969E-009  0.6004744E+03  0.7818608E-02  0.9904422E-01
         -1   -1    0    0    0  501 -0.00000000000E+00  0.00000000000E+00  0.79243957009E+03  0.79243957011E+03  0.50400000000E-02 0.  1.
          1   -1    0    0  501    0  0.00000000000E+00 -0.00000000000E+00 -0.14949557296E+04  0.14949557296E+04  0.50400000000E-02 0. -1.
    8880022    1    1    2    0    0 -0.44940119607E+03 -0.36771785580E+03 -0.13051561805E+04  0.14366635532E+04  0.15294330000E+03 0. -1.
    8880022    1    1    2    0    0  0.44940119607E+03  0.36771785580E+03  0.60264002105E+03  0.85073174649E+03  0.15294330000E+03 0.  0.
<mgrwt>
<rscale>  0 0.60047440E+03</rscale>
<asrwt>0</asrwt>
<pdfrwt beam="1">  1        1 0.22999319E+00 0.60047440E+03</pdfrwt>
<pdfrwt beam="2">  1       -1 0.12191378E+00 0.60047440E+03</pdfrwt>
<totfact> 0.42144471E+00</totfact>
</mgrwt>
</event>
<event>
 4    1  0.2731969E-009  0.1005045E+04  0.7818608E-02  0.9303028E-01
          1   -1    0    0  501    0  0.00000000000E+00  0.00000000000E+00  0.17655515957E+04  0.17655515957E+04  0.50400000000E-02 0. -1.
         -1   -1    0    0    0  501 -0.00000000000E+00 -0.00000000000E+00 -0.87044531658E+03  0.87044531660E+03  0.50400000000E-02 0.  1.
    8880022    1    1    2    0    0 -0.16563122132E+02 -0.99320202968E+03 -0.32403500840E+03  0.10559900324E+04  0.15294330000E+03 0.  0.
    8880022    1    1    2    0    0  0.16563122132E+02  0.99320202968E+03  0.12191412876E+04  0.15800068800E+04  0.15294330000E+03 0.  0.
<mgrwt>
<rscale>  0 0.10050454E+04</rscale>
<asrwt>0</asrwt>
<pdfrwt beam="1">  1        1 0.27162332E+00 0.10050454E+04</pdfrwt>
<pdfrwt beam="2">  1       -1 0.13391466E+00 0.10050454E+04</pdfrwt>
<totfact> 0.20370229E+00</totfact>
</mgrwt>
</event>
<event>
 4    1  0.2731969E-009  0.1612940E+04  0.7818608E-02  0.8812638E-01
          1   -1    0    0  501    0  0.00000000000E+00  0.00000000000E+00  0.43622827547E+04  0.43622827548E+04  0.50400000000E-02 0. -1.
         -1   -1    0    0    0  501 -0.00000000000E+00 -0.00000000000E+00 -0.10116461840E+04  0.10116461840E+04  0.50400000000E-02 0.  1.
    8880022    1    1    2    0    0 -0.13660826206E+04  0.84380179187E+03 -0.46198590487E+02  0.16136012993E+04  0.15294330000E+03 0.  0.
    8880022    1    1    2    0    0  0.13660826206E+04 -0.84380179187E+03  0.33968351612E+04  0.37603276394E+04  0.15294330000E+03 0.  0.
<mgrwt>
<rscale>  0 0.16129398E+04</rscale>
<asrwt>0</asrwt>
<pdfrwt beam="1">  1        1 0.67112042E+00 0.16129398E+04</pdfrwt>
<pdfrwt beam="2">  1       -1 0.15563788E+00 0.16129398E+04</pdfrwt>
<totfact> 0.13293773E-02</totfact>
</mgrwt>
</event>
<event>
 4    1  0.2731969E-009  0.1346741E+04  0.7818608E-02  0.8993299E-01
         -1   -1    0    0    0  501 -0.00000000000E+00  0.00000000000E+00  0.11909538125E+04  0.11909538125E+04  0.50400000000E-02 0.  1.
          1   -1    0    0  501    0  0.00000000000E+00 -0.00000000000E+00 -0.27415133366E+04  0.27415133366E+04  0.50400000000E-02 0. -1.
    8880022    1    1    2    0    0 -0.59931864646E+03  0.11963017424E+04  0.53562630744E+03  0.14493474025E+04  0.15294330000E+03 0.  0.
    8880022    1    1    2    0    0  0.59931864646E+03 -0.11963017424E+04 -0.20861858315E+04  0.24831197465E+04  0.15294330000E+03 0.  0.
<mgrwt>
<rscale>  0 0.13467414E+04</rscale>
<asrwt>0</asrwt>
<pdfrwt beam="1">  1        1 0.42177128E+00 0.13467414E+04</pdfrwt>
<pdfrwt beam="2">  1       -1 0.18322366E+00 0.13467414E+04</pdfrwt>
<totfact> 0.17502053E-01</totfact>
</mgrwt>
</event>
<event>
 4    1  0.2731969E-009  0.9885166E+03  0.7818608E-02  0.9321230E-01
          1   -1    0    0  501    0  0.00000000000E+00  0.00000000000E+00  0.10355188543E+04  0.10355188543E+04  0.50400000000E-02 0. -1.
         -1   -1    0    0    0  501 -0.00000000000E+00 -0.00000000000E+00 -0.17007731940E+04  0.17007731940E+04  0.50400000000E-02 0.  1.
    8880022    1    1    2    0    0 -0.41354644576E+03 -0.88473311605E+03  0.58020971829E+03  0.11462147790E+04  0.15294330000E+03 0.  0.
    8880022    1    1    2    0    0  0.41354644576E+03  0.88473311605E+03 -0.12454640580E+04  0.15900772693E+04  0.15294330000E+03 0.  0.
<mgrwt>
<rscale>  0 0.98851657E+03</rscale>
<asrwt>0</asrwt>
<pdfrwt beam="1">  1        1 0.15931059E+00 0.98851657E+03</pdfrwt>
<pdfrwt beam="2">  1       -1 0.26165742E+00 0.98851657E+03</pdfrwt>
<totfact> 0.84051921E-01</totfact>
</mgrwt>
</event>
<event>
 4    1  0.2731969E-009  0.1636788E+03  0.7818608E-02  0.1184605E+00
         -1   -1    0    0    0  501 -0.00000000000E+00  0.00000000000E+00  0.27575440557E+03  0.27575440562E+03  0.50400000000E-02 0.  1.
          1   -1    0    0  501    0  0.00000000000E+00 -0.00000000000E+00 -0.25645395815E+03  0.25645395820E+03  0.50400000000E-02 0. -1.
    8880022    1    1    2    0    0  0.42146538240E+02 -0.40283590267E+02 -0.20007675201E+03  0.25849846816E+03  0.15294330000E+03 0.  0.
    8880022    1    1    2    0    0 -0.42146538240E+02  0.40283590267E+02  0.21937719944E+03  0.27370989566E+03  0.15294330000E+03 0.  1.
<mgrwt>
<rscale>  0 0.16367881E+03</rscale>
<asrwt>0</asrwt>
<pdfrwt beam="1">  1        1 0.39454455E-01 0.16367881E+03</pdfrwt>
<pdfrwt beam="2">  1       -1 0.42423754E-01 0.16367881E+03</pdfrwt>
<totfact> 0.59617029E+02</totfact>
</mgrwt>
</event>
<event>
 4    1  0.2731969E-009  0.1051993E+04  0.7818608E-02  0.9253289E-01
         -1   -1    0    0    0  501 -0.00000000000E+00  0.00000000000E+00  0.13843695406E+04  0.13843695406E+04  0.50400000000E-02 0.  1.
          1   -1    0    0  501    0  0.00000000000E+00 -0.00000000000E+00 -0.13676848568E+04  0.13676848568E+04  0.50400000000E-02 0. -1.
    8880022    1    1    2    0    0  0.29384409399E+03  0.99847525366E+03 -0.87863078981E+03  0.13706498100E+04  0.15294330000E+03 0.  0.
    8880022    1    1    2    0    0 -0.29384409399E+03 -0.99847525366E+03  0.89531547367E+03  0.13814045874E+04  0.15294330000E+03 0.  0.
<mgrwt>
<rscale>  0 0.10519928E+04</rscale>
<asrwt>0</asrwt>
<pdfrwt beam="1">  1        1 0.21041305E+00 0.10519928E+04</pdfrwt>
<pdfrwt beam="2">  1       -1 0.21297993E+00 0.10519928E+04</pdfrwt>
<totfact> 0.99284336E-01</totfact>
</mgrwt>
</event>
<event>
 4    1  0.2731969E-009  0.2546695E+03  0.7818608E-02  0.1110389E+00
         -1   -1    0    0    0  501 -0.00000000000E+00  0.00000000000E+00  0.57827140586E+03  0.57827140588E+03  0.50400000000E-02 0.  1.
          1   -1    0    0  501    0  0.00000000000E+00 -0.00000000000E+00 -0.63816047249E+03  0.63816047251E+03  0.50400000000E-02 0. -1.
    8880022    1    1    2    0    0 -0.19842723492E+03 -0.45733132018E+02  0.52224429242E+03  0.58102981068E+03  0.15294330000E+03 0.  1.
    8880022    1    1    2    0    0  0.19842723492E+03  0.45733132018E+02 -0.58213335905E+03  0.63540206772E+03  0.15294330000E+03 0.  0.
<mgrwt>
<rscale>  0 0.25466947E+03</rscale>
<asrwt>0</asrwt>
<pdfrwt beam="1">  1        1 0.98178534E-01 0.25466947E+03</pdfrwt>
<pdfrwt beam="2">  1       -1 0.88964832E-01 0.25466947E+03</pdfrwt>
<totfact> 0.42837471E+01</totfact>
</mgrwt>
</event>
<event>
 4    1  0.2731969E-009  0.1535418E+03  0.7818608E-02  0.1196187E+00
         -1   -1    0    0    0  501 -0.00000000000E+00  0.00000000000E+00  0.10487668204E+03  0.10487668216E+03  0.50400000000E-02 0.  1.
          1   -1    0    0  501    0  0.00000000000E+00 -0.00000000000E+00 -0.14298859289E+04  0.14298859289E+04  0.50400000000E-02 0. -1.
    8880022    1    1    2    0    0 -0.89380298862E+00  0.13513593410E+02 -0.13669893855E+04  0.13755853478E+04  0.15294330000E+03 0. -1.
    8880022    1    1    2    0    0  0.89380298862E+00 -0.13513593410E+02  0.41980138607E+02  0.15917726327E+03  0.15294330000E+03 0.  0.
<mgrwt>
<rscale>  0 0.15354175E+03</rscale>
<asrwt>0</asrwt>
<pdfrwt beam="1">  1        1 0.21998244E+00 0.15354175E+03</pdfrwt>
<pdfrwt beam="2">  1       -1 0.16134875E-01 0.15354175E+03</pdfrwt>
<totfact> 0.23575707E+02</totfact>
</mgrwt>
</event>
<event>
 4    1  0.2731969E-009  0.5329970E+03  0.7818608E-02  0.1005508E+00
          1   -1    0    0  501    0  0.00000000000E+00  0.00000000000E+00  0.13184618663E+04  0.13184618664E+04  0.50400000000E-02 0. -1.
         -1   -1    0    0    0  501 -0.00000000000E+00 -0.00000000000E+00 -0.84461218066E+03  0.84461218067E+03  0.50400000000E-02 0.  1.
    8880022    1    1    2    0    0  0.40346871440E+03 -0.31290123137E+03  0.11703681470E+04  0.12860199985E+04  0.15294330000E+03 0. -1.
    8880022    1    1    2    0    0 -0.40346871440E+03  0.31290123137E+03 -0.69651846129E+03  0.87705404852E+03  0.15294330000E+03 0.  0.
<mgrwt>
<rscale>  0 0.53299703E+03</rscale>
<asrwt>0</asrwt>
<pdfrwt beam="1">  1        1 0.20284029E+00 0.53299703E+03</pdfrwt>
<pdfrwt beam="2">  1       -1 0.12994034E+00 0.53299703E+03</pdfrwt>
<totfact> 0.48354512E+00</totfact>
</mgrwt>
</event>
<event>
 4    1  0.2731969E-009  0.5859707E+03  0.7818608E-02  0.9934947E-01
         -1   -1    0    0    0  501 -0.00000000000E+00  0.00000000000E+00  0.39396218342E+03  0.39396218345E+03  0.50400000000E-02 0.  1.
          1   -1    0    0  501    0  0.00000000000E+00 -0.00000000000E+00 -0.19370294111E+04  0.19370294111E+04  0.50400000000E-02 0. -1.
    8880022    1    1    2    0    0 -0.14233537748E+03 -0.54745838934E+03  0.92863059643E+02  0.59328344710E+03  0.15294330000E+03 0.  0.
    8880022    1    1    2    0    0  0.14233537748E+03  0.54745838934E+03 -0.16359302873E+04  0.17377081475E+04  0.15294330000E+03 0.  0.
<mgrwt>
<rscale>  0 0.58597073E+03</rscale>
<asrwt>0</asrwt>
<pdfrwt beam="1">  1        1 0.29800452E+00 0.58597073E+03</pdfrwt>
<pdfrwt beam="2">  1       -1 0.60609568E-01 0.58597073E+03</pdfrwt>
<totfact> 0.97711940E+00</totfact>
</mgrwt>
</event>
<event>
 4    1  0.2731969E-009  0.7716371E+03  0.7818608E-02  0.9602004E-01
          1   -1    0    0  501    0  0.00000000000E+00  0.00000000000E+00  0.13516980205E+04  0.13516980205E+04  0.50400000000E-02 0. -1.
         -1   -1    0    0    0  501 -0.00000000000E+00 -0.00000000000E+00 -0.74840817027E+03  0.74840817029E+03  0.50400000000E-02 0.  1.
    8880022    1    1    2    0    0 -0.39067937489E+03 -0.64761238483E+03 -0.37187765866E+03  0.85657271786E+03  0.15294330000E+03 0.  0.
    8880022    1    1    2    0    0  0.39067937489E+03  0.64761238483E+03  0.97516750892E+03  0.12435334730E+04  0.15294330000E+03 0.  0.
<mgrwt>
<rscale>  0 0.77163711E+03</rscale>
<asrwt>0</asrwt>
<pdfrwt beam="1">  1        1 0.20795354E+00 0.77163711E+03</pdfrwt>
<pdfrwt beam="2">  1       -1 0.11513972E+00 0.77163711E+03</pdfrwt>
<totfact> 0.58901313E+00</totfact>
</mgrwt>
</event>
<event>
 4    1  0.2731969E-009  0.6833778E+03  0.7818608E-02  0.9746088E-01
          1   -1    0    0  501    0  0.00000000000E+00  0.00000000000E+00  0.75090151418E+03  0.75090151419E+03  0.50400000000E-02 0. -1.
         -1   -1    0    0    0  501 -0.00000000000E+00 -0.00000000000E+00 -0.16421269427E+04  0.16421269427E+04  0.50400000000E-02 0.  1.
    8880022    1    1    2    0    0 -0.66521950811E+03  0.33114308504E+02 -0.13887118699E+04  0.15477486430E+04  0.15294330000E+03 0.  0.
    8880022    1    1    2    0    0  0.66521950811E+03 -0.33114308504E+02  0.49748644136E+03  0.84527981388E+03  0.15294330000E+03 0.  0.
<mgrwt>
<rscale>  0 0.68337779E+03</rscale>
<asrwt>0</asrwt>
<pdfrwt beam="1">  1        1 0.11552331E+00 0.68337779E+03</pdfrwt>
<pdfrwt beam="2">  1       -1 0.25263491E+00 0.68337779E+03</pdfrwt>
<totfact> 0.17376651E+00</totfact>
</mgrwt>
</event>
<event>
 4    1  0.2731969E-009  0.1970023E+03  0.7818608E-02  0.1152293E+00
          1   -1    0    0  501    0  0.00000000000E+00  0.00000000000E+00  0.19341589155E+04  0.19341589155E+04  0.50400000000E-02 0. -1.
         -1   -1    0    0    0  501 -0.00000000000E+00 -0.00000000000E+00 -0.10089197575E+03  0.10089197587E+03  0.50400000000E-02 0.  1.
    8880022    1    1    2    0    0 -0.87071418695E+01 -0.12386462702E+03  0.18273720216E+04  0.18379603963E+04  0.15294330000E+03 0.  0.
    8880022    1    1    2    0    0  0.87071418695E+01  0.12386462702E+03  0.58949181084E+01  0.19709049500E+03  0.15294330000E+03 0.  1.
<mgrwt>
<rscale>  0 0.19700232E+03</rscale>
<asrwt>0</asrwt>
<pdfrwt beam="1">  1        1 0.29756292E+00 0.19700232E+03</pdfrwt>
<pdfrwt beam="2">  1       -1 0.15521842E-01 0.19700232E+03</pdfrwt>
<totfact> 0.11657132E+02</totfact>
</mgrwt>
</event>
<event>
 4    1  0.2731969E-009  0.2786965E+03  0.7818608E-02  0.1096403E+00
          1   -1    0    0  501    0  0.00000000000E+00  0.00000000000E+00  0.64151328118E+03  0.64151328120E+03  0.50400000000E-02 0. -1.
         -1   -1    0    0    0  501 -0.00000000000E+00 -0.00000000000E+00 -0.46861991231E+03  0.46861991234E+03  0.50400000000E-02 0.  1.
    8880022    1    1    2    0    0 -0.13946586773E+01  0.23297672050E+03  0.56445964852E+03  0.62951286340E+03  0.15294330000E+03 0.  0.
    8880022    1    1    2    0    0  0.13946586773E+01 -0.23297672050E+03 -0.39156627966E+03  0.48062033014E+03  0.15294330000E+03 0.  0.
<mgrwt>
<rscale>  0 0.27869652E+03</rscale>
<asrwt>0</asrwt>
<pdfrwt beam="1">  1        1 0.98694351E-01 0.27869652E+03</pdfrwt>
<pdfrwt beam="2">  1       -1 0.72095371E-01 0.27869652E+03</pdfrwt>
<totfact> 0.65458718E+01</totfact>
</mgrwt>
</event>
<event>
 4    1  0.2731969E-009  0.7269932E+03  0.7818608E-02  0.9672152E-01
          1   -1    0    0  501    0  0.00000000000E+00  0.00000000000E+00  0.19069843150E+04  0.19069843150E+04  0.50400000000E-02 0. -1.
         -1   -1    0    0    0  501 -0.00000000000E+00 -0.00000000000E+00 -0.16748188466E+04  0.16748188466E+04  0.50400000000E-02 0.  1.
    8880022    1    1    2    0    0 -0.70991498451E+03  0.33885413888E+02 -0.15199427653E+04  0.16848576110E+04  0.15294330000E+03 0.  0.
    8880022    1    1    2    0    0  0.70991498451E+03 -0.33885413888E+02  0.17521082337E+04  0.18969455507E+04  0.15294330000E+03 0.  0.
<mgrwt>
<rscale>  0 0.72699323E+03</rscale>
<asrwt>0</asrwt>
<pdfrwt beam="1">  1        1 0.29338220E+00 0.72699323E+03</pdfrwt>
<pdfrwt beam="2">  1       -1 0.25766444E+00 0.72699323E+03</pdfrwt>
<totfact> 0.23111097E-01</totfact>
</mgrwt>
</event>
<event>
 4    1  0.2731969E-009  0.9248701E+03  0.7818608E-02  0.9395016E-01
          1   -1    0    0  501    0  0.00000000000E+00  0.00000000000E+00  0.11092000439E+04  0.11092000439E+04  0.50400000000E-02 0. -1.
         -1   -1    0    0    0  501 -0.00000000000E+00 -0.00000000000E+00 -0.15578221994E+04  0.15578221994E+04  0.50400000000E-02 0.  1.
    8880022    1    1    2    0    0  0.31531012788E+03  0.85590452529E+03  0.72329613947E+03  0.11741132788E+04  0.15294330000E+03 0. -1.
    8880022    1    1    2    0    0 -0.31531012788E+03 -0.85590452529E+03 -0.11719182949E+04  0.14929089645E+04  0.15294330000E+03 0.  0.
<mgrwt>
<rscale>  0 0.92487009E+03</rscale>
<asrwt>0</asrwt>
<pdfrwt beam="1">  1        1 0.17064616E+00 0.92487009E+03</pdfrwt>
<pdfrwt beam="2">  1       -1 0.23966495E+00 0.92487009E+03</pdfrwt>
<totfact> 0.10363934E+00</totfact>
</mgrwt>
</event>
<event>
 4    1  0.2731969E-009  0.2517766E+03  0.7818608E-02  0.1112187E+00
          1   -1    0    0  501    0  0.00000000000E+00  0.00000000000E+00  0.15149815773E+04  0.15149815773E+04  0.50400000000E-02 0. -1.
         -1   -1    0    0    0  501 -0.00000000000E+00 -0.00000000000E+00 -0.55735853034E+02  0.55735853262E+02  0.50400000000E-02 0.  1.
    8880022    1    1    2    0    0  0.20215912667E+02 -0.19897519815E+03  0.33752405616E+03  0.42108663491E+03  0.15294330000E+03 0.  1.
    8880022    1    1    2    0    0 -0.20215912667E+02  0.19897519815E+03  0.11217216681E+04  0.11496307956E+04  0.15294330000E+03 0.  0.
<mgrwt>
<rscale>  0 0.25177662E+03</rscale>
<asrwt>0</asrwt>
<pdfrwt beam="1">  1        1 0.23307403E+00 0.25177662E+03</pdfrwt>
<pdfrwt beam="2">  1       -1 0.85747489E-02 0.25177662E+03</pdfrwt>
<totfact> 0.54342022E+02</totfact>
</mgrwt>
</event>
<event>
 4    1  0.2731969E-009  0.1488111E+04  0.7818608E-02  0.8892397E-01
          1   -1    0    0  501    0  0.00000000000E+00  0.00000000000E+00  0.81994227697E+03  0.81994227698E+03  0.50400000000E-02 0. -1.
         -1   -1    0    0    0  501 -0.00000000000E+00 -0.00000000000E+00 -0.35707769183E+04  0.35707769183E+04  0.50400000000E-02 0.  1.
    8880022    1    1    2    0    0 -0.13068455083E+04  0.69515385303E+03 -0.24590587404E+04  0.28742730566E+04  0.15294330000E+03 0.  0.
    8880022    1    1    2    0    0  0.13068455083E+04 -0.69515385303E+03 -0.29177590086E+03  0.15164461386E+04  0.15294330000E+03 0.  0.
<mgrwt>
<rscale>  0 0.14881115E+04</rscale>
<asrwt>0</asrwt>
<pdfrwt beam="1">  1        1 0.12614497E+00 0.14881115E+04</pdfrwt>
<pdfrwt beam="2">  1       -1 0.54935029E+00 0.14881115E+04</pdfrwt>
<totfact> 0.15053860E-02</totfact>
</mgrwt>
</event>
<event>
 4    1  0.2731969E-009  0.1210856E+04  0.7818608E-02  0.9103407E-01
         -1   -1    0    0    0  501 -0.00000000000E+00  0.00000000000E+00  0.13784131303E+04  0.13784131303E+04  0.50400000000E-02 0.  1.
          1   -1    0    0  501    0  0.00000000000E+00 -0.00000000000E+00 -0.24044365286E+04  0.24044365286E+04  0.50400000000E-02 0. -1.
    8880022    1    1    2    0    0 -0.11925864209E+04 -0.14324112900E+03  0.89939429912E+03  0.15083375453E+04  0.15294330000E+03 0.  0.
    8880022    1    1    2    0    0  0.11925864209E+04  0.14324112900E+03 -0.19254176974E+04  0.22745121136E+04  0.15294330000E+03 0.  0.
<mgrwt>
<rscale>  0 0.12108559E+04</rscale>
<asrwt>0</asrwt>
<pdfrwt beam="1">  1        1 0.36991331E+00 0.12108559E+04</pdfrwt>
<pdfrwt beam="2">  1       -1 0.21206356E+00 0.12108559E+04</pdfrwt>
<totfact> 0.19306453E-01</totfact>
</mgrwt>
</event>
<event>
 4    1  0.2731969E-009  0.8271242E+03  0.7818608E-02  0.9521565E-01
         -1   -1    0    0    0  501 -0.00000000000E+00  0.00000000000E+00  0.72912252143E+03  0.72912252144E+03  0.50400000000E-02 0.  1.
          1   -1    0    0  501    0  0.00000000000E+00 -0.00000000000E+00 -0.22821250072E+04  0.22821250072E+04  0.50400000000E-02 0. -1.
    8880022    1    1    2    0    0 -0.77068825008E+03 -0.25842279406E+03  0.37886158606E+03  0.90976396593E+03  0.15294330000E+03 0.  0.
    8880022    1    1    2    0    0  0.77068825008E+03  0.25842279406E+03 -0.19318640718E+04  0.21014835627E+04  0.15294330000E+03 0.  0.
<mgrwt>
<rscale>  0 0.82712416E+03</rscale>
<asrwt>0</asrwt>
<pdfrwt beam="1">  1        1 0.35109615E+00 0.82712416E+03</pdfrwt>
<pdfrwt beam="2">  1       -1 0.11217270E+00 0.82712416E+03</pdfrwt>
<totfact> 0.14577508E+00</totfact>
</mgrwt>
</event>
<event>
 4    1  0.2731969E-009  0.5166683E+03  0.7818608E-02  0.1009518E+00
          1   -1    0    0  501    0  0.00000000000E+00  0.00000000000E+00  0.22446610578E+04  0.22446610578E+04  0.50400000000E-02 0. -1.
         -1   -1    0    0    0  501 -0.00000000000E+00 -0.00000000000E+00 -0.11329151524E+04  0.11329151525E+04  0.50400000000E-02 0.  1.
    8880022    1    1    2    0    0  0.19456007284E+03 -0.45354259943E+03 -0.10418201187E+04  0.11628995331E+04  0.15294330000E+03 0.  0.
    8880022    1    1    2    0    0 -0.19456007284E+03  0.45354259943E+03  0.21535660240E+04  0.22146766771E+04  0.15294330000E+03 0.  0.
<mgrwt>
<rscale>  0 0.51666833E+03</rscale>
<asrwt>0</asrwt>
<pdfrwt beam="1">  1        1 0.34533246E+00 0.51666833E+03</pdfrwt>
<pdfrwt beam="2">  1       -1 0.17429464E+00 0.51666833E+03</pdfrwt>
<totfact> 0.53054937E-01</totfact>
</mgrwt>
</event>
<event>
 4    1  0.2731969E-009  0.6872121E+03  0.7818608E-02  0.9739355E-01
          1   -1    0    0  501    0  0.00000000000E+00  0.00000000000E+00  0.42385702373E+04  0.42385702373E+04  0.50400000000E-02 0. -1.
         -1   -1    0    0    0  501 -0.00000000000E+00 -0.00000000000E+00 -0.45871946113E+03  0.45871946116E+03  0.50400000000E-02 0.  1.
    8880022    1    1    2    0    0 -0.66874990444E+03 -0.40526934007E+02 -0.15367494962E+03  0.70418499716E+03  0.15294330000E+03 0.  1.
    8880022    1    1    2    0    0  0.66874990444E+03  0.40526934007E+02  0.39335257258E+04  0.39931047013E+04  0.15294330000E+03 0.  0.
<mgrwt>
<rscale>  0 0.68721214E+03</rscale>
<asrwt>0</asrwt>
<pdfrwt beam="1">  1        1 0.65208771E+00 0.68721214E+03</pdfrwt>
<pdfrwt beam="2">  1       -1 0.70572227E-01 0.68721214E+03</pdfrwt>
<totfact> 0.13581028E-01</totfact>
</mgrwt>
</event>
<event>
 4    1  0.2731969E-009  0.4692746E+03  0.7818608E-02  0.1022125E+00
         -1   -1    0    0    0  501 -0.00000000000E+00  0.00000000000E+00  0.56317179085E+03  0.56317179087E+03  0.50400000000E-02 0.  1.
          1   -1    0    0  501    0  0.00000000000E+00 -0.00000000000E+00 -0.63695610821E+03  0.63695610823E+03  0.50400000000E-02 0. -1.
    8880022    1    1    2    0    0 -0.11539013821E+03  0.42838311371E+03 -0.40974945803E+03  0.62298735740E+03  0.15294330000E+03 0.  0.
    8880022    1    1    2    0    0  0.11539013821E+03 -0.42838311371E+03  0.33596514067E+03  0.57714054170E+03  0.15294330000E+03 0.  0.
<mgrwt>
<rscale>  0 0.46927458E+03</rscale>
<asrwt>0</asrwt>
<pdfrwt beam="1">  1        1 0.97993247E-01 0.46927458E+03</pdfrwt>
<pdfrwt beam="2">  1       -1 0.86641814E-01 0.46927458E+03</pdfrwt>
<totfact> 0.43551379E+01</totfact>
</mgrwt>
</event>
<event>
 4    1  0.2731969E-009  0.1164442E+04  0.7818608E-02  0.9144562E-01
         -1   -1    0    0    0  501 -0.00000000000E+00  0.00000000000E+00  0.17040069233E+04  0.17040069234E+04  0.50400000000E-02 0.  1.
          1   -1    0    0  501    0  0.00000000000E+00 -0.00000000000E+00 -0.20948155835E+04  0.20948155835E+04  0.50400000000E-02 0. -1.
    8880022    1    1    2    0    0  0.10355575074E+04 -0.51005375987E+03  0.13003674736E+04  0.17455318412E+04  0.15294330000E+03 0.  0.
    8880022    1    1    2    0    0 -0.10355575074E+04  0.51005375987E+03 -0.16911761338E+04  0.20532906657E+04  0.15294330000E+03 0.  0.
<mgrwt>
<rscale>  0 0.11644423E+04</rscale>
<asrwt>0</asrwt>
<pdfrwt beam="1">  1        1 0.32227932E+00 0.11644423E+04</pdfrwt>
<pdfrwt beam="2">  1       -1 0.26215491E+00 0.11644423E+04</pdfrwt>
<totfact> 0.14774167E-01</totfact>
</mgrwt>
</event>
<event>
 4    1  0.2731969E-009  0.4058627E+03  0.7818608E-02  0.1041768E+00
          1   -1    0    0  501    0  0.00000000000E+00  0.00000000000E+00  0.11023872807E+04  0.11023872807E+04  0.50400000000E-02 0. -1.
         -1   -1    0    0    0  501 -0.00000000000E+00 -0.00000000000E+00 -0.22567390792E+03  0.22567390798E+03  0.50400000000E-02 0.  1.
    8880022    1    1    2    0    0 -0.34830710690E+03 -0.14147438124E+03  0.82433554594E+03  0.91883273047E+03  0.15294330000E+03 0.  0.
    8880022    1    1    2    0    0  0.34830710690E+03  0.14147438124E+03  0.52377826852E+02  0.40922845824E+03  0.15294330000E+03 0.  0.
<mgrwt>
<rscale>  0 0.40586265E+03</rscale>
<asrwt>0</asrwt>
<pdfrwt beam="1">  1        1 0.16959804E+00 0.40586265E+03</pdfrwt>
<pdfrwt beam="2">  1       -1 0.34719063E-01 0.40586265E+03</pdfrwt>
<totfact> 0.10526752E+02</totfact>
</mgrwt>
</event>
<event>
 4    1  0.2731969E-009  0.2306806E+03  0.7818608E-02  0.1126162E+00
         -1   -1    0    0    0  501 -0.00000000000E+00  0.00000000000E+00  0.71780068458E+03  0.71780068460E+03  0.50400000000E-02 0.  1.
          1   -1    0    0  501    0  0.00000000000E+00 -0.00000000000E+00 -0.22773711471E+03  0.22773711476E+03  0.50400000000E-02 0. -1.
    8880022    1    1    2    0    0  0.13587098527E+03  0.10658787522E+03 -0.14323637134E+03  0.27153307510E+03  0.15294330000E+03 0. -1.
    8880022    1    1    2    0    0 -0.13587098527E+03 -0.10658787522E+03  0.63329994121E+03  0.67400472427E+03  0.15294330000E+03 0.  1.
<mgrwt>
<rscale>  0 0.23068063E+03</rscale>
<asrwt>0</asrwt>
<pdfrwt beam="1">  1        1 0.35036479E-01 0.23068063E+03</pdfrwt>
<pdfrwt beam="2">  1       -1 0.11043088E+00 0.23068063E+03</pdfrwt>
<totfact> 0.10148507E+02</totfact>
</mgrwt>
</event>
<event>
 4    1  0.2731969E-009  0.7779731E+03  0.7818608E-02  0.9592459E-01
          1   -1    0    0  501    0  0.00000000000E+00  0.00000000000E+00  0.19188619415E+04  0.19188619415E+04  0.50400000000E-02 0. -1.
         -1   -1    0    0    0  501 -0.00000000000E+00 -0.00000000000E+00 -0.61833298479E+03  0.61833298482E+03  0.50400000000E-02 0.  1.
    8880022    1    1    2    0    0 -0.41047906208E+03  0.64292876831E+03  0.15381839167E+04  0.17237319618E+04  0.15294330000E+03 0.  0.
    8880022    1    1    2    0    0  0.41047906208E+03 -0.64292876831E+03 -0.23765496004E+03  0.81346296448E+03  0.15294330000E+03 0.  0.
<mgrwt>
<rscale>  0 0.77797308E+03</rscale>
<asrwt>0</asrwt>
<pdfrwt beam="1">  1        1 0.29520953E+00 0.77797308E+03</pdfrwt>
<pdfrwt beam="2">  1       -1 0.95128152E-01 0.77797308E+03</pdfrwt>
<totfact> 0.37728212E+00</totfact>
</mgrwt>
</event>
<event>
 4    1  0.2731969E-009  0.1038356E+04  0.7818608E-02  0.9267449E-01
          1   -1    0    0  501    0  0.00000000000E+00  0.00000000000E+00  0.24126371972E+04  0.24126371972E+04  0.50400000000E-02 0. -1.
         -1   -1    0    0    0  501 -0.00000000000E+00 -0.00000000000E+00 -0.16838246418E+04  0.16838246418E+04  0.50400000000E-02 0.  1.
    8880022    1    1    2    0    0  0.17662223346E+03 -0.10117294874E+04  0.21199184708E+04  0.23605588205E+04  0.15294330000E+03 0.  0.
    8880022    1    1    2    0    0 -0.17662223346E+03  0.10117294874E+04 -0.13911059153E+04  0.17359030185E+04  0.15294330000E+03 0.  0.
<mgrwt>
<rscale>  0 0.10383562E+04</rscale>
<asrwt>0</asrwt>
<pdfrwt beam="1">  1        1 0.37117495E+00 0.10383562E+04</pdfrwt>
<pdfrwt beam="2">  1       -1 0.25904994E+00 0.10383562E+04</pdfrwt>
<totfact> 0.96268145E-02</totfact>
</mgrwt>
</event>
<event>
 4    1  0.2731969E-009  0.7626889E+03  0.7818608E-02  0.9615651E-01
         -1   -1    0    0    0  501 -0.00000000000E+00  0.00000000000E+00  0.26494875653E+04  0.26494875653E+04  0.50400000000E-02 0.  1.
          1   -1    0    0  501    0  0.00000000000E+00 -0.00000000000E+00 -0.44415328392E+03  0.44415328395E+03  0.50400000000E-02 0. -1.
    8880022    1    1    2    0    0 -0.71248989750E+03 -0.22507979894E+03  0.22026393652E+04  0.23309471457E+04  0.15294330000E+03 0.  0.
    8880022    1    1    2    0    0  0.71248989750E+03  0.22507979894E+03  0.26949162382E+01  0.76269370361E+03  0.15294330000E+03 0.  0.
<mgrwt>
<rscale>  0 0.76268894E+03</rscale>
<asrwt>0</asrwt>
<pdfrwt beam="1">  1        1 0.68331274E-01 0.76268894E+03</pdfrwt>
<pdfrwt beam="2">  1       -1 0.40761347E+00 0.76268894E+03</pdfrwt>
<totfact> 0.35399025E-01</totfact>
</mgrwt>
</event>
<event>
 4    1  0.2731969E-009  0.1059820E+04  0.7818608E-02  0.9245264E-01
         -1   -1    0    0    0  501 -0.00000000000E+00  0.00000000000E+00  0.28963338942E+03  0.28963338946E+03  0.50400000000E-02 0.  1.
          1   -1    0    0  501    0  0.00000000000E+00 -0.00000000000E+00 -0.45851513143E+04  0.45851513143E+04  0.50400000000E-02 0. -1.
    8880022    1    1    2    0    0 -0.70206081731E+03 -0.77906159017E+03 -0.11906004312E+04  0.15939722056E+04  0.15294330000E+03 0.  0.
    8880022    1    1    2    0    0  0.70206081731E+03  0.77906159017E+03 -0.31049174936E+04  0.32808124981E+04  0.15294330000E+03 0.  0.
<mgrwt>
<rscale>  0 0.10598198E+04</rscale>
<asrwt>0</asrwt>
<pdfrwt beam="1">  1        1 0.70540784E+00 0.10598198E+04</pdfrwt>
<pdfrwt beam="2">  1       -1 0.44558986E-01 0.10598198E+04</pdfrwt>
<totfact> 0.13928144E-01</totfact>
</mgrwt>
</event>
<event>
 4    1  0.2731969E-009  0.9760378E+03  0.7818608E-02  0.9335224E-01
         -1   -1    0    0    0  501 -0.00000000000E+00  0.00000000000E+00  0.70165296457E+03  0.70165296459E+03  0.50400000000E-02 0.  1.
          1   -1    0    0  501    0  0.00000000000E+00 -0.00000000000E+00 -0.19031940811E+04  0.19031940811E+04  0.50400000000E-02 0. -1.
    8880022    1    1    2    0    0  0.80130893250E+03 -0.53587512556E+03 -0.12980339674E+04  0.16240511042E+04  0.15294330000E+03 0.  0.
    8880022    1    1    2    0    0 -0.80130893250E+03  0.53587512556E+03  0.96492850910E+02  0.98079594146E+03  0.15294330000E+03 0.  0.
<mgrwt>
<rscale>  0 0.97603781E+03</rscale>
<asrwt>0</asrwt>
<pdfrwt beam="1">  1        1 0.29279909E+00 0.97603781E+03</pdfrwt>
<pdfrwt beam="2">  1       -1 0.10794661E+00 0.97603781E+03</pdfrwt>
<totfact> 0.28027318E+00</totfact>
</mgrwt>
</event>
<event>
 4    1  0.2731969E-009  0.1009928E+04  0.7818608E-02  0.9297723E-01
         -1   -1    0    0    0  501 -0.00000000000E+00  0.00000000000E+00  0.21848719393E+04  0.21848719393E+04  0.50400000000E-02 0.  1.
          1   -1    0    0  501    0  0.00000000000E+00 -0.00000000000E+00 -0.10325331775E+04  0.10325331775E+04  0.50400000000E-02 0. -1.
    8880022    1    1    2    0    0  0.81092862523E+03 -0.58220013916E+03 -0.61457842282E+03  0.11822269359E+04  0.15294330000E+03 0.  0.
    8880022    1    1    2    0    0 -0.81092862523E+03  0.58220013916E+03  0.17669171847E+04  0.20351781809E+04  0.15294330000E+03 0.  0.
<mgrwt>
<rscale>  0 0.10099277E+04</rscale>
<asrwt>0</asrwt>
<pdfrwt beam="1">  1        1 0.15885126E+00 0.10099277E+04</pdfrwt>
<pdfrwt beam="2">  1       -1 0.33613414E+00 0.10099277E+04</pdfrwt>
<totfact> 0.27859528E-01</totfact>
</mgrwt>
</event>
<event>
 4    1  0.2731969E-009  0.7492473E+03  0.7818608E-02  0.9636532E-01
          1   -1    0    0  501    0  0.00000000000E+00  0.00000000000E+00  0.15835887375E+04  0.15835887375E+04  0.50400000000E-02 0. -1.
         -1   -1    0    0    0  501 -0.00000000000E+00 -0.00000000000E+00 -0.64465518810E+03  0.64465518812E+03  0.50400000000E-02 0.  1.
    8880022    1    1    2    0    0  0.94630414688E+02 -0.72734102742E+03  0.12169289262E+04  0.14290862640E+04  0.15294330000E+03 0.  0.
    8880022    1    1    2    0    0 -0.94630414688E+02  0.72734102742E+03 -0.27799537681E+03  0.79915766160E+03  0.15294330000E+03 0.  0.
<mgrwt>
<rscale>  0 0.74924731E+03</rscale>
<asrwt>0</asrwt>
<pdfrwt beam="1">  1        1 0.24362904E+00 0.74924731E+03</pdfrwt>
<pdfrwt beam="2">  1       -1 0.99177721E-01 0.74924731E+03</pdfrwt>
<totfact> 0.57991085E+00</totfact>
</mgrwt>
</event>
<event>
 4    1  0.2731969E-009  0.2473568E+03  0.7818608E-02  0.1114987E+00
         -1   -1    0    0    0  501 -0.00000000000E+00  0.00000000000E+00  0.63640115514E+02  0.63640115714E+02  0.50400000000E-02 0.  1.
          1   -1    0    0  501    0  0.00000000000E+00 -0.00000000000E+00 -0.28417827386E+04  0.28417827386E+04  0.50400000000E-02 0. -1.
    8880022    1    1    2    0    0 -0.11680411334E+03  0.15540441957E+03 -0.25707620017E+04  0.25826348284E+04  0.15294330000E+03 0. -1.
    8880022    1    1    2    0    0  0.11680411334E+03 -0.15540441957E+03 -0.20738062132E+03  0.32278802584E+03  0.15294330000E+03 0.  0.
<mgrwt>
<rscale>  0 0.24735680E+03</rscale>
<asrwt>0</asrwt>
<pdfrwt beam="1">  1        1 0.43719725E+00 0.24735680E+03</pdfrwt>
<pdfrwt beam="2">  1       -1 0.97907892E-02 0.24735680E+03</pdfrwt>
<totfact> 0.59339702E+01</totfact>
</mgrwt>
</event>
<event>
 4    1  0.2731969E-009  0.9393694E+03  0.7818608E-02  0.9377663E-01
          1   -1    0    0  501    0  0.00000000000E+00  0.00000000000E+00  0.75969330598E+03  0.75969330599E+03  0.50400000000E-02 0. -1.
         -1   -1    0    0    0  501 -0.00000000000E+00 -0.00000000000E+00 -0.19532918493E+04  0.19532918493E+04  0.50400000000E-02 0.  1.
    8880022    1    1    2    0    0 -0.35584679351E+03  0.85580154735E+03 -0.14604300996E+04  0.17364535576E+04  0.15294330000E+03 0.  0.
    8880022    1    1    2    0    0  0.35584679351E+03 -0.85580154735E+03  0.26683155626E+03  0.97653159771E+03  0.15294330000E+03 0.  0.
<mgrwt>
<rscale>  0 0.93936941E+03</rscale>
<asrwt>0</asrwt>
<pdfrwt beam="1">  1        1 0.11687589E+00 0.93936941E+03</pdfrwt>
<pdfrwt beam="2">  1       -1 0.30050644E+00 0.93936941E+03</pdfrwt>
<totfact> 0.80510149E-01</totfact>
</mgrwt>
</event>
<event>
 4    1  0.2731969E-009  0.3495701E+03  0.7818608E-02  0.1062792E+00
         -1   -1    0    0    0  501 -0.00000000000E+00  0.00000000000E+00  0.41951581417E+03  0.41951581420E+03  0.50400000000E-02 0.  1.
          1   -1    0    0  501    0  0.00000000000E+00 -0.00000000000E+00 -0.49321932676E+03  0.49321932678E+03  0.50400000000E-02 0. -1.
    8880022    1    1    2    0    0 -0.11005092984E+03 -0.29444247977E+03  0.25515866230E+03  0.43278768122E+03  0.15294330000E+03 0.  0.
    8880022    1    1    2    0    0  0.11005092984E+03  0.29444247977E+03 -0.32886217489E+03  0.47994745977E+03  0.15294330000E+03 0.  0.
<mgrwt>
<rscale>  0 0.34957007E+03</rscale>
<asrwt>0</asrwt>
<pdfrwt beam="1">  1        1 0.75879896E-01 0.34957007E+03</pdfrwt>
<pdfrwt beam="2">  1       -1 0.64540895E-01 0.34957007E+03</pdfrwt>
<totfact> 0.11591920E+02</totfact>
</mgrwt>
</event>
<event>
 4    1  0.2731969E-009  0.4876553E+03  0.7818608E-02  0.1017052E+00
          1   -1    0    0  501    0  0.00000000000E+00  0.00000000000E+00  0.14591195752E+04  0.14591195752E+04  0.50400000000E-02 0. -1.
         -1   -1    0    0    0  501 -0.00000000000E+00 -0.00000000000E+00 -0.56454354966E+03  0.56454354968E+03  0.50400000000E-02 0.  1.
    8880022    1    1    2    0    0  0.19316329604E+03  0.42083720201E+03  0.13006563176E+04  0.13890696596E+04  0.15294330000E+03 0.  0.
    8880022    1    1    2    0    0 -0.19316329604E+03 -0.42083720201E+03 -0.40608029212E+03  0.63459346529E+03  0.15294330000E+03 0.  0.
<mgrwt>
<rscale>  0 0.48765527E+03</rscale>
<asrwt>0</asrwt>
<pdfrwt beam="1">  1        1 0.22447993E+00 0.48765527E+03</pdfrwt>
<pdfrwt beam="2">  1       -1 0.86852856E-01 0.48765527E+03</pdfrwt>
<totfact> 0.99462479E+00</totfact>
</mgrwt>
</event>
<event>
 4    1  0.2731969E-009  0.4537329E+03  0.7818608E-02  0.1026615E+00
          1   -1    0    0  501    0  0.00000000000E+00  0.00000000000E+00  0.48140002537E+03  0.48140002540E+03  0.50400000000E-02 0. -1.
         -1   -1    0    0    0  501 -0.00000000000E+00 -0.00000000000E+00 -0.12079607669E+04  0.12079607669E+04  0.50400000000E-02 0.  1.
    8880022    1    1    2    0    0  0.30401965508E+03  0.30008991706E+03 -0.10421684106E+04  0.11366567459E+04  0.15294330000E+03 0.  0.
    8880022    1    1    2    0    0 -0.30401965508E+03 -0.30008991706E+03  0.31560766912E+03  0.55270404633E+03  0.15294330000E+03 0.  0.
<mgrwt>
<rscale>  0 0.45373292E+03</rscale>
<asrwt>0</asrwt>
<pdfrwt beam="1">  1        1 0.74061543E-01 0.45373292E+03</pdfrwt>
<pdfrwt beam="2">  1       -1 0.18584012E+00 0.45373292E+03</pdfrwt>
<totfact> 0.95575839E+00</totfact>
</mgrwt>
</event>
<event>
 4    1  0.2731969E-009  0.7784854E+03  0.7818608E-02  0.9591691E-01
          1   -1    0    0  501    0  0.00000000000E+00  0.00000000000E+00  0.13196694102E+04  0.13196694102E+04  0.50400000000E-02 0. -1.
         -1   -1    0    0    0  501 -0.00000000000E+00 -0.00000000000E+00 -0.92215921454E+03  0.92215921455E+03  0.50400000000E-02 0.  1.
    8880022    1    1    2    0    0  0.69624714978E+03  0.31287027765E+03 -0.59543412735E+03  0.98009252484E+03  0.15294330000E+03 0.  0.
    8880022    1    1    2    0    0 -0.69624714978E+03 -0.31287027765E+03  0.99294432297E+03  0.12617360999E+04  0.15294330000E+03 0.  0.
<mgrwt>
<rscale>  0 0.77848543E+03</rscale>
<asrwt>0</asrwt>
<pdfrwt beam="1">  1        1 0.20302606E+00 0.77848543E+03</pdfrwt>
<pdfrwt beam="2">  1       -1 0.14187065E+00 0.77848543E+03</pdfrwt>
<totfact> 0.36740786E+00</totfact>
</mgrwt>
</event>
<event>
 4    1  0.2731969E-009  0.1214218E+04  0.7818608E-02  0.9100502E-01
          1   -1    0    0  501    0  0.00000000000E+00  0.00000000000E+00  0.18840168358E+04  0.18840168358E+04  0.50400000000E-02 0. -1.
         -1   -1    0    0    0  501 -0.00000000000E+00 -0.00000000000E+00 -0.98130328269E+03  0.98130328271E+03  0.50400000000E-02 0.  1.
    8880022    1    1    2    0    0  0.12036710741E+04 -0.45927475913E+02  0.10961282804E+04  0.16357940726E+04  0.15294330000E+03 0.  0.
    8880022    1    1    2    0    0 -0.12036710741E+04  0.45927475913E+02 -0.19341472735E+03  0.12295260459E+04  0.15294330000E+03 0.  0.
<mgrwt>
<rscale>  0 0.12142179E+04</rscale>
<asrwt>0</asrwt>
<pdfrwt beam="1">  1        1 0.28984874E+00 0.12142179E+04</pdfrwt>
<pdfrwt beam="2">  1       -1 0.15096974E+00 0.12142179E+04</pdfrwt>
<totfact> 0.12008736E+00</totfact>
</mgrwt>
</event>
<event>
 4    1  0.2731969E-009  0.6594395E+03  0.7818608E-02  0.9789226E-01
         -1   -1    0    0    0  501 -0.00000000000E+00  0.00000000000E+00  0.11291454010E+04  0.11291454010E+04  0.50400000000E-02 0.  1.
          1   -1    0    0  501    0  0.00000000000E+00 -0.00000000000E+00 -0.55884373543E+03  0.55884373546E+03  0.50400000000E-02 0. -1.
    8880022    1    1    2    0    0 -0.64129849561E+03 -0.14319198209E+02  0.75571584832E+03  0.10029790109E+04  0.15294330000E+03 0.  0.
    8880022    1    1    2    0    0  0.64129849561E+03  0.14319198209E+02 -0.18541418276E+03  0.68501012555E+03  0.15294330000E+03 0.  0.
<mgrwt>
<rscale>  0 0.65943950E+03</rscale>
<asrwt>0</asrwt>
<pdfrwt beam="1">  1        1 0.85975960E-01 0.65943950E+03</pdfrwt>
<pdfrwt beam="2">  1       -1 0.17371468E+00 0.65943950E+03</pdfrwt>
<totfact> 0.91531351E+00</totfact>
</mgrwt>
</event>
<event>
 4    1  0.2731969E-009  0.1581571E+04  0.7818608E-02  0.8831950E-01
          1   -1    0    0  501    0  0.00000000000E+00  0.00000000000E+00  0.32910673716E+04  0.32910673716E+04  0.50400000000E-02 0. -1.
         -1   -1    0    0    0  501 -0.00000000000E+00 -0.00000000000E+00 -0.15513634024E+04  0.15513634024E+04  0.50400000000E-02 0.  1.
    8880022    1    1    2    0    0 -0.31443494785E+03  0.15424352321E+04  0.25990773952E+04  0.30424612965E+04  0.15294330000E+03 0.  0.
    8880022    1    1    2    0    0  0.31443494785E+03 -0.15424352321E+04 -0.85937342593E+03  0.17999694775E+04  0.15294330000E+03 0.  0.
<mgrwt>
<rscale>  0 0.15815712E+04</rscale>
<asrwt>0</asrwt>
<pdfrwt beam="1">  1        1 0.50631806E+00 0.15815712E+04</pdfrwt>
<pdfrwt beam="2">  1       -1 0.23867129E+00 0.15815712E+04</pdfrwt>
<totfact> 0.28116431E-02</totfact>
</mgrwt>
</event>
<event>
 4    1  0.2731969E-009  0.1303014E+04  0.7818608E-02  0.9027178E-01
         -1   -1    0    0    0  501 -0.00000000000E+00  0.00000000000E+00  0.16312777749E+04  0.16312777749E+04  0.50400000000E-02 0.  1.
          1   -1    0    0  501    0  0.00000000000E+00 -0.00000000000E+00 -0.13344456420E+04  0.13344456420E+04  0.50400000000E-02 0. -1.
    8880022    1    1    2    0    0 -0.10198304959E+04  0.79649224570E+03 -0.54717917137E+03  0.14132412520E+04  0.15294330000E+03 0.  0.
    8880022    1    1    2    0    0  0.10198304959E+04 -0.79649224570E+03  0.84401130421E+03  0.15524821649E+04  0.15294330000E+03 0.  0.
<mgrwt>
<rscale>  0 0.13030141E+04</rscale>
<asrwt>0</asrwt>
<pdfrwt beam="1">  1        1 0.20529933E+00 0.13030141E+04</pdfrwt>
<pdfrwt beam="2">  1       -1 0.25096581E+00 0.13030141E+04</pdfrwt>
<totfact> 0.56879490E-01</totfact>
</mgrwt>
</event>
<event>
 4    1  0.2731969E-009  0.9418309E+03  0.7818608E-02  0.9374750E-01
         -1   -1    0    0    0  501 -0.00000000000E+00  0.00000000000E+00  0.12386846205E+04  0.12386846205E+04  0.50400000000E-02 0.  1.
          1   -1    0    0  501    0  0.00000000000E+00 -0.00000000000E+00 -0.18004760827E+04  0.18004760827E+04  0.50400000000E-02 0. -1.
    8880022    1    1    2    0    0  0.92240001664E+03  0.11327862646E+03 -0.14601736525E+04  0.17375708867E+04  0.15294330000E+03 0.  0.
    8880022    1    1    2    0    0 -0.92240001664E+03 -0.11327862646E+03  0.89838219025E+03  0.13015898166E+04  0.15294330000E+03 0.  0.
<mgrwt>
<rscale>  0 0.94183092E+03</rscale>
<asrwt>0</asrwt>
<pdfrwt beam="1">  1        1 0.27699632E+00 0.94183092E+03</pdfrwt>
<pdfrwt beam="2">  1       -1 0.19056686E+00 0.94183092E+03</pdfrwt>
<totfact> 0.72679353E-01</totfact>
</mgrwt>
</event>
<event>
 4    1  0.2731969E-009  0.3794744E+03  0.7818608E-02  0.1051128E+00
          1   -1    0    0  501    0  0.00000000000E+00  0.00000000000E+00  0.11906999654E+04  0.11906999654E+04  0.50400000000E-02 0. -1.
         -1   -1    0    0    0  501 -0.00000000000E+00 -0.00000000000E+00 -0.70853096202E+03  0.70853096203E+03  0.50400000000E-02 0.  1.
    8880022    1    1    2    0    0 -0.15810767825E+03 -0.30921046080E+03 -0.62369756853E+03  0.73006811805E+03  0.15294330000E+03 0.  0.
    8880022    1    1    2    0    0  0.15810767825E+03  0.30921046080E+03  0.11058665719E+04  0.11691628094E+04  0.15294330000E+03 0.  0.
<mgrwt>
<rscale>  0 0.37947437E+03</rscale>
<asrwt>0</asrwt>
<pdfrwt beam="1">  1        1 0.18318461E+00 0.37947437E+03</pdfrwt>
<pdfrwt beam="2">  1       -1 0.10900476E+00 0.37947437E+03</pdfrwt>
<totfact> 0.94538554E+00</totfact>
</mgrwt>
</event>
<event>
 4    1  0.2731969E-009  0.1667225E+04  0.7818608E-02  0.8780281E-01
         -1   -1    0    0    0  501 -0.00000000000E+00  0.00000000000E+00  0.28339651849E+04  0.28339651849E+04  0.50400000000E-02 0.  1.
          1   -1    0    0  501    0  0.00000000000E+00 -0.00000000000E+00 -0.10412400821E+04  0.10412400821E+04  0.50400000000E-02 0. -1.
    8880022    1    1    2    0    0  0.15869065781E+03 -0.16525934957E+04  0.13630670660E+04  0.21535067834E+04  0.15294330000E+03 0.  0.
    8880022    1    1    2    0    0 -0.15869065781E+03  0.16525934957E+04  0.42965803678E+03  0.17216984836E+04  0.15294330000E+03 0.  0.
<mgrwt>
<rscale>  0 0.16672251E+04</rscale>
<asrwt>0</asrwt>
<pdfrwt beam="1">  1        1 0.16019078E+00 0.16672251E+04</pdfrwt>
<pdfrwt beam="2">  1       -1 0.43599464E+00 0.16672251E+04</pdfrwt>
<totfact> 0.53009664E-02</totfact>
</mgrwt>
</event>
<event>
 4    1  0.2731969E-009  0.6308074E+03  0.7818608E-02  0.9843475E-01
          1   -1    0    0  501    0  0.00000000000E+00  0.00000000000E+00  0.70351865270E+03  0.70351865272E+03  0.50400000000E-02 0. -1.
         -1   -1    0    0    0  501 -0.00000000000E+00 -0.00000000000E+00 -0.80322431727E+03  0.80322431729E+03  0.50400000000E-02 0.  1.
    8880022    1    1    2    0    0  0.45520910381E+02  0.61029022439E+03 -0.45960951451E+03  0.78048630360E+03  0.15294330000E+03 0.  0.
    8880022    1    1    2    0    0 -0.45520910381E+02 -0.61029022439E+03  0.35990384994E+03  0.72625666640E+03  0.15294330000E+03 0.  0.
<mgrwt>
<rscale>  0 0.63080739E+03</rscale>
<asrwt>0</asrwt>
<pdfrwt beam="1">  1        1 0.10823364E+00 0.63080739E+03</pdfrwt>
<pdfrwt beam="2">  1       -1 0.12357297E+00 0.63080739E+03</pdfrwt>
<totfact> 0.16254412E+01</totfact>
</mgrwt>
</event>
<event>
 4    1  0.2731969E-009  0.9433160E+03  0.7818608E-02  0.9372997E-01
         -1   -1    0    0    0  501 -0.00000000000E+00  0.00000000000E+00  0.44615903234E+03  0.44615903236E+03  0.50400000000E-02 0.  1.
          1   -1    0    0  501    0  0.00000000000E+00 -0.00000000000E+00 -0.22818102348E+04  0.22818102348E+04  0.50400000000E-02 0. -1.
    8880022    1    1    2    0    0  0.42377697065E+01  0.93082515957E+03 -0.14018615512E+04  0.16896925454E+04  0.15294330000E+03 0.  0.
    8880022    1    1    2    0    0 -0.42377697065E+01 -0.93082515957E+03 -0.43378965130E+03  0.10382767218E+04  0.15294330000E+03 0.  0.
<mgrwt>
<rscale>  0 0.94331601E+03</rscale>
<asrwt>0</asrwt>
<pdfrwt beam="1">  1        1 0.35104772E+00 0.94331601E+03</pdfrwt>
<pdfrwt beam="2">  1       -1 0.68639852E-01 0.94331601E+03</pdfrwt>
<totfact> 0.42104131E+00</totfact>
</mgrwt>
</event>
<event>
 4    1  0.2731969E-009  0.8275122E+03  0.7818608E-02  0.9521027E-01
         -1   -1    0    0    0  501 -0.00000000000E+00  0.00000000000E+00  0.12880343487E+04  0.12880343487E+04  0.50400000000E-02 0.  1.
          1   -1    0    0  501    0  0.00000000000E+00 -0.00000000000E+00 -0.20836330551E+04  0.20836330551E+04  0.50400000000E-02 0. -1.
    8880022    1    1    2    0    0 -0.33882803144E+03 -0.73931068203E+03  0.10571516559E+04  0.13425148029E+04  0.15294330000E+03 0.  0.
    8880022    1    1    2    0    0  0.33882803144E+03  0.73931068203E+03 -0.18527503623E+04  0.20291526008E+04  0.15294330000E+03 0.  0.
<mgrwt>
<rscale>  0 0.82751216E+03</rscale>
<asrwt>0</asrwt>
<pdfrwt beam="1">  1        1 0.32055893E+00 0.82751216E+03</pdfrwt>
<pdfrwt beam="2">  1       -1 0.19815913E+00 0.82751216E+03</pdfrwt>
<totfact> 0.42471888E-01</totfact>
</mgrwt>
</event>
<event>
 4    1  0.2731969E-009  0.1788504E+03  0.7818608E-02  0.1168920E+00
         -1   -1    0    0    0  501 -0.00000000000E+00  0.00000000000E+00  0.20261118717E+03  0.20261118723E+03  0.50400000000E-02 0.  1.
          1   -1    0    0  501    0  0.00000000000E+00 -0.00000000000E+00 -0.23413656308E+03  0.23413656313E+03  0.50400000000E-02 0. -1.
    8880022    1    1    2    0    0 -0.92455896531E+02  0.69072435699E+01 -0.14039076561E+03  0.22736979329E+03  0.15294330000E+03 0.  0.
    8880022    1    1    2    0    0  0.92455896531E+02 -0.69072435699E+01  0.10886538971E+03  0.20937795707E+03  0.15294330000E+03 0.  1.
<mgrwt>
<rscale>  0 0.17885037E+03</rscale>
<asrwt>0</asrwt>
<pdfrwt beam="1">  1        1 0.36021010E-01 0.17885037E+03</pdfrwt>
<pdfrwt beam="2">  1       -1 0.31170952E-01 0.17885037E+03</pdfrwt>
<totfact> 0.11416017E+03</totfact>
</mgrwt>
</event>
<event>
 4    1  0.2731969E-009  0.6870331E+03  0.7818608E-02  0.9739668E-01
          1   -1    0    0  501    0  0.00000000000E+00  0.00000000000E+00  0.12114786832E+04  0.12114786832E+04  0.50400000000E-02 0. -1.
         -1   -1    0    0    0  501 -0.00000000000E+00 -0.00000000000E+00 -0.50282502486E+03  0.50282502489E+03  0.50400000000E-02 0.  1.
    8880022    1    1    2    0    0 -0.22921170674E+03  0.62935271298E+03  0.76103703734E+03  0.10252764842E+04  0.15294330000E+03 0.  0.
    8880022    1    1    2    0    0  0.22921170674E+03 -0.62935271298E+03 -0.52383379011E+02  0.68902722388E+03  0.15294330000E+03 0.  0.
<mgrwt>
<rscale>  0 0.68703311E+03</rscale>
<asrwt>0</asrwt>
<pdfrwt beam="1">  1        1 0.18638133E+00 0.68703311E+03</pdfrwt>
<pdfrwt beam="2">  1       -1 0.77357697E-01 0.68703311E+03</pdfrwt>
<totfact> 0.18269621E+01</totfact>
</mgrwt>
</event>
<event>
 4    1  0.2731969E-009  0.7211885E+03  0.7818608E-02  0.9681668E-01
          1   -1    0    0  501    0  0.00000000000E+00  0.00000000000E+00  0.17995634363E+04  0.17995634363E+04  0.50400000000E-02 0. -1.
         -1   -1    0    0    0  501 -0.00000000000E+00 -0.00000000000E+00 -0.32536933871E+03  0.32536933875E+03  0.50400000000E-02 0.  1.
    8880022    1    1    2    0    0 -0.47692907800E+03 -0.51890257403E+03  0.38198533252E+03  0.81610396032E+03  0.15294330000E+03 0.  0.
    8880022    1    1    2    0    0  0.47692907800E+03  0.51890257403E+03  0.10922087651E+04  0.13088288147E+04  0.15294330000E+03 0.  0.
<mgrwt>
<rscale>  0 0.72118852E+03</rscale>
<asrwt>0</asrwt>
<pdfrwt beam="1">  1        1 0.27685591E+00 0.72118852E+03</pdfrwt>
<pdfrwt beam="2">  1       -1 0.50056822E-01 0.72118852E+03</pdfrwt>
<totfact> 0.17042954E+01</totfact>
</mgrwt>
</event>
<event>
 4    1  0.2731969E-009  0.6032801E+03  0.7818608E-02  0.9898624E-01
          1   -1    0    0  501    0  0.00000000000E+00  0.00000000000E+00  0.99874924186E+03  0.99874924187E+03  0.50400000000E-02 0. -1.
         -1   -1    0    0    0  501 -0.00000000000E+00 -0.00000000000E+00 -0.80127538163E+03  0.80127538165E+03  0.50400000000E-02 0.  1.
    8880022    1    1    2    0    0  0.49043991340E+03 -0.31626554314E+03  0.76329819964E+03  0.97291880289E+03  0.15294330000E+03 0.  0.
    8880022    1    1    2    0    0 -0.49043991340E+03  0.31626554314E+03 -0.56582433941E+03  0.82710582063E+03  0.15294330000E+03 0.  0.
<mgrwt>
<rscale>  0 0.60328008E+03</rscale>
<asrwt>0</asrwt>
<pdfrwt beam="1">  1        1 0.15365373E+00 0.60328008E+03</pdfrwt>
<pdfrwt beam="2">  1       -1 0.12327314E+00 0.60328008E+03</pdfrwt>
<totfact> 0.92876408E+00</totfact>
</mgrwt>
</event>
<event>
 4    1  0.2731969E-009  0.7485754E+03  0.7818608E-02  0.9637588E-01
          1   -1    0    0  501    0  0.00000000000E+00  0.00000000000E+00  0.14299462631E+04  0.14299462631E+04  0.50400000000E-02 0. -1.
         -1   -1    0    0    0  501 -0.00000000000E+00 -0.00000000000E+00 -0.11515565163E+04  0.11515565163E+04  0.50400000000E-02 0.  1.
    8880022    1    1    2    0    0  0.72203665953E+03 -0.12504612220E+03  0.11875653128E+04  0.14038078557E+04  0.15294330000E+03 0.  0.
    8880022    1    1    2    0    0 -0.72203665953E+03  0.12504612220E+03 -0.90917556611E+03  0.11776949237E+04  0.15294330000E+03 0.  0.
<mgrwt>
<rscale>  0 0.74857540E+03</rscale>
<asrwt>0</asrwt>
<pdfrwt beam="1">  1        1 0.21999173E+00 0.74857540E+03</pdfrwt>
<pdfrwt beam="2">  1       -1 0.17716254E+00 0.74857540E+03</pdfrwt>
<totfact> 0.16738810E+00</totfact>
</mgrwt>
</event>
<event>
 4    1  0.2731969E-009  0.1045392E+04  0.7818608E-02  0.9260114E-01
          1   -1    0    0  501    0  0.00000000000E+00  0.00000000000E+00  0.21067087685E+04  0.21067087685E+04  0.50400000000E-02 0. -1.
         -1   -1    0    0    0  501 -0.00000000000E+00 -0.00000000000E+00 -0.12534573070E+04  0.12534573070E+04  0.50400000000E-02 0.  1.
    8880022    1    1    2    0    0 -0.87801097943E+03 -0.54639705957E+03 -0.85965162966E+03  0.13534569088E+04  0.15294330000E+03 0.  0.
    8880022    1    1    2    0    0  0.87801097943E+03  0.54639705957E+03  0.17129030912E+04  0.20067091667E+04  0.15294330000E+03 0.  0.
<mgrwt>
<rscale>  0 0.10453921E+04</rscale>
<asrwt>0</asrwt>
<pdfrwt beam="1">  1        1 0.32410904E+00 0.10453921E+04</pdfrwt>
<pdfrwt beam="2">  1       -1 0.19283959E+00 0.10453921E+04</pdfrwt>
<totfact> 0.42817014E-01</totfact>
</mgrwt>
</event>
<event>
 4    1  0.2731969E-009  0.8392583E+03  0.7818608E-02  0.9504869E-01
          1   -1    0    0  501    0  0.00000000000E+00  0.00000000000E+00  0.30847471226E+04  0.30847471226E+04  0.50400000000E-02 0. -1.
         -1   -1    0    0    0  501 -0.00000000000E+00 -0.00000000000E+00 -0.36023431791E+03  0.36023431795E+03  0.50400000000E-02 0.  1.
    8880022    1    1    2    0    0 -0.60734136275E+03 -0.55865855021E+03  0.31997197098E+03  0.89818518239E+03  0.15294330000E+03 0.  0.
    8880022    1    1    2    0    0  0.60734136275E+03  0.55865855021E+03  0.24045408337E+04  0.25467962582E+04  0.15294330000E+03 0.  0.
<mgrwt>
<rscale>  0 0.83925834E+03</rscale>
<asrwt>0</asrwt>
<pdfrwt beam="1">  1        1 0.47457650E+00 0.83925834E+03</pdfrwt>
<pdfrwt beam="2">  1       -1 0.55420662E-01 0.83925834E+03</pdfrwt>
<totfact> 0.18043359E+00</totfact>
</mgrwt>
</event>
<event>
 4    1  0.2731969E-009  0.9603639E+03  0.7818608E-02  0.9353118E-01
          1   -1    0    0  501    0  0.00000000000E+00  0.00000000000E+00  0.67447605859E+03  0.67447605860E+03  0.50400000000E-02 0. -1.
         -1   -1    0    0    0  501 -0.00000000000E+00 -0.00000000000E+00 -0.16679822220E+04  0.16679822220E+04  0.50400000000E-02 0.  1.
    8880022    1    1    2    0    0 -0.93117283888E+03 -0.17839375033E+03  0.41825994012E+00  0.96036400077E+03  0.15294330000E+03 0.  0.
    8880022    1    1    2    0    0  0.93117283888E+03  0.17839375033E+03 -0.99392442338E+03  0.13820942799E+04  0.15294330000E+03 0.  0.
<mgrwt>
<rscale>  0 0.96036391E+03</rscale>
<asrwt>0</asrwt>
<pdfrwt beam="1">  1        1 0.10376555E+00 0.96036391E+03</pdfrwt>
<pdfrwt beam="2">  1       -1 0.25661265E+00 0.96036391E+03</pdfrwt>
<totfact> 0.18448521E+00</totfact>
</mgrwt>
</event>
<event>
 4    1  0.2731969E-009  0.1894077E+03  0.7818608E-02  0.1158997E+00
          1   -1    0    0  501    0  0.00000000000E+00  0.00000000000E+00  0.68727288071E+03  0.68727288073E+03  0.50400000000E-02 0. -1.
         -1   -1    0    0    0  501 -0.00000000000E+00 -0.00000000000E+00 -0.13457396376E+03  0.13457396386E+03  0.50400000000E-02 0.  1.
    8880022    1    1    2    0    0  0.10500315630E+03 -0.38183273380E+02  0.59784633719E+03  0.62713277789E+03  0.15294330000E+03 0. -1.
    8880022    1    1    2    0    0 -0.10500315630E+03  0.38183273380E+02 -0.45147420247E+02  0.19471406669E+03  0.15294330000E+03 0.  0.
<mgrwt>
<rscale>  0 0.18940770E+03</rscale>
<asrwt>0</asrwt>
<pdfrwt beam="1">  1        1 0.10573429E+00 0.18940770E+03</pdfrwt>
<pdfrwt beam="2">  1       -1 0.20703687E-01 0.18940770E+03</pdfrwt>
<totfact> 0.55718786E+02</totfact>
</mgrwt>
</event>
<event>
 4    1  0.2731969E-009  0.1774890E+03  0.7818608E-02  0.1170256E+00
         -1   -1    0    0    0  501 -0.00000000000E+00  0.00000000000E+00  0.29114752353E+02  0.29114752789E+02  0.50400000000E-02 0.  1.
          1   -1    0    0  501    0  0.00000000000E+00 -0.00000000000E+00 -0.12952106855E+04  0.12952106855E+04  0.50400000000E-02 0. -1.
    8880022    1    1    2    0    0  0.44870552926E+02 -0.78085353752E+02 -0.36439433667E+03  0.40532156938E+03  0.15294330000E+03 0.  0.
    8880022    1    1    2    0    0 -0.44870552926E+02  0.78085353752E+02 -0.90170159649E+03  0.91900386893E+03  0.15294330000E+03 0. -1.
<mgrwt>
<rscale>  0 0.17748899E+03</rscale>
<asrwt>0</asrwt>
<pdfrwt beam="1">  1        1 0.19926314E+00 0.17748899E+03</pdfrwt>
<pdfrwt beam="2">  1       -1 0.44791937E-02 0.17748899E+03</pdfrwt>
<totfact> 0.20383163E+03</totfact>
</mgrwt>
</event>
<event>
 4    1  0.2731969E-009  0.5583667E+03  0.7818608E-02  0.9995757E-01
          1   -1    0    0  501    0  0.00000000000E+00  0.00000000000E+00  0.32350506245E+04  0.32350506246E+04  0.50400000000E-02 0. -1.
         -1   -1    0    0    0  501 -0.00000000000E+00 -0.00000000000E+00 -0.12004244646E+03  0.12004244657E+03  0.50400000000E-02 0.  1.
    8880022    1    1    2    0    0  0.44942430216E+03  0.29393792646E+03  0.81260742876E+03  0.98595344427E+03  0.15294330000E+03 0.  0.
    8880022    1    1    2    0    0 -0.44942430216E+03 -0.29393792646E+03  0.23024007493E+04  0.23691396268E+04  0.15294330000E+03 0.  0.
<mgrwt>
<rscale>  0 0.55836669E+03</rscale>
<asrwt>0</asrwt>
<pdfrwt beam="1">  1        1 0.49770011E+00 0.55836669E+03</pdfrwt>
<pdfrwt beam="2">  1       -1 0.18468068E-01 0.55836669E+03</pdfrwt>
<totfact> 0.10358259E+01</totfact>
</mgrwt>
</event>
<event>
 4    1  0.2731969E-009  0.7511008E+03  0.7818608E-02  0.9633625E-01
          1   -1    0    0  501    0  0.00000000000E+00  0.00000000000E+00  0.91350074971E+03  0.91350074972E+03  0.50400000000E-02 0. -1.
         -1   -1    0    0    0  501 -0.00000000000E+00 -0.00000000000E+00 -0.97676910059E+03  0.97676910060E+03  0.50400000000E-02 0.  1.
    8880022    1    1    2    0    0  0.69603813164E+03  0.23725881654E+03  0.54151051063E+03  0.92595146355E+03  0.15294330000E+03 0.  0.
    8880022    1    1    2    0    0 -0.69603813164E+03 -0.23725881654E+03 -0.60477886151E+03  0.96431838677E+03  0.15294330000E+03 0.  0.
<mgrwt>
<rscale>  0 0.75110085E+03</rscale>
<asrwt>0</asrwt>
<pdfrwt beam="1">  1        1 0.14053858E+00 0.75110085E+03</pdfrwt>
<pdfrwt beam="2">  1       -1 0.15027217E+00 0.75110085E+03</pdfrwt>
<totfact> 0.63706420E+00</totfact>
</mgrwt>
</event>
<event>
 4    1  0.2731969E-009  0.7905174E+03  0.7818608E-02  0.9573845E-01
          1   -1    0    0  501    0  0.00000000000E+00  0.00000000000E+00  0.32391516999E+04  0.32391516999E+04  0.50400000000E-02 0. -1.
         -1   -1    0    0    0  501 -0.00000000000E+00 -0.00000000000E+00 -0.10494191956E+04  0.10494191956E+04  0.50400000000E-02 0.  1.
    8880022    1    1    2    0    0 -0.27100025484E+03 -0.72669457505E+03 -0.84231367234E+03  0.11551667062E+04  0.15294330000E+03 0.  0.
    8880022    1    1    2    0    0  0.27100025484E+03  0.72669457505E+03  0.30320461766E+04  0.31334041893E+04  0.15294330000E+03 0. -1.
<mgrwt>
<rscale>  0 0.79051742E+03</rscale>
<asrwt>0</asrwt>
<pdfrwt beam="1">  1        1 0.49833102E+00 0.79051742E+03</pdfrwt>
<pdfrwt beam="2">  1       -1 0.16144911E+00 0.79051742E+03</pdfrwt>
<totfact> 0.12276836E-01</totfact>
</mgrwt>
</event>
<event>
 4    1  0.2731969E-009  0.6815047E+03  0.7818608E-02  0.9749395E-01
          1   -1    0    0  501    0  0.00000000000E+00  0.00000000000E+00  0.35415819752E+04  0.35415819752E+04  0.50400000000E-02 0. -1.
         -1   -1    0    0    0  501 -0.00000000000E+00 -0.00000000000E+00 -0.45283001488E+03  0.45283001491E+03  0.50400000000E-02 0.  1.
    8880022    1    1    2    0    0 -0.27282068656E+03  0.60549636971E+03 -0.13896845023E+03  0.69552919703E+03  0.15294330000E+03 0.  0.
    8880022    1    1    2    0    0  0.27282068656E+03 -0.60549636971E+03  0.32277204105E+04  0.32988827930E+04  0.15294330000E+03 0.  0.
<mgrwt>
<rscale>  0 0.68150468E+03</rscale>
<asrwt>0</asrwt>
<pdfrwt beam="1">  1        1 0.54485876E+00 0.68150468E+03</pdfrwt>
<pdfrwt beam="2">  1       -1 0.69666157E-01 0.68150468E+03</pdfrwt>
<totfact> 0.53871531E-01</totfact>
</mgrwt>
</event>
<event>
 4    1  0.2731969E-009  0.8472093E+03  0.7818608E-02  0.9494090E-01
         -1   -1    0    0    0  501 -0.00000000000E+00  0.00000000000E+00  0.13819493778E+04  0.13819493778E+04  0.50400000000E-02 0.  1.
          1   -1    0    0  501    0  0.00000000000E+00 -0.00000000000E+00 -0.72165641022E+03  0.72165641024E+03  0.50400000000E-02 0. -1.
    8880022    1    1    2    0    0  0.37225424167E+03 -0.74551915184E+03  0.88699421207E+03  0.12265897486E+04  0.15294330000E+03 0.  0.
    8880022    1    1    2    0    0 -0.37225424167E+03  0.74551915184E+03 -0.22670124445E+03  0.87701603945E+03  0.15294330000E+03 0.  0.
<mgrwt>
<rscale>  0 0.84720935E+03</rscale>
<asrwt>0</asrwt>
<pdfrwt beam="1">  1        1 0.11102406E+00 0.84720935E+03</pdfrwt>
<pdfrwt beam="2">  1       -1 0.21260760E+00 0.84720935E+03</pdfrwt>
<totfact> 0.32887156E+00</totfact>
</mgrwt>
</event>
<event>
 4    1  0.2731969E-009  0.1629573E+04  0.7818608E-02  0.8802584E-01
         -1   -1    0    0    0  501 -0.00000000000E+00  0.00000000000E+00  0.83888446974E+03  0.83888446976E+03  0.50400000000E-02 0.  1.
          1   -1    0    0  501    0  0.00000000000E+00 -0.00000000000E+00 -0.41019423093E+04  0.41019423093E+04  0.50400000000E-02 0. -1.
    8880022    1    1    2    0    0  0.21160271807E+03 -0.16085209289E+04 -0.45118014316E+03  0.16908786070E+04  0.15294330000E+03 0.  0.
    8880022    1    1    2    0    0 -0.21160271807E+03  0.16085209289E+04 -0.28118776964E+04  0.32499481721E+04  0.15294330000E+03 0.  0.
<mgrwt>
<rscale>  0 0.16295726E+04</rscale>
<asrwt>0</asrwt>
<pdfrwt beam="1">  1        1 0.63106803E+00 0.16295726E+04</pdfrwt>
<pdfrwt beam="2">  1       -1 0.12905915E+00 0.16295726E+04</pdfrwt>
<totfact> 0.38161878E-02</totfact>
</mgrwt>
</event>
<event>
 4    1  0.2731969E-009  0.4559675E+03  0.7818608E-02  0.1025957E+00
         -1   -1    0    0    0  501 -0.00000000000E+00  0.00000000000E+00  0.38592146186E+03  0.38592146189E+03  0.50400000000E-02 0.  1.
          1   -1    0    0  501    0  0.00000000000E+00 -0.00000000000E+00 -0.58102134646E+03  0.58102134649E+03  0.50400000000E-02 0. -1.
    8880022    1    1    2    0    0 -0.42063059087E+03 -0.87089677171E+02 -0.22799128956E+03  0.50979053245E+03  0.15294330000E+03 0.  0.
    8880022    1    1    2    0    0  0.42063059087E+03  0.87089677171E+02  0.32891404951E+02  0.45715227592E+03  0.15294330000E+03 0.  0.
<mgrwt>
<rscale>  0 0.45596750E+03</rscale>
<asrwt>0</asrwt>
<pdfrwt beam="1">  1        1 0.89387900E-01 0.45596750E+03</pdfrwt>
<pdfrwt beam="2">  1       -1 0.59372532E-01 0.45596750E+03</pdfrwt>
<totfact> 0.10766502E+02</totfact>
</mgrwt>
</event>
<event>
 4    1  0.2731969E-009  0.6405647E+03  0.7818608E-02  0.9824647E-01
          1   -1    0    0  501    0  0.00000000000E+00  0.00000000000E+00  0.14955973260E+04  0.14955973260E+04  0.50400000000E-02 0. -1.
         -1   -1    0    0    0  501 -0.00000000000E+00 -0.00000000000E+00 -0.74756714849E+03  0.74756714851E+03  0.50400000000E-02 0.  1.
    8880022    1    1    2    0    0  0.11161166738E+02  0.62193801368E+03  0.12663634234E+04  0.14191544799E+04  0.15294330000E+03 0.  0.
    8880022    1    1    2    0    0 -0.11161166738E+02 -0.62193801368E+03 -0.51833324590E+03  0.82400999468E+03  0.15294330000E+03 0.  0.
<mgrwt>
<rscale>  0 0.64056469E+03</rscale>
<asrwt>0</asrwt>
<pdfrwt beam="1">  1        1 0.23009190E+00 0.64056469E+03</pdfrwt>
<pdfrwt beam="2">  1       -1 0.11501033E+00 0.64056469E+03</pdfrwt>
<totfact> 0.48066778E+00</totfact>
</mgrwt>
</event>
<event>
 4    1  0.2731969E-009  0.8301880E+03  0.7818608E-02  0.9517321E-01
          1   -1    0    0  501    0  0.00000000000E+00  0.00000000000E+00  0.45264275514E+04  0.45264275514E+04  0.50400000000E-02 0. -1.
         -1   -1    0    0    0  501 -0.00000000000E+00 -0.00000000000E+00 -0.56388897106E+03  0.56388897108E+03  0.50400000000E-02 0.  1.
    8880022    1    1    2    0    0 -0.22004076549E+02  0.81568144878E+03  0.41558164863E+04  0.42379267013E+04  0.15294330000E+03 0.  0.
    8880022    1    1    2    0    0  0.22004076549E+02 -0.81568144878E+03 -0.19327790593E+03  0.85238982115E+03  0.15294330000E+03 0.  0.
<mgrwt>
<rscale>  0 0.83018797E+03</rscale>
<asrwt>0</asrwt>
<pdfrwt beam="1">  1        1 0.69637348E+00 0.83018797E+03</pdfrwt>
<pdfrwt beam="2">  1       -1 0.86752148E-01 0.83018797E+03</pdfrwt>
<totfact> 0.44427442E-02</totfact>
</mgrwt>
</event>
<event>
 4    1  0.2731969E-009  0.5878186E+03  0.7818608E-02  0.9931006E-01
          1   -1    0    0  501    0  0.00000000000E+00  0.00000000000E+00  0.14521623008E+04  0.14521623008E+04  0.50400000000E-02 0. -1.
         -1   -1    0    0    0  501 -0.00000000000E+00 -0.00000000000E+00 -0.40020354856E+03  0.40020354859E+03  0.50400000000E-02 0.  1.
    8880022    1    1    2    0    0  0.39337697078E+03 -0.40913757907E+03  0.11157238495E+04  0.12610988704E+04  0.15294330000E+03 0.  0.
    8880022    1    1    2    0    0 -0.39337697078E+03  0.40913757907E+03 -0.63765097245E+02  0.59126697894E+03  0.15294330000E+03 0.  0.
<mgrwt>
<rscale>  0 0.58781855E+03</rscale>
<asrwt>0</asrwt>
<pdfrwt beam="1">  1        1 0.22340959E+00 0.58781855E+03</pdfrwt>
<pdfrwt beam="2">  1       -1 0.61569776E-01 0.58781855E+03</pdfrwt>
<totfact> 0.20019957E+01</totfact>
</mgrwt>
</event>
<event>
 4    1  0.2731969E-009  0.1107062E+04  0.7818608E-02  0.9198336E-01
         -1   -1    0    0    0  501 -0.00000000000E+00  0.00000000000E+00  0.11375010379E+04  0.11375010379E+04  0.50400000000E-02 0.  1.
          1   -1    0    0  501    0  0.00000000000E+00 -0.00000000000E+00 -0.12906948136E+04  0.12906948136E+04  0.50400000000E-02 0. -1.
    8880022    1    1    2    0    0  0.83016221250E+03  0.71625726222E+03 -0.57010542354E+03  0.12452331556E+04  0.15294330000E+03 0.  0.
    8880022    1    1    2    0    0 -0.83016221250E+03 -0.71625726222E+03  0.41691164782E+03  0.11829626959E+04  0.15294330000E+03 0.  0.
<mgrwt>
<rscale>  0 0.11070616E+04</rscale>
<asrwt>0</asrwt>
<pdfrwt beam="1">  1        1 0.19856843E+00 0.11070616E+04</pdfrwt>
<pdfrwt beam="2">  1       -1 0.17500016E+00 0.11070616E+04</pdfrwt>
<totfact> 0.20586868E+00</totfact>
</mgrwt>
</event>
<event>
 4    1  0.2731969E-009  0.5327959E+03  0.7818608E-02  0.1005556E+00
         -1   -1    0    0    0  501 -0.00000000000E+00  0.00000000000E+00  0.80624569731E+03  0.80624569732E+03  0.50400000000E-02 0.  1.
          1   -1    0    0  501    0  0.00000000000E+00 -0.00000000000E+00 -0.89816830673E+03  0.89816830675E+03  0.50400000000E-02 0. -1.
    8880022    1    1    2    0    0 -0.49882202265E+03  0.10796475902E+03  0.61853641891E+03  0.81636925101E+03  0.15294330000E+03 0.  0.
    8880022    1    1    2    0    0  0.49882202265E+03 -0.10796475902E+03 -0.71045902834E+03  0.88804475306E+03  0.15294330000E+03 0. -1.
<mgrwt>
<rscale>  0 0.53279588E+03</rscale>
<asrwt>0</asrwt>
<pdfrwt beam="1">  1        1 0.13817974E+00 0.53279588E+03</pdfrwt>
<pdfrwt beam="2">  1       -1 0.12403780E+00 0.53279588E+03</pdfrwt>
<totfact> 0.11121889E+01</totfact>
</mgrwt>
</event>
<event>
 4    1  0.2731969E-009  0.8787730E+03  0.7818608E-02  0.9452512E-01
         -1   -1    0    0    0  501 -0.00000000000E+00  0.00000000000E+00  0.40547293758E+03  0.40547293761E+03  0.50400000000E-02 0.  1.
          1   -1    0    0  501    0  0.00000000000E+00 -0.00000000000E+00 -0.22059378304E+04  0.22059378304E+04  0.50400000000E-02 0. -1.
    8880022    1    1    2    0    0 -0.13239924339E+03  0.85517296010E+03 -0.13828621471E+04  0.16384595577E+04  0.15294330000E+03 0.  0.
    8880022    1    1    2    0    0  0.13239924339E+03 -0.85517296010E+03 -0.41760274565E+03  0.97295121025E+03  0.15294330000E+03 0.  0.
<mgrwt>
<rscale>  0 0.87877301E+03</rscale>
<asrwt>0</asrwt>
<pdfrwt beam="1">  1        1 0.33937504E+00 0.87877301E+03</pdfrwt>
<pdfrwt beam="2">  1       -1 0.62380454E-01 0.87877301E+03</pdfrwt>
<totfact> 0.58006403E+00</totfact>
</mgrwt>
</event>
<event>
 4    1  0.2731969E-009  0.4539796E+03  0.7818608E-02  0.1026542E+00
          1   -1    0    0  501    0  0.00000000000E+00  0.00000000000E+00  0.11934821725E+04  0.11934821725E+04  0.50400000000E-02 0. -1.
         -1   -1    0    0    0  501 -0.00000000000E+00 -0.00000000000E+00 -0.24039636395E+03  0.24039636400E+03  0.50400000000E-02 0.  1.
    8880022    1    1    2    0    0 -0.28800312758E+03  0.31584812210E+03  0.96050092545E+02  0.46402921354E+03  0.15294330000E+03 0.  0.
    8880022    1    1    2    0    0  0.28800312758E+03 -0.31584812210E+03  0.85703571599E+03  0.96984932295E+03  0.15294330000E+03 0.  0.
<mgrwt>
<rscale>  0 0.45397961E+03</rscale>
<asrwt>0</asrwt>
<pdfrwt beam="1">  1        1 0.18361264E+00 0.45397961E+03</pdfrwt>
<pdfrwt beam="2">  1       -1 0.36984056E-01 0.45397961E+03</pdfrwt>
<totfact> 0.80308806E+01</totfact>
</mgrwt>
</event>
<event>
 4    1  0.2731969E-009  0.1657150E+03  0.7818608E-02  0.1182392E+00
          1   -1    0    0  501    0  0.00000000000E+00  0.00000000000E+00  0.93130423261E+03  0.93130423263E+03  0.50400000000E-02 0. -1.
         -1   -1    0    0    0  501 -0.00000000000E+00 -0.00000000000E+00 -0.29761680637E+03  0.29761680642E+03  0.50400000000E-02 0.  1.
    8880022    1    1    2    0    0  0.40191462225E+02  0.49542473562E+02 -0.26638342237E+03  0.31372215582E+03  0.15294330000E+03 0.  1.
    8880022    1    1    2    0    0 -0.40191462225E+02 -0.49542473562E+02  0.90007084861E+03  0.91519888323E+03  0.15294330000E+03 0.  0.
<mgrwt>
<rscale>  0 0.16571501E+03</rscale>
<asrwt>0</asrwt>
<pdfrwt beam="1">  1        1 0.14327757E+00 0.16571501E+03</pdfrwt>
<pdfrwt beam="2">  1       -1 0.45787202E-01 0.16571501E+03</pdfrwt>
<totfact> 0.91179502E+01</totfact>
</mgrwt>
</event>
<event>
 4    1  0.2731969E-009  0.1032410E+04  0.7818608E-02  0.9273695E-01
          1   -1    0    0  501    0  0.00000000000E+00  0.00000000000E+00  0.79244532739E+03  0.79244532741E+03  0.50400000000E-02 0. -1.
         -1   -1    0    0    0  501 -0.00000000000E+00 -0.00000000000E+00 -0.19540623890E+04  0.19540623890E+04  0.50400000000E-02 0.  1.
    8880022    1    1    2    0    0 -0.90169446796E+03  0.47898474061E+03 -0.13474602537E+04  0.16975040747E+04  0.15294330000E+03 0.  0.
    8880022    1    1    2    0    0  0.90169446796E+03 -0.47898474061E+03  0.18584319209E+03  0.10490036417E+04  0.15294330000E+03 0.  0.
<mgrwt>
<rscale>  0 0.10324103E+04</rscale>
<asrwt>0</asrwt>
<pdfrwt beam="1">  1        1 0.12191467E+00 0.10324103E+04</pdfrwt>
<pdfrwt beam="2">  1       -1 0.30062498E+00 0.10324103E+04</pdfrwt>
<totfact> 0.74117397E-01</totfact>
</mgrwt>
</event>
<event>
 4    1  0.2731969E-009  0.6926768E+03  0.7818608E-02  0.9729838E-01
          1   -1    0    0  501    0  0.00000000000E+00  0.00000000000E+00  0.66319670083E+03  0.66319670085E+03  0.50400000000E-02 0. -1.
         -1   -1    0    0    0  501 -0.00000000000E+00 -0.00000000000E+00 -0.83853568785E+03  0.83853568787E+03  0.50400000000E-02 0.  1.
    8880022    1    1    2    0    0  0.12991779078E+03 -0.66297123622E+03  0.19048093734E+03  0.71838995881E+03  0.15294330000E+03 0.  0.
    8880022    1    1    2    0    0 -0.12991779078E+03  0.66297123622E+03 -0.36581992437E+03  0.78334242991E+03  0.15294330000E+03 0.  0.
<mgrwt>
<rscale>  0 0.69267680E+03</rscale>
<asrwt>0</asrwt>
<pdfrwt beam="1">  1        1 0.10203026E+00 0.69267680E+03</pdfrwt>
<pdfrwt beam="2">  1       -1 0.12900549E+00 0.69267680E+03</pdfrwt>
<totfact> 0.15822043E+01</totfact>
</mgrwt>
</event>
<event>
 4    1  0.2731969E-009  0.5755305E+03  0.7818608E-02  0.9957515E-01
         -1   -1    0    0    0  501 -0.00000000000E+00  0.00000000000E+00  0.61310318070E+03  0.61310318072E+03  0.50400000000E-02 0.  1.
          1   -1    0    0  501    0  0.00000000000E+00 -0.00000000000E+00 -0.95881947425E+03  0.95881947426E+03  0.50400000000E-02 0. -1.
    8880022    1    1    2    0    0  0.39687659580E+03 -0.38772753634E+03 -0.69214959512E+03  0.90017020044E+03  0.15294330000E+03 0.  0.
    8880022    1    1    2    0    0 -0.39687659580E+03  0.38772753634E+03  0.34643330157E+03  0.67175245454E+03  0.15294330000E+03 0.  0.
<mgrwt>
<rscale>  0 0.57553048E+03</rscale>
<asrwt>0</asrwt>
<pdfrwt beam="1">  1        1 0.14751069E+00 0.57553048E+03</pdfrwt>
<pdfrwt beam="2">  1       -1 0.94323566E-01 0.57553048E+03</pdfrwt>
<totfact> 0.18713170E+01</totfact>
</mgrwt>
</event>
<event>
 4    1  0.2731969E-009  0.1923732E+04  0.7818608E-02  0.8643133E-01
         -1   -1    0    0    0  501 -0.00000000000E+00  0.00000000000E+00  0.14645998106E+04  0.14645998106E+04  0.50400000000E-02 0.  1.
          1   -1    0    0  501    0  0.00000000000E+00 -0.00000000000E+00 -0.34084186214E+04  0.34084186214E+04  0.50400000000E-02 0. -1.
    8880022    1    1    2    0    0 -0.16042564609E+04 -0.10505773642E+04  0.26726730376E+03  0.19422088084E+04  0.15294330000E+03 0.  0.
    8880022    1    1    2    0    0  0.16042564609E+04  0.10505773642E+04 -0.22110861146E+04  0.29308096236E+04  0.15294330000E+03 0.  0.
<mgrwt>
<rscale>  0 0.19237316E+04</rscale>
<asrwt>0</asrwt>
<pdfrwt beam="1">  1        1 0.52437209E+00 0.19237316E+04</pdfrwt>
<pdfrwt beam="2">  1       -1 0.22532305E+00 0.19237316E+04</pdfrwt>
<totfact> 0.26863344E-02</totfact>
</mgrwt>
</event>
<event>
 4    1  0.2731969E-009  0.8495022E+03  0.7818608E-02  0.9491005E-01
         -1   -1    0    0    0  501 -0.00000000000E+00  0.00000000000E+00  0.15128148314E+04  0.15128148314E+04  0.50400000000E-02 0.  1.
          1   -1    0    0  501    0  0.00000000000E+00 -0.00000000000E+00 -0.15734146110E+04  0.15734146110E+04  0.50400000000E-02 0. -1.
    8880022    1    1    2    0    0  0.83060402438E+03  0.91428746939E+02 -0.13184267409E+04  0.15684077867E+04  0.15294330000E+03 0.  0.
    8880022    1    1    2    0    0 -0.83060402438E+03 -0.91428746939E+02  0.12578269613E+04  0.15178216557E+04  0.15294330000E+03 0.  0.
<mgrwt>
<rscale>  0 0.84950216E+03</rscale>
<asrwt>0</asrwt>
<pdfrwt beam="1">  1        1 0.24206379E+00 0.84950216E+03</pdfrwt>
<pdfrwt beam="2">  1       -1 0.23274074E+00 0.84950216E+03</pdfrwt>
<totfact> 0.54687640E-01</totfact>
</mgrwt>
</event>
<event>
 4    1  0.2731969E-009  0.7241335E+03  0.7818608E-02  0.9676828E-01
         -1   -1    0    0    0  501 -0.00000000000E+00  0.00000000000E+00  0.38918659084E+03  0.38918659087E+03  0.50400000000E-02 0.  1.
          1   -1    0    0  501    0  0.00000000000E+00 -0.00000000000E+00 -0.31145757999E+04  0.31145757999E+04  0.50400000000E-02 0. -1.
    8880022    1    1    2    0    0 -0.56089741070E+01 -0.70777555002E+03 -0.43066360173E+02  0.72541302317E+03  0.15294330000E+03 0.  0.
    8880022    1    1    2    0    0  0.56089741070E+01  0.70777555002E+03 -0.26823228489E+04  0.27783493676E+04  0.15294330000E+03 0.  0.
<mgrwt>
<rscale>  0 0.72413351E+03</rscale>
<asrwt>0</asrwt>
<pdfrwt beam="1">  1        1 0.47916549E+00 0.72413351E+03</pdfrwt>
<pdfrwt beam="2">  1       -1 0.59874862E-01 0.72413351E+03</pdfrwt>
<totfact> 0.15108344E+00</totfact>
</mgrwt>
</event>
<event>
 4    1  0.2731969E-009  0.6990989E+03  0.7818608E-02  0.9718774E-01
         -1   -1    0    0    0  501 -0.00000000000E+00  0.00000000000E+00  0.86146846324E+03  0.86146846326E+03  0.50400000000E-02 0.  1.
          1   -1    0    0  501    0  0.00000000000E+00 -0.00000000000E+00 -0.15819531725E+04  0.15819531725E+04  0.50400000000E-02 0. -1.
    8880022    1    1    2    0    0  0.59453451950E+03  0.33447926317E+03 -0.13386580124E+04  0.15102134285E+04  0.15294330000E+03 0.  0.
    8880022    1    1    2    0    0 -0.59453451950E+03 -0.33447926317E+03  0.61817330316E+03  0.93320820727E+03  0.15294330000E+03 0.  0.
<mgrwt>
<rscale>  0 0.69909894E+03</rscale>
<asrwt>0</asrwt>
<pdfrwt beam="1">  1        1 0.24337741E+00 0.69909894E+03</pdfrwt>
<pdfrwt beam="2">  1       -1 0.13253361E+00 0.69909894E+03</pdfrwt>
<totfact> 0.29281156E+00</totfact>
</mgrwt>
</event>
<event>
 4    1  0.2731969E-009  0.1284169E+04  0.7818608E-02  0.9042215E-01
         -1   -1    0    0    0  501 -0.00000000000E+00  0.00000000000E+00  0.88417114984E+03  0.88417114985E+03  0.50400000000E-02 0.  1.
          1   -1    0    0  501    0  0.00000000000E+00 -0.00000000000E+00 -0.20076004025E+04  0.20076004025E+04  0.50400000000E-02 0. -1.
    8880022    1    1    2    0    0  0.11093444885E+04 -0.62853206405E+03 -0.94689649388E+03  0.15955257355E+04  0.15294330000E+03 0.  0.
    8880022    1    1    2    0    0 -0.11093444885E+04  0.62853206405E+03 -0.17653275879E+03  0.12962458168E+04  0.15294330000E+03 0.  0.
<mgrwt>
<rscale>  0 0.12841688E+04</rscale>
<asrwt>0</asrwt>
<pdfrwt beam="1">  1        1 0.30886160E+00 0.12841688E+04</pdfrwt>
<pdfrwt beam="2">  1       -1 0.13602633E+00 0.12841688E+04</pdfrwt>
<totfact> 0.12953163E+00</totfact>
</mgrwt>
</event>
<event>
 4    1  0.6075935E-009  0.1825291E+04  0.7818608E-02  0.8692964E-01
          1   -1    0    0  501    0  0.00000000000E+00  0.00000000000E+00  0.39702968825E+04  0.39702968825E+04  0.50400000000E-02 0. -1.
         -1   -1    0    0    0  501 -0.00000000000E+00 -0.00000000000E+00 -0.14607447262E+04  0.14607447262E+04  0.50400000000E-02 0.  1.
    8880022    1    1    2    0    0 -0.13655800789E+04 -0.12014521450E+04  0.30261835293E+04  0.35340450782E+04  0.15294330000E+03 0.  0.
    8880022    1    1    2    0    0  0.13655800789E+04  0.12014521450E+04 -0.51663137296E+03  0.18969965306E+04  0.15294330000E+03 0.  0.
<mgrwt>
<rscale>  0 0.18252912E+04</rscale>
<asrwt>0</asrwt>
<pdfrwt beam="1">  1        1 0.61081489E+00 0.18252912E+04</pdfrwt>
<pdfrwt beam="2">  1       -1 0.22472996E+00 0.18252912E+04</pdfrwt>
<totfact> 0.95087319E-03</totfact>
</mgrwt>
</event>
<event>
 4    1  0.2731969E-009  0.5171665E+03  0.7818608E-02  0.1009393E+00
         -1   -1    0    0    0  501 -0.00000000000E+00  0.00000000000E+00  0.81812056957E+03  0.81812056958E+03  0.50400000000E-02 0.  1.
          1   -1    0    0  501    0  0.00000000000E+00 -0.00000000000E+00 -0.96935333716E+03  0.96935333717E+03  0.50400000000E-02 0. -1.
    8880022    1    1    2    0    0  0.43250945465E+03  0.23875741960E+03 -0.80319880020E+03  0.95529550372E+03  0.15294330000E+03 0.  0.
    8880022    1    1    2    0    0 -0.43250945465E+03 -0.23875741960E+03  0.65196603261E+03  0.83217840303E+03  0.15294330000E+03 0.  0.
<mgrwt>
<rscale>  0 0.51716650E+03</rscale>
<asrwt>0</asrwt>
<pdfrwt beam="1">  1        1 0.14913128E+00 0.51716650E+03</pdfrwt>
<pdfrwt beam="2">  1       -1 0.12586470E+00 0.51716650E+03</pdfrwt>
<totfact> 0.94525897E+00</totfact>
</mgrwt>
</event>
<event>
 4    1  0.2731969E-009  0.7940710E+03  0.7818608E-02  0.9568639E-01
          1   -1    0    0  501    0  0.00000000000E+00  0.00000000000E+00  0.14655736488E+04  0.14655736488E+04  0.50400000000E-02 0. -1.
         -1   -1    0    0    0  501 -0.00000000000E+00 -0.00000000000E+00 -0.78466457390E+03  0.78466457392E+03  0.50400000000E-02 0.  1.
    8880022    1    1    2    0    0  0.65761170106E+03  0.41797610257E+03 -0.41571332761E+03  0.89630708770E+03  0.15294330000E+03 0.  0.
    8880022    1    1    2    0    0 -0.65761170106E+03 -0.41797610257E+03  0.10966224025E+04  0.13539311350E+04  0.15294330000E+03 0.  0.
<mgrwt>
<rscale>  0 0.79407105E+03</rscale>
<asrwt>0</asrwt>
<pdfrwt beam="1">  1        1 0.22547287E+00 0.79407105E+03</pdfrwt>
<pdfrwt beam="2">  1       -1 0.12071763E+00 0.79407105E+03</pdfrwt>
<totfact> 0.43631748E+00</totfact>
</mgrwt>
</event>
<event>
 4    1  0.2731969E-009  0.6657788E+03  0.7818608E-02  0.9777614E-01
         -1   -1    0    0    0  501 -0.00000000000E+00  0.00000000000E+00  0.30641832840E+03  0.30641832844E+03  0.50400000000E-02 0.  1.
          1   -1    0    0  501    0  0.00000000000E+00 -0.00000000000E+00 -0.24912899891E+04  0.24912899891E+04  0.50400000000E-02 0. -1.
    8880022    1    1    2    0    0  0.98611174099E+02 -0.64042608776E+03 -0.18658581731E+03  0.69143015394E+03  0.15294330000E+03 0.  0.
    8880022    1    1    2    0    0 -0.98611174099E+02  0.64042608776E+03 -0.19982858434E+04  0.21062781636E+04  0.15294330000E+03 0.  0.
<mgrwt>
<rscale>  0 0.66577879E+03</rscale>
<asrwt>0</asrwt>
<pdfrwt beam="1">  1        1 0.38327537E+00 0.66577879E+03</pdfrwt>
<pdfrwt beam="2">  1       -1 0.47141283E-01 0.66577879E+03</pdfrwt>
<totfact> 0.66175887E+00</totfact>
</mgrwt>
</event>
<event>
 4    1  0.2731969E-009  0.1173049E+04  0.7818608E-02  0.9136779E-01
          1   -1    0    0  501    0  0.00000000000E+00  0.00000000000E+00  0.30560425607E+04  0.30560425607E+04  0.50400000000E-02 0. -1.
         -1   -1    0    0    0  501 -0.00000000000E+00 -0.00000000000E+00 -0.94039285700E+03  0.94039285701E+03  0.50400000000E-02 0.  1.
    8880022    1    1    2    0    0  0.10833278623E+04 -0.42314754161E+03 -0.38475729446E+03  0.12345375360E+04  0.15294330000E+03 0.  0.
    8880022    1    1    2    0    0 -0.10833278623E+04  0.42314754161E+03  0.25004069981E+04  0.27618978816E+04  0.15294330000E+03 0.  0.
<mgrwt>
<rscale>  0 0.11730493E+04</rscale>
<asrwt>0</asrwt>
<pdfrwt beam="1">  1        1 0.47016039E+00 0.11730493E+04</pdfrwt>
<pdfrwt beam="2">  1       -1 0.14467583E+00 0.11730493E+04</pdfrwt>
<totfact> 0.20862786E-01</totfact>
</mgrwt>
</event>
<event>
 4    1  0.2731969E-009  0.3799224E+03  0.7818608E-02  0.1050962E+00
         -1   -1    0    0    0  501 -0.00000000000E+00  0.00000000000E+00  0.43831203152E+03  0.43831203155E+03  0.50400000000E-02 0.  1.
          1   -1    0    0  501    0  0.00000000000E+00 -0.00000000000E+00 -0.11309854900E+04  0.11309854900E+04  0.50400000000E-02 0. -1.
    8880022    1    1    2    0    0 -0.26076977313E+02  0.34679869999E+03 -0.10069477159E+04  0.10762363600E+04  0.15294330000E+03 0.  0.
    8880022    1    1    2    0    0  0.26076977313E+02 -0.34679869999E+03  0.31427425746E+03  0.49306116150E+03  0.15294330000E+03 0.  1.
<mgrwt>
<rscale>  0 0.37992236E+03</rscale>
<asrwt>0</asrwt>
<pdfrwt beam="1">  1        1 0.17399777E+00 0.37992236E+03</pdfrwt>
<pdfrwt beam="2">  1       -1 0.67432621E-01 0.37992236E+03</pdfrwt>
<totfact> 0.29235526E+01</totfact>
</mgrwt>
</event>
<event>
 4    1  0.2731969E-009  0.1218065E+04  0.7818608E-02  0.9097190E-01
         -1   -1    0    0    0  501 -0.00000000000E+00  0.00000000000E+00  0.12409273876E+04  0.12409273876E+04  0.50400000000E-02 0.  1.
          1   -1    0    0  501    0  0.00000000000E+00 -0.00000000000E+00 -0.19666132912E+04  0.19666132912E+04  0.50400000000E-02 0. -1.
    8880022    1    1    2    0    0  0.51075456733E+03  0.10951801805E+04  0.64132673113E+03  0.13765832648E+04  0.15294330000E+03 0.  0.
    8880022    1    1    2    0    0 -0.51075456733E+03 -0.10951801805E+04 -0.13670126347E+04  0.18309574141E+04  0.15294330000E+03 0.  0.
<mgrwt>
<rscale>  0 0.12180647E+04</rscale>
<asrwt>0</asrwt>
<pdfrwt beam="1">  1        1 0.30255589E+00 0.12180647E+04</pdfrwt>
<pdfrwt beam="2">  1       -1 0.19091191E+00 0.12180647E+04</pdfrwt>
<totfact> 0.53522219E-01</totfact>
</mgrwt>
</event>
<event>
 4    1  0.2731969E-009  0.1078001E+04  0.7818608E-02  0.9226903E-01
         -1   -1    0    0    0  501 -0.00000000000E+00  0.00000000000E+00  0.59808520200E+03  0.59808520202E+03  0.50400000000E-02 0.  1.
          1   -1    0    0  501    0  0.00000000000E+00 -0.00000000000E+00 -0.32164523790E+04  0.32164523790E+04  0.50400000000E-02 0. -1.
    8880022    1    1    2    0    0 -0.26802429509E+03 -0.10328875456E+04 -0.25092714345E+04  0.27310306643E+04  0.15294330000E+03 0.  0.
    8880022    1    1    2    0    0  0.26802429509E+03  0.10328875456E+04 -0.10909574257E+03  0.10835069167E+04  0.15294330000E+03 0.  0.
<mgrwt>
<rscale>  0 0.10780006E+04</rscale>
<asrwt>0</asrwt>
<pdfrwt beam="1">  1        1 0.49483882E+00 0.10780006E+04</pdfrwt>
<pdfrwt beam="2">  1       -1 0.92013110E-01 0.10780006E+04</pdfrwt>
<totfact> 0.48423173E-01</totfact>
</mgrwt>
</event>
<event>
 4    1  0.2731969E-009  0.4813890E+03  0.7818608E-02  0.1018754E+00
          1   -1    0    0  501    0  0.00000000000E+00  0.00000000000E+00  0.71208889446E+03  0.71208889448E+03  0.50400000000E-02 0. -1.
         -1   -1    0    0    0  501 -0.00000000000E+00 -0.00000000000E+00 -0.13491669973E+04  0.13491669973E+04  0.50400000000E-02 0.  1.
    8880022    1    1    2    0    0  0.54689273984E+02 -0.45315873559E+03 -0.12163050718E+04  0.13081029917E+04  0.15294330000E+03 0.  0.
    8880022    1    1    2    0    0 -0.54689273984E+02  0.45315873559E+03  0.57922696893E+03  0.75315290007E+03  0.15294330000E+03 0.  0.
<mgrwt>
<rscale>  0 0.48138904E+03</rscale>
<asrwt>0</asrwt>
<pdfrwt beam="1">  1        1 0.10955214E+00 0.48138904E+03</pdfrwt>
<pdfrwt beam="2">  1       -1 0.20756415E+00 0.48138904E+03</pdfrwt>
<totfact> 0.38815455E+00</totfact>
</mgrwt>
</event>
<event>
 4    1  0.2731969E-009  0.1075676E+04  0.7818608E-02  0.9229230E-01
          1   -1    0    0  501    0  0.00000000000E+00  0.00000000000E+00  0.16782216657E+04  0.16782216657E+04  0.50400000000E-02 0. -1.
         -1   -1    0    0    0  501 -0.00000000000E+00 -0.00000000000E+00 -0.82923136411E+03  0.82923136413E+03  0.50400000000E-02 0.  1.
    8880022    1    1    2    0    0  0.58043946648E+03 -0.89262361139E+03  0.93920573817E+03  0.14280006854E+04  0.15294330000E+03 0.  0.
    8880022    1    1    2    0    0 -0.58043946648E+03  0.89262361139E+03 -0.90215436613E+02  0.10794523444E+04  0.15294330000E+03 0.  0.
<mgrwt>
<rscale>  0 0.10756759E+04</rscale>
<asrwt>0</asrwt>
<pdfrwt beam="1">  1        1 0.25818795E+00 0.10756759E+04</pdfrwt>
<pdfrwt beam="2">  1       -1 0.12757406E+00 0.10756759E+04</pdfrwt>
<totfact> 0.26155971E+00</totfact>
</mgrwt>
</event>
<event>
 4    1  0.2731969E-009  0.1048247E+04  0.7818608E-02  0.9257155E-01
          1   -1    0    0  501    0  0.00000000000E+00  0.00000000000E+00  0.23919059742E+04  0.23919059742E+04  0.50400000000E-02 0. -1.
         -1   -1    0    0    0  501 -0.00000000000E+00 -0.00000000000E+00 -0.62910922333E+03  0.62910922335E+03  0.50400000000E-02 0.  1.
    8880022    1    1    2    0    0  0.10328565178E+04  0.92942843078E+02  0.96844501684E+02  0.10527114842E+04  0.15294330000E+03 0.  0.
    8880022    1    1    2    0    0 -0.10328565178E+04 -0.92942843078E+02  0.16659522492E+04  0.19683037134E+04  0.15294330000E+03 0.  0.
<mgrwt>
<rscale>  0 0.10482474E+04</rscale>
<asrwt>0</asrwt>
<pdfrwt beam="1">  1        1 0.36798553E+00 0.10482474E+04</pdfrwt>
<pdfrwt beam="2">  1       -1 0.96786036E-01 0.10482474E+04</pdfrwt>
<totfact> 0.16680626E+00</totfact>
</mgrwt>
</event>
<event>
 4    1  0.2731969E-009  0.7477644E+03  0.7818608E-02  0.9638864E-01
         -1   -1    0    0    0  501 -0.00000000000E+00  0.00000000000E+00  0.11549341680E+04  0.11549341680E+04  0.50400000000E-02 0.  1.
          1   -1    0    0  501    0  0.00000000000E+00 -0.00000000000E+00 -0.15362989058E+04  0.15362989058E+04  0.50400000000E-02 0. -1.
    8880022    1    1    2    0    0  0.44632016984E+03  0.58013643226E+03  0.92290373124E+03  0.11878143475E+04  0.15294330000E+03 0.  0.
    8880022    1    1    2    0    0 -0.44632016984E+03 -0.58013643226E+03 -0.13042684690E+04  0.15034187262E+04  0.15294330000E+03 0.  0.
<mgrwt>
<rscale>  0 0.74776442E+03</rscale>
<asrwt>0</asrwt>
<pdfrwt beam="1">  1        1 0.23635368E+00 0.74776442E+03</pdfrwt>
<pdfrwt beam="2">  1       -1 0.17768218E+00 0.74776442E+03</pdfrwt>
<totfact> 0.14030559E+00</totfact>
</mgrwt>
</event>
<event>
 4    1  0.2731969E-009  0.8439851E+03  0.7818608E-02  0.9498446E-01
         -1   -1    0    0    0  501 -0.00000000000E+00  0.00000000000E+00  0.26618984678E+04  0.26618984678E+04  0.50400000000E-02 0.  1.
          1   -1    0    0  501    0  0.00000000000E+00 -0.00000000000E+00 -0.53753253799E+03  0.53753253801E+03  0.50400000000E-02 0. -1.
    8880022    1    1    2    0    0 -0.77469915858E+03 -0.29792689867E+03 -0.71448701200E+02  0.84700401013E+03  0.15294330000E+03 0.  0.
    8880022    1    1    2    0    0  0.77469915858E+03  0.29792689867E+03  0.21958146310E+04  0.23524269957E+04  0.15294330000E+03 0.  0.
<mgrwt>
<rscale>  0 0.84398512E+03</rscale>
<asrwt>0</asrwt>
<pdfrwt beam="1">  1        1 0.82697314E-01 0.84398512E+03</pdfrwt>
<pdfrwt beam="2">  1       -1 0.40952284E+00 0.84398512E+03</pdfrwt>
<totfact> 0.26017600E-01</totfact>
</mgrwt>
</event>
<event>
 4    1  0.2731969E-009  0.5765641E+03  0.7818608E-02  0.9955257E-01
         -1   -1    0    0    0  501 -0.00000000000E+00  0.00000000000E+00  0.70654167858E+03  0.70654167860E+03  0.50400000000E-02 0.  1.
          1   -1    0    0  501    0  0.00000000000E+00 -0.00000000000E+00 -0.16261910955E+04  0.16261910956E+04  0.50400000000E-02 0. -1.
    8880022    1    1    2    0    0  0.21241561870E+03 -0.51372572622E+03  0.52344019786E+03  0.77872704499E+03  0.15294330000E+03 0.  0.
    8880022    1    1    2    0    0 -0.21241561870E+03  0.51372572622E+03 -0.14430896148E+04  0.15540057292E+04  0.15294330000E+03 0.  0.
<mgrwt>
<rscale>  0 0.57656411E+03</rscale>
<asrwt>0</asrwt>
<pdfrwt beam="1">  1        1 0.25018324E+00 0.57656411E+03</pdfrwt>
<pdfrwt beam="2">  1       -1 0.10869872E+00 0.57656411E+03</pdfrwt>
<totfact> 0.45420461E+00</totfact>
</mgrwt>
</event>
<event>
 4    1  0.2731969E-009  0.1269202E+04  0.7818608E-02  0.9054351E-01
          1   -1    0    0  501    0  0.00000000000E+00  0.00000000000E+00  0.15928377680E+04  0.15928377680E+04  0.50400000000E-02 0. -1.
         -1   -1    0    0    0  501 -0.00000000000E+00 -0.00000000000E+00 -0.12059858698E+04  0.12059858698E+04  0.50400000000E-02 0.  1.
    8880022    1    1    2    0    0 -0.79474024167E+03  0.97768591407E+03  0.75565852055E+03  0.14771233026E+04  0.15294330000E+03 0.  0.
    8880022    1    1    2    0    0  0.79474024167E+03 -0.97768591407E+03 -0.36880662234E+03  0.13217003352E+04  0.15294330000E+03 0.  0.
<mgrwt>
<rscale>  0 0.12692019E+04</rscale>
<asrwt>0</asrwt>
<pdfrwt beam="1">  1        1 0.24505196E+00 0.12692019E+04</pdfrwt>
<pdfrwt beam="2">  1       -1 0.18553629E+00 0.12692019E+04</pdfrwt>
<totfact> 0.10421532E+00</totfact>
</mgrwt>
</event>
<event>
 4    1  0.2731969E-009  0.3981619E+03  0.7818608E-02  0.1044418E+00
         -1   -1    0    0    0  501 -0.00000000000E+00  0.00000000000E+00  0.11180908212E+03  0.11180908223E+03  0.50400000000E-02 0.  1.
          1   -1    0    0  501    0  0.00000000000E+00 -0.00000000000E+00 -0.15916148791E+04  0.15916148791E+04  0.50400000000E-02 0. -1.
    8880022    1    1    2    0    0 -0.20321960015E+03  0.30633815104E+03 -0.10212907975E+04  0.10961604877E+04  0.15294330000E+03 0.  0.
    8880022    1    1    2    0    0  0.20321960015E+03 -0.30633815104E+03 -0.45851499940E+03  0.60726347359E+03  0.15294330000E+03 0.  0.
<mgrwt>
<rscale>  0 0.39816193E+03</rscale>
<asrwt>0</asrwt>
<pdfrwt beam="1">  1        1 0.24486381E+00 0.39816193E+03</pdfrwt>
<pdfrwt beam="2">  1       -1 0.17201398E-01 0.39816193E+03</pdfrwt>
<totfact> 0.15780218E+02</totfact>
</mgrwt>
</event>
<event>
 4    1  0.2731969E-009  0.4415328E+03  0.7818608E-02  0.1030278E+00
         -1   -1    0    0    0  501 -0.00000000000E+00  0.00000000000E+00  0.14237157200E+04  0.14237157200E+04  0.50400000000E-02 0.  1.
          1   -1    0    0  501    0  0.00000000000E+00 -0.00000000000E+00 -0.18017380211E+04  0.18017380211E+04  0.50400000000E-02 0. -1.
    8880022    1    1    2    0    0 -0.28859652296E+03  0.29710544152E+03  0.13612216090E+04  0.14310400128E+04  0.15294330000E+03 0.  0.
    8880022    1    1    2    0    0  0.28859652296E+03 -0.29710544152E+03 -0.17392439101E+04  0.17944137283E+04  0.15294330000E+03 0.  0.
<mgrwt>
<rscale>  0 0.44153284E+03</rscale>
<asrwt>0</asrwt>
<pdfrwt beam="1">  1        1 0.27719046E+00 0.44153284E+03</pdfrwt>
<pdfrwt beam="2">  1       -1 0.21903319E+00 0.44153284E+03</pdfrwt>
<totfact> 0.53002172E-01</totfact>
</mgrwt>
</event>
<event>
 4    1  0.2731969E-009  0.2361181E+03  0.7818608E-02  0.1122406E+00
          1   -1    0    0  501    0  0.00000000000E+00  0.00000000000E+00  0.22915062063E+03  0.22915062068E+03  0.50400000000E-02 0. -1.
         -1   -1    0    0    0  501 -0.00000000000E+00 -0.00000000000E+00 -0.91350168942E+03  0.91350168944E+03  0.50400000000E-02 0.  1.
    8880022    1    1    2    0    0  0.82593122279E+02  0.15980760639E+03  0.14718961077E+03  0.27823826020E+03  0.15294330000E+03 0.  0.
    8880022    1    1    2    0    0 -0.82593122279E+02 -0.15980760639E+03 -0.83154067956E+03  0.86441404991E+03  0.15294330000E+03 0.  1.
<mgrwt>
<rscale>  0 0.23611808E+03</rscale>
<asrwt>0</asrwt>
<pdfrwt beam="1">  1        1 0.35253942E-01 0.23611808E+03</pdfrwt>
<pdfrwt beam="2">  1       -1 0.14053872E+00 0.23611808E+03</pdfrwt>
<totfact> 0.56151434E+01</totfact>
</mgrwt>
</event>
<event>
 4    1  0.2731969E-009  0.1246850E+04  0.7818608E-02  0.9072809E-01
         -1   -1    0    0    0  501 -0.00000000000E+00  0.00000000000E+00  0.13340885468E+04  0.13340885468E+04  0.50400000000E-02 0.  1.
          1   -1    0    0  501    0  0.00000000000E+00 -0.00000000000E+00 -0.21646131391E+04  0.21646131392E+04  0.50400000000E-02 0. -1.
    8880022    1    1    2    0    0  0.75623842295E+03  0.97946254692E+03 -0.16038576748E+04  0.20315005605E+04  0.15294330000E+03 0.  0.
    8880022    1    1    2    0    0 -0.75623842295E+03 -0.97946254692E+03  0.77333308252E+03  0.14672011255E+04  0.15294330000E+03 0.  0.
<mgrwt>
<rscale>  0 0.12468501E+04</rscale>
<asrwt>0</asrwt>
<pdfrwt beam="1">  1        1 0.33301741E+00 0.12468501E+04</pdfrwt>
<pdfrwt beam="2">  1       -1 0.20524439E+00 0.12468501E+04</pdfrwt>
<totfact> 0.31138207E-01</totfact>
</mgrwt>
</event>
<event>
 4    1  0.2731969E-009  0.1047226E+04  0.7818608E-02  0.9258212E-01
         -1   -1    0    0    0  501 -0.00000000000E+00  0.00000000000E+00  0.94458624667E+03  0.94458624668E+03  0.50400000000E-02 0.  1.
          1   -1    0    0  501    0  0.00000000000E+00 -0.00000000000E+00 -0.16035683054E+04  0.16035683054E+04  0.50400000000E-02 0. -1.
    8880022    1    1    2    0    0  0.58028216984E+03 -0.85823312583E+03  0.33982707815E+03  0.11009839195E+04  0.15294330000E+03 0.  0.
    8880022    1    1    2    0    0 -0.58028216984E+03  0.85823312583E+03 -0.99880913685E+03  0.14471706326E+04  0.15294330000E+03 0.  0.
<mgrwt>
<rscale>  0 0.10472264E+04</rscale>
<asrwt>0</asrwt>
<pdfrwt beam="1">  1        1 0.24670282E+00 0.10472264E+04</pdfrwt>
<pdfrwt beam="2">  1       -1 0.14532096E+00 0.10472264E+04</pdfrwt>
<totfact> 0.21075411E+00</totfact>
</mgrwt>
</event>
<event>
 4    1  0.2731969E-009  0.9207983E+03  0.7818608E-02  0.9399950E-01
         -1   -1    0    0    0  501 -0.00000000000E+00  0.00000000000E+00  0.93642000711E+03  0.93642000712E+03  0.50400000000E-02 0.  1.
          1   -1    0    0  501    0  0.00000000000E+00 -0.00000000000E+00 -0.16833660951E+04  0.16833660951E+04  0.50400000000E-02 0. -1.
    8880022    1    1    2    0    0  0.88710276609E+03  0.19371779534E+03 -0.12639372941E+04  0.15637797282E+04  0.15294330000E+03 0.  0.
    8880022    1    1    2    0    0 -0.88710276609E+03 -0.19371779534E+03  0.51699120611E+03  0.10560063741E+04  0.15294330000E+03 0.  0.
<mgrwt>
<rscale>  0 0.92079832E+03</rscale>
<asrwt>0</asrwt>
<pdfrwt beam="1">  1        1 0.25897940E+00 0.92079832E+03</pdfrwt>
<pdfrwt beam="2">  1       -1 0.14406462E+00 0.92079832E+03</pdfrwt>
<totfact> 0.19380724E+00</totfact>
</mgrwt>
</event>
<event>
 4    1  0.2731969E-009  0.6990400E+03  0.7818608E-02  0.9718875E-01
          1   -1    0    0  501    0  0.00000000000E+00  0.00000000000E+00  0.23662981575E+04  0.23662981575E+04  0.50400000000E-02 0. -1.
         -1   -1    0    0    0  501 -0.00000000000E+00 -0.00000000000E+00 -0.63287877774E+03  0.63287877776E+03  0.50400000000E-02 0.  1.
    8880022    1    1    2    0    0 -0.65239638223E+02 -0.67897652476E+03 -0.36414301031E+03  0.78819865297E+03  0.15294330000E+03 0.  0.
    8880022    1    1    2    0    0  0.65239638223E+02  0.67897652476E+03  0.20975623900E+04  0.22109782823E+04  0.15294330000E+03 0.  0.
<mgrwt>
<rscale>  0 0.69904005E+03</rscale>
<asrwt>0</asrwt>
<pdfrwt beam="1">  1        1 0.36404586E+00 0.69904005E+03</pdfrwt>
<pdfrwt beam="2">  1       -1 0.97365968E-01 0.69904005E+03</pdfrwt>
<totfact> 0.18222099E+00</totfact>
</mgrwt>
</event>
<event>
 4    1  0.2731969E-009  0.4584873E+03  0.7818608E-02  0.1025221E+00
          1   -1    0    0  501    0  0.00000000000E+00  0.00000000000E+00  0.26071202934E+04  0.26071202934E+04  0.50400000000E-02 0. -1.
         -1   -1    0    0    0  501 -0.00000000000E+00 -0.00000000000E+00 -0.14685615567E+03  0.14685615575E+03  0.50400000000E-02 0.  1.
    8880022    1    1    2    0    0  0.74229225564E+02  0.42580396085E+03  0.30543226737E+03  0.55090789972E+03  0.15294330000E+03 0.  1.
    8880022    1    1    2    0    0 -0.74229225564E+02 -0.42580396085E+03  0.21548318703E+04  0.22030685494E+04  0.15294330000E+03 0.  0.
<mgrwt>
<rscale>  0 0.45848734E+03</rscale>
<asrwt>0</asrwt>
<pdfrwt beam="1">  1        1 0.40109540E+00 0.45848734E+03</pdfrwt>
<pdfrwt beam="2">  1       -1 0.22593256E-01 0.45848734E+03</pdfrwt>
<totfact> 0.21059554E+01</totfact>
</mgrwt>
</event>
<event>
 4    1  0.2731969E-009  0.6769430E+03  0.7818608E-02  0.9757496E-01
         -1   -1    0    0    0  501 -0.00000000000E+00  0.00000000000E+00  0.39880245138E+03  0.39880245141E+03  0.50400000000E-02 0.  1.
          1   -1    0    0  501    0  0.00000000000E+00 -0.00000000000E+00 -0.21094349519E+04  0.21094349519E+04  0.50400000000E-02 0. -1.
    8880022    1    1    2    0    0 -0.28118035933E+03  0.59648786715E+03 -0.17015177460E+04  0.18312330444E+04  0.15294330000E+03 0.  0.
    8880022    1    1    2    0    0  0.28118035933E+03 -0.59648786715E+03 -0.91147545129E+01  0.67700435885E+03  0.15294330000E+03 0.  0.
<mgrwt>
<rscale>  0 0.67694300E+03</rscale>
<asrwt>0</asrwt>
<pdfrwt beam="1">  1        1 0.32452845E+00 0.67694300E+03</pdfrwt>
<pdfrwt beam="2">  1       -1 0.61354225E-01 0.67694300E+03</pdfrwt>
<totfact> 0.71947066E+00</totfact>
</mgrwt>
</event>
<event>
 4    1  0.2731969E-009  0.6799126E+03  0.7818608E-02  0.9752215E-01
         -1   -1    0    0    0  501 -0.00000000000E+00  0.00000000000E+00  0.24422935463E+04  0.24422935463E+04  0.50400000000E-02 0.  1.
          1   -1    0    0  501    0  0.00000000000E+00 -0.00000000000E+00 -0.25050283103E+03  0.25050283108E+03  0.50400000000E-02 0. -1.
    8880022    1    1    2    0    0 -0.57504914287E+03  0.32894983473E+03  0.17615030393E+04  0.18881668679E+04  0.15294330000E+03 0.  0.
    8880022    1    1    2    0    0  0.57504914287E+03 -0.32894983473E+03  0.43028767600E+03  0.80462950954E+03  0.15294330000E+03 0.  0.
<mgrwt>
<rscale>  0 0.67991261E+03</rscale>
<asrwt>0</asrwt>
<pdfrwt beam="1">  1        1 0.38538897E-01 0.67991261E+03</pdfrwt>
<pdfrwt beam="2">  1       -1 0.37573747E+00 0.67991261E+03</pdfrwt>
<totfact> 0.12485025E+00</totfact>
</mgrwt>
</event>
<event>
 4    1  0.2731969E-009  0.6947047E+03  0.7818608E-02  0.9726331E-01
         -1   -1    0    0    0  501 -0.00000000000E+00  0.00000000000E+00  0.74124177599E+03  0.74124177601E+03  0.50400000000E-02 0.  1.
          1   -1    0    0  501    0  0.00000000000E+00 -0.00000000000E+00 -0.12087082387E+04  0.12087082387E+04  0.50400000000E-02 0. -1.
    8880022    1    1    2    0    0 -0.10958884326E+03 -0.66874004269E+03  0.42848554048E+03  0.81621962159E+03  0.15294330000E+03 0.  0.
    8880022    1    1    2    0    0  0.10958884326E+03  0.66874004269E+03 -0.89595200319E+03  0.11337303931E+04  0.15294330000E+03 0.  0.
<mgrwt>
<rscale>  0 0.69470469E+03</rscale>
<asrwt>0</asrwt>
<pdfrwt beam="1">  1        1 0.18595511E+00 0.69470469E+03</pdfrwt>
<pdfrwt beam="2">  1       -1 0.11403720E+00 0.69470469E+03</pdfrwt>
<totfact> 0.77074511E+00</totfact>
</mgrwt>
</event>
<event>
 4    1  0.2731969E-009  0.5815794E+03  0.7818608E-02  0.9944378E-01
          1   -1    0    0  501    0  0.00000000000E+00  0.00000000000E+00  0.94809946492E+03  0.94809946493E+03  0.50400000000E-02 0. -1.
         -1   -1    0    0    0  501 -0.00000000000E+00 -0.00000000000E+00 -0.59953143907E+03  0.59953143909E+03  0.50400000000E-02 0.  1.
    8880022    1    1    2    0    0  0.52252131894E+03  0.20448561594E+03 -0.31813985621E+03  0.66290837753E+03  0.15294330000E+03 0.  0.
    8880022    1    1    2    0    0 -0.52252131894E+03 -0.20448561594E+03  0.66670788205E+03  0.88472252649E+03  0.15294330000E+03 0. -1.
<mgrwt>
<rscale>  0 0.58157936E+03</rscale>
<asrwt>0</asrwt>
<pdfrwt beam="1">  1        1 0.14586146E+00 0.58157936E+03</pdfrwt>
<pdfrwt beam="2">  1       -1 0.92235606E-01 0.58157936E+03</pdfrwt>
<totfact> 0.20029925E+01</totfact>
</mgrwt>
</event>
<event>
 4    1  0.2731969E-009  0.1094417E+04  0.7818608E-02  0.9210651E-01
         -1   -1    0    0    0  501 -0.00000000000E+00  0.00000000000E+00  0.31754305708E+03  0.31754305712E+03  0.50400000000E-02 0.  1.
          1   -1    0    0  501    0  0.00000000000E+00 -0.00000000000E+00 -0.50203774363E+04  0.50203774363E+04  0.50400000000E-02 0. -1.
    8880022    1    1    2    0    0 -0.86998344382E+03  0.64613138822E+03 -0.36823615793E+04  0.38415537765E+04  0.15294330000E+03 0.  0.
    8880022    1    1    2    0    0  0.86998344382E+03 -0.64613138822E+03 -0.10204727999E+04  0.14963667170E+04  0.15294330000E+03 0.  0.
<mgrwt>
<rscale>  0 0.10944170E+04</rscale>
<asrwt>0</asrwt>
<pdfrwt beam="1">  1        1 0.77236570E+00 0.10944170E+04</pdfrwt>
<pdfrwt beam="2">  1       -1 0.48852782E-01 0.10944170E+04</pdfrwt>
<totfact> 0.36765452E-02</totfact>
</mgrwt>
</event>
<event>
 4    1  0.2731969E-009  0.6059805E+03  0.7818608E-02  0.9893075E-01
          1   -1    0    0  501    0  0.00000000000E+00  0.00000000000E+00  0.18848421398E+04  0.18848421398E+04  0.50400000000E-02 0. -1.
         -1   -1    0    0    0  501 -0.00000000000E+00 -0.00000000000E+00 -0.56844259606E+03  0.56844259609E+03  0.50400000000E-02 0.  1.
    8880022    1    1    2    0    0  0.41591548977E+02  0.58488536925E+03 -0.33626389512E+03  0.69302655958E+03  0.15294330000E+03 0.  0.
    8880022    1    1    2    0    0 -0.41591548977E+02 -0.58488536925E+03  0.16526634389E+04  0.17602581763E+04  0.15294330000E+03 0.  0.
<mgrwt>
<rscale>  0 0.60598053E+03</rscale>
<asrwt>0</asrwt>
<pdfrwt beam="1">  1        1 0.28997572E+00 0.60598053E+03</pdfrwt>
<pdfrwt beam="2">  1       -1 0.87452707E-01 0.60598053E+03</pdfrwt>
<totfact> 0.49480510E+00</totfact>
</mgrwt>
</event>
<event>
 4    1  0.2731969E-009  0.6847037E+03  0.7818608E-02  0.9743755E-01
          1   -1    0    0  501    0  0.00000000000E+00  0.00000000000E+00  0.12055778270E+04  0.12055778270E+04  0.50400000000E-02 0. -1.
         -1   -1    0    0    0  501 -0.00000000000E+00 -0.00000000000E+00 -0.15490591122E+04  0.15490591122E+04  0.50400000000E-02 0.  1.
    8880022    1    1    2    0    0 -0.66185389880E+03  0.85888624014E+02  0.10202252557E+04  0.12286898163E+04  0.15294330000E+03 0.  0.
    8880022    1    1    2    0    0  0.66185389880E+03 -0.85888624014E+02 -0.13637065409E+04  0.15259471229E+04  0.15294330000E+03 0.  0.
<mgrwt>
<rscale>  0 0.68470365E+03</rscale>
<asrwt>0</asrwt>
<pdfrwt beam="1">  1        1 0.18547351E+00 0.68470365E+03</pdfrwt>
<pdfrwt beam="2">  1       -1 0.23831679E+00 0.68470365E+03</pdfrwt>
<totfact> 0.94025176E-01</totfact>
</mgrwt>
</event>
<event>
 4    1  0.2731969E-009  0.9314141E+03  0.7818608E-02  0.9387142E-01
         -1   -1    0    0    0  501 -0.00000000000E+00  0.00000000000E+00  0.46379895438E+03  0.46379895440E+03  0.50400000000E-02 0.  1.
          1   -1    0    0  501    0  0.00000000000E+00 -0.00000000000E+00 -0.20594507695E+04  0.20594507695E+04  0.50400000000E-02 0. -1.
    8880022    1    1    2    0    0 -0.28956812187E+03  0.87194657797E+03 -0.41567211123E+03  0.10199585722E+04  0.15294330000E+03 0.  0.
    8880022    1    1    2    0    0  0.28956812187E+03 -0.87194657797E+03 -0.11799797039E+04  0.15032911516E+04  0.15294330000E+03 0.  0.
<mgrwt>
<rscale>  0 0.93141408E+03</rscale>
<asrwt>0</asrwt>
<pdfrwt beam="1">  1        1 0.31683858E+00 0.93141408E+03</pdfrwt>
<pdfrwt beam="2">  1       -1 0.71353686E-01 0.93141408E+03</pdfrwt>
<totfact> 0.55009033E+00</totfact>
</mgrwt>
</event>
<event>
 4    1  0.2731969E-009  0.7018662E+03  0.7818608E-02  0.9714046E-01
          1   -1    0    0  501    0  0.00000000000E+00  0.00000000000E+00  0.28764781200E+04  0.28764781200E+04  0.50400000000E-02 0. -1.
         -1   -1    0    0    0  501 -0.00000000000E+00 -0.00000000000E+00 -0.25508276670E+03  0.25508276675E+03  0.50400000000E-02 0.  1.
    8880022    1    1    2    0    0  0.68325170741E+03  0.48903938605E+02  0.41310385358E+03  0.81441447541E+03  0.15294330000E+03 0.  1.
    8880022    1    1    2    0    0 -0.68325170741E+03 -0.48903938605E+02  0.22082914997E+04  0.23171464113E+04  0.15294330000E+03 0.  0.
<mgrwt>
<rscale>  0 0.70186619E+03</rscale>
<asrwt>0</asrwt>
<pdfrwt beam="1">  1        1 0.44253510E+00 0.70186619E+03</pdfrwt>
<pdfrwt beam="2">  1       -1 0.39243502E-01 0.70186619E+03</pdfrwt>
<totfact> 0.49827113E+00</totfact>
</mgrwt>
</event>
<event>
 4    1  0.2731969E-009  0.1247614E+04  0.7818608E-02  0.9072172E-01
          1   -1    0    0  501    0  0.00000000000E+00  0.00000000000E+00  0.40771578367E+04  0.40771578367E+04  0.50400000000E-02 0. -1.
         -1   -1    0    0    0  501 -0.00000000000E+00 -0.00000000000E+00 -0.74691249531E+03  0.74691249533E+03  0.50400000000E-02 0.  1.
    8880022    1    1    2    0    0 -0.88610543603E+03 -0.86485016824E+03  0.33515957517E+04  0.35762738141E+04  0.15294330000E+03 0.  0.
    8880022    1    1    2    0    0  0.88610543603E+03  0.86485016824E+03 -0.21350410296E+02  0.12477965180E+04  0.15294330000E+03 0.  0.
<mgrwt>
<rscale>  0 0.12476138E+04</rscale>
<asrwt>0</asrwt>
<pdfrwt beam="1">  1        1 0.62725506E+00 0.12476138E+04</pdfrwt>
<pdfrwt beam="2">  1       -1 0.11490961E+00 0.12476138E+04</pdfrwt>
<totfact> 0.56739324E-02</totfact>
</mgrwt>
</event>
<event>
 4    1  0.2731969E-009  0.8624728E+03  0.7818608E-02  0.9473748E-01
         -1   -1    0    0    0  501 -0.00000000000E+00  0.00000000000E+00  0.54005535400E+03  0.54005535403E+03  0.50400000000E-02 0.  1.
          1   -1    0    0  501    0  0.00000000000E+00 -0.00000000000E+00 -0.15533151589E+04  0.15533151589E+04  0.50400000000E-02 0. -1.
    8880022    1    1    2    0    0 -0.83013739746E+03 -0.17702993626E+03 -0.15436658579E+03  0.87617828826E+03  0.15294330000E+03 0.  0.
    8880022    1    1    2    0    0  0.83013739746E+03  0.17702993626E+03 -0.85889321914E+03  0.12171922247E+04  0.15294330000E+03 0.  0.
<mgrwt>
<rscale>  0 0.86247281E+03</rscale>
<asrwt>0</asrwt>
<pdfrwt beam="1">  1        1 0.23897156E+00 0.86247281E+03</pdfrwt>
<pdfrwt beam="2">  1       -1 0.83085440E-01 0.86247281E+03</pdfrwt>
<totfact> 0.88435633E+00</totfact>
</mgrwt>
</event>
<event>
 4    1  0.2731969E-009  0.2641778E+03  0.7818608E-02  0.1104659E+00
         -1   -1    0    0    0  501 -0.00000000000E+00  0.00000000000E+00  0.31162019856E+03  0.31162019860E+03  0.50400000000E-02 0.  1.
          1   -1    0    0  501    0  0.00000000000E+00 -0.00000000000E+00 -0.94953988313E+03  0.94953988315E+03  0.50400000000E-02 0. -1.
    8880022    1    1    2    0    0  0.46618626433E+02 -0.21029729079E+03  0.23226244537E+03  0.35176091794E+03  0.15294330000E+03 0.  1.
    8880022    1    1    2    0    0 -0.46618626433E+02  0.21029729079E+03 -0.87018212995E+03  0.90939916381E+03  0.15294330000E+03 0.  0.
<mgrwt>
<rscale>  0 0.26417778E+03</rscale>
<asrwt>0</asrwt>
<pdfrwt beam="1">  1        1 0.14608306E+00 0.26417778E+03</pdfrwt>
<pdfrwt beam="2">  1       -1 0.47941569E-01 0.26417778E+03</pdfrwt>
<totfact> 0.78841842E+01</totfact>
</mgrwt>
</event>
<event>
 4    1  0.2731969E-009  0.1596419E+04  0.7818608E-02  0.8822751E-01
          1   -1    0    0  501    0  0.00000000000E+00  0.00000000000E+00  0.21139442251E+04  0.21139442251E+04  0.50400000000E-02 0. -1.
         -1   -1    0    0    0  501 -0.00000000000E+00 -0.00000000000E+00 -0.17985199058E+04  0.17985199058E+04  0.50400000000E-02 0.  1.
    8880022    1    1    2    0    0  0.15475465721E+04  0.36091562749E+03  0.12809301731E+04  0.20467863211E+04  0.15294330000E+03 0.  0.
    8880022    1    1    2    0    0 -0.15475465721E+04 -0.36091562749E+03 -0.96550585387E+03  0.18656778098E+04  0.15294330000E+03 0.  0.
<mgrwt>
<rscale>  0 0.15964185E+04</rscale>
<asrwt>0</asrwt>
<pdfrwt beam="1">  1        1 0.32522219E+00 0.15964185E+04</pdfrwt>
<pdfrwt beam="2">  1       -1 0.27669537E+00 0.15964185E+04</pdfrwt>
<totfact> 0.10862943E-01</totfact>
</mgrwt>
</event>
<event>
 4    1  0.2731969E-009  0.3682367E+03  0.7818608E-02  0.1055369E+00
         -1   -1    0    0    0  501 -0.00000000000E+00  0.00000000000E+00  0.76140795494E+03  0.76140795495E+03  0.50400000000E-02 0.  1.
          1   -1    0    0  501    0  0.00000000000E+00 -0.00000000000E+00 -0.18478861026E+04  0.18478861026E+04  0.50400000000E-02 0. -1.
    8880022    1    1    2    0    0  0.33354353687E+03 -0.30908743404E+02 -0.17834264213E+04  0.18210458793E+04  0.15294330000E+03 0.  0.
    8880022    1    1    2    0    0 -0.33354353687E+03  0.30908743404E+02  0.69694827362E+03  0.78824817825E+03  0.15294330000E+03 0.  0.
<mgrwt>
<rscale>  0 0.36823674E+03</rscale>
<asrwt>0</asrwt>
<pdfrwt beam="1">  1        1 0.28429017E+00 0.36823674E+03</pdfrwt>
<pdfrwt beam="2">  1       -1 0.11713969E+00 0.36823674E+03</pdfrwt>
<totfact> 0.28910236E+00</totfact>
</mgrwt>
</event>
<event>
 4    1  0.2731969E-009  0.4099277E+03  0.7818608E-02  0.1040395E+00
          1   -1    0    0  501    0  0.00000000000E+00  0.00000000000E+00  0.46282707771E+03  0.46282707774E+03  0.50400000000E-02 0. -1.
         -1   -1    0    0    0  501 -0.00000000000E+00 -0.00000000000E+00 -0.76262786184E+03  0.76262786185E+03  0.50400000000E-02 0.  1.
    8880022    1    1    2    0    0  0.35095007264E+03 -0.14657120643E+03 -0.59340526292E+03  0.72122848746E+03  0.15294330000E+03 0.  0.
    8880022    1    1    2    0    0 -0.35095007264E+03  0.14657120643E+03  0.29360447880E+03  0.50422645213E+03  0.15294330000E+03 0.  0.
<mgrwt>
<rscale>  0 0.40992771E+03</rscale>
<asrwt>0</asrwt>
<pdfrwt beam="1">  1        1 0.71204166E-01 0.40992771E+03</pdfrwt>
<pdfrwt beam="2">  1       -1 0.11732736E+00 0.40992771E+03</pdfrwt>
<totfact> 0.34408703E+01</totfact>
</mgrwt>
</event>
<event>
 4    1  0.2731969E-009  0.9397392E+03  0.7818608E-02  0.9377225E-01
         -1   -1    0    0    0  501 -0.00000000000E+00  0.00000000000E+00  0.82746564051E+03  0.82746564053E+03  0.50400000000E-02 0.  1.
          1   -1    0    0  501    0  0.00000000000E+00 -0.00000000000E+00 -0.30228207715E+04  0.30228207715E+04  0.50400000000E-02 0. -1.
    8880022    1    1    2    0    0  0.78268522693E+03  0.49711365496E+03  0.45076107440E+03  0.10422549350E+04  0.15294330000E+03 0.  0.
    8880022    1    1    2    0    0 -0.78268522693E+03 -0.49711365496E+03 -0.26461162054E+04  0.28080314770E+04  0.15294330000E+03 0.  0.
<mgrwt>
<rscale>  0 0.93973922E+03</rscale>
<asrwt>0</asrwt>
<pdfrwt beam="1">  1        1 0.46504935E+00 0.93973922E+03</pdfrwt>
<pdfrwt beam="2">  1       -1 0.12730241E+00 0.93973922E+03</pdfrwt>
<totfact> 0.31990553E-01</totfact>
</mgrwt>
</event>
<event>
 4    1  0.2731969E-009  0.2053401E+04  0.7818608E-02  0.8582053E-01
         -1   -1    0    0    0  501 -0.00000000000E+00  0.00000000000E+00  0.17589993292E+04  0.17589993292E+04  0.50400000000E-02 0.  1.
          1   -1    0    0  501    0  0.00000000000E+00 -0.00000000000E+00 -0.31873653320E+04  0.31873653320E+04  0.50400000000E-02 0. -1.
    8880022    1    1    2    0    0  0.19548543737E+04  0.60959540827E+03  0.51731430417E+03  0.21175617881E+04  0.15294330000E+03 0.  0.
    8880022    1    1    2    0    0 -0.19548543737E+04 -0.60959540827E+03 -0.19456803070E+04  0.28288028730E+04  0.15294330000E+03 0.  0.
<mgrwt>
<rscale>  0 0.20534006E+04</rscale>
<asrwt>0</asrwt>
<pdfrwt beam="1">  1        1 0.49036390E+00 0.20534006E+04</pdfrwt>
<pdfrwt beam="2">  1       -1 0.27061528E+00 0.20534006E+04</pdfrwt>
<totfact> 0.19620465E-02</totfact>
</mgrwt>
</event>
<event>
 4    1  0.2731969E-009  0.4363930E+03  0.7818608E-02  0.1031859E+00
          1   -1    0    0  501    0  0.00000000000E+00  0.00000000000E+00  0.24054110274E+04  0.24054110274E+04  0.50400000000E-02 0. -1.
         -1   -1    0    0    0  501 -0.00000000000E+00 -0.00000000000E+00 -0.11003484357E+03  0.11003484369E+03  0.50400000000E-02 0.  1.
    8880022    1    1    2    0    0 -0.40837282235E+03 -0.16698013606E+02  0.18137962410E+04  0.18655550494E+04  0.15294330000E+03 0.  0.
    8880022    1    1    2    0    0  0.40837282235E+03  0.16698013606E+02  0.48157994282E+03  0.64989082163E+03  0.15294330000E+03 0.  0.
<mgrwt>
<rscale>  0 0.43639299E+03</rscale>
<asrwt>0</asrwt>
<pdfrwt beam="1">  1        1 0.37006323E+00 0.43639299E+03</pdfrwt>
<pdfrwt beam="2">  1       -1 0.16928438E-01 0.43639299E+03</pdfrwt>
<totfact> 0.46581705E+01</totfact>
</mgrwt>
</event>
<event>
 4    1  0.2731969E-009  0.9705006E+03  0.7818608E-02  0.9341504E-01
          1   -1    0    0  501    0  0.00000000000E+00  0.00000000000E+00  0.20296450650E+04  0.20296450650E+04  0.50400000000E-02 0. -1.
         -1   -1    0    0    0  501 -0.00000000000E+00 -0.00000000000E+00 -0.54881202754E+03  0.54881202756E+03  0.50400000000E-02 0.  1.
    8880022    1    1    2    0    0 -0.57881850733E+03  0.76383824286E+03  0.12470575504E+04  0.15801974284E+04  0.15294330000E+03 0.  0.
    8880022    1    1    2    0    0  0.57881850733E+03 -0.76383824286E+03  0.23377548703E+03  0.99825966413E+03  0.15294330000E+03 0.  0.
<mgrwt>
<rscale>  0 0.97050058E+03</rscale>
<asrwt>0</asrwt>
<pdfrwt beam="1">  1        1 0.31225308E+00 0.97050058E+03</pdfrwt>
<pdfrwt beam="2">  1       -1 0.84432622E-01 0.97050058E+03</pdfrwt>
<totfact> 0.40144036E+00</totfact>
</mgrwt>
</event>
<event>
 4    1  0.2731969E-009  0.1153972E+04  0.7818608E-02  0.9154127E-01
         -1   -1    0    0    0  501 -0.00000000000E+00  0.00000000000E+00  0.18375443888E+04  0.18375443888E+04  0.50400000000E-02 0.  1.
          1   -1    0    0  501    0  0.00000000000E+00 -0.00000000000E+00 -0.10790626221E+04  0.10790626221E+04  0.50400000000E-02 0. -1.
    8880022    1    1    2    0    0  0.64562176398E+03 -0.94415746458E+03 -0.45646580743E+03  0.12409727904E+04  0.15294330000E+03 0.  0.
    8880022    1    1    2    0    0 -0.64562176398E+03  0.94415746458E+03  0.12149475742E+04  0.16756342205E+04  0.15294330000E+03 0.  0.
<mgrwt>
<rscale>  0 0.11539725E+04</rscale>
<asrwt>0</asrwt>
<pdfrwt beam="1">  1        1 0.16600964E+00 0.11539725E+04</pdfrwt>
<pdfrwt beam="2">  1       -1 0.28269913E+00 0.11539725E+04</pdfrwt>
<totfact> 0.55638306E-01</totfact>
</mgrwt>
</event>
<event>
 4    1  0.2731969E-009  0.2130884E+04  0.7818608E-02  0.8547760E-01
         -1   -1    0    0    0  501 -0.00000000000E+00  0.00000000000E+00  0.18813424205E+04  0.18813424206E+04  0.50400000000E-02 0.  1.
          1   -1    0    0  501    0  0.00000000000E+00 -0.00000000000E+00 -0.26020982576E+04  0.26020982576E+04  0.50400000000E-02 0. -1.
    8880022    1    1    2    0    0  0.10366227022E+04  0.18554477742E+04  0.24309948206E+03  0.21447055930E+04  0.15294330000E+03 0.  0.
    8880022    1    1    2    0    0 -0.10366227022E+04 -0.18554477742E+04 -0.96385531914E+03  0.23387350852E+04  0.15294330000E+03 0.  0.
<mgrwt>
<rscale>  0 0.21308836E+04</rscale>
<asrwt>0</asrwt>
<pdfrwt beam="1">  1        1 0.40032281E+00 0.21308836E+04</pdfrwt>
<pdfrwt beam="2">  1       -1 0.28943729E+00 0.21308836E+04</pdfrwt>
<totfact> 0.38962110E-02</totfact>
</mgrwt>
</event>
<event>
 4    1  0.2731969E-009  0.1584771E+04  0.7818608E-02  0.8829959E-01
          1   -1    0    0  501    0  0.00000000000E+00  0.00000000000E+00  0.37360485011E+04  0.37360485011E+04  0.50400000000E-02 0. -1.
         -1   -1    0    0    0  501 -0.00000000000E+00 -0.00000000000E+00 -0.10680415323E+04  0.10680415323E+04  0.50400000000E-02 0.  1.
    8880022    1    1    2    0    0 -0.57278570340E+03 -0.14697024281E+04 -0.12827091489E+03  0.15899540150E+04  0.15294330000E+03 0.  0.
    8880022    1    1    2    0    0  0.57278570340E+03  0.14697024281E+04  0.27962778837E+04  0.32141360184E+04  0.15294330000E+03 0.  0.
<mgrwt>
<rscale>  0 0.15847714E+04</rscale>
<asrwt>0</asrwt>
<pdfrwt beam="1">  1        1 0.57477669E+00 0.15847714E+04</pdfrwt>
<pdfrwt beam="2">  1       -1 0.16431408E+00 0.15847714E+04</pdfrwt>
<totfact> 0.41334454E-02</totfact>
</mgrwt>
</event>
<event>
 4    1  0.2731969E-009  0.7433884E+03  0.7818608E-02  0.9645780E-01
          1   -1    0    0  501    0  0.00000000000E+00  0.00000000000E+00  0.90448844808E+03  0.90448844809E+03  0.50400000000E-02 0. -1.
         -1   -1    0    0    0  501 -0.00000000000E+00 -0.00000000000E+00 -0.11581217904E+04  0.11581217904E+04  0.50400000000E-02 0.  1.
    8880022    1    1    2    0    0  0.66536176430E+03 -0.29415714016E+03  0.58204112860E+03  0.94413888221E+03  0.15294330000E+03 0.  0.
    8880022    1    1    2    0    0 -0.66536176430E+03  0.29415714016E+03 -0.83567447094E+03  0.11184713563E+04  0.15294330000E+03 0.  0.
<mgrwt>
<rscale>  0 0.74338843E+03</rscale>
<asrwt>0</asrwt>
<pdfrwt beam="1">  1        1 0.13915207E+00 0.74338843E+03</pdfrwt>
<pdfrwt beam="2">  1       -1 0.17817258E+00 0.74338843E+03</pdfrwt>
<totfact> 0.40209957E+00</totfact>
</mgrwt>
</event>
<event>
 4    1  0.2731969E-009  0.1022940E+04  0.7818608E-02  0.9283737E-01
         -1   -1    0    0    0  501 -0.00000000000E+00  0.00000000000E+00  0.48192570934E+03  0.48192570937E+03  0.50400000000E-02 0.  1.
          1   -1    0    0  501    0  0.00000000000E+00 -0.00000000000E+00 -0.26496831233E+04  0.26496831233E+04  0.50400000000E-02 0. -1.
    8880022    1    1    2    0    0  0.37952675701E+03 -0.93753579252E+03 -0.41856234608E+03  0.11052601559E+04  0.15294330000E+03 0.  0.
    8880022    1    1    2    0    0 -0.37952675701E+03  0.93753579252E+03 -0.17491950678E+04  0.20263486768E+04  0.15294330000E+03 0.  0.
<mgrwt>
<rscale>  0 0.10229397E+04</rscale>
<asrwt>0</asrwt>
<pdfrwt beam="1">  1        1 0.40764355E+00 0.10229397E+04</pdfrwt>
<pdfrwt beam="2">  1       -1 0.74142418E-01 0.10229397E+04</pdfrwt>
<totfact> 0.19852824E+00</totfact>
</mgrwt>
</event>
<event>
 4    1  0.2731969E-009  0.1213926E+04  0.7818608E-02  0.9100754E-01
          1   -1    0    0  501    0  0.00000000000E+00  0.00000000000E+00  0.21715134164E+04  0.21715134164E+04  0.50400000000E-02 0. -1.
         -1   -1    0    0    0  501 -0.00000000000E+00 -0.00000000000E+00 -0.10409011209E+04  0.10409011209E+04  0.50400000000E-02 0.  1.
    8880022    1    1    2    0    0  0.34417114929E+03  0.11540234934E+04  0.15129045752E+04  0.19397154199E+04  0.15294330000E+03 0.  0.
    8880022    1    1    2    0    0 -0.34417114929E+03 -0.11540234934E+04 -0.38229227973E+03  0.12726991174E+04  0.15294330000E+03 0.  0.
<mgrwt>
<rscale>  0 0.12139257E+04</rscale>
<asrwt>0</asrwt>
<pdfrwt beam="1">  1        1 0.33407898E+00 0.12139257E+04</pdfrwt>
<pdfrwt beam="2">  1       -1 0.16013864E+00 0.12139257E+04</pdfrwt>
<totfact> 0.65203446E-01</totfact>
</mgrwt>
</event>
<event>
 4    1  0.2731969E-009  0.1379701E+04  0.7818608E-02  0.8968644E-01
         -1   -1    0    0    0  501 -0.00000000000E+00  0.00000000000E+00  0.24111169269E+04  0.24111169269E+04  0.50400000000E-02 0.  1.
          1   -1    0    0  501    0  0.00000000000E+00 -0.00000000000E+00 -0.95894151417E+03  0.95894151418E+03  0.50400000000E-02 0. -1.
    8880022    1    1    2    0    0 -0.12493845328E+04 -0.56499809313E+03  0.14343948299E+04  0.19902423815E+04  0.15294330000E+03 0.  0.
    8880022    1    1    2    0    0  0.12493845328E+04  0.56499809313E+03  0.17780582818E+02  0.13798160596E+04  0.15294330000E+03 0.  0.
<mgrwt>
<rscale>  0 0.13797015E+04</rscale>
<asrwt>0</asrwt>
<pdfrwt beam="1">  1        1 0.14752947E+00 0.13797015E+04</pdfrwt>
<pdfrwt beam="2">  1       -1 0.37094106E+00 0.13797015E+04</pdfrwt>
<totfact> 0.17759042E-01</totfact>
</mgrwt>
</event>
