<event>
 4    2  0.6387803E-007  0.7000580E+03  0.7818608E-02  0.9996961E-01
          2   -1    0    0  501    0  0.00000000000E+00  0.00000000000E+00  0.40926251533E+03  0.40926251534E+03  0.25500000000E-02 0. -1.
         -2   -1    0    0    0  501 -0.00000000000E+00 -0.00000000000E+00 -0.88211920707E+03  0.88211920708E+03  0.25500000000E-02 0.  1.
    8880023    1    1    2    0    0 -0.12541151600E+03  0.20135263969E+03 -0.65235388009E+03  0.95689431234E+03  0.65864270000E+03 0.  1.
    8880022    1    1    2    0    0  0.12541151600E+03 -0.20135263969E+03  0.17949718835E+03  0.33448741008E+03  0.15294330000E+03 0.  0.
<mgrwt>
<rscale>  0 0.55783697E+03</rscale>
<asrwt>0</asrwt>
<pdfrwt beam="1">  1        2 0.62963464E-01 0.70005795E+03</pdfrwt>
<pdfrwt beam="2">  1       -2 0.13571065E+00 0.70005795E+03</pdfrwt>
<totfact> 0.30641689E+01</totfact>
</mgrwt>
</event>
<event>
 4    2  0.6387803E-007  0.1085137E+04  0.7818608E-02  0.9277788E-01
          2   -1    0    0  501    0  0.00000000000E+00  0.00000000000E+00  0.17929929136E+04  0.17929929136E+04  0.25500000000E-02 0. -1.
         -2   -1    0    0    0  501 -0.00000000000E+00 -0.00000000000E+00 -0.75646435971E+03  0.75646435971E+03  0.25500000000E-02 0.  1.
    8880023    1    1    2    0    0  0.44103389704E+03 -0.74108054257E+03 -0.12763632405E+03  0.10926172735E+04  0.65864270000E+03 0.  1.
    8880022    1    1    2    0    0 -0.44103389704E+03  0.74108054257E+03  0.11641648779E+04  0.14568399997E+04  0.15294330000E+03 0.  0.
<mgrwt>
<rscale>  0 0.10285372E+04</rscale>
<asrwt>0</asrwt>
<pdfrwt beam="1">  1        2 0.27584506E+00 0.10851366E+04</pdfrwt>
<pdfrwt beam="2">  1       -2 0.11637913E+00 0.10851366E+04</pdfrwt>
<totfact> 0.49228965E+00</totfact>
</mgrwt>
</event>
<event>
 4    2  0.6387803E-007  0.7913768E+03  0.7818608E-02  0.9729761E-01
         -2   -1    0    0    0  501 -0.00000000000E+00  0.00000000000E+00  0.35797380405E+03  0.35797380406E+03  0.25500000000E-02 0.  1.
          2   -1    0    0  501    0  0.00000000000E+00 -0.00000000000E+00 -0.19255153901E+04  0.19255153901E+04  0.25500000000E-02 0. -1.
    8880023    1    1    2    0    0 -0.38743777897E+03  0.20581315228E+03 -0.16822597014E+03  0.80905949690E+03  0.65864270000E+03 0.  1.
    8880022    1    1    2    0    0  0.38743777897E+03 -0.20581315228E+03 -0.13993156159E+04  0.14744296973E+04  0.15294330000E+03 0.  0.
<mgrwt>
<rscale>  0 0.69272156E+03</rscale>
<asrwt>0</asrwt>
<pdfrwt beam="1">  1        2 0.29623313E+00 0.79137683E+03</pdfrwt>
<pdfrwt beam="2">  1       -2 0.55072894E-01 0.79137683E+03</pdfrwt>
<totfact> 0.23389660E+01</totfact>
</mgrwt>
</event>
<event>
 4    2  0.6387803E-007  0.7394225E+03  0.7818608E-02  0.9861633E-01
          2   -1    0    0  501    0  0.00000000000E+00  0.00000000000E+00  0.45095265495E+03  0.45095265496E+03  0.25500000000E-02 0. -1.
         -2   -1    0    0    0  501 -0.00000000000E+00 -0.00000000000E+00 -0.96853256072E+03  0.96853256072E+03  0.25500000000E-02 0.  1.
    8880023    1    1    2    0    0 -0.22208216490E+03  0.25221996834E+03 -0.69056735091E+03  0.10117454585E+04  0.65864270000E+03 0.  1.
    8880022    1    1    2    0    0  0.22208216490E+03 -0.25221996834E+03  0.17298744514E+03  0.40773975718E+03  0.15294330000E+03 0.  0.
<mgrwt>
<rscale>  0 0.62157315E+03</rscale>
<asrwt>0</asrwt>
<pdfrwt beam="1">  1        2 0.69377332E-01 0.73942248E+03</pdfrwt>
<pdfrwt beam="2">  1       -2 0.14900501E+00 0.73942248E+03</pdfrwt>
<totfact> 0.21456392E+01</totfact>
</mgrwt>
</event>
<event>
 4    2  0.6387803E-007  0.7167370E+03  0.7818608E-02  0.9933786E-01
          2   -1    0    0  501    0  0.00000000000E+00  0.00000000000E+00  0.89894298099E+03  0.89894298099E+03  0.25500000000E-02 0. -1.
         -2   -1    0    0    0  501 -0.00000000000E+00 -0.00000000000E+00 -0.40724412415E+03  0.40724412416E+03  0.25500000000E-02 0.  1.
    8880023    1    1    2    0    0  0.27894231349E+03  0.45747586608E+02 -0.24199092412E+01  0.71674103982E+03  0.65864270000E+03 0.  1.
    8880022    1    1    2    0    0 -0.27894231349E+03 -0.45747586608E+02  0.49411876608E+03  0.58944606534E+03  0.15294330000E+03 0.  0.
<mgrwt>
<rscale>  0 0.58651466E+03</rscale>
<asrwt>0</asrwt>
<pdfrwt beam="1">  1        2 0.13829892E+00 0.71673695E+03</pdfrwt>
<pdfrwt beam="2">  1       -2 0.62652944E-01 0.71673695E+03</pdfrwt>
<totfact> 0.70525495E+01</totfact>
</mgrwt>
</event>
<event>
 4    2  0.6387803E-007  0.7204031E+03  0.7818608E-02  0.9921224E-01
          2   -1    0    0  501    0  0.00000000000E+00  0.00000000000E+00  0.61982458945E+03  0.61982458946E+03  0.25500000000E-02 0. -1.
         -2   -1    0    0    0  501 -0.00000000000E+00 -0.00000000000E+00 -0.12627634951E+04  0.12627634951E+04  0.25500000000E-02 0.  1.
    8880023    1    1    2    0    0 -0.18798168857E+03 -0.22323367346E+03 -0.11025709323E+04  0.13170585618E+04  0.65864270000E+03 0.  1.
    8880022    1    1    2    0    0  0.18798168857E+03  0.22323367346E+03  0.45963202664E+03  0.56552952277E+03  0.15294330000E+03 0.  0.
<mgrwt>
<rscale>  0 0.59243597E+03</rscale>
<asrwt>0</asrwt>
<pdfrwt beam="1">  1        2 0.95357629E-01 0.72040308E+03</pdfrwt>
<pdfrwt beam="2">  1       -2 0.19427131E+00 0.72040308E+03</pdfrwt>
<totfact> 0.70780968E+00</totfact>
</mgrwt>
</event>
<event>
 4    2  0.6387803E-007  0.7375033E+03  0.7818608E-02  0.9867280E-01
          2   -1    0    0  501    0  0.00000000000E+00  0.00000000000E+00  0.19801240766E+04  0.19801240766E+04  0.25500000000E-02 0. -1.
         -2   -1    0    0    0  501 -0.00000000000E+00 -0.00000000000E+00 -0.16826460170E+03  0.16826460172E+03  0.25500000000E-02 0.  1.
    8880023    1    1    2    0    0  0.26248639287E+03 -0.20298210986E+03  0.88437618498E+03  0.11515347525E+04  0.65864270000E+03 0.  1.
    8880022    1    1    2    0    0 -0.26248639287E+03  0.20298210986E+03  0.92748328993E+03  0.99685392585E+03  0.15294330000E+03 0.  1.
<mgrwt>
<rscale>  0 0.61873554E+03</rscale>
<asrwt>0</asrwt>
<pdfrwt beam="1">  1        2 0.30463449E+00 0.73750325E+03</pdfrwt>
<pdfrwt beam="2">  1       -2 0.25886860E-01 0.73750325E+03</pdfrwt>
<totfact> 0.94743110E+01</totfact>
</mgrwt>
</event>
<event>
 4    2  0.6387803E-007  0.9491877E+03  0.7818608E-02  0.9451284E-01
          2   -1    0    0  501    0  0.00000000000E+00  0.00000000000E+00  0.25367063441E+04  0.25367063441E+04  0.25500000000E-02 0. -1.
         -2   -1    0    0    0  501 -0.00000000000E+00 -0.00000000000E+00 -0.79753326751E+03  0.79753326752E+03  0.25500000000E-02 0.  1.
    8880023    1    1    2    0    0 -0.67906408080E+03 -0.77582563055E+02 -0.43932197673E+03  0.10459259464E+04  0.65864270000E+03 0.  1.
    8880022    1    1    2    0    0  0.67906408080E+03  0.77582563055E+02  0.21784950533E+04  0.22883136652E+04  0.15294330000E+03 0.  0.
<mgrwt>
<rscale>  0 0.87972764E+03</rscale>
<asrwt>0</asrwt>
<pdfrwt beam="1">  1        2 0.39026252E+00 0.94918770E+03</pdfrwt>
<pdfrwt beam="2">  1       -2 0.12269742E+00 0.94918770E+03</pdfrwt>
<totfact> 0.16907950E+00</totfact>
</mgrwt>
</event>
<event>
 4    2  0.6387803E-007  0.7444870E+03  0.7818608E-02  0.9847064E-01
         -2   -1    0    0    0  501 -0.00000000000E+00  0.00000000000E+00  0.29172971593E+03  0.29172971594E+03  0.25500000000E-02 0.  1.
          2   -1    0    0  501    0  0.00000000000E+00 -0.00000000000E+00 -0.21755105449E+04  0.21755105449E+04  0.25500000000E-02 0. -1.
    8880023    1    1    2    0    0 -0.11673469018E+03  0.32683891039E+03 -0.24291675716E+03  0.78311520124E+03  0.65864270000E+03 0.  1.
    8880022    1    1    2    0    0  0.11673469018E+03 -0.32683891039E+03 -0.16408640718E+04  0.16841250596E+04  0.15294330000E+03 0.  0.
<mgrwt>
<rscale>  0 0.62896816E+03</rscale>
<asrwt>0</asrwt>
<pdfrwt beam="1">  1        2 0.33469392E+00 0.74448698E+03</pdfrwt>
<pdfrwt beam="2">  1       -2 0.44881496E-01 0.74448698E+03</pdfrwt>
<totfact> 0.26039382E+01</totfact>
</mgrwt>
</event>
<event>
 4    2  0.6387803E-007  0.8393219E+03  0.7818608E-02  0.9631460E-01
          2   -1    0    0  501    0  0.00000000000E+00  0.00000000000E+00  0.13599452435E+04  0.13599452435E+04  0.25500000000E-02 0. -1.
         -2   -1    0    0    0  501 -0.00000000000E+00 -0.00000000000E+00 -0.74982378409E+03  0.74982378409E+03  0.25500000000E-02 0.  1.
    8880023    1    1    2    0    0  0.10119939758E+03  0.51030362385E+03  0.10968294619E+04  0.13811213492E+04  0.65864270000E+03 0. -1.
    8880022    1    1    2    0    0 -0.10119939758E+03 -0.51030362385E+03 -0.48670800243E+03  0.72864767839E+03  0.15294330000E+03 0.  0.
<mgrwt>
<rscale>  0 0.75248482E+03</rscale>
<asrwt>0</asrwt>
<pdfrwt beam="1">  1        2 0.20922234E+00 0.83932194E+03</pdfrwt>
<pdfrwt beam="2">  1       -2 0.11535751E+00 0.83932194E+03</pdfrwt>
<totfact> 0.90269750E+00</totfact>
</mgrwt>
</event>
<event>
 4    2  0.6387803E-007  0.9409080E+03  0.7818608E-02  0.9463318E-01
          2   -1    0    0  501    0  0.00000000000E+00  0.00000000000E+00  0.39595936520E+04  0.39595936520E+04  0.25500000000E-02 0. -1.
         -2   -1    0    0    0  501 -0.00000000000E+00 -0.00000000000E+00 -0.22109128025E+03  0.22109128026E+03  0.25500000000E-02 0.  1.
    8880023    1    1    2    0    0  0.54525042868E+03 -0.39268262179E+03  0.31056793716E+04  0.32450812374E+04  0.65864270000E+03 0.  0.
    8880022    1    1    2    0    0 -0.54525042868E+03  0.39268262179E+03  0.63282300014E+03  0.93560369492E+03  0.15294330000E+03 0.  0.
<mgrwt>
<rscale>  0 0.87043115E+03</rscale>
<asrwt>0</asrwt>
<pdfrwt beam="1">  1        2 0.60916824E+00 0.94090801E+03</pdfrwt>
<pdfrwt beam="2">  1       -2 0.34014044E-01 0.94090801E+03</pdfrwt>
<totfact> 0.31728109E+00</totfact>
</mgrwt>
</event>
<event>
 4    2  0.6387803E-007  0.6603841E+03  0.7818608E-02  0.1023766E+00
          2   -1    0    0  501    0  0.00000000000E+00  0.00000000000E+00  0.11189008711E+04  0.11189008711E+04  0.25500000000E-02 0. -1.
         -2   -1    0    0    0  501 -0.00000000000E+00 -0.00000000000E+00 -0.86065107436E+03  0.86065107436E+03  0.25500000000E-02 0.  1.
    8880023    1    1    2    0    0 -0.37550995068E+02 -0.29779355810E+02 -0.72653206305E+03  0.98181257486E+03  0.65864270000E+03 0.  1.
    8880022    1    1    2    0    0  0.37550995068E+02  0.29779355810E+02  0.98478185982E+03  0.99773937063E+03  0.15294330000E+03 0.  0.
<mgrwt>
<rscale>  0 0.46351614E+03</rscale>
<asrwt>0</asrwt>
<pdfrwt beam="1">  1        2 0.17213860E+00 0.66038405E+03</pdfrwt>
<pdfrwt beam="2">  1       -2 0.13240786E+00 0.66038405E+03</pdfrwt>
<totfact> 0.90679740E+00</totfact>
</mgrwt>
</event>
<event>
 4    2  0.6387803E-007  0.7948243E+03  0.7818608E-02  0.9722101E-01
         -2   -1    0    0    0  501 -0.00000000000E+00  0.00000000000E+00  0.23091100080E+03  0.23091100081E+03  0.25500000000E-02 0.  1.
          2   -1    0    0  501    0  0.00000000000E+00 -0.00000000000E+00 -0.26919491621E+04  0.26919491621E+04  0.25500000000E-02 0. -1.
    8880023    1    1    2    0    0 -0.37151987477E+02 -0.44334541710E+03 -0.58015952366E+03  0.98403796075E+03  0.65864270000E+03 0.  0.
    8880022    1    1    2    0    0  0.37151987477E+02  0.44334541710E+03 -0.18808786376E+04  0.19388222022E+04  0.15294330000E+03 0.  0.
<mgrwt>
<rscale>  0 0.69716032E+03</rscale>
<asrwt>0</asrwt>
<pdfrwt beam="1">  1        2 0.41414600E+00 0.79482428E+03</pdfrwt>
<pdfrwt beam="2">  1       -2 0.35524771E-01 0.79482428E+03</pdfrwt>
<totfact> 0.20854343E+01</totfact>
</mgrwt>
</event>
<event>
 4    2  0.6387803E-007  0.8248806E+03  0.7818608E-02  0.9659377E-01
         -2   -1    0    0    0  501 -0.00000000000E+00  0.00000000000E+00  0.11854172825E+04  0.11854172825E+04  0.25500000000E-02 0.  1.
          2   -1    0    0  501    0  0.00000000000E+00 -0.00000000000E+00 -0.51556066556E+03  0.51556066557E+03  0.25500000000E-02 0. -1.
    8880023    1    1    2    0    0 -0.43976694717E+03  0.23070061312E+03  0.81692174229E+03  0.11609431855E+04  0.65864270000E+03 0.  1.
    8880022    1    1    2    0    0  0.43976694717E+03 -0.23070061312E+03 -0.14706512531E+03  0.54003476260E+03  0.15294330000E+03 0. -1.
<mgrwt>
<rscale>  0 0.73487871E+03</rscale>
<asrwt>0</asrwt>
<pdfrwt beam="1">  1        2 0.79317026E-01 0.82488057E+03</pdfrwt>
<pdfrwt beam="2">  1       -2 0.18237189E+00 0.82488057E+03</pdfrwt>
<totfact> 0.10473744E+01</totfact>
</mgrwt>
</event>
<event>
 4    2  0.6387803E-007  0.8512409E+03  0.7818608E-02  0.9609338E-01
         -2   -1    0    0    0  501 -0.00000000000E+00  0.00000000000E+00  0.50980490198E+03  0.50980490198E+03  0.25500000000E-02 0.  1.
          2   -1    0    0  501    0  0.00000000000E+00 -0.00000000000E+00 -0.10748579015E+04  0.10748579015E+04  0.25500000000E-02 0. -1.
    8880023    1    1    2    0    0 -0.28745611304E+03 -0.45625632290E+03 -0.10146665528E+03  0.85726689980E+03  0.65864270000E+03 0.  0.
    8880022    1    1    2    0    0  0.28745611304E+03  0.45625632290E+03 -0.46358634423E+03  0.72739590367E+03  0.15294330000E+03 0.  0.
<mgrwt>
<rscale>  0 0.76681189E+03</rscale>
<asrwt>0</asrwt>
<pdfrwt beam="1">  1        2 0.16536275E+00 0.85124089E+03</pdfrwt>
<pdfrwt beam="2">  1       -2 0.78431524E-01 0.85124089E+03</pdfrwt>
<totfact> 0.32882886E+01</totfact>
</mgrwt>
</event>
<event>
 4    2  0.6387803E-007  0.7062815E+03  0.7818608E-02  0.9972077E-01
         -2   -1    0    0    0  501 -0.00000000000E+00  0.00000000000E+00  0.13195594066E+03  0.13195594068E+03  0.25500000000E-02 0.  1.
          2   -1    0    0  501    0  0.00000000000E+00 -0.00000000000E+00 -0.22991672286E+04  0.22991672286E+04  0.25500000000E-02 0. -1.
    8880023    1    1    2    0    0  0.20165851818E+03  0.15606788345E+03 -0.98471930323E+03  0.12118191510E+04  0.65864270000E+03 0.  1.
    8880022    1    1    2    0    0 -0.20165851818E+03 -0.15606788345E+03 -0.11824919847E+04  0.12193040184E+04  0.15294330000E+03 0. -1.
<mgrwt>
<rscale>  0 0.56891726E+03</rscale>
<asrwt>0</asrwt>
<pdfrwt beam="1">  1        2 0.35371801E+00 0.70628149E+03</pdfrwt>
<pdfrwt beam="2">  1       -2 0.20300916E-01 0.70628149E+03</pdfrwt>
<totfact> 0.97955883E+01</totfact>
</mgrwt>
</event>
<event>
 4    2  0.6387803E-007  0.7207444E+03  0.7818608E-02  0.9920075E-01
         -2   -1    0    0    0  501 -0.00000000000E+00  0.00000000000E+00  0.39092373866E+03  0.39092373867E+03  0.25500000000E-02 0.  1.
          2   -1    0    0  501    0  0.00000000000E+00 -0.00000000000E+00 -0.25612376392E+04  0.25612376392E+04  0.25500000000E-02 0. -1.
    8880023    1    1    2    0    0  0.48846943375E+02 -0.28857635908E+03  0.35641203944E+02  0.72162513855E+03  0.65864270000E+03 0.  1.
    8880022    1    1    2    0    0 -0.48846943375E+02  0.28857635908E+03 -0.22059551045E+04  0.22305362393E+04  0.15294330000E+03 0.  0.
<mgrwt>
<rscale>  0 0.59298154E+03</rscale>
<asrwt>0</asrwt>
<pdfrwt beam="1">  1        2 0.39403655E+00 0.72074444E+03</pdfrwt>
<pdfrwt beam="2">  1       -2 0.60142115E-01 0.72074444E+03</pdfrwt>
<totfact> 0.87263024E+00</totfact>
</mgrwt>
</event>
<event>
 4    2  0.6387803E-007  0.8583307E+03  0.7818608E-02  0.9596540E-01
          2   -1    0    0  501    0  0.00000000000E+00  0.00000000000E+00  0.78573617611E+03  0.78573617612E+03  0.25500000000E-02 0. -1.
         -2   -1    0    0    0  501 -0.00000000000E+00 -0.00000000000E+00 -0.88198765463E+03  0.88198765463E+03  0.25500000000E-02 0.  1.
    8880023    1    1    2    0    0  0.48676389654E+03  0.25687013867E+03 -0.47628442396E+03  0.98162030230E+03  0.65864270000E+03 0.  0.
    8880022    1    1    2    0    0 -0.48676389654E+03 -0.25687013867E+03  0.38003294545E+03  0.68610352845E+03  0.15294330000E+03 0.  0.
<mgrwt>
<rscale>  0 0.77525625E+03</rscale>
<asrwt>0</asrwt>
<pdfrwt beam="1">  1        2 0.12088249E+00 0.85833069E+03</pdfrwt>
<pdfrwt beam="2">  1       -2 0.13569041E+00 0.85833069E+03</pdfrwt>
<totfact> 0.13798758E+01</totfact>
</mgrwt>
</event>
<event>
 4    2  0.6387803E-007  0.7654332E+03  0.7818608E-02  0.9791239E-01
         -2   -1    0    0    0  501 -0.00000000000E+00  0.00000000000E+00  0.29398814177E+03  0.29398814178E+03  0.25500000000E-02 0.  1.
          2   -1    0    0  501    0  0.00000000000E+00 -0.00000000000E+00 -0.23592324786E+04  0.23592324786E+04  0.25500000000E-02 0. -1.
    8880023    1    1    2    0    0 -0.38972570916E+03  0.13843646249E+02 -0.27297759382E+03  0.81265290740E+03  0.65864270000E+03 0. -1.
    8880022    1    1    2    0    0  0.38972570916E+03 -0.13843646249E+02 -0.17922667430E+04  0.18405677130E+04  0.15294330000E+03 0.  0.
<mgrwt>
<rscale>  0 0.65834820E+03</rscale>
<asrwt>0</asrwt>
<pdfrwt beam="1">  1        2 0.36295883E+00 0.76543320E+03</pdfrwt>
<pdfrwt beam="2">  1       -2 0.45228946E-01 0.76543320E+03</pdfrwt>
<totfact> 0.20222481E+01</totfact>
</mgrwt>
</event>
<event>
 4    2  0.6387803E-007  0.7143399E+03  0.7818608E-02  0.9942225E-01
          2   -1    0    0  501    0  0.00000000000E+00  0.00000000000E+00  0.16399031587E+04  0.16399031587E+04  0.25500000000E-02 0. -1.
         -2   -1    0    0    0  501 -0.00000000000E+00 -0.00000000000E+00 -0.32987464118E+03  0.32987464119E+03  0.25500000000E-02 0.  1.
    8880023    1    1    2    0    0  0.27622215635E+03 -0.13138014272E+02  0.10258768641E+03  0.72166870983E+03  0.65864270000E+03 0.  1.
    8880022    1    1    2    0    0 -0.27622215635E+03  0.13138014272E+02  0.12074408311E+04  0.12481090901E+04  0.15294330000E+03 0.  0.
<mgrwt>
<rscale>  0 0.58257819E+03</rscale>
<asrwt>0</asrwt>
<pdfrwt beam="1">  1        2 0.25229279E+00 0.71433990E+03</pdfrwt>
<pdfrwt beam="2">  1       -2 0.50749945E-01 0.71433990E+03</pdfrwt>
<totfact> 0.40013258E+01</totfact>
</mgrwt>
</event>
<event>
 4    2  0.6387803E-007  0.7000186E+03  0.7818608E-02  0.9997124E-01
          2   -1    0    0  501    0  0.00000000000E+00  0.00000000000E+00  0.32470024953E+04  0.32470024953E+04  0.25500000000E-02 0. -1.
         -2   -1    0    0    0  501 -0.00000000000E+00 -0.00000000000E+00 -0.21000362332E+03  0.21000362333E+03  0.25500000000E-02 0.  1.
    8880023    1    1    2    0    0  0.69561852950E+02 -0.22666487811E+03  0.40258770746E+03  0.80752887677E+03  0.65864270000E+03 0.  1.
    8880022    1    1    2    0    0 -0.69561852950E+02  0.22666487811E+03  0.26344111645E+04  0.26494772418E+04  0.15294330000E+03 0.  0.
<mgrwt>
<rscale>  0 0.55776519E+03</rscale>
<asrwt>0</asrwt>
<pdfrwt beam="1">  1        2 0.49953881E+00 0.70001859E+03</pdfrwt>
<pdfrwt beam="2">  1       -2 0.32308252E-01 0.70001859E+03</pdfrwt>
<totfact> 0.11638924E+01</totfact>
</mgrwt>
</event>
<event>
 4    2  0.6387803E-007  0.6651508E+03  0.7818608E-02  0.1019407E+00
         -2   -1    0    0    0  501 -0.00000000000E+00  0.00000000000E+00  0.97537312233E+03  0.97537312233E+03  0.25500000000E-02 0.  1.
          2   -1    0    0  501    0  0.00000000000E+00 -0.00000000000E+00 -0.58332578027E+03  0.58332578028E+03  0.25500000000E-02 0. -1.
    8880023    1    1    2    0    0 -0.12800124560E+02 -0.91931992310E+02  0.84284906254E+03  0.10736945948E+04  0.65864270000E+03 0.  1.
    8880022    1    1    2    0    0  0.12800124560E+02  0.91931992310E+02 -0.45080172048E+03  0.48500430782E+03  0.15294330000E+03 0.  0.
<mgrwt>
<rscale>  0 0.47901120E+03</rscale>
<asrwt>0</asrwt>
<pdfrwt beam="1">  1        2 0.89742428E-01 0.66515077E+03</pdfrwt>
<pdfrwt beam="2">  1       -2 0.15005740E+00 0.66515077E+03</pdfrwt>
<totfact> 0.15713359E+01</totfact>
</mgrwt>
</event>
<event>
 4    2  0.6387803E-007  0.6807496E+03  0.7818608E-02  0.1008903E+00
         -2   -1    0    0    0  501 -0.00000000000E+00  0.00000000000E+00  0.33560916078E+03  0.33560916078E+03  0.25500000000E-02 0.  1.
          2   -1    0    0  501    0  0.00000000000E+00 -0.00000000000E+00 -0.34304906919E+04  0.34304906919E+04  0.25500000000E-02 0. -1.
    8880023    1    1    2    0    0  0.57939051927E+02 -0.16202738556E+03 -0.18381287245E+02  0.68099771321E+03  0.65864270000E+03 0.  1.
    8880022    1    1    2    0    0 -0.57939051927E+02  0.16202738556E+03 -0.30765002439E+04  0.30851021395E+04  0.15294330000E+03 0.  0.
<mgrwt>
<rscale>  0 0.51913047E+03</rscale>
<asrwt>0</asrwt>
<pdfrwt beam="1">  1        2 0.52776777E+00 0.68074960E+03</pdfrwt>
<pdfrwt beam="2">  1       -2 0.51632181E-01 0.68074960E+03</pdfrwt>
<totfact> 0.35403425E+00</totfact>
</mgrwt>
</event>
<event>
 4    2  0.6387803E-007  0.6594247E+03  0.7818608E-02  0.1024754E+00
         -2   -1    0    0    0  501 -0.00000000000E+00  0.00000000000E+00  0.11335031654E+03  0.11335031657E+03  0.25500000000E-02 0.  1.
          2   -1    0    0  501    0  0.00000000000E+00 -0.00000000000E+00 -0.27761250192E+04  0.27761250192E+04  0.25500000000E-02 0. -1.
    8880023    1    1    2    0    0  0.31978253525E+02 -0.28508215891E+01 -0.87893283589E+03  0.10988011067E+04  0.65864270000E+03 0.  1.
    8880022    1    1    2    0    0 -0.31978253525E+02  0.28508215891E+01 -0.17838418668E+04  0.17906742290E+04  0.15294330000E+03 0.  0.
<mgrwt>
<rscale>  0 0.46009491E+03</rscale>
<asrwt>0</asrwt>
<pdfrwt beam="1">  1        2 0.42709611E+00 0.65942471E+03</pdfrwt>
<pdfrwt beam="2">  1       -2 0.17438512E-01 0.65942471E+03</pdfrwt>
<totfact> 0.68702200E+01</totfact>
</mgrwt>
</event>
<event>
 4    2  0.6387803E-007  0.8194802E+03  0.7818608E-02  0.9670158E-01
          2   -1    0    0  501    0  0.00000000000E+00  0.00000000000E+00  0.11967719624E+04  0.11967719624E+04  0.25500000000E-02 0. -1.
         -2   -1    0    0    0  501 -0.00000000000E+00 -0.00000000000E+00 -0.65861753872E+03  0.65861753872E+03  0.25500000000E-02 0.  1.
    8880023    1    1    2    0    0 -0.24659222104E+02  0.48695953225E+03  0.90910479260E+03  0.12239360251E+04  0.65864270000E+03 0. -1.
    8880022    1    1    2    0    0  0.24659222104E+02 -0.48695953225E+03 -0.37095036888E+03  0.63145347609E+03  0.15294330000E+03 0. -1.
<mgrwt>
<rscale>  0 0.72821701E+03</rscale>
<asrwt>0</asrwt>
<pdfrwt beam="1">  1        2 0.18411876E+00 0.81948024E+03</pdfrwt>
<pdfrwt beam="2">  1       -2 0.10132578E+00 0.81948024E+03</pdfrwt>
<totfact> 0.15404147E+01</totfact>
</mgrwt>
</event>
<event>
 4    2  0.6387803E-007  0.9299123E+03  0.7818608E-02  0.9479625E-01
         -2   -1    0    0    0  501 -0.00000000000E+00  0.00000000000E+00  0.56252713149E+03  0.56252713150E+03  0.25500000000E-02 0.  1.
          2   -1    0    0  501    0  0.00000000000E+00 -0.00000000000E+00 -0.34988440330E+04  0.34988440330E+04  0.25500000000E-02 0. -1.
    8880023    1    1    2    0    0  0.23732400505E+03 -0.61204903837E+03  0.11454359716E+03  0.93694031328E+03  0.65864270000E+03 0.  1.
    8880022    1    1    2    0    0 -0.23732400505E+03  0.61204903837E+03 -0.30508604986E+04  0.31244308512E+04  0.15294330000E+03 0.  0.
<mgrwt>
<rscale>  0 0.85802815E+03</rscale>
<asrwt>0</asrwt>
<pdfrwt beam="1">  1        2 0.53828368E+00 0.92991232E+03</pdfrwt>
<pdfrwt beam="2">  1       -2 0.86542638E-01 0.92991232E+03</pdfrwt>
<totfact> 0.98698128E-01</totfact>
</mgrwt>
</event>
<event>
 4    2  0.6387803E-007  0.1303520E+04  0.7818608E-02  0.9062526E-01
          2   -1    0    0  501    0  0.00000000000E+00  0.00000000000E+00  0.11875887087E+04  0.11875887087E+04  0.25500000000E-02 0. -1.
         -2   -1    0    0    0  501 -0.00000000000E+00 -0.00000000000E+00 -0.14971794928E+04  0.14971794928E+04  0.25500000000E-02 0.  1.
    8880023    1    1    2    0    0 -0.16978430621E+03 -0.11119926413E+04 -0.70586035413E+03  0.14823641222E+04  0.65864270000E+03 0.  0.
    8880022    1    1    2    0    0  0.16978430621E+03  0.11119926413E+04  0.39626957003E+03  0.12024040794E+04  0.15294330000E+03 0.  0.
<mgrwt>
<rscale>  0 0.12592420E+04</rscale>
<asrwt>0</asrwt>
<pdfrwt beam="1">  1        2 0.18270596E+00 0.13035201E+04</pdfrwt>
<pdfrwt beam="2">  1       -2 0.23033531E+00 0.13035201E+04</pdfrwt>
<totfact> 0.15764792E+00</totfact>
</mgrwt>
</event>
<event>
 4    2  0.6387803E-007  0.6672034E+03  0.7818608E-02  0.1017752E+00
          2   -1    0    0  501    0  0.00000000000E+00  0.00000000000E+00  0.12735729014E+04  0.12735729014E+04  0.25500000000E-02 0. -1.
         -2   -1    0    0    0  501 -0.00000000000E+00 -0.00000000000E+00 -0.12425038046E+04  0.12425038046E+04  0.25500000000E-02 0.  1.
    8880023    1    1    2    0    0 -0.96711223315E+02  0.44688442525E+02 -0.11450634519E+04  0.13252662497E+04  0.65864270000E+03 0.  1.
    8880022    1    1    2    0    0  0.96711223315E+02 -0.44688442525E+02  0.11761325487E+04  0.11908104562E+04  0.15294330000E+03 0.  0.
<mgrwt>
<rscale>  0 0.48506525E+03</rscale>
<asrwt>0</asrwt>
<pdfrwt beam="1">  1        2 0.19593429E+00 0.66720336E+03</pdfrwt>
<pdfrwt beam="2">  1       -2 0.19115443E+00 0.66720336E+03</pdfrwt>
<totfact> 0.27169523E+00</totfact>
</mgrwt>
</event>
<event>
 4    2  0.6387803E-007  0.8718635E+03  0.7818608E-02  0.9572799E-01
          2   -1    0    0  501    0  0.00000000000E+00  0.00000000000E+00  0.19969854162E+04  0.19969854162E+04  0.25500000000E-02 0. -1.
         -2   -1    0    0    0  501 -0.00000000000E+00 -0.00000000000E+00 -0.60967294563E+03  0.60967294563E+03  0.25500000000E-02 0.  1.
    8880023    1    1    2    0    0  0.36580825920E+02 -0.57008557486E+03 -0.21560720857E+03  0.89812715923E+03  0.65864270000E+03 0.  1.
    8880022    1    1    2    0    0 -0.36580825920E+02  0.57008557486E+03  0.16029196791E+04  0.17085312026E+04  0.15294330000E+03 0.  0.
<mgrwt>
<rscale>  0 0.79122968E+03</rscale>
<asrwt>0</asrwt>
<pdfrwt beam="1">  1        2 0.30722852E+00 0.87186348E+03</pdfrwt>
<pdfrwt beam="2">  1       -2 0.93795839E-01 0.87186348E+03</pdfrwt>
<totfact> 0.65514645E+00</totfact>
</mgrwt>
</event>
<event>
 4    2  0.6387803E-007  0.7104569E+03  0.7818608E-02  0.9956308E-01
          2   -1    0    0  501    0  0.00000000000E+00  0.00000000000E+00  0.22391603416E+04  0.22391603416E+04  0.25500000000E-02 0. -1.
         -2   -1    0    0    0  501 -0.00000000000E+00 -0.00000000000E+00 -0.17450557774E+03  0.17450557776E+03  0.25500000000E-02 0.  1.
    8880023    1    1    2    0    0  0.15859526951E+03 -0.21397734295E+03  0.63978994890E+03  0.95607538813E+03  0.65864270000E+03 0.  1.
    8880022    1    1    2    0    0 -0.15859526951E+03  0.21397734295E+03  0.14248648149E+04  0.14575905312E+04  0.15294330000E+03 0.  0.
<mgrwt>
<rscale>  0 0.57608260E+03</rscale>
<asrwt>0</asrwt>
<pdfrwt beam="1">  1        2 0.34448622E+00 0.71045687E+03</pdfrwt>
<pdfrwt beam="2">  1       -2 0.26847011E-01 0.71045687E+03</pdfrwt>
<totfact> 0.64157302E+01</totfact>
</mgrwt>
</event>
<event>
 4    2  0.6387803E-007  0.1092857E+04  0.7818608E-02  0.9269051E-01
          2   -1    0    0  501    0  0.00000000000E+00  0.00000000000E+00  0.19393870214E+04  0.19393870214E+04  0.25500000000E-02 0. -1.
         -2   -1    0    0    0  501 -0.00000000000E+00 -0.00000000000E+00 -0.93146449718E+03  0.93146449718E+03  0.25500000000E-02 0.  1.
    8880023    1    1    2    0    0  0.82606932667E+03 -0.27952597251E+03 -0.43638504198E+03  0.11767614087E+04  0.65864270000E+03 0.  0.
    8880022    1    1    2    0    0 -0.82606932667E+03  0.27952597251E+03  0.14443075662E+04  0.16940901099E+04  0.15294330000E+03 0.  0.
<mgrwt>
<rscale>  0 0.10368266E+04</rscale>
<asrwt>0</asrwt>
<pdfrwt beam="1">  1        2 0.29836723E+00 0.10928566E+04</pdfrwt>
<pdfrwt beam="2">  1       -2 0.14330223E+00 0.10928566E+04</pdfrwt>
<totfact> 0.24049390E+00</totfact>
</mgrwt>
</event>
<event>
 4    2  0.6387803E-007  0.1000094E+04  0.7818608E-02  0.9381434E-01
          2   -1    0    0  501    0  0.00000000000E+00  0.00000000000E+00  0.33546047518E+04  0.33546047518E+04  0.25500000000E-02 0. -1.
         -2   -1    0    0    0  501 -0.00000000000E+00 -0.00000000000E+00 -0.34194945633E+03  0.34194945633E+03  0.25500000000E-02 0.  1.
    8880023    1    1    2    0    0 -0.27145283852E+03  0.70192003514E+03  0.60377016160E+03  0.11682153027E+04  0.65864270000E+03 0. -1.
    8880022    1    1    2    0    0  0.27145283852E+03 -0.70192003514E+03  0.24088851339E+04  0.25283389054E+04  0.15294330000E+03 0.  0.
<mgrwt>
<rscale>  0 0.93619442E+03</rscale>
<asrwt>0</asrwt>
<pdfrwt beam="1">  1        2 0.51609306E+00 0.10000943E+04</pdfrwt>
<pdfrwt beam="2">  1       -2 0.52607607E-01 0.10000943E+04</pdfrwt>
<totfact> 0.36036266E+00</totfact>
</mgrwt>
</event>
<event>
 4    2  0.6387803E-007  0.7315727E+03  0.7818608E-02  0.9885212E-01
          2   -1    0    0  501    0  0.00000000000E+00  0.00000000000E+00  0.33372415255E+04  0.33372415255E+04  0.25500000000E-02 0. -1.
         -2   -1    0    0    0  501 -0.00000000000E+00 -0.00000000000E+00 -0.21167605926E+03  0.21167605928E+03  0.25500000000E-02 0.  1.
    8880023    1    1    2    0    0 -0.25908748244E+03 -0.18510031640E+03  0.46906519089E+03  0.86903441258E+03  0.65864270000E+03 0.  0.
    8880022    1    1    2    0    0  0.25908748244E+03  0.18510031640E+03  0.26565002754E+04  0.26798831722E+04  0.15294330000E+03 0.  0.
<mgrwt>
<rscale>  0 0.60983353E+03</rscale>
<asrwt>0</asrwt>
<pdfrwt beam="1">  1        2 0.51342177E+00 0.73157273E+03</pdfrwt>
<pdfrwt beam="2">  1       -2 0.32565548E-01 0.73157273E+03</pdfrwt>
<totfact> 0.99593418E+00</totfact>
</mgrwt>
</event>
<event>
 4    2  0.6387803E-007  0.7035958E+03  0.7818608E-02  0.9982599E-01
          2   -1    0    0  501    0  0.00000000000E+00  0.00000000000E+00  0.10353383520E+04  0.10353383520E+04  0.25500000000E-02 0. -1.
         -2   -1    0    0    0  501 -0.00000000000E+00 -0.00000000000E+00 -0.26217784575E+03  0.26217784576E+03  0.25500000000E-02 0.  1.
    8880023    1    1    2    0    0 -0.59706304607E+01 -0.24738881510E+03  0.35490141633E+03  0.78803686198E+03  0.65864270000E+03 0.  1.
    8880022    1    1    2    0    0  0.59706304607E+01  0.24738881510E+03  0.41825908990E+03  0.50947933575E+03  0.15294330000E+03 0.  1.
<mgrwt>
<rscale>  0 0.56419864E+03</rscale>
<asrwt>0</asrwt>
<pdfrwt beam="1">  1        2 0.15928283E+00 0.70359582E+03</pdfrwt>
<pdfrwt beam="2">  1       -2 0.40335052E-01 0.70359582E+03</pdfrwt>
<totfact> 0.14128352E+02</totfact>
</mgrwt>
</event>
<event>
 4    2  0.6387803E-007  0.6646759E+03  0.7818608E-02  0.1019807E+00
          2   -1    0    0  501    0  0.00000000000E+00  0.00000000000E+00  0.32015766911E+04  0.32015766911E+04  0.25500000000E-02 0. -1.
         -2   -1    0    0    0  501 -0.00000000000E+00 -0.00000000000E+00 -0.58810778337E+03  0.58810778338E+03  0.25500000000E-02 0.  1.
    8880023    1    1    2    0    0 -0.75423474131E+02  0.47907134867E+02 -0.39686618103E+03  0.77414260051E+03  0.65864270000E+03 0.  1.
    8880022    1    1    2    0    0  0.75423474131E+02 -0.47907134867E+02  0.30103350888E+04  0.30155418740E+04  0.15294330000E+03 0.  0.
<mgrwt>
<rscale>  0 0.47756355E+03</rscale>
<asrwt>0</asrwt>
<pdfrwt beam="1">  1        2 0.49255027E+00 0.66467586E+03</pdfrwt>
<pdfrwt beam="2">  1       -2 0.90478119E-01 0.66467586E+03</pdfrwt>
<totfact> 0.14823823E+00</totfact>
</mgrwt>
</event>
<event>
 4    2  0.6387803E-007  0.8641638E+03  0.7818608E-02  0.9586199E-01
          2   -1    0    0  501    0  0.00000000000E+00  0.00000000000E+00  0.14313259378E+04  0.14313259378E+04  0.25500000000E-02 0. -1.
         -2   -1    0    0    0  501 -0.00000000000E+00 -0.00000000000E+00 -0.38624353589E+03  0.38624353589E+03  0.25500000000E-02 0.  1.
    8880023    1    1    2    0    0 -0.54951237933E+03  0.10490505488E+03  0.40671879451E+03  0.95509125724E+03  0.65864270000E+03 0.  1.
    8880022    1    1    2    0    0  0.54951237933E+03 -0.10490505488E+03  0.63836360736E+03  0.86247821642E+03  0.15294330000E+03 0.  0.
<mgrwt>
<rscale>  0 0.78216378E+03</rscale>
<asrwt>0</asrwt>
<pdfrwt beam="1">  1        2 0.22020399E+00 0.86416383E+03</pdfrwt>
<pdfrwt beam="2">  1       -2 0.59422083E-01 0.86416383E+03</pdfrwt>
<totfact> 0.37074350E+01</totfact>
</mgrwt>
</event>
<event>
 4    2  0.6387803E-007  0.7384940E+03  0.7818608E-02  0.9864356E-01
         -2   -1    0    0    0  501 -0.00000000000E+00  0.00000000000E+00  0.35310600131E+03  0.35310600132E+03  0.25500000000E-02 0.  1.
          2   -1    0    0  501    0  0.00000000000E+00 -0.00000000000E+00 -0.97021733002E+03  0.97021733002E+03  0.25500000000E-02 0. -1.
    8880023    1    1    2    0    0  0.11896011305E+03 -0.31210849075E+03 -0.19512956000E+03  0.76383831400E+03  0.65864270000E+03 0.  0.
    8880022    1    1    2    0    0 -0.11896011305E+03  0.31210849075E+03 -0.42198176871E+03  0.55948501734E+03  0.15294330000E+03 0.  0.
<mgrwt>
<rscale>  0 0.62020292E+03</rscale>
<asrwt>0</asrwt>
<pdfrwt beam="1">  1        2 0.14926420E+00 0.73849402E+03</pdfrwt>
<pdfrwt beam="2">  1       -2 0.54324000E-01 0.73849402E+03</pdfrwt>
<totfact> 0.85243234E+01</totfact>
</mgrwt>
</event>
<event>
 4    2  0.6387803E-007  0.6929650E+03  0.7818608E-02  0.1002774E+00
         -2   -1    0    0    0  501 -0.00000000000E+00  0.00000000000E+00  0.28396656244E+03  0.28396656245E+03  0.25500000000E-02 0.  1.
          2   -1    0    0  501    0  0.00000000000E+00 -0.00000000000E+00 -0.15159935755E+04  0.15159935755E+04  0.25500000000E-02 0. -1.
    8880023    1    1    2    0    0 -0.37676604380E+02 -0.21206298181E+03 -0.18095650095E+03  0.71620227329E+03  0.65864270000E+03 0.  1.
    8880022    1    1    2    0    0  0.37676604380E+02  0.21206298181E+03 -0.10510705121E+04  0.10837578647E+04  0.15294330000E+03 0.  1.
<mgrwt>
<rscale>  0 0.54450428E+03</rscale>
<asrwt>0</asrwt>
<pdfrwt beam="1">  1        2 0.23322978E+00 0.69296496E+03</pdfrwt>
<pdfrwt beam="2">  1       -2 0.43687164E-01 0.69296496E+03</pdfrwt>
<totfact> 0.63440457E+01</totfact>
</mgrwt>
</event>
<event>
 4    2  0.6387803E-007  0.8499608E+03  0.7818608E-02  0.9611677E-01
         -2   -1    0    0    0  501 -0.00000000000E+00  0.00000000000E+00  0.46084633314E+03  0.46084633314E+03  0.25500000000E-02 0.  1.
          2   -1    0    0  501    0  0.00000000000E+00 -0.00000000000E+00 -0.26613041955E+04  0.26613041955E+04  0.25500000000E-02 0. -1.
    8880023    1    1    2    0    0 -0.22869012982E+03 -0.48613167691E+03  0.19999830265E+01  0.84996316918E+03  0.65864270000E+03 0.  1.
    8880022    1    1    2    0    0  0.22869012982E+03  0.48613167691E+03 -0.22024578454E+04  0.22721873594E+04  0.15294330000E+03 0.  0.
<mgrwt>
<rscale>  0 0.76528127E+03</rscale>
<asrwt>0</asrwt>
<pdfrwt beam="1">  1        2 0.40943141E+00 0.84996082E+03</pdfrwt>
<pdfrwt beam="2">  1       -2 0.70899437E-01 0.84996082E+03</pdfrwt>
<totfact> 0.52477685E+00</totfact>
</mgrwt>
</event>
<event>
 4    2  0.6387803E-007  0.7657304E+03  0.7818608E-02  0.9790492E-01
          2   -1    0    0  501    0  0.00000000000E+00  0.00000000000E+00  0.33907731610E+04  0.33907731610E+04  0.25500000000E-02 0. -1.
         -2   -1    0    0    0  501 -0.00000000000E+00 -0.00000000000E+00 -0.18161330184E+03  0.18161330186E+03  0.25500000000E-02 0.  1.
    8880023    1    1    2    0    0  0.13068369999E+03  0.36804159651E+03  0.72981954584E+03  0.10578183313E+04  0.65864270000E+03 0.  0.
    8880022    1    1    2    0    0 -0.13068369999E+03 -0.36804159651E+03  0.24793403133E+04  0.25145681316E+04  0.15294330000E+03 0.  0.
<mgrwt>
<rscale>  0 0.65875316E+03</rscale>
<asrwt>0</asrwt>
<pdfrwt beam="1">  1        2 0.52165739E+00 0.76573040E+03</pdfrwt>
<pdfrwt beam="2">  1       -2 0.27940509E-01 0.76573040E+03</pdfrwt>
<totfact> 0.12126972E+01</totfact>
</mgrwt>
</event>
<event>
 4    2  0.6387803E-007  0.1440804E+04  0.7818608E-02  0.8952609E-01
          2   -1    0    0  501    0  0.00000000000E+00  0.00000000000E+00  0.25670334639E+04  0.25670334639E+04  0.25500000000E-02 0. -1.
         -2   -1    0    0    0  501 -0.00000000000E+00 -0.00000000000E+00 -0.87311776983E+03  0.87311776983E+03  0.25500000000E-02 0.  1.
    8880023    1    1    2    0    0 -0.73682947141E+03  0.10484212785E+04  0.15896007332E+04  0.21454010218E+04  0.65864270000E+03 0.  1.
    8880022    1    1    2    0    0  0.73682947141E+03 -0.10484212785E+04  0.10431496092E+03  0.12947502119E+04  0.15294330000E+03 0. -1.
<mgrwt>
<rscale>  0 0.14016725E+04</rscale>
<asrwt>0</asrwt>
<pdfrwt beam="1">  1        2 0.39492823E+00 0.14408036E+04</pdfrwt>
<pdfrwt beam="2">  1       -2 0.13432581E+00 0.14408036E+04</pdfrwt>
<totfact> 0.12120147E+00</totfact>
</mgrwt>
</event>
<event>
 4    2  0.6387803E-007  0.7031613E+03  0.7818608E-02  0.9984331E-01
         -2   -1    0    0    0  501 -0.00000000000E+00  0.00000000000E+00  0.50684648444E+03  0.50684648445E+03  0.25500000000E-02 0.  1.
          2   -1    0    0  501    0  0.00000000000E+00 -0.00000000000E+00 -0.80277214601E+03  0.80277214601E+03  0.25500000000E-02 0. -1.
    8880023    1    1    2    0    0 -0.23607345837E+03  0.69963548253E+02  0.20363717283E+03  0.73205456098E+03  0.65864270000E+03 0.  1.
    8880022    1    1    2    0    0  0.23607345837E+03 -0.69963548253E+02 -0.49956283439E+03  0.57756406948E+03  0.15294330000E+03 0.  0.
<mgrwt>
<rscale>  0 0.56342648E+03</rscale>
<asrwt>0</asrwt>
<pdfrwt beam="1">  1        2 0.12350341E+00 0.70316128E+03</pdfrwt>
<pdfrwt beam="2">  1       -2 0.77976383E-01 0.70316128E+03</pdfrwt>
<totfact> 0.51081460E+01</totfact>
</mgrwt>
</event>
<event>
 4    2  0.6387803E-007  0.9126777E+03  0.7818608E-02  0.9505979E-01
         -2   -1    0    0    0  501 -0.00000000000E+00  0.00000000000E+00  0.15025641711E+04  0.15025641712E+04  0.25500000000E-02 0.  1.
          2   -1    0    0  501    0  0.00000000000E+00 -0.00000000000E+00 -0.83836534625E+03  0.83836534626E+03  0.25500000000E-02 0. -1.
    8880023    1    1    2    0    0  0.45847333005E+03 -0.43470987244E+03  0.11936207576E+04  0.15025681971E+04  0.65864270000E+03 0.  1.
    8880022    1    1    2    0    0 -0.45847333005E+03  0.43470987244E+03 -0.52942193273E+03  0.83836132033E+03  0.15294330000E+03 0.  0.
<mgrwt>
<rscale>  0 0.83844469E+03</rscale>
<asrwt>0</asrwt>
<pdfrwt beam="1">  1        2 0.12897928E+00 0.91267775E+03</pdfrwt>
<pdfrwt beam="2">  1       -2 0.23116372E+00 0.91267775E+03</pdfrwt>
<totfact> 0.27339671E+00</totfact>
</mgrwt>
</event>
<event>
 4    2  0.6387803E-007  0.7223092E+03  0.7818608E-02  0.9914849E-01
          2   -1    0    0  501    0  0.00000000000E+00  0.00000000000E+00  0.13533811685E+04  0.13533811685E+04  0.25500000000E-02 0. -1.
         -2   -1    0    0    0  501 -0.00000000000E+00 -0.00000000000E+00 -0.36211721577E+03  0.36211721577E+03  0.25500000000E-02 0.  1.
    8880023    1    1    2    0    0 -0.92531822521E+02 -0.28170591261E+03  0.58282074100E+02  0.72465672273E+03  0.65864270000E+03 0.  1.
    8880022    1    1    2    0    0  0.92531822521E+02  0.28170591261E+03  0.93298187862E+03  0.99084166153E+03  0.15294330000E+03 0. -1.
<mgrwt>
<rscale>  0 0.59547031E+03</rscale>
<asrwt>0</asrwt>
<pdfrwt beam="1">  1        2 0.20821249E+00 0.72230919E+03</pdfrwt>
<pdfrwt beam="2">  1       -2 0.55710341E-01 0.72230919E+03</pdfrwt>
<totfact> 0.47650045E+01</totfact>
</mgrwt>
</event>
<event>
 4    2  0.6387803E-007  0.9657374E+03  0.7818608E-02  0.9427824E-01
         -2   -1    0    0    0  501 -0.00000000000E+00  0.00000000000E+00  0.71190377667E+03  0.71190377667E+03  0.25500000000E-02 0.  1.
          2   -1    0    0  501    0  0.00000000000E+00 -0.00000000000E+00 -0.23450299629E+04  0.23450299629E+04  0.25500000000E-02 0. -1.
    8880023    1    1    2    0    0  0.22939751670E+03 -0.66799354048E+03  0.28522946159E+03  0.10069779753E+04  0.65864270000E+03 0.  0.
    8880022    1    1    2    0    0 -0.22939751670E+03  0.66799354048E+03 -0.19183556479E+04  0.20499557643E+04  0.15294330000E+03 0.  0.
<mgrwt>
<rscale>  0 0.89820828E+03</rscale>
<asrwt>0</asrwt>
<pdfrwt beam="1">  1        2 0.36077384E+00 0.96573744E+03</pdfrwt>
<pdfrwt beam="2">  1       -2 0.10952366E+00 0.96573744E+03</pdfrwt>
<totfact> 0.28657926E+00</totfact>
</mgrwt>
</event>
<event>
 4    2  0.6387803E-007  0.8589785E+03  0.7818608E-02  0.9595383E-01
         -2   -1    0    0    0  501 -0.00000000000E+00  0.00000000000E+00  0.68747173079E+03  0.68747173079E+03  0.25500000000E-02 0.  1.
          2   -1    0    0  501    0  0.00000000000E+00 -0.00000000000E+00 -0.12714158583E+04  0.12714158583E+04  0.25500000000E-02 0. -1.
    8880023    1    1    2    0    0 -0.14105759192E+01  0.55139081811E+03  0.29660743802E+03  0.90874639068E+03  0.65864270000E+03 0.  1.
    8880022    1    1    2    0    0  0.14105759192E+01 -0.55139081811E+03 -0.88055156555E+03  0.10501411984E+04  0.15294330000E+03 0.  0.
<mgrwt>
<rscale>  0 0.77602511E+03</rscale>
<asrwt>0</asrwt>
<pdfrwt beam="1">  1        2 0.19560244E+00 0.85897848E+03</pdfrwt>
<pdfrwt beam="2">  1       -2 0.10576488E+00 0.85897848E+03</pdfrwt>
<totfact> 0.12508918E+01</totfact>
</mgrwt>
</event>
<event>
 4    2  0.6387803E-007  0.1495190E+04  0.7818608E-02  0.8913040E-01
          2   -1    0    0  501    0  0.00000000000E+00  0.00000000000E+00  0.44365703919E+04  0.44365703919E+04  0.25500000000E-02 0. -1.
         -2   -1    0    0    0  501 -0.00000000000E+00 -0.00000000000E+00 -0.72904053894E+03  0.72904053894E+03  0.25500000000E-02 0.  1.
    8880023    1    1    2    0    0 -0.10122423459E+04  0.88156004821E+03  0.33459017804E+03  0.15321695333E+04  0.65864270000E+03 0.  0.
    8880022    1    1    2    0    0  0.10122423459E+04 -0.88156004821E+03  0.33729396749E+04  0.36334413975E+04  0.15294330000E+03 0.  0.
<mgrwt>
<rscale>  0 0.14577576E+04</rscale>
<asrwt>0</asrwt>
<pdfrwt beam="1">  1        2 0.68254928E+00 0.14951899E+04</pdfrwt>
<pdfrwt beam="2">  1       -2 0.11216008E+00 0.14951899E+04</pdfrwt>
<totfact> 0.86790860E-02</totfact>
</mgrwt>
</event>
<event>
 4    2  0.1057243E-006  0.1334781E+04  0.7818608E-02  0.9036091E-01
         -2   -1    0    0    0  501 -0.00000000000E+00  0.00000000000E+00  0.16486655712E+04  0.16486655712E+04  0.25500000000E-02 0.  1.
          2   -1    0    0  501    0  0.00000000000E+00 -0.00000000000E+00 -0.32179443377E+04  0.32179443377E+04  0.25500000000E-02 0. -1.
    8880023    1    1    2    0    0  0.89768414309E+03 -0.73620245848E+03  0.12407291885E+04  0.18223748259E+04  0.65864270000E+03 0.  0.
    8880022    1    1    2    0    0 -0.89768414309E+03  0.73620245848E+03 -0.28100079549E+04  0.30442350830E+04  0.15294330000E+03 0.  0.
<mgrwt>
<rscale>  0 0.12918024E+04</rscale>
<asrwt>0</asrwt>
<pdfrwt beam="1">  1        2 0.49506836E+00 0.13347813E+04</pdfrwt>
<pdfrwt beam="2">  1       -2 0.25364086E+00 0.13347813E+04</pdfrwt>
<totfact> 0.74448320E-02</totfact>
</mgrwt>
</event>
<event>
 4    2  0.6387803E-007  0.6610228E+03  0.7818608E-02  0.1023132E+00
         -2   -1    0    0    0  501 -0.00000000000E+00  0.00000000000E+00  0.96942056085E+02  0.96942056118E+02  0.25500000000E-02 0.  1.
          2   -1    0    0  501    0  0.00000000000E+00 -0.00000000000E+00 -0.22843212100E+04  0.22843212100E+04  0.25500000000E-02 0. -1.
    8880023    1    1    2    0    0 -0.52511736031E+02 -0.19580965142E+02 -0.11121447250E+04  0.12937607941E+04  0.65864270000E+03 0.  1.
    8880022    1    1    2    0    0  0.52511736031E+02  0.19580965142E+02 -0.10752344289E+04  0.10875024720E+04  0.15294330000E+03 0.  0.
<mgrwt>
<rscale>  0 0.46573051E+03</rscale>
<asrwt>0</asrwt>
<pdfrwt beam="1">  1        2 0.35143399E+00 0.66102277E+03</pdfrwt>
<pdfrwt beam="2">  1       -2 0.14914164E-01 0.66102277E+03</pdfrwt>
<totfact> 0.17045993E+02</totfact>
</mgrwt>
</event>
<event>
 4    2  0.6387803E-007  0.7402241E+03  0.7818608E-02  0.9859295E-01
          2   -1    0    0  501    0  0.00000000000E+00  0.00000000000E+00  0.17661174405E+04  0.17661174405E+04  0.25500000000E-02 0. -1.
         -2   -1    0    0    0  501 -0.00000000000E+00 -0.00000000000E+00 -0.24881516935E+03  0.24881516937E+03  0.25500000000E-02 0.  1.
    8880023    1    1    2    0    0  0.31616004677E+03 -0.11901420032E+03  0.40784915873E+03  0.84514655392E+03  0.65864270000E+03 0.  0.
    8880022    1    1    2    0    0 -0.31616004677E+03  0.11901420032E+03  0.11094531124E+04  0.11697860560E+04  0.15294330000E+03 0.  0.
<mgrwt>
<rscale>  0 0.62275250E+03</rscale>
<asrwt>0</asrwt>
<pdfrwt beam="1">  1        2 0.27171037E+00 0.74022413E+03</pdfrwt>
<pdfrwt beam="2">  1       -2 0.38279257E-01 0.74022413E+03</pdfrwt>
<totfact> 0.59580759E+01</totfact>
</mgrwt>
</event>
<event>
 4    2  0.6387803E-007  0.9565910E+03  0.7818608E-02  0.9440694E-01
          2   -1    0    0  501    0  0.00000000000E+00  0.00000000000E+00  0.12072639216E+04  0.12072639216E+04  0.25500000000E-02 0. -1.
         -2   -1    0    0    0  501 -0.00000000000E+00 -0.00000000000E+00 -0.58292292308E+03  0.58292292308E+03  0.25500000000E-02 0.  1.
    8880023    1    1    2    0    0 -0.49443684124E+03  0.48660895030E+03  0.45802984572E+03  0.10605930446E+04  0.65864270000E+03 0.  0.
    8880022    1    1    2    0    0  0.49443684124E+03 -0.48660895030E+03  0.16631115278E+03  0.72959380003E+03  0.15294330000E+03 0. -1.
<mgrwt>
<rscale>  0 0.88801079E+03</rscale>
<asrwt>0</asrwt>
<pdfrwt beam="1">  1        2 0.18573291E+00 0.95659096E+03</pdfrwt>
<pdfrwt beam="2">  1       -2 0.89680450E-01 0.95659096E+03</pdfrwt>
<totfact> 0.19954879E+01</totfact>
</mgrwt>
</event>
<event>
 4    2  0.6387803E-007  0.7280998E+03  0.7818608E-02  0.9896075E-01
          2   -1    0    0  501    0  0.00000000000E+00  0.00000000000E+00  0.14246032303E+04  0.14246032303E+04  0.25500000000E-02 0. -1.
         -2   -1    0    0    0  501 -0.00000000000E+00 -0.00000000000E+00 -0.98409965954E+03  0.98409965955E+03  0.25500000000E-02 0.  1.
    8880023    1    1    2    0    0  0.30355923836E+03  0.64582501986E+02 -0.82290600561E+03  0.10987736851E+04  0.65864270000E+03 0.  0.
    8880022    1    1    2    0    0 -0.30355923836E+03 -0.64582501986E+02  0.12634095764E+04  0.13099292048E+04  0.15294330000E+03 0. -1.
<mgrwt>
<rscale>  0 0.60451883E+03</rscale>
<asrwt>0</asrwt>
<pdfrwt beam="1">  1        2 0.21916973E+00 0.72809980E+03</pdfrwt>
<pdfrwt beam="2">  1       -2 0.15139995E+00 0.72809980E+03</pdfrwt>
<totfact> 0.42127167E+00</totfact>
</mgrwt>
</event>
<event>
 4    2  0.6387803E-007  0.7435556E+03  0.7818608E-02  0.9849708E-01
         -2   -1    0    0    0  501 -0.00000000000E+00  0.00000000000E+00  0.89653829361E+03  0.89653829361E+03  0.25500000000E-02 0.  1.
          2   -1    0    0  501    0  0.00000000000E+00 -0.00000000000E+00 -0.11328584787E+04  0.11328584787E+04  0.25500000000E-02 0. -1.
    8880023    1    1    2    0    0  0.34323386296E+03 -0.35429244588E+02  0.69916522203E+03  0.10206404509E+04  0.65864270000E+03 0.  1.
    8880022    1    1    2    0    0 -0.34323386296E+03  0.35429244588E+02 -0.93548540714E+03  0.10087563214E+04  0.15294330000E+03 0.  0.
<mgrwt>
<rscale>  0 0.62761790E+03</rscale>
<asrwt>0</asrwt>
<pdfrwt beam="1">  1        2 0.17428592E+00 0.74355559E+03</pdfrwt>
<pdfrwt beam="2">  1       -2 0.13792897E+00 0.74355559E+03</pdfrwt>
<totfact> 0.79219763E+00</totfact>
</mgrwt>
</event>
<event>
 4    2  0.6387803E-007  0.1049266E+04  0.7818608E-02  0.9319764E-01
          2   -1    0    0  501    0  0.00000000000E+00  0.00000000000E+00  0.17267541312E+04  0.17267541312E+04  0.25500000000E-02 0. -1.
         -2   -1    0    0    0  501 -0.00000000000E+00 -0.00000000000E+00 -0.54354565701E+03  0.54354565702E+03  0.25500000000E-02 0.  1.
    8880023    1    1    2    0    0  0.79566887973E+03 -0.18455339166E+03  0.92865152235E+03  0.14011969086E+04  0.65864270000E+03 0.  0.
    8880022    1    1    2    0    0 -0.79566887973E+03  0.18455339166E+03  0.25455695182E+03  0.86910287957E+03  0.15294330000E+03 0.  0.
<mgrwt>
<rscale>  0 0.98983510E+03</rscale>
<asrwt>0</asrwt>
<pdfrwt beam="1">  1        2 0.26565448E+00 0.10492660E+04</pdfrwt>
<pdfrwt beam="2">  1       -2 0.83622411E-01 0.10492660E+04</pdfrwt>
<totfact> 0.11776351E+01</totfact>
</mgrwt>
</event>
<event>
 4    2  0.6387803E-007  0.6765670E+03  0.7818608E-02  0.1011336E+00
         -2   -1    0    0    0  501 -0.00000000000E+00  0.00000000000E+00  0.11437590685E+03  0.11437590688E+03  0.25500000000E-02 0.  1.
          2   -1    0    0  501    0  0.00000000000E+00 -0.00000000000E+00 -0.26007489094E+04  0.26007489094E+04  0.25500000000E-02 0. -1.
    8880023    1    1    2    0    0  0.90205704254E+02  0.12568051028E+03 -0.96656502162E+03  0.11798266004E+04  0.65864270000E+03 0.  1.
    8880022    1    1    2    0    0 -0.90205704254E+02 -0.12568051028E+03 -0.15198079809E+04  0.15352982159E+04  0.15294330000E+03 0.  0.
<mgrwt>
<rscale>  0 0.50947002E+03</rscale>
<asrwt>0</asrwt>
<pdfrwt beam="1">  1        2 0.40011517E+00 0.67656697E+03</pdfrwt>
<pdfrwt beam="2">  1       -2 0.17596295E-01 0.67656697E+03</pdfrwt>
<totfact> 0.85262339E+01</totfact>
</mgrwt>
</event>
<event>
 4    2  0.6387803E-007  0.1240119E+04  0.7818608E-02  0.9119077E-01
         -2   -1    0    0    0  501 -0.00000000000E+00  0.00000000000E+00  0.70575241396E+03  0.70575241397E+03  0.25500000000E-02 0.  1.
          2   -1    0    0  501    0  0.00000000000E+00 -0.00000000000E+00 -0.26806450654E+04  0.26806450654E+04  0.25500000000E-02 0. -1.
    8880023    1    1    2    0    0 -0.99718711697E+03  0.33121374949E+03 -0.11589601621E+03  0.12455226963E+04  0.65864270000E+03 0.  1.
    8880022    1    1    2    0    0  0.99718711697E+03 -0.33121374949E+03 -0.18589966353E+04  0.21408747831E+04  0.15294330000E+03 0. -1.
<mgrwt>
<rscale>  0 0.11929189E+04</rscale>
<asrwt>0</asrwt>
<pdfrwt beam="1">  1        2 0.41240693E+00 0.12401189E+04</pdfrwt>
<pdfrwt beam="2">  1       -2 0.10857730E+00 0.12401189E+04</pdfrwt>
<totfact> 0.18114278E+00</totfact>
</mgrwt>
</event>
<event>
 4    2  0.6387803E-007  0.8450034E+03  0.7818608E-02  0.9620817E-01
          2   -1    0    0  501    0  0.00000000000E+00  0.00000000000E+00  0.98681931986E+03  0.98681931986E+03  0.25500000000E-02 0. -1.
         -2   -1    0    0    0  501 -0.00000000000E+00 -0.00000000000E+00 -0.65683191144E+03  0.65683191144E+03  0.25500000000E-02 0.  1.
    8880023    1    1    2    0    0 -0.51621126024E+03 -0.11724542245E+03  0.59376546594E+03  0.10327575655E+04  0.65864270000E+03 0.  0.
    8880022    1    1    2    0    0  0.51621126024E+03  0.11724542245E+03 -0.26377805753E+03  0.61089366581E+03  0.15294330000E+03 0.  0.
<mgrwt>
<rscale>  0 0.75933558E+03</rscale>
<asrwt>0</asrwt>
<pdfrwt beam="1">  1        2 0.15181836E+00 0.84500341E+03</pdfrwt>
<pdfrwt beam="2">  1       -2 0.10105106E+00 0.84500341E+03</pdfrwt>
<totfact> 0.20840824E+01</totfact>
</mgrwt>
</event>
<event>
 4    2  0.6387803E-007  0.7634643E+03  0.7818608E-02  0.9796220E-01
         -2   -1    0    0    0  501 -0.00000000000E+00  0.00000000000E+00  0.28850261523E+03  0.28850261524E+03  0.25500000000E-02 0.  1.
          2   -1    0    0  501    0  0.00000000000E+00 -0.00000000000E+00 -0.23691613058E+04  0.23691613058E+04  0.25500000000E-02 0. -1.
    8880023    1    1    2    0    0 -0.38606478227E+03 -0.46306430135E+01 -0.28550513970E+03  0.81510174213E+03  0.65864270000E+03 0.  0.
    8880022    1    1    2    0    0  0.38606478227E+03  0.46306430135E+01 -0.17951535509E+04  0.18425621789E+04  0.15294330000E+03 0. -1.
<mgrwt>
<rscale>  0 0.65565790E+03</rscale>
<asrwt>0</asrwt>
<pdfrwt beam="1">  1        2 0.36448634E+00 0.76346425E+03</pdfrwt>
<pdfrwt beam="2">  1       -2 0.44385019E-01 0.76346425E+03</pdfrwt>
<totfact> 0.20735226E+01</totfact>
</mgrwt>
</event>
<event>
 4    2  0.6387803E-007  0.7228667E+03  0.7818608E-02  0.9913003E-01
          2   -1    0    0  501    0  0.00000000000E+00  0.00000000000E+00  0.74702100988E+03  0.74702100988E+03  0.25500000000E-02 0. -1.
         -2   -1    0    0    0  501 -0.00000000000E+00 -0.00000000000E+00 -0.39071223195E+03  0.39071223196E+03  0.25500000000E-02 0.  1.
    8880023    1    1    2    0    0 -0.24893166901E+03  0.16358220914E+03  0.13230670277E+03  0.73487508111E+03  0.65864270000E+03 0.  1.
    8880022    1    1    2    0    0  0.24893166901E+03 -0.16358220914E+03  0.22400207515E+03  0.40285816073E+03  0.15294330000E+03 0.  1.
<mgrwt>
<rscale>  0 0.59635242E+03</rscale>
<asrwt>0</asrwt>
<pdfrwt beam="1">  1        2 0.11492631E+00 0.72286674E+03</pdfrwt>
<pdfrwt beam="2">  1       -2 0.60109575E-01 0.72286674E+03</pdfrwt>
<totfact> 0.98601466E+01</totfact>
</mgrwt>
</event>
<event>
 4    2  0.6387803E-007  0.7593504E+03  0.7818608E-02  0.9806792E-01
         -2   -1    0    0    0  501 -0.00000000000E+00  0.00000000000E+00  0.27221822852E+03  0.27221822853E+03  0.25500000000E-02 0.  1.
          2   -1    0    0  501    0  0.00000000000E+00 -0.00000000000E+00 -0.14945817020E+04  0.14945817020E+04  0.25500000000E-02 0. -1.
    8880023    1    1    2    0    0  0.19792617034E+03  0.32191311558E+03 -0.11082866843E+04  0.13434702839E+04  0.65864270000E+03 0.  0.
    8880022    1    1    2    0    0 -0.19792617034E+03 -0.32191311558E+03 -0.11407678923E+03  0.42332964667E+03  0.15294330000E+03 0.  0.
<mgrwt>
<rscale>  0 0.64999309E+03</rscale>
<asrwt>0</asrwt>
<pdfrwt beam="1">  1        2 0.22993564E+00 0.75935040E+03</pdfrwt>
<pdfrwt beam="2">  1       -2 0.41879728E-01 0.75935040E+03</pdfrwt>
<totfact> 0.70395263E+01</totfact>
</mgrwt>
</event>
<event>
 4    2  0.6387803E-007  0.7332559E+03  0.7818608E-02  0.9880046E-01
         -2   -1    0    0    0  501 -0.00000000000E+00  0.00000000000E+00  0.18204657289E+03  0.18204657291E+03  0.25500000000E-02 0.  1.
          2   -1    0    0  501    0  0.00000000000E+00 -0.00000000000E+00 -0.16866075960E+04  0.16866075960E+04  0.25500000000E-02 0. -1.
    8880023    1    1    2    0    0  0.20577761171E+03  0.24801119081E+03 -0.84483294167E+03  0.11186629885E+04  0.65864270000E+03 0. -1.
    8880022    1    1    2    0    0 -0.20577761171E+03 -0.24801119081E+03 -0.65972808146E+03  0.74999118044E+03  0.15294330000E+03 0.  0.
<mgrwt>
<rscale>  0 0.61238145E+03</rscale>
<asrwt>0</asrwt>
<pdfrwt beam="1">  1        2 0.25947808E+00 0.73325588E+03</pdfrwt>
<pdfrwt beam="2">  1       -2 0.28007166E-01 0.73325588E+03</pdfrwt>
<totfact> 0.11868824E+02</totfact>
</mgrwt>
</event>
<event>
 4    2  0.6387803E-007  0.8736255E+03  0.7818608E-02  0.9569771E-01
         -2   -1    0    0    0  501 -0.00000000000E+00  0.00000000000E+00  0.33597454588E+03  0.33597454589E+03  0.25500000000E-02 0.  1.
          2   -1    0    0  501    0  0.00000000000E+00 -0.00000000000E+00 -0.36486934281E+04  0.36486934281E+04  0.25500000000E-02 0. -1.
    8880023    1    1    2    0    0  0.14370625843E+02  0.57376376984E+03 -0.31501508581E+03  0.92868513987E+03  0.65864270000E+03 0.  0.
    8880022    1    1    2    0    0 -0.14370625843E+02 -0.57376376984E+03 -0.29977037964E+04  0.30559828342E+04  0.15294330000E+03 0.  0.
<mgrwt>
<rscale>  0 0.79329649E+03</rscale>
<asrwt>0</asrwt>
<pdfrwt beam="1">  1        2 0.56133742E+00 0.87362554E+03</pdfrwt>
<pdfrwt beam="2">  1       -2 0.51688394E-01 0.87362554E+03</pdfrwt>
<totfact> 0.23976764E+00</totfact>
</mgrwt>
</event>
<event>
 4    2  0.6387803E-007  0.7578514E+03  0.7818608E-02  0.9810702E-01
         -2   -1    0    0    0  501 -0.00000000000E+00  0.00000000000E+00  0.33861874344E+03  0.33861874345E+03  0.25500000000E-02 0.  1.
          2   -1    0    0  501    0  0.00000000000E+00 -0.00000000000E+00 -0.20368406169E+04  0.20368406169E+04  0.25500000000E-02 0. -1.
    8880023    1    1    2    0    0  0.37436561395E+03 -0.19464186227E+02 -0.14661973957E+03  0.77190415321E+03  0.65864270000E+03 0.  1.
    8880022    1    1    2    0    0 -0.37436561395E+03  0.19464186227E+02 -0.15516021339E+04  0.16035552072E+04  0.15294330000E+03 0.  0.
<mgrwt>
<rscale>  0 0.64791354E+03</rscale>
<asrwt>0</asrwt>
<pdfrwt beam="1">  1        2 0.31336009E+00 0.75785135E+03</pdfrwt>
<pdfrwt beam="2">  1       -2 0.52095192E-01 0.75785135E+03</pdfrwt>
<totfact> 0.22906653E+01</totfact>
</mgrwt>
</event>
<event>
 4    2  0.6387803E-007  0.8014617E+03  0.7818608E-02  0.9707644E-01
          2   -1    0    0  501    0  0.00000000000E+00  0.00000000000E+00  0.92824369089E+03  0.92824369089E+03  0.25500000000E-02 0. -1.
         -2   -1    0    0    0  501 -0.00000000000E+00 -0.00000000000E+00 -0.77957992770E+03  0.77957992771E+03  0.25500000000E-02 0.  1.
    8880023    1    1    2    0    0 -0.35618639271E+03  0.28576544810E+03 -0.46590582677E+03  0.92704319390E+03  0.65864270000E+03 0.  1.
    8880022    1    1    2    0    0  0.35618639271E+03 -0.28576544810E+03  0.61456958995E+03  0.78078042470E+03  0.15294330000E+03 0.  0.
<mgrwt>
<rscale>  0 0.70563463E+03</rscale>
<asrwt>0</asrwt>
<pdfrwt beam="1">  1        2 0.14280672E+00 0.80146169E+03</pdfrwt>
<pdfrwt beam="2">  1       -2 0.11993537E+00 0.80146169E+03</pdfrwt>
<totfact> 0.15082247E+01</totfact>
</mgrwt>
</event>
<event>
 4    2  0.6387803E-007  0.6656926E+03  0.7818608E-02  0.1018959E+00
         -2   -1    0    0    0  501 -0.00000000000E+00  0.00000000000E+00  0.58700615197E+03  0.58700615197E+03  0.25500000000E-02 0.  1.
          2   -1    0    0  501    0  0.00000000000E+00 -0.00000000000E+00 -0.17725867214E+04  0.17725867214E+04  0.25500000000E-02 0. -1.
    8880023    1    1    2    0    0 -0.79302952677E+02  0.55203985270E+02  0.39142564319E+03  0.77224392436E+03  0.65864270000E+03 0.  1.
    8880022    1    1    2    0    0  0.79302952677E+02 -0.55203985270E+02 -0.15770062127E+04  0.15873489491E+04  0.15294330000E+03 0.  0.
<mgrwt>
<rscale>  0 0.48064052E+03</rscale>
<asrwt>0</asrwt>
<pdfrwt beam="1">  1        2 0.27270565E+00 0.66569261E+03</pdfrwt>
<pdfrwt beam="2">  1       -2 0.90308640E-01 0.66569261E+03</pdfrwt>
<totfact> 0.97795627E+00</totfact>
</mgrwt>
</event>
<event>
 4    2  0.6387803E-007  0.6654034E+03  0.7818608E-02  0.1019197E+00
         -2   -1    0    0    0  501 -0.00000000000E+00  0.00000000000E+00  0.33981765654E+03  0.33981765655E+03  0.25500000000E-02 0.  1.
          2   -1    0    0  501    0  0.00000000000E+00 -0.00000000000E+00 -0.15348351786E+04  0.15348351786E+04  0.25500000000E-02 0. -1.
    8880023    1    1    2    0    0 -0.50103440665E+02 -0.80256358966E+02  0.78349131987E+00  0.66540383080E+03  0.65864270000E+03 0.  0.
    8880022    1    1    2    0    0  0.50103440665E+02  0.80256358966E+02 -0.11958010134E+04  0.12092490043E+04  0.15294330000E+03 0. -1.
<mgrwt>
<rscale>  0 0.47977370E+03</rscale>
<asrwt>0</asrwt>
<pdfrwt beam="1">  1        2 0.23612848E+00 0.66540337E+03</pdfrwt>
<pdfrwt beam="2">  1       -2 0.52279641E-01 0.66540337E+03</pdfrwt>
<totfact> 0.43274093E+01</totfact>
</mgrwt>
</event>
<event>
 4    2  0.6387803E-007  0.8956373E+03  0.7818608E-02  0.9533072E-01
          2   -1    0    0  501    0  0.00000000000E+00  0.00000000000E+00  0.25729563130E+04  0.25729563130E+04  0.25500000000E-02 0. -1.
         -2   -1    0    0    0  501 -0.00000000000E+00 -0.00000000000E+00 -0.41409321605E+03  0.41409321605E+03  0.25500000000E-02 0.  1.
    8880023    1    1    2    0    0 -0.13875697966E+03 -0.59084895567E+03  0.18262730252E+03  0.91406724354E+03  0.65864270000E+03 0.  0.
    8880022    1    1    2    0    0  0.13875697966E+03  0.59084895567E+03  0.19762357944E+04  0.20729822855E+04  0.15294330000E+03 0.  0.
<mgrwt>
<rscale>  0 0.81888880E+03</rscale>
<asrwt>0</asrwt>
<pdfrwt beam="1">  1        2 0.39583943E+00 0.89563731E+03</pdfrwt>
<pdfrwt beam="2">  1       -2 0.63706649E-01 0.89563731E+03</pdfrwt>
<totfact> 0.73922538E+00</totfact>
</mgrwt>
</event>
<event>
 4    2  0.6387803E-007  0.7667355E+03  0.7818608E-02  0.9787972E-01
          2   -1    0    0  501    0  0.00000000000E+00  0.00000000000E+00  0.63689844165E+03  0.63689844166E+03  0.25500000000E-02 0. -1.
         -2   -1    0    0    0  501 -0.00000000000E+00 -0.00000000000E+00 -0.58468221553E+03  0.58468221554E+03  0.25500000000E-02 0.  1.
    8880023    1    1    2    0    0  0.74167383311E+02 -0.38545087539E+03 -0.10091135634E+03  0.77334758433E+03  0.65864270000E+03 0. -1.
    8880022    1    1    2    0    0 -0.74167383311E+02  0.38545087539E+03  0.15312758246E+03  0.44823307287E+03  0.15294330000E+03 0.  0.
<mgrwt>
<rscale>  0 0.66012052E+03</rscale>
<asrwt>0</asrwt>
<pdfrwt beam="1">  1        2 0.97984375E-01 0.76673554E+03</pdfrwt>
<pdfrwt beam="2">  1       -2 0.89951110E-01 0.76673554E+03</pdfrwt>
<totfact> 0.49340309E+01</totfact>
</mgrwt>
</event>
<event>
 4    2  0.6387803E-007  0.7110850E+03  0.7818608E-02  0.9953994E-01
         -2   -1    0    0    0  501 -0.00000000000E+00  0.00000000000E+00  0.75721664736E+03  0.75721664737E+03  0.25500000000E-02 0.  1.
          2   -1    0    0  501    0  0.00000000000E+00 -0.00000000000E+00 -0.11992859745E+04  0.11992859745E+04  0.25500000000E-02 0. -1.
    8880023    1    1    2    0    0 -0.26800106446E+03  0.26546314432E+01  0.56182601886E+03  0.90625068240E+03  0.65864270000E+03 0.  1.
    8880022    1    1    2    0    0  0.26800106446E+03 -0.26546314432E+01 -0.10038953460E+04  0.10502519395E+04  0.15294330000E+03 0.  0.
<mgrwt>
<rscale>  0 0.57714376E+03</rscale>
<asrwt>0</asrwt>
<pdfrwt beam="1">  1        2 0.18450553E+00 0.71108496E+03</pdfrwt>
<pdfrwt beam="2">  1       -2 0.11649487E+00 0.71108496E+03</pdfrwt>
<totfact> 0.11099563E+01</totfact>
</mgrwt>
</event>
<event>
 4    2  0.6387803E-007  0.6830384E+03  0.7818608E-02  0.1007655E+00
          2   -1    0    0  501    0  0.00000000000E+00  0.00000000000E+00  0.16420752957E+04  0.16420752957E+04  0.25500000000E-02 0. -1.
         -2   -1    0    0    0  501 -0.00000000000E+00 -0.00000000000E+00 -0.18367746846E+03  0.18367746848E+03  0.25500000000E-02 0.  1.
    8880023    1    1    2    0    0  0.11739031883E+03 -0.13766187828E+03  0.52148592840E+03  0.85935386161E+03  0.65864270000E+03 0.  1.
    8880022    1    1    2    0    0 -0.11739031883E+03  0.13766187828E+03  0.93691189885E+03  0.96639890258E+03  0.15294330000E+03 0.  0.
<mgrwt>
<rscale>  0 0.52417511E+03</rscale>
<asrwt>0</asrwt>
<pdfrwt beam="1">  1        2 0.25262696E+00 0.68303842E+03</pdfrwt>
<pdfrwt beam="2">  1       -2 0.28258073E-01 0.68303842E+03</pdfrwt>
<totfact> 0.12410480E+02</totfact>
</mgrwt>
</event>
<event>
 4    2  0.6387803E-007  0.6742869E+03  0.7818608E-02  0.1012760E+00
         -2   -1    0    0    0  501 -0.00000000000E+00  0.00000000000E+00  0.85024437316E+03  0.85024437316E+03  0.25500000000E-02 0.  1.
          2   -1    0    0  501    0  0.00000000000E+00 -0.00000000000E+00 -0.44543295596E+03  0.44543295597E+03  0.25500000000E-02 0. -1.
    8880023    1    1    2    0    0  0.14363647263E+03  0.14872590908E+02  0.67444857883E+03  0.95370001676E+03  0.65864270000E+03 0.  1.
    8880022    1    1    2    0    0 -0.14363647263E+03 -0.14872590908E+02 -0.26963716163E+03  0.34197731237E+03  0.15294330000E+03 0.  0.
<mgrwt>
<rscale>  0 0.50392475E+03</rscale>
<asrwt>0</asrwt>
<pdfrwt beam="1">  1        2 0.68528147E-01 0.67428691E+03</pdfrwt>
<pdfrwt beam="2">  1       -2 0.13080683E+00 0.67428691E+03</pdfrwt>
<totfact> 0.30632574E+01</totfact>
</mgrwt>
</event>
<event>
 4    2  0.6387803E-007  0.9344253E+03  0.7818608E-02  0.9472886E-01
          2   -1    0    0  501    0  0.00000000000E+00  0.00000000000E+00  0.31344086078E+04  0.31344086078E+04  0.25500000000E-02 0. -1.
         -2   -1    0    0    0  501 -0.00000000000E+00 -0.00000000000E+00 -0.37937688862E+03  0.37937688863E+03  0.25500000000E-02 0.  1.
    8880023    1    1    2    0    0 -0.48871724573E+03  0.44776763187E+03  0.32341420033E+03  0.98881107885E+03  0.65864270000E+03 0.  1.
    8880022    1    1    2    0    0  0.48871724573E+03 -0.44776763187E+03  0.24316175188E+04  0.25249744176E+04  0.15294330000E+03 0.  0.
<mgrwt>
<rscale>  0 0.86312686E+03</rscale>
<asrwt>0</asrwt>
<pdfrwt beam="1">  1        2 0.48221670E+00 0.93442528E+03</pdfrwt>
<pdfrwt beam="2">  1       -2 0.58365676E-01 0.93442528E+03</pdfrwt>
<totfact> 0.40705254E+00</totfact>
</mgrwt>
</event>
<event>
 4    2  0.6387803E-007  0.7797390E+03  0.7818608E-02  0.9756450E-01
         -2   -1    0    0    0  501 -0.00000000000E+00  0.00000000000E+00  0.51834211648E+03  0.51834211648E+03  0.25500000000E-02 0.  1.
          2   -1    0    0  501    0  0.00000000000E+00 -0.00000000000E+00 -0.20312317954E+04  0.20312317954E+04  0.25500000000E-02 0. -1.
    8880023    1    1    2    0    0 -0.32270000815E+03 -0.26466463915E+03  0.17920871731E+03  0.80006789531E+03  0.65864270000E+03 0.  1.
    8880022    1    1    2    0    0  0.32270000815E+03  0.26466463915E+03 -0.16920983962E+04  0.17495060165E+04  0.15294330000E+03 0.  0.
<mgrwt>
<rscale>  0 0.67752956E+03</rscale>
<asrwt>0</asrwt>
<pdfrwt beam="1">  1        2 0.31249719E+00 0.77973898E+03</pdfrwt>
<pdfrwt beam="2">  1       -2 0.79744942E-01 0.77973898E+03</pdfrwt>
<totfact> 0.92194662E+00</totfact>
</mgrwt>
</event>
<event>
 4    2  0.6387803E-007  0.9949286E+03  0.7818608E-02  0.9388223E-01
          2   -1    0    0  501    0  0.00000000000E+00  0.00000000000E+00  0.28058278572E+04  0.28058278573E+04  0.25500000000E-02 0. -1.
         -2   -1    0    0    0  501 -0.00000000000E+00 -0.00000000000E+00 -0.35232644049E+03  0.35232644050E+03  0.25500000000E-02 0.  1.
    8880023    1    1    2    0    0  0.26067819193E+03 -0.69865558860E+03  0.61844993498E+03  0.11714790991E+04  0.65864270000E+03 0.  1.
    8880022    1    1    2    0    0 -0.26067819193E+03  0.69865558860E+03  0.18350514818E+04  0.19866751987E+04  0.15294330000E+03 0.  0.
<mgrwt>
<rscale>  0 0.93051266E+03</rscale>
<asrwt>0</asrwt>
<pdfrwt beam="1">  1        2 0.43166584E+00 0.99492862E+03</pdfrwt>
<pdfrwt beam="2">  1       -2 0.54204065E-01 0.99492862E+03</pdfrwt>
<totfact> 0.74908742E+00</totfact>
</mgrwt>
</event>
<event>
 4    2  0.6387803E-007  0.6742354E+03  0.7818608E-02  0.1012793E+00
          2   -1    0    0  501    0  0.00000000000E+00  0.00000000000E+00  0.13452960163E+04  0.13452960163E+04  0.25500000000E-02 0. -1.
         -2   -1    0    0    0  501 -0.00000000000E+00 -0.00000000000E+00 -0.24502361296E+03  0.24502361297E+03  0.25500000000E-02 0.  1.
    8880023    1    1    2    0    0  0.26137917895E+02  0.14177425954E+03  0.25749873957E+03  0.72173328769E+03  0.65864270000E+03 0.  1.
    8880022    1    1    2    0    0 -0.26137917895E+02 -0.14177425954E+03  0.84277366381E+03  0.86858634162E+03  0.15294330000E+03 0.  0.
<mgrwt>
<rscale>  0 0.50379686E+03</rscale>
<asrwt>0</asrwt>
<pdfrwt beam="1">  1        2 0.20696861E+00 0.67423537E+03</pdfrwt>
<pdfrwt beam="2">  1       -2 0.37695941E-01 0.67423537E+03</pdfrwt>
<totfact> 0.10569485E+02</totfact>
</mgrwt>
</event>
<event>
 4    2  0.6387803E-007  0.6734813E+03  0.7818608E-02  0.1013281E+00
         -2   -1    0    0    0  501 -0.00000000000E+00  0.00000000000E+00  0.87090738557E+03  0.87090738558E+03  0.25500000000E-02 0.  1.
          2   -1    0    0  501    0  0.00000000000E+00 -0.00000000000E+00 -0.26302663409E+03  0.26302663411E+03  0.25500000000E-02 0. -1.
    8880023    1    1    2    0    0 -0.14025519690E+03  0.97627483024E+01  0.63350799457E+03  0.92461311745E+03  0.65864270000E+03 0.  1.
    8880022    1    1    2    0    0  0.14025519690E+03 -0.97627483024E+01 -0.25627243088E+02  0.20932090224E+03  0.15294330000E+03 0.  0.
<mgrwt>
<rscale>  0 0.50191182E+03</rscale>
<asrwt>0</asrwt>
<pdfrwt beam="1">  1        2 0.40465635E-01 0.67348128E+03</pdfrwt>
<pdfrwt beam="2">  1       -2 0.13398575E+00 0.67348128E+03</pdfrwt>
<totfact> 0.51901451E+01</totfact>
</mgrwt>
</event>
<event>
 4    2  0.6387803E-007  0.1046308E+04  0.7818608E-02  0.9323333E-01
          2   -1    0    0  501    0  0.00000000000E+00  0.00000000000E+00  0.73472892309E+03  0.73472892309E+03  0.25500000000E-02 0. -1.
         -2   -1    0    0    0  501 -0.00000000000E+00 -0.00000000000E+00 -0.19848097121E+04  0.19848097121E+04  0.25500000000E-02 0.  1.
    8880023    1    1    2    0    0 -0.80732270984E+03  0.95814327024E+02 -0.15235732615E+04  0.18482521561E+04  0.65864270000E+03 0.  0.
    8880022    1    1    2    0    0  0.80732270984E+03 -0.95814327024E+02  0.27349247251E+03  0.87128647908E+03  0.15294330000E+03 0.  0.
<mgrwt>
<rscale>  0 0.98662889E+03</rscale>
<asrwt>0</asrwt>
<pdfrwt beam="1">  1        2 0.11303522E+00 0.10463081E+04</pdfrwt>
<pdfrwt beam="2">  1       -2 0.30535534E+00 0.10463081E+04</pdfrwt>
<totfact> 0.11346640E+00</totfact>
</mgrwt>
</event>
<event>
 4    2  0.6387803E-007  0.7118567E+03  0.7818608E-02  0.9951170E-01
          2   -1    0    0  501    0  0.00000000000E+00  0.00000000000E+00  0.44300356420E+03  0.44300356420E+03  0.25500000000E-02 0. -1.
         -2   -1    0    0    0  501 -0.00000000000E+00 -0.00000000000E+00 -0.73904892279E+03  0.73904892280E+03  0.25500000000E-02 0.  1.
    8880023    1    1    2    0    0 -0.26407589106E+03 -0.56512565267E+02 -0.44322743049E+03  0.83856455188E+03  0.65864270000E+03 0.  1.
    8880022    1    1    2    0    0  0.26407589106E+03  0.56512565267E+02  0.14718207189E+03  0.34348793512E+03  0.15294330000E+03 0.  1.
<mgrwt>
<rscale>  0 0.57844195E+03</rscale>
<asrwt>0</asrwt>
<pdfrwt beam="1">  1        2 0.68154395E-01 0.71185669E+03</pdfrwt>
<pdfrwt beam="2">  1       -2 0.11369983E+00 0.71185669E+03</pdfrwt>
<totfact> 0.43537714E+01</totfact>
</mgrwt>
</event>
<event>
 4    2  0.6387803E-007  0.7687678E+03  0.7818608E-02  0.9782916E-01
         -2   -1    0    0    0  501 -0.00000000000E+00  0.00000000000E+00  0.53411225712E+03  0.53411225713E+03  0.25500000000E-02 0.  1.
          2   -1    0    0  501    0  0.00000000000E+00 -0.00000000000E+00 -0.70874408701E+03  0.70874408702E+03  0.25500000000E-02 0. -1.
    8880023    1    1    2    0    0 -0.14795222273E+03  0.36783668661E+03  0.33859243072E+02  0.76951305566E+03  0.65864270000E+03 0.  0.
    8880022    1    1    2    0    0  0.14795222273E+03 -0.36783668661E+03 -0.20849107296E+03  0.47334328848E+03  0.15294330000E+03 0.  0.
<mgrwt>
<rscale>  0 0.66287508E+03</rscale>
<asrwt>0</asrwt>
<pdfrwt beam="1">  1        2 0.10903755E+00 0.76876778E+03</pdfrwt>
<pdfrwt beam="2">  1       -2 0.82171117E-01 0.76876778E+03</pdfrwt>
<totfact> 0.53084143E+01</totfact>
</mgrwt>
</event>
<event>
 4    2  0.6387803E-007  0.6785272E+03  0.7818608E-02  0.1010169E+00
         -2   -1    0    0    0  501 -0.00000000000E+00  0.00000000000E+00  0.38234514439E+03  0.38234514439E+03  0.25500000000E-02 0.  1.
          2   -1    0    0  501    0  0.00000000000E+00 -0.00000000000E+00 -0.12165942838E+04  0.12165942838E+04  0.25500000000E-02 0. -1.
    8880023    1    1    2    0    0 -0.55177275320E+02 -0.15344180475E+03  0.56203528889E+02  0.68085091032E+03  0.65864270000E+03 0.  1.
    8880022    1    1    2    0    0  0.55177275320E+02  0.15344180475E+03 -0.89045266832E+03  0.91808851790E+03  0.15294330000E+03 0.  0.
<mgrwt>
<rscale>  0 0.51407394E+03</rscale>
<asrwt>0</asrwt>
<pdfrwt beam="1">  1        2 0.18716835E+00 0.67852717E+03</pdfrwt>
<pdfrwt beam="2">  1       -2 0.58822330E-01 0.67852717E+03</pdfrwt>
<totfact> 0.51255895E+01</totfact>
</mgrwt>
</event>
<event>
 4    2  0.6387803E-007  0.7493133E+03  0.7818608E-02  0.9833604E-01
          2   -1    0    0  501    0  0.00000000000E+00  0.00000000000E+00  0.63917342103E+03  0.63917342103E+03  0.25500000000E-02 0. -1.
         -2   -1    0    0    0  501 -0.00000000000E+00 -0.00000000000E+00 -0.79093866858E+03  0.79093866858E+03  0.25500000000E-02 0.  1.
    8880023    1    1    2    0    0  0.17438005629E+03 -0.31185225201E+03 -0.50606999408E+03  0.90419979888E+03  0.65864270000E+03 0.  1.
    8880022    1    1    2    0    0 -0.17438005629E+03  0.31185225201E+03  0.35430474653E+03  0.52591229073E+03  0.15294330000E+03 0. -1.
<mgrwt>
<rscale>  0 0.63589931E+03</rscale>
<asrwt>0</asrwt>
<pdfrwt beam="1">  1        2 0.98334373E-01 0.74931331E+03</pdfrwt>
<pdfrwt beam="2">  1       -2 0.12168287E+00 0.74931331E+03</pdfrwt>
<totfact> 0.23859121E+01</totfact>
</mgrwt>
</event>
<event>
 4    2  0.6387803E-007  0.8944898E+03  0.7818608E-02  0.9534936E-01
          2   -1    0    0  501    0  0.00000000000E+00  0.00000000000E+00  0.50313574155E+03  0.50313574156E+03  0.25500000000E-02 0. -1.
         -2   -1    0    0    0  501 -0.00000000000E+00 -0.00000000000E+00 -0.15513234191E+04  0.15513234191E+04  0.25500000000E-02 0.  1.
    8880023    1    1    2    0    0 -0.59936799611E+03 -0.84022731986E+02 -0.11118151817E+04  0.14269705739E+04  0.65864270000E+03 0.  0.
    8880022    1    1    2    0    0  0.59936799611E+03  0.84022731986E+02  0.63627504126E+02  0.62748858679E+03  0.15294330000E+03 0.  0.
<mgrwt>
<rscale>  0 0.81756434E+03</rscale>
<asrwt>0</asrwt>
<pdfrwt beam="1">  1        2 0.77405500E-01 0.89448981E+03</pdfrwt>
<pdfrwt beam="2">  1       -2 0.23866514E+00 0.89448981E+03</pdfrwt>
<totfact> 0.46589652E+00</totfact>
</mgrwt>
</event>
<event>
 4    2  0.6387803E-007  0.6830605E+03  0.7818608E-02  0.1007643E+00
         -2   -1    0    0    0  501 -0.00000000000E+00  0.00000000000E+00  0.65869782008E+03  0.65869782009E+03  0.25500000000E-02 0.  1.
          2   -1    0    0  501    0  0.00000000000E+00 -0.00000000000E+00 -0.68216523755E+03  0.68216523755E+03  0.25500000000E-02 0. -1.
    8880023    1    1    2    0    0  0.13441588729E+03 -0.12121789793E+03  0.44544827630E+03  0.81547273569E+03  0.65864270000E+03 0.  1.
    8880022    1    1    2    0    0 -0.13441588729E+03  0.12121789793E+03 -0.46891569376E+03  0.52539032195E+03  0.15294330000E+03 0.  0.
<mgrwt>
<rscale>  0 0.52422297E+03</rscale>
<asrwt>0</asrwt>
<pdfrwt beam="1">  1        2 0.10494850E+00 0.68306048E+03</pdfrwt>
<pdfrwt beam="2">  1       -2 0.10133813E+00 0.68306048E+03</pdfrwt>
<totfact> 0.34519505E+01</totfact>
</mgrwt>
</event>
<event>
 4    2  0.6387803E-007  0.8019692E+03  0.7818608E-02  0.9706554E-01
          2   -1    0    0  501    0  0.00000000000E+00  0.00000000000E+00  0.20442562767E+04  0.20442562767E+04  0.25500000000E-02 0. -1.
         -2   -1    0    0    0  501 -0.00000000000E+00 -0.00000000000E+00 -0.42349459991E+03  0.42349459991E+03  0.25500000000E-02 0.  1.
    8880023    1    1    2    0    0 -0.24765471409E+03  0.38472277528E+03  0.26836655294E+02  0.80241814758E+03  0.65864270000E+03 0.  0.
    8880022    1    1    2    0    0  0.24765471409E+03 -0.38472277528E+03  0.15939250215E+04  0.16653327290E+04  0.15294330000E+03 0.  0.
<mgrwt>
<rscale>  0 0.70627895E+03</rscale>
<asrwt>0</asrwt>
<pdfrwt beam="1">  1        2 0.31450097E+00 0.80196925E+03</pdfrwt>
<pdfrwt beam="2">  1       -2 0.65153014E-01 0.80196925E+03</pdfrwt>
<totfact> 0.14099988E+01</totfact>
</mgrwt>
</event>
<event>
 4    2  0.6387803E-007  0.7555296E+03  0.7818608E-02  0.9816821E-01
         -2   -1    0    0    0  501 -0.00000000000E+00  0.00000000000E+00  0.45841641454E+03  0.45841641454E+03  0.25500000000E-02 0.  1.
          2   -1    0    0  501    0  0.00000000000E+00 -0.00000000000E+00 -0.16430794569E+04  0.16430794569E+04  0.25500000000E-02 0. -1.
    8880023    1    1    2    0    0 -0.34430571425E+03 -0.13589818574E+03  0.94205221239E+02  0.76138004421E+03  0.65864270000E+03 0.  1.
    8880022    1    1    2    0    0  0.34430571425E+03  0.13589818574E+03 -0.12788682636E+04  0.13401158272E+04  0.15294330000E+03 0.  0.
<mgrwt>
<rscale>  0 0.64467572E+03</rscale>
<asrwt>0</asrwt>
<pdfrwt beam="1">  1        2 0.25278145E+00 0.75552958E+03</pdfrwt>
<pdfrwt beam="2">  1       -2 0.70525603E-01 0.75552958E+03</pdfrwt>
<totfact> 0.19794003E+01</totfact>
</mgrwt>
</event>
<event>
 4    2  0.6387803E-007  0.6873030E+03  0.7818608E-02  0.1005462E+00
         -2   -1    0    0    0  501 -0.00000000000E+00  0.00000000000E+00  0.55134784914E+03  0.55134784914E+03  0.25500000000E-02 0.  1.
          2   -1    0    0  501    0  0.00000000000E+00 -0.00000000000E+00 -0.19215047255E+04  0.19215047255E+04  0.25500000000E-02 0. -1.
    8880023    1    1    2    0    0  0.11780161280E+03 -0.15715601770E+03  0.32446743713E+03  0.76004247111E+03  0.65864270000E+03 0.  0.
    8880022    1    1    2    0    0 -0.11780161280E+03  0.15715601770E+03 -0.16946243135E+04  0.17128101035E+04  0.15294330000E+03 0.  0.
<mgrwt>
<rscale>  0 0.53318896E+03</rscale>
<asrwt>0</asrwt>
<pdfrwt beam="1">  1        2 0.29561611E+00 0.68730302E+03</pdfrwt>
<pdfrwt beam="2">  1       -2 0.84822747E-01 0.68730302E+03</pdfrwt>
<totfact> 0.93362320E+00</totfact>
</mgrwt>
</event>
<event>
 4    2  0.6387803E-007  0.8015438E+03  0.7818608E-02  0.9707468E-01
         -2   -1    0    0    0  501 -0.00000000000E+00  0.00000000000E+00  0.16302056346E+03  0.16302056348E+03  0.25500000000E-02 0.  1.
          2   -1    0    0  501    0  0.00000000000E+00 -0.00000000000E+00 -0.29317296828E+04  0.29317296828E+04  0.25500000000E-02 0. -1.
    8880023    1    1    2    0    0  0.44732325610E+03 -0.92543075835E+02 -0.11211071316E+04  0.13781704260E+04  0.65864270000E+03 0.  1.
    8880022    1    1    2    0    0 -0.44732325610E+03  0.92543075835E+02 -0.16476019877E+04  0.17165798202E+04  0.15294330000E+03 0. -1.
<mgrwt>
<rscale>  0 0.70573895E+03</rscale>
<asrwt>0</asrwt>
<pdfrwt beam="1">  1        2 0.45103530E+00 0.80154384E+03</pdfrwt>
<pdfrwt beam="2">  1       -2 0.25080089E-01 0.80154384E+03</pdfrwt>
<totfact> 0.28661199E+01</totfact>
</mgrwt>
</event>
<event>
 4    2  0.6387803E-007  0.6997541E+03  0.7818608E-02  0.9998223E-01
          2   -1    0    0  501    0  0.00000000000E+00  0.00000000000E+00  0.26758233701E+04  0.26758233701E+04  0.25500000000E-02 0. -1.
         -2   -1    0    0    0  501 -0.00000000000E+00 -0.00000000000E+00 -0.15046504165E+03  0.15046504167E+03  0.25500000000E-02 0.  1.
    8880023    1    1    2    0    0  0.18287003940E+03 -0.14968008788E+03  0.73840245062E+03  0.10172973830E+04  0.65864270000E+03 0.  1.
    8880022    1    1    2    0    0 -0.18287003940E+03  0.14968008788E+03  0.17869558778E+04  0.18089910288E+04  0.15294330000E+03 0. -1.
<mgrwt>
<rscale>  0 0.55728230E+03</rscale>
<asrwt>0</asrwt>
<pdfrwt beam="1">  1        2 0.41166517E+00 0.69975409E+03</pdfrwt>
<pdfrwt beam="2">  1       -2 0.23148466E-01 0.69975409E+03</pdfrwt>
<totfact> 0.47605533E+01</totfact>
</mgrwt>
</event>
<event>
 4    2  0.6387803E-007  0.6785792E+03  0.7818608E-02  0.1010139E+00
          2   -1    0    0  501    0  0.00000000000E+00  0.00000000000E+00  0.82842505618E+03  0.82842505618E+03  0.25500000000E-02 0. -1.
         -2   -1    0    0    0  501 -0.00000000000E+00 -0.00000000000E+00 -0.25622420243E+03  0.25622420244E+03  0.25500000000E-02 0.  1.
    8880023    1    1    2    0    0 -0.13121707976E+03  0.97167956028E+02  0.32876944142E+03  0.75402857079E+03  0.65864270000E+03 0.  1.
    8880022    1    1    2    0    0  0.13121707976E+03 -0.97167956028E+02  0.24343141233E+03  0.33062068783E+03  0.15294330000E+03 0.  0.
<mgrwt>
<rscale>  0 0.51419424E+03</rscale>
<asrwt>0</asrwt>
<pdfrwt beam="1">  1        2 0.12745001E+00 0.67857921E+03</pdfrwt>
<pdfrwt beam="2">  1       -2 0.39419108E-01 0.67857921E+03</pdfrwt>
<totfact> 0.20274153E+02</totfact>
</mgrwt>
</event>
<event>
 4    2  0.6387803E-007  0.7248340E+03  0.7818608E-02  0.9906556E-01
          2   -1    0    0  501    0  0.00000000000E+00  0.00000000000E+00  0.13087833840E+04  0.13087833840E+04  0.25500000000E-02 0. -1.
         -2   -1    0    0    0  501 -0.00000000000E+00 -0.00000000000E+00 -0.74119224118E+03  0.74119224118E+03  0.25500000000E-02 0.  1.
    8880023    1    1    2    0    0  0.21720050520E+03 -0.21070832966E+03 -0.53211601683E+03  0.89918391960E+03  0.65864270000E+03 0.  1.
    8880022    1    1    2    0    0 -0.21720050520E+03  0.21070832966E+03  0.10997071596E+04  0.11507917055E+04  0.15294330000E+03 0.  0.
<mgrwt>
<rscale>  0 0.59944583E+03</rscale>
<asrwt>0</asrwt>
<pdfrwt beam="1">  1        2 0.20135129E+00 0.72483396E+03</pdfrwt>
<pdfrwt beam="2">  1       -2 0.11402958E+00 0.72483396E+03</pdfrwt>
<totfact> 0.10078711E+01</totfact>
</mgrwt>
</event>
<event>
 4    2  0.6387803E-007  0.8644232E+03  0.7818608E-02  0.9585743E-01
          2   -1    0    0  501    0  0.00000000000E+00  0.00000000000E+00  0.27326340826E+04  0.27326340826E+04  0.25500000000E-02 0. -1.
         -2   -1    0    0    0  501 -0.00000000000E+00 -0.00000000000E+00 -0.70574105127E+03  0.70574105127E+03  0.25500000000E-02 0.  1.
    8880023    1    1    2    0    0  0.41554090239E+03  0.37515730772E+03 -0.39321410738E+03  0.94965508876E+03  0.65864270000E+03 0.  1.
    8880022    1    1    2    0    0 -0.41554090239E+03 -0.37515730772E+03  0.24201071387E+04  0.24887200451E+04  0.15294330000E+03 0.  0.
<mgrwt>
<rscale>  0 0.78247010E+03</rscale>
<asrwt>0</asrwt>
<pdfrwt beam="1">  1        2 0.42040524E+00 0.86442319E+03</pdfrwt>
<pdfrwt beam="2">  1       -2 0.10857555E+00 0.86442319E+03</pdfrwt>
<totfact> 0.17824495E+00</totfact>
</mgrwt>
</event>
<event>
 4    2  0.6387803E-007  0.9676535E+03  0.7818608E-02  0.9425157E-01
          2   -1    0    0  501    0  0.00000000000E+00  0.00000000000E+00  0.21517864592E+04  0.21517864592E+04  0.25500000000E-02 0. -1.
         -2   -1    0    0    0  501 -0.00000000000E+00 -0.00000000000E+00 -0.56900925382E+03  0.56900925383E+03  0.25500000000E-02 0.  1.
    8880023    1    1    2    0    0  0.49665183849E+02  0.70716086849E+03 -0.13235150438E+02  0.96774402601E+03  0.65864270000E+03 0.  0.
    8880022    1    1    2    0    0 -0.49665183849E+02 -0.70716086849E+03  0.15960123558E+04  0.17530516870E+04  0.15294330000E+03 0. -1.
<mgrwt>
<rscale>  0 0.90033969E+03</rscale>
<asrwt>0</asrwt>
<pdfrwt beam="1">  1        2 0.33104407E+00 0.96765352E+03</pdfrwt>
<pdfrwt beam="2">  1       -2 0.87539884E-01 0.96765352E+03</pdfrwt>
<totfact> 0.62389762E+00</totfact>
</mgrwt>
</event>
<event>
 4    2  0.6387803E-007  0.8410786E+03  0.7818608E-02  0.9628150E-01
         -2   -1    0    0    0  501 -0.00000000000E+00  0.00000000000E+00  0.41583986850E+03  0.41583986851E+03  0.25500000000E-02 0.  1.
          2   -1    0    0  501    0  0.00000000000E+00 -0.00000000000E+00 -0.34084794076E+04  0.34084794076E+04  0.25500000000E-02 0. -1.
    8880023    1    1    2    0    0 -0.25998139457E+03  0.45388612431E+03 -0.61913011300E+02  0.84335423554E+03  0.65864270000E+03 0.  0.
    8880022    1    1    2    0    0  0.25998139457E+03 -0.45388612431E+03 -0.29307265278E+04  0.29809650406E+04  0.15294330000E+03 0.  0.
<mgrwt>
<rscale>  0 0.75460728E+03</rscale>
<asrwt>0</asrwt>
<pdfrwt beam="1">  1        2 0.52438143E+00 0.84107856E+03</pdfrwt>
<pdfrwt beam="2">  1       -2 0.63975367E-01 0.84107856E+03</pdfrwt>
<totfact> 0.22592311E+00</totfact>
</mgrwt>
</event>
<event>
 4    2  0.6387803E-007  0.6837966E+03  0.7818608E-02  0.1007253E+00
          2   -1    0    0  501    0  0.00000000000E+00  0.00000000000E+00  0.14275430356E+04  0.14275430356E+04  0.25500000000E-02 0. -1.
         -2   -1    0    0    0  501 -0.00000000000E+00 -0.00000000000E+00 -0.18018278772E+03  0.18018278774E+03  0.25500000000E-02 0.  1.
    8880023    1    1    2    0    0 -0.32835297338E+02 -0.18080205519E+03  0.57265623137E+03  0.89191530176E+03  0.65864270000E+03 0.  1.
    8880022    1    1    2    0    0  0.32835297338E+02  0.18080205519E+03  0.67470401646E+03  0.71581052154E+03  0.15294330000E+03 0.  0.
<mgrwt>
<rscale>  0 0.52581255E+03</rscale>
<asrwt>0</asrwt>
<pdfrwt beam="1">  1        2 0.21962200E+00 0.68379657E+03</pdfrwt>
<pdfrwt beam="2">  1       -2 0.27720430E-01 0.68379657E+03</pdfrwt>
<totfact> 0.16895245E+02</totfact>
</mgrwt>
</event>
<event>
 4    2  0.6387803E-007  0.8224392E+03  0.7818608E-02  0.9664226E-01
          2   -1    0    0  501    0  0.00000000000E+00  0.00000000000E+00  0.13526344670E+04  0.13526344670E+04  0.25500000000E-02 0. -1.
         -2   -1    0    0    0  501 -0.00000000000E+00 -0.00000000000E+00 -0.36248700883E+03  0.36248700884E+03  0.25500000000E-02 0.  1.
    8880023    1    1    2    0    0  0.13576219350E+02 -0.49235318658E+03  0.84540457396E+03  0.11794554142E+04  0.65864270000E+03 0. -1.
    8880022    1    1    2    0    0 -0.13576219350E+02  0.49235318658E+03  0.14474288419E+03  0.53566606166E+03  0.15294330000E+03 0.  1.
<mgrwt>
<rscale>  0 0.73187265E+03</rscale>
<asrwt>0</asrwt>
<pdfrwt beam="1">  1        2 0.20809761E+00 0.82243917E+03</pdfrwt>
<pdfrwt beam="2">  1       -2 0.55767232E-01 0.82243917E+03</pdfrwt>
<totfact> 0.47132651E+01</totfact>
</mgrwt>
</event>
<event>
 4    2  0.6387803E-007  0.1077610E+04  0.7818608E-02  0.9286404E-01
          2   -1    0    0  501    0  0.00000000000E+00  0.00000000000E+00  0.13207610543E+04  0.13207610543E+04  0.25500000000E-02 0. -1.
         -2   -1    0    0    0  501 -0.00000000000E+00 -0.00000000000E+00 -0.88486093599E+03  0.88486093599E+03  0.25500000000E-02 0.  1.
    8880023    1    1    2    0    0  0.68877107811E+03 -0.50301867745E+03 -0.24319976566E+03  0.11047125057E+04  0.65864270000E+03 0.  0.
    8880022    1    1    2    0    0 -0.68877107811E+03  0.50301867745E+03  0.67909988395E+03  0.11009094846E+04  0.15294330000E+03 0.  0.
<mgrwt>
<rscale>  0 0.10204426E+04</rscale>
<asrwt>0</asrwt>
<pdfrwt beam="1">  1        2 0.20319401E+00 0.10776101E+04</pdfrwt>
<pdfrwt beam="2">  1       -2 0.13613245E+00 0.10776101E+04</pdfrwt>
<totfact> 0.61124414E+00</totfact>
</mgrwt>
</event>
<event>
 4    2  0.6387803E-007  0.7489715E+03  0.7818608E-02  0.9834544E-01
          2   -1    0    0  501    0  0.00000000000E+00  0.00000000000E+00  0.39978462748E+03  0.39978462749E+03  0.25500000000E-02 0. -1.
         -2   -1    0    0    0  501 -0.00000000000E+00 -0.00000000000E+00 -0.84731167028E+03  0.84731167029E+03  0.25500000000E-02 0.  1.
    8880023    1    1    2    0    0 -0.25909680437E+03  0.24498345863E+03 -0.41863196055E+03  0.85802737351E+03  0.65864270000E+03 0.  1.
    8880022    1    1    2    0    0  0.25909680437E+03 -0.24498345863E+03 -0.28895082252E+02  0.38906892426E+03  0.15294330000E+03 0.  0.
<mgrwt>
<rscale>  0 0.63541189E+03</rscale>
<asrwt>0</asrwt>
<pdfrwt beam="1">  1        2 0.61505328E-01 0.74897146E+03</pdfrwt>
<pdfrwt beam="2">  1       -2 0.13035564E+00 0.74897146E+03</pdfrwt>
<totfact> 0.34723664E+01</totfact>
</mgrwt>
</event>
<event>
 4    2  0.6387803E-007  0.8226676E+03  0.7818608E-02  0.9663771E-01
         -2   -1    0    0    0  501 -0.00000000000E+00  0.00000000000E+00  0.11436073712E+04  0.11436073712E+04  0.25500000000E-02 0.  1.
          2   -1    0    0  501    0  0.00000000000E+00 -0.00000000000E+00 -0.39718769204E+03  0.39718769205E+03  0.25500000000E-02 0. -1.
    8880023    1    1    2    0    0  0.43651290662E+03 -0.22897204727E+03  0.37022402239E+03  0.90213510579E+03  0.65864270000E+03 0. -1.
    8880022    1    1    2    0    0 -0.43651290662E+03  0.22897204727E+03  0.37619565678E+03  0.63865995747E+03  0.15294330000E+03 0.  1.
<mgrwt>
<rscale>  0 0.73215426E+03</rscale>
<asrwt>0</asrwt>
<pdfrwt beam="1">  1        2 0.61105799E-01 0.82266756E+03</pdfrwt>
<pdfrwt beam="2">  1       -2 0.17593959E+00 0.82266756E+03</pdfrwt>
<totfact> 0.15650093E+01</totfact>
</mgrwt>
</event>
<event>
 4    2  0.6387803E-007  0.7140164E+03  0.7818608E-02  0.9943378E-01
          2   -1    0    0  501    0  0.00000000000E+00  0.00000000000E+00  0.78507476943E+03  0.78507476943E+03  0.25500000000E-02 0. -1.
         -2   -1    0    0    0  501 -0.00000000000E+00 -0.00000000000E+00 -0.61820957980E+03  0.61820957981E+03  0.25500000000E-02 0.  1.
    8880023    1    1    2    0    0 -0.62492302057E+02  0.26852164463E+03 -0.35205745254E+03  0.79609284484E+03  0.65864270000E+03 0.  1.
    8880022    1    1    2    0    0  0.62492302057E+02 -0.26852164463E+03  0.51892264216E+03  0.60719150440E+03  0.15294330000E+03 0.  0.
<mgrwt>
<rscale>  0 0.58204273E+03</rscale>
<asrwt>0</asrwt>
<pdfrwt beam="1">  1        2 0.12078073E+00 0.71401636E+03</pdfrwt>
<pdfrwt beam="2">  1       -2 0.95109166E-01 0.71401636E+03</pdfrwt>
<totfact> 0.33392809E+01</totfact>
</mgrwt>
</event>
<event>
 4    2  0.6387803E-007  0.6832425E+03  0.7818608E-02  0.1007546E+00
          2   -1    0    0  501    0  0.00000000000E+00  0.00000000000E+00  0.26985654087E+04  0.26985654087E+04  0.25500000000E-02 0. -1.
         -2   -1    0    0    0  501 -0.00000000000E+00 -0.00000000000E+00 -0.80568189505E+02  0.80568189545E+02  0.25500000000E-02 0.  1.
    8880023    1    1    2    0    0 -0.14343763798E+03  0.11151561844E+03  0.17329476606E+04  0.18627742455E+04  0.65864270000E+03 0.  0.
    8880022    1    1    2    0    0  0.14343763798E+03 -0.11151561844E+03  0.88504955862E+03  0.91635935275E+03  0.15294330000E+03 0. -1.
<mgrwt>
<rscale>  0 0.52461743E+03</rscale>
<asrwt>0</asrwt>
<pdfrwt beam="1">  1        2 0.41516383E+00 0.68324249E+03</pdfrwt>
<pdfrwt beam="2">  1       -2 0.12395108E-01 0.68324249E+03</pdfrwt>
<totfact> 0.13509927E+02</totfact>
</mgrwt>
</event>
<event>
 4    2  0.6387803E-007  0.8106164E+03  0.7818608E-02  0.9688294E-01
         -2   -1    0    0    0  501 -0.00000000000E+00  0.00000000000E+00  0.30603994199E+03  0.30603994200E+03  0.25500000000E-02 0.  1.
          2   -1    0    0  501    0  0.00000000000E+00 -0.00000000000E+00 -0.17293729295E+04  0.17293729295E+04  0.25500000000E-02 0. -1.
    8880023    1    1    2    0    0 -0.10393517633E+03  0.46096233853E+03 -0.12859025440E+04  0.15200803786E+04  0.65864270000E+03 0. -1.
    8880022    1    1    2    0    0  0.10393517633E+03 -0.46096233853E+03 -0.13743044349E+03  0.51533249290E+03  0.15294330000E+03 0.  1.
<mgrwt>
<rscale>  0 0.71718037E+03</rscale>
<asrwt>0</asrwt>
<pdfrwt beam="1">  1        2 0.26605737E+00 0.81061643E+03</pdfrwt>
<pdfrwt beam="2">  1       -2 0.47083069E-01 0.81061643E+03</pdfrwt>
<totfact> 0.41159736E+01</totfact>
</mgrwt>
</event>
<event>
 4    2  0.6387803E-007  0.7531545E+03  0.7818608E-02  0.9823163E-01
         -2   -1    0    0    0  501 -0.00000000000E+00  0.00000000000E+00  0.13292973959E+04  0.13292973959E+04  0.25500000000E-02 0.  1.
          2   -1    0    0  501    0  0.00000000000E+00 -0.00000000000E+00 -0.72801427478E+03  0.72801427478E+03  0.25500000000E-02 0. -1.
    8880023    1    1    2    0    0  0.28945766959E+03 -0.22281327999E+03  0.11536027177E+04  0.13776940650E+04  0.65864270000E+03 0.  1.
    8880022    1    1    2    0    0 -0.28945766959E+03  0.22281327999E+03 -0.55231959656E+03  0.67961760570E+03  0.15294330000E+03 0.  0.
<mgrwt>
<rscale>  0 0.64134148E+03</rscale>
<asrwt>0</asrwt>
<pdfrwt beam="1">  1        2 0.11200220E+00 0.75315450E+03</pdfrwt>
<pdfrwt beam="2">  1       -2 0.20450729E+00 0.75315450E+03</pdfrwt>
<totfact> 0.49472460E+00</totfact>
</mgrwt>
</event>
<event>
 4    2  0.6387803E-007  0.7471947E+03  0.7818608E-02  0.9839464E-01
          2   -1    0    0  501    0  0.00000000000E+00  0.00000000000E+00  0.10703200844E+04  0.10703200844E+04  0.25500000000E-02 0. -1.
         -2   -1    0    0    0  501 -0.00000000000E+00 -0.00000000000E+00 -0.56282903249E+03  0.56282903249E+03  0.25500000000E-02 0.  1.
    8880023    1    1    2    0    0  0.25573539178E+03  0.24308259750E+03 -0.24645798779E+03  0.78679189486E+03  0.65864270000E+03 0.  1.
    8880022    1    1    2    0    0 -0.25573539178E+03 -0.24308259750E+03  0.75394903974E+03  0.84635722208E+03  0.15294330000E+03 0.  0.
<mgrwt>
<rscale>  0 0.63287004E+03</rscale>
<asrwt>0</asrwt>
<pdfrwt beam="1">  1        2 0.16466463E+00 0.74719472E+03</pdfrwt>
<pdfrwt beam="2">  1       -2 0.86589083E-01 0.74719472E+03</pdfrwt>
<totfact> 0.26710723E+01</totfact>
</mgrwt>
</event>
<event>
 4    2  0.6387803E-007  0.7230940E+03  0.7818608E-02  0.9912253E-01
          2   -1    0    0  501    0  0.00000000000E+00  0.00000000000E+00  0.39293286523E+03  0.39293286524E+03  0.25500000000E-02 0. -1.
         -2   -1    0    0    0  501 -0.00000000000E+00 -0.00000000000E+00 -0.14904829481E+04  0.14904829481E+04  0.25500000000E-02 0.  1.
    8880023    1    1    2    0    0 -0.29619077226E+03  0.36410486090E+02 -0.13029713244E+04  0.14901674992E+04  0.65864270000E+03 0.  1.
    8880022    1    1    2    0    0  0.29619077226E+03 -0.36410486090E+02  0.20542124158E+03  0.39324831414E+03  0.15294330000E+03 0.  0.
<mgrwt>
<rscale>  0 0.59671126E+03</rscale>
<asrwt>0</asrwt>
<pdfrwt beam="1">  1        2 0.60451211E-01 0.72309398E+03</pdfrwt>
<pdfrwt beam="2">  1       -2 0.22930507E+00 0.72309398E+03</pdfrwt>
<totfact> 0.71961574E+00</totfact>
</mgrwt>
</event>
<event>
 4    2  0.6387803E-007  0.7061196E+03  0.7818608E-02  0.9972703E-01
          2   -1    0    0  501    0  0.00000000000E+00  0.00000000000E+00  0.33467647460E+04  0.33467647460E+04  0.25500000000E-02 0. -1.
         -2   -1    0    0    0  501 -0.00000000000E+00 -0.00000000000E+00 -0.82809552329E+02  0.82809552368E+02  0.25500000000E-02 0.  1.
    8880023    1    1    2    0    0  0.25435430423E+03  0.99316674856E+01  0.17559556240E+04  0.18926133017E+04  0.65864270000E+03 0.  0.
    8880022    1    1    2    0    0 -0.25435430423E+03 -0.99316674856E+01  0.15079995696E+04  0.15369609966E+04  0.15294330000E+03 0.  0.
<mgrwt>
<rscale>  0 0.56863544E+03</rscale>
<asrwt>0</asrwt>
<pdfrwt beam="1">  1        2 0.51488693E+00 0.70611965E+03</pdfrwt>
<pdfrwt beam="2">  1       -2 0.12739930E-01 0.70611965E+03</pdfrwt>
<totfact> 0.51393642E+01</totfact>
</mgrwt>
</event>
<event>
 4    2  0.6387803E-007  0.1101649E+04  0.7818608E-02  0.9259222E-01
         -2   -1    0    0    0  501 -0.00000000000E+00  0.00000000000E+00  0.78528632874E+03  0.78528632875E+03  0.25500000000E-02 0.  1.
          2   -1    0    0  501    0  0.00000000000E+00 -0.00000000000E+00 -0.26325854593E+04  0.26325854593E+04  0.25500000000E-02 0. -1.
    8880023    1    1    2    0    0  0.45326077389E+03 -0.75787548827E+03  0.25651329921E+03  0.11311188548E+04  0.65864270000E+03 0.  1.
    8880022    1    1    2    0    0 -0.45326077389E+03  0.75787548827E+03 -0.21038124297E+04  0.22867529332E+04  0.15294330000E+03 0.  0.
<mgrwt>
<rscale>  0 0.10462519E+04</rscale>
<asrwt>0</asrwt>
<pdfrwt beam="1">  1        2 0.40501314E+00 0.11016491E+04</pdfrwt>
<pdfrwt beam="2">  1       -2 0.12081328E+00 0.11016491E+04</pdfrwt>
<totfact> 0.15127388E+00</totfact>
</mgrwt>
</event>
<event>
 4    2  0.6387803E-007  0.1476746E+04  0.7818608E-02  0.8926233E-01
          2   -1    0    0  501    0  0.00000000000E+00  0.00000000000E+00  0.37891868042E+04  0.37891868042E+04  0.25500000000E-02 0. -1.
         -2   -1    0    0    0  501 -0.00000000000E+00 -0.00000000000E+00 -0.62228237534E+03  0.62228237535E+03  0.25500000000E-02 0.  1.
    8880023    1    1    2    0    0  0.68018605285E+03 -0.11332764606E+04  0.75894311132E+03  0.16603534127E+04  0.65864270000E+03 0.  1.
    8880022    1    1    2    0    0 -0.68018605285E+03  0.11332764606E+04  0.24079613176E+04  0.27511157668E+04  0.15294330000E+03 0.  0.
<mgrwt>
<rscale>  0 0.14387557E+04</rscale>
<asrwt>0</asrwt>
<pdfrwt beam="1">  1        2 0.58295181E+00 0.14767460E+04</pdfrwt>
<pdfrwt beam="2">  1       -2 0.95735750E-01 0.14767460E+04</pdfrwt>
<totfact> 0.44438989E-01</totfact>
</mgrwt>
</event>
<event>
 4    2  0.6387803E-007  0.1047493E+04  0.7818608E-02  0.9321901E-01
          2   -1    0    0  501    0  0.00000000000E+00  0.00000000000E+00  0.21158187366E+04  0.21158187366E+04  0.25500000000E-02 0. -1.
         -2   -1    0    0    0  501 -0.00000000000E+00 -0.00000000000E+00 -0.73618088532E+03  0.73618088533E+03  0.25500000000E-02 0.  1.
    8880023    1    1    2    0    0 -0.25682643757E+03  0.77296312362E+03 -0.20162564530E+03  0.10667215741E+04  0.65864270000E+03 0.  1.
    8880022    1    1    2    0    0  0.25682643757E+03 -0.77296312362E+03  0.15812634966E+04  0.17852780479E+04  0.15294330000E+03 0.  0.
<mgrwt>
<rscale>  0 0.98791380E+03</rscale>
<asrwt>0</asrwt>
<pdfrwt beam="1">  1        2 0.32551058E+00 0.10474932E+04</pdfrwt>
<pdfrwt beam="2">  1       -2 0.11325860E+00 0.10474932E+04</pdfrwt>
<totfact> 0.35062892E+00</totfact>
</mgrwt>
</event>
<event>
 4    2  0.6387803E-007  0.6956632E+03  0.7818608E-02  0.1001569E+00
          2   -1    0    0  501    0  0.00000000000E+00  0.00000000000E+00  0.12574776363E+04  0.12574776363E+04  0.25500000000E-02 0. -1.
         -2   -1    0    0    0  501 -0.00000000000E+00 -0.00000000000E+00 -0.24115512342E+03  0.24115512344E+03  0.25500000000E-02 0.  1.
    8880023    1    1    2    0    0  0.14356308565E+03 -0.17183340110E+03  0.34895116831E+03  0.77827642996E+03  0.65864270000E+03 0.  0.
    8880022    1    1    2    0    0 -0.14356308565E+03  0.17183340110E+03  0.66737134461E+03  0.72035632983E+03  0.15294330000E+03 0.  0.
<mgrwt>
<rscale>  0 0.54967553E+03</rscale>
<asrwt>0</asrwt>
<pdfrwt beam="1">  1        2 0.19345811E+00 0.69566320E+03</pdfrwt>
<pdfrwt beam="2">  1       -2 0.37100787E-01 0.69566320E+03</pdfrwt>
<totfact> 0.12218050E+02</totfact>
</mgrwt>
</event>
<event>
 4    2  0.6387803E-007  0.8176106E+03  0.7818608E-02  0.9673937E-01
          2   -1    0    0  501    0  0.00000000000E+00  0.00000000000E+00  0.18615746984E+04  0.18615746984E+04  0.25500000000E-02 0. -1.
         -2   -1    0    0    0  501 -0.00000000000E+00 -0.00000000000E+00 -0.43215131430E+03  0.43215131431E+03  0.25500000000E-02 0.  1.
    8880023    1    1    2    0    0 -0.41697717061E+03  0.24659066647E+03  0.44782025088E+02  0.81883609693E+03  0.65864270000E+03 0.  1.
    8880022    1    1    2    0    0  0.41697717061E+03 -0.24659066647E+03  0.13846413590E+04  0.14748899158E+04  0.15294330000E+03 0.  0.
<mgrwt>
<rscale>  0 0.72589998E+03</rscale>
<asrwt>0</asrwt>
<pdfrwt beam="1">  1        2 0.28639611E+00 0.81761062E+03</pdfrwt>
<pdfrwt beam="2">  1       -2 0.66484818E-01 0.81761062E+03</pdfrwt>
<totfact> 0.16953802E+01</totfact>
</mgrwt>
</event>
<event>
 4    2  0.6387803E-007  0.8816447E+03  0.7818608E-02  0.9556164E-01
         -2   -1    0    0    0  501 -0.00000000000E+00  0.00000000000E+00  0.15446549808E+04  0.15446549808E+04  0.25500000000E-02 0.  1.
          2   -1    0    0  501    0  0.00000000000E+00 -0.00000000000E+00 -0.53834513100E+03  0.53834513101E+03  0.25500000000E-02 0. -1.
    8880023    1    1    2    0    0  0.40950069301E+03  0.41928066731E+03  0.11610393219E+04  0.14578441648E+04  0.65864270000E+03 0.  0.
    8880022    1    1    2    0    0 -0.40950069301E+03 -0.41928066731E+03 -0.15472947209E+03  0.62515594703E+03  0.15294330000E+03 0.  0.
<mgrwt>
<rscale>  0 0.80266718E+03</rscale>
<asrwt>0</asrwt>
<pdfrwt beam="1">  1        2 0.82822329E-01 0.88164466E+03</pdfrwt>
<pdfrwt beam="2">  1       -2 0.23763923E+00 0.88164466E+03</pdfrwt>
<totfact> 0.43717555E+00</totfact>
</mgrwt>
</event>
<event>
 4    2  0.6387803E-007  0.7981258E+03  0.7818608E-02  0.9714863E-01
         -2   -1    0    0    0  501 -0.00000000000E+00  0.00000000000E+00  0.57782820637E+03  0.57782820637E+03  0.25500000000E-02 0.  1.
          2   -1    0    0  501    0  0.00000000000E+00 -0.00000000000E+00 -0.15735518917E+04  0.15735518917E+04  0.25500000000E-02 0. -1.
    8880023    1    1    2    0    0  0.45075493298E+03 -0.38210970805E+01  0.23484018330E+03  0.83195836936E+03  0.65864270000E+03 0.  0.
    8880022    1    1    2    0    0 -0.45075493298E+03  0.38210970805E+01 -0.12305638686E+04  0.13194217287E+04  0.15294330000E+03 0.  0.
<mgrwt>
<rscale>  0 0.70138701E+03</rscale>
<asrwt>0</asrwt>
<pdfrwt beam="1">  1        2 0.24208490E+00 0.79812582E+03</pdfrwt>
<pdfrwt beam="2">  1       -2 0.88896648E-01 0.79812582E+03</pdfrwt>
<totfact> 0.12791173E+01</totfact>
</mgrwt>
</event>
<event>
 4    2  0.6387803E-007  0.1103553E+04  0.7818608E-02  0.9257111E-01
          2   -1    0    0  501    0  0.00000000000E+00  0.00000000000E+00  0.27381971838E+04  0.27381971838E+04  0.25500000000E-02 0. -1.
         -2   -1    0    0    0  501 -0.00000000000E+00 -0.00000000000E+00 -0.58694698298E+03  0.58694698298E+03  0.25500000000E-02 0.  1.
    8880023    1    1    2    0    0  0.39600299485E+03  0.79195999105E+03  0.12752025320E+03  0.11108963141E+04  0.65864270000E+03 0.  0.
    8880022    1    1    2    0    0 -0.39600299485E+03 -0.79195999105E+03  0.20237299477E+04  0.22142478528E+04  0.15294330000E+03 0.  0.
<mgrwt>
<rscale>  0 0.10482906E+04</rscale>
<asrwt>0</asrwt>
<pdfrwt beam="1">  1        2 0.42126111E+00 0.11035530E+04</pdfrwt>
<pdfrwt beam="2">  1       -2 0.90299535E-01 0.11035530E+04</pdfrwt>
<totfact> 0.26419112E+00</totfact>
</mgrwt>
</event>
<event>
 4    2  0.6387803E-007  0.9370366E+03  0.7818608E-02  0.9469016E-01
          2   -1    0    0  501    0  0.00000000000E+00  0.00000000000E+00  0.54319711832E+04  0.54319711832E+04  0.25500000000E-02 0. -1.
         -2   -1    0    0    0  501 -0.00000000000E+00 -0.00000000000E+00 -0.58485899867E+03  0.58485899867E+03  0.25500000000E-02 0.  1.
    8880023    1    1    2    0    0 -0.42999985150E+03  0.50924213597E+03 -0.17085255340E+03  0.95248528944E+03  0.65864270000E+03 0.  0.
    8880022    1    1    2    0    0  0.42999985150E+03 -0.50924213597E+03  0.50179647379E+04  0.50643448924E+04  0.15294330000E+03 0.  0.
<mgrwt>
<rscale>  0 0.86607191E+03</rscale>
<asrwt>0</asrwt>
<pdfrwt beam="1">  1        2 0.83568788E+00 0.93703662E+03</pdfrwt>
<pdfrwt beam="2">  1       -2 0.89978307E-01 0.93703662E+03</pdfrwt>
<totfact> 0.97029307E-03</totfact>
</mgrwt>
</event>
<event>
 4    2  0.6387803E-007  0.1253633E+04  0.7818608E-02  0.9106672E-01
          2   -1    0    0  501    0  0.00000000000E+00  0.00000000000E+00  0.22580472906E+04  0.22580472906E+04  0.25500000000E-02 0. -1.
         -2   -1    0    0    0  501 -0.00000000000E+00 -0.00000000000E+00 -0.89753393039E+03  0.89753393040E+03  0.25500000000E-02 0.  1.
    8880023    1    1    2    0    0 -0.10331890423E+04 -0.26515339358E+03 -0.18942269377E+03  0.12678631955E+04  0.65864270000E+03 0.  0.
    8880022    1    1    2    0    0  0.10331890423E+04  0.26515339358E+03  0.15499360539E+04  0.18877180255E+04  0.15294330000E+03 0.  0.
<mgrwt>
<rscale>  0 0.12070915E+04</rscale>
<asrwt>0</asrwt>
<pdfrwt beam="1">  1        2 0.34739188E+00 0.12536332E+04</pdfrwt>
<pdfrwt beam="2">  1       -2 0.13808215E+00 0.12536332E+04</pdfrwt>
<totfact> 0.17295441E+00</totfact>
</mgrwt>
</event>
<event>
 4    2  0.6387803E-007  0.8023679E+03  0.7818608E-02  0.9705699E-01
          2   -1    0    0  501    0  0.00000000000E+00  0.00000000000E+00  0.97444200863E+03  0.97444200863E+03  0.25500000000E-02 0. -1.
         -2   -1    0    0    0  501 -0.00000000000E+00 -0.00000000000E+00 -0.81279663737E+03  0.81279663737E+03  0.25500000000E-02 0.  1.
    8880023    1    1    2    0    0 -0.14890258939E+03  0.43337289269E+03 -0.51678180173E+03  0.95438864312E+03  0.65864270000E+03 0.  1.
    8880022    1    1    2    0    0  0.14890258939E+03 -0.43337289269E+03  0.67842717299E+03  0.83285000289E+03  0.15294330000E+03 0.  0.
<mgrwt>
<rscale>  0 0.70678466E+03</rscale>
<asrwt>0</asrwt>
<pdfrwt beam="1">  1        2 0.14991415E+00 0.80236790E+03</pdfrwt>
<pdfrwt beam="2">  1       -2 0.12504564E+00 0.80236790E+03</pdfrwt>
<totfact> 0.12672861E+01</totfact>
</mgrwt>
</event>
<event>
 4    2  0.6387803E-007  0.7756582E+03  0.7818608E-02  0.9766136E-01
          2   -1    0    0  501    0  0.00000000000E+00  0.00000000000E+00  0.16751942067E+04  0.16751942067E+04  0.25500000000E-02 0. -1.
         -2   -1    0    0    0  501 -0.00000000000E+00 -0.00000000000E+00 -0.27294132128E+03  0.27294132129E+03  0.25500000000E-02 0.  1.
    8880023    1    1    2    0    0 -0.31885324311E+03 -0.25723160929E+03  0.12755158255E+04  0.14928450418E+04  0.65864270000E+03 0. -1.
    8880022    1    1    2    0    0  0.31885324311E+03  0.25723160929E+03  0.12673705992E+03  0.45529048621E+03  0.15294330000E+03 0.  1.
<mgrwt>
<rscale>  0 0.67211950E+03</rscale>
<asrwt>0</asrwt>
<pdfrwt beam="1">  1        2 0.25772219E+00 0.77565824E+03</pdfrwt>
<pdfrwt beam="2">  1       -2 0.41990972E-01 0.77565824E+03</pdfrwt>
<totfact> 0.55560241E+01</totfact>
</mgrwt>
</event>
<event>
 4    2  0.6387803E-007  0.7191594E+03  0.7818608E-02  0.9925441E-01
         -2   -1    0    0    0  501 -0.00000000000E+00  0.00000000000E+00  0.17878688154E+03  0.17878688155E+03  0.25500000000E-02 0.  1.
          2   -1    0    0  501    0  0.00000000000E+00 -0.00000000000E+00 -0.25536036648E+04  0.25536036648E+04  0.25500000000E-02 0. -1.
    8880023    1    1    2    0    0 -0.16589003030E+03 -0.23634830491E+03 -0.62643162283E+03  0.95373309041E+03  0.65864270000E+03 0.  1.
    8880022    1    1    2    0    0  0.16589003030E+03  0.23634830491E+03 -0.17483851604E+04  0.17786574560E+04  0.15294330000E+03 0.  0.
<mgrwt>
<rscale>  0 0.59044014E+03</rscale>
<asrwt>0</asrwt>
<pdfrwt beam="1">  1        2 0.39286208E+00 0.71915939E+03</pdfrwt>
<pdfrwt beam="2">  1       -2 0.27505676E-01 0.71915939E+03</pdfrwt>
<totfact> 0.40867219E+01</totfact>
</mgrwt>
</event>
<event>
 4    2  0.6387803E-007  0.8804243E+03  0.7818608E-02  0.9558217E-01
         -2   -1    0    0    0  501 -0.00000000000E+00  0.00000000000E+00  0.13947869519E+04  0.13947869519E+04  0.25500000000E-02 0.  1.
          2   -1    0    0  501    0  0.00000000000E+00 -0.00000000000E+00 -0.68042372028E+03  0.68042372029E+03  0.25500000000E-02 0. -1.
    8880023    1    1    2    0    0 -0.20045344477E+03 -0.54877599034E+03  0.10611214331E+04  0.13788131030E+04  0.65864270000E+03 0.  1.
    8880022    1    1    2    0    0  0.20045344477E+03  0.54877599034E+03 -0.34675820143E+03  0.69639756918E+03  0.15294330000E+03 0.  0.
<mgrwt>
<rscale>  0 0.80124473E+03</rscale>
<asrwt>0</asrwt>
<pdfrwt beam="1">  1        2 0.10468057E+00 0.88042426E+03</pdfrwt>
<pdfrwt beam="2">  1       -2 0.21458260E+00 0.88042426E+03</pdfrwt>
<totfact> 0.45768966E+00</totfact>
</mgrwt>
</event>
<event>
 4    2  0.6387803E-007  0.7449906E+03  0.7818608E-02  0.9845641E-01
         -2   -1    0    0    0  501 -0.00000000000E+00  0.00000000000E+00  0.60474677092E+03  0.60474677093E+03  0.25500000000E-02 0.  1.
          2   -1    0    0  501    0  0.00000000000E+00 -0.00000000000E+00 -0.27536817803E+04  0.27536817803E+04  0.25500000000E-02 0. -1.
    8880023    1    1    2    0    0 -0.22027010314E+03  0.26959587839E+03  0.35537770391E+03  0.82541163953E+03  0.65864270000E+03 0.  1.
    8880022    1    1    2    0    0  0.22027010314E+03 -0.26959587839E+03 -0.25043127133E+04  0.25330169117E+04  0.15294330000E+03 0.  0.
<mgrwt>
<rscale>  0 0.62969659E+03</rscale>
<asrwt>0</asrwt>
<pdfrwt beam="1">  1        2 0.42364334E+00 0.74499065E+03</pdfrwt>
<pdfrwt beam="2">  1       -2 0.93037966E-01 0.74499065E+03</pdfrwt>
<totfact> 0.25571858E+00</totfact>
</mgrwt>
</event>
<event>
 4    2  0.6387803E-007  0.7081449E+03  0.7818608E-02  0.9964955E-01
          2   -1    0    0  501    0  0.00000000000E+00  0.00000000000E+00  0.14003657534E+04  0.14003657534E+04  0.25500000000E-02 0. -1.
         -2   -1    0    0    0  501 -0.00000000000E+00 -0.00000000000E+00 -0.26852568623E+03  0.26852568624E+03  0.25500000000E-02 0.  1.
    8880023    1    1    2    0    0 -0.92141484322E+02 -0.24324666292E+03  0.27361703131E+03  0.75916762197E+03  0.65864270000E+03 0.  1.
    8880022    1    1    2    0    0  0.92141484322E+02  0.24324666292E+03  0.85822303588E+03  0.90972381769E+03  0.15294330000E+03 0.  0.
<mgrwt>
<rscale>  0 0.57213956E+03</rscale>
<asrwt>0</asrwt>
<pdfrwt beam="1">  1        2 0.21544089E+00 0.70814490E+03</pdfrwt>
<pdfrwt beam="2">  1       -2 0.41311644E-01 0.70814490E+03</pdfrwt>
<totfact> 0.82065133E+01</totfact>
</mgrwt>
</event>
<event>
 4    2  0.6387803E-007  0.7382138E+03  0.7818608E-02  0.9865181E-01
         -2   -1    0    0    0  501 -0.00000000000E+00  0.00000000000E+00  0.25755528051E+03  0.25755528052E+03  0.25500000000E-02 0.  1.
          2   -1    0    0  501    0  0.00000000000E+00 -0.00000000000E+00 -0.12046696311E+04  0.12046696311E+04  0.25500000000E-02 0. -1.
    8880023    1    1    2    0    0 -0.33086317106E+03 -0.40974661727E+02 -0.54260613220E+03  0.91617737466E+03  0.65864270000E+03 0.  0.
    8880022    1    1    2    0    0  0.33086317106E+03  0.40974661727E+02 -0.40450821842E+03  0.54604753699E+03  0.15294330000E+03 0. -1.
<mgrwt>
<rscale>  0 0.61978840E+03</rscale>
<asrwt>0</asrwt>
<pdfrwt beam="1">  1        2 0.18533379E+00 0.73821377E+03</pdfrwt>
<pdfrwt beam="2">  1       -2 0.39623890E-01 0.73821377E+03</pdfrwt>
<totfact> 0.11512589E+02</totfact>
</mgrwt>
</event>
<event>
 4    2  0.6387803E-007  0.7009476E+03  0.7818608E-02  0.9993293E-01
          2   -1    0    0  501    0  0.00000000000E+00  0.00000000000E+00  0.20686393470E+04  0.20686393470E+04  0.25500000000E-02 0. -1.
         -2   -1    0    0    0  501 -0.00000000000E+00 -0.00000000000E+00 -0.18778734196E+03  0.18778734197E+03  0.25500000000E-02 0.  1.
    8880023    1    1    2    0    0  0.18662869286E+03 -0.15062242418E+03  0.53754921846E+03  0.88333841318E+03  0.65864270000E+03 0.  1.
    8880022    1    1    2    0    0 -0.18662869286E+03  0.15062242418E+03  0.13433027865E+04  0.13730882758E+04  0.15294330000E+03 0.  0.
<mgrwt>
<rscale>  0 0.55945326E+03</rscale>
<asrwt>0</asrwt>
<pdfrwt beam="1">  1        2 0.31825221E+00 0.70094764E+03</pdfrwt>
<pdfrwt beam="2">  1       -2 0.28890360E-01 0.70094764E+03</pdfrwt>
<totfact> 0.69653480E+01</totfact>
</mgrwt>
</event>
<event>
 4    2  0.6387803E-007  0.7191278E+03  0.7818608E-02  0.9925548E-01
         -2   -1    0    0    0  501 -0.00000000000E+00  0.00000000000E+00  0.20818307870E+04  0.20818307870E+04  0.25500000000E-02 0.  1.
          2   -1    0    0  501    0  0.00000000000E+00 -0.00000000000E+00 -0.62510637202E+03  0.62510637203E+03  0.25500000000E-02 0. -1.
    8880023    1    1    2    0    0  0.22230771372E+03  0.18415705732E+03  0.19707643678E+04  0.20978696196E+04  0.65864270000E+03 0.  1.
    8880022    1    1    2    0    0 -0.22230771372E+03 -0.18415705732E+03 -0.51403995286E+03  0.60906753935E+03  0.15294330000E+03 0.  0.
<mgrwt>
<rscale>  0 0.59038922E+03</rscale>
<asrwt>0</asrwt>
<pdfrwt beam="1">  1        2 0.96170211E-01 0.71912777E+03</pdfrwt>
<pdfrwt beam="2">  1       -2 0.32028166E+00 0.71912777E+03</pdfrwt>
<totfact> 0.11853426E+00</totfact>
</mgrwt>
</event>
<event>
 4    2  0.6387803E-007  0.8239195E+03  0.7818608E-02  0.9661281E-01
         -2   -1    0    0    0  501 -0.00000000000E+00  0.00000000000E+00  0.72067511958E+03  0.72067511959E+03  0.25500000000E-02 0.  1.
          2   -1    0    0  501    0  0.00000000000E+00 -0.00000000000E+00 -0.20213139835E+04  0.20213139835E+04  0.25500000000E-02 0. -1.
    8880023    1    1    2    0    0  0.35425078959E+03  0.34574489579E+03  0.43427768022E+03  0.93136483974E+03  0.65864270000E+03 0.  1.
    8880022    1    1    2    0    0 -0.35425078959E+03 -0.34574489579E+03 -0.17349165442E+04  0.18106242634E+04  0.15294330000E+03 0.  0.
<mgrwt>
<rscale>  0 0.73369646E+03</rscale>
<asrwt>0</asrwt>
<pdfrwt beam="1">  1        2 0.31097138E+00 0.82391951E+03</pdfrwt>
<pdfrwt beam="2">  1       -2 0.11087310E+00 0.82391951E+03</pdfrwt>
<totfact> 0.42930864E+00</totfact>
</mgrwt>
</event>
<event>
 4    2  0.6387803E-007  0.2055964E+04  0.7818608E-02  0.8592776E-01
          2   -1    0    0  501    0  0.00000000000E+00  0.00000000000E+00  0.34113859222E+04  0.34113859222E+04  0.25500000000E-02 0. -1.
         -2   -1    0    0    0  501 -0.00000000000E+00 -0.00000000000E+00 -0.14188539619E+04  0.14188539619E+04  0.25500000000E-02 0.  1.
    8880023    1    1    2    0    0 -0.75727940493E+03 -0.17943537723E+04  0.22930923075E+02  0.20560918245E+04  0.65864270000E+03 0.  1.
    8880022    1    1    2    0    0  0.75727940493E+03  0.17943537723E+04  0.19696010372E+04  0.27741480595E+04  0.15294330000E+03 0.  0.
<mgrwt>
<rscale>  0 0.20298819E+04</rscale>
<asrwt>0</asrwt>
<pdfrwt beam="1">  1        2 0.52482860E+00 0.20559640E+04</pdfrwt>
<pdfrwt beam="2">  1       -2 0.21828523E+00 0.20559640E+04</pdfrwt>
<totfact> 0.84130437E-02</totfact>
</mgrwt>
</event>
<event>
 4    2  0.6387803E-007  0.7396133E+03  0.7818608E-02  0.9861075E-01
          2   -1    0    0  501    0  0.00000000000E+00  0.00000000000E+00  0.22145327337E+04  0.22145327337E+04  0.25500000000E-02 0. -1.
         -2   -1    0    0    0  501 -0.00000000000E+00 -0.00000000000E+00 -0.62237659979E+03  0.62237659979E+03  0.25500000000E-02 0.  1.
    8880023    1    1    2    0    0  0.28985817203E+03 -0.17087974292E+03 -0.37923319860E+03  0.83117126491E+03  0.65864270000E+03 0.  1.
    8880022    1    1    2    0    0 -0.28985817203E+03  0.17087974292E+03  0.19713893325E+04  0.20057380686E+04  0.15294330000E+03 0.  0.
<mgrwt>
<rscale>  0 0.62185420E+03</rscale>
<asrwt>0</asrwt>
<pdfrwt beam="1">  1        2 0.34069734E+00 0.73961331E+03</pdfrwt>
<pdfrwt beam="2">  1       -2 0.95750246E-01 0.73961331E+03</pdfrwt>
<totfact> 0.48384758E+00</totfact>
</mgrwt>
</event>
<event>
 4    2  0.6387803E-007  0.7045045E+03  0.7818608E-02  0.9979004E-01
          2   -1    0    0  501    0  0.00000000000E+00  0.00000000000E+00  0.19378583428E+04  0.19378583428E+04  0.25500000000E-02 0. -1.
         -2   -1    0    0    0  501 -0.00000000000E+00 -0.00000000000E+00 -0.17597771447E+03  0.17597771449E+03  0.25500000000E-02 0.  1.
    8880023    1    1    2    0    0  0.14799958920E+03  0.20152535395E+03  0.63161063752E+03  0.94618103467E+03  0.65864270000E+03 0.  1.
    8880022    1    1    2    0    0 -0.14799958920E+03 -0.20152535395E+03  0.11302699908E+04  0.11676550226E+04  0.15294330000E+03 0.  0.
<mgrwt>
<rscale>  0 0.56580531E+03</rscale>
<asrwt>0</asrwt>
<pdfrwt beam="1">  1        2 0.29813204E+00 0.70450447E+03</pdfrwt>
<pdfrwt beam="2">  1       -2 0.27073495E-01 0.70450447E+03</pdfrwt>
<totfact> 0.92414765E+01</totfact>
</mgrwt>
</event>
<event>
 4    2  0.6387803E-007  0.7633830E+03  0.7818608E-02  0.9796427E-01
         -2   -1    0    0    0  501 -0.00000000000E+00  0.00000000000E+00  0.40113005938E+03  0.40113005939E+03  0.25500000000E-02 0.  1.
          2   -1    0    0  501    0  0.00000000000E+00 -0.00000000000E+00 -0.15682628071E+04  0.15682628071E+04  0.25500000000E-02 0. -1.
    8880023    1    1    2    0    0 -0.32354769747E+02 -0.38457313653E+03 -0.35712467626E+02  0.76421784530E+03  0.65864270000E+03 0.  1.
    8880022    1    1    2    0    0  0.32354769747E+02  0.38457313653E+03 -0.11314202801E+04  0.12051750212E+04  0.15294330000E+03 0.  0.
<mgrwt>
<rscale>  0 0.65554653E+03</rscale>
<asrwt>0</asrwt>
<pdfrwt beam="1">  1        2 0.24127120E+00 0.76338295E+03</pdfrwt>
<pdfrwt beam="2">  1       -2 0.61712318E-01 0.76338295E+03</pdfrwt>
<totfact> 0.28995245E+01</totfact>
</mgrwt>
</event>
<event>
 4    2  0.6387803E-007  0.8081250E+03  0.7818608E-02  0.9693496E-01
          2   -1    0    0  501    0  0.00000000000E+00  0.00000000000E+00  0.16024304779E+04  0.16024304779E+04  0.25500000000E-02 0. -1.
         -2   -1    0    0    0  501 -0.00000000000E+00 -0.00000000000E+00 -0.30186469780E+03  0.30186469781E+03  0.25500000000E-02 0.  1.
    8880023    1    1    2    0    0 -0.14709016361E+03 -0.44454498295E+03  0.45958469760E+03  0.92966878975E+03  0.65864270000E+03 0.  0.
    8880022    1    1    2    0    0  0.14709016361E+03  0.44454498295E+03  0.84098108251E+03  0.97462638598E+03  0.15294330000E+03 0.  0.
<mgrwt>
<rscale>  0 0.71405366E+03</rscale>
<asrwt>0</asrwt>
<pdfrwt beam="1">  1        2 0.24652777E+00 0.80812497E+03</pdfrwt>
<pdfrwt beam="2">  1       -2 0.46440722E-01 0.80812497E+03</pdfrwt>
<totfact> 0.49704534E+01</totfact>
</mgrwt>
</event>
<event>
 4    2  0.6387803E-007  0.8987295E+03  0.7818608E-02  0.9528074E-01
         -2   -1    0    0    0  501 -0.00000000000E+00  0.00000000000E+00  0.48240680960E+03  0.48240680961E+03  0.25500000000E-02 0.  1.
          2   -1    0    0  501    0  0.00000000000E+00 -0.00000000000E+00 -0.15034714041E+04  0.15034714041E+04  0.25500000000E-02 0. -1.
    8880023    1    1    2    0    0  0.30160225457E+03 -0.53192167569E+03 -0.15074506770E+03  0.91128418769E+03  0.65864270000E+03 0.  0.
    8880022    1    1    2    0    0 -0.30160225457E+03  0.53192167569E+03 -0.87031952678E+03  0.10745940260E+04  0.15294330000E+03 0.  1.
<mgrwt>
<rscale>  0 0.82245297E+03</rscale>
<asrwt>0</asrwt>
<pdfrwt beam="1">  1        2 0.23130329E+00 0.89872955E+03</pdfrwt>
<pdfrwt beam="2">  1       -2 0.74216433E-01 0.89872955E+03</pdfrwt>
<totfact> 0.20803903E+01</totfact>
</mgrwt>
</event>
<event>
 4    2  0.6387803E-007  0.6642626E+03  0.7818608E-02  0.1020160E+00
          2   -1    0    0  501    0  0.00000000000E+00  0.00000000000E+00  0.10962763305E+04  0.10962763305E+04  0.25500000000E-02 0. -1.
         -2   -1    0    0    0  501 -0.00000000000E+00 -0.00000000000E+00 -0.26398077884E+03  0.26398077885E+03  0.25500000000E-02 0.  1.
    8880023    1    1    2    0    0  0.73527085077E+02  0.45037967958E+02  0.18495797724E+03  0.68953195024E+03  0.65864270000E+03 0.  1.
    8880022    1    1    2    0    0 -0.73527085077E+02 -0.45037967958E+02  0.64733757441E+03  0.67072515910E+03  0.15294330000E+03 0.  0.
<mgrwt>
<rscale>  0 0.47628845E+03</rscale>
<asrwt>0</asrwt>
<pdfrwt beam="1">  1        2 0.16865790E+00 0.66426264E+03</pdfrwt>
<pdfrwt beam="2">  1       -2 0.40612427E-01 0.66426264E+03</pdfrwt>
<totfact> 0.12820775E+02</totfact>
</mgrwt>
</event>
<event>
 4    2  0.6387803E-007  0.1417512E+04  0.7818608E-02  0.8970193E-01
         -2   -1    0    0    0  501 -0.00000000000E+00  0.00000000000E+00  0.88475146772E+03  0.88475146772E+03  0.25500000000E-02 0.  1.
          2   -1    0    0  501    0  0.00000000000E+00 -0.00000000000E+00 -0.26462698862E+04  0.26462698862E+04  0.25500000000E-02 0. -1.
    8880023    1    1    2    0    0  0.12463202876E+04 -0.14905190233E+03 -0.70168416913E+02  0.14192478789E+04  0.65864270000E+03 0.  1.
    8880022    1    1    2    0    0 -0.12463202876E+04  0.14905190233E+03 -0.16913500016E+04  0.21117734750E+04  0.15294330000E+03 0.  0.
<mgrwt>
<rscale>  0 0.13776013E+04</rscale>
<asrwt>0</asrwt>
<pdfrwt beam="1">  1        2 0.40711844E+00 0.14175122E+04</pdfrwt>
<pdfrwt beam="2">  1       -2 0.13611561E+00 0.14175122E+04</pdfrwt>
<totfact> 0.10552802E+00</totfact>
</mgrwt>
</event>
<event>
 4    2  0.6387803E-007  0.7109049E+03  0.7818608E-02  0.9954656E-01
         -2   -1    0    0    0  501 -0.00000000000E+00  0.00000000000E+00  0.67609521873E+03  0.67609521873E+03  0.25500000000E-02 0.  1.
          2   -1    0    0  501    0  0.00000000000E+00 -0.00000000000E+00 -0.99430220786E+03  0.99430220786E+03  0.25500000000E-02 0. -1.
    8880023    1    1    2    0    0  0.17613115212E+03  0.20137887009E+03  0.45090516663E+03  0.84184399245E+03  0.65864270000E+03 0.  1.
    8880022    1    1    2    0    0 -0.17613115212E+03 -0.20137887009E+03 -0.76911215577E+03  0.82855343414E+03  0.15294330000E+03 0.  0.
<mgrwt>
<rscale>  0 0.57684005E+03</rscale>
<asrwt>0</asrwt>
<pdfrwt beam="1">  1        2 0.15296957E+00 0.71090494E+03</pdfrwt>
<pdfrwt beam="2">  1       -2 0.10401465E+00 0.71090494E+03</pdfrwt>
<totfact> 0.19497204E+01</totfact>
</mgrwt>
</event>
<event>
 4    2  0.6387803E-007  0.9346696E+03  0.7818608E-02  0.9472523E-01
         -2   -1    0    0    0  501 -0.00000000000E+00  0.00000000000E+00  0.11229555051E+04  0.11229555051E+04  0.25500000000E-02 0.  1.
          2   -1    0    0  501    0  0.00000000000E+00 -0.00000000000E+00 -0.15610919174E+04  0.15610919174E+04  0.25500000000E-02 0. -1.
    8880023    1    1    2    0    0  0.65635585037E+03 -0.94836780981E+02  0.82664726388E+03  0.12477791962E+04  0.65864270000E+03 0.  1.
    8880022    1    1    2    0    0 -0.65635585037E+03  0.94836780981E+02 -0.12647836761E+04  0.14362682263E+04  0.15294330000E+03 0.  0.
<mgrwt>
<rscale>  0 0.86340254E+03</rscale>
<asrwt>0</asrwt>
<pdfrwt beam="1">  1        2 0.24016799E+00 0.93466958E+03</pdfrwt>
<pdfrwt beam="2">  1       -2 0.17276239E+00 0.93466958E+03</pdfrwt>
<totfact> 0.23928921E+00</totfact>
</mgrwt>
</event>
<event>
 4    2  0.6387803E-007  0.7650535E+03  0.7818608E-02  0.9792196E-01
         -2   -1    0    0    0  501 -0.00000000000E+00  0.00000000000E+00  0.12824662229E+04  0.12824662229E+04  0.25500000000E-02 0.  1.
          2   -1    0    0  501    0  0.00000000000E+00 -0.00000000000E+00 -0.14799003099E+04  0.14799003099E+04  0.25500000000E-02 0. -1.
    8880023    1    1    2    0    0  0.25765466099E+03 -0.29173750209E+03  0.11333601534E+04  0.13674107422E+04  0.65864270000E+03 0.  1.
    8880022    1    1    2    0    0 -0.25765466099E+03  0.29173750209E+03 -0.13307942404E+04  0.13949557906E+04  0.15294330000E+03 0.  0.
<mgrwt>
<rscale>  0 0.65783046E+03</rscale>
<asrwt>0</asrwt>
<pdfrwt beam="1">  1        2 0.22767697E+00 0.76505353E+03</pdfrwt>
<pdfrwt beam="2">  1       -2 0.19730249E+00 0.76505353E+03</pdfrwt>
<totfact> 0.18576579E+00</totfact>
</mgrwt>
</event>
<event>
 4    2  0.6387803E-007  0.9246315E+03  0.7818608E-02  0.9487594E-01
          2   -1    0    0  501    0  0.00000000000E+00  0.00000000000E+00  0.28694548108E+04  0.28694548108E+04  0.25500000000E-02 0. -1.
         -2   -1    0    0    0  501 -0.00000000000E+00 -0.00000000000E+00 -0.31837541057E+03  0.31837541058E+03  0.25500000000E-02 0.  1.
    8880023    1    1    2    0    0  0.67842812641E+02  0.64539175935E+03  0.22938652609E+04  0.24732086874E+04  0.65864270000E+03 0.  0.
    8880022    1    1    2    0    0 -0.67842812641E+02 -0.64539175935E+03  0.25721413933E+03  0.71462153393E+03  0.15294330000E+03 0.  0.
<mgrwt>
<rscale>  0 0.85204692E+03</rscale>
<asrwt>0</asrwt>
<pdfrwt beam="1">  1        2 0.44145461E+00 0.92463148E+03</pdfrwt>
<pdfrwt beam="2">  1       -2 0.48980830E-01 0.92463148E+03</pdfrwt>
<totfact> 0.85328376E+00</totfact>
</mgrwt>
</event>
<event>
 4    2  0.6387803E-007  0.6901534E+03  0.7818608E-02  0.1004080E+00
         -2   -1    0    0    0  501 -0.00000000000E+00  0.00000000000E+00  0.44610380433E+03  0.44610380434E+03  0.25500000000E-02 0.  1.
          2   -1    0    0  501    0  0.00000000000E+00 -0.00000000000E+00 -0.88840119637E+03  0.88840119637E+03  0.25500000000E-02 0. -1.
    8880023    1    1    2    0    0  0.18019444453E+03  0.10015722646E+03  0.13452642633E+03  0.70314228538E+03  0.65864270000E+03 0.  0.
    8880022    1    1    2    0    0 -0.18019444453E+03 -0.10015722646E+03 -0.57682381836E+03  0.63136271532E+03  0.15294330000E+03 0.  0.
<mgrwt>
<rscale>  0 0.53896960E+03</rscale>
<asrwt>0</asrwt>
<pdfrwt beam="1">  1        2 0.13667711E+00 0.69015340E+03</pdfrwt>
<pdfrwt beam="2">  1       -2 0.68631355E-01 0.69015340E+03</pdfrwt>
<totfact> 0.59061067E+01</totfact>
</mgrwt>
</event>
<event>
 4    2  0.6387803E-007  0.7653413E+03  0.7818608E-02  0.9791471E-01
          2   -1    0    0  501    0  0.00000000000E+00  0.00000000000E+00  0.15163764021E+04  0.15163764021E+04  0.25500000000E-02 0. -1.
         -2   -1    0    0    0  501 -0.00000000000E+00 -0.00000000000E+00 -0.24535474865E+03  0.24535474866E+03  0.25500000000E-02 0.  1.
    8880023    1    1    2    0    0  0.19012189721E+03 -0.34028032999E+03  0.60752030948E+03  0.97715309521E+03  0.65864270000E+03 0.  0.
    8880022    1    1    2    0    0 -0.19012189721E+03  0.34028032999E+03  0.66350134394E+03  0.78457805552E+03  0.15294330000E+03 0.  0.
<mgrwt>
<rscale>  0 0.65822287E+03</rscale>
<asrwt>0</asrwt>
<pdfrwt beam="1">  1        2 0.23328867E+00 0.76534126E+03</pdfrwt>
<pdfrwt beam="2">  1       -2 0.37746885E-01 0.76534126E+03</pdfrwt>
<totfact> 0.83770700E+01</totfact>
</mgrwt>
</event>
<event>
 4    2  0.6387803E-007  0.7287822E+03  0.7818608E-02  0.9893918E-01
          2   -1    0    0  501    0  0.00000000000E+00  0.00000000000E+00  0.20764474409E+03  0.20764474411E+03  0.25500000000E-02 0. -1.
         -2   -1    0    0    0  501 -0.00000000000E+00 -0.00000000000E+00 -0.14184097352E+04  0.14184097352E+04  0.25500000000E-02 0.  1.
    8880023    1    1    2    0    0 -0.12920891091E+03  0.28393377176E+03 -0.71740900083E+03  0.10226432468E+04  0.65864270000E+03 0. -1.
    8880022    1    1    2    0    0  0.12920891091E+03 -0.28393377176E+03 -0.49335599027E+03  0.60341123254E+03  0.15294330000E+03 0.  1.
<mgrwt>
<rscale>  0 0.60556948E+03</rscale>
<asrwt>0</asrwt>
<pdfrwt beam="1">  1        2 0.31945346E-01 0.72878223E+03</pdfrwt>
<pdfrwt beam="2">  1       -2 0.21821688E+00 0.72878223E+03</pdfrwt>
<totfact> 0.17178533E+01</totfact>
</mgrwt>
</event>
<event>
 4    2  0.6387803E-007  0.7247267E+03  0.7818608E-02  0.9906905E-01
         -2   -1    0    0    0  501 -0.00000000000E+00  0.00000000000E+00  0.66243326093E+03  0.66243326094E+03  0.25500000000E-02 0.  1.
          2   -1    0    0  501    0  0.00000000000E+00 -0.00000000000E+00 -0.29823548855E+04  0.29823548855E+04  0.25500000000E-02 0. -1.
    8880023    1    1    2    0    0  0.25855840968E+03 -0.15673600703E+03  0.45075555919E+03  0.85346904309E+03  0.65864270000E+03 0.  0.
    8880022    1    1    2    0    0 -0.25855840968E+03  0.15673600703E+03 -0.27706771837E+04  0.27913191033E+04  0.15294330000E+03 0.  0.
<mgrwt>
<rscale>  0 0.59927796E+03</rscale>
<asrwt>0</asrwt>
<pdfrwt beam="1">  1        2 0.45882382E+00 0.72472673E+03</pdfrwt>
<pdfrwt beam="2">  1       -2 0.10191281E+00 0.72472673E+03</pdfrwt>
<totfact> 0.15131872E+00</totfact>
</mgrwt>
</event>
<event>
 4    2  0.6387803E-007  0.7431933E+03  0.7818608E-02  0.9850741E-01
         -2   -1    0    0    0  501 -0.00000000000E+00  0.00000000000E+00  0.53065810127E+03  0.53065810127E+03  0.25500000000E-02 0.  1.
          2   -1    0    0  501    0  0.00000000000E+00 -0.00000000000E+00 -0.78963359206E+03  0.78963359206E+03  0.25500000000E-02 0. -1.
    8880023    1    1    2    0    0  0.35734015411E+01  0.34425766151E+03  0.15646074353E+03  0.75948421790E+03  0.65864270000E+03 0.  1.
    8880022    1    1    2    0    0 -0.35734015411E+01 -0.34425766151E+03 -0.41543623431E+03  0.56080747544E+03  0.15294330000E+03 0.  0.
<mgrwt>
<rscale>  0 0.62709154E+03</rscale>
<asrwt>0</asrwt>
<pdfrwt beam="1">  1        2 0.12148209E+00 0.74319332E+03</pdfrwt>
<pdfrwt beam="2">  1       -2 0.81639708E-01 0.74319332E+03</pdfrwt>
<totfact> 0.46937193E+01</totfact>
</mgrwt>
</event>
<event>
 4    2  0.6387803E-007  0.6776570E+03  0.7818608E-02  0.1010681E+00
          2   -1    0    0  501    0  0.00000000000E+00  0.00000000000E+00  0.14348754386E+04  0.14348754386E+04  0.25500000000E-02 0. -1.
         -2   -1    0    0    0  501 -0.00000000000E+00 -0.00000000000E+00 -0.22468024084E+03  0.22468024085E+03  0.25500000000E-02 0.  1.
    8880023    1    1    2    0    0  0.12229042229E+03  0.10224408955E+03  0.33315720661E+03  0.75512431547E+03  0.65864270000E+03 0.  1.
    8880022    1    1    2    0    0 -0.12229042229E+03 -0.10224408955E+03  0.87703799111E+03  0.90443136395E+03  0.15294330000E+03 0.  0.
<mgrwt>
<rscale>  0 0.51204771E+03</rscale>
<asrwt>0</asrwt>
<pdfrwt beam="1">  1        2 0.22075007E+00 0.67765700E+03</pdfrwt>
<pdfrwt beam="2">  1       -2 0.34566190E-01 0.67765700E+03</pdfrwt>
<totfact> 0.11099764E+02</totfact>
</mgrwt>
</event>
<event>
 4    2  0.6387803E-007  0.6709975E+03  0.7818608E-02  0.1014958E+00
          2   -1    0    0  501    0  0.00000000000E+00  0.00000000000E+00  0.15627612539E+04  0.15627612539E+04  0.25500000000E-02 0. -1.
         -2   -1    0    0    0  501 -0.00000000000E+00 -0.00000000000E+00 -0.41929221575E+03  0.41929221576E+03  0.25500000000E-02 0.  1.
    8880023    1    1    2    0    0 -0.12809535175E+03 -0.43632906159E+01 -0.13808374311E+03  0.68505823389E+03  0.65864270000E+03 0.  1.
    8880022    1    1    2    0    0  0.12809535175E+03  0.43632906159E+01  0.12815527813E+04  0.12969952358E+04  0.15294330000E+03 0.  0.
<mgrwt>
<rscale>  0 0.49550966E+03</rscale>
<asrwt>0</asrwt>
<pdfrwt beam="1">  1        2 0.24042481E+00 0.67099751E+03</pdfrwt>
<pdfrwt beam="2">  1       -2 0.64506495E-01 0.67099751E+03</pdfrwt>
<totfact> 0.26873006E+01</totfact>
</mgrwt>
</event>
<event>
 4    2  0.6387803E-007  0.6633806E+03  0.7818608E-02  0.1020932E+00
          2   -1    0    0  501    0  0.00000000000E+00  0.00000000000E+00  0.20733732026E+04  0.20733732026E+04  0.25500000000E-02 0. -1.
         -2   -1    0    0    0  501 -0.00000000000E+00 -0.00000000000E+00 -0.17136869798E+03  0.17136869799E+03  0.25500000000E-02 0.  1.
    8880023    1    1    2    0    0 -0.49875257134E+02  0.61449941278E+02  0.49618972935E+03  0.82841903065E+03  0.65864270000E+03 0.  1.
    8880022    1    1    2    0    0  0.49875257134E+02 -0.61449941278E+02  0.14058147753E+04  0.14163228700E+04  0.15294330000E+03 0.  0.
<mgrwt>
<rscale>  0 0.47351621E+03</rscale>
<asrwt>0</asrwt>
<pdfrwt beam="1">  1        2 0.31898047E+00 0.66338062E+03</pdfrwt>
<pdfrwt beam="2">  1       -2 0.26364417E-01 0.66338062E+03</pdfrwt>
<totfact> 0.82238527E+01</totfact>
</mgrwt>
</event>
<event>
 4    2  0.6387803E-007  0.6786087E+03  0.7818608E-02  0.1010122E+00
          2   -1    0    0  501    0  0.00000000000E+00  0.00000000000E+00  0.25759869872E+04  0.25759869872E+04  0.25500000000E-02 0. -1.
         -2   -1    0    0    0  501 -0.00000000000E+00 -0.00000000000E+00 -0.14818023805E+03  0.14818023807E+03  0.25500000000E-02 0.  1.
    8880023    1    1    2    0    0 -0.15863996499E+03 -0.39153342343E+02  0.67506959150E+03  0.95719840281E+03  0.65864270000E+03 0.  1.
    8880022    1    1    2    0    0  0.15863996499E+03  0.39153342343E+02  0.17527371576E+04  0.17669688225E+04  0.15294330000E+03 0.  0.
<mgrwt>
<rscale>  0 0.51426249E+03</rscale>
<asrwt>0</asrwt>
<pdfrwt beam="1">  1        2 0.39630570E+00 0.67860875E+03</pdfrwt>
<pdfrwt beam="2">  1       -2 0.22796959E-01 0.67860875E+03</pdfrwt>
<totfact> 0.56005375E+01</totfact>
</mgrwt>
</event>
<event>
 4    2  0.6387803E-007  0.7265509E+03  0.7818608E-02  0.9901013E-01
         -2   -1    0    0    0  501 -0.00000000000E+00  0.00000000000E+00  0.69104173698E+03  0.69104173699E+03  0.25500000000E-02 0.  1.
          2   -1    0    0  501    0  0.00000000000E+00 -0.00000000000E+00 -0.66977726842E+03  0.66977726842E+03  0.25500000000E-02 0. -1.
    8880023    1    1    2    0    0 -0.13312392293E+03  0.27630418044E+03  0.41667552132E+03  0.83755278957E+03  0.65864270000E+03 0.  1.
    8880022    1    1    2    0    0  0.13312392293E+03 -0.27630418044E+03 -0.39541105275E+03  0.52326621584E+03  0.15294330000E+03 0.  0.
<mgrwt>
<rscale>  0 0.60212226E+03</rscale>
<asrwt>0</asrwt>
<pdfrwt beam="1">  1        2 0.10304266E+00 0.72655088E+03</pdfrwt>
<pdfrwt beam="2">  1       -2 0.10631411E+00 0.72655088E+03</pdfrwt>
<totfact> 0.31370914E+01</totfact>
</mgrwt>
</event>
<event>
 4    2  0.6387803E-007  0.6816148E+03  0.7818608E-02  0.1008425E+00
          2   -1    0    0  501    0  0.00000000000E+00  0.00000000000E+00  0.91070613570E+03  0.91070613571E+03  0.25500000000E-02 0. -1.
         -2   -1    0    0    0  501 -0.00000000000E+00 -0.00000000000E+00 -0.80298128603E+03  0.80298128603E+03  0.25500000000E-02 0.  1.
    8880023    1    1    2    0    0  0.15808906178E+02  0.17475280640E+03 -0.63730484415E+03  0.93314314845E+03  0.65864270000E+03 0.  1.
    8880022    1    1    2    0    0 -0.15808906178E+02 -0.17475280640E+03  0.74502969383E+03  0.78054427329E+03  0.15294330000E+03 0.  0.
<mgrwt>
<rscale>  0 0.52105579E+03</rscale>
<asrwt>0</asrwt>
<pdfrwt beam="1">  1        2 0.14010864E+00 0.68161475E+03</pdfrwt>
<pdfrwt beam="2">  1       -2 0.12353558E+00 0.68161475E+03</pdfrwt>
<totfact> 0.14582245E+01</totfact>
</mgrwt>
</event>
<event>
 4    2  0.6387803E-007  0.6958493E+03  0.7818608E-02  0.1001488E+00
          2   -1    0    0  501    0  0.00000000000E+00  0.00000000000E+00  0.14658600278E+04  0.14658600278E+04  0.25500000000E-02 0. -1.
         -2   -1    0    0    0  501 -0.00000000000E+00 -0.00000000000E+00 -0.28026596731E+03  0.28026596733E+03  0.25500000000E-02 0.  1.
    8880023    1    1    2    0    0 -0.21507809946E+03 -0.64323107699E+02  0.20034467433E+03  0.72411618256E+03  0.65864270000E+03 0.  1.
    8880022    1    1    2    0    0  0.21507809946E+03  0.64323107699E+02  0.98524938619E+03  0.10220098126E+04  0.15294330000E+03 0.  0.
<mgrwt>
<rscale>  0 0.55002749E+03</rscale>
<asrwt>0</asrwt>
<pdfrwt beam="1">  1        2 0.22551693E+00 0.69584931E+03</pdfrwt>
<pdfrwt beam="2">  1       -2 0.43117841E-01 0.69584931E+03</pdfrwt>
<totfact> 0.69403713E+01</totfact>
</mgrwt>
</event>
<event>
 4    2  0.6387803E-007  0.8211174E+03  0.7818608E-02  0.9666869E-01
          2   -1    0    0  501    0  0.00000000000E+00  0.00000000000E+00  0.28522608236E+04  0.28522608236E+04  0.25500000000E-02 0. -1.
         -2   -1    0    0    0  501 -0.00000000000E+00 -0.00000000000E+00 -0.45238818091E+03  0.45238818091E+03  0.25500000000E-02 0.  1.
    8880023    1    1    2    0    0  0.13394771123E+03 -0.47167957660E+03 -0.29426821442E+02  0.82164454383E+03  0.65864270000E+03 0.  0.
    8880022    1    1    2    0    0 -0.13394771123E+03  0.47167957660E+03  0.24292994641E+04  0.24830044606E+04  0.15294330000E+03 0.  0.
<mgrwt>
<rscale>  0 0.73024138E+03</rscale>
<asrwt>0</asrwt>
<pdfrwt beam="1">  1        2 0.43880936E+00 0.82111742E+03</pdfrwt>
<pdfrwt beam="2">  1       -2 0.69598182E-01 0.82111742E+03</pdfrwt>
<totfact> 0.42383858E+00</totfact>
</mgrwt>
</event>
<event>
 4    2  0.6387803E-007  0.7311923E+03  0.7818608E-02  0.9886388E-01
          2   -1    0    0  501    0  0.00000000000E+00  0.00000000000E+00  0.32404501622E+04  0.32404501622E+04  0.25500000000E-02 0. -1.
         -2   -1    0    0    0  501 -0.00000000000E+00 -0.00000000000E+00 -0.38769748881E+03  0.38769748882E+03  0.25500000000E-02 0.  1.
    8880023    1    1    2    0    0 -0.25201679918E+03 -0.19318268154E+03 -0.22338624821E+02  0.73153348244E+03  0.65864270000E+03 0.  1.
    8880022    1    1    2    0    0  0.25201679918E+03  0.19318268154E+03  0.28750912982E+04  0.28966141686E+04  0.15294330000E+03 0.  0.
<mgrwt>
<rscale>  0 0.60925523E+03</rscale>
<asrwt>0</asrwt>
<pdfrwt beam="1">  1        2 0.49853079E+00 0.73119233E+03</pdfrwt>
<pdfrwt beam="2">  1       -2 0.59645768E-01 0.73119233E+03</pdfrwt>
<totfact> 0.34548450E+00</totfact>
</mgrwt>
</event>
<event>
 4    2  0.6387803E-007  0.1032852E+04  0.7818608E-02  0.9339785E-01
         -2   -1    0    0    0  501 -0.00000000000E+00  0.00000000000E+00  0.15026621735E+04  0.15026621735E+04  0.25500000000E-02 0.  1.
          2   -1    0    0  501    0  0.00000000000E+00 -0.00000000000E+00 -0.18608043300E+04  0.18608043300E+04  0.25500000000E-02 0. -1.
    8880023    1    1    2    0    0 -0.28755038409E+03 -0.74181379655E+03 -0.15858493861E+04  0.18925383520E+04  0.65864270000E+03 0.  0.
    8880022    1    1    2    0    0  0.28755038409E+03  0.74181379655E+03  0.12277072296E+04  0.14709281515E+04  0.15294330000E+03 0.  0.
<mgrwt>
<rscale>  0 0.97201216E+03</rscale>
<asrwt>0</asrwt>
<pdfrwt beam="1">  1        2 0.28627759E+00 0.10328519E+04</pdfrwt>
<pdfrwt beam="2">  1       -2 0.23117880E+00 0.10328519E+04</pdfrwt>
<totfact> 0.66728130E-01</totfact>
</mgrwt>
</event>
<event>
 4    2  0.6387803E-007  0.6792737E+03  0.7818608E-02  0.1009737E+00
          2   -1    0    0  501    0  0.00000000000E+00  0.00000000000E+00  0.20410840734E+04  0.20410840734E+04  0.25500000000E-02 0. -1.
         -2   -1    0    0    0  501 -0.00000000000E+00 -0.00000000000E+00 -0.21030445426E+03  0.21030445428E+03  0.25500000000E-02 0.  1.
    8880023    1    1    2    0    0  0.10092339396E+03  0.13197376446E+03  0.37048920455E+03  0.77374095336E+03  0.65864270000E+03 0.  1.
    8880022    1    1    2    0    0 -0.10092339396E+03 -0.13197376446E+03  0.14602904146E+04  0.14776475743E+04  0.15294330000E+03 0.  0.
<mgrwt>
<rscale>  0 0.51579102E+03</rscale>
<asrwt>0</asrwt>
<pdfrwt beam="1">  1        2 0.31401292E+00 0.67927374E+03</pdfrwt>
<pdfrwt beam="2">  1       -2 0.32354533E-01 0.67927374E+03</pdfrwt>
<totfact> 0.58575801E+01</totfact>
</mgrwt>
</event>
<event>
 4    2  0.6387803E-007  0.8188822E+03  0.7818608E-02  0.9671364E-01
          2   -1    0    0  501    0  0.00000000000E+00  0.00000000000E+00  0.13947578086E+04  0.13947578086E+04  0.25500000000E-02 0. -1.
         -2   -1    0    0    0  501 -0.00000000000E+00 -0.00000000000E+00 -0.63173014815E+03  0.63173014816E+03  0.25500000000E-02 0.  1.
    8880023    1    1    2    0    0  0.48538144354E+03  0.34098718498E+02 -0.28000025114E+03  0.86542949755E+03  0.65864270000E+03 0.  1.
    8880022    1    1    2    0    0 -0.48538144354E+03 -0.34098718498E+02  0.10430279116E+04  0.11610584592E+04  0.15294330000E+03 0.  0.
<mgrwt>
<rscale>  0 0.72747648E+03</rscale>
<asrwt>0</asrwt>
<pdfrwt beam="1">  1        2 0.21457812E+00 0.81888221E+03</pdfrwt>
<pdfrwt beam="2">  1       -2 0.97189254E-01 0.81888221E+03</pdfrwt>
<totfact> 0.13054696E+01</totfact>
</mgrwt>
</event>
<event>
 4    2  0.6387803E-007  0.7920603E+03  0.7818608E-02  0.9728234E-01
         -2   -1    0    0    0  501 -0.00000000000E+00  0.00000000000E+00  0.32671087149E+03  0.32671087150E+03  0.25500000000E-02 0.  1.
          2   -1    0    0  501    0  0.00000000000E+00 -0.00000000000E+00 -0.18119344544E+04  0.18119344544E+04  0.25500000000E-02 0. -1.
    8880023    1    1    2    0    0  0.16578123454E+03  0.40751176319E+03 -0.26933867658E+03  0.83660192674E+03  0.65864270000E+03 0.  1.
    8880022    1    1    2    0    0 -0.16578123454E+03 -0.40751176319E+03 -0.12158849064E+04  0.13020433992E+04  0.15294330000E+03 0.  0.
<mgrwt>
<rscale>  0 0.69360362E+03</rscale>
<asrwt>0</asrwt>
<pdfrwt beam="1">  1        2 0.27875914E+00 0.79206026E+03</pdfrwt>
<pdfrwt beam="2">  1       -2 0.50263212E-01 0.79206026E+03</pdfrwt>
<totfact> 0.32560019E+01</totfact>
</mgrwt>
</event>
<event>
 4    2  0.6387803E-007  0.7199283E+03  0.7818608E-02  0.9922829E-01
         -2   -1    0    0    0  501 -0.00000000000E+00  0.00000000000E+00  0.22748772527E+03  0.22748772528E+03  0.25500000000E-02 0.  1.
          2   -1    0    0  501    0  0.00000000000E+00 -0.00000000000E+00 -0.17286725431E+04  0.17286725431E+04  0.25500000000E-02 0. -1.
    8880023    1    1    2    0    0 -0.70556057975E+02  0.28197231313E+03 -0.14564664145E+04  0.16246818660E+04  0.65864270000E+03 0. -1.
    8880022    1    1    2    0    0  0.70556057975E+02 -0.28197231313E+03 -0.44718403349E+02  0.33147840247E+03  0.15294330000E+03 0.  0.
<mgrwt>
<rscale>  0 0.59167557E+03</rscale>
<asrwt>0</asrwt>
<pdfrwt beam="1">  1        2 0.26594961E+00 0.71992829E+03</pdfrwt>
<pdfrwt beam="2">  1       -2 0.34998113E-01 0.71992829E+03</pdfrwt>
<totfact> 0.74330305E+01</totfact>
</mgrwt>
</event>
<event>
 4    2  0.6387803E-007  0.7458381E+03  0.7818608E-02  0.9843256E-01
          2   -1    0    0  501    0  0.00000000000E+00  0.00000000000E+00  0.81091833071E+03  0.81091833071E+03  0.25500000000E-02 0. -1.
         -2   -1    0    0    0  501 -0.00000000000E+00 -0.00000000000E+00 -0.82258334693E+03  0.82258334693E+03  0.25500000000E-02 0.  1.
    8880023    1    1    2    0    0 -0.29776857016E+03  0.18384287031E+03 -0.58273497466E+03  0.94649594785E+03  0.65864270000E+03 0.  1.
    8880022    1    1    2    0    0  0.29776857016E+03 -0.18384287031E+03  0.57106995843E+03  0.68700572980E+03  0.15294330000E+03 0.  0.
<mgrwt>
<rscale>  0 0.63091953E+03</rscale>
<asrwt>0</asrwt>
<pdfrwt beam="1">  1        2 0.12475667E+00 0.74583814E+03</pdfrwt>
<pdfrwt beam="2">  1       -2 0.12655128E+00 0.74583814E+03</pdfrwt>
<totfact> 0.15967166E+01</totfact>
</mgrwt>
</event>
<event>
 4    2  0.6387803E-007  0.7238669E+03  0.7818608E-02  0.9909712E-01
         -2   -1    0    0    0  501 -0.00000000000E+00  0.00000000000E+00  0.54683055774E+03  0.54683055775E+03  0.25500000000E-02 0.  1.
          2   -1    0    0  501    0  0.00000000000E+00 -0.00000000000E+00 -0.60696018247E+03  0.60696018247E+03  0.25500000000E-02 0. -1.
    8880023    1    1    2    0    0  0.26847888586E+03 -0.13450721961E+03  0.17270604565E+03  0.74418457976E+03  0.65864270000E+03 0.  1.
    8880022    1    1    2    0    0 -0.26847888586E+03  0.13450721961E+03 -0.23283567037E+03  0.40960616047E+03  0.15294330000E+03 0.  0.
<mgrwt>
<rscale>  0 0.59792883E+03</rscale>
<asrwt>0</asrwt>
<pdfrwt beam="1">  1        2 0.93378489E-01 0.72386691E+03</pdfrwt>
<pdfrwt beam="2">  1       -2 0.84127778E-01 0.72386691E+03</pdfrwt>
<totfact> 0.61169764E+01</totfact>
</mgrwt>
</event>
<event>
 4    2  0.6387803E-007  0.9053839E+03  0.7818608E-02  0.9517443E-01
          2   -1    0    0  501    0  0.00000000000E+00  0.00000000000E+00  0.22420481036E+04  0.22420481036E+04  0.25500000000E-02 0. -1.
         -2   -1    0    0    0  501 -0.00000000000E+00 -0.00000000000E+00 -0.37811683763E+03  0.37811683764E+03  0.25500000000E-02 0.  1.
    8880023    1    1    2    0    0 -0.62006652885E+03 -0.37779491492E+02  0.17499969575E+04  0.19703322937E+04  0.65864270000E+03 0. -1.
    8880022    1    1    2    0    0  0.62006652885E+03  0.37779491492E+02  0.11393430853E+03  0.64983264758E+03  0.15294330000E+03 0.  0.
<mgrwt>
<rscale>  0 0.83009918E+03</rscale>
<asrwt>0</asrwt>
<pdfrwt beam="1">  1        2 0.34493047E+00 0.90538389E+03</pdfrwt>
<pdfrwt beam="2">  1       -2 0.58171823E-01 0.90538389E+03</pdfrwt>
<totfact> 0.13770364E+01</totfact>
</mgrwt>
</event>
<event>
 4    2  0.6387803E-007  0.6779239E+03  0.7818608E-02  0.1010523E+00
          2   -1    0    0  501    0  0.00000000000E+00  0.00000000000E+00  0.11793953234E+04  0.11793953234E+04  0.25500000000E-02 0. -1.
         -2   -1    0    0    0  501 -0.00000000000E+00 -0.00000000000E+00 -0.49546343379E+03  0.49546343379E+03  0.25500000000E-02 0.  1.
    8880023    1    1    2    0    0  0.12411007181E+02  0.16005198481E+03 -0.24423381917E+03  0.72057687698E+03  0.65864270000E+03 0.  1.
    8880022    1    1    2    0    0 -0.12411007181E+02 -0.16005198481E+03  0.92816570883E+03  0.95428188026E+03  0.15294330000E+03 0.  0.
<mgrwt>
<rscale>  0 0.51267222E+03</rscale>
<asrwt>0</asrwt>
<pdfrwt beam="1">  1        2 0.18144544E+00 0.67792395E+03</pdfrwt>
<pdfrwt beam="2">  1       -2 0.76225143E-01 0.67792395E+03</pdfrwt>
<totfact> 0.30808503E+01</totfact>
</mgrwt>
</event>
<event>
 4    2  0.6387803E-007  0.7417485E+03  0.7818608E-02  0.9854883E-01
         -2   -1    0    0    0  501 -0.00000000000E+00  0.00000000000E+00  0.20886858912E+03  0.20886858914E+03  0.25500000000E-02 0.  1.
          2   -1    0    0  501    0  0.00000000000E+00 -0.00000000000E+00 -0.19929716625E+04  0.19929716625E+04  0.25500000000E-02 0. -1.
    8880023    1    1    2    0    0 -0.27542726547E+03 -0.20129695505E+03 -0.58164623085E+03  0.94260446997E+03  0.65864270000E+03 0.  1.
    8880022    1    1    2    0    0  0.27542726547E+03  0.20129695505E+03 -0.12024568425E+04  0.12592357817E+04  0.15294330000E+03 0.  0.
<mgrwt>
<rscale>  0 0.62498580E+03</rscale>
<asrwt>0</asrwt>
<pdfrwt beam="1">  1        2 0.30661101E+00 0.74174851E+03</pdfrwt>
<pdfrwt beam="2">  1       -2 0.32133630E-01 0.74174851E+03</pdfrwt>
<totfact> 0.62543726E+01</totfact>
</mgrwt>
</event>
<event>
 4    2  0.6387803E-007  0.9032364E+03  0.7818608E-02  0.9520856E-01
          2   -1    0    0  501    0  0.00000000000E+00  0.00000000000E+00  0.20667668066E+04  0.20667668066E+04  0.25500000000E-02 0. -1.
         -2   -1    0    0    0  501 -0.00000000000E+00 -0.00000000000E+00 -0.59695072384E+03  0.59695072385E+03  0.25500000000E-02 0.  1.
    8880023    1    1    2    0    0 -0.33442574212E+03  0.51979340395E+03 -0.15695947484E+03  0.91677273235E+03  0.65864270000E+03 0.  0.
    8880022    1    1    2    0    0  0.33442574212E+03 -0.51979340395E+03  0.16267755576E+04  0.17469447981E+04  0.15294330000E+03 0.  0.
<mgrwt>
<rscale>  0 0.82763504E+03</rscale>
<asrwt>0</asrwt>
<pdfrwt beam="1">  1        2 0.31796412E+00 0.90323638E+03</pdfrwt>
<pdfrwt beam="2">  1       -2 0.91838574E-01 0.90323638E+03</pdfrwt>
<totfact> 0.62736404E+00</totfact>
</mgrwt>
</event>
<event>
 4    2  0.6387803E-007  0.7411979E+03  0.7818608E-02  0.9856471E-01
          2   -1    0    0  501    0  0.00000000000E+00  0.00000000000E+00  0.16868681808E+04  0.16868681808E+04  0.25500000000E-02 0. -1.
         -2   -1    0    0    0  501 -0.00000000000E+00 -0.00000000000E+00 -0.40796213654E+03  0.40796213655E+03  0.25500000000E-02 0.  1.
    8880023    1    1    2    0    0 -0.18732844401E+03  0.28367613149E+03 -0.22046554902E+02  0.74152569096E+03  0.65864270000E+03 0.  0.
    8880022    1    1    2    0    0  0.18732844401E+03 -0.28367613149E+03  0.13009525992E+04  0.13533046264E+04  0.15294330000E+03 0.  0.
<mgrwt>
<rscale>  0 0.62418049E+03</rscale>
<asrwt>0</asrwt>
<pdfrwt beam="1">  1        2 0.25951819E+00 0.74119788E+03</pdfrwt>
<pdfrwt beam="2">  1       -2 0.62763405E-01 0.74119788E+03</pdfrwt>
<totfact> 0.24134242E+01</totfact>
</mgrwt>
</event>
<event>
 4    2  0.6387803E-007  0.9659507E+03  0.7818608E-02  0.9427527E-01
          2   -1    0    0  501    0  0.00000000000E+00  0.00000000000E+00  0.11689710815E+04  0.11689710815E+04  0.25500000000E-02 0. -1.
         -2   -1    0    0    0  501 -0.00000000000E+00 -0.00000000000E+00 -0.12296339250E+04  0.12296339250E+04  0.25500000000E-02 0.  1.
    8880023    1    1    2    0    0 -0.64880033512E+03  0.27983679920E+03 -0.87945461460E+03  0.13063311733E+04  0.65864270000E+03 0.  0.
    8880022    1    1    2    0    0  0.64880033512E+03 -0.27983679920E+03  0.81879177109E+03  0.10922738331E+04  0.15294330000E+03 0.  0.
<mgrwt>
<rscale>  0 0.89844557E+03</rscale>
<asrwt>0</asrwt>
<pdfrwt beam="1">  1        2 0.17984170E+00 0.96595068E+03</pdfrwt>
<pdfrwt beam="2">  1       -2 0.18917445E+00 0.96595068E+03</pdfrwt>
<totfact> 0.30905452E+00</totfact>
</mgrwt>
</event>
<event>
 4    2  0.6387803E-007  0.7271139E+03  0.7818608E-02  0.9899211E-01
          2   -1    0    0  501    0  0.00000000000E+00  0.00000000000E+00  0.11514546700E+04  0.11514546700E+04  0.25500000000E-02 0. -1.
         -2   -1    0    0    0  501 -0.00000000000E+00 -0.00000000000E+00 -0.12124302700E+04  0.12124302700E+04  0.25500000000E-02 0.  1.
    8880023    1    1    2    0    0  0.27069432291E+03 -0.14700010113E+03 -0.10723598554E+04  0.12956273816E+04  0.65864270000E+03 0.  1.
    8880022    1    1    2    0    0 -0.27069432291E+03  0.14700010113E+03  0.10113842553E+04  0.10682575584E+04  0.15294330000E+03 0.  0.
<mgrwt>
<rscale>  0 0.60299536E+03</rscale>
<asrwt>0</asrwt>
<pdfrwt beam="1">  1        2 0.17714687E+00 0.72711392E+03</pdfrwt>
<pdfrwt beam="2">  1       -2 0.18652773E+00 0.72711392E+03</pdfrwt>
<totfact> 0.34071667E+00</totfact>
</mgrwt>
</event>
<event>
 4    2  0.6387803E-007  0.6832732E+03  0.7818608E-02  0.1007530E+00
         -2   -1    0    0    0  501 -0.00000000000E+00  0.00000000000E+00  0.30422020954E+03  0.30422020955E+03  0.25500000000E-02 0.  1.
          2   -1    0    0  501    0  0.00000000000E+00 -0.00000000000E+00 -0.27279851152E+04  0.27279851152E+04  0.25500000000E-02 0. -1.
    8880023    1    1    2    0    0 -0.18149829575E+03  0.10508575979E+02 -0.93244185685E+02  0.68960622529E+03  0.65864270000E+03 0.  1.
    8880022    1    1    2    0    0  0.18149829575E+03 -0.10508575979E+02 -0.23305207199E+04  0.23425990994E+04  0.15294330000E+03 0.  0.
<mgrwt>
<rscale>  0 0.52468390E+03</rscale>
<asrwt>0</asrwt>
<pdfrwt beam="1">  1        2 0.41969000E+00 0.68327320E+03</pdfrwt>
<pdfrwt beam="2">  1       -2 0.46803111E-01 0.68327320E+03</pdfrwt>
<totfact> 0.11799260E+01</totfact>
</mgrwt>
</event>
<event>
 4    2  0.6387803E-007  0.7094321E+03  0.7818608E-02  0.9960116E-01
         -2   -1    0    0    0  501 -0.00000000000E+00  0.00000000000E+00  0.54092901946E+03  0.54092901947E+03  0.25500000000E-02 0.  1.
          2   -1    0    0  501    0  0.00000000000E+00 -0.00000000000E+00 -0.84450471322E+03  0.84450471323E+03  0.25500000000E-02 0. -1.
    8880023    1    1    2    0    0 -0.19394038955E+03 -0.17852387414E+03  0.25109346278E+03  0.75255682952E+03  0.65864270000E+03 0.  1.
    8880022    1    1    2    0    0  0.19394038955E+03  0.17852387414E+03 -0.55466915654E+03  0.63287690318E+03  0.15294330000E+03 0.  0.
<mgrwt>
<rscale>  0 0.57434208E+03</rscale>
<asrwt>0</asrwt>
<pdfrwt beam="1">  1        2 0.12992380E+00 0.70943206E+03</pdfrwt>
<pdfrwt beam="2">  1       -2 0.83219849E-01 0.70943206E+03</pdfrwt>
<totfact> 0.41206976E+01</totfact>
</mgrwt>
</event>
<event>
 4    2  0.6387803E-007  0.7834179E+03  0.7818608E-02  0.9747869E-01
          2   -1    0    0  501    0  0.00000000000E+00  0.00000000000E+00  0.19748015091E+04  0.19748015091E+04  0.25500000000E-02 0. -1.
         -2   -1    0    0    0  501 -0.00000000000E+00 -0.00000000000E+00 -0.37122542282E+03  0.37122542283E+03  0.25500000000E-02 0.  1.
    8880023    1    1    2    0    0  0.31969154393E+03 -0.27880228127E+03  0.11642943246E+03  0.79202235720E+03  0.65864270000E+03 0.  1.
    8880022    1    1    2    0    0 -0.31969154393E+03  0.27880228127E+03  0.14871466538E+04  0.15540045747E+04  0.15294330000E+03 0.  0.
<mgrwt>
<rscale>  0 0.68236851E+03</rscale>
<asrwt>0</asrwt>
<pdfrwt beam="1">  1        2 0.30381562E+00 0.78341790E+03</pdfrwt>
<pdfrwt beam="2">  1       -2 0.57111604E-01 0.78341790E+03</pdfrwt>
<totfact> 0.20400254E+01</totfact>
</mgrwt>
</event>
<event>
 4    2  0.6387803E-007  0.8406542E+03  0.7818608E-02  0.9628948E-01
          2   -1    0    0  501    0  0.00000000000E+00  0.00000000000E+00  0.19845167350E+04  0.19845167350E+04  0.25500000000E-02 0. -1.
         -2   -1    0    0    0  501 -0.00000000000E+00 -0.00000000000E+00 -0.32848117902E+03  0.32848117903E+03  0.25500000000E-02 0.  1.
    8880023    1    1    2    0    0  0.27963867425E+03  0.44123863897E+03  0.15428901743E+04  0.17570457083E+04  0.65864270000E+03 0. -1.
    8880022    1    1    2    0    0 -0.27963867425E+03 -0.44123863897E+03  0.11314538162E+03  0.55595220573E+03  0.15294330000E+03 0.  1.
<mgrwt>
<rscale>  0 0.75409493E+03</rscale>
<asrwt>0</asrwt>
<pdfrwt beam="1">  1        2 0.30531027E+00 0.84065423E+03</pdfrwt>
<pdfrwt beam="2">  1       -2 0.50535566E-01 0.84065423E+03</pdfrwt>
<totfact> 0.25767948E+01</totfact>
</mgrwt>
</event>
<event>
 4    2  0.6387803E-007  0.1063453E+04  0.7818608E-02  0.9302881E-01
          2   -1    0    0  501    0  0.00000000000E+00  0.00000000000E+00  0.97201977212E+03  0.97201977212E+03  0.25500000000E-02 0. -1.
         -2   -1    0    0    0  501 -0.00000000000E+00 -0.00000000000E+00 -0.13842835341E+04  0.13842835341E+04  0.25500000000E-02 0.  1.
    8880023    1    1    2    0    0  0.80557832486E+03 -0.21946804106E+03 -0.88604618178E+03  0.13842003833E+04  0.65864270000E+03 0.  0.
    8880022    1    1    2    0    0 -0.80557832486E+03  0.21946804106E+03  0.47378241978E+03  0.97210292297E+03  0.15294330000E+03 0.  0.
<mgrwt>
<rscale>  0 0.10051807E+04</rscale>
<asrwt>0</asrwt>
<pdfrwt beam="1">  1        2 0.14954150E+00 0.10634533E+04</pdfrwt>
<pdfrwt beam="2">  1       -2 0.21296670E+00 0.10634533E+04</pdfrwt>
<totfact> 0.28384037E+00</totfact>
</mgrwt>
</event>
<event>
 4    2  0.6387803E-007  0.6683182E+03  0.7818608E-02  0.1016898E+00
         -2   -1    0    0    0  501 -0.00000000000E+00  0.00000000000E+00  0.57610671592E+03  0.57610671592E+03  0.25500000000E-02 0.  1.
          2   -1    0    0  501    0  0.00000000000E+00 -0.00000000000E+00 -0.13161600533E+04  0.13161600533E+04  0.25500000000E-02 0. -1.
    8880023    1    1    2    0    0 -0.14613058601E+01 -0.11330002898E+03  0.37143357711E+03  0.76459933328E+03  0.65864270000E+03 0.  1.
    8880022    1    1    2    0    0  0.14613058601E+01  0.11330002898E+03 -0.11114869144E+04  0.11276674359E+04  0.15294330000E+03 0.  0.
<mgrwt>
<rscale>  0 0.48822728E+03</rscale>
<asrwt>0</asrwt>
<pdfrwt beam="1">  1        2 0.20248616E+00 0.66831822E+03</pdfrwt>
<pdfrwt beam="2">  1       -2 0.88631803E-01 0.66831822E+03</pdfrwt>
<totfact> 0.18267344E+01</totfact>
</mgrwt>
</event>
<event>
 4    2  0.6387803E-007  0.7663407E+03  0.7818608E-02  0.9788960E-01
         -2   -1    0    0    0  501 -0.00000000000E+00  0.00000000000E+00  0.24859970341E+03  0.24859970342E+03  0.25500000000E-02 0.  1.
          2   -1    0    0  501    0  0.00000000000E+00 -0.00000000000E+00 -0.26544237059E+04  0.26544237059E+04  0.25500000000E-02 0. -1.
    8880023    1    1    2    0    0  0.37954494253E+02 -0.38990679167E+03 -0.42146764522E+03  0.87459306655E+03  0.65864270000E+03 0.  1.
    8880022    1    1    2    0    0 -0.37954494253E+02  0.38990679167E+03 -0.19843563573E+04  0.20284303428E+04  0.15294330000E+03 0.  0.
<mgrwt>
<rscale>  0 0.65958378E+03</rscale>
<asrwt>0</asrwt>
<pdfrwt beam="1">  1        2 0.40837286E+00 0.76634069E+03</pdfrwt>
<pdfrwt beam="2">  1       -2 0.38246110E-01 0.76634069E+03</pdfrwt>
<totfact> 0.19107380E+01</totfact>
</mgrwt>
</event>
<event>
 4    2  0.6387803E-007  0.6591200E+03  0.7818608E-02  0.1025077E+00
         -2   -1    0    0    0  501 -0.00000000000E+00  0.00000000000E+00  0.69082548473E+03  0.69082548473E+03  0.25500000000E-02 0.  1.
          2   -1    0    0  501    0  0.00000000000E+00 -0.00000000000E+00 -0.28233784180E+03  0.28233784181E+03  0.25500000000E-02 0. -1.
    8880023    1    1    2    0    0  0.15183427933E+02  0.19961037800E+02  0.46668599320E+03  0.80761067479E+03  0.65864270000E+03 0.  0.
    8880022    1    1    2    0    0 -0.15183427933E+02 -0.19961037800E+02 -0.58198350280E+02  0.16555265176E+03  0.15294330000E+03 0.  0.
<mgrwt>
<rscale>  0 0.45898282E+03</rscale>
<asrwt>0</asrwt>
<pdfrwt beam="1">  1        2 0.43436591E-01 0.65912001E+03</pdfrwt>
<pdfrwt beam="2">  1       -2 0.10628084E+00 0.65912001E+03</pdfrwt>
<totfact> 0.85073226E+01</totfact>
</mgrwt>
</event>
<event>
 4    2  0.6387803E-007  0.9794826E+03  0.7818608E-02  0.9408907E-01
         -2   -1    0    0    0  501 -0.00000000000E+00  0.00000000000E+00  0.11370962737E+04  0.11370962737E+04  0.25500000000E-02 0.  1.
          2   -1    0    0  501    0  0.00000000000E+00 -0.00000000000E+00 -0.12452437318E+04  0.12452437318E+04  0.25500000000E-02 0. -1.
    8880023    1    1    2    0    0  0.27273788235E+03 -0.67170674803E+03  0.76091094281E+03  0.12403110807E+04  0.65864270000E+03 0.  0.
    8880022    1    1    2    0    0 -0.27273788235E+03  0.67170674803E+03 -0.86905840089E+03  0.11420289248E+04  0.15294330000E+03 0.  0.
<mgrwt>
<rscale>  0 0.91346281E+03</rscale>
<asrwt>0</asrwt>
<pdfrwt beam="1">  1        2 0.19157596E+00 0.97948257E+03</pdfrwt>
<pdfrwt beam="2">  1       -2 0.17493789E+00 0.97948257E+03</pdfrwt>
<totfact> 0.34795246E+00</totfact>
</mgrwt>
</event>
<event>
 4    2  0.6387803E-007  0.9866098E+03  0.7818608E-02  0.9399290E-01
         -2   -1    0    0    0  501 -0.00000000000E+00  0.00000000000E+00  0.29402640651E+03  0.29402640652E+03  0.25500000000E-02 0.  1.
          2   -1    0    0  501    0  0.00000000000E+00 -0.00000000000E+00 -0.31438093837E+04  0.31438093837E+04  0.25500000000E-02 0. -1.
    8880023    1    1    2    0    0 -0.26440690007E+03 -0.68533039392E+03 -0.23149051913E+04  0.25163833191E+04  0.65864270000E+03 0.  0.
    8880022    1    1    2    0    0  0.26440690007E+03  0.68533039392E+03 -0.53487778582E+03  0.92145247106E+03  0.15294330000E+03 0.  0.
<mgrwt>
<rscale>  0 0.92134173E+03</rscale>
<asrwt>0</asrwt>
<pdfrwt beam="1">  1        2 0.48366296E+00 0.98660983E+03</pdfrwt>
<pdfrwt beam="2">  1       -2 0.45234834E-01 0.98660983E+03</pdfrwt>
<totfact> 0.67251163E+00</totfact>
</mgrwt>
</event>
<event>
 4    2  0.6387803E-007  0.1189274E+04  0.7818608E-02  0.9167620E-01
          2   -1    0    0  501    0  0.00000000000E+00  0.00000000000E+00  0.91323042513E+03  0.91323042514E+03  0.25500000000E-02 0. -1.
         -2   -1    0    0    0  501 -0.00000000000E+00 -0.00000000000E+00 -0.27907238094E+04  0.27907238094E+04  0.25500000000E-02 0.  1.
    8880023    1    1    2    0    0  0.18847088420E+03  0.97213194869E+03 -0.23212007092E+04  0.26081305064E+04  0.65864270000E+03 0.  0.
    8880022    1    1    2    0    0 -0.18847088420E+03 -0.97213194869E+03  0.44370732495E+03  0.10958237281E+04  0.15294330000E+03 0.  0.
<mgrwt>
<rscale>  0 0.11393983E+04</rscale>
<asrwt>0</asrwt>
<pdfrwt beam="1">  1        2 0.14049699E+00 0.11892737E+04</pdfrwt>
<pdfrwt beam="2">  1       -2 0.42934212E+00 0.11892737E+04</pdfrwt>
<totfact> 0.13506301E-01</totfact>
</mgrwt>
</event>
<event>
 4    2  0.6387803E-007  0.1052088E+04  0.7818608E-02  0.9316376E-01
         -2   -1    0    0    0  501 -0.00000000000E+00  0.00000000000E+00  0.88078191683E+03  0.88078191683E+03  0.25500000000E-02 0.  1.
          2   -1    0    0  501    0  0.00000000000E+00 -0.00000000000E+00 -0.11758921027E+04  0.11758921027E+04  0.25500000000E-02 0. -1.
    8880023    1    1    2    0    0  0.54090837519E+03  0.61684430557E+03  0.22152053099E+03  0.10751559513E+04  0.65864270000E+03 0.  1.
    8880022    1    1    2    0    0 -0.54090837519E+03 -0.61684430557E+03 -0.51663071684E+03  0.98151806823E+03  0.15294330000E+03 0.  0.
<mgrwt>
<rscale>  0 0.99289165E+03</rscale>
<asrwt>0</asrwt>
<pdfrwt beam="1">  1        2 0.18090648E+00 0.10520879E+04</pdfrwt>
<pdfrwt beam="2">  1       -2 0.13550491E+00 0.10520879E+04</pdfrwt>
<totfact> 0.75521194E+00</totfact>
</mgrwt>
</event>
<event>
 4    2  0.6387803E-007  0.8183493E+03  0.7818608E-02  0.9672441E-01
          2   -1    0    0  501    0  0.00000000000E+00  0.00000000000E+00  0.19701784521E+04  0.19701784521E+04  0.25500000000E-02 0. -1.
         -2   -1    0    0    0  501 -0.00000000000E+00 -0.00000000000E+00 -0.38711554320E+03  0.38711554321E+03  0.25500000000E-02 0.  1.
    8880023    1    1    2    0    0 -0.15203131940E+03  0.46127203862E+03  0.14415673649E+03  0.83094932856E+03  0.65864270000E+03 0.  0.
    8880022    1    1    2    0    0  0.15203131940E+03 -0.46127203862E+03  0.14389061724E+04  0.15263446667E+04  0.15294330000E+03 0.  0.
<mgrwt>
<rscale>  0 0.72681614E+03</rscale>
<asrwt>0</asrwt>
<pdfrwt beam="1">  1        2 0.30310437E+00 0.81834933E+03</pdfrwt>
<pdfrwt beam="2">  1       -2 0.59556240E-01 0.81834933E+03</pdfrwt>
<totfact> 0.18704866E+01</totfact>
</mgrwt>
</event>
<event>
 4    2  0.6387803E-007  0.1040429E+04  0.7818608E-02  0.9330476E-01
         -2   -1    0    0    0  501 -0.00000000000E+00  0.00000000000E+00  0.52191344845E+03  0.52191344846E+03  0.25500000000E-02 0.  1.
          2   -1    0    0  501    0  0.00000000000E+00 -0.00000000000E+00 -0.27028040972E+04  0.27028040972E+04  0.25500000000E-02 0. -1.
    8880023    1    1    2    0    0 -0.65359975678E+03  0.47062673335E+03 -0.17142313134E+03  0.10544563815E+04  0.65864270000E+03 0.  1.
    8880022    1    1    2    0    0  0.65359975678E+03 -0.47062673335E+03 -0.20094675174E+04  0.21702611641E+04  0.15294330000E+03 0.  0.
<mgrwt>
<rscale>  0 0.98024907E+03</rscale>
<asrwt>0</asrwt>
<pdfrwt beam="1">  1        2 0.41581601E+00 0.10404289E+04</pdfrwt>
<pdfrwt beam="2">  1       -2 0.80294378E-01 0.10404289E+04</pdfrwt>
<totfact> 0.36579251E+00</totfact>
</mgrwt>
</event>
<event>
 4    2  0.6387803E-007  0.7591079E+03  0.7818608E-02  0.9807423E-01
         -2   -1    0    0    0  501 -0.00000000000E+00  0.00000000000E+00  0.12154373300E+04  0.12154373300E+04  0.25500000000E-02 0.  1.
          2   -1    0    0  501    0  0.00000000000E+00 -0.00000000000E+00 -0.27985432334E+03  0.27985432336E+03  0.25500000000E-02 0. -1.
    8880023    1    1    2    0    0 -0.23654229530E+03  0.29407872062E+03  0.59892668066E+03  0.96693222434E+03  0.65864270000E+03 0.  0.
    8880022    1    1    2    0    0  0.23654229530E+03 -0.29407872062E+03  0.33665632599E+03  0.52835942902E+03  0.15294330000E+03 0. -1.
<mgrwt>
<rscale>  0 0.64965721E+03</rscale>
<asrwt>0</asrwt>
<pdfrwt beam="1">  1        2 0.43054511E-01 0.75910787E+03</pdfrwt>
<pdfrwt beam="2">  1       -2 0.18699036E+00 0.75910787E+03</pdfrwt>
<totfact> 0.19550644E+01</totfact>
</mgrwt>
</event>
<event>
 4    2  0.6387803E-007  0.8536971E+03  0.7818608E-02  0.9604875E-01
          2   -1    0    0  501    0  0.00000000000E+00  0.00000000000E+00  0.19784195820E+04  0.19784195820E+04  0.25500000000E-02 0. -1.
         -2   -1    0    0    0  501 -0.00000000000E+00 -0.00000000000E+00 -0.29964400810E+03  0.29964400811E+03  0.25500000000E-02 0.  1.
    8880023    1    1    2    0    0  0.54270717598E+03 -0.21386467463E+02  0.14209932262E+04  0.16577154204E+04  0.65864270000E+03 0. -1.
    8880022    1    1    2    0    0 -0.54270717598E+03  0.21386467463E+02  0.25778234768E+03  0.62034816969E+03  0.15294330000E+03 0.  0.
<mgrwt>
<rscale>  0 0.76974359E+03</rscale>
<asrwt>0</asrwt>
<pdfrwt beam="1">  1        2 0.30437224E+00 0.85369706E+03</pdfrwt>
<pdfrwt beam="2">  1       -2 0.46099079E-01 0.85369706E+03</pdfrwt>
<totfact> 0.31230049E+01</totfact>
</mgrwt>
</event>
<event>
 4    2  0.6387803E-007  0.7066606E+03  0.7818608E-02  0.9970617E-01
          2   -1    0    0  501    0  0.00000000000E+00  0.00000000000E+00  0.56680675539E+03  0.56680675540E+03  0.25500000000E-02 0. -1.
         -2   -1    0    0    0  501 -0.00000000000E+00 -0.00000000000E+00 -0.45996736155E+03  0.45996736156E+03  0.25500000000E-02 0.  1.
    8880023    1    1    2    0    0  0.88993438555E-01  0.25604484398E+03  0.15816375636E+03  0.72414428820E+03  0.65864270000E+03 0.  1.
    8880022    1    1    2    0    0 -0.88993438555E-01 -0.25604484398E+03 -0.51324362521E+02  0.30262982875E+03  0.15294330000E+03 0.  0.
<mgrwt>
<rscale>  0 0.56957612E+03</rscale>
<asrwt>0</asrwt>
<pdfrwt beam="1">  1        2 0.87201039E-01 0.70666058E+03</pdfrwt>
<pdfrwt beam="2">  1       -2 0.70764210E-01 0.70666058E+03</pdfrwt>
<totfact> 0.97752278E+01</totfact>
</mgrwt>
</event>
<event>
 4    2  0.6387803E-007  0.7738184E+03  0.7818608E-02  0.9770563E-01
          2   -1    0    0  501    0  0.00000000000E+00  0.00000000000E+00  0.21140355226E+04  0.21140355226E+04  0.25500000000E-02 0. -1.
         -2   -1    0    0    0  501 -0.00000000000E+00 -0.00000000000E+00 -0.23840777674E+03  0.23840777675E+03  0.25500000000E-02 0.  1.
    8880023    1    1    2    0    0 -0.29675241836E+02  0.40509756669E+03  0.52837100331E+03  0.93700095086E+03  0.65864270000E+03 0.  1.
    8880022    1    1    2    0    0  0.29675241836E+02 -0.40509756669E+03  0.13472567425E+04  0.14154423485E+04  0.15294330000E+03 0.  0.
<mgrwt>
<rscale>  0 0.66966494E+03</rscale>
<asrwt>0</asrwt>
<pdfrwt beam="1">  1        2 0.32523624E+00 0.77381837E+03</pdfrwt>
<pdfrwt beam="2">  1       -2 0.36678119E-01 0.77381837E+03</pdfrwt>
<totfact> 0.41612830E+01</totfact>
</mgrwt>
</event>
<event>
 4    2  0.6387803E-007  0.7402374E+03  0.7818608E-02  0.9859256E-01
          2   -1    0    0  501    0  0.00000000000E+00  0.00000000000E+00  0.24010149800E+04  0.24010149800E+04  0.25500000000E-02 0. -1.
         -2   -1    0    0    0  501 -0.00000000000E+00 -0.00000000000E+00 -0.43282068959E+03  0.43282068960E+03  0.25500000000E-02 0.  1.
    8880023    1    1    2    0    0  0.33761553741E+03  0.12527813497E+02 -0.87106437624E+02  0.74534484298E+03  0.65864270000E+03 0.  0.
    8880022    1    1    2    0    0 -0.33761553741E+03 -0.12527813497E+02  0.20553007280E+04  0.20884908266E+04  0.15294330000E+03 0.  0.
<mgrwt>
<rscale>  0 0.62277199E+03</rscale>
<asrwt>0</asrwt>
<pdfrwt beam="1">  1        2 0.36938692E+00 0.74023740E+03</pdfrwt>
<pdfrwt beam="2">  1       -2 0.66587798E-01 0.74023740E+03</pdfrwt>
<totfact> 0.86210780E+00</totfact>
</mgrwt>
</event>
<event>
 4    2  0.6387803E-007  0.7585285E+03  0.7818608E-02  0.9808932E-01
          2   -1    0    0  501    0  0.00000000000E+00  0.00000000000E+00  0.38583006168E+03  0.38583006169E+03  0.25500000000E-02 0. -1.
         -2   -1    0    0    0  501 -0.00000000000E+00 -0.00000000000E+00 -0.88625374383E+03  0.88625374383E+03  0.25500000000E-02 0.  1.
    8880023    1    1    2    0    0  0.31685961116E+03  0.20286742346E+03 -0.27009561365E+03  0.80518137799E+03  0.65864270000E+03 0. -1.
    8880022    1    1    2    0    0 -0.31685961116E+03 -0.20286742346E+03 -0.23032806850E+03  0.46690242753E+03  0.15294330000E+03 0.  1.
<mgrwt>
<rscale>  0 0.64885389E+03</rscale>
<asrwt>0</asrwt>
<pdfrwt beam="1">  1        2 0.59358471E-01 0.75852845E+03</pdfrwt>
<pdfrwt beam="2">  1       -2 0.13634673E+00 0.75852845E+03</pdfrwt>
<totfact> 0.32213369E+01</totfact>
</mgrwt>
</event>
<event>
 4    2  0.6387803E-007  0.7022757E+03  0.7818608E-02  0.9987889E-01
          2   -1    0    0  501    0  0.00000000000E+00  0.00000000000E+00  0.46188707855E+03  0.46188707856E+03  0.25500000000E-02 0. -1.
         -2   -1    0    0    0  501 -0.00000000000E+00 -0.00000000000E+00 -0.11120768897E+04  0.11120768897E+04  0.25500000000E-02 0.  1.
    8880023    1    1    2    0    0  0.13766769396E+03  0.20106840366E+03 -0.93484413269E+03  0.11692410597E+04  0.65864270000E+03 0.  1.
    8880022    1    1    2    0    0 -0.13766769396E+03 -0.20106840366E+03  0.28465432158E+03  0.40472290857E+03  0.15294330000E+03 0.  0.
<mgrwt>
<rscale>  0 0.56184498E+03</rscale>
<asrwt>0</asrwt>
<pdfrwt beam="1">  1        2 0.71059551E-01 0.70227566E+03</pdfrwt>
<pdfrwt beam="2">  1       -2 0.17108875E+00 0.70227566E+03</pdfrwt>
<totfact> 0.14414413E+01</totfact>
</mgrwt>
</event>
<event>
 4    2  0.6387803E-007  0.6810230E+03  0.7818608E-02  0.1008751E+00
         -2   -1    0    0    0  501 -0.00000000000E+00  0.00000000000E+00  0.60900748433E+03  0.60900748434E+03  0.25500000000E-02 0.  1.
          2   -1    0    0  501    0  0.00000000000E+00 -0.00000000000E+00 -0.88646587206E+03  0.88646587206E+03  0.25500000000E-02 0. -1.
    8880023    1    1    2    0    0 -0.17307171611E+03 -0.53203518533E+01  0.39303043835E+03  0.78629845275E+03  0.65864270000E+03 0.  1.
    8880022    1    1    2    0    0  0.17307171611E+03  0.53203518533E+01 -0.67048882607E+03  0.70917490365E+03  0.15294330000E+03 0.  0.
<mgrwt>
<rscale>  0 0.51974142E+03</rscale>
<asrwt>0</asrwt>
<pdfrwt beam="1">  1        2 0.13637937E+00 0.68102300E+03</pdfrwt>
<pdfrwt beam="2">  1       -2 0.93693459E-01 0.68102300E+03</pdfrwt>
<totfact> 0.29460056E+01</totfact>
</mgrwt>
</event>
<event>
 4    2  0.6387803E-007  0.9384544E+03  0.7818608E-02  0.9466924E-01
          2   -1    0    0  501    0  0.00000000000E+00  0.00000000000E+00  0.17680421671E+04  0.17680421671E+04  0.25500000000E-02 0. -1.
         -2   -1    0    0    0  501 -0.00000000000E+00 -0.00000000000E+00 -0.37366457146E+03  0.37366457147E+03  0.25500000000E-02 0.  1.
    8880023    1    1    2    0    0 -0.36073205930E+03  0.56281328086E+03  0.76171907170E+03  0.12086821576E+04  0.65864270000E+03 0. -1.
    8880022    1    1    2    0    0  0.36073205930E+03 -0.56281328086E+03  0.63265852398E+03  0.93302458097E+03  0.15294330000E+03 0.  1.
<mgrwt>
<rscale>  0 0.86766926E+03</rscale>
<asrwt>0</asrwt>
<pdfrwt beam="1">  1        2 0.27200648E+00 0.93845438E+03</pdfrwt>
<pdfrwt beam="2">  1       -2 0.57486858E-01 0.93845438E+03</pdfrwt>
<totfact> 0.25656064E+01</totfact>
</mgrwt>
</event>
<event>
 4    2  0.6387803E-007  0.9154591E+03  0.7818608E-02  0.9501657E-01
          2   -1    0    0  501    0  0.00000000000E+00  0.00000000000E+00  0.12150430030E+04  0.12150430030E+04  0.25500000000E-02 0. -1.
         -2   -1    0    0    0  501 -0.00000000000E+00 -0.00000000000E+00 -0.12450487005E+04  0.12450487005E+04  0.25500000000E-02 0.  1.
    8880023    1    1    2    0    0 -0.18008889721E+03 -0.60977301568E+03 -0.95783926541E+03  0.13249609074E+04  0.65864270000E+03 0.  0.
    8880022    1    1    2    0    0  0.18008889721E+03  0.60977301568E+03  0.92783356788E+03  0.11351307961E+04  0.15294330000E+03 0.  0.
<mgrwt>
<rscale>  0 0.84161770E+03</rscale>
<asrwt>0</asrwt>
<pdfrwt beam="1">  1        2 0.18692969E+00 0.91545909E+03</pdfrwt>
<pdfrwt beam="2">  1       -2 0.19154595E+00 0.91545909E+03</pdfrwt>
<totfact> 0.28140725E+00</totfact>
</mgrwt>
</event>
<event>
 4    2  0.6387803E-007  0.6592262E+03  0.7818608E-02  0.1024964E+00
         -2   -1    0    0    0  501 -0.00000000000E+00  0.00000000000E+00  0.20123255249E+03  0.20123255251E+03  0.25500000000E-02 0.  1.
          2   -1    0    0  501    0  0.00000000000E+00 -0.00000000000E+00 -0.97664936212E+03  0.97664936213E+03  0.25500000000E-02 0. -1.
    8880023    1    1    2    0    0  0.18222361963E+02  0.20901343386E+02 -0.39884375168E+03  0.77049040562E+03  0.65864270000E+03 0.  1.
    8880022    1    1    2    0    0 -0.18222361963E+02 -0.20901343386E+02 -0.37657305795E+03  0.40739150902E+03  0.15294330000E+03 0.  0.
<mgrwt>
<rscale>  0 0.45937169E+03</rscale>
<asrwt>0</asrwt>
<pdfrwt beam="1">  1        2 0.15025375E+00 0.65922616E+03</pdfrwt>
<pdfrwt beam="2">  1       -2 0.30958855E-01 0.65922616E+03</pdfrwt>
<totfact> 0.25556976E+02</totfact>
</mgrwt>
</event>
<event>
 4    2  0.6387803E-007  0.6822404E+03  0.7818608E-02  0.1008084E+00
          2   -1    0    0  501    0  0.00000000000E+00  0.00000000000E+00  0.17994514897E+04  0.17994514897E+04  0.25500000000E-02 0. -1.
         -2   -1    0    0    0  501 -0.00000000000E+00 -0.00000000000E+00 -0.23958023589E+03  0.23958023590E+03  0.25500000000E-02 0.  1.
    8880023    1    1    2    0    0 -0.15246578597E+03 -0.91629261237E+02  0.27937892571E+03  0.73722759566E+03  0.65864270000E+03 0.  1.
    8880022    1    1    2    0    0  0.15246578597E+03  0.91629261237E+02  0.12804923281E+04  0.13018041299E+04  0.15294330000E+03 0.  0.
<mgrwt>
<rscale>  0 0.52243390E+03</rscale>
<asrwt>0</asrwt>
<pdfrwt beam="1">  1        2 0.27683868E+00 0.68224039E+03</pdfrwt>
<pdfrwt beam="2">  1       -2 0.36858499E-01 0.68224039E+03</pdfrwt>
<totfact> 0.61874814E+01</totfact>
</mgrwt>
</event>
<event>
 4    2  0.6387803E-007  0.7201101E+03  0.7818608E-02  0.9922214E-01
          2   -1    0    0  501    0  0.00000000000E+00  0.00000000000E+00  0.49652295468E+03  0.49652295469E+03  0.25500000000E-02 0. -1.
         -2   -1    0    0    0  501 -0.00000000000E+00 -0.00000000000E+00 -0.12401794027E+04  0.12401794027E+04  0.25500000000E-02 0.  1.
    8880023    1    1    2    0    0 -0.26128940582E+03 -0.12835944134E+03 -0.10592968190E+04  0.12808857313E+04  0.65864270000E+03 0.  1.
    8880022    1    1    2    0    0  0.26128940582E+03  0.12835944134E+03  0.31564037097E+03  0.45581662604E+03  0.15294330000E+03 0.  0.
<mgrwt>
<rscale>  0 0.59196691E+03</rscale>
<asrwt>0</asrwt>
<pdfrwt beam="1">  1        2 0.76388147E-01 0.72011007E+03</pdfrwt>
<pdfrwt beam="2">  1       -2 0.19079683E+00 0.72011007E+03</pdfrwt>
<totfact> 0.97071206E+00</totfact>
</mgrwt>
</event>
<event>
 4    2  0.6387803E-007  0.6700127E+03  0.7818608E-02  0.1015654E+00
         -2   -1    0    0    0  501 -0.00000000000E+00  0.00000000000E+00  0.86363320472E+02  0.86363320509E+02  0.25500000000E-02 0.  1.
          2   -1    0    0  501    0  0.00000000000E+00 -0.00000000000E+00 -0.25080055329E+04  0.25080055329E+04  0.25500000000E-02 0. -1.
    8880023    1    1    2    0    0  0.52295209770E+02  0.11122984053E+03 -0.13757412078E+04  0.15302225143E+04  0.65864270000E+03 0.  0.
    8880022    1    1    2    0    0 -0.52295209770E+02 -0.11122984053E+03 -0.10459010047E+04  0.10641463391E+04  0.15294330000E+03 0.  0.
<mgrwt>
<rscale>  0 0.49288182E+03</rscale>
<asrwt>0</asrwt>
<pdfrwt beam="1">  1        2 0.38584695E+00 0.67001274E+03</pdfrwt>
<pdfrwt beam="2">  1       -2 0.13286667E-01 0.67001274E+03</pdfrwt>
<totfact> 0.15501239E+02</totfact>
</mgrwt>
</event>
<event>
 4    2  0.6387803E-007  0.7824919E+03  0.7818608E-02  0.9750016E-01
         -2   -1    0    0    0  501 -0.00000000000E+00  0.00000000000E+00  0.71202352324E+03  0.71202352324E+03  0.25500000000E-02 0.  1.
          2   -1    0    0  501    0  0.00000000000E+00 -0.00000000000E+00 -0.81471319040E+03  0.81471319040E+03  0.25500000000E-02 0. -1.
    8880023    1    1    2    0    0  0.41981627465E+03  0.47304602288E+02  0.37778304709E+03  0.86891522417E+03  0.65864270000E+03 0.  1.
    8880022    1    1    2    0    0 -0.41981627465E+03 -0.47304602288E+02 -0.48047271425E+03  0.65782148947E+03  0.15294330000E+03 0.  0.
<mgrwt>
<rscale>  0 0.68115389E+03</rscale>
<asrwt>0</asrwt>
<pdfrwt beam="1">  1        2 0.12534049E+00 0.78249194E+03</pdfrwt>
<pdfrwt beam="2">  1       -2 0.10954208E+00 0.78249194E+03</pdfrwt>
<totfact> 0.22567630E+01</totfact>
</mgrwt>
</event>
<event>
 4    2  0.6387803E-007  0.6610525E+03  0.7818608E-02  0.1023103E+00
          2   -1    0    0  501    0  0.00000000000E+00  0.00000000000E+00  0.22615058299E+04  0.22615058299E+04  0.25500000000E-02 0. -1.
         -2   -1    0    0    0  501 -0.00000000000E+00 -0.00000000000E+00 -0.26889948020E+03  0.26889948021E+03  0.25500000000E-02 0.  1.
    8880023    1    1    2    0    0  0.18108062659E+02  0.53406615858E+02  0.14646804721E+03  0.67708438445E+03  0.65864270000E+03 0.  1.
    8880022    1    1    2    0    0 -0.18108062659E+02 -0.53406615858E+02  0.18461383025E+04  0.18533209257E+04  0.15294330000E+03 0.  0.
<mgrwt>
<rscale>  0 0.46583232E+03</rscale>
<asrwt>0</asrwt>
<pdfrwt beam="1">  1        2 0.34792396E+00 0.66105248E+03</pdfrwt>
<pdfrwt beam="2">  1       -2 0.41369152E-01 0.66105248E+03</pdfrwt>
<totfact> 0.27770804E+01</totfact>
</mgrwt>
</event>
<event>
 4    2  0.6387803E-007  0.7019906E+03  0.7818608E-02  0.9989041E-01
         -2   -1    0    0    0  501 -0.00000000000E+00  0.00000000000E+00  0.57118013032E+03  0.57118013032E+03  0.25500000000E-02 0.  1.
          2   -1    0    0  501    0  0.00000000000E+00 -0.00000000000E+00 -0.74302017502E+03  0.74302017503E+03  0.25500000000E-02 0. -1.
    8880023    1    1    2    0    0 -0.22618576674E+03  0.88434347745E+02  0.29881260997E+03  0.76294155548E+03  0.65864270000E+03 0.  0.
    8880022    1    1    2    0    0  0.22618576674E+03 -0.88434347745E+02 -0.47065265468E+03  0.55125874987E+03  0.15294330000E+03 0.  0.
<mgrwt>
<rscale>  0 0.56133371E+03</rscale>
<asrwt>0</asrwt>
<pdfrwt beam="1">  1        2 0.11431080E+00 0.70199063E+03</pdfrwt>
<pdfrwt beam="2">  1       -2 0.87873866E-01 0.70199063E+03</pdfrwt>
<totfact> 0.43122179E+01</totfact>
</mgrwt>
</event>
<event>
 4    2  0.6387803E-007  0.6838002E+03  0.7818608E-02  0.1007251E+00
         -2   -1    0    0    0  501 -0.00000000000E+00  0.00000000000E+00  0.15536074463E+04  0.15536074463E+04  0.25500000000E-02 0.  1.
          2   -1    0    0  501    0  0.00000000000E+00 -0.00000000000E+00 -0.66015753911E+03  0.66015753912E+03  0.25500000000E-02 0. -1.
    8880023    1    1    2    0    0 -0.15148876138E+03 -0.10403715864E+03  0.14526781914E+04  0.16055705246E+04  0.65864270000E+03 0.  1.
    8880022    1    1    2    0    0  0.15148876138E+03  0.10403715864E+03 -0.55922828429E+03  0.60819446082E+03  0.15294330000E+03 0.  0.
<mgrwt>
<rscale>  0 0.52582046E+03</rscale>
<asrwt>0</asrwt>
<pdfrwt beam="1">  1        2 0.10156270E+00 0.68380025E+03</pdfrwt>
<pdfrwt beam="2">  1       -2 0.23901653E+00 0.68380025E+03</pdfrwt>
<totfact> 0.34397545E+00</totfact>
</mgrwt>
</event>
<event>
 4    2  0.6387803E-007  0.6876996E+03  0.7818608E-02  0.1005266E+00
         -2   -1    0    0    0  501 -0.00000000000E+00  0.00000000000E+00  0.84365882895E+03  0.84365882895E+03  0.25500000000E-02 0.  1.
          2   -1    0    0  501    0  0.00000000000E+00 -0.00000000000E+00 -0.43682394500E+03  0.43682394501E+03  0.25500000000E-02 0. -1.
    8880023    1    1    2    0    0 -0.16327413109E+03  0.11163366486E+03  0.63939621358E+03  0.93901983004E+03  0.65864270000E+03 0.  1.
    8880022    1    1    2    0    0  0.16327413109E+03 -0.11163366486E+03 -0.23256132963E+03  0.34146294392E+03  0.15294330000E+03 0.  0.
<mgrwt>
<rscale>  0 0.53400417E+03</rscale>
<asrwt>0</asrwt>
<pdfrwt beam="1">  1        2 0.67203685E-01 0.68769959E+03</pdfrwt>
<pdfrwt beam="2">  1       -2 0.12979366E+00 0.68769959E+03</pdfrwt>
<totfact> 0.31905702E+01</totfact>
</mgrwt>
</event>
<event>
 4    2  0.6387803E-007  0.8078903E+03  0.7818608E-02  0.9693988E-01
          2   -1    0    0  501    0  0.00000000000E+00  0.00000000000E+00  0.19478947987E+04  0.19478947987E+04  0.25500000000E-02 0. -1.
         -2   -1    0    0    0  501 -0.00000000000E+00 -0.00000000000E+00 -0.65724259520E+03  0.65724259521E+03  0.25500000000E-02 0.  1.
    8880023    1    1    2    0    0 -0.31458145328E+03 -0.34628759432E+03 -0.35867541256E+03  0.88393147165E+03  0.65864270000E+03 0.  1.
    8880022    1    1    2    0    0  0.31458145328E+03  0.34628759432E+03  0.16493276161E+04  0.17212059223E+04  0.15294330000E+03 0.  0.
<mgrwt>
<rscale>  0 0.71375863E+03</rscale>
<asrwt>0</asrwt>
<pdfrwt beam="1">  1        2 0.29967611E+00 0.80789034E+03</pdfrwt>
<pdfrwt beam="2">  1       -2 0.10111425E+00 0.80789034E+03</pdfrwt>
<totfact> 0.58924830E+00</totfact>
</mgrwt>
</event>
<event>
 4    2  0.6387803E-007  0.8089238E+03  0.7818608E-02  0.9691823E-01
         -2   -1    0    0    0  501 -0.00000000000E+00  0.00000000000E+00  0.28662059833E+03  0.28662059834E+03  0.25500000000E-02 0.  1.
          2   -1    0    0  501    0  0.00000000000E+00 -0.00000000000E+00 -0.20939343729E+04  0.20939343729E+04  0.25500000000E-02 0. -1.
    8880023    1    1    2    0    0  0.17320257535E+03 -0.43651841325E+03 -0.16889404093E+04  0.18726658457E+04  0.65864270000E+03 0. -1.
    8880022    1    1    2    0    0 -0.17320257535E+03  0.43651841325E+03 -0.11837336525E+03  0.50788912553E+03  0.15294330000E+03 0.  0.
<mgrwt>
<rscale>  0 0.71505735E+03</rscale>
<asrwt>0</asrwt>
<pdfrwt beam="1">  1        2 0.32214374E+00 0.80892377E+03</pdfrwt>
<pdfrwt beam="2">  1       -2 0.44095478E-01 0.80892377E+03</pdfrwt>
<totfact> 0.29654082E+01</totfact>
</mgrwt>
</event>
<event>
 4    2  0.6387803E-007  0.8596357E+03  0.7818608E-02  0.9594212E-01
         -2   -1    0    0    0  501 -0.00000000000E+00  0.00000000000E+00  0.23052888482E+03  0.23052888483E+03  0.25500000000E-02 0.  1.
          2   -1    0    0  501    0  0.00000000000E+00 -0.00000000000E+00 -0.29782062464E+04  0.29782062464E+04  0.25500000000E-02 0. -1.
    8880023    1    1    2    0    0  0.28896352327E+02  0.55165955912E+03 -0.78521144825E+03  0.11642725167E+04  0.65864270000E+03 0.  0.
    8880022    1    1    2    0    0 -0.28896352327E+02 -0.55165955912E+03 -0.19624659133E+04  0.20444626146E+04  0.15294330000E+03 0.  0.
<mgrwt>
<rscale>  0 0.77680465E+03</rscale>
<asrwt>0</asrwt>
<pdfrwt beam="1">  1        2 0.45818555E+00 0.85963566E+03</pdfrwt>
<pdfrwt beam="2">  1       -2 0.35465984E-01 0.85963566E+03</pdfrwt>
<totfact> 0.13984007E+01</totfact>
</mgrwt>
</event>
<event>
 4    2  0.6387803E-007  0.1069359E+04  0.7818608E-02  0.9295963E-01
          2   -1    0    0  501    0  0.00000000000E+00  0.00000000000E+00  0.13034024147E+04  0.13034024147E+04  0.25500000000E-02 0. -1.
         -2   -1    0    0    0  501 -0.00000000000E+00 -0.00000000000E+00 -0.91458242055E+03  0.91458242056E+03  0.25500000000E-02 0.  1.
    8880023    1    1    2    0    0  0.30598178925E+03  0.78491656760E+03 -0.30934278509E+03  0.11132035027E+04  0.65864270000E+03 0.  0.
    8880022    1    1    2    0    0 -0.30598178925E+03 -0.78491656760E+03  0.69816277920E+03  0.11047813325E+04  0.15294330000E+03 0.  0.
<mgrwt>
<rscale>  0 0.10115536E+04</rscale>
<asrwt>0</asrwt>
<pdfrwt beam="1">  1        2 0.20052345E+00 0.10693592E+04</pdfrwt>
<pdfrwt beam="2">  1       -2 0.14070499E+00 0.10693592E+04</pdfrwt>
<totfact> 0.57461866E+00</totfact>
</mgrwt>
</event>
<event>
 4    2  0.6387803E-007  0.7078165E+03  0.7818608E-02  0.9966200E-01
         -2   -1    0    0    0  501 -0.00000000000E+00  0.00000000000E+00  0.28287347585E+03  0.28287347587E+03  0.25500000000E-02 0.  1.
          2   -1    0    0  501    0  0.00000000000E+00 -0.00000000000E+00 -0.20807794989E+04  0.20807794989E+04  0.25500000000E-02 0. -1.
    8880023    1    1    2    0    0  0.25896752879E+03 -0.11392791517E+02 -0.19702681595E+03  0.73472698952E+03  0.65864270000E+03 0.  1.
    8880022    1    1    2    0    0 -0.25896752879E+03  0.11392791517E+02 -0.16008792071E+04  0.16289259852E+04  0.15294330000E+03 0.  0.
<mgrwt>
<rscale>  0 0.57157460E+03</rscale>
<asrwt>0</asrwt>
<pdfrwt beam="1">  1        2 0.32011991E+00 0.70781649E+03</pdfrwt>
<pdfrwt beam="2">  1       -2 0.43518998E-01 0.70781649E+03</pdfrwt>
<totfact> 0.31359986E+01</totfact>
</mgrwt>
</event>
<event>
 4    2  0.6387803E-007  0.7808833E+03  0.7818608E-02  0.9753766E-01
         -2   -1    0    0    0  501 -0.00000000000E+00  0.00000000000E+00  0.12425661094E+04  0.12425661094E+04  0.25500000000E-02 0.  1.
          2   -1    0    0  501    0  0.00000000000E+00 -0.00000000000E+00 -0.51940698812E+03  0.51940698813E+03  0.25500000000E-02 0. -1.
    8880023    1    1    2    0    0  0.39322798255E+03 -0.14608302703E+03  0.97514725600E+03  0.12492761401E+04  0.65864270000E+03 0.  0.
    8880022    1    1    2    0    0 -0.39322798255E+03  0.14608302703E+03 -0.25198813477E+03  0.51269695740E+03  0.15294330000E+03 0.  0.
<mgrwt>
<rscale>  0 0.67903848E+03</rscale>
<asrwt>0</asrwt>
<pdfrwt beam="1">  1        2 0.79908768E-01 0.78088328E+03</pdfrwt>
<pdfrwt beam="2">  1       -2 0.19116402E+00 0.78088328E+03</pdfrwt>
<totfact> 0.90999795E+00</totfact>
</mgrwt>
</event>
<event>
 4    2  0.6387803E-007  0.6610368E+03  0.7818608E-02  0.1023119E+00
          2   -1    0    0  501    0  0.00000000000E+00  0.00000000000E+00  0.72173682896E+03  0.72173682897E+03  0.25500000000E-02 0. -1.
         -2   -1    0    0    0  501 -0.00000000000E+00 -0.00000000000E+00 -0.25491574794E+04  0.25491574794E+04  0.25500000000E-02 0.  1.
    8880023    1    1    2    0    0 -0.27171425283E+02  0.49204626223E+02 -0.24963582654E+04  0.25823969828E+04  0.65864270000E+03 0.  1.
    8880022    1    1    2    0    0  0.27171425283E+02 -0.49204626223E+02  0.66893761493E+03  0.68849732554E+03  0.15294330000E+03 0.  0.
<mgrwt>
<rscale>  0 0.46577844E+03</rscale>
<asrwt>0</asrwt>
<pdfrwt beam="1">  1        2 0.11103644E+00 0.66103675E+03</pdfrwt>
<pdfrwt beam="2">  1       -2 0.39217807E+00 0.66103675E+03</pdfrwt>
<totfact> 0.35730211E-01</totfact>
</mgrwt>
</event>
<event>
 4    2  0.6387803E-007  0.7049331E+03  0.7818608E-02  0.9977321E-01
         -2   -1    0    0    0  501 -0.00000000000E+00  0.00000000000E+00  0.15764965958E+03  0.15764965960E+03  0.25500000000E-02 0.  1.
          2   -1    0    0  501    0  0.00000000000E+00 -0.00000000000E+00 -0.16535452180E+04  0.16535452180E+04  0.25500000000E-02 0. -1.
    8880023    1    1    2    0    0 -0.23224863743E+03 -0.95817535090E+02 -0.12138041904E+04  0.14036563855E+04  0.65864270000E+03 0. -1.
    8880022    1    1    2    0    0  0.23224863743E+03  0.95817535090E+02 -0.28209136799E+03  0.40753849208E+03  0.15294330000E+03 0.  1.
<mgrwt>
<rscale>  0 0.56655948E+03</rscale>
<asrwt>0</asrwt>
<pdfrwt beam="1">  1        2 0.25439156E+00 0.70493307E+03</pdfrwt>
<pdfrwt beam="2">  1       -2 0.24253795E-01 0.70493307E+03</pdfrwt>
<totfact> 0.16107524E+02</totfact>
</mgrwt>
</event>
<event>
 4    2  0.6387803E-007  0.6886112E+03  0.7818608E-02  0.1004820E+00
         -2   -1    0    0    0  501 -0.00000000000E+00  0.00000000000E+00  0.27302865414E+03  0.27302865415E+03  0.25500000000E-02 0.  1.
          2   -1    0    0  501    0  0.00000000000E+00 -0.00000000000E+00 -0.11289880651E+04  0.11289880651E+04  0.25500000000E-02 0. -1.
    8880023    1    1    2    0    0  0.15836850068E+03 -0.12367143034E+03 -0.22830884744E+03  0.72547249484E+03  0.65864270000E+03 0.  1.
    8880022    1    1    2    0    0 -0.15836850068E+03  0.12367143034E+03 -0.62765056351E+03  0.67654422441E+03  0.15294330000E+03 0.  0.
<mgrwt>
<rscale>  0 0.53586445E+03</rscale>
<asrwt>0</asrwt>
<pdfrwt beam="1">  1        2 0.17369047E+00 0.68861122E+03</pdfrwt>
<pdfrwt beam="2">  1       -2 0.42004409E-01 0.68861122E+03</pdfrwt>
<totfact> 0.11442734E+02</totfact>
</mgrwt>
</event>
<event>
 4    2  0.6387803E-007  0.7098624E+03  0.7818608E-02  0.9958512E-01
         -2   -1    0    0    0  501 -0.00000000000E+00  0.00000000000E+00  0.40160755670E+03  0.40160755671E+03  0.25500000000E-02 0.  1.
          2   -1    0    0  501    0  0.00000000000E+00 -0.00000000000E+00 -0.13736356277E+04  0.13736356277E+04  0.25500000000E-02 0. -1.
    8880023    1    1    2    0    0  0.20117282888E+03  0.17211592318E+03  0.46918611974E+02  0.71141124570E+03  0.65864270000E+03 0.  1.
    8880022    1    1    2    0    0 -0.20117282888E+03 -0.17211592318E+03 -0.10189466830E+04  0.10638319387E+04  0.15294330000E+03 0.  0.
<mgrwt>
<rscale>  0 0.57507432E+03</rscale>
<asrwt>0</asrwt>
<pdfrwt beam="1">  1        2 0.21132856E+00 0.70986238E+03</pdfrwt>
<pdfrwt beam="2">  1       -2 0.61785778E-01 0.70986238E+03</pdfrwt>
<totfact> 0.37385127E+01</totfact>
</mgrwt>
</event>
<event>
 4    2  0.6387803E-007  0.6847793E+03  0.7818608E-02  0.1006740E+00
          2   -1    0    0  501    0  0.00000000000E+00  0.00000000000E+00  0.58728847750E+03  0.58728847751E+03  0.25500000000E-02 0. -1.
         -2   -1    0    0    0  501 -0.00000000000E+00 -0.00000000000E+00 -0.62391958238E+03  0.62391958238E+03  0.25500000000E-02 0.  1.
    8880023    1    1    2    0    0  0.18617381088E+03 -0.21254219238E+02 -0.38615482559E+03  0.78615404679E+03  0.65864270000E+03 0.  1.
    8880022    1    1    2    0    0 -0.18617381088E+03  0.21254219238E+02  0.34952372072E+03  0.42505401310E+03  0.15294330000E+03 0.  0.
<mgrwt>
<rscale>  0 0.52791162E+03</rscale>
<asrwt>0</asrwt>
<pdfrwt beam="1">  1        2 0.90352074E-01 0.68477926E+03</pdfrwt>
<pdfrwt beam="2">  1       -2 0.95987627E-01 0.68477926E+03</pdfrwt>
<totfact> 0.47098702E+01</totfact>
</mgrwt>
</event>
<event>
 4    2  0.6387803E-007  0.1229744E+04  0.7818608E-02  0.9128737E-01
         -2   -1    0    0    0  501 -0.00000000000E+00  0.00000000000E+00  0.47743665720E+03  0.47743665721E+03  0.25500000000E-02 0.  1.
          2   -1    0    0  501    0  0.00000000000E+00 -0.00000000000E+00 -0.29290066248E+04  0.29290066248E+04  0.25500000000E-02 0. -1.
    8880023    1    1    2    0    0  0.75556447513E+03  0.71244857509E+03 -0.86281387137E+03  0.15022378743E+04  0.65864270000E+03 0.  0.
    8880022    1    1    2    0    0 -0.75556447513E+03 -0.71244857509E+03 -0.15887560962E+04  0.19042054076E+04  0.15294330000E+03 0.  0.
<mgrwt>
<rscale>  0 0.11820246E+04</rscale>
<asrwt>0</asrwt>
<pdfrwt beam="1">  1        2 0.45061639E+00 0.12297442E+04</pdfrwt>
<pdfrwt beam="2">  1       -2 0.73451795E-01 0.12297442E+04</pdfrwt>
<totfact> 0.31910486E+00</totfact>
</mgrwt>
</event>
<event>
 4    2  0.6387803E-007  0.6992455E+03  0.7818608E-02  0.1000035E+00
         -2   -1    0    0    0  501 -0.00000000000E+00  0.00000000000E+00  0.90375603103E+03  0.90375603103E+03  0.25500000000E-02 0.  1.
          2   -1    0    0  501    0  0.00000000000E+00 -0.00000000000E+00 -0.70063571035E+03  0.70063571036E+03  0.25500000000E-02 0. -1.
    8880023    1    1    2    0    0  0.18276542412E+03  0.14741378907E+03  0.72798286859E+03  0.10094073948E+04  0.65864270000E+03 0.  1.
    8880022    1    1    2    0    0 -0.18276542412E+03 -0.14741378907E+03 -0.52486254792E+03  0.59498434659E+03  0.15294330000E+03 0.  0.
<mgrwt>
<rscale>  0 0.55635079E+03</rscale>
<asrwt>0</asrwt>
<pdfrwt beam="1">  1        2 0.10779011E+00 0.69924547E+03</pdfrwt>
<pdfrwt beam="2">  1       -2 0.13903939E+00 0.69924547E+03</pdfrwt>
<totfact> 0.15262097E+01</totfact>
</mgrwt>
</event>
<event>
 4    2  0.6387803E-007  0.8967560E+03  0.7818608E-02  0.9531260E-01
          2   -1    0    0  501    0  0.00000000000E+00  0.00000000000E+00  0.37233572317E+04  0.37233572317E+04  0.25500000000E-02 0. -1.
         -2   -1    0    0    0  501 -0.00000000000E+00 -0.00000000000E+00 -0.27926484670E+03  0.27926484671E+03  0.25500000000E-02 0.  1.
    8880023    1    1    2    0    0 -0.60716849527E+03 -0.41321305947E+02  0.57398661773E+03  0.10647215014E+04  0.65864270000E+03 0.  1.
    8880022    1    1    2    0    0  0.60716849527E+03  0.41321305947E+02  0.28701057673E+04  0.29379005770E+04  0.15294330000E+03 0.  0.
<mgrwt>
<rscale>  0 0.82017899E+03</rscale>
<asrwt>0</asrwt>
<pdfrwt beam="1">  1        2 0.57282419E+00 0.89675595E+03</pdfrwt>
<pdfrwt beam="2">  1       -2 0.42963823E-01 0.89675595E+03</pdfrwt>
<totfact> 0.30630521E+00</totfact>
</mgrwt>
</event>
<event>
 4    2  0.6387803E-007  0.7319766E+03  0.7818608E-02  0.9883967E-01
         -2   -1    0    0    0  501 -0.00000000000E+00  0.00000000000E+00  0.35666045524E+03  0.35666045525E+03  0.25500000000E-02 0.  1.
          2   -1    0    0  501    0  0.00000000000E+00 -0.00000000000E+00 -0.12036995878E+04  0.12036995878E+04  0.25500000000E-02 0. -1.
    8880023    1    1    2    0    0  0.15054106686E+03  0.28163267011E+03 -0.10670881480E+03  0.73971383055E+03  0.65864270000E+03 0.  1.
    8880022    1    1    2    0    0 -0.15054106686E+03 -0.28163267011E+03 -0.74033031771E+03  0.82064621246E+03  0.15294330000E+03 0.  0.
<mgrwt>
<rscale>  0 0.61044655E+03</rscale>
<asrwt>0</asrwt>
<pdfrwt beam="1">  1        2 0.18518455E+00 0.73197663E+03</pdfrwt>
<pdfrwt beam="2">  1       -2 0.54870840E-01 0.73197663E+03</pdfrwt>
<totfact> 0.59988417E+01</totfact>
</mgrwt>
</event>
<event>
 4    2  0.6387803E-007  0.1249162E+04  0.7818608E-02  0.9110754E-01
         -2   -1    0    0    0  501 -0.00000000000E+00  0.00000000000E+00  0.78623669374E+03  0.78623669375E+03  0.25500000000E-02 0.  1.
          2   -1    0    0  501    0  0.00000000000E+00 -0.00000000000E+00 -0.26483626584E+04  0.26483626584E+04  0.25500000000E-02 0. -1.
    8880023    1    1    2    0    0 -0.65053813375E+02 -0.10594169539E+04  0.41333874377E+02  0.12498459810E+04  0.65864270000E+03 0.  0.
    8880022    1    1    2    0    0  0.65053813375E+02  0.10594169539E+04 -0.19034598390E+04  0.21847533711E+04  0.15294330000E+03 0.  0.
<mgrwt>
<rscale>  0 0.12024051E+04</rscale>
<asrwt>0</asrwt>
<pdfrwt beam="1">  1        2 0.40744040E+00 0.12491623E+04</pdfrwt>
<pdfrwt beam="2">  1       -2 0.12095949E+00 0.12491623E+04</pdfrwt>
<totfact> 0.14486919E+00</totfact>
</mgrwt>
</event>
<event>
 4    2  0.6387803E-007  0.8631514E+03  0.7818608E-02  0.9587982E-01
         -2   -1    0    0    0  501 -0.00000000000E+00  0.00000000000E+00  0.53786009051E+03  0.53786009051E+03  0.25500000000E-02 0.  1.
          2   -1    0    0  501    0  0.00000000000E+00 -0.00000000000E+00 -0.10956171279E+04  0.10956171279E+04  0.25500000000E-02 0. -1.
    8880023    1    1    2    0    0 -0.54041087504E+03 -0.13847794544E+03 -0.51357275488E+02  0.86467787716E+03  0.65864270000E+03 0.  0.
    8880022    1    1    2    0    0  0.54041087504E+03  0.13847794544E+03 -0.50639976189E+03  0.76879934125E+03  0.15294330000E+03 0.  0.
<mgrwt>
<rscale>  0 0.78096732E+03</rscale>
<asrwt>0</asrwt>
<pdfrwt beam="1">  1        2 0.16855648E+00 0.86315135E+03</pdfrwt>
<pdfrwt beam="2">  1       -2 0.82747706E-01 0.86315135E+03</pdfrwt>
<totfact> 0.28261118E+01</totfact>
</mgrwt>
</event>
<event>
 4    2  0.6387803E-007  0.7523528E+03  0.7818608E-02  0.9825323E-01
         -2   -1    0    0    0  501 -0.00000000000E+00  0.00000000000E+00  0.21347108386E+03  0.21347108387E+03  0.25500000000E-02 0.  1.
          2   -1    0    0  501    0  0.00000000000E+00 -0.00000000000E+00 -0.21006039823E+04  0.21006039823E+04  0.25500000000E-02 0. -1.
    8880023    1    1    2    0    0  0.36162530845E+03  0.38101212146E+02 -0.58362468056E+03  0.95218303918E+03  0.65864270000E+03 0.  0.
    8880022    1    1    2    0    0 -0.36162530845E+03 -0.38101212146E+02 -0.13035082179E+04  0.13618920270E+04  0.15294330000E+03 0.  0.
<mgrwt>
<rscale>  0 0.64021084E+03</rscale>
<asrwt>0</asrwt>
<pdfrwt beam="1">  1        2 0.32316983E+00 0.75235282E+03</pdfrwt>
<pdfrwt beam="2">  1       -2 0.32841707E-01 0.75235282E+03</pdfrwt>
<totfact> 0.52360050E+01</totfact>
</mgrwt>
</event>
<event>
 4    2  0.6387803E-007  0.9040795E+03  0.7818608E-02  0.9519514E-01
          2   -1    0    0  501    0  0.00000000000E+00  0.00000000000E+00  0.14988501485E+04  0.14988501485E+04  0.25500000000E-02 0. -1.
         -2   -1    0    0    0  501 -0.00000000000E+00 -0.00000000000E+00 -0.69475145450E+03  0.69475145451E+03  0.25500000000E-02 0.  1.
    8880023    1    1    2    0    0 -0.42201454755E+03 -0.45326947319E+03 -0.27071043554E+03  0.94373928595E+03  0.65864270000E+03 0.  0.
    8880022    1    1    2    0    0  0.42201454755E+03  0.45326947319E+03  0.10748091295E+04  0.12498623171E+04  0.15294330000E+03 0.  0.
<mgrwt>
<rscale>  0 0.82860282E+03</rscale>
<asrwt>0</asrwt>
<pdfrwt beam="1">  1        2 0.23059233E+00 0.90407948E+03</pdfrwt>
<pdfrwt beam="2">  1       -2 0.10688484E+00 0.90407948E+03</pdfrwt>
<totfact> 0.90003242E+00</totfact>
</mgrwt>
</event>
<event>
 4    2  0.6387803E-007  0.6969420E+03  0.7818608E-02  0.1001013E+00
         -2   -1    0    0    0  501 -0.00000000000E+00  0.00000000000E+00  0.33516164643E+03  0.33516164644E+03  0.25500000000E-02 0.  1.
          2   -1    0    0  501    0  0.00000000000E+00 -0.00000000000E+00 -0.14022760819E+04  0.14022760819E+04  0.25500000000E-02 0. -1.
    8880023    1    1    2    0    0  0.21078219075E+03 -0.86537963728E+02 -0.66768751928E+02  0.70013300422E+03  0.65864270000E+03 0.  1.
    8880022    1    1    2    0    0 -0.21078219075E+03  0.86537963728E+02 -0.10003456835E+04  0.10373047241E+04  0.15294330000E+03 0.  0.
<mgrwt>
<rscale>  0 0.55208224E+03</rscale>
<asrwt>0</asrwt>
<pdfrwt beam="1">  1        2 0.21573478E+00 0.69694200E+03</pdfrwt>
<pdfrwt beam="2">  1       -2 0.51563331E-01 0.69694200E+03</pdfrwt>
<totfact> 0.52581652E+01</totfact>
</mgrwt>
</event>
<event>
 4    2  0.6387803E-007  0.6968579E+03  0.7818608E-02  0.1001049E+00
          2   -1    0    0  501    0  0.00000000000E+00  0.00000000000E+00  0.35935834649E+03  0.35935834650E+03  0.25500000000E-02 0. -1.
         -2   -1    0    0    0  501 -0.00000000000E+00 -0.00000000000E+00 -0.10100131431E+04  0.10100131431E+04  0.25500000000E-02 0.  1.
    8880023    1    1    2    0    0  0.56647601912E+02 -0.22043558060E+03 -0.79688814511E+03  0.10586036643E+04  0.65864270000E+03 0.  1.
    8880022    1    1    2    0    0 -0.56647601912E+02  0.22043558060E+03  0.14623334851E+03  0.31076782528E+03  0.15294330000E+03 0.  0.
<mgrwt>
<rscale>  0 0.55192488E+03</rscale>
<asrwt>0</asrwt>
<pdfrwt beam="1">  1        2 0.55285900E-01 0.69685795E+03</pdfrwt>
<pdfrwt beam="2">  1       -2 0.15538664E+00 0.69685795E+03</pdfrwt>
<totfact> 0.24884521E+01</totfact>
</mgrwt>
</event>
<event>
 4    2  0.6387803E-007  0.7005947E+03  0.7818608E-02  0.9994743E-01
         -2   -1    0    0    0  501 -0.00000000000E+00  0.00000000000E+00  0.90538732706E+03  0.90538732706E+03  0.25500000000E-02 0.  1.
          2   -1    0    0  501    0  0.00000000000E+00 -0.00000000000E+00 -0.87833846744E+03  0.87833846744E+03  0.25500000000E-02 0. -1.
    8880023    1    1    2    0    0 -0.13665400508E+03 -0.19582752396E+03  0.73843714455E+03  0.10179009573E+04  0.65864270000E+03 0.  1.
    8880022    1    1    2    0    0  0.13665400508E+03  0.19582752396E+03 -0.71138828493E+03  0.76582483715E+03  0.15294330000E+03 0.  0.
<mgrwt>
<rscale>  0 0.55881346E+03</rscale>
<asrwt>0</asrwt>
<pdfrwt beam="1">  1        2 0.13512900E+00 0.70059471E+03</pdfrwt>
<pdfrwt beam="2">  1       -2 0.13929036E+00 0.70059471E+03</pdfrwt>
<totfact> 0.11285428E+01</totfact>
</mgrwt>
</event>
<event>
 4    2  0.6429584E-007  0.6718775E+03  0.7818608E-02  0.1014351E+00
          2   -1    0    0  501    0  0.00000000000E+00  0.00000000000E+00  0.26099218775E+04  0.26099218775E+04  0.25500000000E-02 0. -1.
         -2   -1    0    0    0  501 -0.00000000000E+00 -0.00000000000E+00 -0.12648792624E+04  0.12648792624E+04  0.25500000000E-02 0.  1.
    8880023    1    1    2    0    0 -0.34477799017E+02  0.12814239985E+03 -0.11713027535E+04  0.13503220134E+04  0.65864270000E+03 0.  0.
    8880022    1    1    2    0    0  0.34477799017E+02 -0.12814239985E+03  0.25163453686E+04  0.25244791265E+04  0.15294330000E+03 0.  0.
<mgrwt>
<rscale>  0 0.49781352E+03</rscale>
<asrwt>0</asrwt>
<pdfrwt beam="1">  1        2 0.40152644E+00 0.67187752E+03</pdfrwt>
<pdfrwt beam="2">  1       -2 0.19459681E+00 0.67187752E+03</pdfrwt>
<totfact> 0.46922544E-01</totfact>
</mgrwt>
</event>
<event>
 4    2  0.6387803E-007  0.1185506E+04  0.7818608E-02  0.9171342E-01
         -2   -1    0    0    0  501 -0.00000000000E+00  0.00000000000E+00  0.62919696437E+03  0.62919696438E+03  0.25500000000E-02 0.  1.
          2   -1    0    0  501    0  0.00000000000E+00 -0.00000000000E+00 -0.26962567995E+04  0.26962567995E+04  0.25500000000E-02 0. -1.
    8880023    1    1    2    0    0 -0.84245522441E+03 -0.51174516918E+03 -0.20009395463E+04  0.23257650779E+04  0.65864270000E+03 0.  0.
    8880022    1    1    2    0    0  0.84245522441E+03  0.51174516918E+03 -0.66120288830E+02  0.99968868600E+03  0.15294330000E+03 0.  0.
<mgrwt>
<rscale>  0 0.11354185E+04</rscale>
<asrwt>0</asrwt>
<pdfrwt beam="1">  1        2 0.41480873E+00 0.11855059E+04</pdfrwt>
<pdfrwt beam="2">  1       -2 0.96799535E-01 0.11855059E+04</pdfrwt>
<totfact> 0.23522440E+00</totfact>
</mgrwt>
</event>
<event>
 4    2  0.6387803E-007  0.8012483E+03  0.7818608E-02  0.9708103E-01
         -2   -1    0    0    0  501 -0.00000000000E+00  0.00000000000E+00  0.17358742219E+03  0.17358742221E+03  0.25500000000E-02 0.  1.
          2   -1    0    0  501    0  0.00000000000E+00 -0.00000000000E+00 -0.29006822544E+04  0.29006822544E+04  0.25500000000E-02 0. -1.
    8880023    1    1    2    0    0  0.44305013399E+03 -0.10906521297E+03 -0.22826939802E+04  0.24192334851E+04  0.65864270000E+03 0. -1.
    8880022    1    1    2    0    0 -0.44305013399E+03  0.10906521297E+03 -0.44440085200E+03  0.65503619150E+03  0.15294330000E+03 0.  0.
<mgrwt>
<rscale>  0 0.70536360E+03</rscale>
<asrwt>0</asrwt>
<pdfrwt beam="1">  1        2 0.44625877E+00 0.80124831E+03</pdfrwt>
<pdfrwt beam="2">  1       -2 0.26705759E-01 0.80124831E+03</pdfrwt>
<totfact> 0.26701882E+01</totfact>
</mgrwt>
</event>
<event>
 4    2  0.6387803E-007  0.8243143E+03  0.7818608E-02  0.9660498E-01
          2   -1    0    0  501    0  0.00000000000E+00  0.00000000000E+00  0.15592763390E+04  0.15592763390E+04  0.25500000000E-02 0. -1.
         -2   -1    0    0    0  501 -0.00000000000E+00 -0.00000000000E+00 -0.60274379053E+03  0.60274379053E+03  0.25500000000E-02 0.  1.
    8880023    1    1    2    0    0  0.13219927712E+03 -0.47771046150E+03 -0.23945197186E+03  0.85838883205E+03  0.65864270000E+03 0.  1.
    8880022    1    1    2    0    0 -0.13219927712E+03  0.47771046150E+03  0.11959845204E+04  0.13036312975E+04  0.15294330000E+03 0.  0.
<mgrwt>
<rscale>  0 0.73418233E+03</rscale>
<asrwt>0</asrwt>
<pdfrwt beam="1">  1        2 0.23988866E+00 0.82431435E+03</pdfrwt>
<pdfrwt beam="2">  1       -2 0.92729817E-01 0.82431435E+03</pdfrwt>
<totfact> 0.11775410E+01</totfact>
</mgrwt>
</event>
<event>
 4    2  0.6387803E-007  0.1112699E+04  0.7818608E-02  0.9247047E-01
         -2   -1    0    0    0  501 -0.00000000000E+00  0.00000000000E+00  0.34173344177E+03  0.34173344178E+03  0.25500000000E-02 0.  1.
          2   -1    0    0  501    0  0.00000000000E+00 -0.00000000000E+00 -0.35425784481E+04  0.35425784481E+04  0.25500000000E-02 0. -1.
    8880023    1    1    2    0    0 -0.66929489278E+03 -0.59693695600E+03 -0.24981977001E+04  0.27347927413E+04  0.65864270000E+03 0.  0.
    8880022    1    1    2    0    0  0.66929489278E+03  0.59693695600E+03 -0.70264730621E+03  0.11495191485E+04  0.15294330000E+03 0.  0.
<mgrwt>
<rscale>  0 0.10580744E+04</rscale>
<asrwt>0</asrwt>
<pdfrwt beam="1">  1        2 0.54501204E+00 0.11126992E+04</pdfrwt>
<pdfrwt beam="2">  1       -2 0.52574378E-01 0.11126992E+04</pdfrwt>
<totfact> 0.26438640E+00</totfact>
</mgrwt>
</event>
<event>
 4    2  0.6387803E-007  0.7076389E+03  0.7818608E-02  0.9966875E-01
         -2   -1    0    0    0  501 -0.00000000000E+00  0.00000000000E+00  0.18131605144E+03  0.18131605146E+03  0.25500000000E-02 0.  1.
          2   -1    0    0  501    0  0.00000000000E+00 -0.00000000000E+00 -0.22207036841E+04  0.22207036841E+04  0.25500000000E-02 0. -1.
    8880023    1    1    2    0    0 -0.11952466339E+03  0.22947003383E+03 -0.19704432078E+04  0.20936569163E+04  0.65864270000E+03 0. -1.
    8880022    1    1    2    0    0  0.11952466339E+03 -0.22947003383E+03 -0.68944424850E+02  0.30836281929E+03  0.15294330000E+03 0.  0.
<mgrwt>
<rscale>  0 0.57126862E+03</rscale>
<asrwt>0</asrwt>
<pdfrwt beam="1">  1        2 0.34164670E+00 0.70763892E+03</pdfrwt>
<pdfrwt beam="2">  1       -2 0.27894779E-01 0.70763892E+03</pdfrwt>
<totfact> 0.61262343E+01</totfact>
</mgrwt>
</event>
<event>
 4    2  0.6387803E-007  0.1042979E+04  0.7818608E-02  0.9327369E-01
         -2   -1    0    0    0  501 -0.00000000000E+00  0.00000000000E+00  0.85444778638E+03  0.85444778638E+03  0.25500000000E-02 0.  1.
          2   -1    0    0  501    0  0.00000000000E+00 -0.00000000000E+00 -0.10822008327E+04  0.10822008327E+04  0.25500000000E-02 0. -1.
    8880023    1    1    2    0    0  0.64764439242E+03  0.48430573909E+03 -0.35937074944E+03  0.11031558592E+04  0.65864270000E+03 0. -1.
    8880022    1    1    2    0    0 -0.64764439242E+03 -0.48430573909E+03  0.13161770312E+03  0.83349275986E+03  0.15294330000E+03 0.  1.
<mgrwt>
<rscale>  0 0.98301767E+03</rscale>
<asrwt>0</asrwt>
<pdfrwt beam="1">  1        2 0.16649244E+00 0.10429792E+04</pdfrwt>
<pdfrwt beam="2">  1       -2 0.13145351E+00 0.10429792E+04</pdfrwt>
<totfact> 0.93227947E+00</totfact>
</mgrwt>
</event>
<event>
 4    2  0.6387803E-007  0.8523616E+03  0.7818608E-02  0.9607298E-01
         -2   -1    0    0    0  501 -0.00000000000E+00  0.00000000000E+00  0.94007037779E+03  0.94007037780E+03  0.25500000000E-02 0.  1.
          2   -1    0    0  501    0  0.00000000000E+00 -0.00000000000E+00 -0.64672891506E+03  0.64672891506E+03  0.25500000000E-02 0. -1.
    8880023    1    1    2    0    0 -0.24116491343E+03 -0.48430310413E+03  0.49953188929E+03  0.98795360560E+03  0.65864270000E+03 0.  1.
    8880022    1    1    2    0    0  0.24116491343E+03  0.48430310413E+03 -0.20619042655E+03  0.59884568726E+03  0.15294330000E+03 0.  0.
<mgrwt>
<rscale>  0 0.76815036E+03</rscale>
<asrwt>0</asrwt>
<pdfrwt beam="1">  1        2 0.99496756E-01 0.85236155E+03</pdfrwt>
<pdfrwt beam="2">  1       -2 0.14462621E+00 0.85236155E+03</pdfrwt>
<totfact> 0.14999783E+01</totfact>
</mgrwt>
</event>
<event>
 4    2  0.6387803E-007  0.7540584E+03  0.7818608E-02  0.9820740E-01
         -2   -1    0    0    0  501 -0.00000000000E+00  0.00000000000E+00  0.14744205737E+04  0.14744205737E+04  0.25500000000E-02 0.  1.
          2   -1    0    0  501    0  0.00000000000E+00 -0.00000000000E+00 -0.24691532339E+03  0.24691532340E+03  0.25500000000E-02 0. -1.
    8880023    1    1    2    0    0 -0.34772708787E+03 -0.11781232643E+03  0.10320602180E+04  0.12781832309E+04  0.65864270000E+03 0.  0.
    8880022    1    1    2    0    0  0.34772708787E+03  0.11781232643E+03  0.19544503231E+03  0.44315266620E+03  0.15294330000E+03 0.  0.
<mgrwt>
<rscale>  0 0.64261311E+03</rscale>
<asrwt>0</asrwt>
<pdfrwt beam="1">  1        2 0.37986973E-01 0.75405841E+03</pdfrwt>
<pdfrwt beam="2">  1       -2 0.22683393E+00 0.75405841E+03</pdfrwt>
<totfact> 0.12471828E+01</totfact>
</mgrwt>
</event>
<event>
 4    2  0.6387803E-007  0.9114287E+03  0.7818608E-02  0.9507928E-01
          2   -1    0    0  501    0  0.00000000000E+00  0.00000000000E+00  0.58462847565E+03  0.58462847565E+03  0.25500000000E-02 0. -1.
         -2   -1    0    0    0  501 -0.00000000000E+00 -0.00000000000E+00 -0.17510236630E+04  0.17510236631E+04  0.25500000000E-02 0.  1.
    8880023    1    1    2    0    0  0.38153767664E+03 -0.50131938819E+03 -0.13793557108E+04  0.16532769009E+04  0.65864270000E+03 0.  0.
    8880022    1    1    2    0    0 -0.38153767664E+03  0.50131938819E+03  0.21296052342E+03  0.68237523784E+03  0.15294330000E+03 0.  0.
<mgrwt>
<rscale>  0 0.83701813E+03</rscale>
<asrwt>0</asrwt>
<pdfrwt beam="1">  1        2 0.89942843E-01 0.91142873E+03</pdfrwt>
<pdfrwt beam="2">  1       -2 0.26938825E+00 0.91142873E+03</pdfrwt>
<totfact> 0.25320374E+00</totfact>
</mgrwt>
</event>
<event>
 4    2  0.6387803E-007  0.1107735E+04  0.7818608E-02  0.9252493E-01
          2   -1    0    0  501    0  0.00000000000E+00  0.00000000000E+00  0.23690084063E+04  0.23690084063E+04  0.25500000000E-02 0. -1.
         -2   -1    0    0    0  501 -0.00000000000E+00 -0.00000000000E+00 -0.10169197308E+04  0.10169197308E+04  0.25500000000E-02 0.  1.
    8880023    1    1    2    0    0 -0.80971231242E+03  0.37098752448E+03 -0.58186307048E+03  0.12512556139E+04  0.65864270000E+03 0.  0.
    8880022    1    1    2    0    0  0.80971231242E+03 -0.37098752448E+03  0.19339517460E+04  0.21346725231E+04  0.15294330000E+03 0.  0.
<mgrwt>
<rscale>  0 0.10527658E+04</rscale>
<asrwt>0</asrwt>
<pdfrwt beam="1">  1        2 0.36446283E+00 0.11077346E+04</pdfrwt>
<pdfrwt beam="2">  1       -2 0.15644919E+00 0.11077346E+04</pdfrwt>
<totfact> 0.10951271E+00</totfact>
</mgrwt>
</event>
<event>
 4    2  0.6387803E-007  0.6692490E+03  0.7818608E-02  0.1016207E+00
         -2   -1    0    0    0  501 -0.00000000000E+00  0.00000000000E+00  0.13499259708E+04  0.13499259708E+04  0.25500000000E-02 0.  1.
          2   -1    0    0  501    0  0.00000000000E+00 -0.00000000000E+00 -0.29187196108E+03  0.29187196109E+03  0.25500000000E-02 0. -1.
    8880023    1    1    2    0    0 -0.60048639502E+02  0.10236268704E+03  0.12186135763E+04  0.13902924920E+04  0.65864270000E+03 0.  1.
    8880022    1    1    2    0    0  0.60048639502E+02 -0.10236268704E+03 -0.16055956662E+03  0.25150543981E+03  0.15294330000E+03 0.  0.
<mgrwt>
<rscale>  0 0.49080544E+03</rscale>
<asrwt>0</asrwt>
<pdfrwt beam="1">  1        2 0.44903379E-01 0.66924896E+03</pdfrwt>
<pdfrwt beam="2">  1       -2 0.20768092E+00 0.66924896E+03</pdfrwt>
<totfact> 0.13776421E+01</totfact>
</mgrwt>
</event>
<event>
 4    2  0.6387803E-007  0.6937216E+03  0.7818608E-02  0.1002432E+00
          2   -1    0    0  501    0  0.00000000000E+00  0.00000000000E+00  0.41632253467E+04  0.41632253467E+04  0.25500000000E-02 0. -1.
         -2   -1    0    0    0  501 -0.00000000000E+00 -0.00000000000E+00 -0.84190306794E+03  0.84190306794E+03  0.25500000000E-02 0.  1.
    8880023    1    1    2    0    0  0.12329642054E+03  0.17954790792E+03 -0.69384065985E+03  0.98115469019E+03  0.65864270000E+03 0.  1.
    8880022    1    1    2    0    0 -0.12329642054E+03 -0.17954790792E+03  0.40151629386E+04  0.40239737245E+04  0.15294330000E+03 0.  0.
<mgrwt>
<rscale>  0 0.54596766E+03</rscale>
<asrwt>0</asrwt>
<pdfrwt beam="1">  1        2 0.64049621E+00 0.69372160E+03</pdfrwt>
<pdfrwt beam="2">  1       -2 0.12952355E+00 0.69372160E+03</pdfrwt>
<totfact> 0.12549350E-01</totfact>
</mgrwt>
</event>
<event>
 4    2  0.6387803E-007  0.8821004E+03  0.7818608E-02  0.9555400E-01
          2   -1    0    0  501    0  0.00000000000E+00  0.00000000000E+00  0.68556572237E+03  0.68556572238E+03  0.25500000000E-02 0. -1.
         -2   -1    0    0    0  501 -0.00000000000E+00 -0.00000000000E+00 -0.13993078418E+04  0.13993078418E+04  0.25500000000E-02 0.  1.
    8880023    1    1    2    0    0 -0.25183906769E+03 -0.52996982741E+03 -0.10659784773E+04  0.13836225115E+04  0.65864270000E+03 0.  1.
    8880022    1    1    2    0    0  0.25183906769E+03  0.52996982741E+03  0.35223635792E+03  0.70125105264E+03  0.15294330000E+03 0.  0.
<mgrwt>
<rscale>  0 0.80319806E+03</rscale>
<asrwt>0</asrwt>
<pdfrwt beam="1">  1        2 0.10547165E+00 0.88210041E+03</pdfrwt>
<pdfrwt beam="2">  1       -2 0.21527813E+00 0.88210041E+03</pdfrwt>
<totfact> 0.44870818E+00</totfact>
</mgrwt>
</event>
<event>
 4    2  0.6387803E-007  0.9359906E+03  0.7818608E-02  0.9470564E-01
          2   -1    0    0  501    0  0.00000000000E+00  0.00000000000E+00  0.14272622038E+04  0.14272622038E+04  0.25500000000E-02 0. -1.
         -2   -1    0    0    0  501 -0.00000000000E+00 -0.00000000000E+00 -0.53566800850E+03  0.53566800850E+03  0.25500000000E-02 0.  1.
    8880023    1    1    2    0    0 -0.65573200655E+03 -0.11083210310E+03  0.13770186212E+03  0.94606565765E+03  0.65864270000E+03 0.  0.
    8880022    1    1    2    0    0  0.65573200655E+03  0.11083210310E+03  0.75389233320E+03  0.10168645547E+04  0.15294330000E+03 0.  0.
<mgrwt>
<rscale>  0 0.86489268E+03</rscale>
<asrwt>0</asrwt>
<pdfrwt beam="1">  1        2 0.21957880E+00 0.93599061E+03</pdfrwt>
<pdfrwt beam="2">  1       -2 0.82410463E-01 0.93599061E+03</pdfrwt>
<totfact> 0.18090146E+01</totfact>
</mgrwt>
</event>
<event>
 4    2  0.6387803E-007  0.9300467E+03  0.7818608E-02  0.9479423E-01
         -2   -1    0    0    0  501 -0.00000000000E+00  0.00000000000E+00  0.32201927887E+03  0.32201927888E+03  0.25500000000E-02 0.  1.
          2   -1    0    0  501    0  0.00000000000E+00 -0.00000000000E+00 -0.22818416244E+04  0.22818416244E+04  0.25500000000E-02 0. -1.
    8880023    1    1    2    0    0 -0.64171893687E+03 -0.13918881847E+03 -0.66275576512E+03  0.11420298296E+04  0.65864270000E+03 0.  0.
    8880022    1    1    2    0    0  0.64171893687E+03  0.13918881847E+03 -0.12970665804E+04  0.14618310738E+04  0.15294330000E+03 0.  0.
<mgrwt>
<rscale>  0 0.85818018E+03</rscale>
<asrwt>0</asrwt>
<pdfrwt beam="1">  1        2 0.35105255E+00 0.93004673E+03</pdfrwt>
<pdfrwt beam="2">  1       -2 0.49541429E-01 0.93004673E+03</pdfrwt>
<totfact> 0.18193824E+01</totfact>
</mgrwt>
</event>
<event>
 4    2  0.6387803E-007  0.7599174E+03  0.7818608E-02  0.9805321E-01
          2   -1    0    0  501    0  0.00000000000E+00  0.00000000000E+00  0.83457428630E+03  0.83457428630E+03  0.25500000000E-02 0. -1.
         -2   -1    0    0    0  501 -0.00000000000E+00 -0.00000000000E+00 -0.53263642160E+03  0.53263642160E+03  0.25500000000E-02 0.  1.
    8880023    1    1    2    0    0  0.18871792679E+03 -0.32870937492E+03 -0.13177184004E+03  0.77125763085E+03  0.65864270000E+03 0. -1.
    8880022    1    1    2    0    0 -0.18871792679E+03  0.32870937492E+03  0.43370970474E+03  0.59595307706E+03  0.15294330000E+03 0.  0.
<mgrwt>
<rscale>  0 0.65077754E+03</rscale>
<asrwt>0</asrwt>
<pdfrwt beam="1">  1        2 0.12839604E+00 0.75991744E+03</pdfrwt>
<pdfrwt beam="2">  1       -2 0.81944065E-01 0.75991744E+03</pdfrwt>
<totfact> 0.43173786E+01</totfact>
</mgrwt>
</event>
<event>
 4    2  0.6387803E-007  0.6602784E+03  0.7818608E-02  0.1023873E+00
          2   -1    0    0  501    0  0.00000000000E+00  0.00000000000E+00  0.26162721285E+04  0.26162721285E+04  0.25500000000E-02 0. -1.
         -2   -1    0    0    0  501 -0.00000000000E+00 -0.00000000000E+00 -0.83908148967E+02  0.83908149006E+02  0.25500000000E-02 0.  1.
    8880023    1    1    2    0    0  0.26450241091E+02  0.38180418425E+02  0.13057809909E+04  0.14632264220E+04  0.65864270000E+03 0.  1.
    8880022    1    1    2    0    0 -0.26450241091E+02 -0.38180418425E+02  0.12265829887E+04  0.12369538555E+04  0.15294330000E+03 0.  0.
<mgrwt>
<rscale>  0 0.46314511E+03</rscale>
<asrwt>0</asrwt>
<pdfrwt beam="1">  1        2 0.40250343E+00 0.66027840E+03</pdfrwt>
<pdfrwt beam="2">  1       -2 0.12908945E-01 0.66027840E+03</pdfrwt>
<totfact> 0.14129211E+02</totfact>
</mgrwt>
</event>
<event>
 4    2  0.1671261E-006  0.9903348E+03  0.7818608E-02  0.9394313E-01
         -2   -1    0    0    0  501 -0.00000000000E+00  0.00000000000E+00  0.19487794296E+04  0.19487794296E+04  0.25500000000E-02 0.  1.
          2   -1    0    0  501    0  0.00000000000E+00 -0.00000000000E+00 -0.20015319430E+04  0.20015319430E+04  0.25500000000E-02 0. -1.
    8880023    1    1    2    0    0  0.73672735920E+03 -0.64696225685E+02  0.17416151398E+04  0.20034935250E+04  0.65864270000E+03 0.  1.
    8880022    1    1    2    0    0 -0.73672735920E+03  0.64696225685E+02 -0.17943676532E+04  0.19468178475E+04  0.15294330000E+03 0.  0.
<mgrwt>
<rscale>  0 0.92545154E+03</rscale>
<asrwt>0</asrwt>
<pdfrwt beam="1">  1        2 0.30792799E+00 0.99033480E+03</pdfrwt>
<pdfrwt beam="2">  1       -2 0.29981222E+00 0.99033480E+03</pdfrwt>
<totfact> 0.21509538E-01</totfact>
</mgrwt>
</event>
<event>
 4    2  0.6387803E-007  0.7111661E+03  0.7818608E-02  0.9953696E-01
          2   -1    0    0  501    0  0.00000000000E+00  0.00000000000E+00  0.83724957258E+03  0.83724957258E+03  0.25500000000E-02 0. -1.
         -2   -1    0    0    0  501 -0.00000000000E+00 -0.00000000000E+00 -0.46700970036E+03  0.46700970037E+03  0.25500000000E-02 0.  1.
    8880023    1    1    2    0    0  0.26466227625E+03  0.43599191104E+02 -0.12360918488E+03  0.72182854390E+03  0.65864270000E+03 0.  1.
    8880022    1    1    2    0    0 -0.26466227625E+03 -0.43599191104E+02  0.49384905709E+03  0.58243072905E+03  0.15294330000E+03 0.  0.
<mgrwt>
<rscale>  0 0.57728054E+03</rscale>
<asrwt>0</asrwt>
<pdfrwt beam="1">  1        2 0.12880763E+00 0.71116610E+03</pdfrwt>
<pdfrwt beam="2">  1       -2 0.71847647E-01 0.71116610E+03</pdfrwt>
<totfact> 0.57846062E+01</totfact>
</mgrwt>
</event>
<event>
 4    2  0.6387803E-007  0.6957606E+03  0.7818608E-02  0.1001526E+00
          2   -1    0    0  501    0  0.00000000000E+00  0.00000000000E+00  0.29339678824E+04  0.29339678824E+04  0.25500000000E-02 0. -1.
         -2   -1    0    0    0  501 -0.00000000000E+00 -0.00000000000E+00 -0.84321865893E+02  0.84321865932E+02  0.25500000000E-02 0.  1.
    8880023    1    1    2    0    0  0.19301489212E+03  0.11409603164E+03  0.16964021176E+04  0.18335383835E+04  0.65864270000E+03 0. -1.
    8880022    1    1    2    0    0 -0.19301489212E+03 -0.11409603164E+03  0.11532438989E+04  0.11847513648E+04  0.15294330000E+03 0.  1.
<mgrwt>
<rscale>  0 0.54985987E+03</rscale>
<asrwt>0</asrwt>
<pdfrwt beam="1">  1        2 0.45137978E+00 0.69576063E+03</pdfrwt>
<pdfrwt beam="2">  1       -2 0.12972592E-01 0.69576063E+03</pdfrwt>
<totfact> 0.90756931E+01</totfact>
</mgrwt>
</event>
<event>
 4    2  0.6387803E-007  0.9823852E+03  0.7818608E-02  0.9404975E-01
          2   -1    0    0  501    0  0.00000000000E+00  0.00000000000E+00  0.82815165608E+03  0.82815165609E+03  0.25500000000E-02 0. -1.
         -2   -1    0    0    0  501 -0.00000000000E+00 -0.00000000000E+00 -0.12852239275E+04  0.12852239275E+04  0.25500000000E-02 0.  1.
    8880023    1    1    2    0    0 -0.85797760197E+02  0.72381570364E+03 -0.82485524479E+03  0.12827575023E+04  0.65864270000E+03 0.  1.
    8880022    1    1    2    0    0  0.85797760197E+02 -0.72381570364E+03  0.36778297338E+03  0.83061808132E+03  0.15294330000E+03 0.  0.
<mgrwt>
<rscale>  0 0.91667399E+03</rscale>
<asrwt>0</asrwt>
<pdfrwt beam="1">  1        2 0.12740795E+00 0.98238518E+03</pdfrwt>
<pdfrwt beam="2">  1       -2 0.19772676E+00 0.98238518E+03</pdfrwt>
<totfact> 0.45014569E+00</totfact>
</mgrwt>
</event>
<event>
 4    2  0.6387803E-007  0.8473165E+03  0.7818608E-02  0.9616536E-01
          2   -1    0    0  501    0  0.00000000000E+00  0.00000000000E+00  0.14486040535E+04  0.14486040535E+04  0.25500000000E-02 0. -1.
         -2   -1    0    0    0  501 -0.00000000000E+00 -0.00000000000E+00 -0.36658014680E+03  0.36658014680E+03  0.25500000000E-02 0.  1.
    8880023    1    1    2    0    0  0.53055998618E+03 -0.51391700695E+02  0.40238090450E+03  0.93800618570E+03  0.65864270000E+03 0.  0.
    8880022    1    1    2    0    0 -0.53055998618E+03  0.51391700695E+02  0.67964300219E+03  0.87717801459E+03  0.15294330000E+03 0.  0.
<mgrwt>
<rscale>  0 0.76211338E+03</rscale>
<asrwt>0</asrwt>
<pdfrwt beam="1">  1        2 0.22286217E+00 0.84731648E+03</pdfrwt>
<pdfrwt beam="2">  1       -2 0.56396945E-01 0.84731648E+03</pdfrwt>
<totfact> 0.40521070E+01</totfact>
</mgrwt>
</event>
<event>
 4    2  0.6387803E-007  0.8109447E+03  0.7818608E-02  0.9687613E-01
          2   -1    0    0  501    0  0.00000000000E+00  0.00000000000E+00  0.12159202079E+04  0.12159202079E+04  0.25500000000E-02 0. -1.
         -2   -1    0    0    0  501 -0.00000000000E+00 -0.00000000000E+00 -0.77116613489E+03  0.77116613489E+03  0.25500000000E-02 0.  1.
    8880023    1    1    2    0    0 -0.59405112404E+02  0.46935280736E+03 -0.47624568048E+03  0.94044732952E+03  0.65864270000E+03 0.  0.
    8880022    1    1    2    0    0  0.59405112404E+02 -0.46935280736E+03  0.92099975345E+03  0.10466390132E+04  0.15294330000E+03 0.  0.
<mgrwt>
<rscale>  0 0.71759145E+03</rscale>
<asrwt>0</asrwt>
<pdfrwt beam="1">  1        2 0.18706465E+00 0.81094465E+03</pdfrwt>
<pdfrwt beam="2">  1       -2 0.11864094E+00 0.81094465E+03</pdfrwt>
<totfact> 0.10248965E+01</totfact>
</mgrwt>
</event>
<event>
 4    2  0.6387803E-007  0.6677611E+03  0.7818608E-02  0.1017321E+00
         -2   -1    0    0    0  501 -0.00000000000E+00  0.00000000000E+00  0.45264994889E+03  0.45264994890E+03  0.25500000000E-02 0.  1.
          2   -1    0    0  501    0  0.00000000000E+00 -0.00000000000E+00 -0.11199170242E+04  0.11199170242E+04  0.25500000000E-02 0. -1.
    8880023    1    1    2    0    0  0.10445856996E+03 -0.34396063553E+02  0.19046439421E+03  0.69439295342E+03  0.65864270000E+03 0.  1.
    8880022    1    1    2    0    0 -0.10445856996E+03  0.34396063553E+02 -0.85773146951E+03  0.87817401967E+03  0.15294330000E+03 0.  0.
<mgrwt>
<rscale>  0 0.48665757E+03</rscale>
<asrwt>0</asrwt>
<pdfrwt beam="1">  1        2 0.17229493E+00 0.66776110E+03</pdfrwt>
<pdfrwt beam="2">  1       -2 0.69638454E-01 0.66776110E+03</pdfrwt>
<totfact> 0.40841446E+01</totfact>
</mgrwt>
</event>
<event>
 4    2  0.6387803E-007  0.9396784E+03  0.7818608E-02  0.9465123E-01
         -2   -1    0    0    0  501 -0.00000000000E+00  0.00000000000E+00  0.98745685737E+03  0.98745685737E+03  0.25500000000E-02 0.  1.
          2   -1    0    0  501    0  0.00000000000E+00 -0.00000000000E+00 -0.19344857631E+04  0.19344857631E+04  0.25500000000E-02 0. -1.
    8880023    1    1    2    0    0 -0.61923591136E+02 -0.66734612045E+03  0.67716899950E+03  0.11582544780E+04  0.65864270000E+03 0.  0.
    8880022    1    1    2    0    0  0.61923591136E+02  0.66734612045E+03 -0.16241979052E+04  0.17636881425E+04  0.15294330000E+03 0.  0.
<mgrwt>
<rscale>  0 0.86904752E+03</rscale>
<asrwt>0</asrwt>
<pdfrwt beam="1">  1        2 0.29761319E+00 0.93967845E+03</pdfrwt>
<pdfrwt beam="2">  1       -2 0.15191644E+00 0.93967845E+03</pdfrwt>
<totfact> 0.21157641E+00</totfact>
</mgrwt>
</event>
<event>
 4    2  0.6387803E-007  0.7930140E+03  0.7818608E-02  0.9726110E-01
          2   -1    0    0  501    0  0.00000000000E+00  0.00000000000E+00  0.17562672121E+04  0.17562672121E+04  0.25500000000E-02 0. -1.
         -2   -1    0    0    0  501 -0.00000000000E+00 -0.00000000000E+00 -0.37073225133E+03  0.37073225134E+03  0.25500000000E-02 0.  1.
    8880023    1    1    2    0    0 -0.26877096248E+03  0.35046140345E+03  0.15141673591E+03  0.80734023792E+03  0.65864270000E+03 0.  1.
    8880022    1    1    2    0    0  0.26877096248E+03 -0.35046140345E+03  0.12341182249E+04  0.13196592255E+04  0.15294330000E+03 0.  0.
<mgrwt>
<rscale>  0 0.69483281E+03</rscale>
<asrwt>0</asrwt>
<pdfrwt beam="1">  1        2 0.27019496E+00 0.79301402E+03</pdfrwt>
<pdfrwt beam="2">  1       -2 0.57035729E-01 0.79301402E+03</pdfrwt>
<totfact> 0.26894653E+01</totfact>
</mgrwt>
</event>
<event>
 4    2  0.6387803E-007  0.8878057E+03  0.7818608E-02  0.9545898E-01
          2   -1    0    0  501    0  0.00000000000E+00  0.00000000000E+00  0.97564051243E+03  0.97564051243E+03  0.25500000000E-02 0. -1.
         -2   -1    0    0    0  501 -0.00000000000E+00 -0.00000000000E+00 -0.11641392204E+04  0.11641392204E+04  0.25500000000E-02 0.  1.
    8880023    1    1    2    0    0 -0.50168838462E+03  0.32046450248E+03 -0.85539688723E+03  0.12328433694E+04  0.65864270000E+03 0.  0.
    8880022    1    1    2    0    0  0.50168838462E+03 -0.32046450248E+03  0.66689817930E+03  0.90693636336E+03  0.15294330000E+03 0.  0.
<mgrwt>
<rscale>  0 0.80982908E+03</rscale>
<asrwt>0</asrwt>
<pdfrwt beam="1">  1        2 0.15009854E+00 0.88780569E+03</pdfrwt>
<pdfrwt beam="2">  1       -2 0.17909834E+00 0.88780569E+03</pdfrwt>
<totfact> 0.48214132E+00</totfact>
</mgrwt>
</event>
<event>
 4    2  0.6387803E-007  0.8362973E+03  0.7818608E-02  0.9637202E-01
         -2   -1    0    0    0  501 -0.00000000000E+00  0.00000000000E+00  0.60667010328E+03  0.60667010329E+03  0.25500000000E-02 0.  1.
          2   -1    0    0  501    0  0.00000000000E+00 -0.00000000000E+00 -0.89614310264E+03  0.89614310265E+03  0.25500000000E-02 0. -1.
    8880023    1    1    2    0    0 -0.32412511167E+02 -0.51432714921E+03 -0.43944052781E+03  0.94472280116E+03  0.65864270000E+03 0.  0.
    8880022    1    1    2    0    0  0.32412511167E+02  0.51432714921E+03  0.14996752845E+03  0.55809040477E+03  0.15294330000E+03 0.  0.
<mgrwt>
<rscale>  0 0.74882096E+03</rscale>
<asrwt>0</asrwt>
<pdfrwt beam="1">  1        2 0.13786817E+00 0.83629731E+03</pdfrwt>
<pdfrwt beam="2">  1       -2 0.93333861E-01 0.83629731E+03</pdfrwt>
<totfact> 0.28863248E+01</totfact>
</mgrwt>
</event>
<event>
 4    2  0.6387803E-007  0.8841780E+03  0.7818608E-02  0.9551924E-01
         -2   -1    0    0    0  501 -0.00000000000E+00  0.00000000000E+00  0.23033333042E+03  0.23033333043E+03  0.25500000000E-02 0.  1.
          2   -1    0    0  501    0  0.00000000000E+00 -0.00000000000E+00 -0.32195728368E+04  0.32195728368E+04  0.25500000000E-02 0. -1.
    8880023    1    1    2    0    0 -0.42589918578E+03 -0.40813030842E+03 -0.85344531806E+03  0.12288773667E+04  0.65864270000E+03 0.  1.
    8880022    1    1    2    0    0  0.42589918578E+03  0.40813030842E+03 -0.21357941883E+04  0.22210288006E+04  0.15294330000E+03 0.  0.
<mgrwt>
<rscale>  0 0.80561585E+03</rscale>
<asrwt>0</asrwt>
<pdfrwt beam="1">  1        2 0.49531887E+00 0.88417796E+03</pdfrwt>
<pdfrwt beam="2">  1       -2 0.35435899E-01 0.88417796E+03</pdfrwt>
<totfact> 0.98519940E+00</totfact>
</mgrwt>
</event>
<event>
 4    2  0.6387803E-007  0.1034328E+04  0.7818608E-02  0.9337963E-01
          2   -1    0    0  501    0  0.00000000000E+00  0.00000000000E+00  0.19143307316E+04  0.19143307316E+04  0.25500000000E-02 0. -1.
         -2   -1    0    0    0  501 -0.00000000000E+00 -0.00000000000E+00 -0.11119894438E+04  0.11119894438E+04  0.25500000000E-02 0.  1.
    8880023    1    1    2    0    0 -0.51960712011E+03 -0.60500565066E+03 -0.74781648084E+03  0.12763475592E+04  0.65864270000E+03 0.  0.
    8880022    1    1    2    0    0  0.51960712011E+03  0.60500565066E+03  0.15501577686E+04  0.17499726161E+04  0.15294330000E+03 0.  0.
<mgrwt>
<rscale>  0 0.97361766E+03</rscale>
<asrwt>0</asrwt>
<pdfrwt beam="1">  1        2 0.29451242E+00 0.10343276E+04</pdfrwt>
<pdfrwt beam="2">  1       -2 0.17107530E+00 0.10343276E+04</pdfrwt>
<totfact> 0.15485231E+00</totfact>
</mgrwt>
</event>
<event>
 4    2  0.6387803E-007  0.9049906E+03  0.7818608E-02  0.9518067E-01
         -2   -1    0    0    0  501 -0.00000000000E+00  0.00000000000E+00  0.18282348355E+04  0.18282348355E+04  0.25500000000E-02 0.  1.
          2   -1    0    0  501    0  0.00000000000E+00 -0.00000000000E+00 -0.11872184520E+04  0.11872184520E+04  0.25500000000E-02 0. -1.
    8880023    1    1    2    0    0 -0.12947409253E+03 -0.60698788732E+03  0.16145146368E+04  0.18508553576E+04  0.65864270000E+03 0.  1.
    8880022    1    1    2    0    0  0.12947409253E+03  0.60698788732E+03 -0.97349825329E+03  0.11645979298E+04  0.15294330000E+03 0.  0.
<mgrwt>
<rscale>  0 0.82964817E+03</rscale>
<asrwt>0</asrwt>
<pdfrwt beam="1">  1        2 0.18264899E+00 0.90499063E+03</pdfrwt>
<pdfrwt beam="2">  1       -2 0.28126690E+00 0.90499063E+03</pdfrwt>
<totfact> 0.81015116E-01</totfact>
</mgrwt>
</event>
<event>
 4    2  0.6387803E-007  0.6809836E+03  0.7818608E-02  0.1008773E+00
          2   -1    0    0  501    0  0.00000000000E+00  0.00000000000E+00  0.13714420514E+04  0.13714420514E+04  0.25500000000E-02 0. -1.
         -2   -1    0    0    0  501 -0.00000000000E+00 -0.00000000000E+00 -0.15757462771E+03  0.15757462773E+03  0.25500000000E-02 0.  1.
    8880023    1    1    2    0    0 -0.10821483743E+03  0.13497429909E+03  0.76466237699E+03  0.10239371414E+04  0.65864270000E+03 0.  0.
    8880022    1    1    2    0    0  0.10821483743E+03 -0.13497429909E+03  0.44920504672E+03  0.50507953776E+03  0.15294330000E+03 0.  1.
<mgrwt>
<rscale>  0 0.51965361E+03</rscale>
<asrwt>0</asrwt>
<pdfrwt beam="1">  1        2 0.21099109E+00 0.68098364E+03</pdfrwt>
<pdfrwt beam="2">  1       -2 0.24242250E-01 0.68098364E+03</pdfrwt>
<totfact> 0.23171002E+02</totfact>
</mgrwt>
</event>
<event>
 4    2  0.6450978E-007  0.9153361E+03  0.7818608E-02  0.9501847E-01
         -2   -1    0    0    0  501 -0.00000000000E+00  0.00000000000E+00  0.13316752871E+04  0.13316752871E+04  0.25500000000E-02 0.  1.
          2   -1    0    0  501    0  0.00000000000E+00 -0.00000000000E+00 -0.19002738530E+04  0.19002738530E+04  0.25500000000E-02 0. -1.
    8880023    1    1    2    0    0 -0.61927486729E+03  0.14327834355E+03  0.11051836199E+04  0.14350160574E+04  0.65864270000E+03 0.  0.
    8880022    1    1    2    0    0  0.61927486729E+03 -0.14327834355E+03 -0.16737821858E+04  0.17969330827E+04  0.15294330000E+03 0.  0.
<mgrwt>
<rscale>  0 0.84147754E+03</rscale>
<asrwt>0</asrwt>
<pdfrwt beam="1">  1        2 0.29234982E+00 0.91533614E+03</pdfrwt>
<pdfrwt beam="2">  1       -2 0.20487312E+00 0.91533614E+03</pdfrwt>
<totfact> 0.94855308E-01</totfact>
</mgrwt>
</event>
<event>
 4    2  0.6387803E-007  0.7202083E+03  0.7818608E-02  0.9921882E-01
         -2   -1    0    0    0  501 -0.00000000000E+00  0.00000000000E+00  0.33503227556E+03  0.33503227557E+03  0.25500000000E-02 0.  1.
          2   -1    0    0  501    0  0.00000000000E+00 -0.00000000000E+00 -0.11100597993E+04  0.11100597993E+04  0.25500000000E-02 0. -1.
    8880023    1    1    2    0    0  0.28709544192E+03  0.49658702595E+02 -0.14551301465E+03  0.73476120149E+03  0.65864270000E+03 0.  1.
    8880022    1    1    2    0    0 -0.28709544192E+03 -0.49658702595E+02 -0.62951450908E+03  0.71033087338E+03  0.15294330000E+03 0.  0.
<mgrwt>
<rscale>  0 0.59212424E+03</rscale>
<asrwt>0</asrwt>
<pdfrwt beam="1">  1        2 0.17077843E+00 0.72020829E+03</pdfrwt>
<pdfrwt beam="2">  1       -2 0.51543428E-01 0.72020829E+03</pdfrwt>
<totfact> 0.77735246E+01</totfact>
</mgrwt>
</event>
<event>
 4    2  0.6387803E-007  0.8699315E+03  0.7818608E-02  0.9576136E-01
          2   -1    0    0  501    0  0.00000000000E+00  0.00000000000E+00  0.19896567353E+04  0.19896567353E+04  0.25500000000E-02 0. -1.
         -2   -1    0    0    0  501 -0.00000000000E+00 -0.00000000000E+00 -0.31324215602E+03  0.31324215603E+03  0.25500000000E-02 0.  1.
    8880023    1    1    2    0    0 -0.56617938086E+03 -0.49107321502E+02  0.54214522350E+03  0.10250376920E+04  0.65864270000E+03 0.  1.
    8880022    1    1    2    0    0  0.56617938086E+03  0.49107321502E+02  0.11342693557E+04  0.12778611993E+04  0.15294330000E+03 0.  0.
<mgrwt>
<rscale>  0 0.78896024E+03</rscale>
<asrwt>0</asrwt>
<pdfrwt beam="1">  1        2 0.30610104E+00 0.86993151E+03</pdfrwt>
<pdfrwt beam="2">  1       -2 0.48191101E-01 0.86993151E+03</pdfrwt>
<totfact> 0.28103124E+01</totfact>
</mgrwt>
</event>
<event>
 4    2  0.6387803E-007  0.1017705E+04  0.7818608E-02  0.9358752E-01
          2   -1    0    0  501    0  0.00000000000E+00  0.00000000000E+00  0.30558422856E+04  0.30558422856E+04  0.25500000000E-02 0. -1.
         -2   -1    0    0    0  501 -0.00000000000E+00 -0.00000000000E+00 -0.28960768197E+03  0.28960768198E+03  0.25500000000E-02 0.  1.
    8880023    1    1    2    0    0  0.47075354152E+03 -0.61668780856E+03  0.10853687916E+04  0.14878670539E+04  0.65864270000E+03 0.  0.
    8880022    1    1    2    0    0 -0.47075354152E+03  0.61668780856E+03  0.16808658120E+04  0.18575829136E+04  0.15294330000E+03 0.  0.
<mgrwt>
<rscale>  0 0.95549361E+03</rscale>
<asrwt>0</asrwt>
<pdfrwt beam="1">  1        2 0.47012957E+00 0.10177047E+04</pdfrwt>
<pdfrwt beam="2">  1       -2 0.44555030E-01 0.10177047E+04</pdfrwt>
<totfact> 0.78394537E+00</totfact>
</mgrwt>
</event>
<event>
 4    2  0.6387803E-007  0.6974770E+03  0.7818608E-02  0.1000783E+00
          2   -1    0    0  501    0  0.00000000000E+00  0.00000000000E+00  0.32262942066E+04  0.32262942066E+04  0.25500000000E-02 0. -1.
         -2   -1    0    0    0  501 -0.00000000000E+00 -0.00000000000E+00 -0.24700488168E+03  0.24700488169E+03  0.25500000000E-02 0.  1.
    8880023    1    1    2    0    0 -0.17405887529E+03  0.14955734764E+03  0.26670216340E+03  0.74672896189E+03  0.65864270000E+03 0.  0.
    8880022    1    1    2    0    0  0.17405887529E+03 -0.14955734764E+03  0.27125871615E+04  0.27265701264E+04  0.15294330000E+03 0.  0.
<mgrwt>
<rscale>  0 0.55308102E+03</rscale>
<asrwt>0</asrwt>
<pdfrwt beam="1">  1        2 0.49635295E+00 0.69747695E+03</pdfrwt>
<pdfrwt beam="2">  1       -2 0.38000751E-01 0.69747695E+03</pdfrwt>
<totfact> 0.88162606E+00</totfact>
</mgrwt>
</event>
<event>
 4    2  0.6387803E-007  0.7456632E+03  0.7818608E-02  0.9843747E-01
         -2   -1    0    0    0  501 -0.00000000000E+00  0.00000000000E+00  0.24942641404E+03  0.24942641405E+03  0.25500000000E-02 0.  1.
          2   -1    0    0  501    0  0.00000000000E+00 -0.00000000000E+00 -0.22341587346E+04  0.22341587346E+04  0.25500000000E-02 0. -1.
    8880023    1    1    2    0    0 -0.13457813406E+02  0.34931687314E+03 -0.38541467616E+03  0.83937957413E+03  0.65864270000E+03 0.  1.
    8880022    1    1    2    0    0  0.13457813406E+02 -0.34931687314E+03 -0.15993176444E+04  0.16442055745E+04  0.15294330000E+03 0.  0.
<mgrwt>
<rscale>  0 0.63066736E+03</rscale>
<asrwt>0</asrwt>
<pdfrwt beam="1">  1        2 0.34371671E+00 0.74566319E+03</pdfrwt>
<pdfrwt beam="2">  1       -2 0.38373296E-01 0.74566319E+03</pdfrwt>
<totfact> 0.32872354E+01</totfact>
</mgrwt>
</event>
<event>
 4    2  0.6387803E-007  0.1300562E+04  0.7818608E-02  0.9065075E-01
          2   -1    0    0  501    0  0.00000000000E+00  0.00000000000E+00  0.31832371591E+04  0.31832371591E+04  0.25500000000E-02 0. -1.
         -2   -1    0    0    0  501 -0.00000000000E+00 -0.00000000000E+00 -0.78575097885E+03  0.78575097885E+03  0.25500000000E-02 0.  1.
    8880023    1    1    2    0    0 -0.11146747422E+04 -0.12309035038E+03 -0.18859465814E+02  0.13006986204E+04  0.65864270000E+03 0.  0.
    8880022    1    1    2    0    0  0.11146747422E+04  0.12309035038E+03  0.24163456461E+04  0.26682895176E+04  0.15294330000E+03 0.  0.
<mgrwt>
<rscale>  0 0.12561564E+04</rscale>
<asrwt>0</asrwt>
<pdfrwt beam="1">  1        2 0.48972878E+00 0.13005619E+04</pdfrwt>
<pdfrwt beam="2">  1       -2 0.12088477E+00 0.13005619E+04</pdfrwt>
<totfact> 0.67775892E-01</totfact>
</mgrwt>
</event>
<event>
 4    2  0.6387803E-007  0.8636547E+03  0.7818608E-02  0.9587095E-01
         -2   -1    0    0    0  501 -0.00000000000E+00  0.00000000000E+00  0.19960350982E+04  0.19960350982E+04  0.25500000000E-02 0.  1.
          2   -1    0    0  501    0  0.00000000000E+00 -0.00000000000E+00 -0.30688949593E+03  0.30688949594E+03  0.25500000000E-02 0. -1.
    8880023    1    1    2    0    0 -0.35883733837E+03 -0.42816469030E+03  0.14250874412E+04  0.16663654038E+04  0.65864270000E+03 0.  1.
    8880022    1    1    2    0    0  0.35883733837E+03  0.42816469030E+03  0.26405816103E+03  0.63655919037E+03  0.15294330000E+03 0. -1.
<mgrwt>
<rscale>  0 0.78156226E+03</rscale>
<asrwt>0</asrwt>
<pdfrwt beam="1">  1        2 0.47213767E-01 0.86365470E+03</pdfrwt>
<pdfrwt beam="2">  1       -2 0.30708233E+00 0.86365470E+03</pdfrwt>
<totfact> 0.31588019E+00</totfact>
</mgrwt>
</event>
<event>
 4    2  0.6387803E-007  0.7567081E+03  0.7818608E-02  0.9813706E-01
         -2   -1    0    0    0  501 -0.00000000000E+00  0.00000000000E+00  0.11959755074E+04  0.11959755074E+04  0.25500000000E-02 0.  1.
          2   -1    0    0  501    0  0.00000000000E+00 -0.00000000000E+00 -0.41362461474E+03  0.41362461475E+03  0.25500000000E-02 0. -1.
    8880023    1    1    2    0    0  0.12882976043E+03  0.34957098147E+03  0.31261333643E+02  0.75735358684E+03  0.65864270000E+03 0.  0.
    8880022    1    1    2    0    0 -0.12882976043E+03 -0.34957098147E+03  0.75108955902E+03  0.85224653530E+03  0.15294330000E+03 0.  0.
<mgrwt>
<rscale>  0 0.64632187E+03</rscale>
<asrwt>0</asrwt>
<pdfrwt beam="1">  1        2 0.63634557E-01 0.75670812E+03</pdfrwt>
<pdfrwt beam="2">  1       -2 0.18399623E+00 0.75670812E+03</pdfrwt>
<totfact> 0.13236953E+01</totfact>
</mgrwt>
</event>
<event>
 4    2  0.6387803E-007  0.8409200E+03  0.7818608E-02  0.9628448E-01
          2   -1    0    0  501    0  0.00000000000E+00  0.00000000000E+00  0.66292992896E+03  0.66292992896E+03  0.25500000000E-02 0. -1.
         -2   -1    0    0    0  501 -0.00000000000E+00 -0.00000000000E+00 -0.84241677964E+03  0.84241677965E+03  0.25500000000E-02 0.  1.
    8880023    1    1    2    0    0  0.43028125961E+03  0.29697520936E+03  0.17029027658E+03  0.85798905698E+03  0.65864270000E+03 0. -1.
    8880022    1    1    2    0    0 -0.43028125961E+03 -0.29697520936E+03 -0.34977712727E+03  0.64735765163E+03  0.15294330000E+03 0.  0.
<mgrwt>
<rscale>  0 0.75441585E+03</rscale>
<asrwt>0</asrwt>
<pdfrwt beam="1">  1        2 0.10198922E+00 0.84092000E+03</pdfrwt>
<pdfrwt beam="2">  1       -2 0.12960258E+00 0.84092000E+03</pdfrwt>
<totfact> 0.19313429E+01</totfact>
</mgrwt>
</event>
<event>
 4    2  0.6387803E-007  0.7090945E+03  0.7818608E-02  0.9961379E-01
         -2   -1    0    0    0  501 -0.00000000000E+00  0.00000000000E+00  0.11030765259E+03  0.11030765262E+03  0.25500000000E-02 0.  1.
          2   -1    0    0  501    0  0.00000000000E+00 -0.00000000000E+00 -0.37465067607E+04  0.37465067607E+04  0.25500000000E-02 0. -1.
    8880023    1    1    2    0    0  0.19071134880E+03  0.18064881341E+03 -0.11425445409E+04  0.13447018430E+04  0.65864270000E+03 0.  1.
    8880022    1    1    2    0    0 -0.19071134880E+03 -0.18064881341E+03 -0.24936545672E+04  0.25121125703E+04  0.15294330000E+03 0.  0.
<mgrwt>
<rscale>  0 0.57376627E+03</rscale>
<asrwt>0</asrwt>
<pdfrwt beam="1">  1        2 0.57638556E+00 0.70909451E+03</pdfrwt>
<pdfrwt beam="2">  1       -2 0.16970411E-01 0.70909451E+03</pdfrwt>
<totfact> 0.16775422E+01</totfact>
</mgrwt>
</event>
<event>
 4    2  0.6387803E-007  0.7262805E+03  0.7818608E-02  0.9901881E-01
          2   -1    0    0  501    0  0.00000000000E+00  0.00000000000E+00  0.17295883042E+04  0.17295883042E+04  0.25500000000E-02 0. -1.
         -2   -1    0    0    0  501 -0.00000000000E+00 -0.00000000000E+00 -0.46691072823E+03  0.46691072824E+03  0.25500000000E-02 0.  1.
    8880023    1    1    2    0    0 -0.29968790515E+03  0.62131383842E+02 -0.15116567611E+03  0.74184527851E+03  0.65864270000E+03 0.  0.
    8880022    1    1    2    0    0  0.29968790515E+03 -0.62131383842E+02  0.14138432521E+04  0.14546537539E+04  0.15294330000E+03 0.  0.
<mgrwt>
<rscale>  0 0.60170217E+03</rscale>
<asrwt>0</asrwt>
<pdfrwt beam="1">  1        2 0.26609051E+00 0.72628049E+03</pdfrwt>
<pdfrwt beam="2">  1       -2 0.71832420E-01 0.72628049E+03</pdfrwt>
<totfact> 0.17114174E+01</totfact>
</mgrwt>
</event>
<event>
 4    2  0.6387803E-007  0.7226816E+03  0.7818608E-02  0.9913615E-01
         -2   -1    0    0    0  501 -0.00000000000E+00  0.00000000000E+00  0.37483459035E+03  0.37483459035E+03  0.25500000000E-02 0.  1.
          2   -1    0    0  501    0  0.00000000000E+00 -0.00000000000E+00 -0.32338942117E+04  0.32338942117E+04  0.25500000000E-02 0. -1.
    8880023    1    1    2    0    0  0.26045035120E+02 -0.29627722589E+03  0.75050701321E+01  0.72272060354E+03  0.65864270000E+03 0.  1.
    8880022    1    1    2    0    0 -0.26045035120E+02  0.29627722589E+03 -0.28665646914E+04  0.28860081985E+04  0.15294330000E+03 0.  0.
<mgrwt>
<rscale>  0 0.59605983E+03</rscale>
<asrwt>0</asrwt>
<pdfrwt beam="1">  1        2 0.49752217E+00 0.72268163E+03</pdfrwt>
<pdfrwt beam="2">  1       -2 0.57666862E-01 0.72268163E+03</pdfrwt>
<totfact> 0.37513836E+00</totfact>
</mgrwt>
</event>
<event>
 4    2  0.6387803E-007  0.7611717E+03  0.7818608E-02  0.9802083E-01
         -2   -1    0    0    0  501 -0.00000000000E+00  0.00000000000E+00  0.11343069586E+04  0.11343069586E+04  0.25500000000E-02 0.  1.
          2   -1    0    0  501    0  0.00000000000E+00 -0.00000000000E+00 -0.11592035848E+04  0.11592035848E+04  0.25500000000E-02 0. -1.
    8880023    1    1    2    0    0  0.23318406591E+03  0.30198897854E+03  0.96066343753E+03  0.12256657775E+04  0.65864270000E+03 0.  1.
    8880022    1    1    2    0    0 -0.23318406591E+03 -0.30198897854E+03 -0.98556006375E+03  0.10678447659E+04  0.15294330000E+03 0.  0.
<mgrwt>
<rscale>  0 0.65250852E+03</rscale>
<asrwt>0</asrwt>
<pdfrwt beam="1">  1        2 0.17833901E+00 0.76117170E+03</pdfrwt>
<pdfrwt beam="2">  1       -2 0.17450876E+00 0.76117170E+03</pdfrwt>
<totfact> 0.40540011E+00</totfact>
</mgrwt>
</event>
<event>
 4    2  0.6387803E-007  0.8904305E+03  0.7818608E-02  0.9541572E-01
          2   -1    0    0  501    0  0.00000000000E+00  0.00000000000E+00  0.33450827613E+04  0.33450827613E+04  0.25500000000E-02 0. -1.
         -2   -1    0    0    0  501 -0.00000000000E+00 -0.00000000000E+00 -0.29436844408E+03  0.29436844409E+03  0.25500000000E-02 0.  1.
    8880023    1    1    2    0    0  0.87035494418E+02  0.59285843959E+03  0.51334969810E+03  0.10278105008E+04  0.65864270000E+03 0.  1.
    8880022    1    1    2    0    0 -0.87035494418E+02 -0.59285843959E+03  0.25373646191E+04  0.26116407046E+04  0.15294330000E+03 0. -1.
<mgrwt>
<rscale>  0 0.81287089E+03</rscale>
<asrwt>0</asrwt>
<pdfrwt beam="1">  1        2 0.51462810E+00 0.89043052E+03</pdfrwt>
<pdfrwt beam="2">  1       -2 0.45287454E-01 0.89043052E+03</pdfrwt>
<totfact> 0.50460582E+00</totfact>
</mgrwt>
</event>
<event>
 4    2  0.6387803E-007  0.6932439E+03  0.7818608E-02  0.1002647E+00
         -2   -1    0    0    0  501 -0.00000000000E+00  0.00000000000E+00  0.12611588306E+03  0.12611588308E+03  0.25500000000E-02 0.  1.
          2   -1    0    0  501    0  0.00000000000E+00 -0.00000000000E+00 -0.40248348531E+04  0.40248348531E+04  0.25500000000E-02 0. -1.
    8880023    1    1    2    0    0  0.21558507415E+03  0.17318610922E+02 -0.87824707496E+03  0.11188856016E+04  0.65864270000E+03 0.  1.
    8880022    1    1    2    0    0 -0.21558507415E+03 -0.17318610922E+02 -0.30204718951E+04  0.30320651346E+04  0.15294330000E+03 0.  0.
<mgrwt>
<rscale>  0 0.54504494E+03</rscale>
<asrwt>0</asrwt>
<pdfrwt beam="1">  1        2 0.61920526E+00 0.69324387E+03</pdfrwt>
<pdfrwt beam="2">  1       -2 0.19402447E-01 0.69324387E+03</pdfrwt>
<totfact> 0.82103053E+00</totfact>
</mgrwt>
</event>
<event>
 4    2  0.6387803E-007  0.6640769E+03  0.7818608E-02  0.1020321E+00
          2   -1    0    0  501    0  0.00000000000E+00  0.00000000000E+00  0.18743203408E+04  0.18743203408E+04  0.25500000000E-02 0. -1.
         -2   -1    0    0    0  501 -0.00000000000E+00 -0.00000000000E+00 -0.13130003751E+03  0.13130003754E+03  0.25500000000E-02 0.  1.
    8880023    1    1    2    0    0 -0.37127253543E+02 -0.76219659406E+02  0.76910437980E+03  0.10161297273E+04  0.65864270000E+03 0.  1.
    8880022    1    1    2    0    0  0.37127253543E+02  0.76219659406E+02  0.97391592353E+03  0.98949065107E+03  0.15294330000E+03 0.  0.
<mgrwt>
<rscale>  0 0.47571035E+03</rscale>
<asrwt>0</asrwt>
<pdfrwt beam="1">  1        2 0.28835696E+00 0.66407686E+03</pdfrwt>
<pdfrwt beam="2">  1       -2 0.20200007E-01 0.66407686E+03</pdfrwt>
<totfact> 0.16951118E+02</totfact>
</mgrwt>
</event>
<event>
 4    2  0.6387803E-007  0.6867214E+03  0.7818608E-02  0.1005751E+00
         -2   -1    0    0    0  501 -0.00000000000E+00  0.00000000000E+00  0.66083317384E+02  0.66083317433E+02  0.25500000000E-02 0.  1.
          2   -1    0    0  501    0  0.00000000000E+00 -0.00000000000E+00 -0.36982349293E+04  0.36982349293E+04  0.25500000000E-02 0. -1.
    8880023    1    1    2    0    0 -0.59381942635E+02  0.18506707487E+03 -0.20256006363E+04  0.21388417850E+04  0.65864270000E+03 0.  1.
    8880022    1    1    2    0    0  0.59381942635E+02 -0.18506707487E+03 -0.16065509756E+04  0.16254764617E+04  0.15294330000E+03 0.  0.
<mgrwt>
<rscale>  0 0.53198659E+03</rscale>
<asrwt>0</asrwt>
<pdfrwt beam="1">  1        2 0.56895906E+00 0.68672137E+03</pdfrwt>
<pdfrwt beam="2">  1       -2 0.10166667E-01 0.68672137E+03</pdfrwt>
<totfact> 0.42909706E+01</totfact>
</mgrwt>
</event>
<event>
 4    2  0.6387803E-007  0.6669618E+03  0.7818608E-02  0.1017941E+00
         -2   -1    0    0    0  501 -0.00000000000E+00  0.00000000000E+00  0.22489921683E+03  0.22489921685E+03  0.25500000000E-02 0.  1.
          2   -1    0    0  501    0  0.00000000000E+00 -0.00000000000E+00 -0.97929367185E+03  0.97929367185E+03  0.25500000000E-02 0. -1.
    8880023    1    1    2    0    0  0.10501326920E+03  0.13667231542E+00 -0.33665903128E+03  0.74711265214E+03  0.65864270000E+03 0.  1.
    8880022    1    1    2    0    0 -0.10501326920E+03 -0.13667231542E+00 -0.41773542374E+03  0.45708023656E+03  0.15294330000E+03 0.  0.
<mgrwt>
<rscale>  0 0.48436886E+03</rscale>
<asrwt>0</asrwt>
<pdfrwt beam="1">  1        2 0.15066056E+00 0.66696178E+03</pdfrwt>
<pdfrwt beam="2">  1       -2 0.34599880E-01 0.66696178E+03</pdfrwt>
<totfact> 0.20646915E+02</totfact>
</mgrwt>
</event>
<event>
 4    2  0.6387803E-007  0.1407112E+04  0.7818608E-02  0.8978176E-01
         -2   -1    0    0    0  501 -0.00000000000E+00  0.00000000000E+00  0.87193237116E+03  0.87193237117E+03  0.25500000000E-02 0.  1.
          2   -1    0    0  501    0  0.00000000000E+00 -0.00000000000E+00 -0.21434158385E+04  0.21434158385E+04  0.25500000000E-02 0. -1.
    8880023    1    1    2    0    0 -0.11621895954E+04 -0.44211949076E+03 -0.10190295203E+04  0.17373501862E+04  0.65864270000E+03 0.  0.
    8880022    1    1    2    0    0  0.11621895954E+04  0.44211949076E+03 -0.25245394704E+03  0.12779980235E+04  0.15294330000E+03 0.  0.
<mgrwt>
<rscale>  0 0.13668419E+04</rscale>
<asrwt>0</asrwt>
<pdfrwt beam="1">  1        2 0.32975628E+00 0.14071121E+04</pdfrwt>
<pdfrwt beam="2">  1       -2 0.13414344E+00 0.14071121E+04</pdfrwt>
<totfact> 0.21275849E+00</totfact>
</mgrwt>
</event>
<event>
 4    2  0.6387803E-007  0.9605619E+03  0.7818608E-02  0.9435078E-01
          2   -1    0    0  501    0  0.00000000000E+00  0.00000000000E+00  0.23287186858E+04  0.23287186858E+04  0.25500000000E-02 0. -1.
         -2   -1    0    0    0  501 -0.00000000000E+00 -0.00000000000E+00 -0.30215381576E+03  0.30215381577E+03  0.25500000000E-02 0.  1.
    8880023    1    1    2    0    0  0.17556215694E+03  0.67679166163E+03  0.11084831697E+04  0.14667699779E+04  0.65864270000E+03 0.  1.
    8880022    1    1    2    0    0 -0.17556215694E+03 -0.67679166163E+03  0.91808170035E+03  0.11641025237E+04  0.15294330000E+03 0. -1.
<mgrwt>
<rscale>  0 0.89244283E+03</rscale>
<asrwt>0</asrwt>
<pdfrwt beam="1">  1        2 0.35826442E+00 0.96056193E+03</pdfrwt>
<pdfrwt beam="2">  1       -2 0.46485201E-01 0.96056193E+03</pdfrwt>
<totfact> 0.19416560E+01</totfact>
</mgrwt>
</event>
<event>
 4    2  0.6387803E-007  0.7121231E+03  0.7818608E-02  0.9950200E-01
         -2   -1    0    0    0  501 -0.00000000000E+00  0.00000000000E+00  0.84194301181E+03  0.84194301181E+03  0.25500000000E-02 0.  1.
          2   -1    0    0  501    0  0.00000000000E+00 -0.00000000000E+00 -0.16500373168E+04  0.16500373168E+04  0.25500000000E-02 0. -1.
    8880023    1    1    2    0    0 -0.22098506790E+03  0.15644413767E+03  0.67226286046E+03  0.97931441747E+03  0.65864270000E+03 0.  1.
    8880022    1    1    2    0    0  0.22098506790E+03 -0.15644413767E+03 -0.14803571654E+04  0.15126659111E+04  0.15294330000E+03 0.  0.
<mgrwt>
<rscale>  0 0.57888873E+03</rscale>
<asrwt>0</asrwt>
<pdfrwt beam="1">  1        2 0.25385189E+00 0.71212315E+03</pdfrwt>
<pdfrwt beam="2">  1       -2 0.12952969E+00 0.71212315E+03</pdfrwt>
<totfact> 0.47425020E+00</totfact>
</mgrwt>
</event>
<event>
 4    2  0.6387803E-007  0.7588154E+03  0.7818608E-02  0.9808184E-01
         -2   -1    0    0    0  501 -0.00000000000E+00  0.00000000000E+00  0.44658932237E+03  0.44658932238E+03  0.25500000000E-02 0.  1.
          2   -1    0    0  501    0  0.00000000000E+00 -0.00000000000E+00 -0.98016296127E+03  0.98016296127E+03  0.25500000000E-02 0. -1.
    8880023    1    1    2    0    0 -0.64990342473E+01  0.37676038829E+03 -0.37196957521E+01  0.75882453178E+03  0.65864270000E+03 0. -1.
    8880022    1    1    2    0    0  0.64990342473E+01 -0.37676038829E+03 -0.52985394315E+03  0.66792775187E+03  0.15294330000E+03 0.  0.
<mgrwt>
<rscale>  0 0.64925190E+03</rscale>
<asrwt>0</asrwt>
<pdfrwt beam="1">  1        2 0.15079430E+00 0.75881541E+03</pdfrwt>
<pdfrwt beam="2">  1       -2 0.68706050E-01 0.75881541E+03</pdfrwt>
<totfact> 0.50958144E+01</totfact>
</mgrwt>
</event>
<event>
 4    2  0.6387803E-007  0.9606529E+03  0.7818608E-02  0.9434950E-01
          2   -1    0    0  501    0  0.00000000000E+00  0.00000000000E+00  0.20967610659E+04  0.20967610659E+04  0.25500000000E-02 0. -1.
         -2   -1    0    0    0  501 -0.00000000000E+00 -0.00000000000E+00 -0.44232268821E+03  0.44232268822E+03  0.25500000000E-02 0.  1.
    8880023    1    1    2    0    0  0.20170620238E+03  0.66959575803E+03  0.29879821770E+03  0.10060489314E+04  0.65864270000E+03 0.  1.
    8880022    1    1    2    0    0 -0.20170620238E+03 -0.66959575803E+03  0.13556401600E+04  0.15330348227E+04  0.15294330000E+03 0.  0.
<mgrwt>
<rscale>  0 0.89254432E+03</rscale>
<asrwt>0</asrwt>
<pdfrwt beam="1">  1        2 0.32257862E+00 0.96065294E+03</pdfrwt>
<pdfrwt beam="2">  1       -2 0.68049645E-01 0.96065294E+03</pdfrwt>
<totfact> 0.11770073E+01</totfact>
</mgrwt>
</event>
<event>
 4    2  0.6387803E-007  0.1377239E+04  0.7818608E-02  0.9001574E-01
         -2   -1    0    0    0  501 -0.00000000000E+00  0.00000000000E+00  0.10180327133E+04  0.10180327133E+04  0.25500000000E-02 0.  1.
          2   -1    0    0  501    0  0.00000000000E+00 -0.00000000000E+00 -0.21581646359E+04  0.21581646359E+04  0.25500000000E-02 0. -1.
    8880023    1    1    2    0    0  0.79685857236E+03 -0.90994132631E+03 -0.13620477716E+04  0.19369979711E+04  0.65864270000E+03 0.  0.
    8880022    1    1    2    0    0 -0.79685857236E+03  0.90994132631E+03  0.22191584898E+03  0.12391993781E+04  0.15294330000E+03 0.  0.
<mgrwt>
<rscale>  0 0.13358964E+04</rscale>
<asrwt>0</asrwt>
<pdfrwt beam="1">  1        2 0.33202533E+00 0.13772389E+04</pdfrwt>
<pdfrwt beam="2">  1       -2 0.15662042E+00 0.13772389E+04</pdfrwt>
<totfact> 0.13895783E+00</totfact>
</mgrwt>
</event>
<event>
 4    2  0.6387803E-007  0.8263800E+03  0.7818608E-02  0.9656417E-01
          2   -1    0    0  501    0  0.00000000000E+00  0.00000000000E+00  0.14334135016E+04  0.14334135016E+04  0.25500000000E-02 0. -1.
         -2   -1    0    0    0  501 -0.00000000000E+00 -0.00000000000E+00 -0.35309630939E+03  0.35309630940E+03  0.25500000000E-02 0.  1.
    8880023    1    1    2    0    0 -0.47581419051E+03 -0.15064710495E+03  0.37105126260E+03  0.90586033132E+03  0.65864270000E+03 0.  0.
    8880022    1    1    2    0    0  0.47581419051E+03  0.15064710495E+03  0.70926592958E+03  0.88064947965E+03  0.15294330000E+03 0.  0.
<mgrwt>
<rscale>  0 0.73672048E+03</rscale>
<asrwt>0</asrwt>
<pdfrwt beam="1">  1        2 0.22052515E+00 0.82638000E+03</pdfrwt>
<pdfrwt beam="2">  1       -2 0.54322509E-01 0.82638000E+03</pdfrwt>
<totfact> 0.44769241E+01</totfact>
</mgrwt>
</event>
<event>
 4    2  0.6387803E-007  0.6641694E+03  0.7818608E-02  0.1020241E+00
          2   -1    0    0  501    0  0.00000000000E+00  0.00000000000E+00  0.14873491285E+04  0.14873491285E+04  0.25500000000E-02 0. -1.
         -2   -1    0    0    0  501 -0.00000000000E+00 -0.00000000000E+00 -0.19460290021E+03  0.19460290022E+03  0.25500000000E-02 0.  1.
    8880023    1    1    2    0    0 -0.59242497775E+02 -0.61653438789E+02  0.40681189298E+03  0.77885617580E+03  0.65864270000E+03 0.  1.
    8880022    1    1    2    0    0  0.59242497775E+02  0.61653438789E+02  0.88593433533E+03  0.90309585293E+03  0.15294330000E+03 0.  0.
<mgrwt>
<rscale>  0 0.47599877E+03</rscale>
<asrwt>0</asrwt>
<pdfrwt beam="1">  1        2 0.22882294E+00 0.66416943E+03</pdfrwt>
<pdfrwt beam="2">  1       -2 0.29938908E-01 0.66416943E+03</pdfrwt>
<totfact> 0.13601394E+02</totfact>
</mgrwt>
</event>
<event>
 4    2  0.6387803E-007  0.1054519E+04  0.7818608E-02  0.9313469E-01
          2   -1    0    0  501    0  0.00000000000E+00  0.00000000000E+00  0.20013807319E+04  0.20013807319E+04  0.25500000000E-02 0. -1.
         -2   -1    0    0    0  501 -0.00000000000E+00 -0.00000000000E+00 -0.12143189534E+04  0.12143189534E+04  0.25500000000E-02 0.  1.
    8880023    1    1    2    0    0  0.49790875692E+03  0.65596250344E+03 -0.86468972587E+03  0.13637076169E+04  0.65864270000E+03 0.  0.
    8880022    1    1    2    0    0 -0.49790875692E+03 -0.65596250344E+03  0.16517515044E+04  0.18519920684E+04  0.15294330000E+03 0.  0.
<mgrwt>
<rscale>  0 0.99552307E+03</rscale>
<asrwt>0</asrwt>
<pdfrwt beam="1">  1        2 0.30790473E+00 0.10545189E+04</pdfrwt>
<pdfrwt beam="2">  1       -2 0.18681830E+00 0.10545189E+04</pdfrwt>
<totfact> 0.10754362E+00</totfact>
</mgrwt>
</event>
<event>
 4    2  0.6387803E-007  0.7509521E+03  0.7818608E-02  0.9829121E-01
          2   -1    0    0  501    0  0.00000000000E+00  0.00000000000E+00  0.15121058377E+04  0.15121058378E+04  0.25500000000E-02 0. -1.
         -2   -1    0    0    0  501 -0.00000000000E+00 -0.00000000000E+00 -0.52923216321E+03  0.52923216322E+03  0.25500000000E-02 0.  1.
    8880023    1    1    2    0    0 -0.38136412204E+02  0.35869826550E+03 -0.21491214012E+03  0.78109939562E+03  0.65864270000E+03 0.  1.
    8880022    1    1    2    0    0  0.38136412204E+02 -0.35869826550E+03  0.11977858147E+04  0.12602386053E+04  0.15294330000E+03 0.  0.
<mgrwt>
<rscale>  0 0.63822884E+03</rscale>
<asrwt>0</asrwt>
<pdfrwt beam="1">  1        2 0.23263167E+00 0.75095209E+03</pdfrwt>
<pdfrwt beam="2">  1       -2 0.81420334E-01 0.75095209E+03</pdfrwt>
<totfact> 0.17003016E+01</totfact>
</mgrwt>
</event>
<event>
 4    2  0.6387803E-007  0.7701050E+03  0.7818608E-02  0.9779616E-01
         -2   -1    0    0    0  501 -0.00000000000E+00  0.00000000000E+00  0.98893255242E+03  0.98893255242E+03  0.25500000000E-02 0.  1.
          2   -1    0    0  501    0  0.00000000000E+00 -0.00000000000E+00 -0.64670067867E+03  0.64670067867E+03  0.25500000000E-02 0. -1.
    8880023    1    1    2    0    0  0.28341503980E+03 -0.28094021011E+03  0.72812448372E+03  0.10598240215E+04  0.65864270000E+03 0.  0.
    8880022    1    1    2    0    0 -0.28341503980E+03  0.28094021011E+03 -0.38589260997E+03  0.57580920962E+03  0.15294330000E+03 0.  0.
<mgrwt>
<rscale>  0 0.66468040E+03</rscale>
<asrwt>0</asrwt>
<pdfrwt beam="1">  1        2 0.99492413E-01 0.77010499E+03</pdfrwt>
<pdfrwt beam="2">  1       -2 0.15214347E+00 0.77010499E+03</pdfrwt>
<totfact> 0.13223357E+01</totfact>
</mgrwt>
</event>
<event>
 4    2  0.6387803E-007  0.7292045E+03  0.7818608E-02  0.9892589E-01
          2   -1    0    0  501    0  0.00000000000E+00  0.00000000000E+00  0.20033666787E+04  0.20033666787E+04  0.25500000000E-02 0. -1.
         -2   -1    0    0    0  501 -0.00000000000E+00 -0.00000000000E+00 -0.28413891172E+03  0.28413891173E+03  0.25500000000E-02 0.  1.
    8880023    1    1    2    0    0 -0.30362394373E+03 -0.75772578579E+02  0.23979025508E+03  0.76761875665E+03  0.65864270000E+03 0.  1.
    8880022    1    1    2    0    0  0.30362394373E+03  0.75772578579E+02  0.14794375119E+04  0.15198868338E+04  0.15294330000E+03 0.  0.
<mgrwt>
<rscale>  0 0.60621801E+03</rscale>
<asrwt>0</asrwt>
<pdfrwt beam="1">  1        2 0.30821025E+00 0.72920449E+03</pdfrwt>
<pdfrwt beam="2">  1       -2 0.43713680E-01 0.72920449E+03</pdfrwt>
<totfact> 0.34161043E+01</totfact>
</mgrwt>
</event>
<event>
 4    2  0.6387803E-007  0.6972128E+03  0.7818608E-02  0.1000897E+00
          2   -1    0    0  501    0  0.00000000000E+00  0.00000000000E+00  0.19312316547E+04  0.19312316547E+04  0.25500000000E-02 0. -1.
         -2   -1    0    0    0  501 -0.00000000000E+00 -0.00000000000E+00 -0.60250494498E+03  0.60250494499E+03  0.25500000000E-02 0.  1.
    8880023    1    1    2    0    0 -0.22229696508E+03 -0.53661462357E+02 -0.38610035154E+03  0.79698129272E+03  0.65864270000E+03 0.  1.
    8880022    1    1    2    0    0  0.22229696508E+03  0.53661462357E+02  0.17148270613E+04  0.17367553070E+04  0.15294330000E+03 0.  0.
<mgrwt>
<rscale>  0 0.55258843E+03</rscale>
<asrwt>0</asrwt>
<pdfrwt beam="1">  1        2 0.29711256E+00 0.69721281E+03</pdfrwt>
<pdfrwt beam="2">  1       -2 0.92693068E-01 0.69721281E+03</pdfrwt>
<totfact> 0.75102211E+00</totfact>
</mgrwt>
</event>
<event>
 4    2  0.6387803E-007  0.7797291E+03  0.7818608E-02  0.9756474E-01
          2   -1    0    0  501    0  0.00000000000E+00  0.00000000000E+00  0.20436891858E+04  0.20436891858E+04  0.25500000000E-02 0. -1.
         -2   -1    0    0    0  501 -0.00000000000E+00 -0.00000000000E+00 -0.45455808344E+03  0.45455808345E+03  0.25500000000E-02 0.  1.
    8880023    1    1    2    0    0  0.16784846195E+03  0.38209173101E+03 -0.67861374922E+02  0.78267654210E+03  0.65864270000E+03 0.  0.
    8880022    1    1    2    0    0 -0.16784846195E+03 -0.38209173101E+03  0.16569924773E+04  0.17155707272E+04  0.15294330000E+03 0. -1.
<mgrwt>
<rscale>  0 0.67751646E+03</rscale>
<asrwt>0</asrwt>
<pdfrwt beam="1">  1        2 0.31441372E+00 0.77972906E+03</pdfrwt>
<pdfrwt beam="2">  1       -2 0.69932014E-01 0.77972906E+03</pdfrwt>
<totfact> 0.12140862E+01</totfact>
</mgrwt>
</event>
<event>
 4    2  0.6387803E-007  0.1081175E+04  0.7818608E-02  0.9282310E-01
         -2   -1    0    0    0  501 -0.00000000000E+00  0.00000000000E+00  0.52748483946E+03  0.52748483946E+03  0.25500000000E-02 0.  1.
          2   -1    0    0  501    0  0.00000000000E+00 -0.00000000000E+00 -0.38423504017E+04  0.38423504017E+04  0.25500000000E-02 0. -1.
    8880023    1    1    2    0    0  0.75613764485E+03 -0.40420920155E+03 -0.33275730675E+04  0.34988115042E+04  0.65864270000E+03 0. -1.
    8880022    1    1    2    0    0 -0.75613764485E+03  0.40420920155E+03  0.12707505228E+02  0.87102373692E+03  0.15294330000E+03 0.  0.
<mgrwt>
<rscale>  0 0.10242782E+04</rscale>
<asrwt>0</asrwt>
<pdfrwt beam="1">  1        2 0.59113081E+00 0.10811750E+04</pdfrwt>
<pdfrwt beam="2">  1       -2 0.81151516E-01 0.10811750E+04</pdfrwt>
<totfact> 0.62931908E-01</totfact>
</mgrwt>
</event>
<event>
 4    2  0.6387803E-007  0.6676014E+03  0.7818608E-02  0.1017444E+00
          2   -1    0    0  501    0  0.00000000000E+00  0.00000000000E+00  0.27930233490E+04  0.27930233490E+04  0.25500000000E-02 0. -1.
         -2   -1    0    0    0  501 -0.00000000000E+00 -0.00000000000E+00 -0.19163924918E+03  0.19163924920E+03  0.25500000000E-02 0.  1.
    8880023    1    1    2    0    0 -0.10561444096E+03  0.26963176790E+02  0.40621607911E+03  0.78147497224E+03  0.65864270000E+03 0.  1.
    8880022    1    1    2    0    0  0.10561444096E+03 -0.26963176790E+02  0.21951680207E+04  0.22031876259E+04  0.15294330000E+03 0.  0.
<mgrwt>
<rscale>  0 0.48620380E+03</rscale>
<asrwt>0</asrwt>
<pdfrwt beam="1">  1        2 0.42969592E+00 0.66760140E+03</pdfrwt>
<pdfrwt beam="2">  1       -2 0.29482960E-01 0.66760140E+03</pdfrwt>
<totfact> 0.26362258E+01</totfact>
</mgrwt>
</event>
<event>
 4    2  0.6387803E-007  0.9130733E+03  0.7818608E-02  0.9505362E-01
         -2   -1    0    0    0  501 -0.00000000000E+00  0.00000000000E+00  0.48293356697E+03  0.48293356698E+03  0.25500000000E-02 0.  1.
          2   -1    0    0  501    0  0.00000000000E+00 -0.00000000000E+00 -0.13989402506E+04  0.13989402506E+04  0.25500000000E-02 0. -1.
    8880023    1    1    2    0    0 -0.35263354689E+03 -0.52492112880E+03 -0.24094764217E+03  0.94432970004E+03  0.65864270000E+03 0.  0.
    8880022    1    1    2    0    0  0.35263354689E+03  0.52492112880E+03 -0.67505904147E+03  0.93754411754E+03  0.15294330000E+03 0.  0.
<mgrwt>
<rscale>  0 0.83889623E+03</rscale>
<asrwt>0</asrwt>
<pdfrwt beam="1">  1        2 0.21522158E+00 0.91307328E+03</pdfrwt>
<pdfrwt beam="2">  1       -2 0.74297473E-01 0.91307328E+03</pdfrwt>
<totfact> 0.23740432E+01</totfact>
</mgrwt>
</event>
<event>
 4    2  0.6387803E-007  0.7326797E+03  0.7818608E-02  0.9881808E-01
         -2   -1    0    0    0  501 -0.00000000000E+00  0.00000000000E+00  0.12142243494E+03  0.12142243497E+03  0.25500000000E-02 0.  1.
          2   -1    0    0  501    0  0.00000000000E+00 -0.00000000000E+00 -0.26523218708E+04  0.26523218708E+04  0.25500000000E-02 0. -1.
    8880023    1    1    2    0    0 -0.31121326364E+03  0.78457727346E+02 -0.12969393132E+04  0.14895875599E+04  0.65864270000E+03 0.  1.
    8880022    1    1    2    0    0  0.31121326364E+03 -0.78457727346E+02 -0.12339601227E+04  0.12841567458E+04  0.15294330000E+03 0. -1.
<mgrwt>
<rscale>  0 0.61151119E+03</rscale>
<asrwt>0</asrwt>
<pdfrwt beam="1">  1        2 0.40804947E+00 0.73267968E+03</pdfrwt>
<pdfrwt beam="2">  1       -2 0.18680377E-01 0.73267968E+03</pdfrwt>
<totfact> 0.71281970E+01</totfact>
</mgrwt>
</event>
<event>
 4    2  0.6387803E-007  0.7384998E+03  0.7818608E-02  0.9864339E-01
          2   -1    0    0  501    0  0.00000000000E+00  0.00000000000E+00  0.10459260897E+04  0.10459260897E+04  0.25500000000E-02 0. -1.
         -2   -1    0    0    0  501 -0.00000000000E+00 -0.00000000000E+00 -0.37251005309E+03  0.37251005310E+03  0.25500000000E-02 0.  1.
    8880023    1    1    2    0    0 -0.24212349552E+03 -0.23010419713E+03  0.11118760489E+03  0.74682301676E+03  0.65864270000E+03 0.  1.
    8880022    1    1    2    0    0  0.24212349552E+03  0.23010419713E+03  0.56222843173E+03  0.67161312605E+03  0.15294330000E+03 0.  0.
<mgrwt>
<rscale>  0 0.62021144E+03</rscale>
<asrwt>0</asrwt>
<pdfrwt beam="1">  1        2 0.16091171E+00 0.73849979E+03</pdfrwt>
<pdfrwt beam="2">  1       -2 0.57309239E-01 0.73849979E+03</pdfrwt>
<totfact> 0.68264089E+01</totfact>
</mgrwt>
</event>
<event>
 4    2  0.6387803E-007  0.7705915E+03  0.7818608E-02  0.9778421E-01
          2   -1    0    0  501    0  0.00000000000E+00  0.00000000000E+00  0.15696191495E+04  0.15696191496E+04  0.25500000000E-02 0. -1.
         -2   -1    0    0    0  501 -0.00000000000E+00 -0.00000000000E+00 -0.70665209826E+03  0.70665209827E+03  0.25500000000E-02 0.  1.
    8880023    1    1    2    0    0 -0.70853643675E+02  0.39367603444E+03 -0.45196937037E+03  0.89335747432E+03  0.65864270000E+03 0.  1.
    8880022    1    1    2    0    0  0.70853643675E+02 -0.39367603444E+03  0.13149364217E+04  0.13829137735E+04  0.15294330000E+03 0.  0.
<mgrwt>
<rscale>  0 0.66533584E+03</rscale>
<asrwt>0</asrwt>
<pdfrwt beam="1">  1        2 0.24147987E+00 0.77059150E+03</pdfrwt>
<pdfrwt beam="2">  1       -2 0.10871571E+00 0.77059150E+03</pdfrwt>
<totfact> 0.80222260E+00</totfact>
</mgrwt>
</event>
<event>
 4    2  0.6387803E-007  0.6639342E+03  0.7818608E-02  0.1020445E+00
         -2   -1    0    0    0  501 -0.00000000000E+00  0.00000000000E+00  0.23515808885E+03  0.23515808887E+03  0.25500000000E-02 0.  1.
          2   -1    0    0  501    0  0.00000000000E+00 -0.00000000000E+00 -0.76139324184E+03  0.76139324185E+03  0.25500000000E-02 0. -1.
    8880023    1    1    2    0    0  0.53971158762E+02  0.63917903904E+02 -0.35808186722E+03  0.75434157668E+03  0.65864270000E+03 0.  1.
    8880022    1    1    2    0    0 -0.53971158762E+02 -0.63917903904E+02 -0.16815328577E+03  0.24220975403E+03  0.15294330000E+03 0.  1.
<mgrwt>
<rscale>  0 0.47526428E+03</rscale>
<asrwt>0</asrwt>
<pdfrwt beam="1">  1        2 0.11713742E+00 0.66393418E+03</pdfrwt>
<pdfrwt beam="2">  1       -2 0.36178168E-01 0.66393418E+03</pdfrwt>
<totfact> 0.26750494E+02</totfact>
</mgrwt>
</event>
<event>
 4    2  0.6387803E-007  0.6790825E+03  0.7818608E-02  0.1009847E+00
          2   -1    0    0  501    0  0.00000000000E+00  0.00000000000E+00  0.14721794915E+04  0.14721794915E+04  0.25500000000E-02 0. -1.
         -2   -1    0    0    0  501 -0.00000000000E+00 -0.00000000000E+00 -0.25160030188E+03  0.25160030189E+03  0.25500000000E-02 0.  1.
    8880023    1    1    2    0    0  0.15544403111E+03 -0.56391490896E+02  0.24404137155E+03  0.72160185999E+03  0.65864270000E+03 0.  1.
    8880022    1    1    2    0    0 -0.15544403111E+03  0.56391490896E+02  0.97653781808E+03  0.10021779334E+04  0.15294330000E+03 0.  0.
<mgrwt>
<rscale>  0 0.51535303E+03</rscale>
<asrwt>0</asrwt>
<pdfrwt beam="1">  1        2 0.22648915E+00 0.67908251E+03</pdfrwt>
<pdfrwt beam="2">  1       -2 0.38707739E-01 0.67908251E+03</pdfrwt>
<totfact> 0.85161498E+01</totfact>
</mgrwt>
</event>
<event>
 4    2  0.6387803E-007  0.7168153E+03  0.7818608E-02  0.9933513E-01
          2   -1    0    0  501    0  0.00000000000E+00  0.00000000000E+00  0.16363266770E+04  0.16363266770E+04  0.25500000000E-02 0. -1.
         -2   -1    0    0    0  501 -0.00000000000E+00 -0.00000000000E+00 -0.24816097998E+03  0.24816097999E+03  0.25500000000E-02 0.  1.
    8880023    1    1    2    0    0  0.14095274184E+03 -0.24524745173E+03  0.35007550192E+03  0.79773244344E+03  0.65864270000E+03 0.  0.
    8880022    1    1    2    0    0 -0.14095274184E+03  0.24524745173E+03  0.10380901951E+04  0.10867552135E+04  0.15294330000E+03 0. -1.
<mgrwt>
<rscale>  0 0.58664245E+03</rscale>
<asrwt>0</asrwt>
<pdfrwt beam="1">  1        2 0.25174255E+00 0.71681531E+03</pdfrwt>
<pdfrwt beam="2">  1       -2 0.38178615E-01 0.71681531E+03</pdfrwt>
<totfact> 0.70697195E+01</totfact>
</mgrwt>
</event>
<event>
 4    2  0.6387803E-007  0.6844784E+03  0.7818608E-02  0.1006896E+00
         -2   -1    0    0    0  501 -0.00000000000E+00  0.00000000000E+00  0.21306590840E+03  0.21306590841E+03  0.25500000000E-02 0.  1.
          2   -1    0    0  501    0  0.00000000000E+00 -0.00000000000E+00 -0.16392736094E+04  0.16392736094E+04  0.25500000000E-02 0. -1.
    8880023    1    1    2    0    0 -0.80460352720E+02  0.16800772363E+03 -0.38857928936E+03  0.78708610326E+03  0.65864270000E+03 0.  1.
    8880022    1    1    2    0    0  0.80460352720E+02 -0.16800772363E+03 -0.10376284116E+04  0.10652534145E+04  0.15294330000E+03 0.  0.
<mgrwt>
<rscale>  0 0.52727169E+03</rscale>
<asrwt>0</asrwt>
<pdfrwt beam="1">  1        2 0.25219593E+00 0.68447839E+03</pdfrwt>
<pdfrwt beam="2">  1       -2 0.32779372E-01 0.68447839E+03</pdfrwt>
<totfact> 0.94515230E+01</totfact>
</mgrwt>
</event>
<event>
 4    2  0.6387803E-007  0.1007816E+04  0.7818608E-02  0.9371403E-01
          2   -1    0    0  501    0  0.00000000000E+00  0.00000000000E+00  0.33942468891E+04  0.33942468891E+04  0.25500000000E-02 0. -1.
         -2   -1    0    0    0  501 -0.00000000000E+00 -0.00000000000E+00 -0.30601115249E+03  0.30601115250E+03  0.25500000000E-02 0.  1.
    8880023    1    1    2    0    0  0.74546003037E+03  0.16177697900E+03  0.81041308182E+03  0.12932370306E+04  0.65864270000E+03 0.  0.
    8880022    1    1    2    0    0 -0.74546003037E+03 -0.16177697900E+03  0.22778226548E+04  0.24070210110E+04  0.15294330000E+03 0.  0.
<mgrwt>
<rscale>  0 0.94466947E+03</rscale>
<asrwt>0</asrwt>
<pdfrwt beam="1">  1        2 0.52219182E+00 0.10078158E+04</pdfrwt>
<pdfrwt beam="2">  1       -2 0.47078640E-01 0.10078158E+04</pdfrwt>
<totfact> 0.42489389E+00</totfact>
</mgrwt>
</event>
<event>
 4    2  0.6387803E-007  0.7656712E+03  0.7818608E-02  0.9790641E-01
          2   -1    0    0  501    0  0.00000000000E+00  0.00000000000E+00  0.27156331815E+03  0.27156331816E+03  0.25500000000E-02 0. -1.
         -2   -1    0    0    0  501 -0.00000000000E+00 -0.00000000000E+00 -0.23792358170E+04  0.23792358170E+04  0.25500000000E-02 0.  1.
    8880023    1    1    2    0    0 -0.10083637038E+03 -0.37719255683E+03 -0.20958233020E+04  0.22313062806E+04  0.65864270000E+03 0.  1.
    8880022    1    1    2    0    0  0.10083637038E+03  0.37719255683E+03 -0.11849196853E+02  0.41949285453E+03  0.15294330000E+03 0.  0.
<mgrwt>
<rscale>  0 0.65867253E+03</rscale>
<asrwt>0</asrwt>
<pdfrwt beam="1">  1        2 0.41778974E-01 0.76567121E+03</pdfrwt>
<pdfrwt beam="2">  1       -2 0.36603627E+00 0.76567121E+03</pdfrwt>
<totfact> 0.15896651E+00</totfact>
</mgrwt>
</event>
<event>
 4    2  0.6387803E-007  0.6734109E+03  0.7818608E-02  0.1013327E+00
         -2   -1    0    0    0  501 -0.00000000000E+00  0.00000000000E+00  0.36653703781E+03  0.36653703782E+03  0.25500000000E-02 0.  1.
          2   -1    0    0  501    0  0.00000000000E+00 -0.00000000000E+00 -0.93929276538E+03  0.93929276539E+03  0.25500000000E-02 0. -1.
    8880023    1    1    2    0    0  0.13988243985E+03 -0.10242686533E+02  0.24187302541E+02  0.67384511683E+03  0.65864270000E+03 0.  1.
    8880022    1    1    2    0    0 -0.13988243985E+03  0.10242686533E+02 -0.59694303011E+03  0.63198468638E+03  0.15294330000E+03 0.  0.
<mgrwt>
<rscale>  0 0.50173450E+03</rscale>
<asrwt>0</asrwt>
<pdfrwt beam="1">  1        2 0.14450658E+00 0.67341088E+03</pdfrwt>
<pdfrwt beam="2">  1       -2 0.56390314E-01 0.67341088E+03</pdfrwt>
<totfact> 0.83061655E+01</totfact>
</mgrwt>
</event>
<event>
 4    2  0.6387803E-007  0.7460573E+03  0.7818608E-02  0.9842641E-01
         -2   -1    0    0    0  501 -0.00000000000E+00  0.00000000000E+00  0.21726584571E+03  0.21726584572E+03  0.25500000000E-02 0.  1.
          2   -1    0    0  501    0  0.00000000000E+00 -0.00000000000E+00 -0.15743511609E+04  0.15743511609E+04  0.25500000000E-02 0. -1.
    8880023    1    1    2    0    0  0.30939262701E+03  0.16452204486E+03 -0.65781580393E+03  0.99464724353E+03  0.65864270000E+03 0.  0.
    8880022    1    1    2    0    0 -0.30939262701E+03 -0.16452204486E+03 -0.69926951122E+03  0.79696976306E+03  0.15294330000E+03 0.  0.
<mgrwt>
<rscale>  0 0.63123524E+03</rscale>
<asrwt>0</asrwt>
<pdfrwt beam="1">  1        2 0.24220786E+00 0.74605731E+03</pdfrwt>
<pdfrwt beam="2">  1       -2 0.33425516E-01 0.74605731E+03</pdfrwt>
<totfact> 0.98304209E+01</totfact>
</mgrwt>
</event>
<event>
 4    2  0.6387803E-007  0.9256346E+03  0.7818608E-02  0.9486073E-01
          2   -1    0    0  501    0  0.00000000000E+00  0.00000000000E+00  0.14012572043E+04  0.14012572043E+04  0.25500000000E-02 0. -1.
         -2   -1    0    0    0  501 -0.00000000000E+00 -0.00000000000E+00 -0.73442571424E+03  0.73442571424E+03  0.25500000000E-02 0.  1.
    8880023    1    1    2    0    0 -0.31048343233E+03 -0.57147989587E+03 -0.28881529966E+03  0.96964618120E+03  0.65864270000E+03 0.  0.
    8880022    1    1    2    0    0  0.31048343233E+03  0.57147989587E+03  0.95564678976E+03  0.11660367374E+04  0.15294330000E+03 0.  0.
<mgrwt>
<rscale>  0 0.85318437E+03</rscale>
<asrwt>0</asrwt>
<pdfrwt beam="1">  1        2 0.21557803E+00 0.92563461E+03</pdfrwt>
<pdfrwt beam="2">  1       -2 0.11298857E+00 0.92563461E+03</pdfrwt>
<totfact> 0.89077220E+00</totfact>
</mgrwt>
</event>
<event>
 4    2  0.6387803E-007  0.7668553E+03  0.7818608E-02  0.9787673E-01
          2   -1    0    0  501    0  0.00000000000E+00  0.00000000000E+00  0.89044012952E+03  0.89044012953E+03  0.25500000000E-02 0. -1.
         -2   -1    0    0    0  501 -0.00000000000E+00 -0.00000000000E+00 -0.12230672758E+04  0.12230672758E+04  0.25500000000E-02 0.  1.
    8880023    1    1    2    0    0  0.38485369976E+03  0.78386308278E+02  0.67478995815E+03  0.10214736793E+04  0.65864270000E+03 0. -1.
    8880022    1    1    2    0    0 -0.38485369976E+03 -0.78386308278E+02 -0.10074171044E+04  0.10920337261E+04  0.15294330000E+03 0.  0.
<mgrwt>
<rscale>  0 0.66028316E+03</rscale>
<asrwt>0</asrwt>
<pdfrwt beam="1">  1        2 0.13699079E+00 0.76685526E+03</pdfrwt>
<pdfrwt beam="2">  1       -2 0.18816420E+00 0.76685526E+03</pdfrwt>
<totfact> 0.48359003E+00</totfact>
</mgrwt>
</event>
<event>
 4    2  0.6387803E-007  0.6687175E+03  0.7818608E-02  0.1016599E+00
          2   -1    0    0  501    0  0.00000000000E+00  0.00000000000E+00  0.50087835597E+03  0.50087835598E+03  0.25500000000E-02 0. -1.
         -2   -1    0    0    0  501 -0.00000000000E+00 -0.00000000000E+00 -0.37084069392E+03  0.37084069393E+03  0.25500000000E-02 0.  1.
    8880023    1    1    2    0    0 -0.93192398739E+02 -0.68469854651E+02  0.79477179623E+02  0.67342391740E+03  0.65864270000E+03 0.  0.
    8880022    1    1    2    0    0  0.93192398739E+02  0.68469854651E+02  0.50560482431E+02  0.19829513251E+03  0.15294330000E+03 0.  1.
<mgrwt>
<rscale>  0 0.48934005E+03</rscale>
<asrwt>0</asrwt>
<pdfrwt beam="1">  1        2 0.77058208E-01 0.66871754E+03</pdfrwt>
<pdfrwt beam="2">  1       -2 0.57052415E-01 0.66871754E+03</pdfrwt>
<totfact> 0.17936206E+02</totfact>
</mgrwt>
</event>
<event>
 4    2  0.6387803E-007  0.6616443E+03  0.7818608E-02  0.1022532E+00
         -2   -1    0    0    0  501 -0.00000000000E+00  0.00000000000E+00  0.17270535814E+03  0.17270535816E+03  0.25500000000E-02 0.  1.
          2   -1    0    0  501    0  0.00000000000E+00 -0.00000000000E+00 -0.99618106619E+03  0.99618106619E+03  0.25500000000E-02 0. -1.
    8880023    1    1    2    0    0  0.16923803433E+02  0.60634818999E+02 -0.69384913175E+03  0.95874909142E+03  0.65864270000E+03 0.  1.
    8880022    1    1    2    0    0 -0.16923803433E+02 -0.60634818999E+02 -0.12962657629E+03  0.21013733294E+03  0.15294330000E+03 0. -1.
<mgrwt>
<rscale>  0 0.46783998E+03</rscale>
<asrwt>0</asrwt>
<pdfrwt beam="1">  1        2 0.15325862E+00 0.66164432E+03</pdfrwt>
<pdfrwt beam="2">  1       -2 0.26570056E-01 0.66164432E+03</pdfrwt>
<totfact> 0.32890312E+02</totfact>
</mgrwt>
</event>
<event>
 4    2  0.6387803E-007  0.8653571E+03  0.7818608E-02  0.9584104E-01
          2   -1    0    0  501    0  0.00000000000E+00  0.00000000000E+00  0.20081331695E+04  0.20081331695E+04  0.25500000000E-02 0. -1.
         -2   -1    0    0    0  501 -0.00000000000E+00 -0.00000000000E+00 -0.43986082313E+03  0.43986082314E+03  0.25500000000E-02 0.  1.
    8880023    1    1    2    0    0 -0.49413825001E+03  0.26619569777E+03  0.10300199344E+03  0.87146564852E+03  0.65864270000E+03 0.  0.
    8880022    1    1    2    0    0  0.49413825001E+03 -0.26619569777E+03  0.14652703529E+04  0.15765283441E+04  0.15294330000E+03 0.  0.
<mgrwt>
<rscale>  0 0.78357260E+03</rscale>
<asrwt>0</asrwt>
<pdfrwt beam="1">  1        2 0.30894357E+00 0.86535713E+03</pdfrwt>
<pdfrwt beam="2">  1       -2 0.67670895E-01 0.86535713E+03</pdfrwt>
<totfact> 0.13483492E+01</totfact>
</mgrwt>
</event>
<event>
 4    2  0.6886598E-007  0.7202279E+03  0.7818608E-02  0.9921816E-01
          2   -1    0    0  501    0  0.00000000000E+00  0.00000000000E+00  0.17639457149E+04  0.17639457149E+04  0.25500000000E-02 0. -1.
         -2   -1    0    0    0  501 -0.00000000000E+00 -0.00000000000E+00 -0.12349163026E+04  0.12349163027E+04  0.25500000000E-02 0.  1.
    8880023    1    1    2    0    0 -0.15522466617E+03 -0.24662373336E+03 -0.11121596582E+04  0.13250008582E+04  0.65864270000E+03 0.  1.
    8880022    1    1    2    0    0  0.15522466617E+03  0.24662373336E+03  0.16411890705E+04  0.16738611594E+04  0.15294330000E+03 0.  0.
<mgrwt>
<rscale>  0 0.59215556E+03</rscale>
<asrwt>0</asrwt>
<pdfrwt beam="1">  1        2 0.27137626E+00 0.72022786E+03</pdfrwt>
<pdfrwt beam="2">  1       -2 0.18998712E+00 0.72022786E+03</pdfrwt>
<totfact> 0.14603291E+00</totfact>
</mgrwt>
</event>
<event>
 4    2  0.6387803E-007  0.6639308E+03  0.7818608E-02  0.1020448E+00
         -2   -1    0    0    0  501 -0.00000000000E+00  0.00000000000E+00  0.23088876786E+04  0.23088876786E+04  0.25500000000E-02 0.  1.
          2   -1    0    0  501    0  0.00000000000E+00 -0.00000000000E+00 -0.22195333535E+03  0.22195333536E+03  0.25500000000E-02 0. -1.
    8880023    1    1    2    0    0  0.18708119538E+02  0.81510153201E+02  0.22164013785E+04  0.23137068042E+04  0.65864270000E+03 0.  1.
    8880022    1    1    2    0    0 -0.18708119538E+02 -0.81510153201E+02 -0.12946703527E+03  0.21713420976E+03  0.15294330000E+03 0.  0.
<mgrwt>
<rscale>  0 0.47525370E+03</rscale>
<asrwt>0</asrwt>
<pdfrwt beam="1">  1        2 0.34146667E-01 0.66393080E+03</pdfrwt>
<pdfrwt beam="2">  1       -2 0.35521349E+00 0.66393080E+03</pdfrwt>
<totfact> 0.23662542E+00</totfact>
</mgrwt>
</event>
<event>
 4    2  0.6387803E-007  0.7685936E+03  0.7818608E-02  0.9783347E-01
          2   -1    0    0  501    0  0.00000000000E+00  0.00000000000E+00  0.16647740965E+04  0.16647740965E+04  0.25500000000E-02 0. -1.
         -2   -1    0    0    0  501 -0.00000000000E+00 -0.00000000000E+00 -0.51054757757E+03  0.51054757758E+03  0.25500000000E-02 0.  1.
    8880023    1    1    2    0    0  0.13867473006E+03 -0.37107317558E+03 -0.16786340525E+03  0.78671107242E+03  0.65864270000E+03 0.  0.
    8880022    1    1    2    0    0 -0.13867473006E+03  0.37107317558E+03  0.13220899242E+04  0.13886106017E+04  0.15294330000E+03 0.  0.
<mgrwt>
<rscale>  0 0.66263957E+03</rscale>
<asrwt>0</asrwt>
<pdfrwt beam="1">  1        2 0.25611909E+00 0.76859364E+03</pdfrwt>
<pdfrwt beam="2">  1       -2 0.78545781E-01 0.76859364E+03</pdfrwt>
<totfact> 0.15148283E+01</totfact>
</mgrwt>
</event>
<event>
 4    2  0.6387803E-007  0.7587190E+03  0.7818608E-02  0.9808435E-01
          2   -1    0    0  501    0  0.00000000000E+00  0.00000000000E+00  0.81340194011E+03  0.81340194011E+03  0.25500000000E-02 0. -1.
         -2   -1    0    0    0  501 -0.00000000000E+00 -0.00000000000E+00 -0.91048980268E+03  0.91048980268E+03  0.25500000000E-02 0.  1.
    8880023    1    1    2    0    0 -0.16638043702E+01  0.37661849560E+03 -0.67622608621E+03  0.10163346818E+04  0.65864270000E+03 0.  1.
    8880022    1    1    2    0    0  0.16638043702E+01 -0.37661849560E+03  0.57913822364E+03  0.70755706100E+03  0.15294330000E+03 0.  0.
<mgrwt>
<rscale>  0 0.64911816E+03</rscale>
<asrwt>0</asrwt>
<pdfrwt beam="1">  1        2 0.12513876E+00 0.75871896E+03</pdfrwt>
<pdfrwt beam="2">  1       -2 0.14007535E+00 0.75871896E+03</pdfrwt>
<totfact> 0.12260656E+01</totfact>
</mgrwt>
</event>
<event>
 4    2  0.6387803E-007  0.6987339E+03  0.7818608E-02  0.1000249E+00
         -2   -1    0    0    0  501 -0.00000000000E+00  0.00000000000E+00  0.10785343010E+04  0.10785343010E+04  0.25500000000E-02 0.  1.
          2   -1    0    0  501    0  0.00000000000E+00 -0.00000000000E+00 -0.11187607933E+04  0.11187607933E+04  0.25500000000E-02 0. -1.
    8880023    1    1    2    0    0 -0.10828094571E+03  0.20662565496E+03  0.94390908760E+03  0.11743906916E+04  0.65864270000E+03 0.  1.
    8880022    1    1    2    0    0  0.10828094571E+03 -0.20662565496E+03 -0.98413557994E+03  0.10229044028E+04  0.15294330000E+03 0.  0.
<mgrwt>
<rscale>  0 0.55541002E+03</rscale>
<asrwt>0</asrwt>
<pdfrwt beam="1">  1        2 0.17211704E+00 0.69873395E+03</pdfrwt>
<pdfrwt beam="2">  1       -2 0.16592835E+00 0.69873395E+03</pdfrwt>
<totfact> 0.49767079E+00</totfact>
</mgrwt>
</event>
<event>
 4    2  0.6387803E-007  0.9214679E+03  0.7818608E-02  0.9492412E-01
          2   -1    0    0  501    0  0.00000000000E+00  0.00000000000E+00  0.25723016066E+04  0.25723016066E+04  0.25500000000E-02 0. -1.
         -2   -1    0    0    0  501 -0.00000000000E+00 -0.00000000000E+00 -0.11348274131E+04  0.11348274131E+04  0.25500000000E-02 0.  1.
    8880023    1    1    2    0    0  0.94938688974E+02  0.63740053589E+03 -0.89371335457E+03  0.12836769704E+04  0.65864270000E+03 0.  1.
    8880022    1    1    2    0    0 -0.94938688974E+02 -0.63740053589E+03  0.23311875481E+04  0.24234520493E+04  0.15294330000E+03 0.  0.
<mgrwt>
<rscale>  0 0.84845570E+03</rscale>
<asrwt>0</asrwt>
<pdfrwt beam="1">  1        2 0.39573871E+00 0.92146785E+03</pdfrwt>
<pdfrwt beam="2">  1       -2 0.17458883E+00 0.92146785E+03</pdfrwt>
<totfact> 0.63800477E-01</totfact>
</mgrwt>
</event>
<event>
 4    2  0.6387803E-007  0.6592691E+03  0.7818608E-02  0.1024918E+00
          2   -1    0    0  501    0  0.00000000000E+00  0.00000000000E+00  0.20344687249E+04  0.20344687249E+04  0.25500000000E-02 0. -1.
         -2   -1    0    0    0  501 -0.00000000000E+00 -0.00000000000E+00 -0.29478580390E+03  0.29478580391E+03  0.25500000000E-02 0.  1.
    8880023    1    1    2    0    0  0.14444378896E+02 -0.24838792497E+02  0.82075772697E+02  0.66435852100E+03  0.65864270000E+03 0.  1.
    8880022    1    1    2    0    0 -0.14444378896E+02  0.24838792497E+02  0.16576071483E+04  0.16648960078E+04  0.15294330000E+03 0.  0.
<mgrwt>
<rscale>  0 0.45952875E+03</rscale>
<asrwt>0</asrwt>
<pdfrwt beam="1">  1        2 0.31299519E+00 0.65926915E+03</pdfrwt>
<pdfrwt beam="2">  1       -2 0.45351662E-01 0.65926915E+03</pdfrwt>
<totfact> 0.30840078E+01</totfact>
</mgrwt>
</event>
<event>
 4    2  0.6387803E-007  0.7814660E+03  0.7818608E-02  0.9752405E-01
         -2   -1    0    0    0  501 -0.00000000000E+00  0.00000000000E+00  0.80926154212E+03  0.80926154212E+03  0.25500000000E-02 0.  1.
          2   -1    0    0  501    0  0.00000000000E+00 -0.00000000000E+00 -0.51372964231E+03  0.51372964232E+03  0.25500000000E-02 0. -1.
    8880023    1    1    2    0    0 -0.77469688410E+02  0.41337306234E+03  0.37776352008E+03  0.86798290574E+03  0.65864270000E+03 0.  0.
    8880022    1    1    2    0    0  0.77469688410E+02 -0.41337306234E+03 -0.82231620272E+02  0.45500827870E+03  0.15294330000E+03 0.  0.
<mgrwt>
<rscale>  0 0.67980549E+03</rscale>
<asrwt>0</asrwt>
<pdfrwt beam="1">  1        2 0.79035330E-01 0.78146596E+03</pdfrwt>
<pdfrwt beam="2">  1       -2 0.12450177E+00 0.78146596E+03</pdfrwt>
<totfact> 0.29183528E+01</totfact>
</mgrwt>
</event>
<event>
 4    2  0.6387803E-007  0.6699437E+03  0.7818608E-02  0.1015703E+00
          2   -1    0    0  501    0  0.00000000000E+00  0.00000000000E+00  0.69225617249E+03  0.69225617249E+03  0.25500000000E-02 0. -1.
         -2   -1    0    0    0  501 -0.00000000000E+00 -0.00000000000E+00 -0.27177678869E+03  0.27177678870E+03  0.25500000000E-02 0.  1.
    8880023    1    1    2    0    0  0.56490480361E+02  0.10873461428E+03  0.30052787931E+03  0.73426262551E+03  0.65864270000E+03 0.  0.
    8880022    1    1    2    0    0 -0.56490480361E+02 -0.10873461428E+03  0.11995150449E+03  0.22977033568E+03  0.15294330000E+03 0.  1.
<mgrwt>
<rscale>  0 0.49269561E+03</rscale>
<asrwt>0</asrwt>
<pdfrwt beam="1">  1        2 0.10650095E+00 0.66994373E+03</pdfrwt>
<pdfrwt beam="2">  1       -2 0.41811814E-01 0.66994373E+03</pdfrwt>
<totfact> 0.22809671E+02</totfact>
</mgrwt>
</event>
<event>
 4    2  0.6387803E-007  0.6916376E+03  0.7818608E-02  0.1003384E+00
          2   -1    0    0  501    0  0.00000000000E+00  0.00000000000E+00  0.17572765167E+04  0.17572765167E+04  0.25500000000E-02 0. -1.
         -2   -1    0    0    0  501 -0.00000000000E+00 -0.00000000000E+00 -0.17079816891E+03  0.17079816893E+03  0.25500000000E-02 0.  1.
    8880023    1    1    2    0    0  0.20750883097E+01 -0.21106399118E+03  0.62603727060E+03  0.93289076789E+03  0.65864270000E+03 0. -1.
    8880022    1    1    2    0    0 -0.20750883097E+01  0.21106399118E+03  0.96044107718E+03  0.99518391773E+03  0.15294330000E+03 0.  0.
<mgrwt>
<rscale>  0 0.54191078E+03</rscale>
<asrwt>0</asrwt>
<pdfrwt beam="1">  1        2 0.27035024E+00 0.69163756E+03</pdfrwt>
<pdfrwt beam="2">  1       -2 0.26276641E-01 0.69163756E+03</pdfrwt>
<totfact> 0.12250770E+02</totfact>
</mgrwt>
</event>
<event>
 4    2  0.6387803E-007  0.7530865E+03  0.7818608E-02  0.9823346E-01
          2   -1    0    0  501    0  0.00000000000E+00  0.00000000000E+00  0.12973276968E+04  0.12973276968E+04  0.25500000000E-02 0. -1.
         -2   -1    0    0    0  501 -0.00000000000E+00 -0.00000000000E+00 -0.89602046248E+03  0.89602046248E+03  0.25500000000E-02 0.  1.
    8880023    1    1    2    0    0  0.22073244233E+03 -0.29087144675E+03 -0.69683940124E+03  0.10260235704E+04  0.65864270000E+03 0.  1.
    8880022    1    1    2    0    0 -0.22073244233E+03  0.29087144675E+03  0.10981466355E+04  0.11673245889E+04  0.15294330000E+03 0.  0.
<mgrwt>
<rscale>  0 0.64124562E+03</rscale>
<asrwt>0</asrwt>
<pdfrwt beam="1">  1        2 0.19958888E+00 0.75308646E+03</pdfrwt>
<pdfrwt beam="2">  1       -2 0.13784930E+00 0.75308646E+03</pdfrwt>
<totfact> 0.63375882E+00</totfact>
</mgrwt>
</event>
<event>
 4    2  0.6387803E-007  0.7926667E+03  0.7818608E-02  0.9726882E-01
         -2   -1    0    0    0  501 -0.00000000000E+00  0.00000000000E+00  0.17977522357E+03  0.17977522359E+03  0.25500000000E-02 0.  1.
          2   -1    0    0  501    0  0.00000000000E+00 -0.00000000000E+00 -0.22450376905E+04  0.22450376905E+04  0.25500000000E-02 0. -1.
    8880023    1    1    2    0    0 -0.41592688658E+03  0.14668045314E+03 -0.11403998567E+04  0.13888240960E+04  0.65864270000E+03 0.  0.
    8880022    1    1    2    0    0  0.41592688658E+03 -0.14668045314E+03 -0.92486261024E+03  0.10359888181E+04  0.15294330000E+03 0.  1.
<mgrwt>
<rscale>  0 0.69438546E+03</rscale>
<asrwt>0</asrwt>
<pdfrwt beam="1">  1        2 0.34539039E+00 0.79266672E+03</pdfrwt>
<pdfrwt beam="2">  1       -2 0.27657728E-01 0.79266672E+03</pdfrwt>
<totfact> 0.59710348E+01</totfact>
</mgrwt>
</event>
<event>
 4    2  0.6387803E-007  0.7134641E+03  0.7818608E-02  0.9945355E-01
          2   -1    0    0  501    0  0.00000000000E+00  0.00000000000E+00  0.15038710783E+04  0.15038710783E+04  0.25500000000E-02 0. -1.
         -2   -1    0    0    0  501 -0.00000000000E+00 -0.00000000000E+00 -0.10735209236E+04  0.10735209236E+04  0.25500000000E-02 0.  1.
    8880023    1    1    2    0    0 -0.13620899177E+03 -0.23805032469E+03 -0.93515574321E+03  0.11762428817E+04  0.65864270000E+03 0.  0.
    8880022    1    1    2    0    0  0.13620899177E+03  0.23805032469E+03  0.13655058980E+04  0.14011491202E+04  0.15294330000E+03 0. -1.
<mgrwt>
<rscale>  0 0.58112639E+03</rscale>
<asrwt>0</asrwt>
<pdfrwt beam="1">  1        2 0.23136478E+00 0.71346412E+03</pdfrwt>
<pdfrwt beam="2">  1       -2 0.16515707E+00 0.71346412E+03</pdfrwt>
<totfact> 0.30163632E+00</totfact>
</mgrwt>
</event>
<event>
 4    2  0.6387803E-007  0.9738486E+03  0.7818608E-02  0.9416601E-01
         -2   -1    0    0    0  501 -0.00000000000E+00  0.00000000000E+00  0.56325336545E+03  0.56325336545E+03  0.25500000000E-02 0.  1.
          2   -1    0    0  501    0  0.00000000000E+00 -0.00000000000E+00 -0.25215935274E+04  0.25215935274E+04  0.25500000000E-02 0. -1.
    8880023    1    1    2    0    0  0.50888004358E+03  0.50558078985E+03  0.20903235233E+02  0.97407288502E+03  0.65864270000E+03 0.  0.
    8880022    1    1    2    0    0 -0.50888004358E+03 -0.50558078985E+03 -0.19792433972E+04  0.21107740079E+04  0.15294330000E+03 0.  0.
<mgrwt>
<rscale>  0 0.90721991E+03</rscale>
<asrwt>0</asrwt>
<pdfrwt beam="1">  1        2 0.38793746E+00 0.97384857E+03</pdfrwt>
<pdfrwt beam="2">  1       -2 0.86654366E-01 0.97384857E+03</pdfrwt>
<totfact> 0.39532376E+00</totfact>
</mgrwt>
</event>
<event>
 4    2  0.6387803E-007  0.7405696E+03  0.7818608E-02  0.9858291E-01
         -2   -1    0    0    0  501 -0.00000000000E+00  0.00000000000E+00  0.33091063520E+03  0.33091063521E+03  0.25500000000E-02 0.  1.
          2   -1    0    0  501    0  0.00000000000E+00 -0.00000000000E+00 -0.10860606456E+04  0.10860606456E+04  0.25500000000E-02 0. -1.
    8880023    1    1    2    0    0 -0.27370407361E+03 -0.19929683021E+03 -0.23342568798E+03  0.77648625520E+03  0.65864270000E+03 0.  0.
    8880022    1    1    2    0    0  0.27370407361E+03  0.19929683021E+03 -0.52172432246E+03  0.64048502566E+03  0.15294330000E+03 0.  1.
<mgrwt>
<rscale>  0 0.62325972E+03</rscale>
<asrwt>0</asrwt>
<pdfrwt beam="1">  1        2 0.16708625E+00 0.74056961E+03</pdfrwt>
<pdfrwt beam="2">  1       -2 0.50909329E-01 0.74056961E+03</pdfrwt>
<totfact> 0.82329561E+01</totfact>
</mgrwt>
</event>
<event>
 4    2  0.6387803E-007  0.6714779E+03  0.7818608E-02  0.1014625E+00
          2   -1    0    0  501    0  0.00000000000E+00  0.00000000000E+00  0.19470192269E+04  0.19470192269E+04  0.25500000000E-02 0. -1.
         -2   -1    0    0    0  501 -0.00000000000E+00 -0.00000000000E+00 -0.30515192941E+03  0.30515192942E+03  0.25500000000E-02 0.  1.
    8880023    1    1    2    0    0  0.10917999114E+03  0.71778094706E+02  0.78654433561E+02  0.67606885117E+03  0.65864270000E+03 0.  1.
    8880022    1    1    2    0    0 -0.10917999114E+03 -0.71778094706E+02  0.15632128639E+04  0.15761023052E+04  0.15294330000E+03 0.  0.
<mgrwt>
<rscale>  0 0.49677235E+03</rscale>
<asrwt>0</asrwt>
<pdfrwt beam="1">  1        2 0.29954142E+00 0.67147790E+03</pdfrwt>
<pdfrwt beam="2">  1       -2 0.46946450E-01 0.67147790E+03</pdfrwt>
<totfact> 0.32051950E+01</totfact>
</mgrwt>
</event>
<event>
 4    2  0.6387803E-007  0.7520130E+03  0.7818608E-02  0.9826242E-01
         -2   -1    0    0    0  501 -0.00000000000E+00  0.00000000000E+00  0.19379957623E+03  0.19379957624E+03  0.25500000000E-02 0.  1.
          2   -1    0    0  501    0  0.00000000000E+00 -0.00000000000E+00 -0.20790660628E+04  0.20790660628E+04  0.25500000000E-02 0. -1.
    8880023    1    1    2    0    0 -0.36278815330E+03  0.99011428569E+01 -0.71329410630E+03  0.10364902147E+04  0.65864270000E+03 0.  1.
    8880022    1    1    2    0    0  0.36278815330E+03 -0.99011428569E+01 -0.11719723802E+04  0.12363754243E+04  0.15294330000E+03 0.  0.
<mgrwt>
<rscale>  0 0.63973070E+03</rscale>
<asrwt>0</asrwt>
<pdfrwt beam="1">  1        2 0.31985630E+00 0.75201295E+03</pdfrwt>
<pdfrwt beam="2">  1       -2 0.29815321E-01 0.75201295E+03</pdfrwt>
<totfact> 0.64460160E+01</totfact>
</mgrwt>
</event>
<event>
 4    2  0.6387803E-007  0.6911711E+03  0.7818608E-02  0.1003601E+00
          2   -1    0    0  501    0  0.00000000000E+00  0.00000000000E+00  0.16956404427E+04  0.16956404427E+04  0.25500000000E-02 0. -1.
         -2   -1    0    0    0  501 -0.00000000000E+00 -0.00000000000E+00 -0.13606477851E+03  0.13606477854E+03  0.25500000000E-02 0.  1.
    8880023    1    1    2    0    0 -0.14018516814E+03  0.15574137341E+03  0.12447179407E+04  0.14237416250E+04  0.65864270000E+03 0. -1.
    8880022    1    1    2    0    0  0.14018516814E+03 -0.15574137341E+03  0.31485772352E+03  0.40796359621E+03  0.15294330000E+03 0. -1.
<mgrwt>
<rscale>  0 0.54099116E+03</rscale>
<asrwt>0</asrwt>
<pdfrwt beam="1">  1        2 0.26086775E+00 0.69117108E+03</pdfrwt>
<pdfrwt beam="2">  1       -2 0.20933044E-01 0.69117108E+03</pdfrwt>
<totfact> 0.19866518E+02</totfact>
</mgrwt>
</event>
<event>
 4    2  0.6387803E-007  0.6632410E+03  0.7818608E-02  0.1021057E+00
         -2   -1    0    0    0  501 -0.00000000000E+00  0.00000000000E+00  0.49981237048E+03  0.49981237049E+03  0.25500000000E-02 0.  1.
          2   -1    0    0  501    0  0.00000000000E+00 -0.00000000000E+00 -0.37869478925E+03  0.37869478926E+03  0.25500000000E-02 0. -1.
    8880023    1    1    2    0    0  0.41676267908E+01 -0.77852477790E+02  0.19544520449E+03  0.69143865356E+03  0.65864270000E+03 0.  1.
    8880022    1    1    2    0    0 -0.41676267908E+01  0.77852477790E+02 -0.74327623261E+02  0.18706850618E+03  0.15294330000E+03 0.  0.
<mgrwt>
<rscale>  0 0.47307073E+03</rscale>
<asrwt>0</asrwt>
<pdfrwt beam="1">  1        2 0.58260737E-01 0.66324097E+03</pdfrwt>
<pdfrwt beam="2">  1       -2 0.76894210E-01 0.66324097E+03</pdfrwt>
<totfact> 0.12956339E+02</totfact>
</mgrwt>
</event>
<event>
 4    2  0.6387803E-007  0.7637261E+03  0.7818608E-02  0.9795555E-01
          2   -1    0    0  501    0  0.00000000000E+00  0.00000000000E+00  0.20590329126E+04  0.20590329126E+04  0.25500000000E-02 0. -1.
         -2   -1    0    0    0  501 -0.00000000000E+00 -0.00000000000E+00 -0.18987162089E+03  0.18987162091E+03  0.25500000000E-02 0.  1.
    8880023    1    1    2    0    0 -0.22804535211E+03  0.31219018387E+03  0.15386876976E+04  0.17178001719E+04  0.65864270000E+03 0. -1.
    8880022    1    1    2    0    0  0.22804535211E+03 -0.31219018387E+03  0.33047359414E+03  0.53110436165E+03  0.15294330000E+03 0.  1.
<mgrwt>
<rscale>  0 0.65601648E+03</rscale>
<asrwt>0</asrwt>
<pdfrwt beam="1">  1        2 0.31677427E+00 0.76372613E+03</pdfrwt>
<pdfrwt beam="2">  1       -2 0.29211021E-01 0.76372613E+03</pdfrwt>
<totfact> 0.68571725E+01</totfact>
</mgrwt>
</event>
<event>
 4    2  0.6387803E-007  0.8159181E+03  0.7818608E-02  0.9677379E-01
          2   -1    0    0  501    0  0.00000000000E+00  0.00000000000E+00  0.14947465931E+04  0.14947465931E+04  0.25500000000E-02 0. -1.
         -2   -1    0    0    0  501 -0.00000000000E+00 -0.00000000000E+00 -0.11728706583E+04  0.11728706583E+04  0.25500000000E-02 0.  1.
    8880023    1    1    2    0    0 -0.45234153493E+03 -0.16522489777E+03 -0.97760747636E+03  0.12733572614E+04  0.65864270000E+03 0.  1.
    8880022    1    1    2    0    0  0.45234153493E+03  0.16522489777E+03  0.12994834111E+04  0.13942599900E+04  0.15294330000E+03 0.  0.
<mgrwt>
<rscale>  0 0.72379750E+03</rscale>
<asrwt>0</asrwt>
<pdfrwt beam="1">  1        2 0.22996102E+00 0.81591809E+03</pdfrwt>
<pdfrwt beam="2">  1       -2 0.18044164E+00 0.81591809E+03</pdfrwt>
<totfact> 0.23440140E+00</totfact>
</mgrwt>
</event>
<event>
 4    2  0.6387803E-007  0.7115614E+03  0.7818608E-02  0.9952248E-01
          2   -1    0    0  501    0  0.00000000000E+00  0.00000000000E+00  0.28850964079E+04  0.28850964079E+04  0.25500000000E-02 0. -1.
         -2   -1    0    0    0  501 -0.00000000000E+00 -0.00000000000E+00 -0.37629120349E+03  0.37629120350E+03  0.25500000000E-02 0.  1.
    8880023    1    1    2    0    0 -0.94709639078E+02  0.25207037630E+03 -0.21809122189E+02  0.71189552212E+03  0.65864270000E+03 0.  1.
    8880022    1    1    2    0    0  0.94709639078E+02 -0.25207037630E+03  0.25306143266E+04  0.25494920893E+04  0.15294330000E+03 0.  0.
<mgrwt>
<rscale>  0 0.57794591E+03</rscale>
<asrwt>0</asrwt>
<pdfrwt beam="1">  1        2 0.44386100E+00 0.71156138E+03</pdfrwt>
<pdfrwt beam="2">  1       -2 0.57890952E-01 0.71156138E+03</pdfrwt>
<totfact> 0.61289374E+00</totfact>
</mgrwt>
</event>
<event>
 4    2  0.6387803E-007  0.1079012E+04  0.7818608E-02  0.9284791E-01
         -2   -1    0    0    0  501 -0.00000000000E+00  0.00000000000E+00  0.22887713843E+04  0.22887713843E+04  0.25500000000E-02 0.  1.
          2   -1    0    0  501    0  0.00000000000E+00 -0.00000000000E+00 -0.71701017093E+03  0.71701017094E+03  0.25500000000E-02 0. -1.
    8880023    1    1    2    0    0  0.82485919873E+03  0.22375095727E+03  0.18084204428E+04  0.21058613185E+04  0.65864270000E+03 0.  0.
    8880022    1    1    2    0    0 -0.82485919873E+03 -0.22375095727E+03 -0.23665922941E+03  0.89992023674E+03  0.15294330000E+03 0.  0.
<mgrwt>
<rscale>  0 0.10219516E+04</rscale>
<asrwt>0</asrwt>
<pdfrwt beam="1">  1        2 0.11030926E+00 0.10790122E+04</pdfrwt>
<pdfrwt beam="2">  1       -2 0.35211868E+00 0.10790122E+04</pdfrwt>
<totfact> 0.60060349E-01</totfact>
</mgrwt>
</event>
<event>
 4    2  0.6387803E-007  0.7429900E+03  0.7818608E-02  0.9851322E-01
         -2   -1    0    0    0  501 -0.00000000000E+00  0.00000000000E+00  0.36372058839E+03  0.36372058840E+03  0.25500000000E-02 0.  1.
          2   -1    0    0  501    0  0.00000000000E+00 -0.00000000000E+00 -0.11839895542E+04  0.11839895542E+04  0.25500000000E-02 0. -1.
    8880023    1    1    2    0    0  0.26369131658E+03  0.22065984493E+03 -0.89586241462E+03  0.11638743703E+04  0.65864270000E+03 0. -1.
    8880022    1    1    2    0    0 -0.26369131658E+03 -0.22065984493E+03  0.75593448808E+02  0.38383577233E+03  0.15294330000E+03 0.  0.
<mgrwt>
<rscale>  0 0.62679579E+03</rscale>
<asrwt>0</asrwt>
<pdfrwt beam="1">  1        2 0.18215224E+00 0.74298996E+03</pdfrwt>
<pdfrwt beam="2">  1       -2 0.55957014E-01 0.74298996E+03</pdfrwt>
<totfact> 0.59104442E+01</totfact>
</mgrwt>
</event>
<event>
 4    2  0.6387803E-007  0.7206941E+03  0.7818608E-02  0.9920244E-01
          2   -1    0    0  501    0  0.00000000000E+00  0.00000000000E+00  0.81908625508E+03  0.81908625508E+03  0.25500000000E-02 0. -1.
         -2   -1    0    0    0  501 -0.00000000000E+00 -0.00000000000E+00 -0.14031229381E+04  0.14031229381E+04  0.25500000000E-02 0.  1.
    8880023    1    1    2    0    0 -0.26851604972E+03  0.11614170874E+03 -0.12703968241E+04  0.14605848358E+04  0.65864270000E+03 0.  1.
    8880022    1    1    2    0    0  0.26851604972E+03 -0.11614170874E+03  0.68636014111E+03  0.76162435740E+03  0.15294330000E+03 0.  0.
<mgrwt>
<rscale>  0 0.59290113E+03</rscale>
<asrwt>0</asrwt>
<pdfrwt beam="1">  1        2 0.12601327E+00 0.72069409E+03</pdfrwt>
<pdfrwt beam="2">  1       -2 0.21586507E+00 0.72069409E+03</pdfrwt>
<totfact> 0.36068363E+00</totfact>
</mgrwt>
</event>
<event>
 4    2  0.6387803E-007  0.6937815E+03  0.7818608E-02  0.1002405E+00
          2   -1    0    0  501    0  0.00000000000E+00  0.00000000000E+00  0.10899324624E+04  0.10899324624E+04  0.25500000000E-02 0. -1.
         -2   -1    0    0    0  501 -0.00000000000E+00 -0.00000000000E+00 -0.73776695214E+03  0.73776695215E+03  0.25500000000E-02 0.  1.
    8880023    1    1    2    0    0 -0.16166889560E+03  0.14623877453E+03 -0.55108116018E+03  0.88601538493E+03  0.65864270000E+03 0.  1.
    8880022    1    1    2    0    0  0.16166889560E+03 -0.14623877453E+03  0.90324667048E+03  0.94168402966E+03  0.15294330000E+03 0.  0.
<mgrwt>
<rscale>  0 0.54608312E+03</rscale>
<asrwt>0</asrwt>
<pdfrwt beam="1">  1        2 0.16768192E+00 0.69378153E+03</pdfrwt>
<pdfrwt beam="2">  1       -2 0.11350261E+00 0.69378153E+03</pdfrwt>
<totfact> 0.13790581E+01</totfact>
</mgrwt>
</event>
<event>
 4    2  0.6387803E-007  0.7633763E+03  0.7818608E-02  0.9796444E-01
          2   -1    0    0  501    0  0.00000000000E+00  0.00000000000E+00  0.34199614254E+04  0.34199614254E+04  0.25500000000E-02 0. -1.
         -2   -1    0    0    0  501 -0.00000000000E+00 -0.00000000000E+00 -0.19417818524E+03  0.19417818525E+03  0.25500000000E-02 0.  1.
    8880023    1    1    2    0    0  0.30551779324E+03 -0.23577960550E+03  0.64266658082E+03  0.99787959430E+03  0.65864270000E+03 0.  1.
    8880022    1    1    2    0    0 -0.30551779324E+03  0.23577960550E+03  0.25831166594E+04  0.26162600164E+04  0.15294330000E+03 0.  0.
<mgrwt>
<rscale>  0 0.65553739E+03</rscale>
<asrwt>0</asrwt>
<pdfrwt beam="1">  1        2 0.52614786E+00 0.76337628E+03</pdfrwt>
<pdfrwt beam="2">  1       -2 0.29873570E-01 0.76337628E+03</pdfrwt>
<totfact> 0.10252894E+01</totfact>
</mgrwt>
</event>
<event>
 4    2  0.6387803E-007  0.1051619E+04  0.7818608E-02  0.9316937E-01
         -2   -1    0    0    0  501 -0.00000000000E+00  0.00000000000E+00  0.68979657878E+03  0.68979657878E+03  0.25500000000E-02 0.  1.
          2   -1    0    0  501    0  0.00000000000E+00 -0.00000000000E+00 -0.16225752980E+04  0.16225752980E+04  0.25500000000E-02 0. -1.
    8880023    1    1    2    0    0 -0.53052733726E+03 -0.62500697027E+03  0.12642252152E+02  0.10516952987E+04  0.65864270000E+03 0.  0.
    8880022    1    1    2    0    0  0.53052733726E+03  0.62500697027E+03 -0.94542097136E+03  0.12606765781E+04  0.15294330000E+03 0.  0.
<mgrwt>
<rscale>  0 0.99238423E+03</rscale>
<asrwt>0</asrwt>
<pdfrwt beam="1">  1        2 0.24962697E+00 0.10516193E+04</pdfrwt>
<pdfrwt beam="2">  1       -2 0.10612255E+00 0.10516193E+04</pdfrwt>
<totfact> 0.76883234E+00</totfact>
</mgrwt>
</event>
<event>
 4    2  0.6387803E-007  0.9745043E+03  0.7818608E-02  0.9415701E-01
         -2   -1    0    0    0  501 -0.00000000000E+00  0.00000000000E+00  0.27483788548E+04  0.27483788548E+04  0.25500000000E-02 0.  1.
          2   -1    0    0  501    0  0.00000000000E+00 -0.00000000000E+00 -0.59782521587E+03  0.59782521588E+03  0.25500000000E-02 0. -1.
    8880023    1    1    2    0    0  0.42602338334E+03 -0.57823223498E+03  0.23841442022E+04  0.25756168627E+04  0.65864270000E+03 0.  0.
    8880022    1    1    2    0    0 -0.42602338334E+03  0.57823223498E+03 -0.23359056325E+03  0.77058720790E+03  0.15294330000E+03 0.  0.
<mgrwt>
<rscale>  0 0.90794720E+03</rscale>
<asrwt>0</asrwt>
<pdfrwt beam="1">  1        2 0.91973110E-01 0.97450431E+03</pdfrwt>
<pdfrwt beam="2">  1       -2 0.42282752E+00 0.97450431E+03</pdfrwt>
<totfact> 0.26801354E-01</totfact>
</mgrwt>
</event>
<event>
 4    2  0.6387803E-007  0.7249267E+03  0.7818608E-02  0.9906255E-01
          2   -1    0    0  501    0  0.00000000000E+00  0.00000000000E+00  0.95449260524E+03  0.95449260524E+03  0.25500000000E-02 0. -1.
         -2   -1    0    0    0  501 -0.00000000000E+00 -0.00000000000E+00 -0.11146858199E+04  0.11146858199E+04  0.25500000000E-02 0.  1.
    8880023    1    1    2    0    0  0.11181568970E+03  0.28143509346E+03 -0.95850366180E+03  0.12017686700E+04  0.65864270000E+03 0.  1.
    8880022    1    1    2    0    0 -0.11181568970E+03 -0.28143509346E+03  0.79831044712E+03  0.86740975513E+03  0.15294330000E+03 0.  0.
<mgrwt>
<rscale>  0 0.59959089E+03</rscale>
<asrwt>0</asrwt>
<pdfrwt beam="1">  1        2 0.14684502E+00 0.72492666E+03</pdfrwt>
<pdfrwt beam="2">  1       -2 0.17149013E+00 0.72492666E+03</pdfrwt>
<totfact> 0.57392482E+00</totfact>
</mgrwt>
</event>
<event>
 4    2  0.6387803E-007  0.7654153E+03  0.7818608E-02  0.9791284E-01
         -2   -1    0    0    0  501 -0.00000000000E+00  0.00000000000E+00  0.28644544077E+03  0.28644544079E+03  0.25500000000E-02 0.  1.
          2   -1    0    0  501    0  0.00000000000E+00 -0.00000000000E+00 -0.17103558647E+04  0.17103558647E+04  0.25500000000E-02 0. -1.
    8880023    1    1    2    0    0 -0.38312632909E+03  0.72557556249E+02 -0.34526213782E+03  0.83968240013E+03  0.65864270000E+03 0.  1.
    8880022    1    1    2    0    0  0.38312632909E+03 -0.72557556249E+02 -0.10786482861E+04  0.11571189054E+04  0.15294330000E+03 0.  0.
<mgrwt>
<rscale>  0 0.65832381E+03</rscale>
<asrwt>0</asrwt>
<pdfrwt beam="1">  1        2 0.26313167E+00 0.76541531E+03</pdfrwt>
<pdfrwt beam="2">  1       -2 0.44068530E-01 0.76541531E+03</pdfrwt>
<totfact> 0.48360194E+01</totfact>
</mgrwt>
</event>
<event>
 4    2  0.6387803E-007  0.7074769E+03  0.7818608E-02  0.9967492E-01
          2   -1    0    0  501    0  0.00000000000E+00  0.00000000000E+00  0.11243562233E+04  0.11243562233E+04  0.25500000000E-02 0. -1.
         -2   -1    0    0    0  501 -0.00000000000E+00 -0.00000000000E+00 -0.36881621829E+03  0.36881621830E+03  0.25500000000E-02 0.  1.
    8880023    1    1    2    0    0 -0.15081516818E+03  0.20968578798E+03  0.30140470792E+02  0.70811863333E+03  0.65864270000E+03 0.  1.
    8880022    1    1    2    0    0  0.15081516818E+03 -0.20968578798E+03  0.72539953423E+03  0.78505380829E+03  0.15294330000E+03 0.  0.
<mgrwt>
<rscale>  0 0.57098908E+03</rscale>
<asrwt>0</asrwt>
<pdfrwt beam="1">  1        2 0.17297788E+00 0.70747689E+03</pdfrwt>
<pdfrwt beam="2">  1       -2 0.56740956E-01 0.70747689E+03</pdfrwt>
<totfact> 0.62546963E+01</totfact>
</mgrwt>
</event>
<event>
 4    2  0.6387803E-007  0.6876646E+03  0.7818608E-02  0.1005283E+00
         -2   -1    0    0    0  501 -0.00000000000E+00  0.00000000000E+00  0.46093067770E+03  0.46093067771E+03  0.25500000000E-02 0.  1.
          2   -1    0    0  501    0  0.00000000000E+00 -0.00000000000E+00 -0.55327022476E+03  0.55327022477E+03  0.25500000000E-02 0. -1.
    8880023    1    1    2    0    0 -0.18021002415E+03  0.81220179051E+02  0.10515788341E+03  0.69565850602E+03  0.65864270000E+03 0.  0.
    8880022    1    1    2    0    0  0.18021002415E+03 -0.81220179051E+02 -0.19749743046E+03  0.31854239646E+03  0.15294330000E+03 0.  0.
<mgrwt>
<rscale>  0 0.53393235E+03</rscale>
<asrwt>0</asrwt>
<pdfrwt beam="1">  1        2 0.85118496E-01 0.68766458E+03</pdfrwt>
<pdfrwt beam="2">  1       -2 0.70912412E-01 0.68766458E+03</pdfrwt>
<totfact> 0.10024820E+02</totfact>
</mgrwt>
</event>
<event>
 4    2  0.6387803E-007  0.8034424E+03  0.7818608E-02  0.9703402E-01
         -2   -1    0    0    0  501 -0.00000000000E+00  0.00000000000E+00  0.60749500198E+03  0.60749500198E+03  0.25500000000E-02 0.  1.
          2   -1    0    0  501    0  0.00000000000E+00 -0.00000000000E+00 -0.10220869755E+04  0.10220869755E+04  0.25500000000E-02 0. -1.
    8880023    1    1    2    0    0 -0.39238517609E+03  0.24029861608E+03  0.21804625266E+03  0.83250461012E+03  0.65864270000E+03 0.  1.
    8880022    1    1    2    0    0  0.39238517609E+03 -0.24029861608E+03 -0.63263822617E+03  0.79707736734E+03  0.15294330000E+03 0.  0.
<mgrwt>
<rscale>  0 0.70814621E+03</rscale>
<asrwt>0</asrwt>
<pdfrwt beam="1">  1        2 0.15724415E+00 0.80344244E+03</pdfrwt>
<pdfrwt beam="2">  1       -2 0.93460770E-01 0.80344244E+03</pdfrwt>
<totfact> 0.23873255E+01</totfact>
</mgrwt>
</event>
<event>
 4    2  0.6387803E-007  0.6850924E+03  0.7818608E-02  0.1006578E+00
          2   -1    0    0  501    0  0.00000000000E+00  0.00000000000E+00  0.38776158053E+03  0.38776158054E+03  0.25500000000E-02 0. -1.
         -2   -1    0    0    0  501 -0.00000000000E+00 -0.00000000000E+00 -0.87874606797E+03  0.87874606797E+03  0.25500000000E-02 0.  1.
    8880023    1    1    2    0    0  0.59897373503E+02  0.17875587187E+03 -0.67509829164E+03  0.96182600647E+03  0.65864270000E+03 0.  1.
    8880022    1    1    2    0    0 -0.59897373503E+02 -0.17875587187E+03  0.18411380420E+03  0.30468164204E+03  0.15294330000E+03 0. -1.
<mgrwt>
<rscale>  0 0.52857507E+03</rscale>
<asrwt>0</asrwt>
<pdfrwt beam="1">  1        2 0.59655628E-01 0.68509238E+03</pdfrwt>
<pdfrwt beam="2">  1       -2 0.13519170E+00 0.68509238E+03</pdfrwt>
<totfact> 0.32915972E+01</totfact>
</mgrwt>
</event>
<event>
 4    2  0.6387803E-007  0.6979366E+03  0.7818608E-02  0.1000587E+00
          2   -1    0    0  501    0  0.00000000000E+00  0.00000000000E+00  0.28522861400E+04  0.28522861400E+04  0.25500000000E-02 0. -1.
         -2   -1    0    0    0  501 -0.00000000000E+00 -0.00000000000E+00 -0.19606003823E+03  0.19606003824E+03  0.25500000000E-02 0.  1.
    8880023    1    1    2    0    0  0.22222151956E+03 -0.62632451420E+02  0.46264137999E+03  0.83734848210E+03  0.65864270000E+03 0.  1.
    8880022    1    1    2    0    0 -0.22222151956E+03  0.62632451420E+02  0.21935847218E+04  0.22109976962E+04  0.15294330000E+03 0.  0.
<mgrwt>
<rscale>  0 0.55393547E+03</rscale>
<asrwt>0</asrwt>
<pdfrwt beam="1">  1        2 0.43881327E+00 0.69793655E+03</pdfrwt>
<pdfrwt beam="2">  1       -2 0.30163082E-01 0.69793655E+03</pdfrwt>
<totfact> 0.23189542E+01</totfact>
</mgrwt>
</event>
<event>
 4    2  0.6387803E-007  0.8051024E+03  0.7818608E-02  0.9699870E-01
         -2   -1    0    0    0  501 -0.00000000000E+00  0.00000000000E+00  0.34195227296E+03  0.34195227297E+03  0.25500000000E-02 0.  1.
          2   -1    0    0  501    0  0.00000000000E+00 -0.00000000000E+00 -0.16873496264E+04  0.16873496264E+04  0.25500000000E-02 0. -1.
    8880023    1    1    2    0    0 -0.16152656346E+03  0.43392255067E+03 -0.27110132090E+03  0.84952089035E+03  0.65864270000E+03 0.  1.
    8880022    1    1    2    0    0  0.16152656346E+03 -0.43392255067E+03 -0.10742960325E+04  0.11797810090E+04  0.15294330000E+03 0.  0.
<mgrwt>
<rscale>  0 0.71024510E+03</rscale>
<asrwt>0</asrwt>
<pdfrwt beam="1">  1        2 0.25959225E+00 0.80510236E+03</pdfrwt>
<pdfrwt beam="2">  1       -2 0.52608043E-01 0.80510236E+03</pdfrwt>
<totfact> 0.34647570E+01</totfact>
</mgrwt>
</event>
<event>
 4    2  0.6387803E-007  0.6913171E+03  0.7818608E-02  0.1003533E+00
         -2   -1    0    0    0  501 -0.00000000000E+00  0.00000000000E+00  0.18016898677E+03  0.18016898679E+03  0.25500000000E-02 0.  1.
          2   -1    0    0  501    0  0.00000000000E+00 -0.00000000000E+00 -0.25336890493E+04  0.25336890493E+04  0.25500000000E-02 0. -1.
    8880023    1    1    2    0    0 -0.10882653537E+03 -0.17962717420E+03 -0.52785490199E+03  0.86979890798E+03  0.65864270000E+03 0.  1.
    8880022    1    1    2    0    0  0.10882653537E+03  0.17962717420E+03 -0.18256651606E+04  0.18440591281E+04  0.15294330000E+03 0.  0.
<mgrwt>
<rscale>  0 0.54127951E+03</rscale>
<asrwt>0</asrwt>
<pdfrwt beam="1">  1        2 0.38979829E+00 0.69131711E+03</pdfrwt>
<pdfrwt beam="2">  1       -2 0.27718307E-01 0.69131711E+03</pdfrwt>
<totfact> 0.41532753E+01</totfact>
</mgrwt>
</event>
<event>
 4    2  0.6387803E-007  0.8829820E+03  0.7818608E-02  0.9553922E-01
         -2   -1    0    0    0  501 -0.00000000000E+00  0.00000000000E+00  0.28424425243E+03  0.28424425244E+03  0.25500000000E-02 0.  1.
          2   -1    0    0  501    0  0.00000000000E+00 -0.00000000000E+00 -0.32222980925E+04  0.32222980925E+04  0.25500000000E-02 0. -1.
    8880023    1    1    2    0    0 -0.58698503503E+03 -0.35994230371E+02 -0.27219882095E+04  0.28616213996E+04  0.65864270000E+03 0. -1.
    8880022    1    1    2    0    0  0.58698503503E+03  0.35994230371E+02 -0.21606563058E+03  0.64492094531E+03  0.15294330000E+03 0.  0.
<mgrwt>
<rscale>  0 0.80422448E+03</rscale>
<asrwt>0</asrwt>
<pdfrwt beam="1">  1        2 0.49573814E+00 0.88298201E+03</pdfrwt>
<pdfrwt beam="2">  1       -2 0.43729887E-01 0.88298201E+03</pdfrwt>
<totfact> 0.65127484E+00</totfact>
</mgrwt>
</event>
<event>
 4    2  0.6387803E-007  0.6874680E+03  0.7818608E-02  0.1005380E+00
         -2   -1    0    0    0  501 -0.00000000000E+00  0.00000000000E+00  0.86402557361E+03  0.86402557361E+03  0.25500000000E-02 0.  1.
          2   -1    0    0  501    0  0.00000000000E+00 -0.00000000000E+00 -0.79813308305E+03  0.79813308305E+03  0.25500000000E-02 0. -1.
    8880023    1    1    2    0    0  0.10276236680E+03  0.16805323902E+03  0.69978424118E+03  0.98097410040E+03  0.65864270000E+03 0.  0.
    8880022    1    1    2    0    0 -0.10276236680E+03 -0.16805323902E+03 -0.63389175062E+03  0.68118455627E+03  0.15294330000E+03 0.  0.
<mgrwt>
<rscale>  0 0.53352847E+03</rscale>
<asrwt>0</asrwt>
<pdfrwt beam="1">  1        2 0.12278971E+00 0.68746796E+03</pdfrwt>
<pdfrwt beam="2">  1       -2 0.13292701E+00 0.68746796E+03</pdfrwt>
<totfact> 0.14494708E+01</totfact>
</mgrwt>
</event>
<event>
 4    2  0.6387803E-007  0.9146126E+03  0.7818608E-02  0.9502969E-01
          2   -1    0    0  501    0  0.00000000000E+00  0.00000000000E+00  0.67278389131E+03  0.67278389131E+03  0.25500000000E-02 0. -1.
         -2   -1    0    0    0  501 -0.00000000000E+00 -0.00000000000E+00 -0.15780169159E+04  0.15780169159E+04  0.25500000000E-02 0.  1.
    8880023    1    1    2    0    0  0.39623687543E+03 -0.49568379105E+03  0.22836786168E+03  0.94269197974E+03  0.65864270000E+03 0. -1.
    8880022    1    1    2    0    0 -0.39623687543E+03  0.49568379105E+03 -0.11336008863E+04  0.13081088275E+04  0.15294330000E+03 0.  0.
<mgrwt>
<rscale>  0 0.84065259E+03</rscale>
<asrwt>0</asrwt>
<pdfrwt beam="1">  1        2 0.10350521E+00 0.91461264E+03</pdfrwt>
<pdfrwt beam="2">  1       -2 0.24277183E+00 0.91461264E+03</pdfrwt>
<totfact> 0.30889365E+00</totfact>
</mgrwt>
</event>
<event>
 4    2  0.6387803E-007  0.7021673E+03  0.7818608E-02  0.9988326E-01
          2   -1    0    0  501    0  0.00000000000E+00  0.00000000000E+00  0.18149019620E+04  0.18149019620E+04  0.25500000000E-02 0. -1.
         -2   -1    0    0    0  501 -0.00000000000E+00 -0.00000000000E+00 -0.29520037130E+03  0.29520037131E+03  0.25500000000E-02 0.  1.
    8880023    1    1    2    0    0 -0.22982011924E+03  0.80071545316E+02  0.15975531856E+03  0.72011159389E+03  0.65864270000E+03 0.  1.
    8880022    1    1    2    0    0  0.22982011924E+03 -0.80071545316E+02  0.13599462721E+04  0.13899907394E+04  0.15294330000E+03 0.  0.
<mgrwt>
<rscale>  0 0.56165078E+03</rscale>
<asrwt>0</asrwt>
<pdfrwt beam="1">  1        2 0.27921569E+00 0.70216732E+03</pdfrwt>
<pdfrwt beam="2">  1       -2 0.45415442E-01 0.70216732E+03</pdfrwt>
<totfact> 0.40239668E+01</totfact>
</mgrwt>
</event>
<event>
 4    2  0.6387803E-007  0.8254879E+03  0.7818608E-02  0.9658176E-01
          2   -1    0    0  501    0  0.00000000000E+00  0.00000000000E+00  0.24030797871E+04  0.24030797871E+04  0.25500000000E-02 0. -1.
         -2   -1    0    0    0  501 -0.00000000000E+00 -0.00000000000E+00 -0.87187456232E+03  0.87187456232E+03  0.25500000000E-02 0.  1.
    8880023    1    1    2    0    0 -0.33434030020E+02 -0.49648991975E+03 -0.63854031226E+03  0.10436302082E+04  0.65864270000E+03 0.  0.
    8880022    1    1    2    0    0  0.33434030020E+02  0.49648991975E+03  0.21697455371E+04  0.22313241413E+04  0.15294330000E+03 0.  0.
<mgrwt>
<rscale>  0 0.73562511E+03</rscale>
<asrwt>0</asrwt>
<pdfrwt beam="1">  1        2 0.36970458E+00 0.82548790E+03</pdfrwt>
<pdfrwt beam="2">  1       -2 0.13413455E+00 0.82548790E+03</pdfrwt>
<totfact> 0.16410816E+00</totfact>
</mgrwt>
</event>
<event>
 4    2  0.6387803E-007  0.9276339E+03  0.7818608E-02  0.9483052E-01
          2   -1    0    0  501    0  0.00000000000E+00  0.00000000000E+00  0.27111318030E+04  0.27111318030E+04  0.25500000000E-02 0. -1.
         -2   -1    0    0    0  501 -0.00000000000E+00 -0.00000000000E+00 -0.55222097341E+03  0.55222097342E+03  0.25500000000E-02 0.  1.
    8880023    1    1    2    0    0  0.41380575086E+03  0.50542978806E+03 -0.75208020401E+02  0.93067766853E+03  0.65864270000E+03 0.  1.
    8880022    1    1    2    0    0 -0.41380575086E+03 -0.50542978806E+03  0.22341188500E+04  0.23326751079E+04  0.15294330000E+03 0.  0.
<mgrwt>
<rscale>  0 0.85544958E+03</rscale>
<asrwt>0</asrwt>
<pdfrwt beam="1">  1        2 0.41709720E+00 0.92763391E+03</pdfrwt>
<pdfrwt beam="2">  1       -2 0.84957072E-01 0.92763391E+03</pdfrwt>
<totfact> 0.32338814E+00</totfact>
</mgrwt>
</event>
<event>
 4    2  0.6387803E-007  0.8874942E+03  0.7818608E-02  0.9546413E-01
          2   -1    0    0  501    0  0.00000000000E+00  0.00000000000E+00  0.22817733233E+04  0.22817733233E+04  0.25500000000E-02 0. -1.
         -2   -1    0    0    0  501 -0.00000000000E+00 -0.00000000000E+00 -0.27833055885E+03  0.27833055887E+03  0.25500000000E-02 0.  1.
    8880023    1    1    2    0    0  0.56499371681E+03 -0.18605858191E+03  0.74093948764E+03  0.11561302810E+04  0.65864270000E+03 0.  0.
    8880022    1    1    2    0    0 -0.56499371681E+03  0.18605858191E+03  0.12625032768E+04  0.14039736012E+04  0.15294330000E+03 0.  0.
<mgrwt>
<rscale>  0 0.80946771E+03</rscale>
<asrwt>0</asrwt>
<pdfrwt beam="1">  1        2 0.35104206E+00 0.88749417E+03</pdfrwt>
<pdfrwt beam="2">  1       -2 0.42820085E-01 0.88749417E+03</pdfrwt>
<totfact> 0.24510031E+01</totfact>
</mgrwt>
</event>
<event>
 4    2  0.6387803E-007  0.6609535E+03  0.7818608E-02  0.1023200E+00
         -2   -1    0    0    0  501 -0.00000000000E+00  0.00000000000E+00  0.62548938492E+02  0.62548938544E+02  0.25500000000E-02 0.  1.
          2   -1    0    0  501    0  0.00000000000E+00 -0.00000000000E+00 -0.47536282073E+04  0.47536282073E+04  0.25500000000E-02 0. -1.
    8880023    1    1    2    0    0 -0.27893484997E+02  0.47658178277E+02 -0.17508154603E+04  0.18714204046E+04  0.65864270000E+03 0.  1.
    8880022    1    1    2    0    0  0.27893484997E+02 -0.47658178277E+02 -0.29402638085E+04  0.29447567413E+04  0.15294330000E+03 0.  0.
<mgrwt>
<rscale>  0 0.46549276E+03</rscale>
<asrwt>0</asrwt>
<pdfrwt beam="1">  1        2 0.73132713E+00 0.66095352E+03</pdfrwt>
<pdfrwt beam="2">  1       -2 0.96229174E-02 0.66095352E+03</pdfrwt>
<totfact> 0.57634673E+00</totfact>
</mgrwt>
</event>
<event>
 4    2  0.6387803E-007  0.7668562E+03  0.7818608E-02  0.9787670E-01
         -2   -1    0    0    0  501 -0.00000000000E+00  0.00000000000E+00  0.53938268848E+03  0.53938268849E+03  0.25500000000E-02 0.  1.
          2   -1    0    0  501    0  0.00000000000E+00 -0.00000000000E+00 -0.25483063793E+04  0.25483063793E+04  0.25500000000E-02 0. -1.
    8880023    1    1    2    0    0  0.84199643443E+02  0.38362559481E+03  0.23693287640E+03  0.80262417801E+03  0.65864270000E+03 0.  1.
    8880022    1    1    2    0    0 -0.84199643443E+02 -0.38362559481E+03 -0.22458565673E+04  0.22850648898E+04  0.15294330000E+03 0.  0.
<mgrwt>
<rscale>  0 0.66028440E+03</rscale>
<asrwt>0</asrwt>
<pdfrwt beam="1">  1        2 0.39204713E+00 0.76685617E+03</pdfrwt>
<pdfrwt beam="2">  1       -2 0.82981953E-01 0.76685617E+03</pdfrwt>
<totfact> 0.43527530E+00</totfact>
</mgrwt>
</event>
<event>
 4    2  0.6387803E-007  0.6949549E+03  0.7818608E-02  0.1001881E+00
          2   -1    0    0  501    0  0.00000000000E+00  0.00000000000E+00  0.17123100749E+04  0.17123100749E+04  0.25500000000E-02 0. -1.
         -2   -1    0    0    0  501 -0.00000000000E+00 -0.00000000000E+00 -0.15418851116E+03  0.15418851118E+03  0.25500000000E-02 0.  1.
    8880023    1    1    2    0    0 -0.21692635919E+03 -0.45771364025E+02  0.13754792424E+04  0.15410728132E+04  0.65864270000E+03 0.  0.
    8880022    1    1    2    0    0  0.21692635919E+03  0.45771364025E+02  0.18264232130E+03  0.32542577283E+03  0.15294330000E+03 0.  0.
<mgrwt>
<rscale>  0 0.54833053E+03</rscale>
<asrwt>0</asrwt>
<pdfrwt beam="1">  1        2 0.26343233E+00 0.69495487E+03</pdfrwt>
<pdfrwt beam="2">  1       -2 0.23721308E-01 0.69495487E+03</pdfrwt>
<totfact> 0.15580425E+02</totfact>
</mgrwt>
</event>
<event>
 4    2  0.6387803E-007  0.9528673E+03  0.7818608E-02  0.9446001E-01
         -2   -1    0    0    0  501 -0.00000000000E+00  0.00000000000E+00  0.51752110163E+03  0.51752110163E+03  0.25500000000E-02 0.  1.
          2   -1    0    0  501    0  0.00000000000E+00 -0.00000000000E+00 -0.30355882824E+04  0.30355882824E+04  0.25500000000E-02 0. -1.
    8880023    1    1    2    0    0 -0.33105100831E+03 -0.60378069343E+03 -0.26670737252E+04  0.28321790829E+04  0.65864270000E+03 0. -1.
    8880022    1    1    2    0    0  0.33105100831E+03  0.60378069343E+03  0.14900654437E+03  0.72093030117E+03  0.15294330000E+03 0.  0.
<mgrwt>
<rscale>  0 0.88384794E+03</rscale>
<asrwt>0</asrwt>
<pdfrwt beam="1">  1        2 0.46701357E+00 0.95286731E+03</pdfrwt>
<pdfrwt beam="2">  1       -2 0.79618633E-01 0.95286731E+03</pdfrwt>
<totfact> 0.23793127E+00</totfact>
</mgrwt>
</event>
<event>
 4    2  0.6387803E-007  0.6596266E+03  0.7818608E-02  0.1024542E+00
         -2   -1    0    0    0  501 -0.00000000000E+00  0.00000000000E+00  0.10054696378E+04  0.10054696378E+04  0.25500000000E-02 0.  1.
          2   -1    0    0  501    0  0.00000000000E+00 -0.00000000000E+00 -0.17708325586E+04  0.17708325586E+04  0.25500000000E-02 0. -1.
    8880023    1    1    2    0    0 -0.30576341628E+02 -0.19029439748E+02  0.89317040776E+03  0.11103425669E+04  0.65864270000E+03 0.  1.
    8880022    1    1    2    0    0  0.30576341628E+02  0.19029439748E+02 -0.16585333285E+04  0.16659596295E+04  0.15294330000E+03 0.  0.
<mgrwt>
<rscale>  0 0.46082482E+03</rscale>
<asrwt>0</asrwt>
<pdfrwt beam="1">  1        2 0.27243578E+00 0.65962659E+03</pdfrwt>
<pdfrwt beam="2">  1       -2 0.15468764E+00 0.65962659E+03</pdfrwt>
<totfact> 0.25964852E+00</totfact>
</mgrwt>
</event>
<event>
 4    2  0.6387803E-007  0.6849100E+03  0.7818608E-02  0.1006672E+00
         -2   -1    0    0    0  501 -0.00000000000E+00  0.00000000000E+00  0.11480827323E+03  0.11480827326E+03  0.25500000000E-02 0.  1.
          2   -1    0    0  501    0  0.00000000000E+00 -0.00000000000E+00 -0.39123035496E+04  0.39123035496E+04  0.25500000000E-02 0. -1.
    8880023    1    1    2    0    0  0.10715472061E+03 -0.15430303216E+03 -0.95992069884E+03  0.11792156352E+04  0.65864270000E+03 0.  1.
    8880022    1    1    2    0    0 -0.10715472061E+03  0.15430303216E+03 -0.28375745775E+04  0.28478961877E+04  0.15294330000E+03 0.  0.
<mgrwt>
<rscale>  0 0.52818904E+03</rscale>
<asrwt>0</asrwt>
<pdfrwt beam="1">  1        2 0.60189275E+00 0.68491004E+03</pdfrwt>
<pdfrwt beam="2">  1       -2 0.17662814E-01 0.68491004E+03</pdfrwt>
<totfact> 0.11841275E+01</totfact>
</mgrwt>
</event>
<event>
 4    2  0.6387803E-007  0.7980220E+03  0.7818608E-02  0.9715089E-01
         -2   -1    0    0    0  501 -0.00000000000E+00  0.00000000000E+00  0.71089311156E+03  0.71089311157E+03  0.25500000000E-02 0.  1.
          2   -1    0    0  501    0  0.00000000000E+00 -0.00000000000E+00 -0.14507065835E+04  0.14507065835E+04  0.25500000000E-02 0. -1.
    8880023    1    1    2    0    0 -0.38469141582E+03 -0.23460896488E+03  0.42443061011E+03  0.90386968135E+03  0.65864270000E+03 0.  1.
    8880022    1    1    2    0    0  0.38469141582E+03  0.23460896488E+03 -0.11642440821E+04  0.12577300137E+04  0.15294330000E+03 0.  0.
<mgrwt>
<rscale>  0 0.70125441E+03</rscale>
<asrwt>0</asrwt>
<pdfrwt beam="1">  1        2 0.22318563E+00 0.79802197E+03</pdfrwt>
<pdfrwt beam="2">  1       -2 0.10936817E+00 0.79802197E+03</pdfrwt>
<totfact> 0.91767934E+00</totfact>
</mgrwt>
</event>
<event>
 4    2  0.6387803E-007  0.6597493E+03  0.7818608E-02  0.1024415E+00
         -2   -1    0    0    0  501 -0.00000000000E+00  0.00000000000E+00  0.34970345549E+03  0.34970345550E+03  0.25500000000E-02 0.  1.
          2   -1    0    0  501    0  0.00000000000E+00 -0.00000000000E+00 -0.57107199452E+03  0.57107199452E+03  0.25500000000E-02 0. -1.
    8880023    1    1    2    0    0 -0.51963853532E+01  0.37841076298E+02 -0.13493500582E+02  0.65988728606E+03  0.65864270000E+03 0.  1.
    8880022    1    1    2    0    0  0.51963853532E+01 -0.37841076298E+02 -0.20787503844E+03  0.26088816397E+03  0.15294330000E+03 0.  0.
<mgrwt>
<rscale>  0 0.46126587E+03</rscale>
<asrwt>0</asrwt>
<pdfrwt beam="1">  1        2 0.87857230E-01 0.65974931E+03</pdfrwt>
<pdfrwt beam="2">  1       -2 0.53800532E-01 0.65974931E+03</pdfrwt>
<totfact> 0.17378702E+02</totfact>
</mgrwt>
</event>
<event>
 4    2  0.6387803E-007  0.7509805E+03  0.7818608E-02  0.9829044E-01
          2   -1    0    0  501    0  0.00000000000E+00  0.00000000000E+00  0.62619221017E+03  0.62619221017E+03  0.25500000000E-02 0. -1.
         -2   -1    0    0    0  501 -0.00000000000E+00 -0.00000000000E+00 -0.67667939097E+03  0.67667939097E+03  0.25500000000E-02 0.  1.
    8880023    1    1    2    0    0 -0.12361757519E+03 -0.33893976724E+03 -0.33127167125E+03  0.82079997389E+03  0.65864270000E+03 0.  1.
    8880022    1    1    2    0    0  0.12361757519E+03  0.33893976724E+03  0.28078449044E+03  0.48207162725E+03  0.15294330000E+03 0.  0.
<mgrwt>
<rscale>  0 0.63826910E+03</rscale>
<asrwt>0</asrwt>
<pdfrwt beam="1">  1        2 0.96337263E-01 0.75098048E+03</pdfrwt>
<pdfrwt beam="2">  1       -2 0.10410452E+00 0.75098048E+03</pdfrwt>
<totfact> 0.35774009E+01</totfact>
</mgrwt>
</event>
<event>
 4    2  0.6387803E-007  0.7380952E+03  0.7818608E-02  0.9865531E-01
          2   -1    0    0  501    0  0.00000000000E+00  0.00000000000E+00  0.27700920334E+04  0.27700920334E+04  0.25500000000E-02 0. -1.
         -2   -1    0    0    0  501 -0.00000000000E+00 -0.00000000000E+00 -0.25776470093E+03  0.25776470095E+03  0.25500000000E-02 0.  1.
    8880023    1    1    2    0    0  0.33187503974E+03 -0.28866153087E+02  0.31895048035E+03  0.80406088823E+03  0.65864270000E+03 0.  0.
    8880022    1    1    2    0    0 -0.33187503974E+03  0.28866153087E+02  0.21933768521E+04  0.22237958461E+04  0.15294330000E+03 0.  0.
<mgrwt>
<rscale>  0 0.61961287E+03</rscale>
<asrwt>0</asrwt>
<pdfrwt beam="1">  1        2 0.42616799E+00 0.73809519E+03</pdfrwt>
<pdfrwt beam="2">  1       -2 0.39656110E-01 0.73809519E+03</pdfrwt>
<totfact> 0.15317106E+01</totfact>
</mgrwt>
</event>
<event>
 4    2  0.6387803E-007  0.9142236E+03  0.7818608E-02  0.9503573E-01
          2   -1    0    0  501    0  0.00000000000E+00  0.00000000000E+00  0.19471815289E+04  0.19471815289E+04  0.25500000000E-02 0. -1.
         -2   -1    0    0    0  501 -0.00000000000E+00 -0.00000000000E+00 -0.47289747457E+03  0.47289747458E+03  0.25500000000E-02 0.  1.
    8880023    1    1    2    0    0 -0.58030226698E+03 -0.25542884509E+03  0.15118568342E+04  0.17667812285E+04  0.65864270000E+03 0.  1.
    8880022    1    1    2    0    0  0.58030226698E+03  0.25542884509E+03 -0.37572779902E+02  0.65329777496E+03  0.15294330000E+03 0.  0.
<mgrwt>
<rscale>  0 0.84020887E+03</rscale>
<asrwt>0</asrwt>
<pdfrwt beam="1">  1        2 0.29956639E+00 0.91422362E+03</pdfrwt>
<pdfrwt beam="2">  1       -2 0.72753458E-01 0.91422362E+03</pdfrwt>
<totfact> 0.12353911E+01</totfact>
</mgrwt>
</event>
<event>
 4    2  0.6387803E-007  0.6862060E+03  0.7818608E-02  0.1006011E+00
          2   -1    0    0  501    0  0.00000000000E+00  0.00000000000E+00  0.45046069484E+03  0.45046069485E+03  0.25500000000E-02 0. -1.
         -2   -1    0    0    0  501 -0.00000000000E+00 -0.00000000000E+00 -0.12233327910E+04  0.12233327910E+04  0.25500000000E-02 0.  1.
    8880023    1    1    2    0    0 -0.12213406509E+03 -0.14883448982E+03 -0.10804929237E+04  0.12799779684E+04  0.65864270000E+03 0.  0.
    8880022    1    1    2    0    0  0.12213406509E+03  0.14883448982E+03  0.30762082754E+03  0.39381551743E+03  0.15294330000E+03 0.  0.
<mgrwt>
<rscale>  0 0.53091436E+03</rscale>
<asrwt>0</asrwt>
<pdfrwt beam="1">  1        2 0.69301646E-01 0.68620598E+03</pdfrwt>
<pdfrwt beam="2">  1       -2 0.18820504E+00 0.68620598E+03</pdfrwt>
<totfact> 0.11338327E+01</totfact>
</mgrwt>
</event>
<event>
 4    2  0.6387803E-007  0.7205725E+03  0.7818608E-02  0.9920654E-01
         -2   -1    0    0    0  501 -0.00000000000E+00  0.00000000000E+00  0.98885061457E+03  0.98885061457E+03  0.25500000000E-02 0.  1.
          2   -1    0    0  501    0  0.00000000000E+00 -0.00000000000E+00 -0.11367126973E+04  0.11367126973E+04  0.25500000000E-02 0. -1.
    8880023    1    1    2    0    0 -0.16886747553E+03  0.23853360514E+03  0.82671994779E+03  0.10966725051E+04  0.65864270000E+03 0.  1.
    8880022    1    1    2    0    0  0.16886747553E+03 -0.23853360514E+03 -0.97458203052E+03  0.10288908068E+04  0.15294330000E+03 0.  0.
<mgrwt>
<rscale>  0 0.59270684E+03</rscale>
<asrwt>0</asrwt>
<pdfrwt beam="1">  1        2 0.17487888E+00 0.72057249E+03</pdfrwt>
<pdfrwt beam="2">  1       -2 0.15213086E+00 0.72057249E+03</pdfrwt>
<totfact> 0.61162033E+00</totfact>
</mgrwt>
</event>
<event>
 4    2  0.6387803E-007  0.1044758E+04  0.7818608E-02  0.9325209E-01
         -2   -1    0    0    0  501 -0.00000000000E+00  0.00000000000E+00  0.11683041100E+04  0.11683041101E+04  0.25500000000E-02 0.  1.
          2   -1    0    0  501    0  0.00000000000E+00 -0.00000000000E+00 -0.16349446414E+04  0.16349446414E+04  0.25500000000E-02 0. -1.
    8880023    1    1    2    0    0  0.81079042817E+03 -0.18136672226E+02  0.78305309458E+03  0.13056386991E+04  0.65864270000E+03 0.  0.
    8880022    1    1    2    0    0 -0.81079042817E+03  0.18136672226E+02 -0.12496936259E+04  0.14976100523E+04  0.15294330000E+03 0.  0.
<mgrwt>
<rscale>  0 0.98494827E+03</rscale>
<asrwt>0</asrwt>
<pdfrwt beam="1">  1        2 0.25152994E+00 0.10447585E+04</pdfrwt>
<pdfrwt beam="2">  1       -2 0.17973909E+00 0.10447585E+04</pdfrwt>
<totfact> 0.19180522E+00</totfact>
</mgrwt>
</event>
<event>
 4    2  0.6387803E-007  0.7192926E+03  0.7818608E-02  0.9924987E-01
         -2   -1    0    0    0  501 -0.00000000000E+00  0.00000000000E+00  0.15902254235E+04  0.15902254235E+04  0.25500000000E-02 0.  1.
          2   -1    0    0  501    0  0.00000000000E+00 -0.00000000000E+00 -0.47788122480E+03  0.47788122481E+03  0.25500000000E-02 0. -1.
    8880023    1    1    2    0    0 -0.15041627111E+03  0.24687375470E+03  0.14371918067E+04  0.16071410022E+04  0.65864270000E+03 0.  1.
    8880022    1    1    2    0    0  0.15041627111E+03 -0.24687375470E+03 -0.32484760807E+03  0.46096564607E+03  0.15294330000E+03 0.  0.
<mgrwt>
<rscale>  0 0.59065460E+03</rscale>
<asrwt>0</asrwt>
<pdfrwt beam="1">  1        2 0.73520189E-01 0.71929265E+03</pdfrwt>
<pdfrwt beam="2">  1       -2 0.24465006E+00 0.71929265E+03</pdfrwt>
<totfact> 0.46432849E+00</totfact>
</mgrwt>
</event>
<event>
 4    2  0.6387803E-007  0.7127278E+03  0.7818608E-02  0.9948008E-01
         -2   -1    0    0    0  501 -0.00000000000E+00  0.00000000000E+00  0.27804297778E+03  0.27804297779E+03  0.25500000000E-02 0.  1.
          2   -1    0    0  501    0  0.00000000000E+00 -0.00000000000E+00 -0.11084085460E+04  0.11084085460E+04  0.25500000000E-02 0. -1.
    8880023    1    1    2    0    0 -0.22315514249E+03 -0.15611706031E+03 -0.30499803382E+03  0.77524496840E+03  0.65864270000E+03 0.  1.
    8880022    1    1    2    0    0  0.22315514249E+03  0.15611706031E+03 -0.52536753441E+03  0.61120655541E+03  0.15294330000E+03 0.  0.
<mgrwt>
<rscale>  0 0.57989999E+03</rscale>
<asrwt>0</asrwt>
<pdfrwt beam="1">  1        2 0.17052439E+00 0.71272783E+03</pdfrwt>
<pdfrwt beam="2">  1       -2 0.42775843E-01 0.71272783E+03</pdfrwt>
<totfact> 0.11339675E+02</totfact>
</mgrwt>
</event>
<event>
 4    2  0.6387803E-007  0.8805183E+03  0.7818608E-02  0.9558059E-01
         -2   -1    0    0    0  501 -0.00000000000E+00  0.00000000000E+00  0.78075995990E+03  0.78075995990E+03  0.25500000000E-02 0.  1.
          2   -1    0    0  501    0  0.00000000000E+00 -0.00000000000E+00 -0.15109334006E+04  0.15109334006E+04  0.25500000000E-02 0. -1.
    8880023    1    1    2    0    0 -0.44962088525E+03 -0.37328714622E+03  0.43284563423E+03  0.98115635009E+03  0.65864270000E+03 0.  0.
    8880022    1    1    2    0    0  0.44962088525E+03  0.37328714622E+03 -0.11630190749E+04  0.13105370104E+04  0.15294330000E+03 0.  0.
<mgrwt>
<rscale>  0 0.80135436E+03</rscale>
<asrwt>0</asrwt>
<pdfrwt beam="1">  1        2 0.23245129E+00 0.88051828E+03</pdfrwt>
<pdfrwt beam="2">  1       -2 0.12011692E+00 0.88051828E+03</pdfrwt>
<totfact> 0.66802409E+00</totfact>
</mgrwt>
</event>
<event>
 4    2  0.6387803E-007  0.8275661E+03  0.7818608E-02  0.9654087E-01
         -2   -1    0    0    0  501 -0.00000000000E+00  0.00000000000E+00  0.21575048357E+04  0.21575048357E+04  0.25500000000E-02 0.  1.
          2   -1    0    0  501    0  0.00000000000E+00 -0.00000000000E+00 -0.33549109433E+03  0.33549109434E+03  0.25500000000E-02 0. -1.
    8880023    1    1    2    0    0 -0.25116052818E+03 -0.43355944559E+03  0.17853635106E+04  0.19678385287E+04  0.65864270000E+03 0.  0.
    8880022    1    1    2    0    0  0.25116052818E+03  0.43355944559E+03  0.36650230784E+02  0.52515740137E+03  0.15294330000E+03 0. -1.
<mgrwt>
<rscale>  0 0.73817500E+03</rscale>
<asrwt>0</asrwt>
<pdfrwt beam="1">  1        2 0.51614016E-01 0.82756608E+03</pdfrwt>
<pdfrwt beam="2">  1       -2 0.33192381E+00 0.82756608E+03</pdfrwt>
<totfact> 0.20278151E+00</totfact>
</mgrwt>
</event>
<event>
 4    2  0.6387803E-007  0.7709919E+03  0.7818608E-02  0.9777439E-01
          2   -1    0    0  501    0  0.00000000000E+00  0.00000000000E+00  0.12381240306E+04  0.12381240306E+04  0.25500000000E-02 0. -1.
         -2   -1    0    0    0  501 -0.00000000000E+00 -0.00000000000E+00 -0.64280661665E+03  0.64280661665E+03  0.25500000000E-02 0.  1.
    8880023    1    1    2    0    0  0.39229584954E+03 -0.81989480155E+02 -0.34706751942E+03  0.84550835462E+03  0.65864270000E+03 0.  1.
    8880022    1    1    2    0    0 -0.39229584954E+03  0.81989480155E+02  0.94238493337E+03  0.10354222926E+04  0.15294330000E+03 0.  0.
<mgrwt>
<rscale>  0 0.66587472E+03</rscale>
<asrwt>0</asrwt>
<pdfrwt beam="1">  1        2 0.19048062E+00 0.77099190E+03</pdfrwt>
<pdfrwt beam="2">  1       -2 0.98893326E-01 0.77099190E+03</pdfrwt>
<totfact> 0.15510054E+01</totfact>
</mgrwt>
</event>
<event>
 4    2  0.6387803E-007  0.8853704E+03  0.7818608E-02  0.9549937E-01
          2   -1    0    0  501    0  0.00000000000E+00  0.00000000000E+00  0.15305609886E+04  0.15305609886E+04  0.25500000000E-02 0. -1.
         -2   -1    0    0    0  501 -0.00000000000E+00 -0.00000000000E+00 -0.42853539426E+03  0.42853539427E+03  0.25500000000E-02 0.  1.
    8880023    1    1    2    0    0 -0.58782210569E+03 -0.67347374051E+02  0.10066113573E+04  0.13405771621E+04  0.65864270000E+03 0. -1.
    8880022    1    1    2    0    0  0.58782210569E+03  0.67347374051E+02  0.95414236999E+02  0.61851922069E+03  0.15294330000E+03 0.  0.
<mgrwt>
<rscale>  0 0.80700191E+03</rscale>
<asrwt>0</asrwt>
<pdfrwt beam="1">  1        2 0.23547092E+00 0.88537038E+03</pdfrwt>
<pdfrwt beam="2">  1       -2 0.65928523E-01 0.88537038E+03</pdfrwt>
<totfact> 0.26068058E+01</totfact>
</mgrwt>
</event>
<event>
 4    2  0.6387803E-007  0.1041203E+04  0.7818608E-02  0.9329532E-01
          2   -1    0    0  501    0  0.00000000000E+00  0.00000000000E+00  0.15935674196E+04  0.15935674196E+04  0.25500000000E-02 0. -1.
         -2   -1    0    0    0  501 -0.00000000000E+00 -0.00000000000E+00 -0.94287218930E+03  0.94287218931E+03  0.25500000000E-02 0.  1.
    8880023    1    1    2    0    0 -0.80083205242E+03  0.94669228987E+02 -0.47406132638E+03  0.11440448359E+04  0.65864270000E+03 0.  0.
    8880022    1    1    2    0    0  0.80083205242E+03 -0.94669228987E+02  0.11247565566E+04  0.13923947730E+04  0.15294330000E+03 0.  0.
<mgrwt>
<rscale>  0 0.98109001E+03</rscale>
<asrwt>0</asrwt>
<pdfrwt beam="1">  1        2 0.24516422E+00 0.10412034E+04</pdfrwt>
<pdfrwt beam="2">  1       -2 0.14505726E+00 0.10412034E+04</pdfrwt>
<totfact> 0.36394884E+00</totfact>
</mgrwt>
</event>
<event>
 4    2  0.6387803E-007  0.8231907E+03  0.7818608E-02  0.9662729E-01
         -2   -1    0    0    0  501 -0.00000000000E+00  0.00000000000E+00  0.44498855741E+03  0.44498855742E+03  0.25500000000E-02 0.  1.
          2   -1    0    0  501    0  0.00000000000E+00 -0.00000000000E+00 -0.10841752638E+04  0.10841752638E+04  0.25500000000E-02 0. -1.
    8880023    1    1    2    0    0  0.67104258100E+02  0.48921338060E+03 -0.58396345935E+03  0.10092850149E+04  0.65864270000E+03 0.  0.
    8880022    1    1    2    0    0 -0.67104258100E+02 -0.48921338060E+03 -0.55223247024E+02  0.51987880630E+03  0.15294330000E+03 0.  0.
<mgrwt>
<rscale>  0 0.73279896E+03</rscale>
<asrwt>0</asrwt>
<pdfrwt beam="1">  1        2 0.16679619E+00 0.82319069E+03</pdfrwt>
<pdfrwt beam="2">  1       -2 0.68459778E-01 0.82319069E+03</pdfrwt>
<totfact> 0.43921683E+01</totfact>
</mgrwt>
</event>
<event>
 4    2  0.6387803E-007  0.6794632E+03  0.7818608E-02  0.1009629E+00
          2   -1    0    0  501    0  0.00000000000E+00  0.00000000000E+00  0.72494408918E+03  0.72494408919E+03  0.25500000000E-02 0. -1.
         -2   -1    0    0    0  501 -0.00000000000E+00 -0.00000000000E+00 -0.56371202881E+03  0.56371202882E+03  0.25500000000E-02 0.  1.
    8880023    1    1    2    0    0 -0.16691318649E+03 -0.17195347739E+00 -0.32433777393E+03  0.75290453529E+03  0.65864270000E+03 0.  1.
    8880022    1    1    2    0    0  0.16691318649E+03  0.17195347739E+00  0.48556983430E+03  0.53575158272E+03  0.15294330000E+03 0.  0.
<mgrwt>
<rscale>  0 0.51622376E+03</rscale>
<asrwt>0</asrwt>
<pdfrwt beam="1">  1        2 0.11152986E+00 0.67946321E+03</pdfrwt>
<pdfrwt beam="2">  1       -2 0.86724928E-01 0.67946321E+03</pdfrwt>
<totfact> 0.45952005E+01</totfact>
</mgrwt>
</event>
<event>
 4    2  0.6387803E-007  0.6655911E+03  0.7818608E-02  0.1019043E+00
         -2   -1    0    0    0  501 -0.00000000000E+00  0.00000000000E+00  0.81699193167E+03  0.81699193167E+03  0.25500000000E-02 0.  1.
          2   -1    0    0  501    0  0.00000000000E+00 -0.00000000000E+00 -0.22368124599E+03  0.22368124600E+03  0.25500000000E-02 0. -1.
    8880023    1    1    2    0    0 -0.66744075286E+02 -0.68894809685E+02  0.40172520364E+03  0.77742820369E+03  0.65864270000E+03 0.  0.
    8880022    1    1    2    0    0  0.66744075286E+02  0.68894809685E+02  0.19158548204E+03  0.26324497399E+03  0.15294330000E+03 0.  0.
<mgrwt>
<rscale>  0 0.48033698E+03</rscale>
<asrwt>0</asrwt>
<pdfrwt beam="1">  1        2 0.34412499E-01 0.66559107E+03</pdfrwt>
<pdfrwt beam="2">  1       -2 0.12569107E+00 0.66559107E+03</pdfrwt>
<totfact> 0.73090944E+01</totfact>
</mgrwt>
</event>
<event>
 4    2  0.6387803E-007  0.7035606E+03  0.7818608E-02  0.9982739E-01
         -2   -1    0    0    0  501 -0.00000000000E+00  0.00000000000E+00  0.74859944421E+03  0.74859944421E+03  0.25500000000E-02 0.  1.
          2   -1    0    0  501    0  0.00000000000E+00 -0.00000000000E+00 -0.12039780562E+04  0.12039780562E+04  0.25500000000E-02 0. -1.
    8880023    1    1    2    0    0 -0.24266589094E+03 -0.47964307995E+02  0.55820026618E+03  0.89810080330E+03  0.65864270000E+03 0.  1.
    8880022    1    1    2    0    0  0.24266589094E+03  0.47964307995E+02 -0.10135788782E+04  0.10544766971E+04  0.15294330000E+03 0.  0.
<mgrwt>
<rscale>  0 0.56413614E+03</rscale>
<asrwt>0</asrwt>
<pdfrwt beam="1">  1        2 0.18522739E+00 0.70356060E+03</pdfrwt>
<pdfrwt beam="2">  1       -2 0.11516915E+00 0.70356060E+03</pdfrwt>
<totfact> 0.11352974E+01</totfact>
</mgrwt>
</event>
<event>
 4    2  0.6387803E-007  0.7019575E+03  0.7818608E-02  0.9989176E-01
         -2   -1    0    0    0  501 -0.00000000000E+00  0.00000000000E+00  0.16462357659E+03  0.16462357661E+03  0.25500000000E-02 0.  1.
          2   -1    0    0  501    0  0.00000000000E+00 -0.00000000000E+00 -0.39941073926E+04  0.39941073926E+04  0.25500000000E-02 0. -1.
    8880023    1    1    2    0    0 -0.44536148231E+02  0.23864325186E+03 -0.62033694607E+03  0.93678290072E+03  0.65864270000E+03 0.  1.
    8880022    1    1    2    0    0  0.44536148231E+02 -0.23864325186E+03 -0.32091468700E+04  0.32219480685E+04  0.15294330000E+03 0.  0.
<mgrwt>
<rscale>  0 0.56127415E+03</rscale>
<asrwt>0</asrwt>
<pdfrwt beam="1">  1        2 0.61447799E+00 0.70195746E+03</pdfrwt>
<pdfrwt beam="2">  1       -2 0.25326707E-01 0.70195746E+03</pdfrwt>
<totfact> 0.54028171E+00</totfact>
</mgrwt>
</event>
<event>
 4    2  0.6387803E-007  0.7024426E+03  0.7818608E-02  0.9987215E-01
          2   -1    0    0  501    0  0.00000000000E+00  0.00000000000E+00  0.92822108646E+03  0.92822108646E+03  0.25500000000E-02 0. -1.
         -2   -1    0    0    0  501 -0.00000000000E+00 -0.00000000000E+00 -0.47635873355E+03  0.47635873356E+03  0.25500000000E-02 0.  1.
    8880023    1    1    2    0    0 -0.18370778757E+03 -0.16083186334E+03 -0.16692824143E+03  0.72200462847E+03  0.65864270000E+03 0.  1.
    8880022    1    1    2    0    0  0.18370778757E+03  0.16083186334E+03  0.61879059433E+03  0.68257519156E+03  0.15294330000E+03 0.  0.
<mgrwt>
<rscale>  0 0.56214395E+03</rscale>
<asrwt>0</asrwt>
<pdfrwt beam="1">  1        2 0.14280324E+00 0.70244263E+03</pdfrwt>
<pdfrwt beam="2">  1       -2 0.73285960E-01 0.70244263E+03</pdfrwt>
<totfact> 0.48073049E+01</totfact>
</mgrwt>
</event>
<event>
 4    2  0.6387803E-007  0.1823514E+04  0.7818608E-02  0.8709639E-01
         -2   -1    0    0    0  501 -0.00000000000E+00  0.00000000000E+00  0.13609381714E+04  0.13609381714E+04  0.25500000000E-02 0.  1.
          2   -1    0    0  501    0  0.00000000000E+00 -0.00000000000E+00 -0.31751591213E+04  0.31751591213E+04  0.25500000000E-02 0. -1.
    8880023    1    1    2    0    0  0.86981143462E+03  0.14611031475E+04 -0.21256601238E+04  0.28006491225E+04  0.65864270000E+03 0.  0.
    8880022    1    1    2    0    0 -0.86981143462E+03 -0.14611031475E+04  0.31143917392E+03  0.17354481702E+04  0.15294330000E+03 0.  0.
<mgrwt>
<rscale>  0 0.17937327E+04</rscale>
<asrwt>0</asrwt>
<pdfrwt beam="1">  1        2 0.48848602E+00 0.18235143E+04</pdfrwt>
<pdfrwt beam="2">  1       -2 0.20937510E+00 0.18235143E+04</pdfrwt>
<totfact> 0.14130694E-01</totfact>
</mgrwt>
</event>
<event>
 4    2  0.6387803E-007  0.6988563E+03  0.7818608E-02  0.1000198E+00
          2   -1    0    0  501    0  0.00000000000E+00  0.00000000000E+00  0.69105711503E+03  0.69105711504E+03  0.25500000000E-02 0. -1.
         -2   -1    0    0    0  501 -0.00000000000E+00 -0.00000000000E+00 -0.43359663701E+03  0.43359663702E+03  0.25500000000E-02 0.  1.
    8880023    1    1    2    0    0  0.92496684853E+02 -0.21455589749E+03 -0.60505642154E+02  0.70147060441E+03  0.65864270000E+03 0.  0.
    8880022    1    1    2    0    0 -0.92496684853E+02  0.21455589749E+03  0.31796612018E+03  0.42318314764E+03  0.15294330000E+03 0.  0.
<mgrwt>
<rscale>  0 0.55563534E+03</rscale>
<asrwt>0</asrwt>
<pdfrwt beam="1">  1        2 0.10631648E+00 0.69885626E+03</pdfrwt>
<pdfrwt beam="2">  1       -2 0.66707175E-01 0.69885626E+03</pdfrwt>
<totfact> 0.87306964E+01</totfact>
</mgrwt>
</event>
<event>
 4    2  0.6387803E-007  0.6780714E+03  0.7818608E-02  0.1010436E+00
          2   -1    0    0  501    0  0.00000000000E+00  0.00000000000E+00  0.11572146763E+04  0.11572146763E+04  0.25500000000E-02 0. -1.
         -2   -1    0    0    0  501 -0.00000000000E+00 -0.00000000000E+00 -0.70124380609E+03  0.70124380609E+03  0.25500000000E-02 0.  1.
    8880023    1    1    2    0    0 -0.13961057824E+03  0.80495434189E+02 -0.52190112134E+03  0.85566442908E+03  0.65864270000E+03 0.  1.
    8880022    1    1    2    0    0  0.13961057824E+03 -0.80495434189E+02  0.97787199158E+03  0.10027940533E+04  0.15294330000E+03 0.  0.
<mgrwt>
<rscale>  0 0.51301608E+03</rscale>
<asrwt>0</asrwt>
<pdfrwt beam="1">  1        2 0.17803303E+00 0.67807141E+03</pdfrwt>
<pdfrwt beam="2">  1       -2 0.10788366E+00 0.67807141E+03</pdfrwt>
<totfact> 0.14227662E+01</totfact>
</mgrwt>
</event>
<event>
 4    2  0.6387803E-007  0.1126840E+04  0.7818608E-02  0.9231745E-01
         -2   -1    0    0    0  501 -0.00000000000E+00  0.00000000000E+00  0.20230900682E+04  0.20230900682E+04  0.25500000000E-02 0.  1.
          2   -1    0    0  501    0  0.00000000000E+00 -0.00000000000E+00 -0.11662159724E+04  0.11662159724E+04  0.25500000000E-02 0. -1.
    8880023    1    1    2    0    0 -0.28766319210E+03 -0.86787615448E+03  0.16304306438E+04  0.19819367856E+04  0.65864270000E+03 0.  0.
    8880022    1    1    2    0    0  0.28766319210E+03  0.86787615448E+03 -0.77355654807E+03  0.12073692549E+04  0.15294330000E+03 0.  0.
<mgrwt>
<rscale>  0 0.10731690E+04</rscale>
<asrwt>0</asrwt>
<pdfrwt beam="1">  1        2 0.17941784E+00 0.11268404E+04</pdfrwt>
<pdfrwt beam="2">  1       -2 0.31124463E+00 0.11268404E+04</pdfrwt>
<totfact> 0.53133111E-01</totfact>
</mgrwt>
</event>
<event>
 4    2  0.6387803E-007  0.8614185E+03  0.7818608E-02  0.9591045E-01
          2   -1    0    0  501    0  0.00000000000E+00  0.00000000000E+00  0.16246978081E+04  0.16246978081E+04  0.25500000000E-02 0. -1.
         -2   -1    0    0    0  501 -0.00000000000E+00 -0.00000000000E+00 -0.90444550012E+03  0.90444550012E+03  0.25500000000E-02 0.  1.
    8880023    1    1    2    0    0  0.49190048282E+03 -0.25742103415E+03 -0.62602702562E+03  0.10648716903E+04  0.65864270000E+03 0.  0.
    8880022    1    1    2    0    0 -0.49190048282E+03  0.25742103415E+03  0.13462793336E+04  0.14642716178E+04  0.15294330000E+03 0.  0.
<mgrwt>
<rscale>  0 0.77891719E+03</rscale>
<asrwt>0</asrwt>
<pdfrwt beam="1">  1        2 0.24995351E+00 0.86141853E+03</pdfrwt>
<pdfrwt beam="2">  1       -2 0.13914546E+00 0.86141853E+03</pdfrwt>
<totfact> 0.39879050E+00</totfact>
</mgrwt>
</event>
<event>
 4    2  0.6387803E-007  0.6741924E+03  0.7818608E-02  0.1012820E+00
         -2   -1    0    0    0  501 -0.00000000000E+00  0.00000000000E+00  0.74922284314E+03  0.74922284314E+03  0.25500000000E-02 0.  1.
          2   -1    0    0  501    0  0.00000000000E+00 -0.00000000000E+00 -0.26096207784E+03  0.26096207785E+03  0.25500000000E-02 0. -1.
    8880023    1    1    2    0    0 -0.97197496771E+02 -0.10619709337E+03  0.37925627038E+03  0.77354424625E+03  0.65864270000E+03 0. -1.
    8880022    1    1    2    0    0  0.97197496771E+02  0.10619709337E+03  0.10900449492E+03  0.23664067475E+03  0.15294330000E+03 0.  1.
<mgrwt>
<rscale>  0 0.50369011E+03</rscale>
<asrwt>0</asrwt>
<pdfrwt beam="1">  1        2 0.40148012E-01 0.67419239E+03</pdfrwt>
<pdfrwt beam="2">  1       -2 0.11526505E+00 0.67419239E+03</pdfrwt>
<totfact> 0.76226233E+01</totfact>
</mgrwt>
</event>
<event>
 4    2  0.6387803E-007  0.8140377E+03  0.7818608E-02  0.9681227E-01
         -2   -1    0    0    0  501 -0.00000000000E+00  0.00000000000E+00  0.26362362970E+04  0.26362362970E+04  0.25500000000E-02 0.  1.
          2   -1    0    0  501    0  0.00000000000E+00 -0.00000000000E+00 -0.88853191863E+03  0.88853191864E+03  0.25500000000E-02 0. -1.
    8880023    1    1    2    0    0 -0.39287129525E+03  0.27294551172E+03  0.24949695671E+04  0.26244104965E+04  0.65864270000E+03 0.  1.
    8880022    1    1    2    0    0  0.39287129525E+03 -0.27294551172E+03 -0.74726518878E+03  0.90035771912E+03  0.15294330000E+03 0.  0.
<mgrwt>
<rscale>  0 0.72145600E+03</rscale>
<asrwt>0</asrwt>
<pdfrwt beam="1">  1        2 0.13669722E+00 0.81403766E+03</pdfrwt>
<pdfrwt beam="2">  1       -2 0.40557481E+00 0.81403766E+03</pdfrwt>
<totfact> 0.21458602E-01</totfact>
</mgrwt>
</event>
<event>
 4    2  0.6387803E-007  0.8096474E+03  0.7818608E-02  0.9690312E-01
         -2   -1    0    0    0  501 -0.00000000000E+00  0.00000000000E+00  0.86918665904E+03  0.86918665904E+03  0.25500000000E-02 0.  1.
          2   -1    0    0  501    0  0.00000000000E+00 -0.00000000000E+00 -0.10827760211E+04  0.10827760211E+04  0.25500000000E-02 0. -1.
    8880023    1    1    2    0    0 -0.29620409930E+03  0.36603531189E+03  0.59436277998E+03  0.10043883903E+04  0.65864270000E+03 0.  0.
    8880022    1    1    2    0    0  0.29620409930E+03 -0.36603531189E+03 -0.80795214202E+03  0.94757428986E+03  0.15294330000E+03 0. -1.
<mgrwt>
<rscale>  0 0.71596560E+03</rscale>
<asrwt>0</asrwt>
<pdfrwt beam="1">  1        2 0.16658093E+00 0.80964741E+03</pdfrwt>
<pdfrwt beam="2">  1       -2 0.13372102E+00 0.80964741E+03</pdfrwt>
<totfact> 0.91284266E+00</totfact>
</mgrwt>
</event>
<event>
 4    2  0.6387803E-007  0.6759584E+03  0.7818608E-02  0.1011709E+00
         -2   -1    0    0    0  501 -0.00000000000E+00  0.00000000000E+00  0.36812439656E+03  0.36812439657E+03  0.25500000000E-02 0.  1.
          2   -1    0    0  501    0  0.00000000000E+00 -0.00000000000E+00 -0.12250575103E+04  0.12250575103E+04  0.25500000000E-02 0. -1.
    8880023    1    1    2    0    0 -0.38783759931E+02  0.14698762581E+03  0.33716583704E+02  0.67679875624E+03  0.65864270000E+03 0.  1.
    8880022    1    1    2    0    0  0.38783759931E+02 -0.14698762581E+03 -0.89064969748E+03  0.91638315066E+03  0.15294330000E+03 0.  0.
<mgrwt>
<rscale>  0 0.50801085E+03</rscale>
<asrwt>0</asrwt>
<pdfrwt beam="1">  1        2 0.18847038E+00 0.67595839E+03</pdfrwt>
<pdfrwt beam="2">  1       -2 0.56634523E-01 0.67595839E+03</pdfrwt>
<totfact> 0.54869955E+01</totfact>
</mgrwt>
</event>
<event>
 4    2  0.6387803E-007  0.1003817E+04  0.7818608E-02  0.9376581E-01
          2   -1    0    0  501    0  0.00000000000E+00  0.00000000000E+00  0.74265458779E+03  0.74265458780E+03  0.25500000000E-02 0. -1.
         -2   -1    0    0    0  501 -0.00000000000E+00 -0.00000000000E+00 -0.13119598024E+04  0.13119598024E+04  0.25500000000E-02 0.  1.
    8880023    1    1    2    0    0 -0.48112751814E+03  0.58511064727E+03 -0.75947973787E+03  0.12587524923E+04  0.65864270000E+03 0.  0.
    8880022    1    1    2    0    0  0.48112751814E+03 -0.58511064727E+03  0.19017452328E+03  0.79586189793E+03  0.15294330000E+03 0.  0.
<mgrwt>
<rscale>  0 0.94028295E+03</rscale>
<asrwt>0</asrwt>
<pdfrwt beam="1">  1        2 0.11425455E+00 0.10038169E+04</pdfrwt>
<pdfrwt beam="2">  1       -2 0.20183997E+00 0.10038169E+04</pdfrwt>
<totfact> 0.48785024E+00</totfact>
</mgrwt>
</event>
<event>
 4    2  0.6387803E-007  0.9709138E+03  0.7818608E-02  0.9420641E-01
         -2   -1    0    0    0  501 -0.00000000000E+00  0.00000000000E+00  0.49077477309E+03  0.49077477310E+03  0.25500000000E-02 0.  1.
          2   -1    0    0  501    0  0.00000000000E+00 -0.00000000000E+00 -0.44478970659E+04  0.44478970659E+04  0.25500000000E-02 0. -1.
    8880023    1    1    2    0    0  0.10330864120E+03  0.70582625380E+03 -0.58824726646E+02  0.97269416089E+03  0.65864270000E+03 0.  0.
    8880022    1    1    2    0    0 -0.10330864120E+03 -0.70582625380E+03 -0.38982975661E+04  0.39659776781E+04  0.15294330000E+03 0.  0.
<mgrwt>
<rscale>  0 0.90396262E+03</rscale>
<asrwt>0</asrwt>
<pdfrwt beam="1">  1        2 0.68429183E+00 0.97091379E+03</pdfrwt>
<pdfrwt beam="2">  1       -2 0.75503814E-01 0.97091379E+03</pdfrwt>
<totfact> 0.23469990E-01</totfact>
</mgrwt>
</event>
<event>
 4    2  0.6387803E-007  0.8432038E+03  0.7818608E-02  0.9624169E-01
          2   -1    0    0  501    0  0.00000000000E+00  0.00000000000E+00  0.16021232681E+04  0.16021232681E+04  0.25500000000E-02 0. -1.
         -2   -1    0    0    0  501 -0.00000000000E+00 -0.00000000000E+00 -0.37345663391E+03  0.37345663392E+03  0.25500000000E-02 0.  1.
    8880023    1    1    2    0    0  0.17251240172E+03 -0.49741521211E+03  0.29588402277E+03  0.89361064406E+03  0.65864270000E+03 0.  1.
    8880022    1    1    2    0    0 -0.17251240172E+03  0.49741521211E+03  0.93278261138E+03  0.10819692579E+04  0.15294330000E+03 0.  0.
<mgrwt>
<rscale>  0 0.75716992E+03</rscale>
<asrwt>0</asrwt>
<pdfrwt beam="1">  1        2 0.24648050E+00 0.84320379E+03</pdfrwt>
<pdfrwt beam="2">  1       -2 0.57454868E-01 0.84320379E+03</pdfrwt>
<totfact> 0.32013604E+01</totfact>
</mgrwt>
</event>
<event>
 4    2  0.6387803E-007  0.6831949E+03  0.7818608E-02  0.1007571E+00
         -2   -1    0    0    0  501 -0.00000000000E+00  0.00000000000E+00  0.20692589283E+03  0.20692589285E+03  0.25500000000E-02 0.  1.
          2   -1    0    0  501    0  0.00000000000E+00 -0.00000000000E+00 -0.24419052815E+04  0.24419052815E+04  0.25500000000E-02 0. -1.
    8880023    1    1    2    0    0 -0.76190651852E+02  0.16474255773E+03 -0.38603754044E+03  0.78471670980E+03  0.65864270000E+03 0.  1.
    8880022    1    1    2    0    0  0.76190651852E+02 -0.16474255773E+03 -0.18489418482E+04  0.18641144645E+04  0.15294330000E+03 0.  0.
<mgrwt>
<rscale>  0 0.52451448E+03</rscale>
<asrwt>0</asrwt>
<pdfrwt beam="1">  1        2 0.37567771E+00 0.68319494E+03</pdfrwt>
<pdfrwt beam="2">  1       -2 0.31834755E-01 0.68319494E+03</pdfrwt>
<totfact> 0.36262605E+01</totfact>
</mgrwt>
</event>
<event>
 4    2  0.6387803E-007  0.6923685E+03  0.7818608E-02  0.1003047E+00
          2   -1    0    0  501    0  0.00000000000E+00  0.00000000000E+00  0.10730452621E+04  0.10730452621E+04  0.25500000000E-02 0. -1.
         -2   -1    0    0    0  501 -0.00000000000E+00 -0.00000000000E+00 -0.33910400083E+03  0.33910400084E+03  0.25500000000E-02 0.  1.
    8880023    1    1    2    0    0  0.18283725990E+02 -0.21267273340E+03  0.67273895730E+02  0.69562918964E+03  0.65864270000E+03 0.  1.
    8880022    1    1    2    0    0 -0.18283725990E+02  0.21267273340E+03  0.66666736555E+03  0.71652007332E+03  0.15294330000E+03 0.  0.
<mgrwt>
<rscale>  0 0.54334318E+03</rscale>
<asrwt>0</asrwt>
<pdfrwt beam="1">  1        2 0.16508388E+00 0.69236854E+03</pdfrwt>
<pdfrwt beam="2">  1       -2 0.52169847E-01 0.69236854E+03</pdfrwt>
<totfact> 0.80093003E+01</totfact>
</mgrwt>
</event>
<event>
 4    2  0.6387803E-007  0.1103746E+04  0.7818608E-02  0.9256897E-01
          2   -1    0    0  501    0  0.00000000000E+00  0.00000000000E+00  0.25703054696E+04  0.25703054696E+04  0.25500000000E-02 0. -1.
         -2   -1    0    0    0  501 -0.00000000000E+00 -0.00000000000E+00 -0.42554067604E+03  0.42554067604E+03  0.25500000000E-02 0.  1.
    8880023    1    1    2    0    0  0.65924717728E+03 -0.59147184045E+03  0.74246817930E+03  0.13302311763E+04  0.65864270000E+03 0.  0.
    8880022    1    1    2    0    0 -0.65924717728E+03  0.59147184045E+03  0.14022966142E+04  0.16656149694E+04  0.15294330000E+03 0.  0.
<mgrwt>
<rscale>  0 0.10484976E+04</rscale>
<asrwt>0</asrwt>
<pdfrwt beam="1">  1        2 0.39543162E+00 0.11037463E+04</pdfrwt>
<pdfrwt beam="2">  1       -2 0.65467796E-01 0.11037463E+04</pdfrwt>
<totfact> 0.68097464E+00</totfact>
</mgrwt>
</event>
<event>
 4    2  0.6387803E-007  0.7967502E+03  0.7818608E-02  0.9717867E-01
          2   -1    0    0  501    0  0.00000000000E+00  0.00000000000E+00  0.22504744127E+04  0.22504744127E+04  0.25500000000E-02 0. -1.
         -2   -1    0    0    0  501 -0.00000000000E+00 -0.00000000000E+00 -0.46951568242E+03  0.46951568242E+03  0.25500000000E-02 0.  1.
    8880023    1    1    2    0    0 -0.43527149244E+03  0.10742185671E+03  0.20328992002E+04  0.21834582872E+04  0.65864270000E+03 0.  0.
    8880022    1    1    2    0    0  0.43527149244E+03 -0.10742185671E+03 -0.25194046999E+03  0.53653180787E+03  0.15294330000E+03 0.  0.
<mgrwt>
<rscale>  0 0.69962877E+03</rscale>
<asrwt>0</asrwt>
<pdfrwt beam="1">  1        2 0.34622684E+00 0.79675023E+03</pdfrwt>
<pdfrwt beam="2">  1       -2 0.72233180E-01 0.79675023E+03</pdfrwt>
<totfact> 0.86799721E+00</totfact>
</mgrwt>
</event>
<event>
 4    2  0.6387803E-007  0.8866294E+03  0.7818608E-02  0.9547846E-01
          2   -1    0    0  501    0  0.00000000000E+00  0.00000000000E+00  0.47203029411E+04  0.47203029411E+04  0.25500000000E-02 0. -1.
         -2   -1    0    0    0  501 -0.00000000000E+00 -0.00000000000E+00 -0.13268839458E+03  0.13268839461E+03  0.25500000000E-02 0.  1.
    8880023    1    1    2    0    0  0.31087185695E+03 -0.50562849131E+03  0.19046889701E+04  0.21009406850E+04  0.65864270000E+03 0.  0.
    8880022    1    1    2    0    0 -0.31087185695E+03  0.50562849131E+03  0.26829255763E+04  0.27520506507E+04  0.15294330000E+03 0.  0.
<mgrwt>
<rscale>  0 0.80846412E+03</rscale>
<asrwt>0</asrwt>
<pdfrwt beam="1">  1        2 0.72620063E+00 0.88662940E+03</pdfrwt>
<pdfrwt beam="2">  1       -2 0.20413594E-01 0.88662940E+03</pdfrwt>
<totfact> 0.16711432E+00</totfact>
</mgrwt>
</event>
<event>
 4    2  0.6387803E-007  0.6726922E+03  0.7818608E-02  0.1013802E+00
         -2   -1    0    0    0  501 -0.00000000000E+00  0.00000000000E+00  0.60530572306E+02  0.60530572360E+02  0.25500000000E-02 0.  1.
          2   -1    0    0  501    0  0.00000000000E+00 -0.00000000000E+00 -0.35496737458E+04  0.35496737458E+04  0.25500000000E-02 0. -1.
    8880023    1    1    2    0    0 -0.12748846465E+03  0.49510584651E+02 -0.20766026351E+04  0.21828406531E+04  0.65864270000E+03 0.  1.
    8880022    1    1    2    0    0  0.12748846465E+03 -0.49510584651E+02 -0.14125405385E+04  0.14273636651E+04  0.15294330000E+03 0.  1.
<mgrwt>
<rscale>  0 0.49991105E+03</rscale>
<asrwt>0</asrwt>
<pdfrwt beam="1">  1        2 0.54610349E+00 0.67269221E+03</pdfrwt>
<pdfrwt beam="2">  1       -2 0.93123985E-02 0.67269221E+03</pdfrwt>
<totfact> 0.63078448E+01</totfact>
</mgrwt>
</event>
<event>
 4    2  0.6387803E-007  0.1128107E+04  0.7818608E-02  0.9230390E-01
         -2   -1    0    0    0  501 -0.00000000000E+00  0.00000000000E+00  0.77560052019E+03  0.77560052019E+03  0.25500000000E-02 0.  1.
          2   -1    0    0  501    0  0.00000000000E+00 -0.00000000000E+00 -0.16591043142E+04  0.16591043142E+04  0.25500000000E-02 0. -1.
    8880023    1    1    2    0    0 -0.74480248603E+03  0.53299526669E+03  0.34960751048E+02  0.11286483765E+04  0.65864270000E+03 0.  0.
    8880022    1    1    2    0    0  0.74480248603E+03 -0.53299526669E+03 -0.91846454501E+03  0.13060564578E+04  0.15294330000E+03 0.  1.
<mgrwt>
<rscale>  0 0.10745189E+04</rscale>
<asrwt>0</asrwt>
<pdfrwt beam="1">  1        2 0.25524682E+00 0.11281068E+04</pdfrwt>
<pdfrwt beam="2">  1       -2 0.11932316E+00 0.11281068E+04</pdfrwt>
<totfact> 0.54650636E+00</totfact>
</mgrwt>
</event>
<event>
 4    2  0.6387803E-007  0.7006567E+03  0.7818608E-02  0.9994488E-01
         -2   -1    0    0    0  501 -0.00000000000E+00  0.00000000000E+00  0.10737147044E+04  0.10737147044E+04  0.25500000000E-02 0.  1.
          2   -1    0    0  501    0  0.00000000000E+00 -0.00000000000E+00 -0.59970675744E+03  0.59970675745E+03  0.25500000000E-02 0. -1.
    8880023    1    1    2    0    0  0.16447232821E+03  0.17337379038E+03  0.91291248542E+03  0.11507949558E+04  0.65864270000E+03 0.  1.
    8880022    1    1    2    0    0 -0.16447232821E+03 -0.17337379038E+03 -0.43890453847E+03  0.52262650606E+03  0.15294330000E+03 0.  0.
<mgrwt>
<rscale>  0 0.55892599E+03</rscale>
<asrwt>0</asrwt>
<pdfrwt beam="1">  1        2 0.92262579E-01 0.70065671E+03</pdfrwt>
<pdfrwt beam="2">  1       -2 0.16518688E+00 0.70065671E+03</pdfrwt>
<totfact> 0.11695045E+01</totfact>
</mgrwt>
</event>
<event>
 4    2  0.6387803E-007  0.1203595E+04  0.7818608E-02  0.9153636E-01
          2   -1    0    0  501    0  0.00000000000E+00  0.00000000000E+00  0.12084144274E+04  0.12084144274E+04  0.25500000000E-02 0. -1.
         -2   -1    0    0    0  501 -0.00000000000E+00 -0.00000000000E+00 -0.13219090443E+04  0.13219090443E+04  0.25500000000E-02 0.  1.
    8880023    1    1    2    0    0  0.37535397985E+03 -0.93484706483E+03 -0.66147526290E+03  0.13733860981E+04  0.65864270000E+03 0.  0.
    8880022    1    1    2    0    0 -0.37535397985E+03  0.93484706483E+03  0.54798064599E+03  0.11569373735E+04  0.15294330000E+03 0.  1.
<mgrwt>
<rscale>  0 0.11545066E+04</rscale>
<asrwt>0</asrwt>
<pdfrwt beam="1">  1        2 0.18590991E+00 0.12035946E+04</pdfrwt>
<pdfrwt beam="2">  1       -2 0.20337062E+00 0.12035946E+04</pdfrwt>
<totfact> 0.22973703E+00</totfact>
</mgrwt>
</event>
<event>
 4    2  0.6387803E-007  0.7687983E+03  0.7818608E-02  0.9782840E-01
          2   -1    0    0  501    0  0.00000000000E+00  0.00000000000E+00  0.25824604604E+04  0.25824604604E+04  0.25500000000E-02 0. -1.
         -2   -1    0    0    0  501 -0.00000000000E+00 -0.00000000000E+00 -0.46191126198E+03  0.46191126199E+03  0.25500000000E-02 0.  1.
    8880023    1    1    2    0    0 -0.35173957484E+03 -0.18308427859E+03 -0.10738495216E+03  0.77626175726E+03  0.65864270000E+03 0.  1.
    8880022    1    1    2    0    0  0.35173957484E+03  0.18308427859E+03  0.22279341506E+04  0.22681099652E+04  0.15294330000E+03 0.  0.
<mgrwt>
<rscale>  0 0.66291631E+03</rscale>
<asrwt>0</asrwt>
<pdfrwt beam="1">  1        2 0.39730161E+00 0.76879828E+03</pdfrwt>
<pdfrwt beam="2">  1       -2 0.71063271E-01 0.76879828E+03</pdfrwt>
<totfact> 0.58774326E+00</totfact>
</mgrwt>
</event>
<event>
 4    2  0.6387803E-007  0.8262683E+03  0.7818608E-02  0.9656637E-01
          2   -1    0    0  501    0  0.00000000000E+00  0.00000000000E+00  0.26656023977E+04  0.26656023977E+04  0.25500000000E-02 0. -1.
         -2   -1    0    0    0  501 -0.00000000000E+00 -0.00000000000E+00 -0.35039689103E+03  0.35039689104E+03  0.25500000000E-02 0.  1.
    8880023    1    1    2    0    0 -0.49065293268E+03  0.90381622899E+02  0.21757240517E+03  0.85443378671E+03  0.65864270000E+03 0.  1.
    8880022    1    1    2    0    0  0.49065293268E+03 -0.90381622899E+02  0.20976331015E+04  0.21615655020E+04  0.15294330000E+03 0.  0.
<mgrwt>
<rscale>  0 0.73658342E+03</rscale>
<asrwt>0</asrwt>
<pdfrwt beam="1">  1        2 0.41009266E+00 0.82626832E+03</pdfrwt>
<pdfrwt beam="2">  1       -2 0.53907217E-01 0.82626832E+03</pdfrwt>
<totfact> 0.93871066E+00</totfact>
</mgrwt>
</event>
<event>
 4    2  0.6387803E-007  0.8099190E+03  0.7818608E-02  0.9689746E-01
         -2   -1    0    0    0  501 -0.00000000000E+00  0.00000000000E+00  0.31555918813E+03  0.31555918814E+03  0.25500000000E-02 0.  1.
          2   -1    0    0  501    0  0.00000000000E+00 -0.00000000000E+00 -0.15178168588E+04  0.15178168588E+04  0.25500000000E-02 0. -1.
    8880023    1    1    2    0    0  0.26461834675E+03  0.39004576946E+03 -0.43318601258E+03  0.91848728868E+03  0.65864270000E+03 0. -1.
    8880022    1    1    2    0    0 -0.26461834675E+03 -0.39004576946E+03 -0.76907165807E+03  0.91488875825E+03  0.15294330000E+03 0.  0.
<mgrwt>
<rscale>  0 0.71630623E+03</rscale>
<asrwt>0</asrwt>
<pdfrwt beam="1">  1        2 0.23351028E+00 0.80991899E+03</pdfrwt>
<pdfrwt beam="2">  1       -2 0.48547568E-01 0.80991899E+03</pdfrwt>
<totfact> 0.50627345E+01</totfact>
</mgrwt>
</event>
<event>
 4    2  0.6387803E-007  0.7545384E+03  0.7818608E-02  0.9819458E-01
          2   -1    0    0  501    0  0.00000000000E+00  0.00000000000E+00  0.25975394735E+04  0.25975394735E+04  0.25500000000E-02 0. -1.
         -2   -1    0    0    0  501 -0.00000000000E+00 -0.00000000000E+00 -0.16132563921E+03  0.16132563923E+03  0.25500000000E-02 0.  1.
    8880023    1    1    2    0    0 -0.15665898458E+03  0.33313055145E+03  0.91344345105E+03  0.11847814762E+04  0.65864270000E+03 0.  1.
    8880022    1    1    2    0    0  0.15665898458E+03 -0.33313055145E+03  0.15227703832E+04  0.15740836365E+04  0.15294330000E+03 0.  0.
<mgrwt>
<rscale>  0 0.64328704E+03</rscale>
<asrwt>0</asrwt>
<pdfrwt beam="1">  1        2 0.39962146E+00 0.75453841E+03</pdfrwt>
<pdfrwt beam="2">  1       -2 0.24819329E-01 0.75453841E+03</pdfrwt>
<totfact> 0.46253611E+01</totfact>
</mgrwt>
</event>
<event>
 4    2  0.6387803E-007  0.1037472E+04  0.7818608E-02  0.9334096E-01
         -2   -1    0    0    0  501 -0.00000000000E+00  0.00000000000E+00  0.51193897078E+03  0.51193897078E+03  0.25500000000E-02 0.  1.
          2   -1    0    0  501    0  0.00000000000E+00 -0.00000000000E+00 -0.19382358352E+04  0.19382358352E+04  0.25500000000E-02 0. -1.
    8880023    1    1    2    0    0  0.46267313703E+03 -0.65457735055E+03 -0.34052053510E+03  0.10919259960E+04  0.65864270000E+03 0.  0.
    8880022    1    1    2    0    0 -0.46267313703E+03  0.65457735055E+03 -0.10857763293E+04  0.13582488100E+04  0.15294330000E+03 0.  0.
<mgrwt>
<rscale>  0 0.97703659E+03</rscale>
<asrwt>0</asrwt>
<pdfrwt beam="1">  1        2 0.29819013E+00 0.10374720E+04</pdfrwt>
<pdfrwt beam="2">  1       -2 0.78759843E-01 0.10374720E+04</pdfrwt>
<totfact> 0.10325706E+01</totfact>
</mgrwt>
</event>
<event>
 4    2  0.6387803E-007  0.8054603E+03  0.7818608E-02  0.9699112E-01
         -2   -1    0    0    0  501 -0.00000000000E+00  0.00000000000E+00  0.17847734478E+03  0.17847734480E+03  0.25500000000E-02 0.  1.
          2   -1    0    0  501    0  0.00000000000E+00 -0.00000000000E+00 -0.38110514934E+04  0.38110514934E+04  0.25500000000E-02 0. -1.
    8880023    1    1    2    0    0  0.32216983234E+03 -0.33341063003E+03 -0.87584655232E+03  0.11899048023E+04  0.65864270000E+03 0.  0.
    8880022    1    1    2    0    0 -0.32216983234E+03  0.33341063003E+03 -0.27567275963E+04  0.27996240359E+04  0.15294330000E+03 0.  0.
<mgrwt>
<rscale>  0 0.71069697E+03</rscale>
<asrwt>0</asrwt>
<pdfrwt beam="1">  1        2 0.58631555E+00 0.80546028E+03</pdfrwt>
<pdfrwt beam="2">  1       -2 0.27458056E-01 0.80546028E+03</pdfrwt>
<totfact> 0.62987128E+00</totfact>
</mgrwt>
</event>
<event>
 4    2  0.6387803E-007  0.8988708E+03  0.7818608E-02  0.9527847E-01
          2   -1    0    0  501    0  0.00000000000E+00  0.00000000000E+00  0.14545265040E+04  0.14545265040E+04  0.25500000000E-02 0. -1.
         -2   -1    0    0    0  501 -0.00000000000E+00 -0.00000000000E+00 -0.49995346716E+03  0.49995346716E+03  0.25500000000E-02 0.  1.
    8880023    1    1    2    0    0 -0.57443702061E+03  0.21019205094E+03  0.11751240962E+03  0.90651969731E+03  0.65864270000E+03 0.  0.
    8880022    1    1    2    0    0  0.57443702061E+03 -0.21019205094E+03  0.83706062725E+03  0.10479602739E+04  0.15294330000E+03 0.  0.
<mgrwt>
<rscale>  0 0.82261566E+03</rscale>
<asrwt>0</asrwt>
<pdfrwt beam="1">  1        2 0.22377331E+00 0.89887084E+03</pdfrwt>
<pdfrwt beam="2">  1       -2 0.76915918E-01 0.89887084E+03</pdfrwt>
<totfact> 0.20469452E+01</totfact>
</mgrwt>
</event>
<event>
 4    2  0.6387803E-007  0.7343352E+03  0.7818608E-02  0.9876766E-01
          2   -1    0    0  501    0  0.00000000000E+00  0.00000000000E+00  0.19489345605E+04  0.19489345605E+04  0.25500000000E-02 0. -1.
         -2   -1    0    0    0  501 -0.00000000000E+00 -0.00000000000E+00 -0.32764070452E+03  0.32764070453E+03  0.25500000000E-02 0.  1.
    8880023    1    1    2    0    0 -0.47512595148E+02  0.32121723993E+03  0.13384468745E+03  0.74643323114E+03  0.65864270000E+03 0.  1.
    8880022    1    1    2    0    0  0.47512595148E+02 -0.32121723993E+03  0.14874491685E+04  0.15301420339E+04  0.15294330000E+03 0.  0.
<mgrwt>
<rscale>  0 0.61400615E+03</rscale>
<asrwt>0</asrwt>
<pdfrwt beam="1">  1        2 0.29983608E+00 0.73433519E+03</pdfrwt>
<pdfrwt beam="2">  1       -2 0.50406263E-01 0.73433519E+03</pdfrwt>
<totfact> 0.27451730E+01</totfact>
</mgrwt>
</event>
<event>
 4    2  0.6387803E-007  0.6630862E+03  0.7818608E-02  0.1021196E+00
         -2   -1    0    0    0  501 -0.00000000000E+00  0.00000000000E+00  0.27112151305E+03  0.27112151306E+03  0.25500000000E-02 0.  1.
          2   -1    0    0  501    0  0.00000000000E+00 -0.00000000000E+00 -0.13187735687E+04  0.13187735687E+04  0.25500000000E-02 0. -1.
    8880023    1    1    2    0    0 -0.23526617759E+02 -0.72935194974E+02 -0.15495021623E+03  0.68094993956E+03  0.65864270000E+03 0.  1.
    8880022    1    1    2    0    0  0.23526617759E+02  0.72935194974E+02 -0.89270183945E+03  0.90894514223E+03  0.15294330000E+03 0.  0.
<mgrwt>
<rscale>  0 0.47257471E+03</rscale>
<asrwt>0</asrwt>
<pdfrwt beam="1">  1        2 0.20288824E+00 0.66308616E+03</pdfrwt>
<pdfrwt beam="2">  1       -2 0.41711003E-01 0.66308616E+03</pdfrwt>
<totfact> 0.89992987E+01</totfact>
</mgrwt>
</event>
<event>
 4    2  0.6387803E-007  0.7342315E+03  0.7818608E-02  0.9877081E-01
          2   -1    0    0  501    0  0.00000000000E+00  0.00000000000E+00  0.25917787642E+04  0.25917787642E+04  0.25500000000E-02 0. -1.
         -2   -1    0    0    0  501 -0.00000000000E+00 -0.00000000000E+00 -0.12079705001E+03  0.12079705004E+03  0.25500000000E-02 0.  1.
    8880023    1    1    2    0    0  0.31823447181E+03  0.63344013422E+02  0.13659521838E+04  0.15507808413E+04  0.65864270000E+03 0.  1.
    8880022    1    1    2    0    0 -0.31823447181E+03 -0.63344013422E+02  0.11050295303E+04  0.11617949729E+04  0.15294330000E+03 0.  0.
<mgrwt>
<rscale>  0 0.61385032E+03</rscale>
<asrwt>0</asrwt>
<pdfrwt beam="1">  1        2 0.39873516E+00 0.73423147E+03</pdfrwt>
<pdfrwt beam="2">  1       -2 0.18584163E-01 0.73423147E+03</pdfrwt>
<totfact> 0.77914496E+01</totfact>
</mgrwt>
</event>
<event>
 4    2  0.6387803E-007  0.7244777E+03  0.7818608E-02  0.9907716E-01
         -2   -1    0    0    0  501 -0.00000000000E+00  0.00000000000E+00  0.24475972894E+03  0.24475972895E+03  0.25500000000E-02 0.  1.
          2   -1    0    0  501    0  0.00000000000E+00 -0.00000000000E+00 -0.21179117740E+04  0.21179117740E+04  0.25500000000E-02 0. -1.
    8880023    1    1    2    0    0  0.12775740473E+03  0.27337835479E+03 -0.35406216851E+03  0.80636710298E+03  0.65864270000E+03 0.  1.
    8880022    1    1    2    0    0 -0.12775740473E+03 -0.27337835479E+03 -0.15190898765E+04  0.15563044000E+04  0.15294330000E+03 0.  0.
<mgrwt>
<rscale>  0 0.59888772E+03</rscale>
<asrwt>0</asrwt>
<pdfrwt beam="1">  1        2 0.32583257E+00 0.72447766E+03</pdfrwt>
<pdfrwt beam="2">  1       -2 0.37655344E-01 0.72447766E+03</pdfrwt>
<totfact> 0.39613403E+01</totfact>
</mgrwt>
</event>
<event>
 4    2  0.6387803E-007  0.8932960E+03  0.7818608E-02  0.9536880E-01
          2   -1    0    0  501    0  0.00000000000E+00  0.00000000000E+00  0.10411074665E+04  0.10411074665E+04  0.25500000000E-02 0. -1.
         -2   -1    0    0    0  501 -0.00000000000E+00 -0.00000000000E+00 -0.70802397604E+03  0.70802397605E+03  0.25500000000E-02 0.  1.
    8880023    1    1    2    0    0 -0.28490094682E+02  0.60279010903E+03 -0.21600034574E+03  0.91903969265E+03  0.65864270000E+03 0.  1.
    8880022    1    1    2    0    0  0.28490094682E+02 -0.60279010903E+03  0.54908383616E+03  0.83009174986E+03  0.15294330000E+03 0.  0.
<mgrwt>
<rscale>  0 0.81618539E+03</rscale>
<asrwt>0</asrwt>
<pdfrwt beam="1">  1        2 0.16017038E+00 0.89329604E+03</pdfrwt>
<pdfrwt beam="2">  1       -2 0.10892677E+00 0.89329604E+03</pdfrwt>
<totfact> 0.15995915E+01</totfact>
</mgrwt>
</event>
<event>
 4    2  0.6387803E-007  0.6833408E+03  0.7818608E-02  0.1007494E+00
         -2   -1    0    0    0  501 -0.00000000000E+00  0.00000000000E+00  0.18666038064E+03  0.18666038065E+03  0.25500000000E-02 0.  1.
          2   -1    0    0  501    0  0.00000000000E+00 -0.00000000000E+00 -0.22798522938E+04  0.22798522938E+04  0.25500000000E-02 0. -1.
    8880023    1    1    2    0    0 -0.17648294729E+03 -0.44701528497E+02 -0.47803952157E+03  0.83395230546E+03  0.65864270000E+03 0.  1.
    8880022    1    1    2    0    0  0.17648294729E+03  0.44701528497E+02 -0.16151523916E+04  0.16325603690E+04  0.15294330000E+03 0.  0.
<mgrwt>
<rscale>  0 0.52483013E+03</rscale>
<asrwt>0</asrwt>
<pdfrwt beam="1">  1        2 0.35074649E+00 0.68334081E+03</pdfrwt>
<pdfrwt beam="2">  1       -2 0.28716983E-01 0.68334081E+03</pdfrwt>
<totfact> 0.54050117E+01</totfact>
</mgrwt>
</event>
<event>
 4    2  0.6387803E-007  0.8701741E+03  0.7818608E-02  0.9575716E-01
         -2   -1    0    0    0  501 -0.00000000000E+00  0.00000000000E+00  0.90936858886E+03  0.90936858887E+03  0.25500000000E-02 0.  1.
          2   -1    0    0  501    0  0.00000000000E+00 -0.00000000000E+00 -0.11305249354E+04  0.11305249354E+04  0.25500000000E-02 0. -1.
    8880023    1    1    2    0    0  0.52882312972E+03  0.20913851800E+03  0.57988018241E+03  0.10456883161E+04  0.65864270000E+03 0.  1.
    8880022    1    1    2    0    0 -0.52882312972E+03 -0.20913851800E+03 -0.80103652899E+03  0.99420520820E+03  0.15294330000E+03 0.  0.
<mgrwt>
<rscale>  0 0.78924545E+03</rscale>
<asrwt>0</asrwt>
<pdfrwt beam="1">  1        2 0.17392691E+00 0.87017414E+03</pdfrwt>
<pdfrwt beam="2">  1       -2 0.13990286E+00 0.87017414E+03</pdfrwt>
<totfact> 0.75446467E+00</totfact>
</mgrwt>
</event>
<event>
 4    2  0.6387803E-007  0.8096446E+03  0.7818608E-02  0.9690318E-01
          2   -1    0    0  501    0  0.00000000000E+00  0.00000000000E+00  0.36924131029E+03  0.36924131030E+03  0.25500000000E-02 0. -1.
         -2   -1    0    0    0  501 -0.00000000000E+00 -0.00000000000E+00 -0.23000999049E+04  0.23000999049E+04  0.25500000000E-02 0.  1.
    8880023    1    1    2    0    0 -0.32584654618E+03 -0.33990899680E+03 -0.15317670380E+03  0.82400692146E+03  0.65864270000E+03 0.  0.
    8880022    1    1    2    0    0  0.32584654618E+03  0.33990899680E+03 -0.17776818908E+04  0.18453342938E+04  0.15294330000E+03 0.  0.
<mgrwt>
<rscale>  0 0.71596202E+03</rscale>
<asrwt>0</asrwt>
<pdfrwt beam="1">  1        2 0.56806357E-01 0.80964455E+03</pdfrwt>
<pdfrwt beam="2">  1       -2 0.35386152E+00 0.80964455E+03</pdfrwt>
<totfact> 0.13359917E+00</totfact>
</mgrwt>
</event>
<event>
 4    2  0.6387803E-007  0.1836763E+04  0.7818608E-02  0.8702469E-01
          2   -1    0    0  501    0  0.00000000000E+00  0.00000000000E+00  0.20260255115E+04  0.20260255115E+04  0.25500000000E-02 0. -1.
         -2   -1    0    0    0  501 -0.00000000000E+00 -0.00000000000E+00 -0.21072565138E+04  0.21072565138E+04  0.25500000000E-02 0.  1.
    8880023    1    1    2    0    0 -0.65342062223E+03 -0.15852220121E+04  0.10090079276E+04  0.20956608842E+04  0.65864270000E+03 0.  0.
    8880022    1    1    2    0    0  0.65342062223E+03  0.15852220121E+04 -0.10902389300E+04  0.20376211411E+04  0.15294330000E+03 0.  0.
<mgrwt>
<rscale>  0 0.18072214E+04</rscale>
<asrwt>0</asrwt>
<pdfrwt beam="1">  1        2 0.31169623E+00 0.18367628E+04</pdfrwt>
<pdfrwt beam="2">  1       -2 0.32419331E+00 0.18367628E+04</pdfrwt>
<totfact> 0.13169223E-01</totfact>
</mgrwt>
</event>
<event>
 4    2  0.6387803E-007  0.7627518E+03  0.7818608E-02  0.9798035E-01
         -2   -1    0    0    0  501 -0.00000000000E+00  0.00000000000E+00  0.23551138632E+03  0.23551138634E+03  0.25500000000E-02 0.  1.
          2   -1    0    0  501    0  0.00000000000E+00 -0.00000000000E+00 -0.15462889998E+04  0.15462889998E+04  0.25500000000E-02 0. -1.
    8880023    1    1    2    0    0  0.33558167510E+03  0.18805595336E+03 -0.65042924786E+03  0.10024213261E+04  0.65864270000E+03 0.  0.
    8880022    1    1    2    0    0 -0.33558167510E+03 -0.18805595336E+03 -0.66034836563E+03  0.77937906006E+03  0.15294330000E+03 0.  0.
<mgrwt>
<rscale>  0 0.65468115E+03</rscale>
<asrwt>0</asrwt>
<pdfrwt beam="1">  1        2 0.23789061E+00 0.76275180E+03</pdfrwt>
<pdfrwt beam="2">  1       -2 0.36232522E-01 0.76275180E+03</pdfrwt>
<totfact> 0.87254880E+01</totfact>
</mgrwt>
</event>
<event>
 4    2  0.6387803E-007  0.7544975E+03  0.7818608E-02  0.9819567E-01
         -2   -1    0    0    0  501 -0.00000000000E+00  0.00000000000E+00  0.94694677139E+03  0.94694677139E+03  0.25500000000E-02 0.  1.
          2   -1    0    0  501    0  0.00000000000E+00 -0.00000000000E+00 -0.17394052914E+04  0.17394052914E+04  0.25500000000E-02 0. -1.
    8880023    1    1    2    0    0  0.35439629645E+03 -0.99295495688E+02  0.76751791498E+03  0.10762668287E+04  0.65864270000E+03 0.  1.
    8880022    1    1    2    0    0 -0.35439629645E+03  0.99295495688E+02 -0.15599764350E+04  0.16100852342E+04  0.15294330000E+03 0.  0.
<mgrwt>
<rscale>  0 0.64322969E+03</rscale>
<asrwt>0</asrwt>
<pdfrwt beam="1">  1        2 0.26760081E+00 0.75449754E+03</pdfrwt>
<pdfrwt beam="2">  1       -2 0.14568412E+00 0.75449754E+03</pdfrwt>
<totfact> 0.31100762E+00</totfact>
</mgrwt>
</event>
<event>
 4    2  0.6387803E-007  0.1334104E+04  0.7818608E-02  0.9036655E-01
         -2   -1    0    0    0  501 -0.00000000000E+00  0.00000000000E+00  0.18418379814E+04  0.18418379814E+04  0.25500000000E-02 0.  1.
          2   -1    0    0  501    0  0.00000000000E+00 -0.00000000000E+00 -0.93119793070E+03  0.93119793071E+03  0.25500000000E-02 0. -1.
    8880023    1    1    2    0    0 -0.31445737489E+03 -0.11167538142E+04  0.77152310577E+02  0.13363327458E+04  0.65864270000E+03 0. -1.
    8880022    1    1    2    0    0  0.31445737489E+03  0.11167538142E+04  0.83348774008E+03  0.14367031663E+04  0.15294330000E+03 0.  1.
<mgrwt>
<rscale>  0 0.12910975E+04</rscale>
<asrwt>0</asrwt>
<pdfrwt beam="1">  1        2 0.14326122E+00 0.13341037E+04</pdfrwt>
<pdfrwt beam="2">  1       -2 0.28335969E+00 0.13341037E+04</pdfrwt>
<totfact> 0.10817829E+00</totfact>
</mgrwt>
</event>
<event>
 4    2  0.6387803E-007  0.7577447E+03  0.7818608E-02  0.9810981E-01
         -2   -1    0    0    0  501 -0.00000000000E+00  0.00000000000E+00  0.68603580297E+03  0.68603580297E+03  0.25500000000E-02 0.  1.
          2   -1    0    0  501    0  0.00000000000E+00 -0.00000000000E+00 -0.14749878234E+04  0.14749878234E+04  0.25500000000E-02 0. -1.
    8880023    1    1    2    0    0  0.34266868784E+03  0.15147627366E+03  0.43374194104E+03  0.87310318336E+03  0.65864270000E+03 0.  1.
    8880022    1    1    2    0    0 -0.34266868784E+03 -0.15147627366E+03 -0.12226939614E+04  0.12879204430E+04  0.15294330000E+03 0.  0.
<mgrwt>
<rscale>  0 0.64776532E+03</rscale>
<asrwt>0</asrwt>
<pdfrwt beam="1">  1        2 0.22692120E+00 0.75774474E+03</pdfrwt>
<pdfrwt beam="2">  1       -2 0.10554397E+00 0.75774474E+03</pdfrwt>
<totfact> 0.97420571E+00</totfact>
</mgrwt>
</event>
<event>
 4    2  0.6387803E-007  0.6850293E+03  0.7818608E-02  0.1006611E+00
          2   -1    0    0  501    0  0.00000000000E+00  0.00000000000E+00  0.12372536410E+04  0.12372536410E+04  0.25500000000E-02 0. -1.
         -2   -1    0    0    0  501 -0.00000000000E+00 -0.00000000000E+00 -0.20182128782E+03  0.20182128783E+03  0.25500000000E-02 0.  1.
    8880023    1    1    2    0    0  0.78394348023E+02  0.17119951202E+03  0.97057094699E+03  0.11879701663E+04  0.65864270000E+03 0.  0.
    8880022    1    1    2    0    0 -0.78394348023E+02 -0.17119951202E+03  0.64861406187E+02  0.25110476249E+03  0.15294330000E+03 0.  0.
<mgrwt>
<rscale>  0 0.52844165E+03</rscale>
<asrwt>0</asrwt>
<pdfrwt beam="1">  1        2 0.19034672E+00 0.68502931E+03</pdfrwt>
<pdfrwt beam="2">  1       -2 0.31049429E-01 0.68502931E+03</pdfrwt>
<totfact> 0.17598503E+02</totfact>
</mgrwt>
</event>
<event>
 4    2  0.6387803E-007  0.8086886E+03  0.7818608E-02  0.9692315E-01
          2   -1    0    0  501    0  0.00000000000E+00  0.00000000000E+00  0.16602589833E+04  0.16602589833E+04  0.25500000000E-02 0. -1.
         -2   -1    0    0    0  501 -0.00000000000E+00 -0.00000000000E+00 -0.32051791730E+03  0.32051791731E+03  0.25500000000E-02 0.  1.
    8880023    1    1    2    0    0  0.19239452476E+03  0.42796190172E+03  0.36297349688E+03  0.88641243684E+03  0.65864270000E+03 0.  1.
    8880022    1    1    2    0    0 -0.19239452476E+03 -0.42796190172E+03  0.97676756915E+03  0.10943644638E+04  0.15294330000E+03 0.  0.
<mgrwt>
<rscale>  0 0.71476198E+03</rscale>
<asrwt>0</asrwt>
<pdfrwt beam="1">  1        2 0.25542445E+00 0.80868860E+03</pdfrwt>
<pdfrwt beam="2">  1       -2 0.49310450E-01 0.80868860E+03</pdfrwt>
<totfact> 0.40915966E+01</totfact>
</mgrwt>
</event>
<event>
 4    2  0.6387803E-007  0.6683552E+03  0.7818608E-02  0.1016870E+00
         -2   -1    0    0    0  501 -0.00000000000E+00  0.00000000000E+00  0.16218877596E+03  0.16218877598E+03  0.25500000000E-02 0.  1.
          2   -1    0    0  501    0  0.00000000000E+00 -0.00000000000E+00 -0.31295273126E+04  0.31295273126E+04  0.25500000000E-02 0. -1.
    8880023    1    1    2    0    0  0.86649104062E+02 -0.73351126488E+02 -0.54635452006E+03  0.86325078792E+03  0.65864270000E+03 0.  1.
    8880022    1    1    2    0    0 -0.86649104062E+02  0.73351126488E+02 -0.24209840166E+04  0.24284653007E+04  0.15294330000E+03 0.  0.
<mgrwt>
<rscale>  0 0.48833074E+03</rscale>
<asrwt>0</asrwt>
<pdfrwt beam="1">  1        2 0.48146569E+00 0.66835519E+03</pdfrwt>
<pdfrwt beam="2">  1       -2 0.24952122E-01 0.66835519E+03</pdfrwt>
<totfact> 0.22344471E+01</totfact>
</mgrwt>
</event>
<event>
 4    2  0.6387803E-007  0.7872488E+03  0.7818608E-02  0.9739077E-01
         -2   -1    0    0    0  501 -0.00000000000E+00  0.00000000000E+00  0.19089453127E+03  0.19089453128E+03  0.25500000000E-02 0.  1.
          2   -1    0    0  501    0  0.00000000000E+00 -0.00000000000E+00 -0.24287523788E+04  0.24287523788E+04  0.25500000000E-02 0. -1.
    8880023    1    1    2    0    0  0.36892273045E+03 -0.22326320736E+03 -0.18819708941E+04  0.20399938954E+04  0.65864270000E+03 0.  0.
    8880022    1    1    2    0    0 -0.36892273045E+03  0.22326320736E+03 -0.35588695348E+03  0.57965301472E+03  0.15294330000E+03 0.  0.
<mgrwt>
<rscale>  0 0.68737078E+03</rscale>
<asrwt>0</asrwt>
<pdfrwt beam="1">  1        2 0.37365419E+00 0.78724878E+03</pdfrwt>
<pdfrwt beam="2">  1       -2 0.29368391E-01 0.78724878E+03</pdfrwt>
<totfact> 0.42240075E+01</totfact>
</mgrwt>
</event>
<event>
 4    2  0.6387803E-007  0.8228836E+03  0.7818608E-02  0.9663341E-01
          2   -1    0    0  501    0  0.00000000000E+00  0.00000000000E+00  0.21723781490E+04  0.21723781490E+04  0.25500000000E-02 0. -1.
         -2   -1    0    0    0  501 -0.00000000000E+00 -0.00000000000E+00 -0.35071568035E+03  0.35071568036E+03  0.25500000000E-02 0.  1.
    8880023    1    1    2    0    0  0.57175805214E+02 -0.48995722186E+03  0.18300856356E+04  0.20065768841E+04  0.65864270000E+03 0. -1.
    8880022    1    1    2    0    0 -0.57175805214E+02  0.48995722186E+03 -0.84231669711E+01  0.51651694523E+03  0.15294330000E+03 0.  0.
<mgrwt>
<rscale>  0 0.73242051E+03</rscale>
<asrwt>0</asrwt>
<pdfrwt beam="1">  1        2 0.33421202E+00 0.82288356E+03</pdfrwt>
<pdfrwt beam="2">  1       -2 0.53956260E-01 0.82288356E+03</pdfrwt>
<totfact> 0.17796721E+01</totfact>
</mgrwt>
</event>
<event>
 4    2  0.6387803E-007  0.8441139E+03  0.7818608E-02  0.9622471E-01
         -2   -1    0    0    0  501 -0.00000000000E+00  0.00000000000E+00  0.81187304063E+03  0.81187304063E+03  0.25500000000E-02 0.  1.
          2   -1    0    0  501    0  0.00000000000E+00 -0.00000000000E+00 -0.14530516465E+04  0.14530516465E+04  0.25500000000E-02 0. -1.
    8880023    1    1    2    0    0  0.43014190955E+03  0.30609791472E+03  0.51214031137E+03  0.98732765612E+03  0.65864270000E+03 0.  1.
    8880022    1    1    2    0    0 -0.43014190955E+03 -0.30609791472E+03 -0.11533189172E+04  0.12775970310E+04  0.15294330000E+03 0.  0.
<mgrwt>
<rscale>  0 0.75826559E+03</rscale>
<asrwt>0</asrwt>
<pdfrwt beam="1">  1        2 0.22354641E+00 0.84411386E+03</pdfrwt>
<pdfrwt beam="2">  1       -2 0.12490355E+00 0.84411386E+03</pdfrwt>
<totfact> 0.65580980E+00</totfact>
</mgrwt>
</event>
<event>
 4    2  0.6387803E-007  0.7524401E+03  0.7818608E-02  0.9825088E-01
          2   -1    0    0  501    0  0.00000000000E+00  0.00000000000E+00  0.13526454511E+04  0.13526454511E+04  0.25500000000E-02 0. -1.
         -2   -1    0    0    0  501 -0.00000000000E+00 -0.00000000000E+00 -0.95777918711E+03  0.95777918712E+03  0.25500000000E-02 0.  1.
    8880023    1    1    2    0    0 -0.28363139094E+03 -0.22783563873E+03 -0.77235875440E+03  0.10782875757E+04  0.65864270000E+03 0.  1.
    8880022    1    1    2    0    0  0.28363139094E+03  0.22783563873E+03  0.11672250184E+04  0.12321370625E+04  0.15294330000E+03 0.  0.
<mgrwt>
<rscale>  0 0.64033401E+03</rscale>
<asrwt>0</asrwt>
<pdfrwt beam="1">  1        2 0.20809930E+00 0.75244006E+03</pdfrwt>
<pdfrwt beam="2">  1       -2 0.14735065E+00 0.75244006E+03</pdfrwt>
<totfact> 0.49521268E+00</totfact>
</mgrwt>
</event>
<event>
 4    2  0.6387803E-007  0.9429440E+03  0.7818608E-02  0.9460340E-01
         -2   -1    0    0    0  501 -0.00000000000E+00  0.00000000000E+00  0.96492523906E+03  0.96492523906E+03  0.25500000000E-02 0.  1.
          2   -1    0    0  501    0  0.00000000000E+00 -0.00000000000E+00 -0.34985805466E+04  0.34985805466E+04  0.25500000000E-02 0. -1.
    8880023    1    1    2    0    0 -0.55430694631E+03 -0.38480784185E+03  0.68872329646E+03  0.11676828556E+04  0.65864270000E+03 0.  1.
    8880022    1    1    2    0    0  0.55430694631E+03  0.38480784185E+03 -0.32223786040E+04  0.32958229301E+04  0.15294330000E+03 0.  0.
<mgrwt>
<rscale>  0 0.87272054E+03</rscale>
<asrwt>0</asrwt>
<pdfrwt beam="1">  1        2 0.53824316E+00 0.94294405E+03</pdfrwt>
<pdfrwt beam="2">  1       -2 0.14845004E+00 0.94294405E+03</pdfrwt>
<totfact> 0.26163825E-01</totfact>
</mgrwt>
</event>
<event>
 4    2  0.6387803E-007  0.6993690E+03  0.7818608E-02  0.9999829E-01
          2   -1    0    0  501    0  0.00000000000E+00  0.00000000000E+00  0.18335414870E+04  0.18335414870E+04  0.25500000000E-02 0. -1.
         -2   -1    0    0    0  501 -0.00000000000E+00 -0.00000000000E+00 -0.87046336326E+03  0.87046336326E+03  0.25500000000E-02 0.  1.
    8880023    1    1    2    0    0  0.15773952647E+02 -0.23464426064E+03 -0.71645066109E+03  0.10012085211E+04  0.65864270000E+03 0.  1.
    8880022    1    1    2    0    0 -0.15773952647E+02  0.23464426064E+03  0.16795287848E+04  0.17027963292E+04  0.15294330000E+03 0.  0.
<mgrwt>
<rscale>  0 0.55657732E+03</rscale>
<asrwt>0</asrwt>
<pdfrwt beam="1">  1        2 0.28208330E+00 0.69936897E+03</pdfrwt>
<pdfrwt beam="2">  1       -2 0.13391744E+00 0.69936897E+03</pdfrwt>
<totfact> 0.34690969E+00</totfact>
</mgrwt>
</event>
<event>
 4    2  0.6387803E-007  0.7367459E+03  0.7818608E-02  0.9869529E-01
          2   -1    0    0  501    0  0.00000000000E+00  0.00000000000E+00  0.74912392261E+03  0.74912392261E+03  0.25500000000E-02 0. -1.
         -2   -1    0    0    0  501 -0.00000000000E+00 -0.00000000000E+00 -0.58804943174E+03  0.58804943175E+03  0.25500000000E-02 0.  1.
    8880023    1    1    2    0    0 -0.31804081304E+03 -0.88512233980E+02 -0.25945547615E+03  0.78109648872E+03  0.65864270000E+03 0.  1.
    8880022    1    1    2    0    0  0.31804081304E+03  0.88512233980E+02  0.42052996701E+03  0.55607686564E+03  0.15294330000E+03 0.  0.
<mgrwt>
<rscale>  0 0.61761023E+03</rscale>
<asrwt>0</asrwt>
<pdfrwt beam="1">  1        2 0.11524983E+00 0.73674594E+03</pdfrwt>
<pdfrwt beam="2">  1       -2 0.90469144E-01 0.73674594E+03</pdfrwt>
<totfact> 0.39789287E+01</totfact>
</mgrwt>
</event>
<event>
 4    2  0.6387803E-007  0.9677695E+03  0.7818608E-02  0.9424996E-01
         -2   -1    0    0    0  501 -0.00000000000E+00  0.00000000000E+00  0.88870382963E+03  0.88870382963E+03  0.25500000000E-02 0.  1.
          2   -1    0    0  501    0  0.00000000000E+00 -0.00000000000E+00 -0.21767046698E+04  0.21767046698E+04  0.25500000000E-02 0. -1.
    8880023    1    1    2    0    0  0.33227231942E+03 -0.62638868494E+03  0.53329516143E+03  0.11049803683E+04  0.65864270000E+03 0.  0.
    8880022    1    1    2    0    0 -0.33227231942E+03  0.62638868494E+03 -0.18212960016E+04  0.19604281311E+04  0.15294330000E+03 0.  0.
<mgrwt>
<rscale>  0 0.90046870E+03</rscale>
<asrwt>0</asrwt>
<pdfrwt beam="1">  1        2 0.33487764E+00 0.96776954E+03</pdfrwt>
<pdfrwt beam="2">  1       -2 0.13672367E+00 0.96776954E+03</pdfrwt>
<totfact> 0.20431289E+00</totfact>
</mgrwt>
</event>
<event>
 4    2  0.6387803E-007  0.1117955E+04  0.7818608E-02  0.9241324E-01
         -2   -1    0    0    0  501 -0.00000000000E+00  0.00000000000E+00  0.49451424027E+03  0.49451424028E+03  0.25500000000E-02 0.  1.
          2   -1    0    0  501    0  0.00000000000E+00 -0.00000000000E+00 -0.34898655510E+04  0.34898655510E+04  0.25500000000E-02 0. -1.
    8880023    1    1    2    0    0 -0.60865554918E+03 -0.66749586466E+03 -0.32952407087E+03  0.11655078835E+04  0.65864270000E+03 0.  0.
    8880022    1    1    2    0    0  0.60865554918E+03  0.66749586466E+03 -0.26658272399E+04  0.28188719078E+04  0.15294330000E+03 0.  0.
<mgrwt>
<rscale>  0 0.10636886E+04</rscale>
<asrwt>0</asrwt>
<pdfrwt beam="1">  1        2 0.53690238E+00 0.11179546E+04</pdfrwt>
<pdfrwt beam="2">  1       -2 0.76079116E-01 0.11179546E+04</pdfrwt>
<totfact> 0.12986155E+00</totfact>
</mgrwt>
</event>
<event>
 4    2  0.6387803E-007  0.1273763E+04  0.7818608E-02  0.9088555E-01
         -2   -1    0    0    0  501 -0.00000000000E+00  0.00000000000E+00  0.96862040648E+03  0.96862040649E+03  0.25500000000E-02 0.  1.
          2   -1    0    0  501    0  0.00000000000E+00 -0.00000000000E+00 -0.21885081766E+04  0.21885081766E+04  0.25500000000E-02 0. -1.
    8880023    1    1    2    0    0  0.81819281854E+03 -0.72057012483E+03  0.27251563924E+03  0.13025881057E+04  0.65864270000E+03 0.  1.
    8880022    1    1    2    0    0 -0.81819281854E+03  0.72057012483E+03 -0.14924034093E+04  0.18545404774E+04  0.15294330000E+03 0.  0.
<mgrwt>
<rscale>  0 0.12281645E+04</rscale>
<asrwt>0</asrwt>
<pdfrwt beam="1">  1        2 0.33669356E+00 0.12737625E+04</pdfrwt>
<pdfrwt beam="2">  1       -2 0.14901852E+00 0.12737625E+04</pdfrwt>
<totfact> 0.15443932E+00</totfact>
</mgrwt>
</event>
<event>
 4    2  0.6387803E-007  0.7997240E+03  0.7818608E-02  0.9711393E-01
         -2   -1    0    0    0  501 -0.00000000000E+00  0.00000000000E+00  0.78698918477E+03  0.78698918477E+03  0.25500000000E-02 0.  1.
          2   -1    0    0  501    0  0.00000000000E+00 -0.00000000000E+00 -0.14904781382E+04  0.14904781382E+04  0.25500000000E-02 0. -1.
    8880023    1    1    2    0    0 -0.44951471457E+03  0.60701918727E+02  0.52659302751E+03  0.95752734918E+03  0.65864270000E+03 0.  1.
    8880022    1    1    2    0    0  0.44951471457E+03 -0.60701918727E+02 -0.12300819809E+04  0.13199399738E+04  0.15294330000E+03 0.  0.
<mgrwt>
<rscale>  0 0.70342477E+03</rscale>
<asrwt>0</asrwt>
<pdfrwt beam="1">  1        2 0.22930433E+00 0.79972396E+03</pdfrwt>
<pdfrwt beam="2">  1       -2 0.12107526E+00 0.79972396E+03</pdfrwt>
<totfact> 0.67940811E+00</totfact>
</mgrwt>
</event>
<event>
 4    2  0.6387803E-007  0.6700424E+03  0.7818608E-02  0.1015633E+00
          2   -1    0    0  501    0  0.00000000000E+00  0.00000000000E+00  0.41296450959E+04  0.41296450959E+04  0.25500000000E-02 0. -1.
         -2   -1    0    0    0  501 -0.00000000000E+00 -0.00000000000E+00 -0.10937326156E+03  0.10937326159E+03  0.25500000000E-02 0.  1.
    8880023    1    1    2    0    0  0.83704663862E+02 -0.90222645835E+02  0.95024815297E+03  0.11627245396E+04  0.65864270000E+03 0.  1.
    8880022    1    1    2    0    0 -0.83704663862E+02  0.90222645835E+02  0.30700236814E+04  0.30762938179E+04  0.15294330000E+03 0.  0.
<mgrwt>
<rscale>  0 0.49296173E+03</rscale>
<asrwt>0</asrwt>
<pdfrwt beam="1">  1        2 0.63532989E+00 0.67004239E+03</pdfrwt>
<pdfrwt beam="2">  1       -2 0.16826659E-01 0.67004239E+03</pdfrwt>
<totfact> 0.86854930E+00</totfact>
</mgrwt>
</event>
<event>
 4    2  0.6387803E-007  0.1386715E+04  0.7818608E-02  0.8994075E-01
         -2   -1    0    0    0  501 -0.00000000000E+00  0.00000000000E+00  0.85641572337E+03  0.85641572338E+03  0.25500000000E-02 0.  1.
          2   -1    0    0  501    0  0.00000000000E+00 -0.00000000000E+00 -0.25194839904E+04  0.25194839904E+04  0.25500000000E-02 0. -1.
    8880023    1    1    2    0    0 -0.10826830614E+04 -0.56299728634E+03 -0.10466563425E+03  0.13906594324E+04  0.65864270000E+03 0.  0.
    8880022    1    1    2    0    0  0.10826830614E+04  0.56299728634E+03 -0.15584026328E+04  0.19852402813E+04  0.15294330000E+03 0.  0.
<mgrwt>
<rscale>  0 0.13457194E+04</rscale>
<asrwt>0</asrwt>
<pdfrwt beam="1">  1        2 0.38761292E+00 0.13867151E+04</pdfrwt>
<pdfrwt beam="2">  1       -2 0.13175627E+00 0.13867151E+04</pdfrwt>
<totfact> 0.13650570E+00</totfact>
</mgrwt>
</event>
<event>
 4    2  0.6387803E-007  0.7670266E+03  0.7818608E-02  0.9787245E-01
         -2   -1    0    0    0  501 -0.00000000000E+00  0.00000000000E+00  0.78949114648E+03  0.78949114649E+03  0.25500000000E-02 0.  1.
          2   -1    0    0  501    0  0.00000000000E+00 -0.00000000000E+00 -0.15073893572E+04  0.15073893572E+04  0.25500000000E-02 0. -1.
    8880023    1    1    2    0    0  0.14678216687E+03  0.36465686525E+03  0.56095525403E+03  0.95026345672E+03  0.65864270000E+03 0.  1.
    8880022    1    1    2    0    0 -0.14678216687E+03 -0.36465686525E+03 -0.12788534648E+04  0.13466170470E+04  0.15294330000E+03 0.  0.
<mgrwt>
<rscale>  0 0.66051588E+03</rscale>
<asrwt>0</asrwt>
<pdfrwt beam="1">  1        2 0.23190606E+00 0.76702662E+03</pdfrwt>
<pdfrwt beam="2">  1       -2 0.12146018E+00 0.76702662E+03</pdfrwt>
<totfact> 0.66254369E+00</totfact>
</mgrwt>
</event>
<event>
 4    2  0.6387803E-007  0.7360649E+03  0.7818608E-02  0.9871562E-01
         -2   -1    0    0    0  501 -0.00000000000E+00  0.00000000000E+00  0.11964942389E+03  0.11964942392E+03  0.25500000000E-02 0.  1.
          2   -1    0    0  501    0  0.00000000000E+00 -0.00000000000E+00 -0.25570752599E+04  0.25570752599E+04  0.25500000000E-02 0. -1.
    8880023    1    1    2    0    0 -0.24863848642E+03 -0.21484928235E+03 -0.14786605979E+04  0.16517350517E+04  0.65864270000E+03 0.  1.
    8880022    1    1    2    0    0  0.24863848642E+03  0.21484928235E+03 -0.95876523812E+03  0.10249896321E+04  0.15294330000E+03 0.  0.
<mgrwt>
<rscale>  0 0.61659546E+03</rscale>
<asrwt>0</asrwt>
<pdfrwt beam="1">  1        2 0.39339615E+00 0.73606489E+03</pdfrwt>
<pdfrwt beam="2">  1       -2 0.18407606E-01 0.73606489E+03</pdfrwt>
<totfact> 0.82897770E+01</totfact>
</mgrwt>
</event>
<event>
 4    2  0.6387803E-007  0.8050570E+03  0.7818608E-02  0.9699967E-01
         -2   -1    0    0    0  501 -0.00000000000E+00  0.00000000000E+00  0.39919552634E+03  0.39919552635E+03  0.25500000000E-02 0.  1.
          2   -1    0    0  501    0  0.00000000000E+00 -0.00000000000E+00 -0.24184517232E+04  0.24184517232E+04  0.25500000000E-02 0. -1.
    8880023    1    1    2    0    0 -0.43625440275E+03 -0.15488266365E+03 -0.69717215554E+02  0.80807007111E+03  0.65864270000E+03 0.  1.
    8880022    1    1    2    0    0  0.43625440275E+03  0.15488266365E+03 -0.19495389813E+04  0.20095771784E+04  0.15294330000E+03 0.  0.
<mgrwt>
<rscale>  0 0.71018779E+03</rscale>
<asrwt>0</asrwt>
<pdfrwt beam="1">  1        2 0.37206949E+00 0.80505699E+03</pdfrwt>
<pdfrwt beam="2">  1       -2 0.61414698E-01 0.80505699E+03</pdfrwt>
<totfact> 0.99193919E+00</totfact>
</mgrwt>
</event>
<event>
 4    2  0.6387803E-007  0.7631946E+03  0.7818608E-02  0.9796906E-01
          2   -1    0    0  501    0  0.00000000000E+00  0.00000000000E+00  0.32994978231E+04  0.32994978231E+04  0.25500000000E-02 0. -1.
         -2   -1    0    0    0  501 -0.00000000000E+00 -0.00000000000E+00 -0.20577158517E+03  0.20577158518E+03  0.25500000000E-02 0.  1.
    8880023    1    1    2    0    0  0.38062688105E+03 -0.61473596983E+02  0.58268880696E+03  0.96020428958E+03  0.65864270000E+03 0.  1.
    8880022    1    1    2    0    0 -0.38062688105E+03  0.61473596983E+02  0.25110374310E+04  0.25450651187E+04  0.15294330000E+03 0.  0.
<mgrwt>
<rscale>  0 0.65528845E+03</rscale>
<asrwt>0</asrwt>
<pdfrwt beam="1">  1        2 0.50761502E+00 0.76319462E+03</pdfrwt>
<pdfrwt beam="2">  1       -2 0.31657169E-01 0.76319462E+03</pdfrwt>
<totfact> 0.11051039E+01</totfact>
</mgrwt>
</event>
<event>
 4    2  0.6387803E-007  0.7664968E+03  0.7818608E-02  0.9788569E-01
         -2   -1    0    0    0  501 -0.00000000000E+00  0.00000000000E+00  0.53093742188E+03  0.53093742189E+03  0.25500000000E-02 0.  1.
          2   -1    0    0  501    0  0.00000000000E+00 -0.00000000000E+00 -0.15384121034E+04  0.15384121034E+04  0.25500000000E-02 0. -1.
    8880023    1    1    2    0    0 -0.39184670066E+03  0.12779396769E+02  0.19873046901E+03  0.79184035978E+03  0.65864270000E+03 0.  0.
    8880022    1    1    2    0    0  0.39184670066E+03 -0.12779396769E+02 -0.12062051505E+04  0.12775091655E+04  0.15294330000E+03 0.  0.
<mgrwt>
<rscale>  0 0.65979606E+03</rscale>
<asrwt>0</asrwt>
<pdfrwt beam="1">  1        2 0.23667878E+00 0.76649681E+03</pdfrwt>
<pdfrwt beam="2">  1       -2 0.81682681E-01 0.76649681E+03</pdfrwt>
<totfact> 0.16289804E+01</totfact>
</mgrwt>
</event>
<event>
 4    2  0.6387803E-007  0.1069102E+04  0.7818608E-02  0.9296263E-01
         -2   -1    0    0    0  501 -0.00000000000E+00  0.00000000000E+00  0.31572465715E+03  0.31572465716E+03  0.25500000000E-02 0.  1.
          2   -1    0    0  501    0  0.00000000000E+00 -0.00000000000E+00 -0.34706428783E+04  0.34706428783E+04  0.25500000000E-02 0. -1.
    8880023    1    1    2    0    0  0.76323103279E+03  0.35587505981E+03 -0.24655873572E+04  0.26873964891E+04  0.65864270000E+03 0.  0.
    8880022    1    1    2    0    0 -0.76323103279E+03 -0.35587505981E+03 -0.68933086394E+03  0.10989710463E+04  0.15294330000E+03 0.  0.
<mgrwt>
<rscale>  0 0.10112761E+04</rscale>
<asrwt>0</asrwt>
<pdfrwt beam="1">  1        2 0.53394503E+00 0.10691019E+04</pdfrwt>
<pdfrwt beam="2">  1       -2 0.48573027E-01 0.10691019E+04</pdfrwt>
<totfact> 0.35083969E+00</totfact>
</mgrwt>
</event>
<event>
 4    2  0.6387803E-007  0.6835107E+03  0.7818608E-02  0.1007404E+00
         -2   -1    0    0    0  501 -0.00000000000E+00  0.00000000000E+00  0.42791309279E+03  0.42791309280E+03  0.25500000000E-02 0.  1.
          2   -1    0    0  501    0  0.00000000000E+00 -0.00000000000E+00 -0.20749690055E+04  0.20749690055E+04  0.25500000000E-02 0. -1.
    8880023    1    1    2    0    0  0.16938093752E+03 -0.68459863260E+02  0.14193745741E+03  0.69809247450E+03  0.65864270000E+03 0.  1.
    8880022    1    1    2    0    0 -0.16938093752E+03  0.68459863260E+02 -0.17889933701E+04  0.18047896238E+04  0.15294330000E+03 0.  0.
<mgrwt>
<rscale>  0 0.52519699E+03</rscale>
<asrwt>0</asrwt>
<pdfrwt beam="1">  1        2 0.31922599E+00 0.68351069E+03</pdfrwt>
<pdfrwt beam="2">  1       -2 0.65832785E-01 0.68351069E+03</pdfrwt>
<totfact> 0.13502112E+01</totfact>
</mgrwt>
</event>
<event>
 4    2  0.6387803E-007  0.1087145E+04  0.7818608E-02  0.9275506E-01
         -2   -1    0    0    0  501 -0.00000000000E+00  0.00000000000E+00  0.82183883516E+03  0.82183883517E+03  0.25500000000E-02 0.  1.
          2   -1    0    0  501    0  0.00000000000E+00 -0.00000000000E+00 -0.16022119178E+04  0.16022119179E+04  0.25500000000E-02 0. -1.
    8880023    1    1    2    0    0 -0.86392019246E+03 -0.41416412861E+02  0.20256769432E+03  0.11058559107E+04  0.65864270000E+03 0.  0.
    8880022    1    1    2    0    0  0.86392019246E+03  0.41416412861E+02 -0.98294077700E+03  0.13181948423E+04  0.15294330000E+03 0.  0.
<mgrwt>
<rscale>  0 0.10306947E+04</rscale>
<asrwt>0</asrwt>
<pdfrwt beam="1">  1        2 0.24649414E+00 0.10871447E+04</pdfrwt>
<pdfrwt beam="2">  1       -2 0.12643674E+00 0.10871447E+04</pdfrwt>
<totfact> 0.51035680E+00</totfact>
</mgrwt>
</event>
<event>
 4    2  0.6387803E-007  0.7908060E+03  0.7818608E-02  0.9731040E-01
          2   -1    0    0  501    0  0.00000000000E+00  0.00000000000E+00  0.29885278408E+04  0.29885278408E+04  0.25500000000E-02 0. -1.
         -2   -1    0    0    0  501 -0.00000000000E+00 -0.00000000000E+00 -0.23462507278E+03  0.23462507280E+03  0.25500000000E-02 0.  1.
    8880023    1    1    2    0    0  0.30673263406E+03 -0.31221626113E+03  0.53130079991E+03  0.95270911025E+03  0.65864270000E+03 0.  0.
    8880022    1    1    2    0    0 -0.30673263406E+03  0.31221626113E+03  0.22226019681E+04  0.22704438033E+04  0.15294330000E+03 0.  0.
<mgrwt>
<rscale>  0 0.69198399E+03</rscale>
<asrwt>0</asrwt>
<pdfrwt beam="1">  1        2 0.45977348E+00 0.79080599E+03</pdfrwt>
<pdfrwt beam="2">  1       -2 0.36096168E-01 0.79080599E+03</pdfrwt>
<totfact> 0.13470204E+01</totfact>
</mgrwt>
</event>
<event>
 4    2  0.6387803E-007  0.7490917E+03  0.7818608E-02  0.9834214E-01
         -2   -1    0    0    0  501 -0.00000000000E+00  0.00000000000E+00  0.42710831566E+03  0.42710831567E+03  0.25500000000E-02 0.  1.
          2   -1    0    0  501    0  0.00000000000E+00 -0.00000000000E+00 -0.15844585482E+04  0.15844585482E+04  0.25500000000E-02 0. -1.
    8880023    1    1    2    0    0  0.37666719315E+02 -0.35483703748E+03  0.42674222640E+02  0.75030620446E+03  0.65864270000E+03 0.  1.
    8880022    1    1    2    0    0 -0.37666719315E+02  0.35483703748E+03 -0.12000244552E+04  0.12612606594E+04  0.15294330000E+03 0.  0.
<mgrwt>
<rscale>  0 0.63558332E+03</rscale>
<asrwt>0</asrwt>
<pdfrwt beam="1">  1        2 0.24376285E+00 0.74909166E+03</pdfrwt>
<pdfrwt beam="2">  1       -2 0.65708972E-01 0.74909166E+03</pdfrwt>
<totfact> 0.24878074E+01</totfact>
</mgrwt>
</event>
<event>
 4    2  0.6387803E-007  0.6722953E+03  0.7818608E-02  0.1014068E+00
          2   -1    0    0  501    0  0.00000000000E+00  0.00000000000E+00  0.22703333564E+04  0.22703333564E+04  0.25500000000E-02 0. -1.
         -2   -1    0    0    0  501 -0.00000000000E+00 -0.00000000000E+00 -0.11070495519E+03  0.11070495522E+03  0.25500000000E-02 0.  1.
    8880023    1    1    2    0    0 -0.12365998422E+03 -0.53656337631E+02  0.10088191499E+04  0.12123106358E+04  0.65864270000E+03 0.  0.
    8880022    1    1    2    0    0  0.12365998422E+03  0.53656337631E+02  0.11508092513E+04  0.11687276758E+04  0.15294330000E+03 0.  0.
<mgrwt>
<rscale>  0 0.49889334E+03</rscale>
<asrwt>0</asrwt>
<pdfrwt beam="1">  1        2 0.34928207E+00 0.67229532E+03</pdfrwt>
<pdfrwt beam="2">  1       -2 0.17031531E-01 0.67229532E+03</pdfrwt>
<totfact> 0.13829448E+02</totfact>
</mgrwt>
</event>
<event>
 4    2  0.6387803E-007  0.6734242E+03  0.7818608E-02  0.1013318E+00
         -2   -1    0    0    0  501 -0.00000000000E+00  0.00000000000E+00  0.13458186467E+03  0.13458186470E+03  0.25500000000E-02 0.  1.
          2   -1    0    0  501    0  0.00000000000E+00 -0.00000000000E+00 -0.31882258105E+04  0.31882258105E+04  0.25500000000E-02 0. -1.
    8880023    1    1    2    0    0  0.22942327513E+02  0.13843248780E+03 -0.74264985606E+03  0.10025113062E+04  0.65864270000E+03 0.  0.
    8880022    1    1    2    0    0 -0.22942327513E+02 -0.13843248780E+03 -0.23109940897E+04  0.23202963690E+04  0.15294330000E+03 0. -1.
<mgrwt>
<rscale>  0 0.50176798E+03</rscale>
<asrwt>0</asrwt>
<pdfrwt beam="1">  1        2 0.49049622E+00 0.67342417E+03</pdfrwt>
<pdfrwt beam="2">  1       -2 0.20704905E-01 0.67342417E+03</pdfrwt>
<totfact> 0.28565459E+01</totfact>
</mgrwt>
</event>
<event>
 4    2  0.6387803E-007  0.9078159E+03  0.7818608E-02  0.9513599E-01
         -2   -1    0    0    0  501 -0.00000000000E+00  0.00000000000E+00  0.11980300862E+04  0.11980300862E+04  0.25500000000E-02 0.  1.
          2   -1    0    0  501    0  0.00000000000E+00 -0.00000000000E+00 -0.74635864638E+03  0.74635864639E+03  0.25500000000E-02 0. -1.
    8880023    1    1    2    0    0 -0.26361396219E+03  0.56641610689E+03  0.80255372540E+03  0.12117021976E+04  0.65864270000E+03 0.  1.
    8880022    1    1    2    0    0  0.26361396219E+03 -0.56641610689E+03 -0.35088228560E+03  0.73268653499E+03  0.15294330000E+03 0.  0.
<mgrwt>
<rscale>  0 0.83288588E+03</rscale>
<asrwt>0</asrwt>
<pdfrwt beam="1">  1        2 0.11482441E+00 0.90781591E+03</pdfrwt>
<pdfrwt beam="2">  1       -2 0.18431232E+00 0.90781591E+03</pdfrwt>
<totfact> 0.64001783E+00</totfact>
</mgrwt>
</event>
<event>
 4    2  0.6387803E-007  0.8385163E+03  0.7818608E-02  0.9632984E-01
          2   -1    0    0  501    0  0.00000000000E+00  0.00000000000E+00  0.14051031359E+04  0.14051031359E+04  0.25500000000E-02 0. -1.
         -2   -1    0    0    0  501 -0.00000000000E+00 -0.00000000000E+00 -0.94707630592E+03  0.94707630592E+03  0.25500000000E-02 0.  1.
    8880023    1    1    2    0    0 -0.39185968071E+02 -0.51745897338E+03 -0.68814781915E+03  0.10847381972E+04  0.65864270000E+03 0.  1.
    8880022    1    1    2    0    0  0.39185968071E+02  0.51745897338E+03  0.11461746491E+04  0.12674412446E+04  0.15294330000E+03 0.  0.
<mgrwt>
<rscale>  0 0.75151004E+03</rscale>
<asrwt>0</asrwt>
<pdfrwt beam="1">  1        2 0.21616971E+00 0.83851627E+03</pdfrwt>
<pdfrwt beam="2">  1       -2 0.14570405E+00 0.83851627E+03</pdfrwt>
<totfact> 0.47052656E+00</totfact>
</mgrwt>
</event>
<event>
 4    2  0.6387803E-007  0.7553462E+03  0.7818608E-02  0.9817308E-01
          2   -1    0    0  501    0  0.00000000000E+00  0.00000000000E+00  0.32268438013E+04  0.32268438013E+04  0.25500000000E-02 0. -1.
         -2   -1    0    0    0  501 -0.00000000000E+00 -0.00000000000E+00 -0.24795772472E+03  0.24795772473E+03  0.25500000000E-02 0.  1.
    8880023    1    1    2    0    0 -0.36974830481E+03  0.48779756933E+01  0.38047750943E+03  0.84576057191E+03  0.65864270000E+03 0.  1.
    8880022    1    1    2    0    0  0.36974830481E+03 -0.48779756933E+01  0.25984085671E+04  0.26290409541E+04  0.15294330000E+03 0.  0.
<mgrwt>
<rscale>  0 0.64441902E+03</rscale>
<asrwt>0</asrwt>
<pdfrwt beam="1">  1        2 0.49643752E+00 0.75534615E+03</pdfrwt>
<pdfrwt beam="2">  1       -2 0.38147342E-01 0.75534615E+03</pdfrwt>
<totfact> 0.86460475E+00</totfact>
</mgrwt>
</event>
<event>
 4    2  0.6387803E-007  0.7519058E+03  0.7818608E-02  0.9826532E-01
          2   -1    0    0  501    0  0.00000000000E+00  0.00000000000E+00  0.18667138170E+04  0.18667138170E+04  0.25500000000E-02 0. -1.
         -2   -1    0    0    0  501 -0.00000000000E+00 -0.00000000000E+00 -0.47847587037E+03  0.47847587038E+03  0.25500000000E-02 0.  1.
    8880023    1    1    2    0    0 -0.19228035752E+01 -0.36269595370E+03 -0.14194663907E+03  0.76518697493E+03  0.65864270000E+03 0.  0.
    8880022    1    1    2    0    0  0.19228035752E+01  0.36269595370E+03  0.15301845857E+04  0.15800027125E+04  0.15294330000E+03 0. -1.
<mgrwt>
<rscale>  0 0.63957915E+03</rscale>
<asrwt>0</asrwt>
<pdfrwt beam="1">  1        2 0.28718674E+00 0.75190575E+03</pdfrwt>
<pdfrwt beam="2">  1       -2 0.73611672E-01 0.75190575E+03</pdfrwt>
<totfact> 0.13603792E+01</totfact>
</mgrwt>
</event>
<event>
 4    2  0.6387803E-007  0.7478259E+03  0.7818608E-02  0.9837710E-01
          2   -1    0    0  501    0  0.00000000000E+00  0.00000000000E+00  0.23480001001E+04  0.23480001001E+04  0.25500000000E-02 0. -1.
         -2   -1    0    0    0  501 -0.00000000000E+00 -0.00000000000E+00 -0.59972275168E+03  0.59972275169E+03  0.25500000000E-02 0.  1.
    8880023    1    1    2    0    0 -0.35073912013E+03 -0.49146685582E+02 -0.34187554917E+03  0.82226663831E+03  0.65864270000E+03 0.  1.
    8880022    1    1    2    0    0  0.35073912013E+03  0.49146685582E+02  0.20901528976E+04  0.21254562135E+04  0.15294330000E+03 0.  0.
<mgrwt>
<rscale>  0 0.63377462E+03</rscale>
<asrwt>0</asrwt>
<pdfrwt beam="1">  1        2 0.36123078E+00 0.74782587E+03</pdfrwt>
<pdfrwt beam="2">  1       -2 0.92265039E-01 0.74782587E+03</pdfrwt>
<totfact> 0.44422535E+00</totfact>
</mgrwt>
</event>
<event>
 4    2  0.6387803E-007  0.7930469E+03  0.7818608E-02  0.9726037E-01
          2   -1    0    0  501    0  0.00000000000E+00  0.00000000000E+00  0.14747829864E+04  0.14747829864E+04  0.25500000000E-02 0. -1.
         -2   -1    0    0    0  501 -0.00000000000E+00 -0.00000000000E+00 -0.34439829950E+03  0.34439829950E+03  0.25500000000E-02 0.  1.
    8880023    1    1    2    0    0 -0.29642831558E+03  0.32748033329E+03  0.26594651941E+03  0.83645135688E+03  0.65864270000E+03 0.  0.
    8880022    1    1    2    0    0  0.29642831558E+03 -0.32748033329E+03  0.86443816751E+03  0.98272992904E+03  0.15294330000E+03 0. -1.
<mgrwt>
<rscale>  0 0.69487510E+03</rscale>
<asrwt>0</asrwt>
<pdfrwt beam="1">  1        2 0.22688969E+00 0.79304686E+03</pdfrwt>
<pdfrwt beam="2">  1       -2 0.52984354E-01 0.79304686E+03</pdfrwt>
<totfact> 0.44826181E+01</totfact>
</mgrwt>
</event>
<event>
 4    2  0.6387803E-007  0.6627683E+03  0.7818608E-02  0.1021484E+00
         -2   -1    0    0    0  501 -0.00000000000E+00  0.00000000000E+00  0.38850027458E+03  0.38850027459E+03  0.25500000000E-02 0.  1.
          2   -1    0    0  501    0  0.00000000000E+00 -0.00000000000E+00 -0.55575214305E+03  0.55575214305E+03  0.25500000000E-02 0. -1.
    8880023    1    1    2    0    0 -0.31854980792E+02 -0.66609978148E+02  0.54421834725E+02  0.66499892582E+03  0.65864270000E+03 0.  1.
    8880022    1    1    2    0    0  0.31854980792E+02  0.66609978148E+02 -0.22167370319E+03  0.27925349182E+03  0.15294330000E+03 0.  0.
<mgrwt>
<rscale>  0 0.47154906E+03</rscale>
<asrwt>0</asrwt>
<pdfrwt beam="1">  1        2 0.85500330E-01 0.66276831E+03</pdfrwt>
<pdfrwt beam="2">  1       -2 0.59769273E-01 0.66276831E+03</pdfrwt>
<totfact> 0.14411782E+02</totfact>
</mgrwt>
</event>
<event>
 4    2  0.6387803E-007  0.9018259E+03  0.7818608E-02  0.9523107E-01
          2   -1    0    0  501    0  0.00000000000E+00  0.00000000000E+00  0.11708564818E+04  0.11708564818E+04  0.25500000000E-02 0. -1.
         -2   -1    0    0    0  501 -0.00000000000E+00 -0.00000000000E+00 -0.65663391126E+03  0.65663391126E+03  0.25500000000E-02 0.  1.
    8880023    1    1    2    0    0  0.56373536733E+03  0.24835893157E+03 -0.14381725279E+03  0.91322140346E+03  0.65864270000E+03 0.  0.
    8880022    1    1    2    0    0 -0.56373536733E+03 -0.24835893157E+03  0.65803982335E+03  0.91426898963E+03  0.15294330000E+03 0.  0.
<mgrwt>
<rscale>  0 0.82601479E+03</rscale>
<asrwt>0</asrwt>
<pdfrwt beam="1">  1        2 0.18013177E+00 0.90182589E+03</pdfrwt>
<pdfrwt beam="2">  1       -2 0.10102060E+00 0.90182589E+03</pdfrwt>
<totfact> 0.15945755E+01</totfact>
</mgrwt>
</event>
<event>
 4    2  0.6387803E-007  0.1097378E+04  0.7818608E-02  0.9263981E-01
          2   -1    0    0  501    0  0.00000000000E+00  0.00000000000E+00  0.27124078144E+04  0.27124078144E+04  0.25500000000E-02 0. -1.
         -2   -1    0    0    0  501 -0.00000000000E+00 -0.00000000000E+00 -0.57968059739E+03  0.57968059740E+03  0.25500000000E-02 0.  1.
    8880023    1    1    2    0    0 -0.87731406117E+03  0.27350814810E+02  0.13622135661E+03  0.11058003858E+04  0.65864270000E+03 0.  1.
    8880022    1    1    2    0    0  0.87731406117E+03 -0.27350814810E+02  0.19965058604E+04  0.21862880260E+04  0.15294330000E+03 0.  0.
<mgrwt>
<rscale>  0 0.10416754E+04</rscale>
<asrwt>0</asrwt>
<pdfrwt beam="1">  1        2 0.41729350E+00 0.10973779E+04</pdfrwt>
<pdfrwt beam="2">  1       -2 0.89181633E-01 0.10973779E+04</pdfrwt>
<totfact> 0.28186944E+00</totfact>
</mgrwt>
</event>
<event>
 4    2  0.6387803E-007  0.8143859E+03  0.7818608E-02  0.9680513E-01
          2   -1    0    0  501    0  0.00000000000E+00  0.00000000000E+00  0.25558462904E+04  0.25558462904E+04  0.25500000000E-02 0. -1.
         -2   -1    0    0    0  501 -0.00000000000E+00 -0.00000000000E+00 -0.32263678233E+03  0.32263678234E+03  0.25500000000E-02 0.  1.
    8880023    1    1    2    0    0  0.22539351001E+03  0.42262509696E+03  0.27934765567E+03  0.86096430003E+03  0.65864270000E+03 0.  1.
    8880022    1    1    2    0    0 -0.22539351001E+03 -0.42262509696E+03  0.19538618524E+04  0.20175187727E+04  0.15294330000E+03 0.  0.
<mgrwt>
<rscale>  0 0.72189009E+03</rscale>
<asrwt>0</asrwt>
<pdfrwt beam="1">  1        2 0.39320714E+00 0.81438591E+03</pdfrwt>
<pdfrwt beam="2">  1       -2 0.49636426E-01 0.81438591E+03</pdfrwt>
<totfact> 0.12887303E+01</totfact>
</mgrwt>
</event>
<event>
 4    2  0.6387803E-007  0.1185282E+04  0.7818608E-02  0.9171564E-01
         -2   -1    0    0    0  501 -0.00000000000E+00  0.00000000000E+00  0.93855867506E+03  0.93855867507E+03  0.25500000000E-02 0.  1.
          2   -1    0    0  501    0  0.00000000000E+00 -0.00000000000E+00 -0.24292428915E+04  0.24292428915E+04  0.25500000000E-02 0. -1.
    8880023    1    1    2    0    0 -0.31044863441E+03 -0.93525638226E+03  0.38269626068E+03  0.12455318099E+04  0.65864270000E+03 0.  0.
    8880022    1    1    2    0    0  0.31044863441E+03  0.93525638226E+03 -0.18733804771E+04  0.21222697567E+04  0.15294330000E+03 0.  0.
<mgrwt>
<rscale>  0 0.11351818E+04</rscale>
<asrwt>0</asrwt>
<pdfrwt beam="1">  1        2 0.37372967E+00 0.11852818E+04</pdfrwt>
<pdfrwt beam="2">  1       -2 0.14439364E+00 0.11852818E+04</pdfrwt>
<totfact> 0.12408266E+00</totfact>
</mgrwt>
</event>
<event>
 4    2  0.6387803E-007  0.8719796E+03  0.7818608E-02  0.9572599E-01
         -2   -1    0    0    0  501 -0.00000000000E+00  0.00000000000E+00  0.17702995709E+04  0.17702995709E+04  0.25500000000E-02 0.  1.
          2   -1    0    0  501    0  0.00000000000E+00 -0.00000000000E+00 -0.41228844197E+03  0.41228844197E+03  0.25500000000E-02 0. -1.
    8880023    1    1    2    0    0  0.47448957712E+03  0.31843039819E+03  0.13300194131E+04  0.15903773523E+04  0.65864270000E+03 0.  1.
    8880022    1    1    2    0    0 -0.47448957712E+03 -0.31843039819E+03  0.27991715816E+02  0.59221066054E+03  0.15294330000E+03 0.  0.
<mgrwt>
<rscale>  0 0.79136601E+03</rscale>
<asrwt>0</asrwt>
<pdfrwt beam="1">  1        2 0.63428989E-01 0.87197963E+03</pdfrwt>
<pdfrwt beam="2">  1       -2 0.27235379E+00 0.87197963E+03</pdfrwt>
<totfact> 0.36680158E+00</totfact>
</mgrwt>
</event>
<event>
 4    2  0.6387803E-007  0.6965140E+03  0.7818608E-02  0.1001198E+00
         -2   -1    0    0    0  501 -0.00000000000E+00  0.00000000000E+00  0.54350946977E+02  0.54350947037E+02  0.25500000000E-02 0.  1.
          2   -1    0    0  501    0  0.00000000000E+00 -0.00000000000E+00 -0.46846678689E+04  0.46846678689E+04  0.25500000000E-02 0. -1.
    8880023    1    1    2    0    0 -0.59071106795E+02  0.21870571348E+03 -0.26533701381E+04  0.27432653683E+04  0.65864270000E+03 0.  1.
    8880022    1    1    2    0    0  0.59071106795E+02 -0.21870571348E+03 -0.19769467838E+04  0.19957534477E+04  0.15294330000E+03 0.  1.
<mgrwt>
<rscale>  0 0.55127982E+03</rscale>
<asrwt>0</asrwt>
<pdfrwt beam="1">  1        2 0.72071782E+00 0.69651403E+03</pdfrwt>
<pdfrwt beam="2">  1       -2 0.83616879E-02 0.69651403E+03</pdfrwt>
<totfact> 0.84682466E+00</totfact>
</mgrwt>
</event>
<event>
 4    2  0.6387803E-007  0.6828535E+03  0.7818608E-02  0.1007753E+00
         -2   -1    0    0    0  501 -0.00000000000E+00  0.00000000000E+00  0.81223785195E+02  0.81223785235E+02  0.25500000000E-02 0.  1.
          2   -1    0    0  501    0  0.00000000000E+00 -0.00000000000E+00 -0.34207141916E+04  0.34207141916E+04  0.25500000000E-02 0. -1.
    8880023    1    1    2    0    0 -0.96503014759E+02 -0.15220344116E+03 -0.15097751252E+04  0.16570183627E+04  0.65864270000E+03 0.  1.
    8880022    1    1    2    0    0  0.96503014759E+02  0.15220344116E+03 -0.18297152812E+04  0.18449196142E+04  0.15294330000E+03 0.  0.
<mgrwt>
<rscale>  0 0.52377330E+03</rscale>
<asrwt>0</asrwt>
<pdfrwt beam="1">  1        2 0.52626361E+00 0.68285352E+03</pdfrwt>
<pdfrwt beam="2">  1       -2 0.12495970E-01 0.68285352E+03</pdfrwt>
<totfact> 0.47599221E+01</totfact>
</mgrwt>
</event>
<event>
 4    2  0.6387803E-007  0.9761367E+03  0.7818608E-02  0.9413466E-01
         -2   -1    0    0    0  501 -0.00000000000E+00  0.00000000000E+00  0.37064584938E+03  0.37064584939E+03  0.25500000000E-02 0.  1.
          2   -1    0    0  501    0  0.00000000000E+00 -0.00000000000E+00 -0.22472720673E+04  0.22472720673E+04  0.25500000000E-02 0. -1.
    8880023    1    1    2    0    0 -0.13462595574E+03  0.70774886733E+03 -0.60503266365E+03  0.11484369105E+04  0.65864270000E+03 0.  0.
    8880022    1    1    2    0    0  0.13462595574E+03 -0.70774886733E+03 -0.12715935543E+04  0.14694810062E+04  0.15294330000E+03 0.  0.
<mgrwt>
<rscale>  0 0.90975691E+03</rscale>
<asrwt>0</asrwt>
<pdfrwt beam="1">  1        2 0.34573416E+00 0.97613668E+03</pdfrwt>
<pdfrwt beam="2">  1       -2 0.57022440E-01 0.97613668E+03</pdfrwt>
<totfact> 0.14143742E+01</totfact>
</mgrwt>
</event>
<event>
 4    2  0.6387803E-007  0.6761369E+03  0.7818608E-02  0.1011599E+00
          2   -1    0    0  501    0  0.00000000000E+00  0.00000000000E+00  0.50669516201E+03  0.50669516202E+03  0.25500000000E-02 0. -1.
         -2   -1    0    0    0  501 -0.00000000000E+00 -0.00000000000E+00 -0.88870398099E+03  0.88870398099E+03  0.25500000000E-02 0.  1.
    8880023    1    1    2    0    0  0.42071641281E+02  0.14690415031E+03 -0.72411128928E+03  0.99070591898E+03  0.65864270000E+03 0.  1.
    8880022    1    1    2    0    0 -0.42071641281E+02 -0.14690415031E+03  0.34210247030E+03  0.40469322403E+03  0.15294330000E+03 0.  0.
<mgrwt>
<rscale>  0 0.50844029E+03</rscale>
<asrwt>0</asrwt>
<pdfrwt beam="1">  1        2 0.77953102E-01 0.67613686E+03</pdfrwt>
<pdfrwt beam="2">  1       -2 0.13672369E+00 0.67613686E+03</pdfrwt>
<totfact> 0.23605621E+01</totfact>
</mgrwt>
</event>
<event>
 4    2  0.6387803E-007  0.7479428E+03  0.7818608E-02  0.9837386E-01
         -2   -1    0    0    0  501 -0.00000000000E+00  0.00000000000E+00  0.43358843947E+03  0.43358843948E+03  0.25500000000E-02 0.  1.
          2   -1    0    0  501    0  0.00000000000E+00 -0.00000000000E+00 -0.12741793487E+04  0.12741793487E+04  0.25500000000E-02 0. -1.
    8880023    1    1    2    0    0 -0.34639487702E+03 -0.74958276110E+02  0.37185682472E+02  0.74886656704E+03  0.65864270000E+03 0.  0.
    8880022    1    1    2    0    0  0.34639487702E+03  0.74958276110E+02 -0.87777659174E+03  0.95890122119E+03  0.15294330000E+03 0.  0.
<mgrwt>
<rscale>  0 0.63394194E+03</rscale>
<asrwt>0</asrwt>
<pdfrwt beam="1">  1        2 0.19602759E+00 0.74794275E+03</pdfrwt>
<pdfrwt beam="2">  1       -2 0.66705914E-01 0.74794275E+03</pdfrwt>
<totfact> 0.36030725E+01</totfact>
</mgrwt>
</event>
<event>
 4    2  0.6387803E-007  0.1088832E+04  0.7818608E-02  0.9273594E-01
          2   -1    0    0  501    0  0.00000000000E+00  0.00000000000E+00  0.21125785310E+04  0.21125785310E+04  0.25500000000E-02 0. -1.
         -2   -1    0    0    0  501 -0.00000000000E+00 -0.00000000000E+00 -0.72503475369E+03  0.72503475370E+03  0.25500000000E-02 0.  1.
    8880023    1    1    2    0    0  0.86693279154E+03  0.13096575415E+02 -0.11627986156E+03  0.10950229211E+04  0.65864270000E+03 0.  0.
    8880022    1    1    2    0    0 -0.86693279154E+03 -0.13096575415E+02  0.15038236388E+04  0.17425903635E+04  0.15294330000E+03 0.  0.
<mgrwt>
<rscale>  0 0.10325064E+04</rscale>
<asrwt>0</asrwt>
<pdfrwt beam="1">  1        2 0.32501208E+00 0.10888316E+04</pdfrwt>
<pdfrwt beam="2">  1       -2 0.11154381E+00 0.10888316E+04</pdfrwt>
<totfact> 0.36366388E+00</totfact>
</mgrwt>
</event>
<event>
 4    2  0.6387803E-007  0.7750311E+03  0.7818608E-02  0.9767641E-01
          2   -1    0    0  501    0  0.00000000000E+00  0.00000000000E+00  0.13993819359E+04  0.13993819359E+04  0.25500000000E-02 0. -1.
         -2   -1    0    0    0  501 -0.00000000000E+00 -0.00000000000E+00 -0.36233236405E+03  0.36233236406E+03  0.25500000000E-02 0.  1.
    8880023    1    1    2    0    0  0.61776650844E+02  0.40379032096E+03  0.10734714705E+04  0.13240144192E+04  0.65864270000E+03 0.  0.
    8880022    1    1    2    0    0 -0.61776650844E+02 -0.40379032096E+03 -0.36421898698E+02  0.43769988075E+03  0.15294330000E+03 0.  0.
<mgrwt>
<rscale>  0 0.67128392E+03</rscale>
<asrwt>0</asrwt>
<pdfrwt beam="1">  1        2 0.21528953E+00 0.77503109E+03</pdfrwt>
<pdfrwt beam="2">  1       -2 0.55743441E-01 0.77503109E+03</pdfrwt>
<totfact> 0.44573965E+01</totfact>
</mgrwt>
</event>
<event>
 4    2  0.6387803E-007  0.6622238E+03  0.7818608E-02  0.1021986E+00
          2   -1    0    0  501    0  0.00000000000E+00  0.00000000000E+00  0.22006255161E+04  0.22006255161E+04  0.25500000000E-02 0. -1.
         -2   -1    0    0    0  501 -0.00000000000E+00 -0.00000000000E+00 -0.28477139720E+03  0.28477139721E+03  0.25500000000E-02 0.  1.
    8880023    1    1    2    0    0 -0.23205120094E+02  0.64743367769E+02  0.10942846554E+03  0.67120412439E+03  0.65864270000E+03 0.  1.
    8880022    1    1    2    0    0  0.23205120094E+02 -0.64743367769E+02  0.18064256533E+04  0.18141927889E+04  0.15294330000E+03 0.  0.
<mgrwt>
<rscale>  0 0.46976868E+03</rscale>
<asrwt>0</asrwt>
<pdfrwt beam="1">  1        2 0.33855778E+00 0.66222382E+03</pdfrwt>
<pdfrwt beam="2">  1       -2 0.43810983E-01 0.66222382E+03</pdfrwt>
<totfact> 0.26789114E+01</totfact>
</mgrwt>
</event>
<event>
 4    2  0.6387803E-007  0.8263852E+03  0.7818608E-02  0.9656407E-01
          2   -1    0    0  501    0  0.00000000000E+00  0.00000000000E+00  0.90270226668E+03  0.90270226668E+03  0.25500000000E-02 0. -1.
         -2   -1    0    0    0  501 -0.00000000000E+00 -0.00000000000E+00 -0.11058104647E+04  0.11058104647E+04  0.25500000000E-02 0.  1.
    8880023    1    1    2    0    0  0.48220775887E+03  0.12875560586E+03 -0.84448672123E+03  0.11815542126E+04  0.65864270000E+03 0.  1.
    8880022    1    1    2    0    0 -0.48220775887E+03 -0.12875560586E+03  0.64137852319E+03  0.82695851878E+03  0.15294330000E+03 0.  0.
<mgrwt>
<rscale>  0 0.73672689E+03</rscale>
<asrwt>0</asrwt>
<pdfrwt beam="1">  1        2 0.13887727E+00 0.82638522E+03</pdfrwt>
<pdfrwt beam="2">  1       -2 0.17012469E+00 0.82638522E+03</pdfrwt>
<totfact> 0.62701883E+00</totfact>
</mgrwt>
</event>
<event>
 4    2  0.6387803E-007  0.7801509E+03  0.7818608E-02  0.9755483E-01
         -2   -1    0    0    0  501 -0.00000000000E+00  0.00000000000E+00  0.59072725631E+03  0.59072725632E+03  0.25500000000E-02 0.  1.
          2   -1    0    0  501    0  0.00000000000E+00 -0.00000000000E+00 -0.64332394139E+03  0.64332394140E+03  0.25500000000E-02 0. -1.
    8880023    1    1    2    0    0  0.18889873041E+03 -0.37301807224E+03  0.32275301858E+02  0.78081823361E+03  0.65864270000E+03 0.  0.
    8880022    1    1    2    0    0 -0.18889873041E+03  0.37301807224E+03 -0.84871986942E+02  0.45323296410E+03  0.15294330000E+03 0.  0.
<mgrwt>
<rscale>  0 0.67807313E+03</rscale>
<asrwt>0</asrwt>
<pdfrwt beam="1">  1        2 0.98972915E-01 0.78015089E+03</pdfrwt>
<pdfrwt beam="2">  1       -2 0.90881116E-01 0.78015089E+03</pdfrwt>
<totfact> 0.47544748E+01</totfact>
</mgrwt>
</event>
<event>
 4    2  0.6387803E-007  0.7524312E+03  0.7818608E-02  0.9825112E-01
         -2   -1    0    0    0  501 -0.00000000000E+00  0.00000000000E+00  0.42796148197E+03  0.42796148197E+03  0.25500000000E-02 0.  1.
          2   -1    0    0  501    0  0.00000000000E+00 -0.00000000000E+00 -0.14333688334E+04  0.14333688334E+04  0.25500000000E-02 0. -1.
    8880023    1    1    2    0    0 -0.35894243465E+03 -0.59184488035E+02  0.30245070216E+02  0.75303880747E+03  0.65864270000E+03 0.  1.
    8880022    1    1    2    0    0  0.35894243465E+03  0.59184488035E+02 -0.10356524216E+04  0.11082915079E+04  0.15294330000E+03 0.  0.
<mgrwt>
<rscale>  0 0.64032147E+03</rscale>
<asrwt>0</asrwt>
<pdfrwt beam="1">  1        2 0.22051828E+00 0.75243118E+03</pdfrwt>
<pdfrwt beam="2">  1       -2 0.65840229E-01 0.75243118E+03</pdfrwt>
<totfact> 0.30052479E+01</totfact>
</mgrwt>
</event>
<event>
 4    2  0.6387803E-007  0.6771191E+03  0.7818608E-02  0.1011003E+00
          2   -1    0    0  501    0  0.00000000000E+00  0.00000000000E+00  0.77105336167E+03  0.77105336168E+03  0.25500000000E-02 0. -1.
         -2   -1    0    0    0  501 -0.00000000000E+00 -0.00000000000E+00 -0.77506338351E+03  0.77506338351E+03  0.25500000000E-02 0.  1.
    8880023    1    1    2    0    0 -0.14768088230E+03  0.53576685052E+02 -0.60397441090E+03  0.90734524822E+03  0.65864270000E+03 0.  1.
    8880022    1    1    2    0    0  0.14768088230E+03 -0.53576685052E+02  0.59996438907E+03  0.63877149697E+03  0.15294330000E+03 0.  0.
<mgrwt>
<rscale>  0 0.51078138E+03</rscale>
<asrwt>0</asrwt>
<pdfrwt beam="1">  1        2 0.11862359E+00 0.67711913E+03</pdfrwt>
<pdfrwt beam="2">  1       -2 0.11924052E+00 0.67711913E+03</pdfrwt>
<totfact> 0.19938034E+01</totfact>
</mgrwt>
</event>
<event>
 4    2  0.6387803E-007  0.8111425E+03  0.7818608E-02  0.9687202E-01
         -2   -1    0    0    0  501 -0.00000000000E+00  0.00000000000E+00  0.12241602468E+04  0.12241602468E+04  0.25500000000E-02 0.  1.
          2   -1    0    0  501    0  0.00000000000E+00 -0.00000000000E+00 -0.40658244642E+03  0.40658244643E+03  0.25500000000E-02 0. -1.
    8880023    1    1    2    0    0  0.29593834298E+03 -0.36954350057E+03  0.79027092834E+03  0.11324664446E+04  0.65864270000E+03 0.  1.
    8880022    1    1    2    0    0 -0.29593834298E+03  0.36954350057E+03  0.27306872010E+02  0.49827624861E+03  0.15294330000E+03 0.  0.
<mgrwt>
<rscale>  0 0.71783911E+03</rscale>
<asrwt>0</asrwt>
<pdfrwt beam="1">  1        2 0.62551146E-01 0.81114247E+03</pdfrwt>
<pdfrwt beam="2">  1       -2 0.18833234E+00 0.81114247E+03</pdfrwt>
<totfact> 0.12555383E+01</totfact>
</mgrwt>
</event>
<event>
 4    2  0.6387803E-007  0.6660776E+03  0.7818608E-02  0.1018646E+00
         -2   -1    0    0    0  501 -0.00000000000E+00  0.00000000000E+00  0.15413545208E+03  0.15413545210E+03  0.25500000000E-02 0.  1.
          2   -1    0    0  501    0  0.00000000000E+00 -0.00000000000E+00 -0.17287722540E+04  0.17287722540E+04  0.25500000000E-02 0. -1.
    8880023    1    1    2    0    0 -0.89186451454E+02 -0.43530174757E+02 -0.61655935994E+03  0.90763690418E+03  0.65864270000E+03 0.  1.
    8880022    1    1    2    0    0  0.89186451454E+02  0.43530174757E+02 -0.95807744199E+03  0.97527080193E+03  0.15294330000E+03 0.  0.
<mgrwt>
<rscale>  0 0.48178409E+03</rscale>
<asrwt>0</asrwt>
<pdfrwt beam="1">  1        2 0.26596495E+00 0.66607755E+03</pdfrwt>
<pdfrwt beam="2">  1       -2 0.23713148E-01 0.66607755E+03</pdfrwt>
<totfact> 0.15313992E+02</totfact>
</mgrwt>
</event>
<event>
 4    2  0.6387803E-007  0.7160847E+03  0.7818608E-02  0.9936063E-01
          2   -1    0    0  501    0  0.00000000000E+00  0.00000000000E+00  0.24278785294E+04  0.24278785294E+04  0.25500000000E-02 0. -1.
         -2   -1    0    0    0  501 -0.00000000000E+00 -0.00000000000E+00 -0.12161488266E+03  0.12161488268E+03  0.25500000000E-02 0.  1.
    8880023    1    1    2    0    0 -0.26296739109E+03  0.99072258948E+02  0.11953439159E+04  0.13934218474E+04  0.65864270000E+03 0.  0.
    8880022    1    1    2    0    0  0.26296739109E+03 -0.99072258948E+02  0.11109197308E+04  0.11560715647E+04  0.15294330000E+03 0.  0.
<mgrwt>
<rscale>  0 0.58544887E+03</rscale>
<asrwt>0</asrwt>
<pdfrwt beam="1">  1        2 0.37351978E+00 0.71608475E+03</pdfrwt>
<pdfrwt beam="2">  1       -2 0.18709982E-01 0.71608475E+03</pdfrwt>
<totfact> 0.95604225E+01</totfact>
</mgrwt>
</event>
<event>
 4    2  0.6387803E-007  0.7562319E+03  0.7818608E-02  0.9814962E-01
          2   -1    0    0  501    0  0.00000000000E+00  0.00000000000E+00  0.11808451607E+04  0.11808451607E+04  0.25500000000E-02 0. -1.
         -2   -1    0    0    0  501 -0.00000000000E+00 -0.00000000000E+00 -0.64604730500E+03  0.64604730501E+03  0.25500000000E-02 0.  1.
    8880023    1    1    2    0    0 -0.22210211402E+03 -0.29790448837E+03 -0.36628809094E+03  0.84026995964E+03  0.65864270000E+03 0.  1.
    8880022    1    1    2    0    0  0.22210211402E+03  0.29790448837E+03  0.90108594662E+03  0.98662250606E+03  0.15294330000E+03 0.  0.
<mgrwt>
<rscale>  0 0.64565730E+03</rscale>
<asrwt>0</asrwt>
<pdfrwt beam="1">  1        2 0.18166849E+00 0.75623187E+03</pdfrwt>
<pdfrwt beam="2">  1       -2 0.99391892E-01 0.75623187E+03</pdfrwt>
<totfact> 0.16596679E+01</totfact>
</mgrwt>
</event>
<event>
 4    2  0.6387803E-007  0.6653116E+03  0.7818608E-02  0.1019273E+00
         -2   -1    0    0    0  501 -0.00000000000E+00  0.00000000000E+00  0.43285871458E+03  0.43285871459E+03  0.25500000000E-02 0.  1.
          2   -1    0    0  501    0  0.00000000000E+00 -0.00000000000E+00 -0.78189882375E+03  0.78189882376E+03  0.25500000000E-02 0. -1.
    8880023    1    1    2    0    0  0.64649817636E+02 -0.68189047232E+02  0.15206842369E+03  0.68246930834E+03  0.65864270000E+03 0.  1.
    8880022    1    1    2    0    0 -0.64649817636E+02  0.68189047232E+02 -0.50110853286E+03  0.53228823000E+03  0.15294330000E+03 0.  0.
<mgrwt>
<rscale>  0 0.47949734E+03</rscale>
<asrwt>0</asrwt>
<pdfrwt beam="1">  1        2 0.12029213E+00 0.66531162E+03</pdfrwt>
<pdfrwt beam="2">  1       -2 0.66593649E-01 0.66531162E+03</pdfrwt>
<totfact> 0.74997521E+01</totfact>
</mgrwt>
</event>
<event>
 4    2  0.6387803E-007  0.8231239E+03  0.7818608E-02  0.9662862E-01
          2   -1    0    0  501    0  0.00000000000E+00  0.00000000000E+00  0.22775377667E+04  0.22775377667E+04  0.25500000000E-02 0. -1.
         -2   -1    0    0    0  501 -0.00000000000E+00 -0.00000000000E+00 -0.29996747812E+03  0.29996747813E+03  0.25500000000E-02 0.  1.
    8880023    1    1    2    0    0 -0.49362939481E+03  0.72609349360E+01  0.39560641380E+03  0.91325644892E+03  0.65864270000E+03 0.  1.
    8880022    1    1    2    0    0  0.49362939481E+03 -0.72609349360E+01  0.15819638748E+04  0.16642487959E+04  0.15294330000E+03 0.  0.
<mgrwt>
<rscale>  0 0.73271663E+03</rscale>
<asrwt>0</asrwt>
<pdfrwt beam="1">  1        2 0.35039041E+00 0.82312387E+03</pdfrwt>
<pdfrwt beam="2">  1       -2 0.46148844E-01 0.82312387E+03</pdfrwt>
<totfact> 0.21399622E+01</totfact>
</mgrwt>
</event>
<event>
 4    2  0.6387804E-007  0.7508468E+03  0.7818608E-02  0.9829408E-01
          2   -1    0    0  501    0  0.00000000000E+00  0.00000000000E+00  0.15580185225E+04  0.15580185225E+04  0.25500000000E-02 0. -1.
         -2   -1    0    0    0  501 -0.00000000000E+00 -0.00000000000E+00 -0.13923983537E+04  0.13923983537E+04  0.25500000000E-02 0.  1.
    8880023    1    1    2    0    0  0.73583929820E+02 -0.35291098977E+03 -0.12628706253E+04  0.14692219655E+04  0.65864270000E+03 0.  0.
    8880022    1    1    2    0    0 -0.73583929820E+02  0.35291098977E+03  0.14284907941E+04  0.14811949106E+04  0.15294330000E+03 0.  0.
<mgrwt>
<rscale>  0 0.63807957E+03</rscale>
<asrwt>0</asrwt>
<pdfrwt beam="1">  1        2 0.23969516E+00 0.75084683E+03</pdfrwt>
<pdfrwt beam="2">  1       -2 0.21421513E+00 0.75084683E+03</pdfrwt>
<totfact> 0.13120441E+00</totfact>
</mgrwt>
</event>
<event>
 4    2  0.6387803E-007  0.8385800E+03  0.7818608E-02  0.9632864E-01
         -2   -1    0    0    0  501 -0.00000000000E+00  0.00000000000E+00  0.41487979556E+03  0.41487979557E+03  0.25500000000E-02 0.  1.
          2   -1    0    0  501    0  0.00000000000E+00 -0.00000000000E+00 -0.21188592080E+04  0.21188592080E+04  0.25500000000E-02 0. -1.
    8880023    1    1    2    0    0  0.11527477788E+03 -0.50608097727E+03 -0.10432602996E+03  0.84504458862E+03  0.65864270000E+03 0.  1.
    8880022    1    1    2    0    0 -0.11527477788E+03  0.50608097727E+03 -0.15996533825E+04  0.16886944150E+04  0.15294330000E+03 0.  0.
<mgrwt>
<rscale>  0 0.75158719E+03</rscale>
<asrwt>0</asrwt>
<pdfrwt beam="1">  1        2 0.32597833E+00 0.83858001E+03</pdfrwt>
<pdfrwt beam="2">  1       -2 0.63827662E-01 0.83858001E+03</pdfrwt>
<totfact> 0.13343445E+01</totfact>
</mgrwt>
</event>
<event>
 4    2  0.6387803E-007  0.6812332E+03  0.7818608E-02  0.1008635E+00
          2   -1    0    0  501    0  0.00000000000E+00  0.00000000000E+00  0.14505695899E+04  0.14505695899E+04  0.25500000000E-02 0. -1.
         -2   -1    0    0    0  501 -0.00000000000E+00 -0.00000000000E+00 -0.46116362955E+03  0.46116362955E+03  0.25500000000E-02 0.  1.
    8880023    1    1    2    0    0  0.17376538364E+03 -0.86055666088E+01 -0.19204640467E+03  0.70778562584E+03  0.65864270000E+03 0.  0.
    8880022    1    1    2    0    0 -0.17376538364E+03  0.86055666088E+01  0.11814523650E+04  0.12039475936E+04  0.15294330000E+03 0. -1.
<mgrwt>
<rscale>  0 0.52020953E+03</rscale>
<asrwt>0</asrwt>
<pdfrwt beam="1">  1        2 0.22316455E+00 0.68123320E+03</pdfrwt>
<pdfrwt beam="2">  1       -2 0.70948251E-01 0.68123320E+03</pdfrwt>
<totfact> 0.25206899E+01</totfact>
</mgrwt>
</event>
<event>
 4    2  0.6387803E-007  0.7615303E+03  0.7818608E-02  0.9801162E-01
         -2   -1    0    0    0  501 -0.00000000000E+00  0.00000000000E+00  0.14476076177E+04  0.14476076177E+04  0.25500000000E-02 0.  1.
          2   -1    0    0  501    0  0.00000000000E+00 -0.00000000000E+00 -0.90365078101E+03  0.90365078101E+03  0.25500000000E-02 0. -1.
    8880023    1    1    2    0    0  0.38220504488E+03  0.61230429037E+01  0.12906569301E+04  0.14985738905E+04  0.65864270000E+03 0.  0.
    8880022    1    1    2    0    0 -0.38220504488E+03 -0.61230429037E+01 -0.74670009339E+03  0.85268450817E+03  0.15294330000E+03 0.  0.
<mgrwt>
<rscale>  0 0.65300237E+03</rscale>
<asrwt>0</asrwt>
<pdfrwt beam="1">  1        2 0.13902320E+00 0.76153030E+03</pdfrwt>
<pdfrwt beam="2">  1       -2 0.22270886E+00 0.76153030E+03</pdfrwt>
<totfact> 0.28400319E+00</totfact>
</mgrwt>
</event>
<event>
 4    2  0.6387803E-007  0.7848601E+03  0.7818608E-02  0.9744542E-01
          2   -1    0    0  501    0  0.00000000000E+00  0.00000000000E+00  0.11474522608E+04  0.11474522608E+04  0.25500000000E-02 0. -1.
         -2   -1    0    0    0  501 -0.00000000000E+00 -0.00000000000E+00 -0.38830894138E+03  0.38830894139E+03  0.25500000000E-02 0.  1.
    8880023    1    1    2    0    0  0.40987537135E+03  0.11915273189E+03  0.18898537432E+03  0.80729230860E+03  0.65864270000E+03 0. -1.
    8880022    1    1    2    0    0 -0.40987537135E+03 -0.11915273189E+03  0.57015794510E+03  0.72846889359E+03  0.15294330000E+03 0.  1.
<mgrwt>
<rscale>  0 0.68425599E+03</rscale>
<asrwt>0</asrwt>
<pdfrwt beam="1">  1        2 0.17653112E+00 0.78486011E+03</pdfrwt>
<pdfrwt beam="2">  1       -2 0.59739838E-01 0.78486011E+03</pdfrwt>
<totfact> 0.53989757E+01</totfact>
</mgrwt>
</event>
<event>
 4    2  0.6387803E-007  0.7140788E+03  0.7818608E-02  0.9943155E-01
         -2   -1    0    0    0  501 -0.00000000000E+00  0.00000000000E+00  0.25955597137E+03  0.25955597138E+03  0.25500000000E-02 0.  1.
          2   -1    0    0  501    0  0.00000000000E+00 -0.00000000000E+00 -0.16993030756E+04  0.16993030756E+04  0.25500000000E-02 0. -1.
    8880023    1    1    2    0    0 -0.31055829933E+02 -0.27410567109E+03 -0.29700137432E+03  0.77338115189E+03  0.65864270000E+03 0.  1.
    8880022    1    1    2    0    0  0.31055829933E+02  0.27410567109E+03 -0.11427457299E+04  0.11854778951E+04  0.15294330000E+03 0.  0.
<mgrwt>
<rscale>  0 0.58214621E+03</rscale>
<asrwt>0</asrwt>
<pdfrwt beam="1">  1        2 0.26143123E+00 0.71407884E+03</pdfrwt>
<pdfrwt beam="2">  1       -2 0.39931689E-01 0.71407884E+03</pdfrwt>
<totfact> 0.59871775E+01</totfact>
</mgrwt>
</event>
<event>
 4    2  0.6387803E-007  0.8562425E+03  0.7818608E-02  0.9600282E-01
          2   -1    0    0  501    0  0.00000000000E+00  0.00000000000E+00  0.20308529227E+04  0.20308529227E+04  0.25500000000E-02 0. -1.
         -2   -1    0    0    0  501 -0.00000000000E+00 -0.00000000000E+00 -0.96056150903E+03  0.96056150903E+03  0.25500000000E-02 0.  1.
    8880023    1    1    2    0    0 -0.52690740713E+03  0.14734202206E+03 -0.71650495369E+03  0.11164813666E+04  0.65864270000E+03 0.  1.
    8880022    1    1    2    0    0  0.52690740713E+03 -0.14734202206E+03  0.17867963674E+04  0.18749330651E+04  0.15294330000E+03 0.  0.
<mgrwt>
<rscale>  0 0.77277485E+03</rscale>
<asrwt>0</asrwt>
<pdfrwt beam="1">  1        2 0.31243891E+00 0.85624254E+03</pdfrwt>
<pdfrwt beam="2">  1       -2 0.14777869E+00 0.85624254E+03</pdfrwt>
<totfact> 0.20411077E+00</totfact>
</mgrwt>
</event>
<event>
 4    2  0.6387803E-007  0.7941582E+03  0.7818608E-02  0.9723572E-01
         -2   -1    0    0    0  501 -0.00000000000E+00  0.00000000000E+00  0.41049427438E+03  0.41049427439E+03  0.25500000000E-02 0.  1.
          2   -1    0    0  501    0  0.00000000000E+00 -0.00000000000E+00 -0.19642028668E+04  0.19642028668E+04  0.25500000000E-02 0. -1.
    8880023    1    1    2    0    0  0.43150708032E+03 -0.10333792002E+03 -0.45843523519E+02  0.79548030836E+03  0.65864270000E+03 0.  0.
    8880022    1    1    2    0    0 -0.43150708032E+03  0.10333792002E+03 -0.15078650689E+04  0.15792168328E+04  0.15294330000E+03 0.  0.
<mgrwt>
<rscale>  0 0.69630480E+03</rscale>
<asrwt>0</asrwt>
<pdfrwt beam="1">  1        2 0.30218505E+00 0.79415823E+03</pdfrwt>
<pdfrwt beam="2">  1       -2 0.63152967E-01 0.79415823E+03</pdfrwt>
<totfact> 0.16691580E+01</totfact>
</mgrwt>
</event>
<event>
 4    2  0.6387803E-007  0.7497845E+03  0.7818608E-02  0.9832311E-01
         -2   -1    0    0    0  501 -0.00000000000E+00  0.00000000000E+00  0.38678781172E+03  0.38678781173E+03  0.25500000000E-02 0.  1.
          2   -1    0    0  501    0  0.00000000000E+00 -0.00000000000E+00 -0.17897324107E+04  0.17897324107E+04  0.25500000000E-02 0. -1.
    8880023    1    1    2    0    0 -0.77579871484E+02 -0.34978265615E+03 -0.31092438829E+02  0.75042887006E+03  0.65864270000E+03 0.  0.
    8880022    1    1    2    0    0  0.77579871484E+02  0.34978265615E+03 -0.13718521602E+04  0.14260913524E+04  0.15294330000E+03 0.  0.
<mgrwt>
<rscale>  0 0.63657027E+03</rscale>
<asrwt>0</asrwt>
<pdfrwt beam="1">  1        2 0.27534344E+00 0.74978447E+03</pdfrwt>
<pdfrwt beam="2">  1       -2 0.59505818E-01 0.74978447E+03</pdfrwt>
<totfact> 0.23715257E+01</totfact>
</mgrwt>
</event>
<event>
 4    2  0.6387803E-007  0.6971970E+03  0.7818608E-02  0.1000903E+00
          2   -1    0    0  501    0  0.00000000000E+00  0.00000000000E+00  0.14203167703E+04  0.14203167703E+04  0.25500000000E-02 0. -1.
         -2   -1    0    0    0  501 -0.00000000000E+00 -0.00000000000E+00 -0.39740552744E+03  0.39740552745E+03  0.25500000000E-02 0.  1.
    8880023    1    1    2    0    0  0.18678476352E+03 -0.13185159504E+03  0.12694700388E+04  0.14483224008E+04  0.65864270000E+03 0. -1.
    8880022    1    1    2    0    0 -0.18678476352E+03  0.13185159504E+03 -0.24655879594E+03  0.36939989695E+03  0.15294330000E+03 0.  0.
<mgrwt>
<rscale>  0 0.55255883E+03</rscale>
<asrwt>0</asrwt>
<pdfrwt beam="1">  1        2 0.21851028E+00 0.69719696E+03</pdfrwt>
<pdfrwt beam="2">  1       -2 0.61139311E-01 0.69719696E+03</pdfrwt>
<totfact> 0.36030693E+01</totfact>
</mgrwt>
</event>
<event>
 4    2  0.6387803E-007  0.6628145E+03  0.7818608E-02  0.1021442E+00
         -2   -1    0    0    0  501 -0.00000000000E+00  0.00000000000E+00  0.61075427180E+03  0.61075427180E+03  0.25500000000E-02 0.  1.
          2   -1    0    0  501    0  0.00000000000E+00 -0.00000000000E+00 -0.53165174822E+03  0.53165174822E+03  0.25500000000E-02 0. -1.
    8880023    1    1    2    0    0  0.67059720659E+02 -0.31871938795E+02  0.40363047890E+03  0.77604162026E+03  0.65864270000E+03 0.  1.
    8880022    1    1    2    0    0 -0.67059720659E+02  0.31871938795E+02 -0.32452795532E+03  0.36636439977E+03  0.15294330000E+03 0.  0.
<mgrwt>
<rscale>  0 0.47169865E+03</rscale>
<asrwt>0</asrwt>
<pdfrwt beam="1">  1        2 0.81792577E-01 0.66281448E+03</pdfrwt>
<pdfrwt beam="2">  1       -2 0.93962195E-01 0.66281448E+03</pdfrwt>
<totfact> 0.55784078E+01</totfact>
</mgrwt>
</event>
<event>
 4    2  0.6387803E-007  0.6672307E+03  0.7818608E-02  0.1017731E+00
          2   -1    0    0  501    0  0.00000000000E+00  0.00000000000E+00  0.19725154130E+04  0.19725154130E+04  0.25500000000E-02 0. -1.
         -2   -1    0    0    0  501 -0.00000000000E+00 -0.00000000000E+00 -0.10003102196E+03  0.10003102199E+03  0.25500000000E-02 0.  1.
    8880023    1    1    2    0    0 -0.67466357880E+02 -0.82673348459E+02  0.11819983778E+04  0.13573197719E+04  0.65864270000E+03 0.  1.
    8880022    1    1    2    0    0  0.67466357880E+02  0.82673348459E+02  0.69048601324E+03  0.71522666302E+03  0.15294330000E+03 0. -1.
<mgrwt>
<rscale>  0 0.48514378E+03</rscale>
<asrwt>0</asrwt>
<pdfrwt beam="1">  1        2 0.30346390E+00 0.66723069E+03</pdfrwt>
<pdfrwt beam="2">  1       -2 0.15389389E-01 0.66723069E+03</pdfrwt>
<totfact> 0.23927434E+02</totfact>
</mgrwt>
</event>
<event>
 4    2  0.6387803E-007  0.1018697E+04  0.7818608E-02  0.9357494E-01
         -2   -1    0    0    0  501 -0.00000000000E+00  0.00000000000E+00  0.76202653754E+03  0.76202653754E+03  0.25500000000E-02 0.  1.
          2   -1    0    0  501    0  0.00000000000E+00 -0.00000000000E+00 -0.15438584013E+04  0.15438584013E+04  0.25500000000E-02 0. -1.
    8880023    1    1    2    0    0 -0.75609858770E+03 -0.17957993007E+03  0.20642619041E+03  0.10394017529E+04  0.65864270000E+03 0. -1.
    8880022    1    1    2    0    0  0.75609858770E+03  0.17957993007E+03 -0.98825805419E+03  0.12664831860E+04  0.15294330000E+03 0.  0.
<mgrwt>
<rscale>  0 0.95657826E+03</rscale>
<asrwt>0</asrwt>
<pdfrwt beam="1">  1        2 0.23751668E+00 0.10186973E+04</pdfrwt>
<pdfrwt beam="2">  1       -2 0.11723485E+00 0.10186973E+04</pdfrwt>
<totfact> 0.66946067E+00</totfact>
</mgrwt>
</event>
<event>
 4    2  0.6387803E-007  0.7775535E+03  0.7818608E-02  0.9761615E-01
          2   -1    0    0  501    0  0.00000000000E+00  0.00000000000E+00  0.41042471456E+03  0.41042471456E+03  0.25500000000E-02 0. -1.
         -2   -1    0    0    0  501 -0.00000000000E+00 -0.00000000000E+00 -0.99425674435E+03  0.99425674435E+03  0.25500000000E-02 0.  1.
    8880023    1    1    2    0    0 -0.33091089809E+01  0.41324126070E+03 -0.16113937065E+03  0.79407518082E+03  0.65864270000E+03 0.  1.
    8880022    1    1    2    0    0  0.33091089809E+01 -0.41324126070E+03 -0.42269265914E+03  0.61060627810E+03  0.15294330000E+03 0.  0.
<mgrwt>
<rscale>  0 0.67463793E+03</rscale>
<asrwt>0</asrwt>
<pdfrwt beam="1">  1        2 0.63142264E-01 0.77755353E+03</pdfrwt>
<pdfrwt beam="2">  1       -2 0.15296257E+00 0.77755353E+03</pdfrwt>
<totfact> 0.22208144E+01</totfact>
</mgrwt>
</event>
<event>
 4    2  0.6387803E-007  0.6602422E+03  0.7818608E-02  0.1023910E+00
         -2   -1    0    0    0  501 -0.00000000000E+00  0.00000000000E+00  0.48792600806E+03  0.48792600806E+03  0.25500000000E-02 0.  1.
          2   -1    0    0  501    0  0.00000000000E+00 -0.00000000000E+00 -0.45839209154E+03  0.45839209155E+03  0.25500000000E-02 0. -1.
    8880023    1    1    2    0    0  0.10937030272E+02 -0.44609398284E+02  0.22169063024E+03  0.69646719869E+03  0.65864270000E+03 0.  1.
    8880022    1    1    2    0    0 -0.10937030272E+02  0.44609398284E+02 -0.19215671373E+03  0.24985090092E+03  0.15294330000E+03 0.  0.
<mgrwt>
<rscale>  0 0.46301782E+03</rscale>
<asrwt>0</asrwt>
<pdfrwt beam="1">  1        2 0.70521860E-01 0.66024225E+03</pdfrwt>
<pdfrwt beam="2">  1       -2 0.75065539E-01 0.66024225E+03</pdfrwt>
<totfact> 0.11019571E+02</totfact>
</mgrwt>
</event>
<event>
 4    2  0.6387803E-007  0.8617963E+03  0.7818608E-02  0.9590376E-01
          2   -1    0    0  501    0  0.00000000000E+00  0.00000000000E+00  0.29330700205E+04  0.29330700205E+04  0.25500000000E-02 0. -1.
         -2   -1    0    0    0  501 -0.00000000000E+00 -0.00000000000E+00 -0.30399778946E+03  0.30399778947E+03  0.25500000000E-02 0.  1.
    8880023    1    1    2    0    0  0.33677757692E+03 -0.44211264190E+03  0.42887686319E+03  0.96261534087E+03  0.65864270000E+03 0.  1.
    8880022    1    1    2    0    0 -0.33677757692E+03  0.44211264190E+03  0.22001953678E+04  0.22744524691E+04  0.15294330000E+03 0.  0.
<mgrwt>
<rscale>  0 0.77936445E+03</rscale>
<asrwt>0</asrwt>
<pdfrwt beam="1">  1        2 0.45124152E+00 0.86179634E+03</pdfrwt>
<pdfrwt beam="2">  1       -2 0.46768893E-01 0.86179634E+03</pdfrwt>
<totfact> 0.86559215E+00</totfact>
</mgrwt>
</event>
<event>
 4    2  0.6387803E-007  0.1088179E+04  0.7818608E-02  0.9274333E-01
          2   -1    0    0  501    0  0.00000000000E+00  0.00000000000E+00  0.20225620437E+04  0.20225620437E+04  0.25500000000E-02 0. -1.
         -2   -1    0    0    0  501 -0.00000000000E+00 -0.00000000000E+00 -0.75141754579E+03  0.75141754579E+03  0.25500000000E-02 0.  1.
    8880023    1    1    2    0    0  0.49281523659E+03  0.71235918069E+03 -0.15422077503E+03  0.10990526436E+04  0.65864270000E+03 0.  0.
    8880022    1    1    2    0    0 -0.49281523659E+03 -0.71235918069E+03  0.14253652730E+04  0.16749269459E+04  0.15294330000E+03 0.  0.
<mgrwt>
<rscale>  0 0.10318052E+04</rscale>
<asrwt>0</asrwt>
<pdfrwt beam="1">  1        2 0.31116339E+00 0.10881786E+04</pdfrwt>
<pdfrwt beam="2">  1       -2 0.11560270E+00 0.10881786E+04</pdfrwt>
<totfact> 0.37372275E+00</totfact>
</mgrwt>
</event>
<event>
 4    2  0.6387803E-007  0.8513037E+03  0.7818608E-02  0.9609224E-01
          2   -1    0    0  501    0  0.00000000000E+00  0.00000000000E+00  0.79705318452E+03  0.79705318452E+03  0.25500000000E-02 0. -1.
         -2   -1    0    0    0  501 -0.00000000000E+00 -0.00000000000E+00 -0.11409422876E+04  0.11409422876E+04  0.25500000000E-02 0.  1.
    8880023    1    1    2    0    0  0.22246788828E+03 -0.49134079736E+03 -0.83517026004E+03  0.11925717211E+04  0.65864270000E+03 0.  1.
    8880022    1    1    2    0    0 -0.22246788828E+03  0.49134079736E+03  0.49128115692E+03  0.74542375105E+03  0.15294330000E+03 0.  0.
<mgrwt>
<rscale>  0 0.76688691E+03</rscale>
<asrwt>0</asrwt>
<pdfrwt beam="1">  1        2 0.12262357E+00 0.85130367E+03</pdfrwt>
<pdfrwt beam="2">  1       -2 0.17552958E+00 0.85130367E+03</pdfrwt>
<totfact> 0.67884694E+00</totfact>
</mgrwt>
</event>
<event>
 4    2  0.6387803E-007  0.9944052E+03  0.7818608E-02  0.9388914E-01
          2   -1    0    0  501    0  0.00000000000E+00  0.00000000000E+00  0.25435915431E+04  0.25435915431E+04  0.25500000000E-02 0. -1.
         -2   -1    0    0    0  501 -0.00000000000E+00 -0.00000000000E+00 -0.34325946190E+03  0.34325946191E+03  0.25500000000E-02 0.  1.
    8880023    1    1    2    0    0  0.53567709963E+03 -0.51776598460E+03  0.73721906918E+03  0.12378746835E+04  0.65864270000E+03 0.  0.
    8880022    1    1    2    0    0 -0.53567709963E+03  0.51776598460E+03  0.14631130120E+04  0.16489763214E+04  0.15294330000E+03 0.  0.
<mgrwt>
<rscale>  0 0.92993644E+03</rscale>
<asrwt>0</asrwt>
<pdfrwt beam="1">  1        2 0.39132177E+00 0.99440524E+03</pdfrwt>
<pdfrwt beam="2">  1       -2 0.52809149E-01 0.99440524E+03</pdfrwt>
<totfact> 0.11257950E+01</totfact>
</mgrwt>
</event>
<event>
 4    2  0.6387803E-007  0.6985857E+03  0.7818608E-02  0.1000312E+00
          2   -1    0    0  501    0  0.00000000000E+00  0.00000000000E+00  0.13690903387E+04  0.13690903387E+04  0.25500000000E-02 0. -1.
         -2   -1    0    0    0  501 -0.00000000000E+00 -0.00000000000E+00 -0.28961917580E+03  0.28961917581E+03  0.25500000000E-02 0.  1.
    8880023    1    1    2    0    0 -0.23130220005E+03 -0.26666551251E+02  0.18615190113E+03  0.72296234291E+03  0.65864270000E+03 0.  1.
    8880022    1    1    2    0    0  0.23130220005E+03  0.26666551251E+02  0.89331926176E+03  0.93574717160E+03  0.15294330000E+03 0.  0.
<mgrwt>
<rscale>  0 0.55513668E+03</rscale>
<asrwt>0</asrwt>
<pdfrwt beam="1">  1        2 0.21062928E+00 0.69858573E+03</pdfrwt>
<pdfrwt beam="2">  1       -2 0.44556797E-01 0.69858573E+03</pdfrwt>
<totfact> 0.73692949E+01</totfact>
</mgrwt>
</event>
<event>
 4    2  0.6387803E-007  0.1015583E+04  0.7818608E-02  0.9361448E-01
          2   -1    0    0  501    0  0.00000000000E+00  0.00000000000E+00  0.95756044717E+03  0.95756044717E+03  0.25500000000E-02 0. -1.
         -2   -1    0    0    0  501 -0.00000000000E+00 -0.00000000000E+00 -0.95187628783E+03  0.95187628783E+03  0.25500000000E-02 0.  1.
    8880023    1    1    2    0    0  0.43402631935E+02 -0.77182587242E+03 -0.30801348201E+03  0.10612640940E+04  0.65864270000E+03 0.  0.
    8880022    1    1    2    0    0 -0.43402631935E+02  0.77182587242E+03  0.31369764135E+03  0.84817264103E+03  0.15294330000E+03 0.  0.
<mgrwt>
<rscale>  0 0.95317414E+03</rscale>
<asrwt>0</asrwt>
<pdfrwt beam="1">  1        2 0.14731699E+00 0.10155832E+04</pdfrwt>
<pdfrwt beam="2">  1       -2 0.14644251E+00 0.10155832E+04</pdfrwt>
<totfact> 0.84838681E+00</totfact>
</mgrwt>
</event>
<event>
 4    2  0.6387803E-007  0.7235567E+03  0.7818608E-02  0.9910730E-01
         -2   -1    0    0    0  501 -0.00000000000E+00  0.00000000000E+00  0.63255108161E+03  0.63255108161E+03  0.25500000000E-02 0.  1.
          2   -1    0    0  501    0  0.00000000000E+00 -0.00000000000E+00 -0.46693382903E+03  0.46693382904E+03  0.25500000000E-02 0. -1.
    8880023    1    1    2    0    0  0.16932441759E+03 -0.24708976462E+03  0.22547242849E+03  0.75787342772E+03  0.65864270000E+03 0.  0.
    8880022    1    1    2    0    0 -0.16932441759E+03  0.24708976462E+03 -0.59855175916E+02  0.34161148293E+03  0.15294330000E+03 0.  0.
<mgrwt>
<rscale>  0 0.59744073E+03</rscale>
<asrwt>0</asrwt>
<pdfrwt beam="1">  1        2 0.71835974E-01 0.72355671E+03</pdfrwt>
<pdfrwt beam="2">  1       -2 0.97315551E-01 0.72355671E+03</pdfrwt>
<totfact> 0.59481540E+01</totfact>
</mgrwt>
</event>
<event>
 4    2  0.6387803E-007  0.9933299E+03  0.7818608E-02  0.9390337E-01
          2   -1    0    0  501    0  0.00000000000E+00  0.00000000000E+00  0.10011261079E+04  0.10011261079E+04  0.25500000000E-02 0. -1.
         -2   -1    0    0    0  501 -0.00000000000E+00 -0.00000000000E+00 -0.11227993734E+04  0.11227993734E+04  0.25500000000E-02 0.  1.
    8880023    1    1    2    0    0  0.48669310048E+03 -0.56216003912E+03  0.52782673238E+03  0.11248579241E+04  0.65864270000E+03 0.  0.
    8880022    1    1    2    0    0 -0.48669310048E+03  0.56216003912E+03 -0.64949999786E+03  0.99906755721E+03  0.15294330000E+03 0.  0.
<mgrwt>
<rscale>  0 0.92875222E+03</rscale>
<asrwt>0</asrwt>
<pdfrwt beam="1">  1        2 0.15401940E+00 0.99332990E+03</pdfrwt>
<pdfrwt beam="2">  1       -2 0.17273837E+00 0.99332990E+03</pdfrwt>
<totfact> 0.50836989E+00</totfact>
</mgrwt>
</event>
<event>
 4    2  0.6387803E-007  0.6993875E+03  0.7818608E-02  0.9999751E-01
         -2   -1    0    0    0  501 -0.00000000000E+00  0.00000000000E+00  0.11846945649E+03  0.11846945651E+03  0.25500000000E-02 0.  1.
          2   -1    0    0  501    0  0.00000000000E+00 -0.00000000000E+00 -0.26466017511E+04  0.26466017511E+04  0.25500000000E-02 0. -1.
    8880023    1    1    2    0    0 -0.23517276979E+03  0.51443600863E+01 -0.10570919924E+04  0.12675118866E+04  0.65864270000E+03 0.  1.
    8880022    1    1    2    0    0  0.23517276979E+03 -0.51443600863E+01 -0.14710403022E+04  0.14975593210E+04  0.15294330000E+03 0.  0.
<mgrwt>
<rscale>  0 0.55661133E+03</rscale>
<asrwt>0</asrwt>
<pdfrwt beam="1">  1        2 0.40716946E+00 0.69938752E+03</pdfrwt>
<pdfrwt beam="2">  1       -2 0.18226072E-01 0.69938752E+03</pdfrwt>
<totfact> 0.75289260E+01</totfact>
</mgrwt>
</event>
<event>
 4    2  0.6387803E-007  0.1488012E+04  0.7818608E-02  0.8918148E-01
          2   -1    0    0  501    0  0.00000000000E+00  0.00000000000E+00  0.26880970432E+04  0.26880970432E+04  0.25500000000E-02 0. -1.
         -2   -1    0    0    0  501 -0.00000000000E+00 -0.00000000000E+00 -0.77672452811E+03  0.77672452811E+03  0.25500000000E-02 0.  1.
    8880023    1    1    2    0    0  0.12109486267E+04  0.56033224956E+03  0.13501002636E+04  0.20092161991E+04  0.65864270000E+03 0. -1.
    8880022    1    1    2    0    0 -0.12109486267E+04 -0.56033224956E+03  0.56127225145E+03  0.14556053722E+04  0.15294330000E+03 0.  0.
<mgrwt>
<rscale>  0 0.14503644E+04</rscale>
<asrwt>0</asrwt>
<pdfrwt beam="1">  1        2 0.41355339E+00 0.14880118E+04</pdfrwt>
<pdfrwt beam="2">  1       -2 0.11949608E+00 0.14880118E+04</pdfrwt>
<totfact> 0.13785328E+00</totfact>
</mgrwt>
</event>
<event>
 4    2  0.6387803E-007  0.1011770E+04  0.7818608E-02  0.9366318E-01
          2   -1    0    0  501    0  0.00000000000E+00  0.00000000000E+00  0.81993654998E+03  0.81993654998E+03  0.25500000000E-02 0. -1.
         -2   -1    0    0    0  501 -0.00000000000E+00 -0.00000000000E+00 -0.11434587791E+04  0.11434587791E+04  0.25500000000E-02 0.  1.
    8880023    1    1    2    0    0 -0.76670478415E+03  0.45080068901E+02 -0.54546970828E+03  0.11494415373E+04  0.65864270000E+03 0.  0.
    8880022    1    1    2    0    0  0.76670478415E+03 -0.45080068901E+02  0.22194747920E+03  0.81395379180E+03  0.15294330000E+03 0.  0.
<mgrwt>
<rscale>  0 0.94900162E+03</rscale>
<asrwt>0</asrwt>
<pdfrwt beam="1">  1        2 0.12614408E+00 0.10117701E+04</pdfrwt>
<pdfrwt beam="2">  1       -2 0.17591674E+00 0.10117701E+04</pdfrwt>
<totfact> 0.63923858E+00</totfact>
</mgrwt>
</event>
<event>
 4    2  0.6387803E-007  0.6726913E+03  0.7818608E-02  0.1013803E+00
         -2   -1    0    0    0  501 -0.00000000000E+00  0.00000000000E+00  0.22613301226E+03  0.22613301227E+03  0.25500000000E-02 0.  1.
          2   -1    0    0  501    0  0.00000000000E+00 -0.00000000000E+00 -0.87114746745E+03  0.87114746745E+03  0.25500000000E-02 0. -1.
    8880023    1    1    2    0    0  0.37361981386E+02 -0.13155771106E+03 -0.55966729626E+03  0.87506630478E+03  0.65864270000E+03 0. -1.
    8880022    1    1    2    0    0 -0.37361981386E+02  0.13155771106E+03 -0.85347158921E+02  0.22221417494E+03  0.15294330000E+03 0.  1.
<mgrwt>
<rscale>  0 0.49990866E+03</rscale>
<asrwt>0</asrwt>
<pdfrwt beam="1">  1        2 0.13402269E+00 0.67269128E+03</pdfrwt>
<pdfrwt beam="2">  1       -2 0.34789695E-01 0.67269128E+03</pdfrwt>
<totfact> 0.24082329E+02</totfact>
</mgrwt>
</event>
<event>
 4    2  0.6387803E-007  0.6895515E+03  0.7818608E-02  0.1004366E+00
          2   -1    0    0  501    0  0.00000000000E+00  0.00000000000E+00  0.20469326260E+03  0.20469326262E+03  0.25500000000E-02 0. -1.
         -2   -1    0    0    0  501 -0.00000000000E+00 -0.00000000000E+00 -0.25779386588E+04  0.25779386589E+04  0.25500000000E-02 0.  1.
    8880023    1    1    2    0    0 -0.33363437190E+02 -0.20139007849E+03 -0.24260565535E+04  0.25221482291E+04  0.65864270000E+03 0.  1.
    8880022    1    1    2    0    0  0.33363437190E+02  0.20139007849E+03  0.52811157210E+02  0.26048369238E+03  0.15294330000E+03 0.  0.
<mgrwt>
<rscale>  0 0.53776382E+03</rscale>
<asrwt>0</asrwt>
<pdfrwt beam="1">  1        2 0.31491273E-01 0.68955151E+03</pdfrwt>
<pdfrwt beam="2">  1       -2 0.39660593E+00 0.68955151E+03</pdfrwt>
<totfact> 0.14095968E+00</totfact>
</mgrwt>
</event>
<event>
 4    2  0.6387803E-007  0.6987447E+03  0.7818608E-02  0.1000245E+00
          2   -1    0    0  501    0  0.00000000000E+00  0.00000000000E+00  0.16939168942E+04  0.16939168942E+04  0.25500000000E-02 0. -1.
         -2   -1    0    0    0  501 -0.00000000000E+00 -0.00000000000E+00 -0.18116124151E+03  0.18116124153E+03  0.25500000000E-02 0.  1.
    8880023    1    1    2    0    0 -0.10022617743E+03  0.21068609150E+03  0.60118167929E+03  0.92177195312E+03  0.65864270000E+03 0. -1.
    8880022    1    1    2    0    0  0.10022617743E+03 -0.21068609150E+03  0.91157397337E+03  0.95330618258E+03  0.15294330000E+03 0.  0.
<mgrwt>
<rscale>  0 0.55542979E+03</rscale>
<asrwt>0</asrwt>
<pdfrwt beam="1">  1        2 0.26060261E+00 0.69874468E+03</pdfrwt>
<pdfrwt beam="2">  1       -2 0.27870960E-01 0.69874468E+03</pdfrwt>
<totfact> 0.11905503E+02</totfact>
</mgrwt>
</event>
<event>
 4    2  0.6387803E-007  0.6810773E+03  0.7818608E-02  0.1008721E+00
         -2   -1    0    0    0  501 -0.00000000000E+00  0.00000000000E+00  0.13194392898E+04  0.13194392898E+04  0.25500000000E-02 0.  1.
          2   -1    0    0  501    0  0.00000000000E+00 -0.00000000000E+00 -0.29255643472E+03  0.29255643473E+03  0.25500000000E-02 0. -1.
    8880023    1    1    2    0    0  0.13787295315E+03  0.10510546039E+03  0.11600429588E+04  0.13452010933E+04  0.65864270000E+03 0.  1.
    8880022    1    1    2    0    0 -0.13787295315E+03 -0.10510546039E+03 -0.13316010370E+03  0.26679463122E+03  0.15294330000E+03 0.  0.
<mgrwt>
<rscale>  0 0.51986252E+03</rscale>
<asrwt>0</asrwt>
<pdfrwt beam="1">  1        2 0.45008683E-01 0.68107732E+03</pdfrwt>
<pdfrwt beam="2">  1       -2 0.20299066E+00 0.68107732E+03</pdfrwt>
<totfact> 0.14707657E+01</totfact>
</mgrwt>
</event>
<event>
 4    2  0.6387803E-007  0.6851861E+03  0.7818608E-02  0.1006530E+00
          2   -1    0    0  501    0  0.00000000000E+00  0.00000000000E+00  0.10378057867E+04  0.10378057867E+04  0.25500000000E-02 0. -1.
         -2   -1    0    0    0  501 -0.00000000000E+00 -0.00000000000E+00 -0.19467744418E+04  0.19467744419E+04  0.25500000000E-02 0.  1.
    8880023    1    1    2    0    0  0.12776453722E+03  0.13909010214E+03 -0.18709010147E+04  0.19924233101E+04  0.65864270000E+03 0.  1.
    8880022    1    1    2    0    0 -0.12776453722E+03 -0.13909010214E+03  0.96193235956E+03  0.99215691847E+03  0.15294330000E+03 0.  0.
<mgrwt>
<rscale>  0 0.52877324E+03</rscale>
<asrwt>0</asrwt>
<pdfrwt beam="1">  1        2 0.15966243E+00 0.68518614E+03</pdfrwt>
<pdfrwt beam="2">  1       -2 0.29950376E+00 0.68518614E+03</pdfrwt>
<totfact> 0.80905573E-01</totfact>
</mgrwt>
</event>
<event>
 4    2  0.6387803E-007  0.1303812E+04  0.7818608E-02  0.9062275E-01
          2   -1    0    0  501    0  0.00000000000E+00  0.00000000000E+00  0.10465278357E+04  0.10465278357E+04  0.25500000000E-02 0. -1.
         -2   -1    0    0    0  501 -0.00000000000E+00 -0.00000000000E+00 -0.32113160576E+04  0.32113160576E+04  0.25500000000E-02 0.  1.
    8880023    1    1    2    0    0  0.34069928642E+03 -0.10723987046E+04 -0.27031263995E+04  0.30011360388E+04  0.65864270000E+03 0.  0.
    8880022    1    1    2    0    0 -0.34069928642E+03  0.10723987046E+04  0.53833817750E+03  0.12567078546E+04  0.15294330000E+03 0.  0.
<mgrwt>
<rscale>  0 0.12595463E+04</rscale>
<asrwt>0</asrwt>
<pdfrwt beam="1">  1        2 0.16100428E+00 0.13038118E+04</pdfrwt>
<pdfrwt beam="2">  1       -2 0.49404862E+00 0.13038118E+04</pdfrwt>
<totfact> 0.40765771E-02</totfact>
</mgrwt>
</event>
<event>
 4    2  0.6387803E-007  0.1396396E+04  0.7818608E-02  0.8986488E-01
         -2   -1    0    0    0  501 -0.00000000000E+00  0.00000000000E+00  0.16400051986E+04  0.16400051986E+04  0.25500000000E-02 0.  1.
          2   -1    0    0  501    0  0.00000000000E+00 -0.00000000000E+00 -0.13987859305E+04  0.13987859305E+04  0.25500000000E-02 0. -1.
    8880023    1    1    2    0    0 -0.80324716712E+03  0.93322323669E+03  0.87259986851E+03  0.16466184615E+04  0.65864270000E+03 0.  0.
    8880022    1    1    2    0    0  0.80324716712E+03 -0.93322323669E+03 -0.63138060043E+03  0.13921726677E+04  0.15294330000E+03 0.  0.
<mgrwt>
<rscale>  0 0.13557482E+04</rscale>
<asrwt>0</asrwt>
<pdfrwt beam="1">  1        2 0.21519784E+00 0.13963960E+04</pdfrwt>
<pdfrwt beam="2">  1       -2 0.25230849E+00 0.13963960E+04</pdfrwt>
<totfact> 0.85741986E-01</totfact>
</mgrwt>
</event>
<event>
 4    2  0.6387803E-007  0.6904425E+03  0.7818608E-02  0.1003943E+00
         -2   -1    0    0    0  501 -0.00000000000E+00  0.00000000000E+00  0.24016733244E+04  0.24016733244E+04  0.25500000000E-02 0.  1.
          2   -1    0    0  501    0  0.00000000000E+00 -0.00000000000E+00 -0.18460030994E+03  0.18460030996E+03  0.25500000000E-02 0. -1.
    8880023    1    1    2    0    0 -0.14481292081E+03 -0.14808725290E+03  0.22239983269E+04  0.23287076632E+04  0.65864270000E+03 0.  1.
    8880022    1    1    2    0    0  0.14481292081E+03  0.14808725290E+03 -0.69253124627E+01  0.25756597111E+03  0.15294330000E+03 0.  0.
<mgrwt>
<rscale>  0 0.53954602E+03</rscale>
<asrwt>0</asrwt>
<pdfrwt beam="1">  1        2 0.28400048E-01 0.69044248E+03</pdfrwt>
<pdfrwt beam="2">  1       -2 0.36948820E+00 0.69044248E+03</pdfrwt>
<totfact> 0.23598019E+00</totfact>
</mgrwt>
</event>
<event>
 4    2  0.6387803E-007  0.7756235E+03  0.7818608E-02  0.9766220E-01
         -2   -1    0    0    0  501 -0.00000000000E+00  0.00000000000E+00  0.15008399388E+03  0.15008399390E+03  0.25500000000E-02 0.  1.
          2   -1    0    0  501    0  0.00000000000E+00 -0.00000000000E+00 -0.35348631659E+04  0.35348631659E+04  0.25500000000E-02 0. -1.
    8880023    1    1    2    0    0  0.38167763062E+03  0.14867346624E+03 -0.10270625159E+04  0.12870311695E+04  0.65864270000E+03 0.  1.
    8880022    1    1    2    0    0 -0.38167763062E+03 -0.14867346624E+03 -0.23577166561E+04  0.23979159903E+04  0.15294330000E+03 0. -1.
<mgrwt>
<rscale>  0 0.67207326E+03</rscale>
<asrwt>0</asrwt>
<pdfrwt beam="1">  1        2 0.54382504E+00 0.77562350E+03</pdfrwt>
<pdfrwt beam="2">  1       -2 0.23089848E-01 0.77562350E+03</pdfrwt>
<totfact> 0.13657170E+01</totfact>
</mgrwt>
</event>
<event>
 4    2  0.6387803E-007  0.6732353E+03  0.7818608E-02  0.1013442E+00
          2   -1    0    0  501    0  0.00000000000E+00  0.00000000000E+00  0.25955432153E+04  0.25955432153E+04  0.25500000000E-02 0. -1.
         -2   -1    0    0    0  501 -0.00000000000E+00 -0.00000000000E+00 -0.17029599585E+03  0.17029599587E+03  0.25500000000E-02 0.  1.
    8880023    1    1    2    0    0  0.56055571285E+01  0.13929884138E+03  0.52337524468E+03  0.85274113451E+03  0.65864270000E+03 0.  1.
    8880022    1    1    2    0    0 -0.56055571285E+01 -0.13929884138E+03  0.19018719747E+04  0.19130980766E+04  0.15294330000E+03 0.  0.
<mgrwt>
<rscale>  0 0.50129132E+03</rscale>
<asrwt>0</asrwt>
<pdfrwt beam="1">  1        2 0.39931436E+00 0.67323532E+03</pdfrwt>
<pdfrwt beam="2">  1       -2 0.26199383E-01 0.67323532E+03</pdfrwt>
<totfact> 0.42554617E+01</totfact>
</mgrwt>
</event>
<event>
 4    2  0.6387803E-007  0.7441819E+03  0.7818608E-02  0.9847929E-01
          2   -1    0    0  501    0  0.00000000000E+00  0.00000000000E+00  0.13682561880E+04  0.13682561880E+04  0.25500000000E-02 0. -1.
         -2   -1    0    0    0  501 -0.00000000000E+00 -0.00000000000E+00 -0.76248514929E+03  0.76248514929E+03  0.25500000000E-02 0.  1.
    8880023    1    1    2    0    0  0.31321347679E+03 -0.14796562209E+03 -0.54296412653E+03  0.92120397108E+03  0.65864270000E+03 0.  1.
    8880022    1    1    2    0    0 -0.31321347679E+03  0.14796562209E+03  0.11487351652E+04  0.12095373662E+04  0.15294330000E+03 0.  0.
<mgrwt>
<rscale>  0 0.62852635E+03</rscale>
<asrwt>0</asrwt>
<pdfrwt beam="1">  1        2 0.21050095E+00 0.74418191E+03</pdfrwt>
<pdfrwt beam="2">  1       -2 0.11730541E+00 0.74418191E+03</pdfrwt>
<totfact> 0.86741842E+00</totfact>
</mgrwt>
</event>
<event>
 4    2  0.6387803E-007  0.6678860E+03  0.7818608E-02  0.1017226E+00
         -2   -1    0    0    0  501 -0.00000000000E+00  0.00000000000E+00  0.94750707039E+02  0.94750707073E+02  0.25500000000E-02 0.  1.
          2   -1    0    0  501    0  0.00000000000E+00 -0.00000000000E+00 -0.39548241096E+04  0.39548241097E+04  0.25500000000E-02 0. -1.
    8880023    1    1    2    0    0 -0.10124256288E+03  0.44849143420E+02 -0.11273772501E+04  0.13103629927E+04  0.65864270000E+03 0.  1.
    8880022    1    1    2    0    0  0.10124256288E+03 -0.44849143420E+02 -0.27326961525E+04  0.27392118240E+04  0.15294330000E+03 0.  0.
<mgrwt>
<rscale>  0 0.48701126E+03</rscale>
<asrwt>0</asrwt>
<pdfrwt beam="1">  1        2 0.60843435E+00 0.66788600E+03</pdfrwt>
<pdfrwt beam="2">  1       -2 0.14577035E-01 0.66788600E+03</pdfrwt>
<totfact> 0.15281299E+01</totfact>
</mgrwt>
</event>
<event>
 4    2  0.6387803E-007  0.6640535E+03  0.7818608E-02  0.1020341E+00
          2   -1    0    0  501    0  0.00000000000E+00  0.00000000000E+00  0.14806121472E+04  0.14806121472E+04  0.25500000000E-02 0. -1.
         -2   -1    0    0    0  501 -0.00000000000E+00 -0.00000000000E+00 -0.83605784167E+03  0.83605784168E+03  0.25500000000E-02 0.  1.
    8880023    1    1    2    0    0  0.53216376295E+02 -0.65763942194E+02 -0.69763293733E+03  0.96315045570E+03  0.65864270000E+03 0.  1.
    8880022    1    1    2    0    0 -0.53216376295E+02  0.65763942194E+02  0.13421872428E+04  0.13535195331E+04  0.15294330000E+03 0.  0.
<mgrwt>
<rscale>  0 0.47563752E+03</rscale>
<asrwt>0</asrwt>
<pdfrwt beam="1">  1        2 0.22778649E+00 0.66405353E+03</pdfrwt>
<pdfrwt beam="2">  1       -2 0.12862428E+00 0.66405353E+03</pdfrwt>
<totfact> 0.60339936E+00</totfact>
</mgrwt>
</event>
<event>
 4    2  0.6387803E-007  0.7095118E+03  0.7818608E-02  0.9959818E-01
         -2   -1    0    0    0  501 -0.00000000000E+00  0.00000000000E+00  0.25983521669E+03  0.25983521670E+03  0.25500000000E-02 0.  1.
          2   -1    0    0  501    0  0.00000000000E+00 -0.00000000000E+00 -0.36169427236E+04  0.36169427236E+04  0.25500000000E-02 0. -1.
    8880023    1    1    2    0    0 -0.26293399237E+03  0.21505525518E+02 -0.24627938359E+03  0.75103962147E+03  0.65864270000E+03 0.  1.
    8880022    1    1    2    0    0  0.26293399237E+03 -0.21505525518E+02 -0.31108281233E+04  0.31257383188E+04  0.15294330000E+03 0.  0.
<mgrwt>
<rscale>  0 0.57447790E+03</rscale>
<asrwt>0</asrwt>
<pdfrwt beam="1">  1        2 0.55645269E+00 0.70951179E+03</pdfrwt>
<pdfrwt beam="2">  1       -2 0.39974651E-01 0.70951179E+03</pdfrwt>
<totfact> 0.43671908E+00</totfact>
</mgrwt>
</event>
<event>
 4    2  0.6387803E-007  0.6768692E+03  0.7818608E-02  0.1011153E+00
          2   -1    0    0  501    0  0.00000000000E+00  0.00000000000E+00  0.47858477249E+03  0.47858477250E+03  0.25500000000E-02 0. -1.
         -2   -1    0    0    0  501 -0.00000000000E+00 -0.00000000000E+00 -0.44551356067E+03  0.44551356068E+03  0.25500000000E-02 0.  1.
    8880023    1    1    2    0    0  0.15639639148E+02  0.15523241076E+03 -0.73800275459E+02  0.68088059642E+03  0.65864270000E+03 0.  1.
    8880022    1    1    2    0    0 -0.15639639148E+02 -0.15523241076E+03  0.10687148728E+03  0.24321773676E+03  0.15294330000E+03 0. -1.
<mgrwt>
<rscale>  0 0.51018925E+03</rscale>
<asrwt>0</asrwt>
<pdfrwt beam="1">  1        2 0.73628426E-01 0.67686919E+03</pdfrwt>
<pdfrwt beam="2">  1       -2 0.68540548E-01 0.67686919E+03</pdfrwt>
<totfact> 0.12790030E+02</totfact>
</mgrwt>
</event>
<event>
 4    2  0.6387803E-007  0.6768469E+03  0.7818608E-02  0.1011167E+00
          2   -1    0    0  501    0  0.00000000000E+00  0.00000000000E+00  0.73876388258E+03  0.73876388258E+03  0.25500000000E-02 0. -1.
         -2   -1    0    0    0  501 -0.00000000000E+00 -0.00000000000E+00 -0.96208182928E+03  0.96208182928E+03  0.25500000000E-02 0.  1.
    8880023    1    1    2    0    0 -0.15591962026E+03  0.78391727727E+00 -0.82127796314E+03  0.10642458558E+04  0.65864270000E+03 0.  1.
    8880022    1    1    2    0    0  0.15591962026E+03 -0.78391727727E+00  0.59796001644E+03  0.63659985610E+03  0.15294330000E+03 0.  0.
<mgrwt>
<rscale>  0 0.51013636E+03</rscale>
<asrwt>0</asrwt>
<pdfrwt beam="1">  1        2 0.11365598E+00 0.67684692E+03</pdfrwt>
<pdfrwt beam="2">  1       -2 0.14801259E+00 0.67684692E+03</pdfrwt>
<totfact> 0.12152729E+01</totfact>
</mgrwt>
</event>
<event>
 4    2  0.6387803E-007  0.7725489E+03  0.7818608E-02  0.9773640E-01
          2   -1    0    0  501    0  0.00000000000E+00  0.00000000000E+00  0.13827368837E+04  0.13827368837E+04  0.25500000000E-02 0. -1.
         -2   -1    0    0    0  501 -0.00000000000E+00 -0.00000000000E+00 -0.12607440766E+04  0.12607440766E+04  0.25500000000E-02 0.  1.
    8880023    1    1    2    0    0 -0.38142292497E+03  0.13243159136E+03 -0.11018574673E+04  0.13457048928E+04  0.65864270000E+03 0.  0.
    8880022    1    1    2    0    0  0.38142292497E+03 -0.13243159136E+03  0.12238502744E+04  0.12977760675E+04  0.15294330000E+03 0.  0.
<mgrwt>
<rscale>  0 0.66796556E+03</rscale>
<asrwt>0</asrwt>
<pdfrwt beam="1">  1        2 0.21272875E+00 0.77254889E+03</pdfrwt>
<pdfrwt beam="2">  1       -2 0.19396063E+00 0.77254889E+03</pdfrwt>
<totfact> 0.22136594E+00</totfact>
</mgrwt>
</event>
<event>
 4    2  0.6387803E-007  0.7571875E+03  0.7818608E-02  0.9812444E-01
          2   -1    0    0  501    0  0.00000000000E+00  0.00000000000E+00  0.20635865625E+04  0.20635865625E+04  0.25500000000E-02 0. -1.
         -2   -1    0    0    0  501 -0.00000000000E+00 -0.00000000000E+00 -0.21990475156E+03  0.21990475157E+03  0.25500000000E-02 0.  1.
    8880023    1    1    2    0    0  0.37046949007E+03 -0.47698381459E+02  0.57104257080E+03  0.94837893407E+03  0.65864270000E+03 0.  1.
    8880022    1    1    2    0    0 -0.37046949007E+03  0.47698381459E+02  0.12726392402E+04  0.13351123800E+04  0.15294330000E+03 0.  0.
<mgrwt>
<rscale>  0 0.64698996E+03</rscale>
<asrwt>0</asrwt>
<pdfrwt beam="1">  1        2 0.31747485E+00 0.75718755E+03</pdfrwt>
<pdfrwt beam="2">  1       -2 0.33831501E-01 0.75718755E+03</pdfrwt>
<totfact> 0.51839728E+01</totfact>
</mgrwt>
</event>
<event>
 4    2  0.6387803E-007  0.8933029E+03  0.7818608E-02  0.9536869E-01
          2   -1    0    0  501    0  0.00000000000E+00  0.00000000000E+00  0.11844448824E+04  0.11844448824E+04  0.25500000000E-02 0. -1.
         -2   -1    0    0    0  501 -0.00000000000E+00 -0.00000000000E+00 -0.77562716011E+03  0.77562716011E+03  0.25500000000E-02 0.  1.
    8880023    1    1    2    0    0  0.21543029854E+03  0.56371062257E+03 -0.36665555493E+03  0.96562227695E+03  0.65864270000E+03 0.  1.
    8880022    1    1    2    0    0 -0.21543029854E+03 -0.56371062257E+03  0.77547327724E+03  0.99444976558E+03  0.15294330000E+03 0.  0.
<mgrwt>
<rscale>  0 0.81619334E+03</rscale>
<asrwt>0</asrwt>
<pdfrwt beam="1">  1        2 0.18222229E+00 0.89330291E+03</pdfrwt>
<pdfrwt beam="2">  1       -2 0.11932726E+00 0.89330291E+03</pdfrwt>
<totfact> 0.10452965E+01</totfact>
</mgrwt>
</event>
<event>
 4    2  0.6387803E-007  0.7729113E+03  0.7818608E-02  0.9772760E-01
          2   -1    0    0  501    0  0.00000000000E+00  0.00000000000E+00  0.24364265745E+04  0.24364265745E+04  0.25500000000E-02 0. -1.
         -2   -1    0    0    0  501 -0.00000000000E+00 -0.00000000000E+00 -0.34110406511E+03  0.34110406512E+03  0.25500000000E-02 0.  1.
    8880023    1    1    2    0    0  0.35434459374E+03  0.19499142024E+03  0.15332041614E+03  0.78797151049E+03  0.65864270000E+03 0.  1.
    8880022    1    1    2    0    0 -0.35434459374E+03 -0.19499142024E+03  0.19420020932E+04  0.19895591291E+04  0.15294330000E+03 0.  0.
<mgrwt>
<rscale>  0 0.66845125E+03</rscale>
<asrwt>0</asrwt>
<pdfrwt beam="1">  1        2 0.37483488E+00 0.77291135E+03</pdfrwt>
<pdfrwt beam="2">  1       -2 0.52477546E-01 0.77291135E+03</pdfrwt>
<totfact> 0.13528252E+01</totfact>
</mgrwt>
</event>
<event>
 4    2  0.6387803E-007  0.7448160E+03  0.7818608E-02  0.9846134E-01
          2   -1    0    0  501    0  0.00000000000E+00  0.00000000000E+00  0.39598712097E+04  0.39598712097E+04  0.25500000000E-02 0. -1.
         -2   -1    0    0    0  501 -0.00000000000E+00 -0.00000000000E+00 -0.18758215723E+03  0.18758215724E+03  0.25500000000E-02 0.  1.
    8880023    1    1    2    0    0  0.15967723028E+03 -0.30893998947E+03  0.61085181118E+03  0.96327092578E+03  0.65864270000E+03 0.  1.
    8880022    1    1    2    0    0 -0.15967723028E+03  0.30893998947E+03  0.31614372413E+04  0.31841824412E+04  0.15294330000E+03 0.  0.
<mgrwt>
<rscale>  0 0.62944421E+03</rscale>
<asrwt>0</asrwt>
<pdfrwt beam="1">  1        2 0.60921102E+00 0.74481605E+03</pdfrwt>
<pdfrwt beam="2">  1       -2 0.28858791E-01 0.74481605E+03</pdfrwt>
<totfact> 0.44844639E+00</totfact>
</mgrwt>
</event>
<event>
 4    2  0.6387803E-007  0.6939020E+03  0.7818608E-02  0.1002350E+00
         -2   -1    0    0    0  501 -0.00000000000E+00  0.00000000000E+00  0.93669958056E+03  0.93669958056E+03  0.25500000000E-02 0.  1.
          2   -1    0    0  501    0  0.00000000000E+00 -0.00000000000E+00 -0.14960532871E+04  0.14960532871E+04  0.25500000000E-02 0. -1.
    8880023    1    1    2    0    0 -0.21821914701E+03 -0.83814770097E+01  0.79336798630E+03  0.10540079759E+04  0.65864270000E+03 0.  1.
    8880022    1    1    2    0    0  0.21821914701E+03  0.83814770097E+01 -0.13527216929E+04  0.13787448918E+04  0.15294330000E+03 0.  0.
<mgrwt>
<rscale>  0 0.54631509E+03</rscale>
<asrwt>0</asrwt>
<pdfrwt beam="1">  1        2 0.23016204E+00 0.69390205E+03</pdfrwt>
<pdfrwt beam="2">  1       -2 0.14410763E+00 0.69390205E+03</pdfrwt>
<totfact> 0.43995705E+00</totfact>
</mgrwt>
</event>
<event>
 4    2  0.6387803E-007  0.6654489E+03  0.7818608E-02  0.1019160E+00
          2   -1    0    0  501    0  0.00000000000E+00  0.00000000000E+00  0.19574766918E+03  0.19574766920E+03  0.25500000000E-02 0. -1.
         -2   -1    0    0    0  501 -0.00000000000E+00 -0.00000000000E+00 -0.92058755537E+03  0.92058755537E+03  0.25500000000E-02 0.  1.
    8880023    1    1    2    0    0 -0.80257344370E+02 -0.50703030254E+02 -0.61059118922E+03  0.90313002675E+03  0.65864270000E+03 0.  0.
    8880022    1    1    2    0    0  0.80257344370E+02  0.50703030254E+02 -0.11424869697E+03  0.21320519782E+03  0.15294330000E+03 0.  1.
<mgrwt>
<rscale>  0 0.47991061E+03</rscale>
<asrwt>0</asrwt>
<pdfrwt beam="1">  1        2 0.30115027E-01 0.66544890E+03</pdfrwt>
<pdfrwt beam="2">  1       -2 0.14162885E+00 0.66544890E+03</pdfrwt>
<totfact> 0.62662053E+01</totfact>
</mgrwt>
</event>
<event>
 4    2  0.6387803E-007  0.8804240E+03  0.7818608E-02  0.9558218E-01
         -2   -1    0    0    0  501 -0.00000000000E+00  0.00000000000E+00  0.31937875033E+03  0.31937875034E+03  0.25500000000E-02 0.  1.
          2   -1    0    0  501    0  0.00000000000E+00 -0.00000000000E+00 -0.17252012569E+04  0.17252012569E+04  0.25500000000E-02 0. -1.
    8880023    1    1    2    0    0 -0.30825862211E+03 -0.49629908683E+03 -0.85135335051E+03  0.12247240078E+04  0.65864270000E+03 0.  0.
    8880022    1    1    2    0    0  0.30825862211E+03  0.49629908683E+03 -0.55446915602E+03  0.81985599936E+03  0.15294330000E+03 0.  1.
<mgrwt>
<rscale>  0 0.80124439E+03</rscale>
<asrwt>0</asrwt>
<pdfrwt beam="1">  1        2 0.26541557E+00 0.88042397E+03</pdfrwt>
<pdfrwt beam="2">  1       -2 0.49135193E-01 0.88042397E+03</pdfrwt>
<totfact> 0.37682391E+01</totfact>
</mgrwt>
</event>
<event>
 4    2  0.6387803E-007  0.7337588E+03  0.7818608E-02  0.9878515E-01
          2   -1    0    0  501    0  0.00000000000E+00  0.00000000000E+00  0.28969626727E+03  0.28969626728E+03  0.25500000000E-02 0. -1.
         -2   -1    0    0    0  501 -0.00000000000E+00 -0.00000000000E+00 -0.17297624761E+04  0.17297624761E+04  0.25500000000E-02 0.  1.
    8880023    1    1    2    0    0  0.34717503054E+02  0.32153760095E+03 -0.14874501455E+04  0.16585867102E+04  0.65864270000E+03 0.  1.
    8880022    1    1    2    0    0 -0.34717503054E+02 -0.32153760095E+03  0.47383936638E+02  0.36087203315E+03  0.15294330000E+03 0.  0.
<mgrwt>
<rscale>  0 0.61313934E+03</rscale>
<asrwt>0</asrwt>
<pdfrwt beam="1">  1        2 0.44568657E-01 0.73375878E+03</pdfrwt>
<pdfrwt beam="2">  1       -2 0.26611730E+00 0.73375878E+03</pdfrwt>
<totfact> 0.60359537E+00</totfact>
</mgrwt>
</event>
<event>
 4    2  0.6387803E-007  0.7263716E+03  0.7818608E-02  0.9901588E-01
          2   -1    0    0  501    0  0.00000000000E+00  0.00000000000E+00  0.11388143097E+04  0.11388143097E+04  0.25500000000E-02 0. -1.
         -2   -1    0    0    0  501 -0.00000000000E+00 -0.00000000000E+00 -0.24507826102E+04  0.24507826102E+04  0.25500000000E-02 0.  1.
    8880023    1    1    2    0    0  0.22157197985E+03  0.21145065120E+03 -0.23693424201E+04  0.24781846642E+04  0.65864270000E+03 0.  1.
    8880022    1    1    2    0    0 -0.22157197985E+03 -0.21145065120E+03  0.10573741196E+04  0.11114122556E+04  0.15294330000E+03 0.  0.
<mgrwt>
<rscale>  0 0.60184380E+03</rscale>
<asrwt>0</asrwt>
<pdfrwt beam="1">  1        2 0.17520220E+00 0.72637162E+03</pdfrwt>
<pdfrwt beam="2">  1       -2 0.37704348E+00 0.72637162E+03</pdfrwt>
<totfact> 0.23147099E-01</totfact>
</mgrwt>
</event>
<event>
 4    2  0.6387803E-007  0.7246997E+03  0.7818608E-02  0.9906993E-01
         -2   -1    0    0    0  501 -0.00000000000E+00  0.00000000000E+00  0.43278999743E+03  0.43278999744E+03  0.25500000000E-02 0.  1.
          2   -1    0    0  501    0  0.00000000000E+00 -0.00000000000E+00 -0.90946609632E+03  0.90946609632E+03  0.25500000000E-02 0. -1.
    8880023    1    1    2    0    0 -0.27181461790E+03 -0.13227324097E+03  0.38442782394E+02  0.72571857532E+03  0.65864270000E+03 0.  1.
    8880022    1    1    2    0    0  0.27181461790E+03  0.13227324097E+03 -0.51511888128E+03  0.61653751844E+03  0.15294330000E+03 0. -1.
<mgrwt>
<rscale>  0 0.59923558E+03</rscale>
<asrwt>0</asrwt>
<pdfrwt beam="1">  1        2 0.13991786E+00 0.72469966E+03</pdfrwt>
<pdfrwt beam="2">  1       -2 0.66583077E-01 0.72469966E+03</pdfrwt>
<totfact> 0.60864184E+01</totfact>
</mgrwt>
</event>
<event>
 4    2  0.6387803E-007  0.1018450E+04  0.7818608E-02  0.9357808E-01
          2   -1    0    0  501    0  0.00000000000E+00  0.00000000000E+00  0.11173671846E+04  0.11173671847E+04  0.25500000000E-02 0. -1.
         -2   -1    0    0    0  501 -0.00000000000E+00 -0.00000000000E+00 -0.73313853977E+03  0.73313853978E+03  0.25500000000E-02 0.  1.
    8880023    1    1    2    0    0 -0.38632201012E+03  0.67393305112E+03  0.21388876662E+03  0.10406676048E+04  0.65864270000E+03 0. -1.
    8880022    1    1    2    0    0  0.38632201012E+03 -0.67393305112E+03  0.17033987825E+03  0.80983811964E+03  0.15294330000E+03 0.  1.
<mgrwt>
<rscale>  0 0.95630816E+03</rscale>
<asrwt>0</asrwt>
<pdfrwt beam="1">  1        2 0.17190264E+00 0.10184501E+04</pdfrwt>
<pdfrwt beam="2">  1       -2 0.11279054E+00 0.10184501E+04</pdfrwt>
<totfact> 0.13029020E+01</totfact>
</mgrwt>
</event>
<event>
 4    2  0.6387803E-007  0.7356211E+03  0.7818608E-02  0.9872891E-01
         -2   -1    0    0    0  501 -0.00000000000E+00  0.00000000000E+00  0.78024811601E+03  0.78024811601E+03  0.25500000000E-02 0.  1.
          2   -1    0    0  501    0  0.00000000000E+00 -0.00000000000E+00 -0.87124105601E+03  0.87124105601E+03  0.25500000000E-02 0. -1.
    8880023    1    1    2    0    0  0.21491616397E+03 -0.24726338686E+03  0.54799977902E+03  0.91730153389E+03  0.65864270000E+03 0.  1.
    8880022    1    1    2    0    0 -0.21491616397E+03  0.24726338686E+03 -0.63899271902E+03  0.73418763813E+03  0.15294330000E+03 0.  0.
<mgrwt>
<rscale>  0 0.61593273E+03</rscale>
<asrwt>0</asrwt>
<pdfrwt beam="1">  1        2 0.13403709E+00 0.73562106E+03</pdfrwt>
<pdfrwt beam="2">  1       -2 0.12003817E+00 0.73562106E+03</pdfrwt>
<totfact> 0.16553624E+01</totfact>
</mgrwt>
</event>
<event>
 4    2  0.6387803E-007  0.7453542E+03  0.7818608E-02  0.9844616E-01
          2   -1    0    0  501    0  0.00000000000E+00  0.00000000000E+00  0.16787319923E+04  0.16787319923E+04  0.25500000000E-02 0. -1.
         -2   -1    0    0    0  501 -0.00000000000E+00 -0.00000000000E+00 -0.24645265110E+03  0.24645265111E+03  0.25500000000E-02 0.  1.
    8880023    1    1    2    0    0  0.34858480218E+03  0.15209255551E+02  0.44771096922E+03  0.86948145695E+03  0.65864270000E+03 0.  1.
    8880022    1    1    2    0    0 -0.34858480218E+03 -0.15209255551E+02  0.98456837200E+03  0.10557031865E+04  0.15294330000E+03 0.  0.
<mgrwt>
<rscale>  0 0.63022163E+03</rscale>
<asrwt>0</asrwt>
<pdfrwt beam="1">  1        2 0.25826646E+00 0.74535421E+03</pdfrwt>
<pdfrwt beam="2">  1       -2 0.37915792E-01 0.74535421E+03</pdfrwt>
<totfact> 0.67708770E+01</totfact>
</mgrwt>
</event>
<event>
 4    2  0.6387803E-007  0.6771889E+03  0.7818608E-02  0.1010961E+00
          2   -1    0    0  501    0  0.00000000000E+00  0.00000000000E+00  0.56620049164E+03  0.56620049165E+03  0.25500000000E-02 0. -1.
         -2   -1    0    0    0  501 -0.00000000000E+00 -0.00000000000E+00 -0.57826741077E+03  0.57826741077E+03  0.25500000000E-02 0.  1.
    8880023    1    1    2    0    0  0.92615737075E+02  0.12726729668E+03 -0.33381611242E+03  0.75499539253E+03  0.65864270000E+03 0.  1.
    8880022    1    1    2    0    0 -0.92615737075E+02 -0.12726729668E+03  0.32174919330E+03  0.38947250989E+03  0.15294330000E+03 0.  0.
<mgrwt>
<rscale>  0 0.51094634E+03</rscale>
<asrwt>0</asrwt>
<pdfrwt beam="1">  1        2 0.87107768E-01 0.67718893E+03</pdfrwt>
<pdfrwt beam="2">  1       -2 0.88964217E-01 0.67718893E+03</pdfrwt>
<totfact> 0.58709595E+01</totfact>
</mgrwt>
</event>
<event>
 4    2  0.6387803E-007  0.7611144E+03  0.7818608E-02  0.9802231E-01
         -2   -1    0    0    0  501 -0.00000000000E+00  0.00000000000E+00  0.86196534625E+03  0.86196534625E+03  0.25500000000E-02 0.  1.
          2   -1    0    0  501    0  0.00000000000E+00 -0.00000000000E+00 -0.68365068043E+03  0.68365068044E+03  0.25500000000E-02 0. -1.
    8880023    1    1    2    0    0 -0.20334116431E+03 -0.32270306977E+03  0.59069201234E+03  0.96343767834E+03  0.65864270000E+03 0.  0.
    8880022    1    1    2    0    0  0.20334116431E+03  0.32270306977E+03 -0.41237734652E+03  0.58217834835E+03  0.15294330000E+03 0.  0.
<mgrwt>
<rscale>  0 0.65242954E+03</rscale>
<asrwt>0</asrwt>
<pdfrwt beam="1">  1        2 0.10517703E+00 0.76111438E+03</pdfrwt>
<pdfrwt beam="2">  1       -2 0.13261005E+00 0.76111438E+03</pdfrwt>
<totfact> 0.17658293E+01</totfact>
</mgrwt>
</event>
<event>
 4    2  0.6387803E-007  0.7142517E+03  0.7818608E-02  0.9942539E-01
          2   -1    0    0  501    0  0.00000000000E+00  0.00000000000E+00  0.45247526253E+03  0.45247526253E+03  0.25500000000E-02 0. -1.
         -2   -1    0    0    0  501 -0.00000000000E+00 -0.00000000000E+00 -0.60709579999E+03  0.60709579999E+03  0.25500000000E-02 0.  1.
    8880023    1    1    2    0    0  0.15594748316E+03  0.22809129072E+03 -0.15356027099E+02  0.71441673289E+03  0.65864270000E+03 0.  0.
    8880022    1    1    2    0    0 -0.15594748316E+03 -0.22809129072E+03 -0.13926451036E+03  0.34515432963E+03  0.15294330000E+03 0.  0.
<mgrwt>
<rscale>  0 0.58243228E+03</rscale>
<asrwt>0</asrwt>
<pdfrwt beam="1">  1        2 0.69611579E-01 0.71425168E+03</pdfrwt>
<pdfrwt beam="2">  1       -2 0.93399354E-01 0.71425168E+03</pdfrwt>
<totfact> 0.67915518E+01</totfact>
</mgrwt>
</event>
<event>
 4    2  0.6387803E-007  0.8689816E+03  0.7818608E-02  0.9577782E-01
          2   -1    0    0  501    0  0.00000000000E+00  0.00000000000E+00  0.12743937133E+04  0.12743937133E+04  0.25500000000E-02 0. -1.
         -2   -1    0    0    0  501 -0.00000000000E+00 -0.00000000000E+00 -0.48457236934E+03  0.48457236935E+03  0.25500000000E-02 0.  1.
    8880023    1    1    2    0    0  0.19395105309E+03 -0.53263657570E+03  0.13487927394E+03  0.87938692142E+03  0.65864270000E+03 0.  0.
    8880022    1    1    2    0    0 -0.19395105309E+03  0.53263657570E+03  0.65494207002E+03  0.87957916123E+03  0.15294330000E+03 0.  0.
<mgrwt>
<rscale>  0 0.78784306E+03</rscale>
<asrwt>0</asrwt>
<pdfrwt beam="1">  1        2 0.19606057E+00 0.86898155E+03</pdfrwt>
<pdfrwt beam="2">  1       -2 0.74549594E-01 0.86898155E+03</pdfrwt>
<totfact> 0.27906744E+01</totfact>
</mgrwt>
</event>
<event>
 4    2  0.6387803E-007  0.6727343E+03  0.7818608E-02  0.1013774E+00
         -2   -1    0    0    0  501 -0.00000000000E+00  0.00000000000E+00  0.40824096066E+03  0.40824096067E+03  0.25500000000E-02 0.  1.
          2   -1    0    0  501    0  0.00000000000E+00 -0.00000000000E+00 -0.71230705583E+03  0.71230705583E+03  0.25500000000E-02 0. -1.
    8880023    1    1    2    0    0  0.12763598165E+03  0.49702659363E+02  0.87519094516E+02  0.67840334339E+03  0.65864270000E+03 0.  1.
    8880022    1    1    2    0    0 -0.12763598165E+03 -0.49702659363E+02 -0.39158518969E+03  0.44214467310E+03  0.15294330000E+03 0. -1.
<mgrwt>
<rscale>  0 0.50001865E+03</rscale>
<asrwt>0</asrwt>
<pdfrwt beam="1">  1        2 0.10958570E+00 0.67273435E+03</pdfrwt>
<pdfrwt beam="2">  1       -2 0.62806302E-01 0.67273435E+03</pdfrwt>
<totfact> 0.95797265E+01</totfact>
</mgrwt>
</event>
<event>
 4    2  0.6387803E-007  0.8396922E+03  0.7818608E-02  0.9630761E-01
          2   -1    0    0  501    0  0.00000000000E+00  0.00000000000E+00  0.99631654656E+03  0.99631654656E+03  0.25500000000E-02 0. -1.
         -2   -1    0    0    0  501 -0.00000000000E+00 -0.00000000000E+00 -0.13760458533E+04  0.13760458533E+04  0.25500000000E-02 0.  1.
    8880023    1    1    2    0    0 -0.17103796760E+03 -0.49195406049E+03 -0.11537527461E+04  0.14269647471E+04  0.65864270000E+03 0.  0.
    8880022    1    1    2    0    0  0.17103796760E+03  0.49195406049E+03  0.77402343943E+03  0.94539765273E+03  0.15294330000E+03 0.  0.
<mgrwt>
<rscale>  0 0.75293252E+03</rscale>
<asrwt>0</asrwt>
<pdfrwt beam="1">  1        2 0.15327947E+00 0.83969220E+03</pdfrwt>
<pdfrwt beam="2">  1       -2 0.21169936E+00 0.83969220E+03</pdfrwt>
<totfact> 0.28644829E+00</totfact>
</mgrwt>
</event>
<event>
 4    2  0.6387803E-007  0.8604702E+03  0.7818608E-02  0.9592728E-01
          2   -1    0    0  501    0  0.00000000000E+00  0.00000000000E+00  0.19185325195E+04  0.19185325195E+04  0.25500000000E-02 0. -1.
         -2   -1    0    0    0  501 -0.00000000000E+00 -0.00000000000E+00 -0.59851823767E+03  0.59851823768E+03  0.25500000000E-02 0.  1.
    8880023    1    1    2    0    0 -0.53744178779E+03 -0.13324791622E+03 -0.20746247803E+03  0.88512686576E+03  0.65864270000E+03 0.  1.
    8880022    1    1    2    0    0  0.53744178779E+03  0.13324791622E+03  0.15274767599E+04  0.16319238914E+04  0.15294330000E+03 0.  0.
<mgrwt>
<rscale>  0 0.77779386E+03</rscale>
<asrwt>0</asrwt>
<pdfrwt beam="1">  1        2 0.29515885E+00 0.86047016E+03</pdfrwt>
<pdfrwt beam="2">  1       -2 0.92079728E-01 0.86047016E+03</pdfrwt>
<totfact> 0.75627217E+00</totfact>
</mgrwt>
</event>
<event>
 4    2  0.6387803E-007  0.9814795E+03  0.7818608E-02  0.9406200E-01
          2   -1    0    0  501    0  0.00000000000E+00  0.00000000000E+00  0.12209437950E+04  0.12209437950E+04  0.25500000000E-02 0. -1.
         -2   -1    0    0    0  501 -0.00000000000E+00 -0.00000000000E+00 -0.93398943568E+03  0.93398943568E+03  0.25500000000E-02 0.  1.
    8880023    1    1    2    0    0  0.71537934079E+03  0.13313196488E+03 -0.47492548390E+03  0.10903467993E+04  0.65864270000E+03 0.  0.
    8880022    1    1    2    0    0 -0.71537934079E+03 -0.13313196488E+03  0.76187984321E+03  0.10645864313E+04  0.15294330000E+03 0.  0.
<mgrwt>
<rscale>  0 0.91567235E+03</rscale>
<asrwt>0</asrwt>
<pdfrwt beam="1">  1        2 0.18783751E+00 0.98147946E+03</pdfrwt>
<pdfrwt beam="2">  1       -2 0.14369068E+00 0.98147946E+03</pdfrwt>
<totfact> 0.61354729E+00</totfact>
</mgrwt>
</event>
<event>
 4    2  0.6387803E-007  0.1443859E+04  0.7818608E-02  0.8950332E-01
         -2   -1    0    0    0  501 -0.00000000000E+00  0.00000000000E+00  0.71546506888E+03  0.71546506888E+03  0.25500000000E-02 0.  1.
          2   -1    0    0  501    0  0.00000000000E+00 -0.00000000000E+00 -0.30235004172E+04  0.30235004172E+04  0.25500000000E-02 0. -1.
    8880023    1    1    2    0    0 -0.10939300277E+04 -0.67396917824E+03 -0.18915464817E+04  0.23796377156E+04  0.65864270000E+03 0.  0.
    8880022    1    1    2    0    0  0.10939300277E+04  0.67396917824E+03 -0.41648886670E+03  0.13593277706E+04  0.15294330000E+03 0.  0.
<mgrwt>
<rscale>  0 0.14048273E+04</rscale>
<asrwt>0</asrwt>
<pdfrwt beam="1">  1        2 0.46515390E+00 0.14438586E+04</pdfrwt>
<pdfrwt beam="2">  1       -2 0.11007155E+00 0.14438586E+04</pdfrwt>
<totfact> 0.10604865E+00</totfact>
</mgrwt>
</event>
<event>
 4    2  0.6387803E-007  0.8782848E+03  0.7818608E-02  0.9561831E-01
         -2   -1    0    0    0  501 -0.00000000000E+00  0.00000000000E+00  0.70652545744E+03  0.70652545745E+03  0.25500000000E-02 0.  1.
          2   -1    0    0  501    0  0.00000000000E+00 -0.00000000000E+00 -0.11832517152E+04  0.11832517152E+04  0.25500000000E-02 0. -1.
    8880023    1    1    2    0    0 -0.54852691549E+03 -0.19155201693E+03  0.28157157989E+03  0.92231595078E+03  0.65864270000E+03 0.  1.
    8880022    1    1    2    0    0  0.54852691549E+03  0.19155201693E+03 -0.75829783764E+03  0.96746122185E+03  0.15294330000E+03 0.  0.
<mgrwt>
<rscale>  0 0.79874793E+03</rscale>
<asrwt>0</asrwt>
<pdfrwt beam="1">  1        2 0.18203873E+00 0.87828478E+03</pdfrwt>
<pdfrwt beam="2">  1       -2 0.10869622E+00 0.87828478E+03</pdfrwt>
<totfact> 0.13174074E+01</totfact>
</mgrwt>
</event>
<event>
 4    2  0.6387803E-007  0.9318581E+03  0.7818608E-02  0.9476711E-01
          2   -1    0    0  501    0  0.00000000000E+00  0.00000000000E+00  0.15664643381E+04  0.15664643381E+04  0.25500000000E-02 0. -1.
         -2   -1    0    0    0  501 -0.00000000000E+00 -0.00000000000E+00 -0.53104891107E+03  0.53104891107E+03  0.25500000000E-02 0.  1.
    8880023    1    1    2    0    0 -0.63871011705E+02 -0.65610201823E+03  0.91857253590E+02  0.93637456489E+03  0.65864270000E+03 0.  0.
    8880022    1    1    2    0    0  0.63871011705E+02  0.65610201823E+03  0.94355817345E+03  0.11611386843E+04  0.15294330000E+03 0.  1.
<mgrwt>
<rscale>  0 0.86022793E+03</rscale>
<asrwt>0</asrwt>
<pdfrwt beam="1">  1        2 0.24099451E+00 0.93185813E+03</pdfrwt>
<pdfrwt beam="2">  1       -2 0.81699833E-01 0.93185813E+03</pdfrwt>
<totfact> 0.15416607E+01</totfact>
</mgrwt>
</event>
<event>
 4    2  0.6387803E-007  0.1378653E+04  0.7818608E-02  0.9000450E-01
          2   -1    0    0  501    0  0.00000000000E+00  0.00000000000E+00  0.16859729592E+04  0.16859729592E+04  0.25500000000E-02 0. -1.
         -2   -1    0    0    0  501 -0.00000000000E+00 -0.00000000000E+00 -0.10228987790E+04  0.10228987790E+04  0.25500000000E-02 0.  1.
    8880023    1    1    2    0    0  0.45559785122E+03  0.11221870266E+04  0.54479309255E+03  0.14823909217E+04  0.65864270000E+03 0.  1.
    8880022    1    1    2    0    0 -0.45559785122E+03 -0.11221870266E+04  0.11828108771E+03  0.12264808166E+04  0.15294330000E+03 0.  0.
<mgrwt>
<rscale>  0 0.13373623E+04</rscale>
<asrwt>0</asrwt>
<pdfrwt beam="1">  1        2 0.25938045E+00 0.13786527E+04</pdfrwt>
<pdfrwt beam="2">  1       -2 0.15736904E+00 0.13786527E+04</pdfrwt>
<totfact> 0.25125785E+00</totfact>
</mgrwt>
</event>
<event>
 4    2  0.6387803E-007  0.1166983E+04  0.7818608E-02  0.9189905E-01
         -2   -1    0    0    0  501 -0.00000000000E+00  0.00000000000E+00  0.20934943471E+04  0.20934943471E+04  0.25500000000E-02 0.  1.
          2   -1    0    0  501    0  0.00000000000E+00 -0.00000000000E+00 -0.88902852887E+03  0.88902852887E+03  0.25500000000E-02 0. -1.
    8880023    1    1    2    0    0 -0.86881908918E+03  0.41616486471E+03  0.15566206031E+04  0.19454864977E+04  0.65864270000E+03 0.  1.
    8880022    1    1    2    0    0  0.86881908918E+03 -0.41616486471E+03 -0.35215478490E+03  0.10370363783E+04  0.15294330000E+03 0.  0.
<mgrwt>
<rscale>  0 0.11158239E+04</rscale>
<asrwt>0</asrwt>
<pdfrwt beam="1">  1        2 0.13677362E+00 0.11669833E+04</pdfrwt>
<pdfrwt beam="2">  1       -2 0.32207605E+00 0.11669833E+04</pdfrwt>
<totfact> 0.68332165E-01</totfact>
</mgrwt>
</event>
<event>
 4    2  0.6387803E-007  0.6639925E+03  0.7818608E-02  0.1020394E+00
          2   -1    0    0  501    0  0.00000000000E+00  0.00000000000E+00  0.18476664369E+04  0.18476664369E+04  0.25500000000E-02 0. -1.
         -2   -1    0    0    0  501 -0.00000000000E+00 -0.00000000000E+00 -0.13432076781E+03  0.13432076783E+03  0.25500000000E-02 0.  1.
    8880023    1    1    2    0    0 -0.83838775675E+02  0.68481965780E+01  0.74465443469E+03  0.99769548033E+03  0.65864270000E+03 0.  0.
    8880022    1    1    2    0    0  0.83838775675E+02 -0.68481965780E+01  0.96869123438E+03  0.98429172438E+03  0.15294330000E+03 0. -1.
<mgrwt>
<rscale>  0 0.47544684E+03</rscale>
<asrwt>0</asrwt>
<pdfrwt beam="1">  1        2 0.28425637E+00 0.66399250E+03</pdfrwt>
<pdfrwt beam="2">  1       -2 0.20664734E-01 0.66399250E+03</pdfrwt>
<totfact> 0.16840903E+02</totfact>
</mgrwt>
</event>
<event>
 4    2  0.6387803E-007  0.7745480E+03  0.7818608E-02  0.9768803E-01
          2   -1    0    0  501    0  0.00000000000E+00  0.00000000000E+00  0.68522477650E+03  0.68522477650E+03  0.25500000000E-02 0. -1.
         -2   -1    0    0    0  501 -0.00000000000E+00 -0.00000000000E+00 -0.10243737296E+04  0.10243737296E+04  0.25500000000E-02 0.  1.
    8880023    1    1    2    0    0 -0.40292052470E+03  0.61395790177E+02 -0.77350727250E+03  0.10946406256E+04  0.65864270000E+03 0.  1.
    8880022    1    1    2    0    0  0.40292052470E+03 -0.61395790177E+02  0.43435831935E+03  0.61495788058E+03  0.15294330000E+03 0.  0.
<mgrwt>
<rscale>  0 0.67063951E+03</rscale>
<asrwt>0</asrwt>
<pdfrwt beam="1">  1        2 0.10541920E+00 0.77454800E+03</pdfrwt>
<pdfrwt beam="2">  1       -2 0.15759596E+00 0.77454800E+03</pdfrwt>
<totfact> 0.11193115E+01</totfact>
</mgrwt>
</event>
<event>
 4    2  0.6387803E-007  0.7118856E+03  0.7818608E-02  0.9951065E-01
          2   -1    0    0  501    0  0.00000000000E+00  0.00000000000E+00  0.60877951394E+03  0.60877951395E+03  0.25500000000E-02 0. -1.
         -2   -1    0    0    0  501 -0.00000000000E+00 -0.00000000000E+00 -0.87769876988E+03  0.87769876988E+03  0.25500000000E-02 0.  1.
    8880023    1    1    2    0    0 -0.26640926523E+03  0.44687496067E+02 -0.67115923292E+03  0.97838427579E+03  0.65864270000E+03 0.  0.
    8880022    1    1    2    0    0  0.26640926523E+03 -0.44687496067E+02  0.40223997699E+03  0.50809400804E+03  0.15294330000E+03 0.  0.
<mgrwt>
<rscale>  0 0.57849041E+03</rscale>
<asrwt>0</asrwt>
<pdfrwt beam="1">  1        2 0.93658387E-01 0.71188558E+03</pdfrwt>
<pdfrwt beam="2">  1       -2 0.13503058E+00 0.71188558E+03</pdfrwt>
<totfact> 0.19543648E+01</totfact>
</mgrwt>
</event>
<event>
 4    2  0.6387803E-007  0.9941380E+03  0.7818608E-02  0.9389267E-01
         -2   -1    0    0    0  501 -0.00000000000E+00  0.00000000000E+00  0.13327753060E+04  0.13327753060E+04  0.25500000000E-02 0.  1.
          2   -1    0    0  501    0  0.00000000000E+00 -0.00000000000E+00 -0.81776781102E+03  0.81776781103E+03  0.25500000000E-02 0. -1.
    8880023    1    1    2    0    0  0.67128814643E+03 -0.32229225089E+03  0.86115210805E+03  0.13152540553E+04  0.65864270000E+03 0.  1.
    8880022    1    1    2    0    0 -0.67128814643E+03  0.32229225089E+03 -0.34614461305E+03  0.83528906175E+03  0.15294330000E+03 0.  0.
<mgrwt>
<rscale>  0 0.92964214E+03</rscale>
<asrwt>0</asrwt>
<pdfrwt beam="1">  1        2 0.12581043E+00 0.99413796E+03</pdfrwt>
<pdfrwt beam="2">  1       -2 0.20504235E+00 0.99413796E+03</pdfrwt>
<totfact> 0.40974284E+00</totfact>
</mgrwt>
</event>
<event>
 4    2  0.6387803E-007  0.6662960E+03  0.7818608E-02  0.1018470E+00
          2   -1    0    0  501    0  0.00000000000E+00  0.00000000000E+00  0.11863394506E+04  0.11863394506E+04  0.25500000000E-02 0. -1.
         -2   -1    0    0    0  501 -0.00000000000E+00 -0.00000000000E+00 -0.74767065546E+03  0.74767065547E+03  0.25500000000E-02 0.  1.
    8880023    1    1    2    0    0  0.33479787618E+02 -0.94969633762E+02 -0.58951296193E+03  0.88964929386E+03  0.65864270000E+03 0.  1.
    8880022    1    1    2    0    0 -0.33479787618E+02  0.94969633762E+02  0.10281817571E+04  0.10443608122E+04  0.15294330000E+03 0.  0.
<mgrwt>
<rscale>  0 0.48242796E+03</rscale>
<asrwt>0</asrwt>
<pdfrwt beam="1">  1        2 0.18251376E+00 0.66629598E+03</pdfrwt>
<pdfrwt beam="2">  1       -2 0.11502626E+00 0.66629598E+03</pdfrwt>
<totfact> 0.11723038E+01</totfact>
</mgrwt>
</event>
<event>
 4    2  0.6387803E-007  0.6868053E+03  0.7818608E-02  0.1005709E+00
         -2   -1    0    0    0  501 -0.00000000000E+00  0.00000000000E+00  0.27658375612E+03  0.27658375614E+03  0.25500000000E-02 0.  1.
          2   -1    0    0  501    0  0.00000000000E+00 -0.00000000000E+00 -0.10866830492E+04  0.10866830492E+04  0.25500000000E-02 0. -1.
    8880023    1    1    2    0    0 -0.18038424201E+03  0.73163229037E+02 -0.21650770037E+03  0.72012299188E+03  0.65864270000E+03 0.  1.
    8880022    1    1    2    0    0  0.18038424201E+03 -0.73163229037E+02 -0.59359159271E+03  0.64314381347E+03  0.15294330000E+03 0.  0.
<mgrwt>
<rscale>  0 0.53216061E+03</rscale>
<asrwt>0</asrwt>
<pdfrwt beam="1">  1        2 0.16718201E+00 0.68680531E+03</pdfrwt>
<pdfrwt beam="2">  1       -2 0.42551348E-01 0.68680531E+03</pdfrwt>
<totfact> 0.11837882E+02</totfact>
</mgrwt>
</event>
<event>
 4    2  0.6387803E-007  0.7064176E+03  0.7818608E-02  0.9971552E-01
         -2   -1    0    0    0  501 -0.00000000000E+00  0.00000000000E+00  0.69492905563E+03  0.69492905563E+03  0.25500000000E-02 0.  1.
          2   -1    0    0  501    0  0.00000000000E+00 -0.00000000000E+00 -0.83772303963E+03  0.83772303963E+03  0.25500000000E-02 0. -1.
    8880023    1    1    2    0    0 -0.20273392866E+03  0.15528885662E+03  0.47199469875E+03  0.84959100556E+03  0.65864270000E+03 0.  1.
    8880022    1    1    2    0    0  0.20273392866E+03 -0.15528885662E+03 -0.61478868275E+03  0.68306108971E+03  0.15294330000E+03 0.  0.
<mgrwt>
<rscale>  0 0.56915408E+03</rscale>
<asrwt>0</asrwt>
<pdfrwt beam="1">  1        2 0.12888047E+00 0.70641764E+03</pdfrwt>
<pdfrwt beam="2">  1       -2 0.10691216E+00 0.70641764E+03</pdfrwt>
<totfact> 0.23222178E+01</totfact>
</mgrwt>
</event>
<event>
 4    2  0.6387803E-007  0.8991204E+03  0.7818608E-02  0.9527445E-01
         -2   -1    0    0    0  501 -0.00000000000E+00  0.00000000000E+00  0.59210485300E+03  0.59210485300E+03  0.25500000000E-02 0.  1.
          2   -1    0    0  501    0  0.00000000000E+00 -0.00000000000E+00 -0.26519459530E+04  0.26519459530E+04  0.25500000000E-02 0. -1.
    8880023    1    1    2    0    0  0.57471202335E+03 -0.21050731236E+03  0.18008528624E+03  0.91697772870E+03  0.65864270000E+03 0.  1.
    8880022    1    1    2    0    0 -0.57471202335E+03  0.21050731236E+03 -0.22399263863E+04  0.23270730773E+04  0.15294330000E+03 0.  0.
<mgrwt>
<rscale>  0 0.82290294E+03</rscale>
<asrwt>0</asrwt>
<pdfrwt beam="1">  1        2 0.40799168E+00 0.89912037E+03</pdfrwt>
<pdfrwt beam="2">  1       -2 0.91093056E-01 0.89912037E+03</pdfrwt>
<totfact> 0.29957330E+00</totfact>
</mgrwt>
</event>
<event>
 4    2  0.6387803E-007  0.1129984E+04  0.7818608E-02  0.9228384E-01
          2   -1    0    0  501    0  0.00000000000E+00  0.00000000000E+00  0.10123694075E+04  0.10123694075E+04  0.25500000000E-02 0. -1.
         -2   -1    0    0    0  501 -0.00000000000E+00 -0.00000000000E+00 -0.14988716911E+04  0.14988716911E+04  0.25500000000E-02 0.  1.
    8880023    1    1    2    0    0  0.51703567415E+03 -0.75876785393E+03 -0.94551784641E+03  0.14733868293E+04  0.65864270000E+03 0.  1.
    8880022    1    1    2    0    0 -0.51703567415E+03  0.75876785393E+03  0.45901556285E+03  0.10378542694E+04  0.15294330000E+03 0.  0.
<mgrwt>
<rscale>  0 0.10765198E+04</rscale>
<asrwt>0</asrwt>
<pdfrwt beam="1">  1        2 0.15574914E+00 0.11299844E+04</pdfrwt>
<pdfrwt beam="2">  1       -2 0.23059565E+00 0.11299844E+04</pdfrwt>
<totfact> 0.20548858E+00</totfact>
</mgrwt>
</event>
<event>
 4    2  0.6387803E-007  0.7331714E+03  0.7818608E-02  0.9880304E-01
          2   -1    0    0  501    0  0.00000000000E+00  0.00000000000E+00  0.88224389892E+03  0.88224389892E+03  0.25500000000E-02 0. -1.
         -2   -1    0    0    0  501 -0.00000000000E+00 -0.00000000000E+00 -0.10710730698E+04  0.10710730698E+04  0.25500000000E-02 0.  1.
    8880023    1    1    2    0    0 -0.18818994458E+03  0.26137059744E+03 -0.89816615097E+03  0.11594148030E+04  0.65864270000E+03 0.  1.
    8880022    1    1    2    0    0  0.18818994458E+03 -0.26137059744E+03  0.70933698006E+03  0.79390216573E+03  0.15294330000E+03 0.  0.
<mgrwt>
<rscale>  0 0.61225393E+03</rscale>
<asrwt>0</asrwt>
<pdfrwt beam="1">  1        2 0.13572983E+00 0.73317137E+03</pdfrwt>
<pdfrwt beam="2">  1       -2 0.16478047E+00 0.73317137E+03</pdfrwt>
<totfact> 0.71490519E+00</totfact>
</mgrwt>
</event>
<event>
 4    2  0.6387803E-007  0.1095525E+04  0.7818608E-02  0.9266055E-01
         -2   -1    0    0    0  501 -0.00000000000E+00  0.00000000000E+00  0.97306123401E+03  0.97306123402E+03  0.25500000000E-02 0.  1.
          2   -1    0    0  501    0  0.00000000000E+00 -0.00000000000E+00 -0.30532789165E+04  0.30532789165E+04  0.25500000000E-02 0. -1.
    8880023    1    1    2    0    0 -0.61953191236E+02 -0.87322769253E+03  0.56726928338E+03  0.12336812583E+04  0.65864270000E+03 0.  0.
    8880022    1    1    2    0    0  0.61953191236E+02  0.87322769253E+03 -0.26474869659E+04  0.27926588922E+04  0.15294330000E+03 0.  0.
<mgrwt>
<rscale>  0 0.10396888E+04</rscale>
<asrwt>0</asrwt>
<pdfrwt beam="1">  1        2 0.46973521E+00 0.10955250E+04</pdfrwt>
<pdfrwt beam="2">  1       -2 0.14970173E+00 0.10955250E+04</pdfrwt>
<totfact> 0.48625631E-01</totfact>
</mgrwt>
</event>
<event>
 4    2  0.6387803E-007  0.7059400E+03  0.7818608E-02  0.9973398E-01
          2   -1    0    0  501    0  0.00000000000E+00  0.00000000000E+00  0.52329537682E+03  0.52329537683E+03  0.25500000000E-02 0. -1.
         -2   -1    0    0    0  501 -0.00000000000E+00 -0.00000000000E+00 -0.56421289865E+03  0.56421289866E+03  0.25500000000E-02 0.  1.
    8880023    1    1    2    0    0 -0.15145550016E+03 -0.20396656492E+03 -0.22203813578E+03  0.74003531546E+03  0.65864270000E+03 0.  0.
    8880022    1    1    2    0    0  0.15145550016E+03  0.20396656492E+03  0.18112061395E+03  0.34747296002E+03  0.15294330000E+03 0.  0.
<mgrwt>
<rscale>  0 0.56832232E+03</rscale>
<asrwt>0</asrwt>
<pdfrwt beam="1">  1        2 0.80506981E-01 0.70594004E+03</pdfrwt>
<pdfrwt beam="2">  1       -2 0.86801984E-01 0.70594004E+03</pdfrwt>
<totfact> 0.68021351E+01</totfact>
</mgrwt>
</event>
<event>
 4    2  0.6387803E-007  0.7786568E+03  0.7818608E-02  0.9759002E-01
          2   -1    0    0  501    0  0.00000000000E+00  0.00000000000E+00  0.18315782559E+04  0.18315782560E+04  0.25500000000E-02 0. -1.
         -2   -1    0    0    0  501 -0.00000000000E+00 -0.00000000000E+00 -0.39408651314E+03  0.39408651315E+03  0.25500000000E-02 0.  1.
    8880023    1    1    2    0    0 -0.32867397003E+03  0.25390882813E+03  0.62460096499E+02  0.78115794913E+03  0.65864270000E+03 0.  1.
    8880022    1    1    2    0    0  0.32867397003E+03 -0.25390882813E+03  0.13750316463E+04  0.14445068200E+04  0.15294330000E+03 0.  0.
<mgrwt>
<rscale>  0 0.67609938E+03</rscale>
<asrwt>0</asrwt>
<pdfrwt beam="1">  1        2 0.28178127E+00 0.77865684E+03</pdfrwt>
<pdfrwt beam="2">  1       -2 0.60628695E-01 0.77865684E+03</pdfrwt>
<totfact> 0.21550032E+01</totfact>
</mgrwt>
</event>
<event>
 4    2  0.6387803E-007  0.6918169E+03  0.7818608E-02  0.1003301E+00
         -2   -1    0    0    0  501 -0.00000000000E+00  0.00000000000E+00  0.55490771860E+03  0.55490771861E+03  0.25500000000E-02 0.  1.
          2   -1    0    0  501    0  0.00000000000E+00 -0.00000000000E+00 -0.94984523772E+03  0.94984523772E+03  0.25500000000E-02 0. -1.
    8880023    1    1    2    0    0  0.17277666153E+03  0.12226469538E+03  0.30621025846E+03  0.75655492805E+03  0.65864270000E+03 0.  1.
    8880022    1    1    2    0    0 -0.17277666153E+03 -0.12226469538E+03 -0.70114777758E+03  0.74819802828E+03  0.15294330000E+03 0. -1.
<mgrwt>
<rscale>  0 0.54226319E+03</rscale>
<asrwt>0</asrwt>
<pdfrwt beam="1">  1        2 0.14613004E+00 0.69181691E+03</pdfrwt>
<pdfrwt beam="2">  1       -2 0.85370419E-01 0.69181691E+03</pdfrwt>
<totfact> 0.33085916E+01</totfact>
</mgrwt>
</event>
<event>
 4    2  0.6387803E-007  0.9657865E+03  0.7818608E-02  0.9427756E-01
         -2   -1    0    0    0  501 -0.00000000000E+00  0.00000000000E+00  0.78122265988E+03  0.78122265988E+03  0.25500000000E-02 0.  1.
          2   -1    0    0  501    0  0.00000000000E+00 -0.00000000000E+00 -0.11400806498E+04  0.11400806498E+04  0.25500000000E-02 0. -1.
    8880023    1    1    2    0    0  0.65889330882E+03 -0.25454451132E+03  0.22565458826E+03  0.99179811459E+03  0.65864270000E+03 0.  1.
    8880022    1    1    2    0    0 -0.65889330882E+03  0.25454451132E+03 -0.58451257819E+03  0.92950519510E+03  0.15294330000E+03 0.  0.
<mgrwt>
<rscale>  0 0.89826284E+03</rscale>
<asrwt>0</asrwt>
<pdfrwt beam="1">  1        2 0.17539702E+00 0.96578647E+03</pdfrwt>
<pdfrwt beam="2">  1       -2 0.12018810E+00 0.96578647E+03</pdfrwt>
<totfact> 0.10842341E+01</totfact>
</mgrwt>
</event>
<event>
 4    2  0.6387803E-007  0.1491409E+04  0.7818608E-02  0.8915726E-01
         -2   -1    0    0    0  501 -0.00000000000E+00  0.00000000000E+00  0.22557310744E+04  0.22557310744E+04  0.25500000000E-02 0.  1.
          2   -1    0    0  501    0  0.00000000000E+00 -0.00000000000E+00 -0.17497529701E+04  0.17497529701E+04  0.25500000000E-02 0. -1.
    8880023    1    1    2    0    0 -0.12899448042E+04 -0.35571641607E+03 -0.11410956327E+04  0.18778714588E+04  0.65864270000E+03 0. -1.
    8880022    1    1    2    0    0  0.12899448042E+04  0.35571641607E+03  0.16470737371E+04  0.21276125857E+04  0.15294330000E+03 0.  0.
<mgrwt>
<rscale>  0 0.14538641E+04</rscale>
<asrwt>0</asrwt>
<pdfrwt beam="1">  1        2 0.26919277E+00 0.14914094E+04</pdfrwt>
<pdfrwt beam="2">  1       -2 0.34703555E+00 0.14914094E+04</pdfrwt>
<totfact> 0.14066837E-01</totfact>
</mgrwt>
</event>
<event>
 4    2  0.6387803E-007  0.7917105E+03  0.7818608E-02  0.9729015E-01
          2   -1    0    0  501    0  0.00000000000E+00  0.00000000000E+00  0.25498134873E+04  0.25498134873E+04  0.25500000000E-02 0. -1.
         -2   -1    0    0    0  501 -0.00000000000E+00 -0.00000000000E+00 -0.42038063352E+03  0.42038063353E+03  0.25500000000E-02 0.  1.
    8880023    1    1    2    0    0 -0.31038936660E+03  0.31089182269E+03  0.11941230999E+01  0.79171138460E+03  0.65864270000E+03 0.  1.
    8880022    1    1    2    0    0  0.31038936660E+03 -0.31089182269E+03  0.21282387307E+04  0.21784827362E+04  0.15294330000E+03 0.  0.
<mgrwt>
<rscale>  0 0.69315231E+03</rscale>
<asrwt>0</asrwt>
<pdfrwt beam="1">  1        2 0.39227900E+00 0.79171048E+03</pdfrwt>
<pdfrwt beam="2">  1       -2 0.64673944E-01 0.79171048E+03</pdfrwt>
<totfact> 0.74979712E+00</totfact>
</mgrwt>
</event>
<event>
 4    2  0.6387803E-007  0.7005658E+03  0.7818608E-02  0.9994862E-01
          2   -1    0    0  501    0  0.00000000000E+00  0.00000000000E+00  0.18108258091E+04  0.18108258091E+04  0.25500000000E-02 0. -1.
         -2   -1    0    0    0  501 -0.00000000000E+00 -0.00000000000E+00 -0.37324874187E+03  0.37324874188E+03  0.25500000000E-02 0.  1.
    8880023    1    1    2    0    0  0.14689020400E+03 -0.18816352609E+03 -0.18345922351E+02  0.70080598150E+03  0.65864270000E+03 0.  0.
    8880022    1    1    2    0    0 -0.14689020400E+03  0.18816352609E+03  0.14559229896E+04  0.14832685695E+04  0.15294330000E+03 0.  0.
<mgrwt>
<rscale>  0 0.55876099E+03</rscale>
<asrwt>0</asrwt>
<pdfrwt beam="1">  1        2 0.27858859E+00 0.70056581E+03</pdfrwt>
<pdfrwt beam="2">  1       -2 0.57422882E-01 0.70056581E+03</pdfrwt>
<totfact> 0.25053125E+01</totfact>
</mgrwt>
</event>
<event>
 4    2  0.6387803E-007  0.8661346E+03  0.7818608E-02  0.9582743E-01
         -2   -1    0    0    0  501 -0.00000000000E+00  0.00000000000E+00  0.60361982170E+03  0.60361982171E+03  0.25500000000E-02 0.  1.
          2   -1    0    0  501    0  0.00000000000E+00 -0.00000000000E+00 -0.11863313845E+04  0.11863313845E+04  0.25500000000E-02 0. -1.
    8880023    1    1    2    0    0  0.56244229276E+03 -0.61300266190E+01  0.12279458407E+03  0.87479576248E+03  0.65864270000E+03 0.  1.
    8880022    1    1    2    0    0 -0.56244229276E+03  0.61300266190E+01 -0.70550614690E+03  0.91515544376E+03  0.15294330000E+03 0.  0.
<mgrwt>
<rscale>  0 0.78448971E+03</rscale>
<asrwt>0</asrwt>
<pdfrwt beam="1">  1        2 0.18251252E+00 0.86613458E+03</pdfrwt>
<pdfrwt beam="2">  1       -2 0.92864588E-01 0.86613458E+03</pdfrwt>
<totfact> 0.19096278E+01</totfact>
</mgrwt>
</event>
<event>
 4    2  0.6387803E-007  0.8881968E+03  0.7818608E-02  0.9545251E-01
         -2   -1    0    0    0  501 -0.00000000000E+00  0.00000000000E+00  0.42282244552E+03  0.42282244553E+03  0.25500000000E-02 0.  1.
          2   -1    0    0  501    0  0.00000000000E+00 -0.00000000000E+00 -0.21650690660E+04  0.21650690660E+04  0.25500000000E-02 0. -1.
    8880023    1    1    2    0    0 -0.49898657797E+03  0.32572346070E+03 -0.17642368565E+03  0.90554895007E+03  0.65864270000E+03 0.  1.
    8880022    1    1    2    0    0  0.49898657797E+03 -0.32572346070E+03 -0.15658229348E+04  0.16823425614E+04  0.15294330000E+03 0.  0.
<mgrwt>
<rscale>  0 0.81028269E+03</rscale>
<asrwt>0</asrwt>
<pdfrwt beam="1">  1        2 0.33308754E+00 0.88819682E+03</pdfrwt>
<pdfrwt beam="2">  1       -2 0.65049608E-01 0.88819682E+03</pdfrwt>
<totfact> 0.12002286E+01</totfact>
</mgrwt>
</event>
<event>
 4    2  0.6387803E-007  0.6969097E+03  0.7818608E-02  0.1001027E+00
         -2   -1    0    0    0  501 -0.00000000000E+00  0.00000000000E+00  0.13150450640E+04  0.13150450640E+04  0.25500000000E-02 0.  1.
          2   -1    0    0  501    0  0.00000000000E+00 -0.00000000000E+00 -0.29156341054E+03  0.29156341055E+03  0.25500000000E-02 0. -1.
    8880023    1    1    2    0    0  0.10215469443E+03  0.20356149789E+03  0.11171600373E+04  0.13167116694E+04  0.65864270000E+03 0.  1.
    8880022    1    1    2    0    0 -0.10215469443E+03 -0.20356149789E+03 -0.93678383886E+02  0.28989680515E+03  0.15294330000E+03 0.  0.
<mgrwt>
<rscale>  0 0.55202170E+03</rscale>
<asrwt>0</asrwt>
<pdfrwt beam="1">  1        2 0.44855910E-01 0.69690966E+03</pdfrwt>
<pdfrwt beam="2">  1       -2 0.20231462E+00 0.69690966E+03</pdfrwt>
<totfact> 0.14888951E+01</totfact>
</mgrwt>
</event>
<event>
 4    2  0.6387803E-007  0.7289813E+03  0.7818608E-02  0.9893291E-01
          2   -1    0    0  501    0  0.00000000000E+00  0.00000000000E+00  0.17451822072E+04  0.17451822072E+04  0.25500000000E-02 0. -1.
         -2   -1    0    0    0  501 -0.00000000000E+00 -0.00000000000E+00 -0.63193958772E+03  0.63193958773E+03  0.25500000000E-02 0.  1.
    8880023    1    1    2    0    0  0.88313733813E+02  0.29967346368E+03 -0.39511598515E+03  0.82917449816E+03  0.65864270000E+03 0.  1.
    8880022    1    1    2    0    0 -0.88313733813E+02 -0.29967346368E+03  0.15083586046E+04  0.15479472967E+04  0.15294330000E+03 0.  0.
<mgrwt>
<rscale>  0 0.60587534E+03</rscale>
<asrwt>0</asrwt>
<pdfrwt beam="1">  1        2 0.26848957E+00 0.72898128E+03</pdfrwt>
<pdfrwt beam="2">  1       -2 0.97221475E-01 0.72898128E+03</pdfrwt>
<totfact> 0.84400974E+00</totfact>
</mgrwt>
</event>
<event>
 4    2  0.6387803E-007  0.1994996E+04  0.7818608E-02  0.8621711E-01
         -2   -1    0    0    0  501 -0.00000000000E+00  0.00000000000E+00  0.17315302449E+04  0.17315302449E+04  0.25500000000E-02 0.  1.
          2   -1    0    0  501    0  0.00000000000E+00 -0.00000000000E+00 -0.34228513624E+04  0.34228513624E+04  0.25500000000E-02 0. -1.
    8880023    1    1    2    0    0 -0.18718979101E+04 -0.20541808473E+03 -0.24138853346E+04  0.31315892116E+04  0.65864270000E+03 0.  0.
    8880022    1    1    2    0    0  0.18718979101E+04  0.20541808473E+03  0.72256421715E+03  0.20227923957E+04  0.15294330000E+03 0.  0.
<mgrwt>
<rscale>  0 0.19680394E+04</rscale>
<asrwt>0</asrwt>
<pdfrwt beam="1">  1        2 0.52659252E+00 0.19949959E+04</pdfrwt>
<pdfrwt beam="2">  1       -2 0.26638927E+00 0.19949959E+04</pdfrwt>
<totfact> 0.41609670E-02</totfact>
</mgrwt>
</event>
<event>
 4    2  0.6387803E-007  0.6691652E+03  0.7818608E-02  0.1016268E+00
         -2   -1    0    0    0  501 -0.00000000000E+00  0.00000000000E+00  0.89363345292E+03  0.89363345293E+03  0.25500000000E-02 0.  1.
          2   -1    0    0  501    0  0.00000000000E+00 -0.00000000000E+00 -0.29150409863E+03  0.29150409864E+03  0.25500000000E-02 0. -1.
    8880023    1    1    2    0    0  0.11510157316E+03 -0.26898722469E+02  0.70007191871E+03  0.96844349915E+03  0.65864270000E+03 0.  1.
    8880022    1    1    2    0    0 -0.11510157316E+03  0.26898722469E+02 -0.97942564421E+02  0.21669405242E+03  0.15294330000E+03 0.  0.
<mgrwt>
<rscale>  0 0.49057574E+03</rscale>
<asrwt>0</asrwt>
<pdfrwt beam="1">  1        2 0.44846785E-01 0.66916524E+03</pdfrwt>
<pdfrwt beam="2">  1       -2 0.13748207E+00 0.66916524E+03</pdfrwt>
<totfact> 0.43371504E+01</totfact>
</mgrwt>
</event>
<event>
 4    2  0.6387803E-007  0.7742732E+03  0.7818608E-02  0.9769465E-01
          2   -1    0    0  501    0  0.00000000000E+00  0.00000000000E+00  0.39378426632E+03  0.39378426632E+03  0.25500000000E-02 0. -1.
         -2   -1    0    0    0  501 -0.00000000000E+00 -0.00000000000E+00 -0.93310936501E+03  0.93310936501E+03  0.25500000000E-02 0.  1.
    8880023    1    1    2    0    0  0.15917856129E+03  0.37463444763E+03 -0.29845950277E+03  0.82980543791E+03  0.65864270000E+03 0.  1.
    8880022    1    1    2    0    0 -0.15917856129E+03 -0.37463444763E+03 -0.24086559592E+03  0.49708819343E+03  0.15294330000E+03 0. -1.
<mgrwt>
<rscale>  0 0.67027265E+03</rscale>
<asrwt>0</asrwt>
<pdfrwt beam="1">  1        2 0.60582195E-01 0.77427320E+03</pdfrwt>
<pdfrwt beam="2">  1       -2 0.14355529E+00 0.77427320E+03</pdfrwt>
<totfact> 0.27514935E+01</totfact>
</mgrwt>
</event>
<event>
 4    2  0.6387803E-007  0.1388200E+04  0.7818608E-02  0.8992906E-01
         -2   -1    0    0    0  501 -0.00000000000E+00  0.00000000000E+00  0.11819607326E+04  0.11819607326E+04  0.25500000000E-02 0.  1.
          2   -1    0    0  501    0  0.00000000000E+00 -0.00000000000E+00 -0.19698225758E+04  0.19698225758E+04  0.25500000000E-02 0. -1.
    8880023    1    1    2    0    0 -0.23047208528E+03  0.12000712849E+04 -0.12185096922E+04  0.18471233167E+04  0.65864270000E+03 0. -1.
    8880022    1    1    2    0    0  0.23047208528E+03 -0.12000712849E+04  0.43064784900E+03  0.13046599917E+04  0.15294330000E+03 0.  0.
<mgrwt>
<rscale>  0 0.13472579E+04</rscale>
<asrwt>0</asrwt>
<pdfrwt beam="1">  1        2 0.30304963E+00 0.13881998E+04</pdfrwt>
<pdfrwt beam="2">  1       -2 0.18184011E+00 0.13881998E+04</pdfrwt>
<totfact> 0.11635883E+00</totfact>
</mgrwt>
</event>
<event>
 4    2  0.6387803E-007  0.6615605E+03  0.7818608E-02  0.1022612E+00
          2   -1    0    0  501    0  0.00000000000E+00  0.00000000000E+00  0.52670618389E+03  0.52670618390E+03  0.25500000000E-02 0. -1.
         -2   -1    0    0    0  501 -0.00000000000E+00 -0.00000000000E+00 -0.44442674611E+03  0.44442674612E+03  0.25500000000E-02 0.  1.
    8880023    1    1    2    0    0  0.40052947730E+02 -0.47411502720E+02 -0.15748554408E+03  0.68004705136E+03  0.65864270000E+03 0.  0.
    8880022    1    1    2    0    0 -0.40052947730E+02  0.47411502720E+02  0.23976498186E+03  0.29108587865E+03  0.15294330000E+03 0. -1.
<mgrwt>
<rscale>  0 0.46755803E+03</rscale>
<asrwt>0</asrwt>
<pdfrwt beam="1">  1        2 0.81031721E-01 0.66156050E+03</pdfrwt>
<pdfrwt beam="2">  1       -2 0.68373345E-01 0.66156050E+03</pdfrwt>
<totfact> 0.11516740E+02</totfact>
</mgrwt>
</event>
<event>
 4    2  0.6387803E-007  0.6707912E+03  0.7818608E-02  0.1015102E+00
         -2   -1    0    0    0  501 -0.00000000000E+00  0.00000000000E+00  0.18819167671E+03  0.18819167672E+03  0.25500000000E-02 0.  1.
          2   -1    0    0  501    0  0.00000000000E+00 -0.00000000000E+00 -0.11990511548E+04  0.11990511548E+04  0.25500000000E-02 0. -1.
    8880023    1    1    2    0    0  0.66640705679E+02  0.10821134474E+03 -0.49286869536E+03  0.83239439925E+03  0.65864270000E+03 0.  1.
    8880022    1    1    2    0    0 -0.66640705679E+02 -0.10821134474E+03 -0.51799078275E+03  0.55484843229E+03  0.15294330000E+03 0.  0.
<mgrwt>
<rscale>  0 0.49496367E+03</rscale>
<asrwt>0</asrwt>
<pdfrwt beam="1">  1        2 0.18446940E+00 0.67079124E+03</pdfrwt>
<pdfrwt beam="2">  1       -2 0.28952566E-01 0.67079124E+03</pdfrwt>
<totfact> 0.21116547E+02</totfact>
</mgrwt>
</event>
<event>
 4    2  0.6387803E-007  0.8775128E+03  0.7818608E-02  0.9563140E-01
          2   -1    0    0  501    0  0.00000000000E+00  0.00000000000E+00  0.12264697569E+04  0.12264697569E+04  0.25500000000E-02 0. -1.
         -2   -1    0    0    0  501 -0.00000000000E+00 -0.00000000000E+00 -0.52432210409E+03  0.52432210410E+03  0.25500000000E-02 0.  1.
    8880023    1    1    2    0    0  0.25367237363E+03 -0.52141035231E+03  0.74287483253E+03  0.11497354703E+04  0.65864270000E+03 0.  0.
    8880022    1    1    2    0    0 -0.25367237363E+03  0.52141035231E+03 -0.40727179690E+02  0.60105639071E+03  0.15294330000E+03 0.  0.
<mgrwt>
<rscale>  0 0.79784598E+03</rscale>
<asrwt>0</asrwt>
<pdfrwt beam="1">  1        2 0.18868766E+00 0.87751275E+03</pdfrwt>
<pdfrwt beam="2">  1       -2 0.80664939E-01 0.87751275E+03</pdfrwt>
<totfact> 0.24938026E+01</totfact>
</mgrwt>
</event>
<event>
 4    2  0.6387803E-007  0.6807447E+03  0.7818608E-02  0.1008906E+00
          2   -1    0    0  501    0  0.00000000000E+00  0.00000000000E+00  0.96774232325E+03  0.96774232325E+03  0.25500000000E-02 0. -1.
         -2   -1    0    0    0  501 -0.00000000000E+00 -0.00000000000E+00 -0.47918715995E+03  0.47918715996E+03  0.25500000000E-02 0.  1.
    8880023    1    1    2    0    0  0.14191994827E+03 -0.97271887197E+02 -0.20921254130E+03  0.71216794751E+03  0.65864270000E+03 0.  1.
    8880022    1    1    2    0    0 -0.14191994827E+03  0.97271887197E+02  0.69776770460E+03  0.73476153570E+03  0.15294330000E+03 0.  0.
<mgrwt>
<rscale>  0 0.51911943E+03</rscale>
<asrwt>0</asrwt>
<pdfrwt beam="1">  1        2 0.14888343E+00 0.68074466E+03</pdfrwt>
<pdfrwt beam="2">  1       -2 0.73721102E-01 0.68074466E+03</pdfrwt>
<totfact> 0.44802441E+01</totfact>
</mgrwt>
</event>
<event>
 4    2  0.6387803E-007  0.7397572E+03  0.7818608E-02  0.9860655E-01
         -2   -1    0    0    0  501 -0.00000000000E+00  0.00000000000E+00  0.14061871114E+04  0.14061871114E+04  0.25500000000E-02 0.  1.
          2   -1    0    0  501    0  0.00000000000E+00 -0.00000000000E+00 -0.46688897404E+03  0.46688897404E+03  0.25500000000E-02 0. -1.
    8880023    1    1    2    0    0 -0.14969615301E+03  0.30169784887E+03  0.12075656234E+04  0.14161410492E+04  0.65864270000E+03 0.  1.
    8880022    1    1    2    0    0  0.14969615301E+03 -0.30169784887E+03 -0.26826748603E+03  0.45693503621E+03  0.15294330000E+03 0.  0.
<mgrwt>
<rscale>  0 0.62206601E+03</rscale>
<asrwt>0</asrwt>
<pdfrwt beam="1">  1        2 0.71829073E-01 0.73975721E+03</pdfrwt>
<pdfrwt beam="2">  1       -2 0.21633648E+00 0.73975721E+03</pdfrwt>
<totfact> 0.71128513E+00</totfact>
</mgrwt>
</event>
<event>
 4    2  0.6387803E-007  0.6670388E+03  0.7818608E-02  0.1017881E+00
         -2   -1    0    0    0  501 -0.00000000000E+00  0.00000000000E+00  0.21582671630E+03  0.21582671632E+03  0.25500000000E-02 0.  1.
          2   -1    0    0  501    0  0.00000000000E+00 -0.00000000000E+00 -0.11330789713E+04  0.11330789713E+04  0.25500000000E-02 0. -1.
    8880023    1    1    2    0    0  0.21047639219E+01  0.10548028815E+03 -0.35265934866E+03  0.75452590657E+03  0.65864270000E+03 0.  1.
    8880022    1    1    2    0    0 -0.21047639219E+01 -0.10548028815E+03 -0.56459290636E+03  0.59437978107E+03  0.15294330000E+03 0.  0.
<mgrwt>
<rscale>  0 0.48459126E+03</rscale>
<asrwt>0</asrwt>
<pdfrwt beam="1">  1        2 0.17431984E+00 0.66703878E+03</pdfrwt>
<pdfrwt beam="2">  1       -2 0.33204111E-01 0.66703878E+03</pdfrwt>
<totfact> 0.17914385E+02</totfact>
</mgrwt>
</event>
<event>
 4    2  0.6387803E-007  0.6626713E+03  0.7818608E-02  0.1021573E+00
         -2   -1    0    0    0  501 -0.00000000000E+00  0.00000000000E+00  0.39203324496E+03  0.39203324496E+03  0.25500000000E-02 0.  1.
          2   -1    0    0  501    0  0.00000000000E+00 -0.00000000000E+00 -0.44166798178E+03  0.44166798179E+03  0.25500000000E-02 0. -1.
    8880023    1    1    2    0    0 -0.58046680335E+02 -0.44199617826E+02 -0.44651601617E+02  0.66417391932E+03  0.65864270000E+03 0.  0.
    8880022    1    1    2    0    0  0.58046680335E+02  0.44199617826E+02 -0.49831352061E+01  0.16952730743E+03  0.15294330000E+03 0.  1.
<mgrwt>
<rscale>  0 0.47123398E+03</rscale>
<asrwt>0</asrwt>
<pdfrwt beam="1">  1        2 0.67948920E-01 0.66267128E+03</pdfrwt>
<pdfrwt beam="2">  1       -2 0.60312807E-01 0.66267128E+03</pdfrwt>
<totfact> 0.18442622E+02</totfact>
</mgrwt>
</event>
<event>
 4    2  0.6387803E-007  0.8037208E+03  0.7818608E-02  0.9702808E-01
          2   -1    0    0  501    0  0.00000000000E+00  0.00000000000E+00  0.53377376829E+03  0.53377376829E+03  0.25500000000E-02 0. -1.
         -2   -1    0    0    0  501 -0.00000000000E+00 -0.00000000000E+00 -0.92547157829E+03  0.92547157830E+03  0.25500000000E-02 0.  1.
    8880023    1    1    2    0    0  0.22070855829E+03 -0.40428293295E+03 -0.51996071745E+03  0.95724934659E+03  0.65864270000E+03 0. -1.
    8880022    1    1    2    0    0 -0.22070855829E+03  0.40428293295E+03  0.12826290745E+03  0.50199600000E+03  0.15294330000E+03 0.  1.
<mgrwt>
<rscale>  0 0.70849858E+03</rscale>
<asrwt>0</asrwt>
<pdfrwt beam="1">  1        2 0.82119041E-01 0.80372082E+03</pdfrwt>
<pdfrwt beam="2">  1       -2 0.14238024E+00 0.80372082E+03</pdfrwt>
<totfact> 0.19777106E+01</totfact>
</mgrwt>
</event>
<event>
 4    2  0.6387803E-007  0.7250007E+03  0.7818608E-02  0.9906015E-01
          2   -1    0    0  501    0  0.00000000000E+00  0.00000000000E+00  0.12890094862E+04  0.12890094862E+04  0.25500000000E-02 0. -1.
         -2   -1    0    0    0  501 -0.00000000000E+00 -0.00000000000E+00 -0.31318790354E+03  0.31318790355E+03  0.25500000000E-02 0.  1.
    8880023    1    1    2    0    0  0.25071932131E+03  0.17016357350E+03  0.19496072791E+03  0.75075675922E+03  0.65864270000E+03 0.  1.
    8880022    1    1    2    0    0 -0.25071932131E+03 -0.17016357350E+03  0.78086085476E+03  0.85144063054E+03  0.15294330000E+03 0.  0.
<mgrwt>
<rscale>  0 0.59970670E+03</rscale>
<asrwt>0</asrwt>
<pdfrwt beam="1">  1        2 0.19830915E+00 0.72500071E+03</pdfrwt>
<pdfrwt beam="2">  1       -2 0.48182754E-01 0.72500071E+03</pdfrwt>
<totfact> 0.69831180E+01</totfact>
</mgrwt>
</event>
<event>
 4    2  0.6387803E-007  0.8430973E+03  0.7818608E-02  0.9624367E-01
          2   -1    0    0  501    0  0.00000000000E+00  0.00000000000E+00  0.95446275919E+03  0.95446275919E+03  0.25500000000E-02 0. -1.
         -2   -1    0    0    0  501 -0.00000000000E+00 -0.00000000000E+00 -0.15518885386E+04  0.15518885386E+04  0.25500000000E-02 0.  1.
    8880023    1    1    2    0    0  0.51990622127E+03  0.81856130179E+02 -0.13401512212E+04  0.15832935315E+04  0.65864270000E+03 0.  1.
    8880022    1    1    2    0    0 -0.51990622127E+03 -0.81856130179E+02  0.74272544180E+03  0.92305776627E+03  0.15294330000E+03 0.  0.
<mgrwt>
<rscale>  0 0.75704169E+03</rscale>
<asrwt>0</asrwt>
<pdfrwt beam="1">  1        2 0.14684043E+00 0.84309733E+03</pdfrwt>
<pdfrwt beam="2">  1       -2 0.23875208E+00 0.84309733E+03</pdfrwt>
<totfact> 0.20667336E+00</totfact>
</mgrwt>
</event>
<event>
 4    2  0.6387803E-007  0.6962174E+03  0.7818608E-02  0.1001327E+00
          2   -1    0    0  501    0  0.00000000000E+00  0.00000000000E+00  0.29034981989E+03  0.29034981990E+03  0.25500000000E-02 0. -1.
         -2   -1    0    0    0  501 -0.00000000000E+00 -0.00000000000E+00 -0.10390360243E+04  0.10390360243E+04  0.25500000000E-02 0.  1.
    8880023    1    1    2    0    0 -0.14454239346E+03 -0.17325118606E+03 -0.79076270002E+03  0.10535769222E+04  0.65864270000E+03 0.  1.
    8880022    1    1    2    0    0  0.14454239346E+03  0.17325118606E+03  0.42076495577E+02  0.27580892204E+03  0.15294330000E+03 0. -1.
<mgrwt>
<rscale>  0 0.55072191E+03</rscale>
<asrwt>0</asrwt>
<pdfrwt beam="1">  1        2 0.44669204E-01 0.69621741E+03</pdfrwt>
<pdfrwt beam="2">  1       -2 0.15985169E+00 0.69621741E+03</pdfrwt>
<totfact> 0.29229112E+01</totfact>
</mgrwt>
</event>
<event>
 4    2  0.6387803E-007  0.8005165E+03  0.7818608E-02  0.9709680E-01
         -2   -1    0    0    0  501 -0.00000000000E+00  0.00000000000E+00  0.24629997859E+03  0.24629997860E+03  0.25500000000E-02 0.  1.
          2   -1    0    0  501    0  0.00000000000E+00 -0.00000000000E+00 -0.36714993585E+04  0.36714993585E+04  0.25500000000E-02 0. -1.
    8880023    1    1    2    0    0 -0.44834563506E+03  0.77477276170E+02 -0.47927032127E+03  0.93302024839E+03  0.65864270000E+03 0.  1.
    8880022    1    1    2    0    0  0.44834563506E+03 -0.77477276170E+02 -0.29459290586E+04  0.29847790887E+04  0.15294330000E+03 0.  0.
<mgrwt>
<rscale>  0 0.70443346E+03</rscale>
<asrwt>0</asrwt>
<pdfrwt beam="1">  1        2 0.56484602E+00 0.80051655E+03</pdfrwt>
<pdfrwt beam="2">  1       -2 0.37892307E-01 0.80051655E+03</pdfrwt>
<totfact> 0.43483345E+00</totfact>
</mgrwt>
</event>
<event>
 4    2  0.6387803E-007  0.6697849E+03  0.7818608E-02  0.1015818E+00
          2   -1    0    0  501    0  0.00000000000E+00  0.00000000000E+00  0.65641923616E+03  0.65641923616E+03  0.25500000000E-02 0. -1.
         -2   -1    0    0    0  501 -0.00000000000E+00 -0.00000000000E+00 -0.29753288942E+03  0.29753288943E+03  0.25500000000E-02 0.  1.
    8880023    1    1    2    0    0 -0.11752398365E+03  0.31460216631E+02  0.35596241928E+03  0.75849923017E+03  0.65864270000E+03 0. -1.
    8880022    1    1    2    0    0  0.11752398365E+03 -0.31460216631E+02  0.29239274630E+01  0.19545289542E+03  0.15294330000E+03 0.  0.
<mgrwt>
<rscale>  0 0.49226607E+03</rscale>
<asrwt>0</asrwt>
<pdfrwt beam="1">  1        2 0.10098757E+00 0.66978492E+03</pdfrwt>
<pdfrwt beam="2">  1       -2 0.45774292E-01 0.66978492E+03</pdfrwt>
<totfact> 0.20369177E+02</totfact>
</mgrwt>
</event>
<event>
 4    2  0.6387803E-007  0.8243640E+03  0.7818608E-02  0.9660399E-01
          2   -1    0    0  501    0  0.00000000000E+00  0.00000000000E+00  0.92730543534E+03  0.92730543534E+03  0.25500000000E-02 0. -1.
         -2   -1    0    0    0  501 -0.00000000000E+00 -0.00000000000E+00 -0.51179219500E+03  0.51179219501E+03  0.25500000000E-02 0.  1.
    8880023    1    1    2    0    0  0.40282387134E+03 -0.28896139128E+03  0.40901066214E+03  0.92025305486E+03  0.65864270000E+03 0.  1.
    8880022    1    1    2    0    0 -0.40282387134E+03  0.28896139128E+03  0.65025781899E+01  0.51884457549E+03  0.15294330000E+03 0.  0.
<mgrwt>
<rscale>  0 0.73424339E+03</rscale>
<asrwt>0</asrwt>
<pdfrwt beam="1">  1        2 0.14266237E+00 0.82436397E+03</pdfrwt>
<pdfrwt beam="2">  1       -2 0.78737262E-01 0.82436397E+03</pdfrwt>
<totfact> 0.40618535E+01</totfact>
</mgrwt>
</event>
<event>
 4    2  0.6387803E-007  0.7211702E+03  0.7818608E-02  0.9918646E-01
          2   -1    0    0  501    0  0.00000000000E+00  0.00000000000E+00  0.86003260393E+03  0.86003260393E+03  0.25500000000E-02 0. -1.
         -2   -1    0    0    0  501 -0.00000000000E+00 -0.00000000000E+00 -0.10151603359E+04  0.10151603359E+04  0.25500000000E-02 0.  1.
    8880023    1    1    2    0    0  0.22642394115E+02  0.29285413867E+03 -0.84442699047E+03  0.11104698884E+04  0.65864270000E+03 0.  1.
    8880022    1    1    2    0    0 -0.22642394115E+02 -0.29285413867E+03  0.68929925852E+03  0.76472305141E+03  0.15294330000E+03 0.  0.
<mgrwt>
<rscale>  0 0.59366063E+03</rscale>
<asrwt>0</asrwt>
<pdfrwt beam="1">  1        2 0.13231271E+00 0.72117018E+03</pdfrwt>
<pdfrwt beam="2">  1       -2 0.15617851E+00 0.72117018E+03</pdfrwt>
<totfact> 0.85754237E+00</totfact>
</mgrwt>
</event>
<event>
 4    2  0.6387803E-007  0.6701701E+03  0.7818608E-02  0.1015541E+00
         -2   -1    0    0    0  501 -0.00000000000E+00  0.00000000000E+00  0.17631362038E+03  0.17631362040E+03  0.25500000000E-02 0.  1.
          2   -1    0    0  501    0  0.00000000000E+00 -0.00000000000E+00 -0.13034801737E+04  0.13034801737E+04  0.25500000000E-02 0. -1.
    8880023    1    1    2    0    0 -0.10773592368E+03 -0.60915853353E+02 -0.54035720214E+03  0.86087971437E+03  0.65864270000E+03 0.  1.
    8880022    1    1    2    0    0  0.10773592368E+03  0.60915853353E+02 -0.58680935122E+03  0.61891407977E+03  0.15294330000E+03 0.  0.
<mgrwt>
<rscale>  0 0.49330541E+03</rscale>
<asrwt>0</asrwt>
<pdfrwt beam="1">  1        2 0.20053540E+00 0.67017011E+03</pdfrwt>
<pdfrwt beam="2">  1       -2 0.27125173E-01 0.67017011E+03</pdfrwt>
<totfact> 0.20692662E+02</totfact>
</mgrwt>
</event>
<event>
 4    2  0.6387803E-007  0.7533940E+03  0.7818608E-02  0.9822520E-01
         -2   -1    0    0    0  501 -0.00000000000E+00  0.00000000000E+00  0.16963647078E+03  0.16963647080E+03  0.25500000000E-02 0.  1.
          2   -1    0    0  501    0  0.00000000000E+00 -0.00000000000E+00 -0.26518516963E+04  0.26518516963E+04  0.25500000000E-02 0. -1.
    8880023    1    1    2    0    0  0.45322321276E+02 -0.36295762516E+03 -0.82385839308E+03  0.11163983199E+04  0.65864270000E+03 0.  0.
    8880022    1    1    2    0    0 -0.45322321276E+02  0.36295762516E+03 -0.16583568324E+04  0.17050898472E+04  0.15294330000E+03 0.  0.
<mgrwt>
<rscale>  0 0.64167877E+03</rscale>
<asrwt>0</asrwt>
<pdfrwt beam="1">  1        2 0.40797715E+00 0.75339402E+03</pdfrwt>
<pdfrwt beam="2">  1       -2 0.26097920E-01 0.75339402E+03</pdfrwt>
<totfact> 0.39305802E+01</totfact>
</mgrwt>
</event>
<event>
 4    2  0.6387803E-007  0.9651546E+03  0.7818608E-02  0.9428637E-01
         -2   -1    0    0    0  501 -0.00000000000E+00  0.00000000000E+00  0.41346675334E+03  0.41346675335E+03  0.25500000000E-02 0.  1.
          2   -1    0    0  501    0  0.00000000000E+00 -0.00000000000E+00 -0.25185696072E+04  0.25185696072E+04  0.25500000000E-02 0. -1.
    8880023    1    1    2    0    0  0.64989814380E+03 -0.27449167033E+03 -0.33708374457E+03  0.10223252572E+04  0.65864270000E+03 0.  1.
    8880022    1    1    2    0    0 -0.64989814380E+03  0.27449167033E+03 -0.17680191093E+04  0.19097111034E+04  0.15294330000E+03 0.  0.
<mgrwt>
<rscale>  0 0.89755966E+03</rscale>
<asrwt>0</asrwt>
<pdfrwt beam="1">  1        2 0.38747224E+00 0.96515464E+03</pdfrwt>
<pdfrwt beam="2">  1       -2 0.63610271E-01 0.96515464E+03</pdfrwt>
<totfact> 0.78934296E+00</totfact>
</mgrwt>
</event>
<event>
 4    2  0.6387803E-007  0.1389475E+04  0.7818608E-02  0.8991904E-01
         -2   -1    0    0    0  501 -0.00000000000E+00  0.00000000000E+00  0.66687454209E+03  0.66687454210E+03  0.25500000000E-02 0.  1.
          2   -1    0    0  501    0  0.00000000000E+00 -0.00000000000E+00 -0.33477125994E+04  0.33477125994E+04  0.25500000000E-02 0. -1.
    8880023    1    1    2    0    0 -0.83576647407E+03  0.89349046219E+03 -0.23631046949E+04  0.27413326705E+04  0.65864270000E+03 0.  0.
    8880022    1    1    2    0    0  0.83576647407E+03 -0.89349046219E+03 -0.31773336239E+03  0.12732544710E+04  0.15294330000E+03 0.  0.
<mgrwt>
<rscale>  0 0.13485792E+04</rscale>
<asrwt>0</asrwt>
<pdfrwt beam="1">  1        2 0.51503270E+00 0.13894751E+04</pdfrwt>
<pdfrwt beam="2">  1       -2 0.10259609E+00 0.13894751E+04</pdfrwt>
<totfact> 0.78158290E-01</totfact>
</mgrwt>
</event>
<event>
 4    2  0.6387803E-007  0.8001755E+03  0.7818608E-02  0.9710417E-01
          2   -1    0    0  501    0  0.00000000000E+00  0.00000000000E+00  0.15682775406E+04  0.15682775406E+04  0.25500000000E-02 0. -1.
         -2   -1    0    0    0  501 -0.00000000000E+00 -0.00000000000E+00 -0.31730364409E+03  0.31730364410E+03  0.25500000000E-02 0.  1.
    8880023    1    1    2    0    0  0.24545152650E+03  0.38239278918E+03  0.36778597179E+03  0.88065170436E+03  0.65864270000E+03 0.  0.
    8880022    1    1    2    0    0 -0.24545152650E+03 -0.38239278918E+03  0.88318792468E+03  0.10049294803E+04  0.15294330000E+03 0.  0.
<mgrwt>
<rscale>  0 0.70399964E+03</rscale>
<asrwt>0</asrwt>
<pdfrwt beam="1">  1        2 0.24127347E+00 0.80017555E+03</pdfrwt>
<pdfrwt beam="2">  1       -2 0.48815945E-01 0.80017555E+03</pdfrwt>
<totfact> 0.46980671E+01</totfact>
</mgrwt>
</event>
<event>
 4    2  0.6387803E-007  0.7625717E+03  0.7818608E-02  0.9798495E-01
          2   -1    0    0  501    0  0.00000000000E+00  0.00000000000E+00  0.15796288069E+04  0.15796288069E+04  0.25500000000E-02 0. -1.
         -2   -1    0    0    0  501 -0.00000000000E+00 -0.00000000000E+00 -0.32308147744E+03  0.32308147745E+03  0.25500000000E-02 0.  1.
    8880023    1    1    2    0    0  0.32556853433E+03  0.20423145075E+03  0.23084951815E+03  0.79674780346E+03  0.65864270000E+03 0.  1.
    8880022    1    1    2    0    0 -0.32556853433E+03 -0.20423145075E+03  0.10256978113E+04  0.11059624809E+04  0.15294330000E+03 0.  0.
<mgrwt>
<rscale>  0 0.65443393E+03</rscale>
<asrwt>0</asrwt>
<pdfrwt beam="1">  1        2 0.24301981E+00 0.76257168E+03</pdfrwt>
<pdfrwt beam="2">  1       -2 0.49704843E-01 0.76257168E+03</pdfrwt>
<totfact> 0.44815057E+01</totfact>
</mgrwt>
</event>
<event>
 4    2  0.6387803E-007  0.8440997E+03  0.7818608E-02  0.9622498E-01
         -2   -1    0    0    0  501 -0.00000000000E+00  0.00000000000E+00  0.14170112485E+04  0.14170112485E+04  0.25500000000E-02 0.  1.
          2   -1    0    0  501    0  0.00000000000E+00 -0.00000000000E+00 -0.11907068020E+04  0.11907068020E+04  0.25500000000E-02 0. -1.
    8880023    1    1    2    0    0 -0.28400515370E+03  0.44501134418E+03  0.12132810523E+04  0.14780240667E+04  0.65864270000E+03 0.  1.
    8880022    1    1    2    0    0  0.28400515370E+03 -0.44501134418E+03 -0.98697660574E+03  0.11296939838E+04  0.15294330000E+03 0.  0.
<mgrwt>
<rscale>  0 0.75824850E+03</rscale>
<asrwt>0</asrwt>
<pdfrwt beam="1">  1        2 0.18318566E+00 0.84409966E+03</pdfrwt>
<pdfrwt beam="2">  1       -2 0.21800173E+00 0.84409966E+03</pdfrwt>
<totfact> 0.19813267E+00</totfact>
</mgrwt>
</event>
<event>
 4    2  0.6387803E-007  0.8091020E+03  0.7818608E-02  0.9691450E-01
         -2   -1    0    0    0  501 -0.00000000000E+00  0.00000000000E+00  0.44321299834E+03  0.44321299835E+03  0.25500000000E-02 0.  1.
          2   -1    0    0  501    0  0.00000000000E+00 -0.00000000000E+00 -0.17605058813E+04  0.17605058813E+04  0.25500000000E-02 0. -1.
    8880023    1    1    2    0    0  0.45933649959E+03 -0.99226504856E+02 -0.13289763282E+02  0.80921118578E+03  0.65864270000E+03 0.  1.
    8880022    1    1    2    0    0 -0.45933649959E+03  0.99226504856E+02 -0.13040031197E+04  0.13945076939E+04  0.15294330000E+03 0.  0.
<mgrwt>
<rscale>  0 0.71528120E+03</rscale>
<asrwt>0</asrwt>
<pdfrwt beam="1">  1        2 0.27084706E+00 0.80910205E+03</pdfrwt>
<pdfrwt beam="2">  1       -2 0.68186616E-01 0.80910205E+03</pdfrwt>
<totfact> 0.18247455E+01</totfact>
</mgrwt>
</event>
<event>
 4    2  0.6387803E-007  0.6719177E+03  0.7818608E-02  0.1014324E+00
         -2   -1    0    0    0  501 -0.00000000000E+00  0.00000000000E+00  0.34999404221E+03  0.34999404222E+03  0.25500000000E-02 0.  1.
          2   -1    0    0  501    0  0.00000000000E+00 -0.00000000000E+00 -0.13479196477E+04  0.13479196477E+04  0.25500000000E-02 0. -1.
    8880023    1    1    2    0    0 -0.72476520382E+02 -0.11140170845E+03  0.78177106318E+01  0.67196317571E+03  0.65864270000E+03 0.  1.
    8880022    1    1    2    0    0  0.72476520382E+02  0.11140170845E+03 -0.10057433161E+04  0.10259505142E+04  0.15294330000E+03 0.  0.
<mgrwt>
<rscale>  0 0.49791775E+03</rscale>
<asrwt>0</asrwt>
<pdfrwt beam="1">  1        2 0.20737225E+00 0.67191770E+03</pdfrwt>
<pdfrwt beam="2">  1       -2 0.53845238E-01 0.67191770E+03</pdfrwt>
<totfact> 0.51779921E+01</totfact>
</mgrwt>
</event>
<event>
 4    2  0.6387803E-007  0.9077896E+03  0.7818608E-02  0.9513641E-01
         -2   -1    0    0    0  501 -0.00000000000E+00  0.00000000000E+00  0.32779322263E+03  0.32779322264E+03  0.25500000000E-02 0.  1.
          2   -1    0    0  501    0  0.00000000000E+00 -0.00000000000E+00 -0.18715036893E+04  0.18715036893E+04  0.25500000000E-02 0. -1.
    8880023    1    1    2    0    0 -0.46096019401E+03  0.42164850828E+03 -0.74873455685E+03  0.11767265646E+04  0.65864270000E+03 0.  1.
    8880022    1    1    2    0    0  0.46096019401E+03 -0.42164850828E+03 -0.79497590982E+03  0.10225703473E+04  0.15294330000E+03 0. -1.
<mgrwt>
<rscale>  0 0.83285576E+03</rscale>
<asrwt>0</asrwt>
<pdfrwt beam="1">  1        2 0.28792364E+00 0.90778961E+03</pdfrwt>
<pdfrwt beam="2">  1       -2 0.50429728E-01 0.90778961E+03</pdfrwt>
<totfact> 0.29623367E+01</totfact>
</mgrwt>
</event>
<event>
 4    2  0.6387803E-007  0.8471436E+03  0.7818608E-02  0.9616855E-01
         -2   -1    0    0    0  501 -0.00000000000E+00  0.00000000000E+00  0.38767362554E+03  0.38767362555E+03  0.25500000000E-02 0.  1.
          2   -1    0    0  501    0  0.00000000000E+00 -0.00000000000E+00 -0.24779228308E+04  0.24779228308E+04  0.25500000000E-02 0. -1.
    8880023    1    1    2    0    0  0.78340238350E+02  0.52697714971E+03 -0.16619345601E+03  0.86329171219E+03  0.65864270000E+03 0.  0.
    8880022    1    1    2    0    0 -0.78340238350E+02 -0.52697714971E+03 -0.19240557493E+04  0.20023047442E+04  0.15294330000E+03 0.  0.
<mgrwt>
<rscale>  0 0.76190601E+03</rscale>
<asrwt>0</asrwt>
<pdfrwt beam="1">  1        2 0.38121889E+00 0.84714362E+03</pdfrwt>
<pdfrwt beam="2">  1       -2 0.59642098E-01 0.84714362E+03</pdfrwt>
<totfact> 0.97066407E+00</totfact>
</mgrwt>
</event>
<event>
 4    2  0.6387803E-007  0.7213124E+03  0.7818608E-02  0.9918170E-01
         -2   -1    0    0    0  501 -0.00000000000E+00  0.00000000000E+00  0.70026451791E+03  0.70026451791E+03  0.25500000000E-02 0.  1.
          2   -1    0    0  501    0  0.00000000000E+00 -0.00000000000E+00 -0.13010239989E+04  0.13010239989E+04  0.25500000000E-02 0. -1.
    8880023    1    1    2    0    0  0.28452621245E+03 -0.74338516096E+02  0.48292147660E+03  0.86804650761E+03  0.65864270000E+03 0.  1.
    8880022    1    1    2    0    0 -0.28452621245E+03  0.74338516096E+02 -0.10836809575E+04  0.11332420092E+04  0.15294330000E+03 0.  0.
<mgrwt>
<rscale>  0 0.59388717E+03</rscale>
<asrwt>0</asrwt>
<pdfrwt beam="1">  1        2 0.20015754E+00 0.72131241E+03</pdfrwt>
<pdfrwt beam="2">  1       -2 0.10773300E+00 0.72131241E+03</pdfrwt>
<totfact> 0.11691091E+01</totfact>
</mgrwt>
</event>
<event>
 4    2  0.6387803E-007  0.7977045E+03  0.7818608E-02  0.9715782E-01
         -2   -1    0    0    0  501 -0.00000000000E+00  0.00000000000E+00  0.16704920669E+04  0.16704920669E+04  0.25500000000E-02 0.  1.
          2   -1    0    0  501    0  0.00000000000E+00 -0.00000000000E+00 -0.20494773196E+04  0.20494773196E+04  0.25500000000E-02 0. -1.
    8880023    1    1    2    0    0  0.32247581726E+03 -0.31389745615E+03  0.15446575212E+04  0.17384761516E+04  0.65864270000E+03 0.  1.
    8880022    1    1    2    0    0 -0.32247581726E+03  0.31389745615E+03 -0.19236427738E+04  0.19814932349E+04  0.15294330000E+03 0.  0.
<mgrwt>
<rscale>  0 0.70084892E+03</rscale>
<asrwt>0</asrwt>
<pdfrwt beam="1">  1        2 0.31530420E+00 0.79770450E+03</pdfrwt>
<pdfrwt beam="2">  1       -2 0.25699878E+00 0.79770450E+03</pdfrwt>
<totfact> 0.38154276E-01</totfact>
</mgrwt>
</event>
<event>
 4    2  0.6387803E-007  0.6908832E+03  0.7818608E-02  0.1003736E+00
          2   -1    0    0  501    0  0.00000000000E+00  0.00000000000E+00  0.12731259019E+04  0.12731259020E+04  0.25500000000E-02 0. -1.
         -2   -1    0    0    0  501 -0.00000000000E+00 -0.00000000000E+00 -0.30505614879E+03  0.30505614880E+03  0.25500000000E-02 0.  1.
    8880023    1    1    2    0    0 -0.80060913412E+02  0.19261250080E+03  0.13247298718E+03  0.70346899286E+03  0.65864270000E+03 0.  1.
    8880022    1    1    2    0    0  0.80060913412E+02 -0.19261250080E+03  0.83559676598E+03  0.87471305789E+03  0.15294330000E+03 0.  0.
<mgrwt>
<rscale>  0 0.54042137E+03</rscale>
<asrwt>0</asrwt>
<pdfrwt beam="1">  1        2 0.19586552E+00 0.69088315E+03</pdfrwt>
<pdfrwt beam="2">  1       -2 0.46931715E-01 0.69088315E+03</pdfrwt>
<totfact> 0.75448786E+01</totfact>
</mgrwt>
</event>
<event>
 4    2  0.6387803E-007  0.8034009E+03  0.7818608E-02  0.9703490E-01
         -2   -1    0    0    0  501 -0.00000000000E+00  0.00000000000E+00  0.39665937691E+03  0.39665937692E+03  0.25500000000E-02 0.  1.
          2   -1    0    0  501    0  0.00000000000E+00 -0.00000000000E+00 -0.12447389678E+04  0.12447389678E+04  0.25500000000E-02 0. -1.
    8880023    1    1    2    0    0  0.16620487682E+03 -0.42897408326E+03 -0.19268784978E+03  0.82618499073E+03  0.65864270000E+03 0.  1.
    8880022    1    1    2    0    0 -0.16620487682E+03  0.42897408326E+03 -0.65539174106E+03  0.81521335395E+03  0.15294330000E+03 0.  0.
<mgrwt>
<rscale>  0 0.70809363E+03</rscale>
<asrwt>0</asrwt>
<pdfrwt beam="1">  1        2 0.19149830E+00 0.80340092E+03</pdfrwt>
<pdfrwt beam="2">  1       -2 0.61024520E-01 0.80340092E+03</pdfrwt>
<totfact> 0.45108445E+01</totfact>
</mgrwt>
</event>
<event>
 4    2  0.6387803E-007  0.6952921E+03  0.7818608E-02  0.1001732E+00
         -2   -1    0    0    0  501 -0.00000000000E+00  0.00000000000E+00  0.76566508450E+03  0.76566508450E+03  0.25500000000E-02 0.  1.
          2   -1    0    0  501    0  0.00000000000E+00 -0.00000000000E+00 -0.40625113296E+03  0.40625113297E+03  0.25500000000E-02 0. -1.
    8880023    1    1    2    0    0  0.60976545850E+02 -0.21424932831E+03  0.51027604453E+03  0.86244580218E+03  0.65864270000E+03 0.  1.
    8880022    1    1    2    0    0 -0.60976545850E+02  0.21424932831E+03 -0.15086209299E+03  0.30947041529E+03  0.15294330000E+03 0.  0.
<mgrwt>
<rscale>  0 0.54897198E+03</rscale>
<asrwt>0</asrwt>
<pdfrwt beam="1">  1        2 0.62500175E-01 0.69529211E+03</pdfrwt>
<pdfrwt beam="2">  1       -2 0.11779463E+00 0.69529211E+03</pdfrwt>
<totfact> 0.44098037E+01</totfact>
</mgrwt>
</event>
<event>
 4    2  0.6387803E-007  0.6723214E+03  0.7818608E-02  0.1014051E+00
         -2   -1    0    0    0  501 -0.00000000000E+00  0.00000000000E+00  0.28818014081E+03  0.28818014082E+03  0.25500000000E-02 0.  1.
          2   -1    0    0  501    0  0.00000000000E+00 -0.00000000000E+00 -0.21841767771E+04  0.21841767771E+04  0.25500000000E-02 0. -1.
    8880023    1    1    2    0    0 -0.33431996766E+02  0.13072161672E+03 -0.11787493017E+03  0.68257640225E+03  0.65864270000E+03 0.  0.
    8880022    1    1    2    0    0  0.33431996766E+02 -0.13072161672E+03 -0.17781217061E+04  0.17897805156E+04  0.15294330000E+03 0.  0.
<mgrwt>
<rscale>  0 0.49896041E+03</rscale>
<asrwt>0</asrwt>
<pdfrwt beam="1">  1        2 0.33602719E+00 0.67232139E+03</pdfrwt>
<pdfrwt beam="2">  1       -2 0.44335408E-01 0.67232139E+03</pdfrwt>
<totfact> 0.26671947E+01</totfact>
</mgrwt>
</event>
<event>
 4    2  0.6387803E-007  0.6595814E+03  0.7818608E-02  0.1024589E+00
          2   -1    0    0  501    0  0.00000000000E+00  0.00000000000E+00  0.61628705772E+03  0.61628705772E+03  0.25500000000E-02 0. -1.
         -2   -1    0    0    0  501 -0.00000000000E+00 -0.00000000000E+00 -0.28873971815E+03  0.28873971816E+03  0.25500000000E-02 0.  1.
    8880023    1    1    2    0    0  0.16017751867E+01  0.35140336298E+02  0.16673872201E+03  0.68033037313E+03  0.65864270000E+03 0.  1.
    8880022    1    1    2    0    0 -0.16017751867E+01 -0.35140336298E+02  0.16080861755E+03  0.22469640276E+03  0.15294330000E+03 0.  0.
<mgrwt>
<rscale>  0 0.46066189E+03</rscale>
<asrwt>0</asrwt>
<pdfrwt beam="1">  1        2 0.94813393E-01 0.65958139E+03</pdfrwt>
<pdfrwt beam="2">  1       -2 0.44421495E-01 0.65958139E+03</pdfrwt>
<totfact> 0.23367530E+02</totfact>
</mgrwt>
</event>
<event>
 4    2  0.6387803E-007  0.8253021E+03  0.7818608E-02  0.9658543E-01
          2   -1    0    0  501    0  0.00000000000E+00  0.00000000000E+00  0.13922192198E+04  0.13922192198E+04  0.25500000000E-02 0. -1.
         -2   -1    0    0    0  501 -0.00000000000E+00 -0.00000000000E+00 -0.63293875788E+03  0.63293875789E+03  0.25500000000E-02 0.  1.
    8880023    1    1    2    0    0 -0.31316422978E+03  0.38631786660E+03 -0.27290666508E+03  0.86925346302E+03  0.65864270000E+03 0.  0.
    8880022    1    1    2    0    0  0.31316422978E+03 -0.38631786660E+03  0.10321871270E+04  0.11559045147E+04  0.15294330000E+03 0.  0.
<mgrwt>
<rscale>  0 0.73539680E+03</rscale>
<asrwt>0</asrwt>
<pdfrwt beam="1">  1        2 0.21418757E+00 0.82530209E+03</pdfrwt>
<pdfrwt beam="2">  1       -2 0.97375194E-01 0.82530209E+03</pdfrwt>
<totfact> 0.13029613E+01</totfact>
</mgrwt>
</event>
<event>
 4    2  0.6387803E-007  0.6627989E+03  0.7818608E-02  0.1021456E+00
          2   -1    0    0  501    0  0.00000000000E+00  0.00000000000E+00  0.66556393267E+03  0.66556393267E+03  0.25500000000E-02 0. -1.
         -2   -1    0    0    0  501 -0.00000000000E+00 -0.00000000000E+00 -0.41084379830E+03  0.41084379831E+03  0.25500000000E-02 0.  1.
    8880023    1    1    2    0    0 -0.70557495183E+02  0.22668578558E+02 -0.11202327784E+03  0.67219911159E+03  0.65864270000E+03 0.  1.
    8880022    1    1    2    0    0  0.70557495183E+02 -0.22668578558E+02  0.36674341221E+03  0.40420861939E+03  0.15294330000E+03 0.  0.
<mgrwt>
<rscale>  0 0.47164832E+03</rscale>
<asrwt>0</asrwt>
<pdfrwt beam="1">  1        2 0.10239445E+00 0.66279894E+03</pdfrwt>
<pdfrwt beam="2">  1       -2 0.63206739E-01 0.66279894E+03</pdfrwt>
<totfact> 0.10295851E+02</totfact>
</mgrwt>
</event>
<event>
 4    2  0.6387803E-007  0.9068796E+03  0.7818608E-02  0.9515077E-01
          2   -1    0    0  501    0  0.00000000000E+00  0.00000000000E+00  0.15292731169E+04  0.15292731169E+04  0.25500000000E-02 0. -1.
         -2   -1    0    0    0  501 -0.00000000000E+00 -0.00000000000E+00 -0.42950540555E+03  0.42950540555E+03  0.25500000000E-02 0.  1.
    8880023    1    1    2    0    0 -0.12119008230E+03  0.61150083975E+03  0.35073690885E+03  0.97234093741E+03  0.65864270000E+03 0.  0.
    8880022    1    1    2    0    0  0.12119008230E+03 -0.61150083975E+03  0.74903080246E+03  0.98643758501E+03  0.15294330000E+03 0.  0.
<mgrwt>
<rscale>  0 0.83181344E+03</rscale>
<asrwt>0</asrwt>
<pdfrwt beam="1">  1        2 0.23527278E+00 0.90687955E+03</pdfrwt>
<pdfrwt beam="2">  1       -2 0.66077755E-01 0.90687955E+03</pdfrwt>
<totfact> 0.25929466E+01</totfact>
</mgrwt>
</event>
<event>
 4    2  0.6387803E-007  0.6763434E+03  0.7818608E-02  0.1011473E+00
         -2   -1    0    0    0  501 -0.00000000000E+00  0.00000000000E+00  0.47946751981E+03  0.47946751981E+03  0.25500000000E-02 0.  1.
          2   -1    0    0  501    0  0.00000000000E+00 -0.00000000000E+00 -0.17463894144E+04  0.17463894144E+04  0.25500000000E-02 0. -1.
    8880023    1    1    2    0    0  0.49503879656E+02  0.14553184674E+03  0.22918337523E+03  0.71411860238E+03  0.65864270000E+03 0.  1.
    8880022    1    1    2    0    0 -0.49503879656E+02 -0.14553184674E+03 -0.14961052698E+04  0.15117383318E+04  0.15294330000E+03 0.  0.
<mgrwt>
<rscale>  0 0.50893561E+03</rscale>
<asrwt>0</asrwt>
<pdfrwt beam="1">  1        2 0.26867529E+00 0.67634337E+03</pdfrwt>
<pdfrwt beam="2">  1       -2 0.73764235E-01 0.67634337E+03</pdfrwt>
<totfact> 0.15921161E+01</totfact>
</mgrwt>
</event>
<event>
 4    2  0.6387803E-007  0.6928722E+03  0.7818608E-02  0.1002816E+00
          2   -1    0    0  501    0  0.00000000000E+00  0.00000000000E+00  0.17325153161E+04  0.17325153161E+04  0.25500000000E-02 0. -1.
         -2   -1    0    0    0  501 -0.00000000000E+00 -0.00000000000E+00 -0.25123109863E+03  0.25123109864E+03  0.25500000000E-02 0.  1.
    8880023    1    1    2    0    0 -0.58942220484E+02 -0.20685131594E+03  0.26931161061E+03  0.74337110661E+03  0.65864270000E+03 0.  1.
    8880022    1    1    2    0    0  0.58942220484E+02  0.20685131594E+03  0.12119726069E+04  0.12403753082E+04  0.15294330000E+03 0.  0.
<mgrwt>
<rscale>  0 0.54432410E+03</rscale>
<asrwt>0</asrwt>
<pdfrwt beam="1">  1        2 0.26654080E+00 0.69287218E+03</pdfrwt>
<pdfrwt beam="2">  1       -2 0.38650941E-01 0.69287218E+03</pdfrwt>
<totfact> 0.61327161E+01</totfact>
</mgrwt>
</event>
<event>
 4    2  0.6387803E-007  0.7525665E+03  0.7818608E-02  0.9824746E-01
         -2   -1    0    0    0  501 -0.00000000000E+00  0.00000000000E+00  0.16436675593E+04  0.16436675593E+04  0.25500000000E-02 0.  1.
          2   -1    0    0  501    0  0.00000000000E+00 -0.00000000000E+00 -0.99803541477E+03  0.99803541477E+03  0.25500000000E-02 0. -1.
    8880023    1    1    2    0    0  0.36271453715E+03 -0.31374194112E+02  0.15123595242E+04  0.16892565560E+04  0.65864270000E+03 0.  1.
    8880022    1    1    2    0    0 -0.36271453715E+03  0.31374194112E+02 -0.86672737966E+03  0.95244641801E+03  0.15294330000E+03 0.  0.
<mgrwt>
<rscale>  0 0.64051250E+03</rscale>
<asrwt>0</asrwt>
<pdfrwt beam="1">  1        2 0.15354391E+00 0.75256653E+03</pdfrwt>
<pdfrwt beam="2">  1       -2 0.25287193E+00 0.75256653E+03</pdfrwt>
<totfact> 0.16120083E+00</totfact>
</mgrwt>
</event>
<event>
 4    2  0.6387803E-007  0.6740142E+03  0.7818608E-02  0.1012935E+00
         -2   -1    0    0    0  501 -0.00000000000E+00  0.00000000000E+00  0.29178368859E+03  0.29178368860E+03  0.25500000000E-02 0.  1.
          2   -1    0    0  501    0  0.00000000000E+00 -0.00000000000E+00 -0.35721375395E+04  0.35721375395E+04  0.25500000000E-02 0. -1.
    8880023    1    1    2    0    0 -0.14248140964E+03 -0.13564574693E+02 -0.10556650733E+03  0.68223122437E+03  0.65864270000E+03 0.  1.
    8880022    1    1    2    0    0  0.14248140964E+03  0.13564574693E+02 -0.31747873436E+04  0.31816900037E+04  0.15294330000E+03 0.  0.
<mgrwt>
<rscale>  0 0.50324667E+03</rscale>
<asrwt>0</asrwt>
<pdfrwt beam="1">  1        2 0.54955959E+00 0.67401421E+03</pdfrwt>
<pdfrwt beam="2">  1       -2 0.44889801E-01 0.67401421E+03</pdfrwt>
<totfact> 0.37663968E+00</totfact>
</mgrwt>
</event>
<event>
 4    2  0.6387803E-007  0.6988003E+03  0.7818608E-02  0.1000221E+00
          2   -1    0    0  501    0  0.00000000000E+00  0.00000000000E+00  0.34045841044E+04  0.34045841044E+04  0.25500000000E-02 0. -1.
         -2   -1    0    0    0  501 -0.00000000000E+00 -0.00000000000E+00 -0.21920075788E+03  0.21920075789E+03  0.25500000000E-02 0.  1.
    8880023    1    1    2    0    0 -0.29396787359E+02  0.23161934081E+03  0.36267135910E+03  0.78730706279E+03  0.65864270000E+03 0.  1.
    8880022    1    1    2    0    0  0.29396787359E+02 -0.23161934081E+03  0.28227119874E+04  0.28364777995E+04  0.15294330000E+03 0.  0.
<mgrwt>
<rscale>  0 0.55553233E+03</rscale>
<asrwt>0</asrwt>
<pdfrwt beam="1">  1        2 0.52378215E+00 0.69880033E+03</pdfrwt>
<pdfrwt beam="2">  1       -2 0.33723195E-01 0.69880033E+03</pdfrwt>
<totfact> 0.84727306E+00</totfact>
</mgrwt>
</event>
<event>
 4    2  0.6387803E-007  0.1245745E+04  0.7818608E-02  0.9113889E-01
          2   -1    0    0  501    0  0.00000000000E+00  0.00000000000E+00  0.23769318302E+04  0.23769318302E+04  0.25500000000E-02 0. -1.
         -2   -1    0    0    0  501 -0.00000000000E+00 -0.00000000000E+00 -0.61620785088E+03  0.61620785088E+03  0.25500000000E-02 0.  1.
    8880023    1    1    2    0    0 -0.87823517062E+03 -0.58887363902E+03  0.50448109696E+03  0.13440165777E+04  0.65864270000E+03 0.  0.
    8880022    1    1    2    0    0  0.87823517062E+03  0.58887363902E+03  0.12562428824E+04  0.16491231034E+04  0.15294330000E+03 0.  0.
<mgrwt>
<rscale>  0 0.11988211E+04</rscale>
<asrwt>0</asrwt>
<pdfrwt beam="1">  1        2 0.36568182E+00 0.12457445E+04</pdfrwt>
<pdfrwt beam="2">  1       -2 0.94801209E-01 0.12457445E+04</pdfrwt>
<totfact> 0.37534897E+00</totfact>
</mgrwt>
</event>
<event>
 4    2  0.6387803E-007  0.8857650E+03  0.7818608E-02  0.9549281E-01
          2   -1    0    0  501    0  0.00000000000E+00  0.00000000000E+00  0.28086827940E+04  0.28086827940E+04  0.25500000000E-02 0. -1.
         -2   -1    0    0    0  501 -0.00000000000E+00 -0.00000000000E+00 -0.27341101364E+03  0.27341101365E+03  0.25500000000E-02 0.  1.
    8880023    1    1    2    0    0 -0.25832070768E+03  0.53295393283E+03  0.64611946241E+03  0.10963804306E+04  0.65864270000E+03 0.  0.
    8880022    1    1    2    0    0  0.25832070768E+03 -0.53295393283E+03  0.18891523180E+04  0.19857133771E+04  0.15294330000E+03 0.  0.
<mgrwt>
<rscale>  0 0.80746040E+03</rscale>
<asrwt>0</asrwt>
<pdfrwt beam="1">  1        2 0.43210502E+00 0.88576503E+03</pdfrwt>
<pdfrwt beam="2">  1       -2 0.42063235E-01 0.88576503E+03</pdfrwt>
<totfact> 0.12655618E+01</totfact>
</mgrwt>
</event>
<event>
 4    2  0.6387803E-007  0.8486080E+03  0.7818608E-02  0.9614158E-01
         -2   -1    0    0    0  501 -0.00000000000E+00  0.00000000000E+00  0.30127464373E+03  0.30127464374E+03  0.25500000000E-02 0.  1.
          2   -1    0    0  501    0  0.00000000000E+00 -0.00000000000E+00 -0.23588749942E+04  0.23588749942E+04  0.25500000000E-02 0. -1.
    8880023    1    1    2    0    0  0.17089600318E+03 -0.50706992659E+03 -0.45335522491E+03  0.96211564823E+03  0.65864270000E+03 0.  0.
    8880022    1    1    2    0    0 -0.17089600318E+03  0.50706992659E+03 -0.16042451256E+04  0.16980339897E+04  0.15294330000E+03 0.  0.
<mgrwt>
<rscale>  0 0.76366164E+03</rscale>
<asrwt>0</asrwt>
<pdfrwt beam="1">  1        2 0.36290383E+00 0.84860801E+03</pdfrwt>
<pdfrwt beam="2">  1       -2 0.46349947E-01 0.84860801E+03</pdfrwt>
<totfact> 0.19043086E+01</totfact>
</mgrwt>
</event>
<event>
 4    2  0.6387803E-007  0.6773904E+03  0.7818608E-02  0.1010840E+00
         -2   -1    0    0    0  501 -0.00000000000E+00  0.00000000000E+00  0.11116128363E+04  0.11116128363E+04  0.25500000000E-02 0.  1.
          2   -1    0    0  501    0  0.00000000000E+00 -0.00000000000E+00 -0.27126403041E+03  0.27126403042E+03  0.25500000000E-02 0. -1.
    8880023    1    1    2    0    0 -0.15417822339E+03 -0.35730748299E+02  0.92548047036E+03  0.11468966467E+04  0.65864270000E+03 0.  1.
    8880022    1    1    2    0    0  0.15417822339E+03  0.35730748299E+02 -0.85131664452E+02  0.23598022004E+03  0.15294330000E+03 0.  0.
<mgrwt>
<rscale>  0 0.51142151E+03</rscale>
<asrwt>0</asrwt>
<pdfrwt beam="1">  1        2 0.41732928E-01 0.67739045E+03</pdfrwt>
<pdfrwt beam="2">  1       -2 0.17101736E+00 0.67739045E+03</pdfrwt>
<totfact> 0.26239039E+01</totfact>
</mgrwt>
</event>
<event>
 4    2  0.6387803E-007  0.7188999E+03  0.7818608E-02  0.9926326E-01
         -2   -1    0    0    0  501 -0.00000000000E+00  0.00000000000E+00  0.95939288239E+03  0.95939288239E+03  0.25500000000E-02 0.  1.
          2   -1    0    0  501    0  0.00000000000E+00 -0.00000000000E+00 -0.37969289973E+03  0.37969289974E+03  0.25500000000E-02 0. -1.
    8880023    1    1    2    0    0  0.28773341843E+03 -0.14708693574E+02  0.68831848594E+03  0.99528860643E+03  0.65864270000E+03 0.  0.
    8880022    1    1    2    0    0 -0.28773341843E+03  0.14708693574E+02 -0.10861850328E+03  0.34379717570E+03  0.15294330000E+03 0.  0.
<mgrwt>
<rscale>  0 0.59002208E+03</rscale>
<asrwt>0</asrwt>
<pdfrwt beam="1">  1        2 0.58414293E-01 0.71889990E+03</pdfrwt>
<pdfrwt beam="2">  1       -2 0.14759890E+00 0.71889990E+03</pdfrwt>
<totfact> 0.26764300E+01</totfact>
</mgrwt>
</event>
<event>
 4    2  0.6387803E-007  0.1229356E+04  0.7818608E-02  0.9129101E-01
          2   -1    0    0  501    0  0.00000000000E+00  0.00000000000E+00  0.98463095197E+03  0.98463095197E+03  0.25500000000E-02 0. -1.
         -2   -1    0    0    0  501 -0.00000000000E+00 -0.00000000000E+00 -0.30974736075E+04  0.30974736075E+04  0.25500000000E-02 0.  1.
    8880023    1    1    2    0    0  0.69571876204E+03  0.77037734488E+03 -0.26368126659E+04  0.29093121336E+04  0.65864270000E+03 0.  0.
    8880022    1    1    2    0    0 -0.69571876204E+03 -0.77037734488E+03  0.52397001038E+03  0.11727924259E+04  0.15294330000E+03 0. -1.
<mgrwt>
<rscale>  0 0.11816166E+04</rscale>
<asrwt>0</asrwt>
<pdfrwt beam="1">  1        2 0.15148169E+00 0.12293560E+04</pdfrwt>
<pdfrwt beam="2">  1       -2 0.47653440E+00 0.12293560E+04</pdfrwt>
<totfact> 0.58612107E-02</totfact>
</mgrwt>
</event>
<event>
 4    2  0.6387803E-007  0.7273823E+03  0.7818608E-02  0.9898355E-01
          2   -1    0    0  501    0  0.00000000000E+00  0.00000000000E+00  0.68501141387E+03  0.68501141388E+03  0.25500000000E-02 0. -1.
         -2   -1    0    0    0  501 -0.00000000000E+00 -0.00000000000E+00 -0.48488037459E+03  0.48488037459E+03  0.25500000000E-02 0.  1.
    8880023    1    1    2    0    0 -0.28570388129E+03 -0.11682518400E+03 -0.71935676937E+02  0.73093076230E+03  0.65864270000E+03 0.  0.
    8880022    1    1    2    0    0  0.28570388129E+03  0.11682518400E+03  0.27206671622E+03  0.43896102617E+03  0.15294330000E+03 0.  0.
<mgrwt>
<rscale>  0 0.60341078E+03</rscale>
<asrwt>0</asrwt>
<pdfrwt beam="1">  1        2 0.10538637E+00 0.72738232E+03</pdfrwt>
<pdfrwt beam="2">  1       -2 0.74596981E-01 0.72738232E+03</pdfrwt>
<totfact> 0.69005149E+01</totfact>
</mgrwt>
</event>
<event>
 4    2  0.6387803E-007  0.7503485E+03  0.7818608E-02  0.9830767E-01
         -2   -1    0    0    0  501 -0.00000000000E+00  0.00000000000E+00  0.74378287546E+03  0.74378287546E+03  0.25500000000E-02 0.  1.
          2   -1    0    0  501    0  0.00000000000E+00 -0.00000000000E+00 -0.99011403184E+03  0.99011403184E+03  0.25500000000E-02 0. -1.
    8880023    1    1    2    0    0  0.11039847789E+03  0.34208883697E+03  0.49292411483E+03  0.89777334865E+03  0.65864270000E+03 0.  1.
    8880022    1    1    2    0    0 -0.11039847789E+03 -0.34208883697E+03 -0.73925527121E+03  0.83612355865E+03  0.15294330000E+03 0.  0.
<mgrwt>
<rscale>  0 0.63737213E+03</rscale>
<asrwt>0</asrwt>
<pdfrwt beam="1">  1        2 0.15232524E+00 0.75034845E+03</pdfrwt>
<pdfrwt beam="2">  1       -2 0.11442813E+00 0.75034845E+03</pdfrwt>
<totfact> 0.15510520E+01</totfact>
</mgrwt>
</event>
<event>
 4    2  0.6387803E-007  0.7932241E+03  0.7818608E-02  0.9725643E-01
          2   -1    0    0  501    0  0.00000000000E+00  0.00000000000E+00  0.18028727761E+04  0.18028727761E+04  0.25500000000E-02 0. -1.
         -2   -1    0    0    0  501 -0.00000000000E+00 -0.00000000000E+00 -0.31132851507E+03  0.31132851508E+03  0.25500000000E-02 0.  1.
    8880023    1    1    2    0    0 -0.40925748124E+03 -0.16704067933E+03  0.32472068506E+03  0.85711609720E+03  0.65864270000E+03 0.  1.
    8880022    1    1    2    0    0  0.40925748124E+03  0.16704067933E+03  0.11668235760E+04  0.12570851940E+04  0.15294330000E+03 0.  0.
<mgrwt>
<rscale>  0 0.69510330E+03</rscale>
<asrwt>0</asrwt>
<pdfrwt beam="1">  1        2 0.27736505E+00 0.79322411E+03</pdfrwt>
<pdfrwt beam="2">  1       -2 0.47896693E-01 0.79322411E+03</pdfrwt>
<totfact> 0.36315017E+01</totfact>
</mgrwt>
</event>
<event>
 4    2  0.6387803E-007  0.9148938E+03  0.7818608E-02  0.9502533E-01
          2   -1    0    0  501    0  0.00000000000E+00  0.00000000000E+00  0.24177770599E+04  0.24177770599E+04  0.25500000000E-02 0. -1.
         -2   -1    0    0    0  501 -0.00000000000E+00 -0.00000000000E+00 -0.29058571597E+03  0.29058571598E+03  0.25500000000E-02 0.  1.
    8880023    1    1    2    0    0  0.63290883704E+03  0.51446994830E+02  0.74587173866E+03  0.11804046959E+04  0.65864270000E+03 0.  0.
    8880022    1    1    2    0    0 -0.63290883704E+03 -0.51446994830E+02  0.13813196053E+04  0.15279580800E+04  0.15294330000E+03 0.  0.
<mgrwt>
<rscale>  0 0.84097317E+03</rscale>
<asrwt>0</asrwt>
<pdfrwt beam="1">  1        2 0.37196571E+00 0.91489376E+03</pdfrwt>
<pdfrwt beam="2">  1       -2 0.44705494E-01 0.91489376E+03</pdfrwt>
<totfact> 0.18808947E+01</totfact>
</mgrwt>
</event>
<event>
 4    2  0.6387803E-007  0.7291585E+03  0.7818608E-02  0.9892733E-01
         -2   -1    0    0    0  501 -0.00000000000E+00  0.00000000000E+00  0.21179825317E+03  0.21179825318E+03  0.25500000000E-02 0.  1.
          2   -1    0    0  501    0  0.00000000000E+00 -0.00000000000E+00 -0.14545918250E+04  0.14545918250E+04  0.25500000000E-02 0. -1.
    8880023    1    1    2    0    0  0.24261010563E+03 -0.19749004149E+03 -0.63972757463E+03  0.97001214211E+03  0.65864270000E+03 0.  1.
    8880022    1    1    2    0    0 -0.24261010563E+03  0.19749004149E+03 -0.60306599716E+03  0.69637793603E+03  0.15294330000E+03 0. -1.
<mgrwt>
<rscale>  0 0.60614751E+03</rscale>
<asrwt>0</asrwt>
<pdfrwt beam="1">  1        2 0.22378335E+00 0.72915855E+03</pdfrwt>
<pdfrwt beam="2">  1       -2 0.32584347E-01 0.72915855E+03</pdfrwt>
<totfact> 0.12040983E+02</totfact>
</mgrwt>
</event>
<event>
 4    2  0.6387803E-007  0.1203238E+04  0.7818608E-02  0.9153981E-01
         -2   -1    0    0    0  501 -0.00000000000E+00  0.00000000000E+00  0.53726929623E+03  0.53726929624E+03  0.25500000000E-02 0.  1.
          2   -1    0    0  501    0  0.00000000000E+00 -0.00000000000E+00 -0.29993308392E+04  0.29993308392E+04  0.25500000000E-02 0. -1.
    8880023    1    1    2    0    0 -0.44945957309E+03  0.90108689018E+03 -0.21629066481E+04  0.24750650227E+04  0.65864270000E+03 0. -1.
    8880022    1    1    2    0    0  0.44945957309E+03 -0.90108689018E+03 -0.29915489478E+03  0.10615351127E+04  0.15294330000E+03 0.  0.
<mgrwt>
<rscale>  0 0.11541307E+04</rscale>
<asrwt>0</asrwt>
<pdfrwt beam="1">  1        2 0.46143550E+00 0.12032380E+04</pdfrwt>
<pdfrwt beam="2">  1       -2 0.82656817E-01 0.12032380E+04</pdfrwt>
<totfact> 0.22213263E+00</totfact>
</mgrwt>
</event>
<event>
 4    2  0.6387803E-007  0.1188947E+04  0.7818608E-02  0.9167943E-01
         -2   -1    0    0    0  501 -0.00000000000E+00  0.00000000000E+00  0.73915832455E+03  0.73915832455E+03  0.25500000000E-02 0.  1.
          2   -1    0    0  501    0  0.00000000000E+00 -0.00000000000E+00 -0.22547433263E+04  0.22547433263E+04  0.25500000000E-02 0. -1.
    8880023    1    1    2    0    0  0.96391627174E+03  0.22505414778E+03 -0.14124351370E+02  0.11890305513E+04  0.65864270000E+03 0.  1.
    8880022    1    1    2    0    0 -0.96391627174E+03 -0.22505414778E+03 -0.15014606504E+04  0.18048710996E+04  0.15294330000E+03 0.  0.
<mgrwt>
<rscale>  0 0.11390529E+04</rscale>
<asrwt>0</asrwt>
<pdfrwt beam="1">  1        2 0.34688359E+00 0.11889467E+04</pdfrwt>
<pdfrwt beam="2">  1       -2 0.11371667E+00 0.11889467E+04</pdfrwt>
<totfact> 0.28569157E+00</totfact>
</mgrwt>
</event>
<event>
 4    2  0.6387803E-007  0.7279333E+03  0.7818608E-02  0.9896603E-01
         -2   -1    0    0    0  501 -0.00000000000E+00  0.00000000000E+00  0.19947582846E+03  0.19947582848E+03  0.25500000000E-02 0.  1.
          2   -1    0    0  501    0  0.00000000000E+00 -0.00000000000E+00 -0.24331256475E+04  0.24331256475E+04  0.25500000000E-02 0. -1.
    8880023    1    1    2    0    0  0.73124212308E+02 -0.30121336870E+03 -0.54606916141E+03  0.90998812037E+03  0.65864270000E+03 0.  0.
    8880022    1    1    2    0    0 -0.73124212308E+02  0.30121336870E+03 -0.16875806576E+04  0.17226133556E+04  0.15294330000E+03 0.  0.
<mgrwt>
<rscale>  0 0.60426197E+03</rscale>
<asrwt>0</asrwt>
<pdfrwt beam="1">  1        2 0.37432700E+00 0.72793327E+03</pdfrwt>
<pdfrwt beam="2">  1       -2 0.30688591E-01 0.72793327E+03</pdfrwt>
<totfact> 0.39016472E+01</totfact>
</mgrwt>
</event>
<event>
 4    2  0.6387803E-007  0.9155386E+03  0.7818608E-02  0.9501534E-01
          2   -1    0    0  501    0  0.00000000000E+00  0.00000000000E+00  0.52005766332E+03  0.52005766333E+03  0.25500000000E-02 0. -1.
         -2   -1    0    0    0  501 -0.00000000000E+00 -0.00000000000E+00 -0.16590627334E+04  0.16590627334E+04  0.25500000000E-02 0.  1.
    8880023    1    1    2    0    0  0.46065166657E+03 -0.43840700527E+03 -0.12142718940E+04  0.15207455734E+04  0.65864270000E+03 0.  1.
    8880022    1    1    2    0    0 -0.46065166657E+03  0.43840700527E+03  0.75266823942E+02  0.65837482332E+03  0.15294330000E+03 0.  0.
<mgrwt>
<rscale>  0 0.84170829E+03</rscale>
<asrwt>0</asrwt>
<pdfrwt beam="1">  1        2 0.80008872E-01 0.91553857E+03</pdfrwt>
<pdfrwt beam="2">  1       -2 0.25524042E+00 0.91553857E+03</pdfrwt>
<totfact> 0.35428323E+00</totfact>
</mgrwt>
</event>
<event>
 4    2  0.6387803E-007  0.7897009E+03  0.7818608E-02  0.9733524E-01
          2   -1    0    0  501    0  0.00000000000E+00  0.00000000000E+00  0.66096721389E+03  0.66096721390E+03  0.25500000000E-02 0. -1.
         -2   -1    0    0    0  501 -0.00000000000E+00 -0.00000000000E+00 -0.59346786393E+03  0.59346786393E+03  0.25500000000E-02 0.  1.
    8880023    1    1    2    0    0  0.43546627013E+03  0.13651426157E+02  0.16404435457E+02  0.78987122091E+03  0.65864270000E+03 0.  1.
    8880022    1    1    2    0    0 -0.43546627013E+03 -0.13651426157E+02  0.51094914509E+02  0.46456385692E+03  0.15294330000E+03 0. -1.
<mgrwt>
<rscale>  0 0.69055396E+03</rscale>
<asrwt>0</asrwt>
<pdfrwt beam="1">  1        2 0.10168726E+00 0.78970085E+03</pdfrwt>
<pdfrwt beam="2">  1       -2 0.91302748E-01 0.78970085E+03</pdfrwt>
<totfact> 0.45458561E+01</totfact>
</mgrwt>
</event>
<event>
 4    2  0.1535178E-006  0.1299888E+04  0.7818608E-02  0.9065657E-01
          2   -1    0    0  501    0  0.00000000000E+00  0.00000000000E+00  0.19013342928E+04  0.19013342928E+04  0.25500000000E-02 0. -1.
         -2   -1    0    0    0  501 -0.00000000000E+00 -0.00000000000E+00 -0.29640976357E+04  0.29640976357E+04  0.25500000000E-02 0.  1.
    8880023    1    1    2    0    0  0.87331175510E+03 -0.70229993705E+03 -0.26294026141E+04  0.29331667080E+04  0.65864270000E+03 0.  0.
    8880022    1    1    2    0    0 -0.87331175510E+03  0.70229993705E+03  0.15666392713E+04  0.19322652205E+04  0.15294330000E+03 0.  0.
<mgrwt>
<rscale>  0 0.12554534E+04</rscale>
<asrwt>0</asrwt>
<pdfrwt beam="1">  1        2 0.29251297E+00 0.12998880E+04</pdfrwt>
<pdfrwt beam="2">  1       -2 0.45601502E+00 0.12998880E+04</pdfrwt>
<totfact> 0.23201248E-02</totfact>
</mgrwt>
</event>
<event>
 4    2  0.6387803E-007  0.6681809E+03  0.7818608E-02  0.1017002E+00
         -2   -1    0    0    0  501 -0.00000000000E+00  0.00000000000E+00  0.27930634290E+03  0.27930634291E+03  0.25500000000E-02 0.  1.
          2   -1    0    0  501    0  0.00000000000E+00 -0.00000000000E+00 -0.18516538021E+04  0.18516538021E+04  0.25500000000E-02 0. -1.
    8880023    1    1    2    0    0 -0.10605160512E+03  0.37531400894E+02 -0.13569984637E+03  0.68182124019E+03  0.65864270000E+03 0.  0.
    8880022    1    1    2    0    0  0.10605160512E+03 -0.37531400894E+02 -0.14366476128E+04  0.14491389048E+04  0.15294330000E+03 0. -1.
<mgrwt>
<rscale>  0 0.48784235E+03</rscale>
<asrwt>0</asrwt>
<pdfrwt beam="1">  1        2 0.28486981E+00 0.66818093E+03</pdfrwt>
<pdfrwt beam="2">  1       -2 0.42970208E-01 0.66818093E+03</pdfrwt>
<totfact> 0.43083354E+01</totfact>
</mgrwt>
</event>
<event>
 4    2  0.6387803E-007  0.7705928E+03  0.7818608E-02  0.9778417E-01
          2   -1    0    0  501    0  0.00000000000E+00  0.00000000000E+00  0.12375227468E+04  0.12375227468E+04  0.25500000000E-02 0. -1.
         -2   -1    0    0    0  501 -0.00000000000E+00 -0.00000000000E+00 -0.34346507836E+03  0.34346507837E+03  0.25500000000E-02 0.  1.
    8880023    1    1    2    0    0  0.23454957054E+02  0.39931552838E+03  0.25495966626E+03  0.81167583671E+03  0.65864270000E+03 0. -1.
    8880022    1    1    2    0    0 -0.23454957054E+02 -0.39931552838E+03  0.63909800220E+03  0.76931198850E+03  0.15294330000E+03 0.  0.
<mgrwt>
<rscale>  0 0.66533756E+03</rscale>
<asrwt>0</asrwt>
<pdfrwt beam="1">  1        2 0.19038812E+00 0.77059278E+03</pdfrwt>
<pdfrwt beam="2">  1       -2 0.52840781E-01 0.77059278E+03</pdfrwt>
<totfact> 0.61726457E+01</totfact>
</mgrwt>
</event>
<event>
 4    2  0.6387803E-007  0.6792865E+03  0.7818608E-02  0.1009730E+00
         -2   -1    0    0    0  501 -0.00000000000E+00  0.00000000000E+00  0.99264679240E+03  0.99264679240E+03  0.25500000000E-02 0.  1.
          2   -1    0    0  501    0  0.00000000000E+00 -0.00000000000E+00 -0.26872258443E+03  0.26872258444E+03  0.25500000000E-02 0. -1.
    8880023    1    1    2    0    0 -0.76574657179E+02 -0.14750007279E+03  0.77422552641E+03  0.10299783112E+04  0.65864270000E+03 0.  1.
    8880022    1    1    2    0    0  0.76574657179E+02  0.14750007279E+03 -0.50301318443E+02  0.23139106562E+03  0.15294330000E+03 0.  0.
<mgrwt>
<rscale>  0 0.51582022E+03</rscale>
<asrwt>0</asrwt>
<pdfrwt beam="1">  1        2 0.41341936E-01 0.67928650E+03</pdfrwt>
<pdfrwt beam="2">  1       -2 0.15271489E+00 0.67928650E+03</pdfrwt>
<totfact> 0.36045965E+01</totfact>
</mgrwt>
</event>
<event>
 4    2  0.6387803E-007  0.6811226E+03  0.7818608E-02  0.1008696E+00
          2   -1    0    0  501    0  0.00000000000E+00  0.00000000000E+00  0.12754759296E+04  0.12754759296E+04  0.25500000000E-02 0. -1.
         -2   -1    0    0    0  501 -0.00000000000E+00 -0.00000000000E+00 -0.40609479905E+03  0.40609479906E+03  0.25500000000E-02 0.  1.
    8880023    1    1    2    0    0  0.13940980879E+03  0.10335720742E+03 -0.96905515116E+02  0.68798160748E+03  0.65864270000E+03 0.  1.
    8880022    1    1    2    0    0 -0.13940980879E+03 -0.10335720742E+03  0.96628664567E+03  0.99358912118E+03  0.15294330000E+03 0.  0.
<mgrwt>
<rscale>  0 0.51996342E+03</rscale>
<asrwt>0</asrwt>
<pdfrwt beam="1">  1        2 0.19622706E+00 0.68112261E+03</pdfrwt>
<pdfrwt beam="2">  1       -2 0.62476124E-01 0.68112261E+03</pdfrwt>
<totfact> 0.41688272E+01</totfact>
</mgrwt>
</event>
<event>
 4    2  0.6387803E-007  0.9600612E+03  0.7818608E-02  0.9435784E-01
          2   -1    0    0  501    0  0.00000000000E+00  0.00000000000E+00  0.17672109231E+04  0.17672109231E+04  0.25500000000E-02 0. -1.
         -2   -1    0    0    0  501 -0.00000000000E+00 -0.00000000000E+00 -0.56941379487E+03  0.56941379487E+03  0.25500000000E-02 0.  1.
    8880023    1    1    2    0    0 -0.21631212713E+03 -0.66416585265E+03  0.21809669132E+02  0.96030884829E+03  0.65864270000E+03 0.  0.
    8880022    1    1    2    0    0  0.21631212713E+03  0.66416585265E+03  0.11759874591E+04  0.13763158697E+04  0.15294330000E+03 0.  0.
<mgrwt>
<rscale>  0 0.89188432E+03</rscale>
<asrwt>0</asrwt>
<pdfrwt beam="1">  1        2 0.27187861E+00 0.96006116E+03</pdfrwt>
<pdfrwt beam="2">  1       -2 0.87602121E-01 0.96006116E+03</pdfrwt>
<totfact> 0.10151180E+01</totfact>
</mgrwt>
</event>
<event>
 4    2  0.6387803E-007  0.9196949E+03  0.7818608E-02  0.9495127E-01
          2   -1    0    0  501    0  0.00000000000E+00  0.00000000000E+00  0.20043881913E+04  0.20043881913E+04  0.25500000000E-02 0. -1.
         -2   -1    0    0    0  501 -0.00000000000E+00 -0.00000000000E+00 -0.17479863737E+04  0.17479863737E+04  0.25500000000E-02 0.  1.
    8880023    1    1    2    0    0 -0.20581665812E+03  0.60800333638E+03  0.18288533261E+04  0.20470816419E+04  0.65864270000E+03 0. -1.
    8880022    1    1    2    0    0  0.20581665812E+03 -0.60800333638E+03 -0.15724515086E+04  0.17052929231E+04  0.15294330000E+03 0.  0.
<mgrwt>
<rscale>  0 0.84644046E+03</rscale>
<asrwt>0</asrwt>
<pdfrwt beam="1">  1        2 0.30836741E+00 0.91969493E+03</pdfrwt>
<pdfrwt beam="2">  1       -2 0.26892098E+00 0.91969493E+03</pdfrwt>
<totfact> 0.33373438E-01</totfact>
</mgrwt>
</event>
<event>
 4    2  0.6387803E-007  0.9939670E+03  0.7818608E-02  0.9389494E-01
         -2   -1    0    0    0  501 -0.00000000000E+00  0.00000000000E+00  0.67247404996E+03  0.67247404997E+03  0.25500000000E-02 0.  1.
          2   -1    0    0  501    0  0.00000000000E+00 -0.00000000000E+00 -0.13208596901E+04  0.13208596901E+04  0.25500000000E-02 0. -1.
    8880023    1    1    2    0    0 -0.27388461035E+03  0.69220467537E+03  0.59962414139E+00  0.99396713135E+03  0.65864270000E+03 0.  0.
    8880022    1    1    2    0    0  0.27388461035E+03 -0.69220467537E+03 -0.64898526432E+03  0.99936660877E+03  0.15294330000E+03 0.  0.
<mgrwt>
<rscale>  0 0.92945383E+03</rscale>
<asrwt>0</asrwt>
<pdfrwt beam="1">  1        2 0.20320918E+00 0.99396695E+03</pdfrwt>
<pdfrwt beam="2">  1       -2 0.10345755E+00 0.99396695E+03</pdfrwt>
<totfact> 0.12180223E+01</totfact>
</mgrwt>
</event>
<event>
 4    2  0.6387803E-007  0.8200630E+03  0.7818608E-02  0.9668985E-01
         -2   -1    0    0    0  501 -0.00000000000E+00  0.00000000000E+00  0.84132360132E+03  0.84132360132E+03  0.25500000000E-02 0.  1.
          2   -1    0    0  501    0  0.00000000000E+00 -0.00000000000E+00 -0.10363429564E+04  0.10363429564E+04  0.25500000000E-02 0. -1.
    8880023    1    1    2    0    0 -0.35836040254E+03  0.33207076918E+03  0.54003321349E+03  0.98190592818E+03  0.65864270000E+03 0.  0.
    8880022    1    1    2    0    0  0.35836040254E+03 -0.33207076918E+03 -0.73505256852E+03  0.89576062950E+03  0.15294330000E+03 0.  0.
<mgrwt>
<rscale>  0 0.72893812E+03</rscale>
<asrwt>0</asrwt>
<pdfrwt beam="1">  1        2 0.15943738E+00 0.82006303E+03</pdfrwt>
<pdfrwt beam="2">  1       -2 0.12943440E+00 0.82006303E+03</pdfrwt>
<totfact> 0.10587065E+01</totfact>
</mgrwt>
</event>
<event>
 4    2  0.6387803E-007  0.6693952E+03  0.7818608E-02  0.1016100E+00
          2   -1    0    0  501    0  0.00000000000E+00  0.00000000000E+00  0.59343077023E+03  0.59343077023E+03  0.25500000000E-02 0. -1.
         -2   -1    0    0    0  501 -0.00000000000E+00 -0.00000000000E+00 -0.39811690528E+03  0.39811690529E+03  0.25500000000E-02 0.  1.
    8880023    1    1    2    0    0  0.10115963267E+03 -0.63611933703E+02 -0.58592259569E+02  0.67195461791E+03  0.65864270000E+03 0.  1.
    8880022    1    1    2    0    0 -0.10115963267E+03  0.63611933703E+02  0.25390612451E+03  0.31959305761E+03  0.15294330000E+03 0.  0.
<mgrwt>
<rscale>  0 0.49120573E+03</rscale>
<asrwt>0</asrwt>
<pdfrwt beam="1">  1        2 0.91297041E-01 0.66939522E+03</pdfrwt>
<pdfrwt beam="2">  1       -2 0.61248755E-01 0.66939522E+03</pdfrwt>
<totfact> 0.12653559E+02</totfact>
</mgrwt>
</event>
<event>
 4    2  0.6387803E-007  0.6698510E+03  0.7818608E-02  0.1015770E+00
          2   -1    0    0  501    0  0.00000000000E+00  0.00000000000E+00  0.35321644450E+04  0.35321644450E+04  0.25500000000E-02 0. -1.
         -2   -1    0    0    0  501 -0.00000000000E+00 -0.00000000000E+00 -0.12040824925E+03  0.12040824927E+03  0.25500000000E-02 0.  1.
    8880023    1    1    2    0    0  0.45271707961E+01  0.12194110288E+03  0.84465977634E+03  0.10780308307E+04  0.65864270000E+03 0.  1.
    8880022    1    1    2    0    0 -0.45271707961E+01 -0.12194110288E+03  0.25670964194E+04  0.25745418636E+04  0.15294330000E+03 0.  0.
<mgrwt>
<rscale>  0 0.49244492E+03</rscale>
<asrwt>0</asrwt>
<pdfrwt beam="1">  1        2 0.54340996E+00 0.66985098E+03</pdfrwt>
<pdfrwt beam="2">  1       -2 0.18524344E-01 0.66985098E+03</pdfrwt>
<totfact> 0.20605267E+01</totfact>
</mgrwt>
</event>
<event>
 4    2  0.6387803E-007  0.7717277E+03  0.7818608E-02  0.9775640E-01
         -2   -1    0    0    0  501 -0.00000000000E+00  0.00000000000E+00  0.72617965557E+03  0.72617965558E+03  0.25500000000E-02 0.  1.
          2   -1    0    0  501    0  0.00000000000E+00 -0.00000000000E+00 -0.17118152093E+04  0.17118152093E+04  0.25500000000E-02 0. -1.
    8880023    1    1    2    0    0 -0.10018023456E+03  0.38950912122E+03  0.48112702625E+03  0.90942116566E+03  0.65864270000E+03 0.  1.
    8880022    1    1    2    0    0  0.10018023456E+03 -0.38950912122E+03 -0.14667625800E+04  0.15285736992E+04  0.15294330000E+03 0.  0.
<mgrwt>
<rscale>  0 0.66686372E+03</rscale>
<asrwt>0</asrwt>
<pdfrwt beam="1">  1        2 0.26335619E+00 0.77172770E+03</pdfrwt>
<pdfrwt beam="2">  1       -2 0.11171995E+00 0.77172770E+03</pdfrwt>
<totfact> 0.62707914E+00</totfact>
</mgrwt>
</event>
<event>
 4    2  0.6387803E-007  0.9443125E+03  0.7818608E-02  0.9458345E-01
          2   -1    0    0  501    0  0.00000000000E+00  0.00000000000E+00  0.13433070079E+04  0.13433070079E+04  0.25500000000E-02 0. -1.
         -2   -1    0    0    0  501 -0.00000000000E+00 -0.00000000000E+00 -0.61995725031E+03  0.61995725031E+03  0.25500000000E-02 0.  1.
    8880023    1    1    2    0    0 -0.57422125735E+03 -0.35803044546E+03  0.83504651534E+03  0.12605668333E+04  0.65864270000E+03 0.  0.
    8880022    1    1    2    0    0  0.57422125735E+03  0.35803044546E+03 -0.11169675772E+03  0.70269742491E+03  0.15294330000E+03 0.  0.
<mgrwt>
<rscale>  0 0.87425802E+03</rscale>
<asrwt>0</asrwt>
<pdfrwt beam="1">  1        2 0.20666262E+00 0.94431248E+03</pdfrwt>
<pdfrwt beam="2">  1       -2 0.95378038E-01 0.94431248E+03</pdfrwt>
<totfact> 0.14408247E+01</totfact>
</mgrwt>
</event>
<event>
 4    2  0.6387803E-007  0.1623015E+04  0.7818608E-02  0.8827325E-01
         -2   -1    0    0    0  501 -0.00000000000E+00  0.00000000000E+00  0.14663456651E+04  0.14663456651E+04  0.25500000000E-02 0.  1.
          2   -1    0    0  501    0  0.00000000000E+00 -0.00000000000E+00 -0.26105786857E+04  0.26105786857E+04  0.25500000000E-02 0. -1.
    8880023    1    1    2    0    0 -0.11541026983E+04  0.93188744233E+03  0.64610217538E+03  0.17468902286E+04  0.65864270000E+03 0.  0.
    8880022    1    1    2    0    0  0.11541026983E+04 -0.93188744233E+03 -0.17903351960E+04  0.23300341222E+04  0.15294330000E+03 0.  0.
<mgrwt>
<rscale>  0 0.15890145E+04</rscale>
<asrwt>0</asrwt>
<pdfrwt beam="1">  1        2 0.40162749E+00 0.16230149E+04</pdfrwt>
<pdfrwt beam="2">  1       -2 0.22559164E+00 0.16230149E+04</pdfrwt>
<totfact> 0.25303365E-01</totfact>
</mgrwt>
</event>
<event>
 4    2  0.6387803E-007  0.7359719E+03  0.7818608E-02  0.9871840E-01
          2   -1    0    0  501    0  0.00000000000E+00  0.00000000000E+00  0.81450686138E+03  0.81450686138E+03  0.25500000000E-02 0. -1.
         -2   -1    0    0    0  501 -0.00000000000E+00 -0.00000000000E+00 -0.75204768881E+03  0.75204768882E+03  0.25500000000E-02 0.  1.
    8880023    1    1    2    0    0 -0.31183204894E+03  0.10298191401E+03 -0.50553220499E+03  0.89287038136E+03  0.65864270000E+03 0.  0.
    8880022    1    1    2    0    0  0.31183204894E+03 -0.10298191401E+03  0.56799137756E+03  0.67368416884E+03  0.15294330000E+03 0.  0.
<mgrwt>
<rscale>  0 0.61645678E+03</rscale>
<asrwt>0</asrwt>
<pdfrwt beam="1">  1        2 0.12530875E+00 0.73597195E+03</pdfrwt>
<pdfrwt beam="2">  1       -2 0.11569964E+00 0.73597195E+03</pdfrwt>
<totfact> 0.19851363E+01</totfact>
</mgrwt>
</event>
<event>
 4    2  0.6387803E-007  0.7934659E+03  0.7818608E-02  0.9725106E-01
          2   -1    0    0  501    0  0.00000000000E+00  0.00000000000E+00  0.12052897664E+04  0.12052897664E+04  0.25500000000E-02 0. -1.
         -2   -1    0    0    0  501 -0.00000000000E+00 -0.00000000000E+00 -0.55126100859E+03  0.55126100859E+03  0.25500000000E-02 0.  1.
    8880023    1    1    2    0    0  0.32926687759E+03 -0.29556923853E+03 -0.16753770591E+03  0.81096050496E+03  0.65864270000E+03 0.  1.
    8880022    1    1    2    0    0 -0.32926687759E+03  0.29556923853E+03  0.82156646371E+03  0.94559027002E+03  0.15294330000E+03 0.  0.
<mgrwt>
<rscale>  0 0.69541443E+03</rscale>
<asrwt>0</asrwt>
<pdfrwt beam="1">  1        2 0.18542919E+00 0.79346585E+03</pdfrwt>
<pdfrwt beam="2">  1       -2 0.84809387E-01 0.79346585E+03</pdfrwt>
<totfact> 0.23099546E+01</totfact>
</mgrwt>
</event>
<event>
 4    2  0.6387803E-007  0.1310811E+04  0.7818608E-02  0.9056280E-01
         -2   -1    0    0    0  501 -0.00000000000E+00  0.00000000000E+00  0.70760690915E+03  0.70760690915E+03  0.25500000000E-02 0.  1.
          2   -1    0    0  501    0  0.00000000000E+00 -0.00000000000E+00 -0.42028898286E+04  0.42028898286E+04  0.25500000000E-02 0. -1.
    8880023    1    1    2    0    0 -0.20790071209E+03  0.11140883671E+04 -0.35308860642E+04  0.37663486562E+04  0.65864270000E+03 0.  0.
    8880022    1    1    2    0    0  0.20790071209E+03 -0.11140883671E+04  0.35603144662E+02  0.11441480816E+04  0.15294330000E+03 0.  0.
<mgrwt>
<rscale>  0 0.12668438E+04</rscale>
<asrwt>0</asrwt>
<pdfrwt beam="1">  1        2 0.64659842E+00 0.13108111E+04</pdfrwt>
<pdfrwt beam="2">  1       -2 0.10886260E+00 0.13108111E+04</pdfrwt>
<totfact> 0.15573722E-01</totfact>
</mgrwt>
</event>
<event>
 4    2  0.6387803E-007  0.6882421E+03  0.7818608E-02  0.1005000E+00
          2   -1    0    0  501    0  0.00000000000E+00  0.00000000000E+00  0.22337354610E+04  0.22337354611E+04  0.25500000000E-02 0. -1.
         -2   -1    0    0    0  501 -0.00000000000E+00 -0.00000000000E+00 -0.21442117918E+03  0.21442117919E+03  0.25500000000E-02 0.  1.
    8880023    1    1    2    0    0  0.19723722195E+03  0.31055963793E+02  0.37315318157E+03  0.78289239222E+03  0.65864270000E+03 0.  1.
    8880022    1    1    2    0    0 -0.19723722195E+03 -0.31055963793E+02  0.16461611003E+04  0.16652642480E+04  0.15294330000E+03 0.  0.
<mgrwt>
<rscale>  0 0.53511351E+03</rscale>
<asrwt>0</asrwt>
<pdfrwt beam="1">  1        2 0.34365161E+00 0.68824211E+03</pdfrwt>
<pdfrwt beam="2">  1       -2 0.32987873E-01 0.68824211E+03</pdfrwt>
<totfact> 0.44245513E+01</totfact>
</mgrwt>
</event>
<event>
 4    2  0.6387803E-007  0.1387436E+04  0.7818608E-02  0.8993507E-01
         -2   -1    0    0    0  501 -0.00000000000E+00  0.00000000000E+00  0.10160052614E+04  0.10160052614E+04  0.25500000000E-02 0.  1.
          2   -1    0    0  501    0  0.00000000000E+00 -0.00000000000E+00 -0.37443349937E+04  0.37443349937E+04  0.25500000000E-02 0. -1.
    8880023    1    1    2    0    0  0.10476746482E+04 -0.62733318506E+03  0.36207794360E+03  0.14339036708E+04  0.65864270000E+03 0.  1.
    8880022    1    1    2    0    0 -0.10476746482E+04  0.62733318506E+03 -0.30904076759E+04  0.33264365844E+04  0.15294330000E+03 0.  0.
<mgrwt>
<rscale>  0 0.13464667E+04</rscale>
<asrwt>0</asrwt>
<pdfrwt beam="1">  1        2 0.57605153E+00 0.13874362E+04</pdfrwt>
<pdfrwt beam="2">  1       -2 0.15630850E+00 0.13874362E+04</pdfrwt>
<totfact> 0.14099606E-01</totfact>
</mgrwt>
</event>
<event>
 4    2  0.6387803E-007  0.1012540E+04  0.7818608E-02  0.9365332E-01
          2   -1    0    0  501    0  0.00000000000E+00  0.00000000000E+00  0.81411271280E+03  0.81411271281E+03  0.25500000000E-02 0. -1.
         -2   -1    0    0    0  501 -0.00000000000E+00 -0.00000000000E+00 -0.14009587626E+04  0.14009587626E+04  0.25500000000E-02 0.  1.
    8880023    1    1    2    0    0  0.31028039295E+03 -0.70367127719E+03 -0.91532985507E+03  0.13649418077E+04  0.65864270000E+03 0.  0.
    8880022    1    1    2    0    0 -0.31028039295E+03  0.70367127719E+03  0.32848380526E+03  0.85012966771E+03  0.15294330000E+03 0.  0.
<mgrwt>
<rscale>  0 0.94984461E+03</rscale>
<asrwt>0</asrwt>
<pdfrwt beam="1">  1        2 0.12524811E+00 0.10125401E+04</pdfrwt>
<pdfrwt beam="2">  1       -2 0.21553212E+00 0.10125401E+04</pdfrwt>
<totfact> 0.35243299E+00</totfact>
</mgrwt>
</event>
<event>
 4    2  0.6387803E-007  0.7359307E+03  0.7818608E-02  0.9871963E-01
          2   -1    0    0  501    0  0.00000000000E+00  0.00000000000E+00  0.57438188465E+03  0.57438188466E+03  0.25500000000E-02 0. -1.
         -2   -1    0    0    0  501 -0.00000000000E+00 -0.00000000000E+00 -0.77214713082E+03  0.77214713082E+03  0.25500000000E-02 0.  1.
    8880023    1    1    2    0    0 -0.28451730698E+03  0.16380977303E+03 -0.48747066115E+03  0.88273528957E+03  0.65864270000E+03 0.  1.
    8880022    1    1    2    0    0  0.28451730698E+03 -0.16380977303E+03  0.28970541498E+03  0.46379372591E+03  0.15294330000E+03 0.  0.
<mgrwt>
<rscale>  0 0.61639516E+03</rscale>
<asrwt>0</asrwt>
<pdfrwt beam="1">  1        2 0.88366444E-01 0.73593067E+03</pdfrwt>
<pdfrwt beam="2">  1       -2 0.11879187E+00 0.73593067E+03</pdfrwt>
<totfact> 0.28859201E+01</totfact>
</mgrwt>
</event>
<event>
 4    2  0.6387803E-007  0.6698207E+03  0.7818608E-02  0.1015792E+00
          2   -1    0    0  501    0  0.00000000000E+00  0.00000000000E+00  0.38913083651E+04  0.38913083651E+04  0.25500000000E-02 0. -1.
         -2   -1    0    0    0  501 -0.00000000000E+00 -0.00000000000E+00 -0.62837565842E+02  0.62837565893E+02  0.25500000000E-02 0.  1.
    8880023    1    1    2    0    0  0.66383455054E+02 -0.10218977782E+03  0.18776231175E+04  0.19935215804E+04  0.65864270000E+03 0.  1.
    8880022    1    1    2    0    0 -0.66383455054E+02  0.10218977782E+03  0.19508476818E+04  0.19606243507E+04  0.15294330000E+03 0.  0.
<mgrwt>
<rscale>  0 0.49236287E+03</rscale>
<asrwt>0</asrwt>
<pdfrwt beam="1">  1        2 0.59866286E+00 0.66982066E+03</pdfrwt>
<pdfrwt beam="2">  1       -2 0.96673172E-02 0.66982066E+03</pdfrwt>
<totfact> 0.33653145E+01</totfact>
</mgrwt>
</event>
<event>
 4    2  0.6387803E-007  0.6682131E+03  0.7818608E-02  0.1016978E+00
         -2   -1    0    0    0  501 -0.00000000000E+00  0.00000000000E+00  0.46215648010E+03  0.46215648011E+03  0.25500000000E-02 0.  1.
          2   -1    0    0  501    0  0.00000000000E+00 -0.00000000000E+00 -0.58064343062E+03  0.58064343063E+03  0.25500000000E-02 0. -1.
    8880023    1    1    2    0    0  0.51250996175E+02  0.10035844698E+03  0.17723207724E+03  0.69131750879E+03  0.65864270000E+03 0.  1.
    8880022    1    1    2    0    0 -0.51250996175E+02 -0.10035844698E+03 -0.29571902776E+03  0.35148240195E+03  0.15294330000E+03 0.  0.
<mgrwt>
<rscale>  0 0.48793254E+03</rscale>
<asrwt>0</asrwt>
<pdfrwt beam="1">  1        2 0.89329759E-01 0.66821306E+03</pdfrwt>
<pdfrwt beam="2">  1       -2 0.71100997E-01 0.66821306E+03</pdfrwt>
<totfact> 0.94227596E+01</totfact>
</mgrwt>
</event>
<event>
 4    2  0.6387803E-007  0.7297308E+03  0.7818608E-02  0.9890938E-01
         -2   -1    0    0    0  501 -0.00000000000E+00  0.00000000000E+00  0.14774487694E+03  0.14774487697E+03  0.25500000000E-02 0.  1.
          2   -1    0    0  501    0  0.00000000000E+00 -0.00000000000E+00 -0.23167938647E+04  0.23167938647E+04  0.25500000000E-02 0. -1.
    8880023    1    1    2    0    0 -0.88586279232E+02  0.30141206808E+03 -0.95909499460E+03  0.12051432191E+04  0.65864270000E+03 0.  0.
    8880022    1    1    2    0    0  0.88586279232E+02 -0.30141206808E+03 -0.12099539931E+04  0.12593955225E+04  0.15294330000E+03 0.  0.
<mgrwt>
<rscale>  0 0.60702460E+03</rscale>
<asrwt>0</asrwt>
<pdfrwt beam="1">  1        2 0.35642980E+00 0.72973075E+03</pdfrwt>
<pdfrwt beam="2">  1       -2 0.22729983E-01 0.72973075E+03</pdfrwt>
<totfact> 0.78226261E+01</totfact>
</mgrwt>
</event>
<event>
 4    2  0.6387803E-007  0.6926402E+03  0.7818608E-02  0.1002922E+00
         -2   -1    0    0    0  501 -0.00000000000E+00  0.00000000000E+00  0.50662142289E+03  0.50662142290E+03  0.25500000000E-02 0.  1.
          2   -1    0    0  501    0  0.00000000000E+00 -0.00000000000E+00 -0.74339359782E+03  0.74339359783E+03  0.25500000000E-02 0. -1.
    8880023    1    1    2    0    0 -0.12769350519E+03  0.17214690339E+03  0.21660793156E+03  0.72571991146E+03  0.65864270000E+03 0.  0.
    8880022    1    1    2    0    0  0.12769350519E+03 -0.17214690339E+03 -0.45338010650E+03  0.52429510926E+03  0.15294330000E+03 0.  0.
<mgrwt>
<rscale>  0 0.54387281E+03</rscale>
<asrwt>0</asrwt>
<pdfrwt beam="1">  1        2 0.11436825E+00 0.69264016E+03</pdfrwt>
<pdfrwt beam="2">  1       -2 0.77941758E-01 0.69264016E+03</pdfrwt>
<totfact> 0.56572746E+01</totfact>
</mgrwt>
</event>
<event>
 4    2  0.6387803E-007  0.8518214E+03  0.7818608E-02  0.9608281E-01
         -2   -1    0    0    0  501 -0.00000000000E+00  0.00000000000E+00  0.65501322933E+03  0.65501322934E+03  0.25500000000E-02 0.  1.
          2   -1    0    0  501    0  0.00000000000E+00 -0.00000000000E+00 -0.18069483565E+04  0.18069483565E+04  0.25500000000E-02 0. -1.
    8880023    1    1    2    0    0 -0.18317879207E+03  0.50816823649E+03  0.30170791281E+03  0.90367433147E+03  0.65864270000E+03 0.  0.
    8880022    1    1    2    0    0  0.18317879207E+03 -0.50816823649E+03 -0.14536430400E+04  0.15582872544E+04  0.15294330000E+03 0.  0.
<mgrwt>
<rscale>  0 0.76750535E+03</rscale>
<asrwt>0</asrwt>
<pdfrwt beam="1">  1        2 0.27799205E+00 0.85182136E+03</pdfrwt>
<pdfrwt beam="2">  1       -2 0.10077127E+00 0.85182136E+03</pdfrwt>
<totfact> 0.70500670E+00</totfact>
</mgrwt>
</event>
<event>
 4    2  0.6387803E-007  0.6644905E+03  0.7818608E-02  0.1019965E+00
          2   -1    0    0  501    0  0.00000000000E+00  0.00000000000E+00  0.33560197204E+03  0.33560197205E+03  0.25500000000E-02 0. -1.
         -2   -1    0    0    0  501 -0.00000000000E+00 -0.00000000000E+00 -0.78210970449E+03  0.78210970450E+03  0.25500000000E-02 0.  1.
    8880023    1    1    2    0    0 -0.65296062088E+02 -0.58938873392E+02 -0.59128933110E+03  0.88947773770E+03  0.65864270000E+03 0.  1.
    8880022    1    1    2    0    0  0.65296062088E+02  0.58938873392E+02  0.14478159864E+03  0.22823393885E+03  0.15294330000E+03 0.  0.
<mgrwt>
<rscale>  0 0.47699326E+03</rscale>
<asrwt>0</asrwt>
<pdfrwt beam="1">  1        2 0.51631073E-01 0.66449046E+03</pdfrwt>
<pdfrwt beam="2">  1       -2 0.12032457E+00 0.66449046E+03</pdfrwt>
<totfact> 0.51914489E+01</totfact>
</mgrwt>
</event>
<event>
 4    2  0.6387803E-007  0.7265217E+03  0.7818608E-02  0.9901106E-01
         -2   -1    0    0    0  501 -0.00000000000E+00  0.00000000000E+00  0.96137106630E+02  0.96137106664E+02  0.25500000000E-02 0.  1.
          2   -1    0    0  501    0  0.00000000000E+00 -0.00000000000E+00 -0.41947378955E+04  0.41947378955E+04  0.25500000000E-02 0. -1.
    8880023    1    1    2    0    0 -0.27549281661E+03  0.13463766761E+03 -0.14668713126E+04  0.16369316563E+04  0.65864270000E+03 0.  0.
    8880022    1    1    2    0    0  0.27549281661E+03 -0.13463766761E+03 -0.26317294763E+04  0.26539433458E+04  0.15294330000E+03 0.  0.
<mgrwt>
<rscale>  0 0.60207696E+03</rscale>
<asrwt>0</asrwt>
<pdfrwt beam="1">  1        2 0.64534415E+00 0.72652171E+03</pdfrwt>
<pdfrwt beam="2">  1       -2 0.14790327E-01 0.72652171E+03</pdfrwt>
<totfact> 0.94236419E+00</totfact>
</mgrwt>
</event>
<event>
 4    2  0.6387803E-007  0.8316806E+03  0.7818608E-02  0.9646071E-01
         -2   -1    0    0    0  501 -0.00000000000E+00  0.00000000000E+00  0.50613310391E+03  0.50613310392E+03  0.25500000000E-02 0.  1.
          2   -1    0    0  501    0  0.00000000000E+00 -0.00000000000E+00 -0.10400753447E+04  0.10400753447E+04  0.25500000000E-02 0. -1.
    8880023    1    1    2    0    0 -0.49617259229E+03 -0.10814389103E+03 -0.58149514363E+02  0.83371092999E+03  0.65864270000E+03 0.  1.
    8880022    1    1    2    0    0  0.49617259229E+03  0.10814389103E+03 -0.47579272638E+03  0.71249751859E+03  0.15294330000E+03 0.  0.
<mgrwt>
<rscale>  0 0.74320498E+03</rscale>
<asrwt>0</asrwt>
<pdfrwt beam="1">  1        2 0.16001159E+00 0.83168056E+03</pdfrwt>
<pdfrwt beam="2">  1       -2 0.77866632E-01 0.83168056E+03</pdfrwt>
<totfact> 0.35193325E+01</totfact>
</mgrwt>
</event>
<event>
 4    2  0.6387803E-007  0.7751417E+03  0.7818608E-02  0.9767375E-01
         -2   -1    0    0    0  501 -0.00000000000E+00  0.00000000000E+00  0.19994781383E+03  0.19994781384E+03  0.25500000000E-02 0.  1.
          2   -1    0    0  501    0  0.00000000000E+00 -0.00000000000E+00 -0.20869841781E+04  0.20869841781E+04  0.25500000000E-02 0. -1.
    8880023    1    1    2    0    0  0.36266840040E+03 -0.18843067152E+03 -0.79224398388E+03  0.11083750371E+04  0.65864270000E+03 0.  0.
    8880022    1    1    2    0    0 -0.36266840040E+03  0.18843067152E+03 -0.10947923803E+04  0.11785569548E+04  0.15294330000E+03 0.  0.
<mgrwt>
<rscale>  0 0.67143141E+03</rscale>
<asrwt>0</asrwt>
<pdfrwt beam="1">  1        2 0.32107447E+00 0.77514172E+03</pdfrwt>
<pdfrwt beam="2">  1       -2 0.30761204E-01 0.77514172E+03</pdfrwt>
<totfact> 0.60058876E+01</totfact>
</mgrwt>
</event>
<event>
 4    2  0.6387803E-007  0.6632681E+03  0.7818608E-02  0.1021033E+00
         -2   -1    0    0    0  501 -0.00000000000E+00  0.00000000000E+00  0.22535074035E+03  0.22535074036E+03  0.25500000000E-02 0.  1.
          2   -1    0    0  501    0  0.00000000000E+00 -0.00000000000E+00 -0.30286825716E+04  0.30286825716E+04  0.25500000000E-02 0. -1.
    8880023    1    1    2    0    0 -0.57190894846E+02  0.53324887078E+02 -0.27199051010E+03  0.71687055030E+03  0.65864270000E+03 0.  1.
    8880022    1    1    2    0    0  0.57190894846E+02 -0.53324887078E+02 -0.25313413212E+04  0.25371627617E+04  0.15294330000E+03 0.  0.
<mgrwt>
<rscale>  0 0.47315737E+03</rscale>
<asrwt>0</asrwt>
<pdfrwt beam="1">  1        2 0.46595114E+00 0.66326808E+03</pdfrwt>
<pdfrwt beam="2">  1       -2 0.34669347E-01 0.66326808E+03</pdfrwt>
<totfact> 0.14065090E+01</totfact>
</mgrwt>
</event>
<event>
 4    2  0.6387803E-007  0.7660843E+03  0.7818608E-02  0.9789603E-01
         -2   -1    0    0    0  501 -0.00000000000E+00  0.00000000000E+00  0.10731967414E+04  0.10731967414E+04  0.25500000000E-02 0.  1.
          2   -1    0    0  501    0  0.00000000000E+00 -0.00000000000E+00 -0.97025625505E+03  0.97025625505E+03  0.25500000000E-02 0. -1.
    8880023    1    1    2    0    0  0.22569134027E+03  0.31959084875E+03  0.87594072250E+03  0.11636826231E+04  0.65864270000E+03 0.  1.
    8880022    1    1    2    0    0 -0.22569134027E+03 -0.31959084875E+03 -0.77300023618E+03  0.87977037335E+03  0.15294330000E+03 0.  0.
<mgrwt>
<rscale>  0 0.65923492E+03</rscale>
<asrwt>0</asrwt>
<pdfrwt beam="1">  1        2 0.14927019E+00 0.76608426E+03</pdfrwt>
<pdfrwt beam="2">  1       -2 0.16510719E+00 0.76608426E+03</pdfrwt>
<totfact> 0.61903378E+00</totfact>
</mgrwt>
</event>
<event>
 4    2  0.6387803E-007  0.7293029E+03  0.7818608E-02  0.9892280E-01
          2   -1    0    0  501    0  0.00000000000E+00  0.00000000000E+00  0.33572733584E+03  0.33572733585E+03  0.25500000000E-02 0. -1.
         -2   -1    0    0    0  501 -0.00000000000E+00 -0.00000000000E+00 -0.11406734816E+04  0.11406734816E+04  0.25500000000E-02 0.  1.
    8880023    1    1    2    0    0 -0.25502038811E+03  0.18176131611E+03 -0.85557079285E+03  0.11242260281E+04  0.65864270000E+03 0.  0.
    8880022    1    1    2    0    0  0.25502038811E+03 -0.18176131611E+03  0.50624647057E+02  0.35217478940E+03  0.15294330000E+03 0.  0.
<mgrwt>
<rscale>  0 0.60636905E+03</rscale>
<asrwt>0</asrwt>
<pdfrwt beam="1">  1        2 0.51650360E-01 0.72930294E+03</pdfrwt>
<pdfrwt beam="2">  1       -2 0.17548823E+00 0.72930294E+03</pdfrwt>
<totfact> 0.19182460E+01</totfact>
</mgrwt>
</event>
<event>
 4    2  0.6387803E-007  0.7354577E+03  0.7818608E-02  0.9873381E-01
         -2   -1    0    0    0  501 -0.00000000000E+00  0.00000000000E+00  0.91021527598E+03  0.91021527598E+03  0.25500000000E-02 0.  1.
          2   -1    0    0  501    0  0.00000000000E+00 -0.00000000000E+00 -0.38193681414E+03  0.38193681414E+03  0.25500000000E-02 0. -1.
    8880023    1    1    2    0    0  0.24680256918E+03  0.21488681831E+03  0.56729981236E+03  0.92883105902E+03  0.65864270000E+03 0.  1.
    8880022    1    1    2    0    0 -0.24680256918E+03 -0.21488681831E+03 -0.39021350512E+02  0.36332103111E+03  0.15294330000E+03 0.  0.
<mgrwt>
<rscale>  0 0.61568854E+03</rscale>
<asrwt>0</asrwt>
<pdfrwt beam="1">  1        2 0.58759510E-01 0.73545772E+03</pdfrwt>
<pdfrwt beam="2">  1       -2 0.14003312E+00 0.73545772E+03</pdfrwt>
<totfact> 0.30464720E+01</totfact>
</mgrwt>
</event>
<event>
 4    2  0.6387803E-007  0.7860732E+03  0.7818608E-02  0.9741759E-01
         -2   -1    0    0    0  501 -0.00000000000E+00  0.00000000000E+00  0.66711289063E+03  0.66711289063E+03  0.25500000000E-02 0.  1.
          2   -1    0    0  501    0  0.00000000000E+00 -0.00000000000E+00 -0.59421255866E+03  0.59421255866E+03  0.25500000000E-02 0. -1.
    8880023    1    1    2    0    0 -0.11897731733E+03 -0.41224423306E+03 -0.55590612226E+02  0.78803644088E+03  0.65864270000E+03 0. -1.
    8880022    1    1    2    0    0  0.11897731733E+03  0.41224423306E+03  0.12849094420E+03  0.47328900841E+03  0.15294330000E+03 0.  1.
<mgrwt>
<rscale>  0 0.68583962E+03</rscale>
<asrwt>0</asrwt>
<pdfrwt beam="1">  1        2 0.91417317E-01 0.78607323E+03</pdfrwt>
<pdfrwt beam="2">  1       -2 0.10263275E+00 0.78607323E+03</pdfrwt>
<totfact> 0.39341399E+01</totfact>
</mgrwt>
</event>
<event>
 4    2  0.6387803E-007  0.6774350E+03  0.7818608E-02  0.1010813E+00
         -2   -1    0    0    0  501 -0.00000000000E+00  0.00000000000E+00  0.31688526247E+03  0.31688526248E+03  0.25500000000E-02 0.  1.
          2   -1    0    0  501    0  0.00000000000E+00 -0.00000000000E+00 -0.10883076824E+04  0.10883076824E+04  0.25500000000E-02 0. -1.
    8880023    1    1    2    0    0 -0.10112141742E+03  0.12199347142E+03 -0.83117330783E+02  0.68251494128E+03  0.65864270000E+03 0.  1.
    8880022    1    1    2    0    0  0.10112141742E+03 -0.12199347142E+03 -0.68830508916E+03  0.72267800362E+03  0.15294330000E+03 0.  0.
<mgrwt>
<rscale>  0 0.51152632E+03</rscale>
<asrwt>0</asrwt>
<pdfrwt beam="1">  1        2 0.16743195E+00 0.67743498E+03</pdfrwt>
<pdfrwt beam="2">  1       -2 0.48751579E-01 0.67743498E+03</pdfrwt>
<totfact> 0.90097214E+01</totfact>
</mgrwt>
</event>
<event>
 4    2  0.6387803E-007  0.9801290E+03  0.7818608E-02  0.9408029E-01
          2   -1    0    0  501    0  0.00000000000E+00  0.00000000000E+00  0.10502232379E+04  0.10502232379E+04  0.25500000000E-02 0. -1.
         -2   -1    0    0    0  501 -0.00000000000E+00 -0.00000000000E+00 -0.70843443710E+03  0.70843443711E+03  0.25500000000E-02 0.  1.
    8880023    1    1    2    0    0  0.55764021778E+03 -0.46462891578E+03  0.24763527590E+03  0.10109283249E+04  0.65864270000E+03 0. -1.
    8880022    1    1    2    0    0 -0.55764021778E+03  0.46462891578E+03  0.94153524928E+02  0.74772935019E+03  0.15294330000E+03 0.  1.
<mgrwt>
<rscale>  0 0.91417825E+03</rscale>
<asrwt>0</asrwt>
<pdfrwt beam="1">  1        2 0.16157280E+00 0.98012900E+03</pdfrwt>
<pdfrwt beam="2">  1       -2 0.10898991E+00 0.98012900E+03</pdfrwt>
<totfact> 0.15643412E+01</totfact>
</mgrwt>
</event>
<event>
 4    2  0.6387803E-007  0.1538851E+04  0.7818608E-02  0.8882678E-01
          2   -1    0    0  501    0  0.00000000000E+00  0.00000000000E+00  0.29896269772E+04  0.29896269772E+04  0.25500000000E-02 0. -1.
         -2   -1    0    0    0  501 -0.00000000000E+00 -0.00000000000E+00 -0.16449090949E+04  0.16449090949E+04  0.25500000000E-02 0.  1.
    8880023    1    1    2    0    0 -0.13752117537E+04  0.20747466685E+03 -0.10486601298E+04  0.18621899417E+04  0.65864270000E+03 0.  0.
    8880022    1    1    2    0    0  0.13752117537E+04 -0.20747466685E+03  0.23933780121E+04  0.27723461304E+04  0.15294330000E+03 0.  0.
<mgrwt>
<rscale>  0 0.15026721E+04</rscale>
<asrwt>0</asrwt>
<pdfrwt beam="1">  1        2 0.45994260E+00 0.15388513E+04</pdfrwt>
<pdfrwt beam="2">  1       -2 0.25306294E+00 0.15388513E+04</pdfrwt>
<totfact> 0.10176257E-01</totfact>
</mgrwt>
</event>
<event>
 4    2  0.6387803E-007  0.7238916E+03  0.7818608E-02  0.9909631E-01
         -2   -1    0    0    0  501 -0.00000000000E+00  0.00000000000E+00  0.55322748451E+03  0.55322748451E+03  0.25500000000E-02 0.  1.
          2   -1    0    0  501    0  0.00000000000E+00 -0.00000000000E+00 -0.24719221006E+04  0.24719221007E+04  0.25500000000E-02 0. -1.
    8880023    1    1    2    0    0  0.11869546129E+03 -0.27589902309E+03  0.29810759962E+03  0.78287114565E+03  0.65864270000E+03 0.  1.
    8880022    1    1    2    0    0 -0.11869546129E+03  0.27589902309E+03 -0.22168022158E+04  0.22422784395E+04  0.15294330000E+03 0.  0.
<mgrwt>
<rscale>  0 0.59796768E+03</rscale>
<asrwt>0</asrwt>
<pdfrwt beam="1">  1        2 0.38029570E+00 0.72389163E+03</pdfrwt>
<pdfrwt beam="2">  1       -2 0.85111922E-01 0.72389163E+03</pdfrwt>
<totfact> 0.45762760E+00</totfact>
</mgrwt>
</event>
<event>
 4    2  0.6387803E-007  0.9181846E+03  0.7818608E-02  0.9497448E-01
          2   -1    0    0  501    0  0.00000000000E+00  0.00000000000E+00  0.26309765462E+04  0.26309765462E+04  0.25500000000E-02 0. -1.
         -2   -1    0    0    0  501 -0.00000000000E+00 -0.00000000000E+00 -0.35784492482E+03  0.35784492483E+03  0.25500000000E-02 0.  1.
    8880023    1    1    2    0    0 -0.26767445340E+03  0.58103624615E+03  0.39628274173E+03  0.10000514737E+04  0.65864270000E+03 0.  0.
    8880022    1    1    2    0    0  0.26767445340E+03 -0.58103624615E+03  0.18768488796E+04  0.19887699974E+04  0.15294330000E+03 0. -1.
<mgrwt>
<rscale>  0 0.84472215E+03</rscale>
<asrwt>0</asrwt>
<pdfrwt beam="1">  1        2 0.40476563E+00 0.91818459E+03</pdfrwt>
<pdfrwt beam="2">  1       -2 0.55053064E-01 0.91818459E+03</pdfrwt>
<totfact> 0.92860046E+00</totfact>
</mgrwt>
</event>
<event>
 4    2  0.6387803E-007  0.8693960E+03  0.7818608E-02  0.9577063E-01
          2   -1    0    0  501    0  0.00000000000E+00  0.00000000000E+00  0.11712270253E+04  0.11712270253E+04  0.25500000000E-02 0. -1.
         -2   -1    0    0    0  501 -0.00000000000E+00 -0.00000000000E+00 -0.89640320042E+03  0.89640320042E+03  0.25500000000E-02 0.  1.
    8880023    1    1    2    0    0 -0.35952387083E+03  0.43906922229E+03 -0.56918552056E+03  0.10391446284E+04  0.65864270000E+03 0.  1.
    8880022    1    1    2    0    0  0.35952387083E+03 -0.43906922229E+03  0.84400934541E+03  0.10284855973E+04  0.15294330000E+03 0.  0.
<mgrwt>
<rscale>  0 0.78833057E+03</rscale>
<asrwt>0</asrwt>
<pdfrwt beam="1">  1        2 0.18018877E+00 0.86939600E+03</pdfrwt>
<pdfrwt beam="2">  1       -2 0.13790818E+00 0.86939600E+03</pdfrwt>
<totfact> 0.74005918E+00</totfact>
</mgrwt>
</event>
<event>
 4    2  0.6387803E-007  0.7136238E+03  0.7818608E-02  0.9944783E-01
          2   -1    0    0  501    0  0.00000000000E+00  0.00000000000E+00  0.22318115484E+04  0.22318115484E+04  0.25500000000E-02 0. -1.
         -2   -1    0    0    0  501 -0.00000000000E+00 -0.00000000000E+00 -0.14659511425E+03  0.14659511427E+03  0.25500000000E-02 0.  1.
    8880023    1    1    2    0    0  0.53865327496E+02 -0.26934597171E+03  0.18584958473E+04  0.19907952548E+04  0.65864270000E+03 0. -1.
    8880022    1    1    2    0    0 -0.53865327496E+02  0.26934597171E+03  0.22672058689E+03  0.38761140787E+03  0.15294330000E+03 0.  1.
<mgrwt>
<rscale>  0 0.58139166E+03</rscale>
<asrwt>0</asrwt>
<pdfrwt beam="1">  1        2 0.34335561E+00 0.71362380E+03</pdfrwt>
<pdfrwt beam="2">  1       -2 0.22553096E-01 0.71362380E+03</pdfrwt>
<totfact> 0.88569048E+01</totfact>
</mgrwt>
</event>
<event>
 4    2  0.6387803E-007  0.7705229E+03  0.7818608E-02  0.9778589E-01
         -2   -1    0    0    0  501 -0.00000000000E+00  0.00000000000E+00  0.72160969750E+03  0.72160969751E+03  0.25500000000E-02 0.  1.
          2   -1    0    0  501    0  0.00000000000E+00 -0.00000000000E+00 -0.17377361360E+04  0.17377361360E+04  0.25500000000E-02 0. -1.
    8880023    1    1    2    0    0  0.26429479358E+03  0.30007257092E+03  0.47688891943E+03  0.90616142793E+03  0.65864270000E+03 0.  1.
    8880022    1    1    2    0    0 -0.26429479358E+03 -0.30007257092E+03 -0.14930153579E+04  0.15531844056E+04  0.15294330000E+03 0.  0.
<mgrwt>
<rscale>  0 0.66524342E+03</rscale>
<asrwt>0</asrwt>
<pdfrwt beam="1">  1        2 0.26734402E+00 0.77052287E+03</pdfrwt>
<pdfrwt beam="2">  1       -2 0.11101688E+00 0.77052287E+03</pdfrwt>
<totfact> 0.61641312E+00</totfact>
</mgrwt>
</event>
<event>
 4    2  0.6387803E-007  0.6911036E+03  0.7818608E-02  0.1003632E+00
         -2   -1    0    0    0  501 -0.00000000000E+00  0.00000000000E+00  0.30300752610E+03  0.30300752612E+03  0.25500000000E-02 0.  1.
          2   -1    0    0  501    0  0.00000000000E+00 -0.00000000000E+00 -0.84929837729E+03  0.84929837729E+03  0.25500000000E-02 0. -1.
    8880023    1    1    2    0    0  0.12192730662E+03 -0.17014008657E+03 -0.19948796881E+03  0.71931882578E+03  0.65864270000E+03 0. -1.
    8880022    1    1    2    0    0 -0.12192730662E+03  0.17014008657E+03 -0.34680288237E+03  0.43298707763E+03  0.15294330000E+03 0.  1.
<mgrwt>
<rscale>  0 0.54085768E+03</rscale>
<asrwt>0</asrwt>
<pdfrwt beam="1">  1        2 0.13066129E+00 0.69110355E+03</pdfrwt>
<pdfrwt beam="2">  1       -2 0.46616543E-01 0.69110355E+03</pdfrwt>
<totfact> 0.14071395E+02</totfact>
</mgrwt>
</event>
<event>
 4    2  0.9724312E-007  0.7555009E+03  0.7818608E-02  0.9816897E-01
          2   -1    0    0  501    0  0.00000000000E+00  0.00000000000E+00  0.21592437681E+04  0.21592437681E+04  0.25500000000E-02 0. -1.
         -2   -1    0    0    0  501 -0.00000000000E+00 -0.00000000000E+00 -0.13054604279E+04  0.13054604279E+04  0.25500000000E-02 0.  1.
    8880023    1    1    2    0    0  0.34802492544E+03  0.12589722612E+03 -0.11749170885E+04  0.13968578422E+04  0.65864270000E+03 0.  0.
    8880022    1    1    2    0    0 -0.34802492544E+03 -0.12589722612E+03  0.20287004287E+04  0.20678463538E+04  0.15294330000E+03 0.  0.
<mgrwt>
<rscale>  0 0.64463564E+03</rscale>
<asrwt>0</asrwt>
<pdfrwt beam="1">  1        2 0.33219135E+00 0.75550094E+03</pdfrwt>
<pdfrwt beam="2">  1       -2 0.20084007E+00 0.75550094E+03</pdfrwt>
<totfact> 0.74846454E-01</totfact>
</mgrwt>
</event>
<event>
 4    2  0.6387803E-007  0.7057838E+03  0.7818608E-02  0.9974004E-01
          2   -1    0    0  501    0  0.00000000000E+00  0.00000000000E+00  0.61275822376E+03  0.61275822377E+03  0.25500000000E-02 0. -1.
         -2   -1    0    0    0  501 -0.00000000000E+00 -0.00000000000E+00 -0.51761985675E+03  0.51761985676E+03  0.25500000000E-02 0.  1.
    8880023    1    1    2    0    0 -0.38038909276E+02 -0.25074602289E+03 -0.17757569798E+03  0.72778009137E+03  0.65864270000E+03 0.  1.
    8880022    1    1    2    0    0  0.38038909276E+02  0.25074602289E+03  0.27271406499E+03  0.40259798916E+03  0.15294330000E+03 0.  0.
<mgrwt>
<rscale>  0 0.56804958E+03</rscale>
<asrwt>0</asrwt>
<pdfrwt beam="1">  1        2 0.94270495E-01 0.70578377E+03</pdfrwt>
<pdfrwt beam="2">  1       -2 0.79633825E-01 0.70578377E+03</pdfrwt>
<totfact> 0.68536141E+01</totfact>
</mgrwt>
</event>
<event>
 4    2  0.6387803E-007  0.7653452E+03  0.7818608E-02  0.9791461E-01
          2   -1    0    0  501    0  0.00000000000E+00  0.00000000000E+00  0.11138289100E+04  0.11138289100E+04  0.25500000000E-02 0. -1.
         -2   -1    0    0    0  501 -0.00000000000E+00 -0.00000000000E+00 -0.86268640781E+03  0.86268640781E+03  0.25500000000E-02 0.  1.
    8880023    1    1    2    0    0 -0.24045875217E+03 -0.30679414306E+03 -0.63626232151E+03  0.99528036540E+03  0.65864270000E+03 0.  1.
    8880022    1    1    2    0    0  0.24045875217E+03  0.30679414306E+03  0.88740482371E+03  0.98123495243E+03  0.15294330000E+03 0.  0.
<mgrwt>
<rscale>  0 0.65822823E+03</rscale>
<asrwt>0</asrwt>
<pdfrwt beam="1">  1        2 0.17135829E+00 0.76534519E+03</pdfrwt>
<pdfrwt beam="2">  1       -2 0.13272099E+00 0.76534519E+03</pdfrwt>
<totfact> 0.89522900E+00</totfact>
</mgrwt>
</event>
<event>
 4    2  0.6387803E-007  0.6841213E+03  0.7818608E-02  0.1007082E+00
          2   -1    0    0  501    0  0.00000000000E+00  0.00000000000E+00  0.26881043271E+04  0.26881043271E+04  0.25500000000E-02 0. -1.
         -2   -1    0    0    0  501 -0.00000000000E+00 -0.00000000000E+00 -0.13673968555E+03  0.13673968557E+03  0.25500000000E-02 0.  1.
    8880023    1    1    2    0    0 -0.17381218128E+03  0.63253889821E+02  0.78089493622E+03  0.10381805414E+04  0.65864270000E+03 0.  0.
    8880022    1    1    2    0    0  0.17381218128E+03 -0.63253889821E+02  0.17704697054E+04  0.17866634713E+04  0.15294330000E+03 0.  0.
<mgrwt>
<rscale>  0 0.52650903E+03</rscale>
<asrwt>0</asrwt>
<pdfrwt beam="1">  1        2 0.41355451E+00 0.68412129E+03</pdfrwt>
<pdfrwt beam="2">  1       -2 0.21036875E-01 0.68412129E+03</pdfrwt>
<totfact> 0.55606099E+01</totfact>
</mgrwt>
</event>
<event>
 4    2  0.6387803E-007  0.1158189E+04  0.7818608E-02  0.9198877E-01
          2   -1    0    0  501    0  0.00000000000E+00  0.00000000000E+00  0.11935070081E+04  0.11935070081E+04  0.25500000000E-02 0. -1.
         -2   -1    0    0    0  501 -0.00000000000E+00 -0.00000000000E+00 -0.15072598869E+04  0.15072598869E+04  0.25500000000E-02 0.  1.
    8880023    1    1    2    0    0  0.13180281754E+03  0.94351488103E+03 -0.98906820912E+03  0.15230424951E+04  0.65864270000E+03 0.  0.
    8880022    1    1    2    0    0 -0.13180281754E+03 -0.94351488103E+03  0.67531533033E+03  0.11777243998E+04  0.15294330000E+03 0.  0.
<mgrwt>
<rscale>  0 0.11065026E+04</rscale>
<asrwt>0</asrwt>
<pdfrwt beam="1">  1        2 0.18361646E+00 0.11581893E+04</pdfrwt>
<pdfrwt beam="2">  1       -2 0.23188614E+00 0.11581893E+04</pdfrwt>
<totfact> 0.15523868E+00</totfact>
</mgrwt>
</event>
<event>
 4    2  0.6387803E-007  0.6945431E+03  0.7818608E-02  0.1002064E+00
          2   -1    0    0  501    0  0.00000000000E+00  0.00000000000E+00  0.68537183723E+03  0.68537183724E+03  0.25500000000E-02 0. -1.
         -2   -1    0    0    0  501 -0.00000000000E+00 -0.00000000000E+00 -0.10725683760E+04  0.10725683760E+04  0.25500000000E-02 0.  1.
    8880023    1    1    2    0    0 -0.18939057670E+03 -0.11274331146E+03 -0.92512490691E+03  0.11568258920E+04  0.65864270000E+03 0.  1.
    8880022    1    1    2    0    0  0.18939057670E+03  0.11274331146E+03  0.53792836818E+03  0.60111432118E+03  0.15294330000E+03 0.  0.
<mgrwt>
<rscale>  0 0.54754453E+03</rscale>
<asrwt>0</asrwt>
<pdfrwt beam="1">  1        2 0.10544182E+00 0.69454305E+03</pdfrwt>
<pdfrwt beam="2">  1       -2 0.16501052E+00 0.69454305E+03</pdfrwt>
<totfact> 0.99637726E+00</totfact>
</mgrwt>
</event>
<event>
 4    2  0.4448981E-006  0.1047333E+04  0.7818608E-02  0.9322094E-01
          2   -1    0    0  501    0  0.00000000000E+00  0.00000000000E+00  0.29215790171E+04  0.29215790171E+04  0.25500000000E-02 0. -1.
         -2   -1    0    0    0  501 -0.00000000000E+00 -0.00000000000E+00 -0.20669544422E+04  0.20669544422E+04  0.25500000000E-02 0.  1.
    8880023    1    1    2    0    0 -0.65930498444E+03  0.47792679839E+03 -0.18685777256E+04  0.21420760981E+04  0.65864270000E+03 0.  0.
    8880022    1    1    2    0    0  0.65930498444E+03 -0.47792679839E+03  0.27232023005E+04  0.28464573613E+04  0.15294330000E+03 0.  0.
<mgrwt>
<rscale>  0 0.98774059E+03</rscale>
<asrwt>0</asrwt>
<pdfrwt beam="1">  1        2 0.44947369E+00 0.10473334E+04</pdfrwt>
<pdfrwt beam="2">  1       -2 0.31799299E+00 0.10473334E+04</pdfrwt>
<totfact> 0.48944211E-02</totfact>
</mgrwt>
</event>
<event>
 4    2  0.6387803E-007  0.7140214E+03  0.7818608E-02  0.9943360E-01
          2   -1    0    0  501    0  0.00000000000E+00  0.00000000000E+00  0.78727265286E+03  0.78727265286E+03  0.25500000000E-02 0. -1.
         -2   -1    0    0    0  501 -0.00000000000E+00 -0.00000000000E+00 -0.39141546762E+03  0.39141546762E+03  0.25500000000E-02 0.  1.
    8880023    1    1    2    0    0  0.26971285281E+03  0.57195114373E+02  0.57701194609E+02  0.71634903378E+03  0.65864270000E+03 0.  0.
    8880022    1    1    2    0    0 -0.26971285281E+03 -0.57195114373E+02  0.33815599063E+03  0.46233908670E+03  0.15294330000E+03 0.  1.
<mgrwt>
<rscale>  0 0.58205101E+03</rscale>
<asrwt>0</asrwt>
<pdfrwt beam="1">  1        2 0.12111887E+00 0.71402137E+03</pdfrwt>
<pdfrwt beam="2">  1       -2 0.60217765E-01 0.71402137E+03</pdfrwt>
<totfact> 0.91795277E+01</totfact>
</mgrwt>
</event>
<event>
 4    2  0.6387803E-007  0.7360927E+03  0.7818608E-02  0.9871479E-01
         -2   -1    0    0    0  501 -0.00000000000E+00  0.00000000000E+00  0.12762498555E+04  0.12762498555E+04  0.25500000000E-02 0.  1.
          2   -1    0    0  501    0  0.00000000000E+00 -0.00000000000E+00 -0.32572046395E+03  0.32572046396E+03  0.25500000000E-02 0. -1.
    8880023    1    1    2    0    0 -0.32797913348E+03 -0.21257828984E+02  0.99398290957E+03  0.12368647614E+04  0.65864270000E+03 0.  0.
    8880022    1    1    2    0    0  0.32797913348E+03  0.21257828984E+02 -0.43453517988E+02  0.36510555807E+03  0.15294330000E+03 0.  0.
<mgrwt>
<rscale>  0 0.61663691E+03</rscale>
<asrwt>0</asrwt>
<pdfrwt beam="1">  1        2 0.50110841E-01 0.73609267E+03</pdfrwt>
<pdfrwt beam="2">  1       -2 0.19634613E+00 0.73609267E+03</pdfrwt>
<totfact> 0.14342240E+01</totfact>
</mgrwt>
</event>
<event>
 4    2  0.6387803E-007  0.6933266E+03  0.7818608E-02  0.1002610E+00
          2   -1    0    0  501    0  0.00000000000E+00  0.00000000000E+00  0.79804452098E+03  0.79804452099E+03  0.25500000000E-02 0. -1.
         -2   -1    0    0    0  501 -0.00000000000E+00 -0.00000000000E+00 -0.33490490879E+03  0.33490490880E+03  0.25500000000E-02 0.  1.
    8880023    1    1    2    0    0  0.39216951943E+02 -0.21296391236E+03  0.12702792235E+03  0.70486729007E+03  0.65864270000E+03 0.  1.
    8880022    1    1    2    0    0 -0.39216951943E+02  0.21296391236E+03  0.33611168984E+03  0.42808213972E+03  0.15294330000E+03 0.  0.
<mgrwt>
<rscale>  0 0.54520507E+03</rscale>
<asrwt>0</asrwt>
<pdfrwt beam="1">  1        2 0.12277608E+00 0.69332662E+03</pdfrwt>
<pdfrwt beam="2">  1       -2 0.51523832E-01 0.69332662E+03</pdfrwt>
<totfact> 0.12485443E+02</totfact>
</mgrwt>
</event>
<event>
 4    2  0.6387803E-007  0.6948268E+03  0.7818608E-02  0.1001938E+00
         -2   -1    0    0    0  501 -0.00000000000E+00  0.00000000000E+00  0.12032591191E+03  0.12032591193E+03  0.25500000000E-02 0.  1.
          2   -1    0    0  501    0  0.00000000000E+00 -0.00000000000E+00 -0.37911476203E+04  0.37911476203E+04  0.25500000000E-02 0. -1.
    8880023    1    1    2    0    0 -0.18930123681E+03  0.11462611749E+03 -0.94785133200E+03  0.11752474033E+04  0.65864270000E+03 0.  1.
    8880022    1    1    2    0    0  0.18930123681E+03 -0.11462611749E+03 -0.27229703764E+04  0.27362261290E+04  0.15294330000E+03 0.  0.
<mgrwt>
<rscale>  0 0.54808646E+03</rscale>
<asrwt>0</asrwt>
<pdfrwt beam="1">  1        2 0.58325339E+00 0.69482682E+03</pdfrwt>
<pdfrwt beam="2">  1       -2 0.18511682E-01 0.69482682E+03</pdfrwt>
<totfact> 0.13435328E+01</totfact>
</mgrwt>
</event>
<event>
 4    2  0.6387803E-007  0.7041736E+03  0.7818608E-02  0.9980309E-01
          2   -1    0    0  501    0  0.00000000000E+00  0.00000000000E+00  0.31050117375E+04  0.31050117375E+04  0.25500000000E-02 0. -1.
         -2   -1    0    0    0  501 -0.00000000000E+00 -0.00000000000E+00 -0.25162722090E+03  0.25162722091E+03  0.25500000000E-02 0.  1.
    8880023    1    1    2    0    0  0.23567750208E+02 -0.24798140272E+03  0.26591212698E+03  0.75270823065E+03  0.65864270000E+03 0.  0.
    8880022    1    1    2    0    0 -0.23567750208E+02  0.24798140272E+03  0.25874723896E+04  0.26039307278E+04  0.15294330000E+03 0.  0.
<mgrwt>
<rscale>  0 0.56522145E+03</rscale>
<asrwt>0</asrwt>
<pdfrwt beam="1">  1        2 0.47769409E+00 0.70417357E+03</pdfrwt>
<pdfrwt beam="2">  1       -2 0.38711882E-01 0.70417357E+03</pdfrwt>
<totfact> 0.10130773E+01</totfact>
</mgrwt>
</event>
<event>
 4    2  0.6387803E-007  0.6908254E+03  0.7818608E-02  0.1003763E+00
          2   -1    0    0  501    0  0.00000000000E+00  0.00000000000E+00  0.38553093922E+03  0.38553093923E+03  0.25500000000E-02 0. -1.
         -2   -1    0    0    0  501 -0.00000000000E+00 -0.00000000000E+00 -0.10883082176E+04  0.10883082176E+04  0.25500000000E-02 0.  1.
    8880023    1    1    2    0    0 -0.10356389533E+03 -0.18084245284E+03 -0.91001439078E+03  0.11425260920E+04  0.65864270000E+03 0.  1.
    8880022    1    1    2    0    0  0.10356389533E+03  0.18084245284E+03  0.20723711241E+03  0.33131306485E+03  0.15294330000E+03 0.  0.
<mgrwt>
<rscale>  0 0.54030679E+03</rscale>
<asrwt>0</asrwt>
<pdfrwt beam="1">  1        2 0.59312453E-01 0.69082536E+03</pdfrwt>
<pdfrwt beam="2">  1       -2 0.16743203E+00 0.69082536E+03</pdfrwt>
<totfact> 0.18791843E+01</totfact>
</mgrwt>
</event>
<event>
 4    2  0.6387803E-007  0.8273844E+03  0.7818608E-02  0.9654443E-01
         -2   -1    0    0    0  501 -0.00000000000E+00  0.00000000000E+00  0.31782179611E+03  0.31782179612E+03  0.25500000000E-02 0.  1.
          2   -1    0    0  501    0  0.00000000000E+00 -0.00000000000E+00 -0.29017154788E+04  0.29017154788E+04  0.25500000000E-02 0. -1.
    8880023    1    1    2    0    0  0.35267551335E+03  0.35549228085E+03 -0.30586354364E+03  0.88210968312E+03  0.65864270000E+03 0.  1.
    8880022    1    1    2    0    0 -0.35267551335E+03 -0.35549228085E+03 -0.22780301390E+04  0.23374275918E+04  0.15294330000E+03 0.  0.
<mgrwt>
<rscale>  0 0.73795237E+03</rscale>
<asrwt>0</asrwt>
<pdfrwt beam="1">  1        2 0.44641775E+00 0.82738442E+03</pdfrwt>
<pdfrwt beam="2">  1       -2 0.48895663E-01 0.82738442E+03</pdfrwt>
<totfact> 0.83109292E+00</totfact>
</mgrwt>
</event>
<event>
 4    2  0.6387803E-007  0.9095536E+03  0.7818608E-02  0.9510866E-01
          2   -1    0    0  501    0  0.00000000000E+00  0.00000000000E+00  0.76113371641E+03  0.76113371641E+03  0.25500000000E-02 0. -1.
         -2   -1    0    0    0  501 -0.00000000000E+00 -0.00000000000E+00 -0.10129962894E+04  0.10129962894E+04  0.25500000000E-02 0.  1.
    8880023    1    1    2    0    0  0.56234428653E+03 -0.27793249875E+03 -0.55005402700E+03  0.10629427122E+04  0.65864270000E+03 0.  1.
    8880022    1    1    2    0    0 -0.56234428653E+03  0.27793249875E+03  0.29819145397E+03  0.71118729368E+03  0.15294330000E+03 0.  0.
<mgrwt>
<rscale>  0 0.83487452E+03</rscale>
<asrwt>0</asrwt>
<pdfrwt beam="1">  1        2 0.11709750E+00 0.90955361E+03</pdfrwt>
<pdfrwt beam="2">  1       -2 0.15584558E+00 0.90955361E+03</pdfrwt>
<totfact> 0.99514762E+00</totfact>
</mgrwt>
</event>
<event>
 4    2  0.6387803E-007  0.7364772E+03  0.7818608E-02  0.9870330E-01
         -2   -1    0    0    0  501 -0.00000000000E+00  0.00000000000E+00  0.45071411191E+03  0.45071411192E+03  0.25500000000E-02 0.  1.
          2   -1    0    0  501    0  0.00000000000E+00 -0.00000000000E+00 -0.89653633019E+03  0.89653633019E+03  0.25500000000E-02 0. -1.
    8880023    1    1    2    0    0  0.77403566491E+02  0.32030783457E+03  0.43558456943E+02  0.73776416722E+03  0.65864270000E+03 0.  0.
    8880022    1    1    2    0    0 -0.77403566491E+02 -0.32030783457E+03 -0.48938067522E+03  0.60948627489E+03  0.15294330000E+03 0.  0.
<mgrwt>
<rscale>  0 0.61721009E+03</rscale>
<asrwt>0</asrwt>
<pdfrwt beam="1">  1        2 0.13792867E+00 0.73647717E+03</pdfrwt>
<pdfrwt beam="2">  1       -2 0.69340633E-01 0.73647717E+03</pdfrwt>
<totfact> 0.56808030E+01</totfact>
</mgrwt>
</event>
<event>
 4    2  0.6387803E-007  0.6691922E+03  0.7818608E-02  0.1016249E+00
          2   -1    0    0  501    0  0.00000000000E+00  0.00000000000E+00  0.20386317542E+03  0.20386317543E+03  0.25500000000E-02 0. -1.
         -2   -1    0    0    0  501 -0.00000000000E+00 -0.00000000000E+00 -0.13636212723E+04  0.13636212723E+04  0.25500000000E-02 0.  1.
    8880023    1    1    2    0    0  0.10131563486E+03 -0.61181437182E+02 -0.11962279056E+04  0.13706857534E+04  0.65864270000E+03 0.  1.
    8880022    1    1    2    0    0 -0.10131563486E+03  0.61181437182E+02  0.36469808750E+02  0.19679869433E+03  0.15294330000E+03 0.  0.
<mgrwt>
<rscale>  0 0.49064983E+03</rscale>
<asrwt>0</asrwt>
<pdfrwt beam="1">  1        2 0.31363566E-01 0.66919222E+03</pdfrwt>
<pdfrwt beam="2">  1       -2 0.20978788E+00 0.66919222E+03</pdfrwt>
<totfact> 0.19931144E+01</totfact>
</mgrwt>
</event>
<event>
 4    2  0.6387803E-007  0.6815119E+03  0.7818608E-02  0.1008481E+00
          2   -1    0    0  501    0  0.00000000000E+00  0.00000000000E+00  0.10873650642E+04  0.10873650642E+04  0.25500000000E-02 0. -1.
         -2   -1    0    0    0  501 -0.00000000000E+00 -0.00000000000E+00 -0.52630338400E+03  0.52630338401E+03  0.25500000000E-02 0.  1.
    8880023    1    1    2    0    0  0.16837947938E+03 -0.47922747702E+02 -0.28318210461E+03  0.73800443729E+03  0.65864270000E+03 0.  0.
    8880022    1    1    2    0    0 -0.16837947938E+03  0.47922747702E+02  0.84424378476E+03  0.87566401088E+03  0.15294330000E+03 0. -1.
<mgrwt>
<rscale>  0 0.52082807E+03</rscale>
<asrwt>0</asrwt>
<pdfrwt beam="1">  1        2 0.16728693E+00 0.68151188E+03</pdfrwt>
<pdfrwt beam="2">  1       -2 0.80969753E-01 0.68151188E+03</pdfrwt>
<totfact> 0.30571636E+01</totfact>
</mgrwt>
</event>
<event>
 4    2  0.6387803E-007  0.7033697E+03  0.7818608E-02  0.9983499E-01
          2   -1    0    0  501    0  0.00000000000E+00  0.00000000000E+00  0.37878279337E+04  0.37878279337E+04  0.25500000000E-02 0. -1.
         -2   -1    0    0    0  501 -0.00000000000E+00 -0.00000000000E+00 -0.21221180424E+03  0.21221180426E+03  0.25500000000E-02 0.  1.
    8880023    1    1    2    0    0 -0.34818749883E+02  0.24434894008E+03  0.39598053688E+03  0.80717379895E+03  0.65864270000E+03 0.  1.
    8880022    1    1    2    0    0  0.34818749883E+02 -0.24434894008E+03  0.31796355926E+04  0.31928659390E+04  0.15294330000E+03 0.  0.
<mgrwt>
<rscale>  0 0.56379717E+03</rscale>
<asrwt>0</asrwt>
<pdfrwt beam="1">  1        2 0.58274273E+00 0.70336972E+03</pdfrwt>
<pdfrwt beam="2">  1       -2 0.32647972E-01 0.70336972E+03</pdfrwt>
<totfact> 0.48549979E+00</totfact>
</mgrwt>
</event>
<event>
 4    2  0.6387803E-007  0.1064958E+04  0.7818608E-02  0.9301113E-01
         -2   -1    0    0    0  501 -0.00000000000E+00  0.00000000000E+00  0.73695338822E+03  0.73695338822E+03  0.25500000000E-02 0.  1.
          2   -1    0    0  501    0  0.00000000000E+00 -0.00000000000E+00 -0.22987454813E+04  0.22987454813E+04  0.25500000000E-02 0. -1.
    8880023    1    1    2    0    0 -0.29732002386E+03  0.78225681497E+03  0.19602191220E+03  0.10828479660E+04  0.65864270000E+03 0.  0.
    8880022    1    1    2    0    0  0.29732002386E+03 -0.78225681497E+03 -0.17578140053E+04  0.19528509035E+04  0.15294330000E+03 0.  0.
<mgrwt>
<rscale>  0 0.10068050E+04</rscale>
<asrwt>0</asrwt>
<pdfrwt beam="1">  1        2 0.35365315E+00 0.10649578E+04</pdfrwt>
<pdfrwt beam="2">  1       -2 0.11337745E+00 0.10649578E+04</pdfrwt>
<totfact> 0.27592936E+00</totfact>
</mgrwt>
</event>
<event>
 4    2  0.6387803E-007  0.8001502E+03  0.7818608E-02  0.9710471E-01
         -2   -1    0    0    0  501 -0.00000000000E+00  0.00000000000E+00  0.91769566376E+03  0.91769566376E+03  0.25500000000E-02 0.  1.
          2   -1    0    0  501    0  0.00000000000E+00 -0.00000000000E+00 -0.63005026356E+03  0.63005026357E+03  0.25500000000E-02 0. -1.
    8880023    1    1    2    0    0  0.99229849808E+02 -0.44337739645E+03  0.57817798423E+03  0.98718289414E+03  0.65864270000E+03 0. -1.
    8880022    1    1    2    0    0 -0.99229849808E+02  0.44337739645E+03 -0.29053258403E+03  0.56056303319E+03  0.15294330000E+03 0.  0.
<mgrwt>
<rscale>  0 0.70396734E+03</rscale>
<asrwt>0</asrwt>
<pdfrwt beam="1">  1        2 0.96930810E-01 0.80015016E+03</pdfrwt>
<pdfrwt beam="2">  1       -2 0.14118395E+00 0.80015016E+03</pdfrwt>
<totfact> 0.16572362E+01</totfact>
</mgrwt>
</event>
<event>
 4    2  0.6387803E-007  0.1016477E+04  0.7818608E-02  0.9360311E-01
         -2   -1    0    0    0  501 -0.00000000000E+00  0.00000000000E+00  0.95589581393E+03  0.95589581393E+03  0.25500000000E-02 0.  1.
          2   -1    0    0  501    0  0.00000000000E+00 -0.00000000000E+00 -0.21398139084E+04  0.21398139084E+04  0.25500000000E-02 0. -1.
    8880023    1    1    2    0    0  0.47832324922E+02 -0.77274009862E+03  0.57501509171E+03  0.11678474872E+04  0.65864270000E+03 0.  0.
    8880022    1    1    2    0    0 -0.47832324922E+02  0.77274009862E+03 -0.17589331862E+04  0.19278622352E+04  0.15294330000E+03 0.  0.
<mgrwt>
<rscale>  0 0.95415147E+03</rscale>
<asrwt>0</asrwt>
<pdfrwt beam="1">  1        2 0.32920214E+00 0.10164770E+04</pdfrwt>
<pdfrwt beam="2">  1       -2 0.14706090E+00 0.10164770E+04</pdfrwt>
<totfact> 0.17578307E+00</totfact>
</mgrwt>
</event>
<event>
 4    2  0.6387803E-007  0.9023403E+03  0.7818608E-02  0.9522285E-01
         -2   -1    0    0    0  501 -0.00000000000E+00  0.00000000000E+00  0.41974248953E+03  0.41974248954E+03  0.25500000000E-02 0.  1.
          2   -1    0    0  501    0  0.00000000000E+00 -0.00000000000E+00 -0.17395740410E+04  0.17395740410E+04  0.25500000000E-02 0. -1.
    8880023    1    1    2    0    0  0.58588574206E+03  0.19273214862E+03 -0.12178858585E+04  0.15157387488E+04  0.65864270000E+03 0.  1.
    8880022    1    1    2    0    0 -0.58588574206E+03 -0.19273214862E+03 -0.10194569294E+03  0.64357778177E+03  0.15294330000E+03 0.  1.
<mgrwt>
<rscale>  0 0.82660585E+03</rscale>
<asrwt>0</asrwt>
<pdfrwt beam="1">  1        2 0.26762677E+00 0.90234029E+03</pdfrwt>
<pdfrwt beam="2">  1       -2 0.64575768E-01 0.90234029E+03</pdfrwt>
<totfact> 0.20851447E+01</totfact>
</mgrwt>
</event>
<event>
 4    2  0.6387803E-007  0.6848423E+03  0.7818608E-02  0.1006707E+00
         -2   -1    0    0    0  501 -0.00000000000E+00  0.00000000000E+00  0.27831531986E+03  0.27831531987E+03  0.25500000000E-02 0.  1.
          2   -1    0    0  501    0  0.00000000000E+00 -0.00000000000E+00 -0.85899853021E+03  0.85899853022E+03  0.25500000000E-02 0. -1.
    8880023    1    1    2    0    0 -0.15056797971E+03 -0.11192890550E+03 -0.25334346790E+03  0.73019991468E+03  0.65864270000E+03 0.  0.
    8880022    1    1    2    0    0  0.15056797971E+03  0.11192890550E+03 -0.32733974245E+03  0.40711393541E+03  0.15294330000E+03 0.  0.
<mgrwt>
<rscale>  0 0.52804544E+03</rscale>
<asrwt>0</asrwt>
<pdfrwt beam="1">  1        2 0.13215362E+00 0.68484232E+03</pdfrwt>
<pdfrwt beam="2">  1       -2 0.42817742E-01 0.68484232E+03</pdfrwt>
<totfact> 0.16414509E+02</totfact>
</mgrwt>
</event>
<event>
 4    2  0.6387803E-007  0.6985371E+03  0.7818608E-02  0.1000332E+00
          2   -1    0    0  501    0  0.00000000000E+00  0.00000000000E+00  0.20540108572E+04  0.20540108572E+04  0.25500000000E-02 0. -1.
         -2   -1    0    0    0  501 -0.00000000000E+00 -0.00000000000E+00 -0.31214035611E+03  0.31214035612E+03  0.25500000000E-02 0.  1.
    8880023    1    1    2    0    0  0.31580561342E+02 -0.23053537401E+03  0.10573981385E+03  0.70649487261E+03  0.65864270000E+03 0.  1.
    8880022    1    1    2    0    0 -0.31580561342E+02  0.23053537401E+03  0.16361306872E+04  0.16596563407E+04  0.15294330000E+03 0.  0.
<mgrwt>
<rscale>  0 0.55504695E+03</rscale>
<asrwt>0</asrwt>
<pdfrwt beam="1">  1        2 0.31600166E+00 0.69853711E+03</pdfrwt>
<pdfrwt beam="2">  1       -2 0.48021594E-01 0.69853711E+03</pdfrwt>
<totfact> 0.26676869E+01</totfact>
</mgrwt>
</event>
<event>
 4    2  0.6387803E-007  0.7074944E+03  0.7818608E-02  0.9967426E-01
         -2   -1    0    0    0  501 -0.00000000000E+00  0.00000000000E+00  0.98376622768E+03  0.98376622769E+03  0.25500000000E-02 0.  1.
          2   -1    0    0  501    0  0.00000000000E+00 -0.00000000000E+00 -0.18793996968E+04  0.18793996968E+04  0.25500000000E-02 0. -1.
    8880023    1    1    2    0    0  0.13944693228E+02 -0.25796060781E+03  0.84200583211E+03  0.10997827773E+04  0.65864270000E+03 0.  1.
    8880022    1    1    2    0    0 -0.13944693228E+02  0.25796060781E+03 -0.17376393013E+04  0.17633831472E+04  0.15294330000E+03 0.  0.
<mgrwt>
<rscale>  0 0.57101931E+03</rscale>
<asrwt>0</asrwt>
<pdfrwt beam="1">  1        2 0.28913841E+00 0.70749441E+03</pdfrwt>
<pdfrwt beam="2">  1       -2 0.15134865E+00 0.70749441E+03</pdfrwt>
<totfact> 0.23794125E+00</totfact>
</mgrwt>
</event>
<event>
 4    2  0.6387803E-007  0.6793761E+03  0.7818608E-02  0.1009679E+00
          2   -1    0    0  501    0  0.00000000000E+00  0.00000000000E+00  0.80346351753E+03  0.80346351754E+03  0.25500000000E-02 0. -1.
         -2   -1    0    0    0  501 -0.00000000000E+00 -0.00000000000E+00 -0.79108938383E+03  0.79108938383E+03  0.25500000000E-02 0.  1.
    8880023    1    1    2    0    0  0.15115351124E+03 -0.69959633008E+02 -0.62198486690E+03  0.92109560586E+03  0.65864270000E+03 0.  1.
    8880022    1    1    2    0    0 -0.15115351124E+03  0.69959633008E+02  0.63435900061E+03  0.67345729551E+03  0.15294330000E+03 0.  0.
<mgrwt>
<rscale>  0 0.51602505E+03</rscale>
<asrwt>0</asrwt>
<pdfrwt beam="1">  1        2 0.12360977E+00 0.67937614E+03</pdfrwt>
<pdfrwt beam="2">  1       -2 0.12170606E+00 0.67937614E+03</pdfrwt>
<totfact> 0.17949044E+01</totfact>
</mgrwt>
</event>
<event>
 4    2  0.6387803E-007  0.1274215E+04  0.7818608E-02  0.9088152E-01
          2   -1    0    0  501    0  0.00000000000E+00  0.00000000000E+00  0.13868102582E+04  0.13868102582E+04  0.25500000000E-02 0. -1.
         -2   -1    0    0    0  501 -0.00000000000E+00 -0.00000000000E+00 -0.16925259104E+04  0.16925259104E+04  0.25500000000E-02 0.  1.
    8880023    1    1    2    0    0  0.58473265610E+03 -0.92081618466E+03 -0.11304013730E+04  0.17033590917E+04  0.65864270000E+03 0.  0.
    8880022    1    1    2    0    0 -0.58473265610E+03  0.92081618466E+03  0.82468572083E+03  0.13759770769E+04  0.15294330000E+03 0.  0.
<mgrwt>
<rscale>  0 0.12286381E+04</rscale>
<asrwt>0</asrwt>
<pdfrwt beam="1">  1        2 0.21335542E+00 0.12742154E+04</pdfrwt>
<pdfrwt beam="2">  1       -2 0.26038860E+00 0.12742154E+04</pdfrwt>
<totfact> 0.78769155E-01</totfact>
</mgrwt>
</event>
<event>
 4    2  0.6387803E-007  0.6781253E+03  0.7818608E-02  0.1010405E+00
          2   -1    0    0  501    0  0.00000000000E+00  0.00000000000E+00  0.88727815373E+03  0.88727815374E+03  0.25500000000E-02 0. -1.
         -2   -1    0    0    0  501 -0.00000000000E+00 -0.00000000000E+00 -0.31934322742E+03  0.31934322743E+03  0.25500000000E-02 0.  1.
    8880023    1    1    2    0    0  0.15072109143E+03  0.57679127629E+02  0.95938560316E+02  0.68487819558E+03  0.65864270000E+03 0.  1.
    8880022    1    1    2    0    0 -0.15072109143E+03 -0.57679127629E+02  0.47199636600E+03  0.52174318558E+03  0.15294330000E+03 0.  1.
<mgrwt>
<rscale>  0 0.51314157E+03</rscale>
<asrwt>0</asrwt>
<pdfrwt beam="1">  1        2 0.13650433E+00 0.67812531E+03</pdfrwt>
<pdfrwt beam="2">  1       -2 0.49129728E-01 0.67812531E+03</pdfrwt>
<totfact> 0.11934051E+02</totfact>
</mgrwt>
</event>
<event>
 4    2  0.6387803E-007  0.8306631E+03  0.7818608E-02  0.9648044E-01
         -2   -1    0    0    0  501 -0.00000000000E+00  0.00000000000E+00  0.91211156044E+03  0.91211156044E+03  0.25500000000E-02 0.  1.
          2   -1    0    0  501    0  0.00000000000E+00 -0.00000000000E+00 -0.22408934526E+04  0.22408934526E+04  0.25500000000E-02 0. -1.
    8880023    1    1    2    0    0  0.50340297886E+03  0.52692226398E+02  0.68143595683E+03  0.10744096981E+04  0.65864270000E+03 0.  1.
    8880022    1    1    2    0    0 -0.50340297886E+03 -0.52692226398E+02 -0.20102178490E+04  0.20785953150E+04  0.15294330000E+03 0.  0.
<mgrwt>
<rscale>  0 0.74196340E+03</rscale>
<asrwt>0</asrwt>
<pdfrwt beam="1">  1        2 0.34475284E+00 0.83066313E+03</pdfrwt>
<pdfrwt beam="2">  1       -2 0.14032486E+00 0.83066313E+03</pdfrwt>
<totfact> 0.17981130E+00</totfact>
</mgrwt>
</event>
<event>
 4    2  0.6925047E-007  0.7355606E+03  0.7818608E-02  0.9873072E-01
          2   -1    0    0  501    0  0.00000000000E+00  0.00000000000E+00  0.26703059950E+04  0.26703059950E+04  0.25500000000E-02 0. -1.
         -2   -1    0    0    0  501 -0.00000000000E+00 -0.00000000000E+00 -0.94673078961E+03  0.94673078961E+03  0.25500000000E-02 0.  1.
    8880023    1    1    2    0    0 -0.31640196283E+03 -0.84433751362E+02 -0.78894772534E+03  0.10786510001E+04  0.65864270000E+03 0.  1.
    8880022    1    1    2    0    0  0.31640196283E+03  0.84433751362E+02  0.25125229307E+04  0.25383857845E+04  0.15294330000E+03 0.  0.
<mgrwt>
<rscale>  0 0.61584243E+03</rscale>
<asrwt>0</asrwt>
<pdfrwt beam="1">  1        2 0.41081630E+00 0.73556065E+03</pdfrwt>
<pdfrwt beam="2">  1       -2 0.14565089E+00 0.73556065E+03</pdfrwt>
<totfact> 0.95033408E-01</totfact>
</mgrwt>
</event>
<event>
 4    2  0.6387803E-007  0.7721930E+03  0.7818608E-02  0.9774506E-01
         -2   -1    0    0    0  501 -0.00000000000E+00  0.00000000000E+00  0.25657268510E+03  0.25657268511E+03  0.25500000000E-02 0.  1.
          2   -1    0    0  501    0  0.00000000000E+00 -0.00000000000E+00 -0.16829910515E+04  0.16829910515E+04  0.25500000000E-02 0. -1.
    8880023    1    1    2    0    0 -0.29550954131E+03  0.27412748998E+03 -0.12592750787E+04  0.14771782898E+04  0.65864270000E+03 0. -1.
    8880022    1    1    2    0    0  0.29550954131E+03 -0.27412748998E+03 -0.16714328768E+03  0.46238544679E+03  0.15294330000E+03 0.  0.
<mgrwt>
<rscale>  0 0.66748825E+03</rscale>
<asrwt>0</asrwt>
<pdfrwt beam="1">  1        2 0.25892169E+00 0.77219297E+03</pdfrwt>
<pdfrwt beam="2">  1       -2 0.39472722E-01 0.77219297E+03</pdfrwt>
<totfact> 0.62118888E+01</totfact>
</mgrwt>
</event>
<event>
 4    2  0.6387803E-007  0.9780383E+03  0.7818608E-02  0.9410871E-01
          2   -1    0    0  501    0  0.00000000000E+00  0.00000000000E+00  0.24026539358E+04  0.24026539358E+04  0.25500000000E-02 0. -1.
         -2   -1    0    0    0  501 -0.00000000000E+00 -0.00000000000E+00 -0.84689903135E+03  0.84689903135E+03  0.25500000000E-02 0.  1.
    8880023    1    1    2    0    0  0.15593153543E+03 -0.70599867418E+03 -0.47589135873E+03  0.10876725441E+04  0.65864270000E+03 0.  1.
    8880022    1    1    2    0    0 -0.15593153543E+03  0.70599867418E+03  0.20316462632E+04  0.21618804231E+04  0.15294330000E+03 0.  0.
<mgrwt>
<rscale>  0 0.91186374E+03</rscale>
<asrwt>0</asrwt>
<pdfrwt beam="1">  1        2 0.36963906E+00 0.97803833E+03</pdfrwt>
<pdfrwt beam="2">  1       -2 0.13029216E+00 0.97803833E+03</pdfrwt>
<totfact> 0.17244787E+00</totfact>
</mgrwt>
</event>
<event>
 4    2  0.6387803E-007  0.7338688E+03  0.7818608E-02  0.9878181E-01
          2   -1    0    0  501    0  0.00000000000E+00  0.00000000000E+00  0.35643400259E+03  0.35643400260E+03  0.25500000000E-02 0. -1.
         -2   -1    0    0    0  501 -0.00000000000E+00 -0.00000000000E+00 -0.87219174966E+03  0.87219174967E+03  0.25500000000E-02 0.  1.
    8880023    1    1    2    0    0 -0.32165033790E+03 -0.35975920876E+02 -0.46057207340E+03  0.86642371148E+03  0.65864270000E+03 0.  0.
    8880022    1    1    2    0    0  0.32165033790E+03  0.35975920876E+02 -0.55185673672E+02  0.36220204079E+03  0.15294330000E+03 0.  0.
<mgrwt>
<rscale>  0 0.61330494E+03</rscale>
<asrwt>0</asrwt>
<pdfrwt beam="1">  1        2 0.54836000E-01 0.73386880E+03</pdfrwt>
<pdfrwt beam="2">  1       -2 0.13418335E+00 0.73386880E+03</pdfrwt>
<totfact> 0.36735388E+01</totfact>
</mgrwt>
</event>
<event>
 4    2  0.6387803E-007  0.7191841E+03  0.7818608E-02  0.9925356E-01
         -2   -1    0    0    0  501 -0.00000000000E+00  0.00000000000E+00  0.73795579019E+03  0.73795579020E+03  0.25500000000E-02 0.  1.
          2   -1    0    0  501    0  0.00000000000E+00 -0.00000000000E+00 -0.11299034273E+04  0.11299034273E+04  0.25500000000E-02 0. -1.
    8880023    1    1    2    0    0 -0.28670378889E+03  0.34878180049E+02  0.52760328382E+03  0.89195906933E+03  0.65864270000E+03 0.  1.
    8880022    1    1    2    0    0  0.28670378889E+03 -0.34878180049E+02 -0.91955092088E+03  0.97590014813E+03  0.15294330000E+03 0.  0.
<mgrwt>
<rscale>  0 0.59047990E+03</rscale>
<asrwt>0</asrwt>
<pdfrwt beam="1">  1        2 0.17383130E+00 0.71918409E+03</pdfrwt>
<pdfrwt beam="2">  1       -2 0.11353166E+00 0.71918409E+03</pdfrwt>
<totfact> 0.12990098E+01</totfact>
</mgrwt>
</event>
<event>
 4    2  0.6387803E-007  0.6682676E+03  0.7818608E-02  0.1016936E+00
          2   -1    0    0  501    0  0.00000000000E+00  0.00000000000E+00  0.24649438702E+04  0.24649438702E+04  0.25500000000E-02 0. -1.
         -2   -1    0    0    0  501 -0.00000000000E+00 -0.00000000000E+00 -0.10490474164E+03  0.10490474167E+03  0.25500000000E-02 0.  1.
    8880023    1    1    2    0    0 -0.11256171309E+03  0.10063690887E+02  0.10400965540E+04  0.12362776650E+04  0.65864270000E+03 0.  1.
    8880022    1    1    2    0    0  0.11256171309E+03 -0.10063690887E+02  0.13199425745E+04  0.13335709468E+04  0.15294330000E+03 0.  0.
<mgrwt>
<rscale>  0 0.48808558E+03</rscale>
<asrwt>0</asrwt>
<pdfrwt beam="1">  1        2 0.37922212E+00 0.66826763E+03</pdfrwt>
<pdfrwt beam="2">  1       -2 0.16139192E-01 0.66826763E+03</pdfrwt>
<totfact> 0.11816509E+02</totfact>
</mgrwt>
</event>
<event>
 4    2  0.6387803E-007  0.6847740E+03  0.7818608E-02  0.1006743E+00
         -2   -1    0    0    0  501 -0.00000000000E+00  0.00000000000E+00  0.29947764786E+03  0.29947764787E+03  0.25500000000E-02 0.  1.
          2   -1    0    0  501    0  0.00000000000E+00 -0.00000000000E+00 -0.80439117954E+03  0.80439117954E+03  0.25500000000E-02 0. -1.
    8880023    1    1    2    0    0  0.18736088831E+03  0.10419086976E+01 -0.19743993030E+03  0.71266957307E+03  0.65864270000E+03 0.  0.
    8880022    1    1    2    0    0 -0.18736088831E+03 -0.10419086976E+01 -0.30747360137E+03  0.39119925434E+03  0.15294330000E+03 0.  0.
<mgrwt>
<rscale>  0 0.52790039E+03</rscale>
<asrwt>0</asrwt>
<pdfrwt beam="1">  1        2 0.12375249E+00 0.68477397E+03</pdfrwt>
<pdfrwt beam="2">  1       -2 0.46073485E-01 0.68477397E+03</pdfrwt>
<totfact> 0.15499063E+02</totfact>
</mgrwt>
</event>
<event>
 4    2  0.6387803E-007  0.7308687E+03  0.7818608E-02  0.9887392E-01
         -2   -1    0    0    0  501 -0.00000000000E+00  0.00000000000E+00  0.55607708567E+03  0.55607708568E+03  0.25500000000E-02 0.  1.
          2   -1    0    0  501    0  0.00000000000E+00 -0.00000000000E+00 -0.11344257482E+04  0.11344257482E+04  0.25500000000E-02 0. -1.
    8880023    1    1    2    0    0 -0.25546817756E+03  0.18733630400E+03  0.26444473803E+03  0.77723877044E+03  0.65864270000E+03 0.  0.
    8880022    1    1    2    0    0  0.25546817756E+03 -0.18733630400E+03 -0.84279340059E+03  0.91326406347E+03  0.15294330000E+03 0. -1.
<mgrwt>
<rscale>  0 0.60876253E+03</rscale>
<asrwt>0</asrwt>
<pdfrwt beam="1">  1        2 0.17452704E+00 0.73086872E+03</pdfrwt>
<pdfrwt beam="2">  1       -2 0.85550321E-01 0.73086872E+03</pdfrwt>
<totfact> 0.25131307E+01</totfact>
</mgrwt>
</event>
<event>
 4    2  0.6387803E-007  0.9021356E+03  0.7818608E-02  0.9522612E-01
         -2   -1    0    0    0  501 -0.00000000000E+00  0.00000000000E+00  0.63994911297E+03  0.63994911298E+03  0.25500000000E-02 0.  1.
          2   -1    0    0  501    0  0.00000000000E+00 -0.00000000000E+00 -0.11629604301E+04  0.11629604301E+04  0.25500000000E-02 0. -1.
    8880023    1    1    2    0    0 -0.60512708143E+03  0.11772695724E+03  0.10679430702E+03  0.90843472601E+03  0.65864270000E+03 0.  0.
    8880022    1    1    2    0    0  0.60512708143E+03 -0.11772695724E+03 -0.62980562415E+03  0.89447481707E+03  0.15294330000E+03 0.  0.
<mgrwt>
<rscale>  0 0.82637067E+03</rscale>
<asrwt>0</asrwt>
<pdfrwt beam="1">  1        2 0.17891699E+00 0.90213559E+03</pdfrwt>
<pdfrwt beam="2">  1       -2 0.98453710E-01 0.90213559E+03</pdfrwt>
<totfact> 0.17136663E+01</totfact>
</mgrwt>
</event>
<event>
 4    2  0.6387803E-007  0.6860255E+03  0.7818608E-02  0.1006102E+00
         -2   -1    0    0    0  501 -0.00000000000E+00  0.00000000000E+00  0.98890115448E+02  0.98890115481E+02  0.25500000000E-02 0.  1.
          2   -1    0    0  501    0  0.00000000000E+00 -0.00000000000E+00 -0.28821965193E+04  0.28821965193E+04  0.25500000000E-02 0. -1.
    8880023    1    1    2    0    0 -0.17375492324E+03  0.81424455437E+02 -0.12287876007E+04  0.14073201090E+04  0.65864270000E+03 0.  1.
    8880022    1    1    2    0    0  0.17375492324E+03 -0.81424455437E+02 -0.15545188032E+04  0.15737665258E+04  0.15294330000E+03 0.  0.
<mgrwt>
<rscale>  0 0.53053725E+03</rscale>
<asrwt>0</asrwt>
<pdfrwt beam="1">  1        2 0.44341479E+00 0.68602545E+03</pdfrwt>
<pdfrwt beam="2">  1       -2 0.15213866E-01 0.68602545E+03</pdfrwt>
<totfact> 0.74719873E+01</totfact>
</mgrwt>
</event>
<event>
 4    2  0.6387803E-007  0.8315806E+03  0.7818608E-02  0.9646265E-01
         -2   -1    0    0    0  501 -0.00000000000E+00  0.00000000000E+00  0.91448658712E+03  0.91448658713E+03  0.25500000000E-02 0.  1.
          2   -1    0    0  501    0  0.00000000000E+00 -0.00000000000E+00 -0.63325729653E+03  0.63325729653E+03  0.25500000000E-02 0. -1.
    8880023    1    1    2    0    0 -0.13854484055E+03 -0.48838659300E+03 -0.17322852688E+03  0.84943184886E+03  0.65864270000E+03 0.  0.
    8880022    1    1    2    0    0  0.13854484055E+03  0.48838659300E+03  0.45445781748E+03  0.69831203480E+03  0.15294330000E+03 0.  0.
<mgrwt>
<rscale>  0 0.74308310E+03</rscale>
<asrwt>0</asrwt>
<pdfrwt beam="1">  1        2 0.97424200E-01 0.83158063E+03</pdfrwt>
<pdfrwt beam="2">  1       -2 0.14069024E+00 0.83158063E+03</pdfrwt>
<totfact> 0.16574350E+01</totfact>
</mgrwt>
</event>
<event>
 4    2  0.6387803E-007  0.6987509E+03  0.7818608E-02  0.1000242E+00
         -2   -1    0    0    0  501 -0.00000000000E+00  0.00000000000E+00  0.13764774791E+03  0.13764774794E+03  0.25500000000E-02 0.  1.
          2   -1    0    0  501    0  0.00000000000E+00 -0.00000000000E+00 -0.18999782945E+04  0.18999782945E+04  0.25500000000E-02 0. -1.
    8880023    1    1    2    0    0 -0.98901809344E+02  0.21133158949E+03 -0.95415716919E+03  0.11826532537E+04  0.65864270000E+03 0.  1.
    8880022    1    1    2    0    0  0.98901809344E+02 -0.21133158949E+03 -0.80817337738E+03  0.85497278876E+03  0.15294330000E+03 0.  0.
<mgrwt>
<rscale>  0 0.55544126E+03</rscale>
<asrwt>0</asrwt>
<pdfrwt beam="1">  1        2 0.29230433E+00 0.69875090E+03</pdfrwt>
<pdfrwt beam="2">  1       -2 0.21176578E-01 0.69875090E+03</pdfrwt>
<totfact> 0.15057549E+02</totfact>
</mgrwt>
</event>
<event>
 4    2  0.6387803E-007  0.1446966E+04  0.7818608E-02  0.8948023E-01
         -2   -1    0    0    0  501 -0.00000000000E+00  0.00000000000E+00  0.37920102378E+04  0.37920102378E+04  0.25500000000E-02 0.  1.
          2   -1    0    0  501    0  0.00000000000E+00 -0.00000000000E+00 -0.10553546240E+04  0.10553546240E+04  0.25500000000E-02 0. -1.
    8880023    1    1    2    0    0 -0.24065468038E+03 -0.12656953953E+04  0.31658093887E+04  0.34808129511E+04  0.65864270000E+03 0.  0.
    8880022    1    1    2    0    0  0.24065468038E+03  0.12656953953E+04 -0.42915377485E+03  0.13665519106E+04  0.15294330000E+03 0.  0.
<mgrwt>
<rscale>  0 0.14080354E+04</rscale>
<asrwt>0</asrwt>
<pdfrwt beam="1">  1        2 0.16236225E+00 0.14469657E+04</pdfrwt>
<pdfrwt beam="2">  1       -2 0.58338618E+00 0.14469657E+04</pdfrwt>
<totfact> 0.12752226E-02</totfact>
</mgrwt>
</event>
<event>
 4    2  0.6387803E-007  0.6697302E+03  0.7818608E-02  0.1015857E+00
          2   -1    0    0  501    0  0.00000000000E+00  0.00000000000E+00  0.90832030029E+03  0.90832030029E+03  0.25500000000E-02 0. -1.
         -2   -1    0    0    0  501 -0.00000000000E+00 -0.00000000000E+00 -0.51131897276E+03  0.51131897276E+03  0.25500000000E-02 0.  1.
    8880023    1    1    2    0    0 -0.40078097327E+02 -0.11455171851E+03 -0.27190465894E+03  0.72282134716E+03  0.65864270000E+03 0.  1.
    8880022    1    1    2    0    0  0.40078097327E+02  0.11455171851E+03  0.66890598646E+03  0.69681792589E+03  0.15294330000E+03 0.  0.
<mgrwt>
<rscale>  0 0.49211775E+03</rscale>
<asrwt>0</asrwt>
<pdfrwt beam="1">  1        2 0.13974158E+00 0.66973021E+03</pdfrwt>
<pdfrwt beam="2">  1       -2 0.78664459E-01 0.66973021E+03</pdfrwt>
<totfact> 0.42478619E+01</totfact>
</mgrwt>
</event>
<event>
 4    2  0.6387803E-007  0.7029552E+03  0.7818608E-02  0.9985156E-01
          2   -1    0    0  501    0  0.00000000000E+00  0.00000000000E+00  0.25631237698E+04  0.25631237698E+04  0.25500000000E-02 0. -1.
         -2   -1    0    0    0  501 -0.00000000000E+00 -0.00000000000E+00 -0.36387954925E+03  0.36387954926E+03  0.25500000000E-02 0.  1.
    8880023    1    1    2    0    0  0.24562297430E+03 -0.22616699937E+01 -0.58756277664E+01  0.70297972227E+03  0.65864270000E+03 0.  1.
    8880022    1    1    2    0    0 -0.24562297430E+03  0.22616699937E+01  0.22051198483E+04  0.22240235968E+04  0.15294330000E+03 0.  0.
<mgrwt>
<rscale>  0 0.56305936E+03</rscale>
<asrwt>0</asrwt>
<pdfrwt beam="1">  1        2 0.39432674E+00 0.70295517E+03</pdfrwt>
<pdfrwt beam="2">  1       -2 0.55981468E-01 0.70295517E+03</pdfrwt>
<totfact> 0.10148670E+01</totfact>
</mgrwt>
</event>
<event>
 4    2  0.6387803E-007  0.1181573E+04  0.7818608E-02  0.9175246E-01
         -2   -1    0    0    0  501 -0.00000000000E+00  0.00000000000E+00  0.46620099491E+03  0.46620099492E+03  0.25500000000E-02 0.  1.
          2   -1    0    0  501    0  0.00000000000E+00 -0.00000000000E+00 -0.34386103826E+04  0.34386103826E+04  0.25500000000E-02 0. -1.
    8880023    1    1    2    0    0 -0.49202206029E+03  0.84865704186E+03 -0.58347462432E+03  0.13177850075E+04  0.65864270000E+03 0.  1.
    8880022    1    1    2    0    0  0.49202206029E+03 -0.84865704186E+03 -0.23889347634E+04  0.25870263700E+04  0.15294330000E+03 0. -1.
<mgrwt>
<rscale>  0 0.11312622E+04</rscale>
<asrwt>0</asrwt>
<pdfrwt beam="1">  1        2 0.52901697E+00 0.11815730E+04</pdfrwt>
<pdfrwt beam="2">  1       -2 0.71723232E-01 0.11815730E+04</pdfrwt>
<totfact> 0.15901555E+00</totfact>
</mgrwt>
</event>
<event>
 4    2  0.6387803E-007  0.7899214E+03  0.7818608E-02  0.9733027E-01
         -2   -1    0    0    0  501 -0.00000000000E+00  0.00000000000E+00  0.21276998461E+04  0.21276998461E+04  0.25500000000E-02 0.  1.
          2   -1    0    0  501    0  0.00000000000E+00 -0.00000000000E+00 -0.19942929194E+03  0.19942929196E+03  0.25500000000E-02 0. -1.
    8880023    1    1    2    0    0 -0.32112844381E+03  0.29502897659E+03  0.88598262881E+03  0.11869882052E+04  0.65864270000E+03 0. -1.
    8880022    1    1    2    0    0  0.32112844381E+03 -0.29502897659E+03  0.10422879254E+04  0.11401409329E+04  0.15294330000E+03 0.  1.
<mgrwt>
<rscale>  0 0.69083954E+03</rscale>
<asrwt>0</asrwt>
<pdfrwt beam="1">  1        2 0.30681429E-01 0.78992138E+03</pdfrwt>
<pdfrwt beam="2">  1       -2 0.32733844E+00 0.78992138E+03</pdfrwt>
<totfact> 0.38915354E+00</totfact>
</mgrwt>
</event>
<event>
 4    2  0.6387803E-007  0.6764275E+03  0.7818608E-02  0.1011421E+00
         -2   -1    0    0    0  501 -0.00000000000E+00  0.00000000000E+00  0.38342365117E+03  0.38342365118E+03  0.25500000000E-02 0.  1.
          2   -1    0    0  501    0  0.00000000000E+00 -0.00000000000E+00 -0.63278777244E+03  0.63278777244E+03  0.25500000000E-02 0. -1.
    8880023    1    1    2    0    0 -0.73065781723E+02 -0.13566644240E+03  0.11876411890E+02  0.67653177861E+03  0.65864270000E+03 0.  1.
    8880022    1    1    2    0    0  0.73065781723E+02  0.13566644240E+03 -0.26124053316E+03  0.33967964501E+03  0.15294330000E+03 0.  0.
<mgrwt>
<rscale>  0 0.50913697E+03</rscale>
<asrwt>0</asrwt>
<pdfrwt beam="1">  1        2 0.97351965E-01 0.67642753E+03</pdfrwt>
<pdfrwt beam="2">  1       -2 0.58988254E-01 0.67642753E+03</pdfrwt>
<totfact> 0.12668609E+02</totfact>
</mgrwt>
</event>
<event>
 4    2  0.6387803E-007  0.7770800E+03  0.7818608E-02  0.9762741E-01
          2   -1    0    0  501    0  0.00000000000E+00  0.00000000000E+00  0.85605332756E+03  0.85605332756E+03  0.25500000000E-02 0. -1.
         -2   -1    0    0    0  501 -0.00000000000E+00 -0.00000000000E+00 -0.78025060040E+03  0.78025060041E+03  0.25500000000E-02 0.  1.
    8880023    1    1    2    0    0 -0.40718728556E+03  0.65127765313E+02 -0.49075440368E+03  0.91907192446E+03  0.65864270000E+03 0.  0.
    8880022    1    1    2    0    0  0.40718728556E+03 -0.65127765313E+02  0.56655713084E+03  0.71723200350E+03  0.15294330000E+03 0.  0.
<mgrwt>
<rscale>  0 0.67400965E+03</rscale>
<asrwt>0</asrwt>
<pdfrwt beam="1">  1        2 0.13170051E+00 0.77707999E+03</pdfrwt>
<pdfrwt beam="2">  1       -2 0.12003855E+00 0.77707999E+03</pdfrwt>
<totfact> 0.16885032E+01</totfact>
</mgrwt>
</event>
<event>
 4    2  0.6387803E-007  0.8727868E+03  0.7818608E-02  0.9571211E-01
          2   -1    0    0  501    0  0.00000000000E+00  0.00000000000E+00  0.92894187639E+03  0.92894187640E+03  0.25500000000E-02 0. -1.
         -2   -1    0    0    0  501 -0.00000000000E+00 -0.00000000000E+00 -0.79074191537E+03  0.79074191538E+03  0.25500000000E-02 0.  1.
    8880023    1    1    2    0    0 -0.42237399286E+02  0.57110639617E+03 -0.36123453228E+03  0.94458832685E+03  0.65864270000E+03 0.  1.
    8880022    1    1    2    0    0  0.42237399286E+02 -0.57110639617E+03  0.49943449330E+03  0.77509546493E+03  0.15294330000E+03 0.  0.
<mgrwt>
<rscale>  0 0.79231299E+03</rscale>
<asrwt>0</asrwt>
<pdfrwt beam="1">  1        2 0.14291413E+00 0.87278676E+03</pdfrwt>
<pdfrwt beam="2">  1       -2 0.12165260E+00 0.87278676E+03</pdfrwt>
<totfact> 0.14441354E+01</totfact>
</mgrwt>
</event>
<event>
 4    2  0.6387803E-007  0.7711621E+03  0.7818608E-02  0.9777023E-01
          2   -1    0    0  501    0  0.00000000000E+00  0.00000000000E+00  0.16457553232E+04  0.16457553232E+04  0.25500000000E-02 0. -1.
         -2   -1    0    0    0  501 -0.00000000000E+00 -0.00000000000E+00 -0.24825202087E+03  0.24825202088E+03  0.25500000000E-02 0.  1.
    8880023    1    1    2    0    0 -0.97684619514E+02 -0.38902238715E+03  0.56047519857E+03  0.95332227346E+03  0.65864270000E+03 0.  1.
    8880022    1    1    2    0    0  0.97684619514E+02  0.38902238715E+03  0.83702810373E+03  0.94068507059E+03  0.15294330000E+03 0.  0.
<mgrwt>
<rscale>  0 0.66610357E+03</rscale>
<asrwt>0</asrwt>
<pdfrwt beam="1">  1        2 0.25319313E+00 0.77116205E+03</pdfrwt>
<pdfrwt beam="2">  1       -2 0.38192618E-01 0.77116205E+03</pdfrwt>
<totfact> 0.69421627E+01</totfact>
</mgrwt>
</event>
<event>
 4    2  0.6387803E-007  0.1256124E+04  0.7818608E-02  0.9104407E-01
          2   -1    0    0  501    0  0.00000000000E+00  0.00000000000E+00  0.26882478330E+04  0.26882478330E+04  0.25500000000E-02 0. -1.
         -2   -1    0    0    0  501 -0.00000000000E+00 -0.00000000000E+00 -0.96807930142E+03  0.96807930142E+03  0.25500000000E-02 0.  1.
    8880023    1    1    2    0    0  0.69952730945E+03 -0.80913483930E+03 -0.36480079279E+03  0.13080242618E+04  0.65864270000E+03 0.  1.
    8880022    1    1    2    0    0 -0.69952730945E+03  0.80913483930E+03  0.20849693243E+04  0.23483028726E+04  0.15294330000E+03 0.  0.
<mgrwt>
<rscale>  0 0.12097016E+04</rscale>
<asrwt>0</asrwt>
<pdfrwt beam="1">  1        2 0.41357659E+00 0.12561241E+04</pdfrwt>
<pdfrwt beam="2">  1       -2 0.14893528E+00 0.12561241E+04</pdfrwt>
<totfact> 0.80171862E-01</totfact>
</mgrwt>
</event>
<event>
 4    2  0.6387803E-007  0.6938974E+03  0.7818608E-02  0.1002353E+00
         -2   -1    0    0    0  501 -0.00000000000E+00  0.00000000000E+00  0.23879622037E+03  0.23879622038E+03  0.25500000000E-02 0.  1.
          2   -1    0    0  501    0  0.00000000000E+00 -0.00000000000E+00 -0.11934236674E+04  0.11934236674E+04  0.25500000000E-02 0. -1.
    8880023    1    1    2    0    0 -0.56343501494E+02 -0.21097101124E+03 -0.36257991070E+03  0.78291618686E+03  0.65864270000E+03 0.  1.
    8880022    1    1    2    0    0  0.56343501494E+02  0.21097101124E+03 -0.59204753638E+03  0.64930370097E+03  0.15294330000E+03 0.  0.
<mgrwt>
<rscale>  0 0.54630610E+03</rscale>
<asrwt>0</asrwt>
<pdfrwt beam="1">  1        2 0.18360364E+00 0.69389737E+03</pdfrwt>
<pdfrwt beam="2">  1       -2 0.36737881E-01 0.69389737E+03</pdfrwt>
<totfact> 0.13577106E+02</totfact>
</mgrwt>
</event>
<event>
 4    2  0.6387803E-007  0.6731615E+03  0.7818608E-02  0.1013491E+00
         -2   -1    0    0    0  501 -0.00000000000E+00  0.00000000000E+00  0.18706634141E+03  0.18706634142E+03  0.25500000000E-02 0.  1.
          2   -1    0    0  501    0  0.00000000000E+00 -0.00000000000E+00 -0.15913858283E+04  0.15913858283E+04  0.25500000000E-02 0. -1.
    8880023    1    1    2    0    0 -0.82603890560E+02 -0.11186032584E+03 -0.46867277795E+03  0.82024417967E+03  0.65864270000E+03 0.  1.
    8880022    1    1    2    0    0  0.82603890560E+02  0.11186032584E+03 -0.93564670890E+03  0.95820799001E+03  0.15294330000E+03 0.  0.
<mgrwt>
<rscale>  0 0.50110442E+03</rscale>
<asrwt>0</asrwt>
<pdfrwt beam="1">  1        2 0.24482858E+00 0.67316145E+03</pdfrwt>
<pdfrwt beam="2">  1       -2 0.28779438E-01 0.67316145E+03</pdfrwt>
<totfact> 0.12806141E+02</totfact>
</mgrwt>
</event>
<event>
 4    2  0.6387803E-007  0.1083864E+04  0.7818608E-02  0.9279238E-01
          2   -1    0    0  501    0  0.00000000000E+00  0.00000000000E+00  0.43595943249E+04  0.43595943249E+04  0.25500000000E-02 0. -1.
         -2   -1    0    0    0  501 -0.00000000000E+00 -0.00000000000E+00 -0.37813968936E+03  0.37813968937E+03  0.25500000000E-02 0.  1.
    8880023    1    1    2    0    0  0.21132939319E+03 -0.83444031683E+03  0.58722539757E+03  0.12327183898E+04  0.65864270000E+03 0.  1.
    8880022    1    1    2    0    0 -0.21132939319E+03  0.83444031683E+03  0.33942292380E+04  0.35050156245E+04  0.15294330000E+03 0.  0.
<mgrwt>
<rscale>  0 0.10271694E+04</rscale>
<asrwt>0</asrwt>
<pdfrwt beam="1">  1        2 0.67070687E+00 0.10838639E+04</pdfrwt>
<pdfrwt beam="2">  1       -2 0.58175333E-01 0.10838639E+04</pdfrwt>
<totfact> 0.48688866E-01</totfact>
</mgrwt>
</event>
<event>
 4    2  0.6387803E-007  0.1056870E+04  0.7818608E-02  0.9310668E-01
          2   -1    0    0  501    0  0.00000000000E+00  0.00000000000E+00  0.33720698137E+04  0.33720698137E+04  0.25500000000E-02 0. -1.
         -2   -1    0    0    0  501 -0.00000000000E+00 -0.00000000000E+00 -0.39139148234E+03  0.39139148235E+03  0.25500000000E-02 0.  1.
    8880023    1    1    2    0    0 -0.72844471109E+03 -0.39055461542E+03  0.54973557431E+03  0.11912950989E+04  0.65864270000E+03 0.  1.
    8880022    1    1    2    0    0  0.72844471109E+03  0.39055461542E+03  0.24309427571E+04  0.25721661972E+04  0.15294330000E+03 0.  0.
<mgrwt>
<rscale>  0 0.99806680E+03</rscale>
<asrwt>0</asrwt>
<pdfrwt beam="1">  1        2 0.51877996E+00 0.10568703E+04</pdfrwt>
<pdfrwt beam="2">  1       -2 0.60214075E-01 0.10568703E+04</pdfrwt>
<totfact> 0.26213423E+00</totfact>
</mgrwt>
</event>
<event>
 4    2  0.6387803E-007  0.7809478E+03  0.7818608E-02  0.9753615E-01
          2   -1    0    0  501    0  0.00000000000E+00  0.00000000000E+00  0.25197974316E+04  0.25197974316E+04  0.25500000000E-02 0. -1.
         -2   -1    0    0    0  501 -0.00000000000E+00 -0.00000000000E+00 -0.18172051212E+03  0.18172051214E+03  0.25500000000E-02 0.  1.
    8880023    1    1    2    0    0  0.22406091168E+03  0.35477589779E+03  0.87989656836E+03  0.11764766921E+04  0.65864270000E+03 0.  0.
    8880022    1    1    2    0    0 -0.22406091168E+03 -0.35477589779E+03  0.14581803511E+04  0.15250412516E+04  0.15294330000E+03 0.  0.
<mgrwt>
<rscale>  0 0.67912343E+03</rscale>
<asrwt>0</asrwt>
<pdfrwt beam="1">  1        2 0.38766112E+00 0.78094778E+03</pdfrwt>
<pdfrwt beam="2">  1       -2 0.27957004E-01 0.78094778E+03</pdfrwt>
<totfact> 0.41113623E+01</totfact>
</mgrwt>
</event>
<event>
 4    2  0.6387803E-007  0.9498419E+03  0.7818608E-02  0.9450342E-01
          2   -1    0    0  501    0  0.00000000000E+00  0.00000000000E+00  0.10978138960E+04  0.10978138960E+04  0.25500000000E-02 0. -1.
         -2   -1    0    0    0  501 -0.00000000000E+00 -0.00000000000E+00 -0.95432199289E+03  0.95432199289E+03  0.25500000000E-02 0.  1.
    8880023    1    1    2    0    0  0.67828220905E+03  0.91228929824E+02 -0.52330608799E+03  0.10844579018E+04  0.65864270000E+03 0.  1.
    8880022    1    1    2    0    0 -0.67828220905E+03 -0.91228929824E+02  0.66679799108E+03  0.96767798708E+03  0.15294330000E+03 0.  0.
<mgrwt>
<rscale>  0 0.88046071E+03</rscale>
<asrwt>0</asrwt>
<pdfrwt beam="1">  1        2 0.16889445E+00 0.94984192E+03</pdfrwt>
<pdfrwt beam="2">  1       -2 0.14681877E+00 0.94984192E+03</pdfrwt>
<totfact> 0.69043576E+00</totfact>
</mgrwt>
</event>
<event>
 4    2  0.6387803E-007  0.7030254E+03  0.7818608E-02  0.9984875E-01
          2   -1    0    0  501    0  0.00000000000E+00  0.00000000000E+00  0.17203446312E+04  0.17203446312E+04  0.25500000000E-02 0. -1.
         -2   -1    0    0    0  501 -0.00000000000E+00 -0.00000000000E+00 -0.29895625355E+03  0.29895625356E+03  0.25500000000E-02 0.  1.
    8880023    1    1    2    0    0 -0.21831139312E+03 -0.11302523396E+03  0.15456844035E+03  0.71981676620E+03  0.65864270000E+03 0.  1.
    8880022    1    1    2    0    0  0.21831139312E+03  0.11302523396E+03  0.12668199373E+04  0.12994841185E+04  0.15294330000E+03 0.  0.
<mgrwt>
<rscale>  0 0.56318460E+03</rscale>
<asrwt>0</asrwt>
<pdfrwt beam="1">  1        2 0.26466841E+00 0.70302544E+03</pdfrwt>
<pdfrwt beam="2">  1       -2 0.45993269E-01 0.70302544E+03</pdfrwt>
<totfact> 0.44171594E+01</totfact>
</mgrwt>
</event>
<event>
 4    2  0.6387803E-007  0.6773078E+03  0.7818608E-02  0.1010889E+00
          2   -1    0    0  501    0  0.00000000000E+00  0.00000000000E+00  0.13523160967E+04  0.13523160967E+04  0.25500000000E-02 0. -1.
         -2   -1    0    0    0  501 -0.00000000000E+00 -0.00000000000E+00 -0.18291625746E+03  0.18291625748E+03  0.25500000000E-02 0.  1.
    8880023    1    1    2    0    0  0.15762502680E+03 -0.94883429867E+01  0.53283400233E+03  0.86177604865E+03  0.65864270000E+03 0.  1.
    8880022    1    1    2    0    0 -0.15762502680E+03  0.94883429867E+01  0.63656583694E+03  0.67345630556E+03  0.15294330000E+03 0.  0.
<mgrwt>
<rscale>  0 0.51122687E+03</rscale>
<asrwt>0</asrwt>
<pdfrwt beam="1">  1        2 0.20804863E+00 0.67730782E+03</pdfrwt>
<pdfrwt beam="2">  1       -2 0.28140963E-01 0.67730782E+03</pdfrwt>
<totfact> 0.18133374E+02</totfact>
</mgrwt>
</event>
<event>
 4    2  0.6387803E-007  0.1351039E+04  0.7818608E-02  0.9022692E-01
         -2   -1    0    0    0  501 -0.00000000000E+00  0.00000000000E+00  0.14691800940E+04  0.14691800940E+04  0.25500000000E-02 0.  1.
          2   -1    0    0  501    0  0.00000000000E+00 -0.00000000000E+00 -0.13516745076E+04  0.13516745076E+04  0.25500000000E-02 0. -1.
    8880023    1    1    2    0    0 -0.11748975886E+04 -0.10540996499E+03  0.67146299583E+03  0.15086975726E+04  0.65864270000E+03 0.  0.
    8880022    1    1    2    0    0  0.11748975886E+04  0.10540996499E+03 -0.55395740945E+03  0.13121570291E+04  0.15294330000E+03 0.  0.
<mgrwt>
<rscale>  0 0.13087030E+04</rscale>
<asrwt>0</asrwt>
<pdfrwt beam="1">  1        2 0.20794993E+00 0.13510388E+04</pdfrwt>
<pdfrwt beam="2">  1       -2 0.22602771E+00 0.13510388E+04</pdfrwt>
<totfact> 0.13350275E+00</totfact>
</mgrwt>
</event>
<event>
 4    2  0.6387803E-007  0.1039714E+04  0.7818608E-02  0.9331349E-01
          2   -1    0    0  501    0  0.00000000000E+00  0.00000000000E+00  0.17086243117E+04  0.17086243117E+04  0.25500000000E-02 0. -1.
         -2   -1    0    0    0  501 -0.00000000000E+00 -0.00000000000E+00 -0.58463696604E+03  0.58463696604E+03  0.25500000000E-02 0.  1.
    8880023    1    1    2    0    0  0.80195417623E+03 -0.63760040861E+02  0.20027917837E+03  0.10588285032E+04  0.65864270000E+03 0.  0.
    8880022    1    1    2    0    0 -0.80195417623E+03  0.63760040861E+02  0.92370816730E+03  0.12344327746E+04  0.15294330000E+03 0.  0.
<mgrwt>
<rscale>  0 0.97947302E+03</rscale>
<asrwt>0</asrwt>
<pdfrwt beam="1">  1        2 0.26286528E+00 0.10397144E+04</pdfrwt>
<pdfrwt beam="2">  1       -2 0.89944148E-01 0.10397144E+04</pdfrwt>
<totfact> 0.10202269E+01</totfact>
</mgrwt>
</event>
<event>
 4    2  0.6387803E-007  0.1003831E+04  0.7818608E-02  0.9376562E-01
         -2   -1    0    0    0  501 -0.00000000000E+00  0.00000000000E+00  0.82361196792E+03  0.82361196792E+03  0.25500000000E-02 0.  1.
          2   -1    0    0  501    0  0.00000000000E+00 -0.00000000000E+00 -0.11969106408E+04  0.11969106408E+04  0.25500000000E-02 0. -1.
    8880023    1    1    2    0    0  0.41924296089E+03 -0.63095389017E+03  0.24209426463E+03  0.10326118879E+04  0.65864270000E+03 0.  1.
    8880022    1    1    2    0    0 -0.41924296089E+03  0.63095389017E+03 -0.61539293747E+03  0.98791072080E+03  0.15294330000E+03 0.  0.
<mgrwt>
<rscale>  0 0.94029898E+03</rscale>
<asrwt>0</asrwt>
<pdfrwt beam="1">  1        2 0.18414010E+00 0.10038315E+04</pdfrwt>
<pdfrwt beam="2">  1       -2 0.12670953E+00 0.10038315E+04</pdfrwt>
<totfact> 0.87429603E+00</totfact>
</mgrwt>
</event>
<event>
 4    2  0.6387803E-007  0.8387163E+03  0.7818608E-02  0.9632606E-01
         -2   -1    0    0    0  501 -0.00000000000E+00  0.00000000000E+00  0.62702966981E+03  0.62702966982E+03  0.25500000000E-02 0.  1.
          2   -1    0    0  501    0  0.00000000000E+00 -0.00000000000E+00 -0.89091140268E+03  0.89091140269E+03  0.25500000000E-02 0. -1.
    8880023    1    1    2    0    0 -0.23590959879E+03 -0.46258124221E+03  0.12966982131E+03  0.84868086656E+03  0.65864270000E+03 0.  1.
    8880022    1    1    2    0    0  0.23590959879E+03  0.46258124221E+03 -0.39355155419E+03  0.66926020594E+03  0.15294330000E+03 0.  0.
<mgrwt>
<rscale>  0 0.75175208E+03</rscale>
<asrwt>0</asrwt>
<pdfrwt beam="1">  1        2 0.13706329E+00 0.83871625E+03</pdfrwt>
<pdfrwt beam="2">  1       -2 0.96466103E-01 0.83871625E+03</pdfrwt>
<totfact> 0.26931112E+01</totfact>
</mgrwt>
</event>
<event>
 4    2  0.6387803E-007  0.1432350E+04  0.7818608E-02  0.8958945E-01
          2   -1    0    0  501    0  0.00000000000E+00  0.00000000000E+00  0.22765307899E+04  0.22765307899E+04  0.25500000000E-02 0. -1.
         -2   -1    0    0    0  501 -0.00000000000E+00 -0.00000000000E+00 -0.16102613469E+04  0.16102613469E+04  0.25500000000E-02 0.  1.
    8880023    1    1    2    0    0 -0.11226519134E+04  0.59788621339E+03 -0.10277352911E+04  0.17629138600E+04  0.65864270000E+03 0.  0.
    8880022    1    1    2    0    0  0.11226519134E+04 -0.59788621339E+03  0.16940047340E+04  0.21238782768E+04  0.15294330000E+03 0.  0.
<mgrwt>
<rscale>  0 0.13929393E+04</rscale>
<asrwt>0</asrwt>
<pdfrwt beam="1">  1        2 0.35023551E+00 0.14323496E+04</pdfrwt>
<pdfrwt beam="2">  1       -2 0.24773251E+00 0.14323496E+04</pdfrwt>
<totfact> 0.29316874E-01</totfact>
</mgrwt>
</event>
<event>
 4    2  0.6387803E-007  0.8720884E+03  0.7818608E-02  0.9572412E-01
         -2   -1    0    0    0  501 -0.00000000000E+00  0.00000000000E+00  0.63596343159E+03  0.63596343160E+03  0.25500000000E-02 0.  1.
          2   -1    0    0  501    0  0.00000000000E+00 -0.00000000000E+00 -0.25802174188E+04  0.25802174188E+04  0.25500000000E-02 0. -1.
    8880023    1    1    2    0    0  0.34572455054E+03  0.45519496146E+03  0.27892378493E+03  0.91560723121E+03  0.65864270000E+03 0.  1.
    8880022    1    1    2    0    0 -0.34572455054E+03 -0.45519496146E+03 -0.22231777721E+04  0.23005736192E+04  0.15294330000E+03 0.  0.
<mgrwt>
<rscale>  0 0.79149362E+03</rscale>
<asrwt>0</asrwt>
<pdfrwt beam="1">  1        2 0.39695652E+00 0.87208837E+03</pdfrwt>
<pdfrwt beam="2">  1       -2 0.97840529E-01 0.87208837E+03</pdfrwt>
<totfact> 0.28006313E+00</totfact>
</mgrwt>
</event>
<event>
 4    2  0.6387803E-007  0.7018248E+03  0.7818608E-02  0.9989714E-01
         -2   -1    0    0    0  501 -0.00000000000E+00  0.00000000000E+00  0.59142012639E+03  0.59142012639E+03  0.25500000000E-02 0.  1.
          2   -1    0    0  501    0  0.00000000000E+00 -0.00000000000E+00 -0.86649470704E+03  0.86649470704E+03  0.25500000000E-02 0. -1.
    8880023    1    1    2    0    0 -0.17540848995E+03  0.16727116076E+03  0.33962804766E+03  0.77968275381E+03  0.65864270000E+03 0.  0.
    8880022    1    1    2    0    0  0.17540848995E+03 -0.16727116076E+03 -0.61470262831E+03  0.67823207962E+03  0.15294330000E+03 0.  0.
<mgrwt>
<rscale>  0 0.56103567E+03</rscale>
<asrwt>0</asrwt>
<pdfrwt beam="1">  1        2 0.13330688E+00 0.70182475E+03</pdfrwt>
<pdfrwt beam="2">  1       -2 0.90987712E-01 0.70182475E+03</pdfrwt>
<totfact> 0.32466705E+01</totfact>
</mgrwt>
</event>
<event>
 4    2  0.6387803E-007  0.7735350E+03  0.7818608E-02  0.9771249E-01
          2   -1    0    0  501    0  0.00000000000E+00  0.00000000000E+00  0.24451051640E+04  0.24451051640E+04  0.25500000000E-02 0. -1.
         -2   -1    0    0    0  501 -0.00000000000E+00 -0.00000000000E+00 -0.20974731025E+03  0.20974731027E+03  0.25500000000E-02 0.  1.
    8880023    1    1    2    0    0 -0.39165465265E+03  0.10560660863E+03  0.64715737319E+03  0.10085479635E+04  0.65864270000E+03 0.  0.
    8880022    1    1    2    0    0  0.39165465265E+03 -0.10560660863E+03  0.15882004805E+04  0.16463045107E+04  0.15294330000E+03 0.  0.
<mgrwt>
<rscale>  0 0.66928597E+03</rscale>
<asrwt>0</asrwt>
<pdfrwt beam="1">  1        2 0.37617003E+00 0.77353496E+03</pdfrwt>
<pdfrwt beam="2">  1       -2 0.32268816E-01 0.77353496E+03</pdfrwt>
<totfact> 0.34753330E+01</totfact>
</mgrwt>
</event>
<event>
 4    2  0.6387803E-007  0.6787680E+03  0.7818608E-02  0.1010029E+00
         -2   -1    0    0    0  501 -0.00000000000E+00  0.00000000000E+00  0.45528064142E+03  0.45528064143E+03  0.25500000000E-02 0.  1.
          2   -1    0    0  501    0  0.00000000000E+00 -0.00000000000E+00 -0.83775847587E+03  0.83775847587E+03  0.25500000000E-02 0. -1.
    8880023    1    1    2    0    0 -0.41525471270E+02 -0.15871799521E+03  0.16746060220E+03  0.69912018017E+03  0.65864270000E+03 0.  1.
    8880022    1    1    2    0    0  0.41525471270E+02  0.15871799521E+03 -0.54993843665E+03  0.59391893713E+03  0.15294330000E+03 0.  0.
<mgrwt>
<rscale>  0 0.51462990E+03</rscale>
<asrwt>0</asrwt>
<pdfrwt beam="1">  1        2 0.12888592E+00 0.67876798E+03</pdfrwt>
<pdfrwt beam="2">  1       -2 0.70043176E-01 0.67876798E+03</pdfrwt>
<totfact> 0.61270601E+01</totfact>
</mgrwt>
</event>
<event>
 4    2  0.6387803E-007  0.8222032E+03  0.7818608E-02  0.9664697E-01
          2   -1    0    0  501    0  0.00000000000E+00  0.00000000000E+00  0.25581288819E+04  0.25581288819E+04  0.25500000000E-02 0. -1.
         -2   -1    0    0    0  501 -0.00000000000E+00 -0.00000000000E+00 -0.28197550325E+03  0.28197550327E+03  0.25500000000E-02 0.  1.
    8880023    1    1    2    0    0  0.49045709235E+03  0.40739462160E+02  0.43905609590E+03  0.93208815293E+03  0.65864270000E+03 0.  1.
    8880022    1    1    2    0    0 -0.49045709235E+03 -0.40739462160E+02  0.18370972827E+04  0.19080162322E+04  0.15294330000E+03 0.  0.
<mgrwt>
<rscale>  0 0.73158160E+03</rscale>
<asrwt>0</asrwt>
<pdfrwt beam="1">  1        2 0.39355829E+00 0.82220318E+03</pdfrwt>
<pdfrwt beam="2">  1       -2 0.43380846E-01 0.82220318E+03</pdfrwt>
<totfact> 0.16821533E+01</totfact>
</mgrwt>
</event>
<event>
 4    2  0.6387803E-007  0.1322955E+04  0.7818608E-02  0.9045986E-01
          2   -1    0    0  501    0  0.00000000000E+00  0.00000000000E+00  0.19297534526E+04  0.19297534526E+04  0.25500000000E-02 0. -1.
         -2   -1    0    0    0  501 -0.00000000000E+00 -0.00000000000E+00 -0.99261993352E+03  0.99261993352E+03  0.25500000000E-02 0.  1.
    8880023    1    1    2    0    0 -0.33445801107E+01  0.11473392517E+04 -0.15371847992E+03  0.13318551431E+04  0.65864270000E+03 0.  0.
    8880022    1    1    2    0    0  0.33445801107E+01 -0.11473392517E+04  0.10908519990E+04  0.15905182431E+04  0.15294330000E+03 0.  0.
<mgrwt>
<rscale>  0 0.12794941E+04</rscale>
<asrwt>0</asrwt>
<pdfrwt beam="1">  1        2 0.29688514E+00 0.13229546E+04</pdfrwt>
<pdfrwt beam="2">  1       -2 0.15271076E+00 0.13229546E+04</pdfrwt>
<totfact> 0.20052177E+00</totfact>
</mgrwt>
</event>
<event>
 4    2  0.6387803E-007  0.1164878E+04  0.7818608E-02  0.9192043E-01
         -2   -1    0    0    0  501 -0.00000000000E+00  0.00000000000E+00  0.62107614243E+03  0.62107614243E+03  0.25500000000E-02 0.  1.
          2   -1    0    0  501    0  0.00000000000E+00 -0.00000000000E+00 -0.24387671100E+04  0.24387671100E+04  0.25500000000E-02 0. -1.
    8880023    1    1    2    0    0  0.97994865953E+01  0.96074714896E+03 -0.21437787145E+03  0.11844404553E+04  0.65864270000E+03 0.  0.
    8880022    1    1    2    0    0 -0.97994865953E+01 -0.96074714896E+03 -0.16033130961E+04  0.18754027971E+04  0.15294330000E+03 0.  0.
<mgrwt>
<rscale>  0 0.11135937E+04</rscale>
<asrwt>0</asrwt>
<pdfrwt beam="1">  1        2 0.37519493E+00 0.11648782E+04</pdfrwt>
<pdfrwt beam="2">  1       -2 0.95550177E-01 0.11648782E+04</pdfrwt>
<totfact> 0.34283862E+00</totfact>
</mgrwt>
</event>
<event>
 4    2  0.6387803E-007  0.1199751E+04  0.7818608E-02  0.9157365E-01
          2   -1    0    0  501    0  0.00000000000E+00  0.00000000000E+00  0.29941864523E+04  0.29941864523E+04  0.25500000000E-02 0. -1.
         -2   -1    0    0    0  501 -0.00000000000E+00 -0.00000000000E+00 -0.82724372760E+03  0.82724372760E+03  0.25500000000E-02 0.  1.
    8880023    1    1    2    0    0 -0.92541498389E+03 -0.38626261286E+03 -0.22736493787E+03  0.12211047128E+04  0.65864270000E+03 0.  0.
    8880022    1    1    2    0    0  0.92541498389E+03  0.38626261286E+03  0.23943076625E+04  0.26003254670E+04  0.15294330000E+03 0.  0.
<mgrwt>
<rscale>  0 0.11504542E+04</rscale>
<asrwt>0</asrwt>
<pdfrwt beam="1">  1        2 0.46064407E+00 0.11997508E+04</pdfrwt>
<pdfrwt beam="2">  1       -2 0.12726827E+00 0.11997508E+04</pdfrwt>
<totfact> 0.79417735E-01</totfact>
</mgrwt>
</event>
<event>
 4    2  0.6387803E-007  0.7480513E+03  0.7818608E-02  0.9837086E-01
          2   -1    0    0  501    0  0.00000000000E+00  0.00000000000E+00  0.16261869461E+04  0.16261869461E+04  0.25500000000E-02 0. -1.
         -2   -1    0    0    0  501 -0.00000000000E+00 -0.00000000000E+00 -0.20396777132E+03  0.20396777134E+03  0.25500000000E-02 0.  1.
    8880023    1    1    2    0    0  0.34572555408E+03  0.79021339816E+02  0.77986490774E+03  0.10806340784E+04  0.65864270000E+03 0.  0.
    8880022    1    1    2    0    0 -0.34572555408E+03 -0.79021339816E+02  0.64235426704E+03  0.74952063901E+03  0.15294330000E+03 0.  0.
<mgrwt>
<rscale>  0 0.63409726E+03</rscale>
<asrwt>0</asrwt>
<pdfrwt beam="1">  1        2 0.25018261E+00 0.74805129E+03</pdfrwt>
<pdfrwt beam="2">  1       -2 0.31379657E-01 0.74805129E+03</pdfrwt>
<totfact> 0.10362875E+02</totfact>
</mgrwt>
</event>
<event>
 4    2  0.6387803E-007  0.7307980E+03  0.7818608E-02  0.9887611E-01
          2   -1    0    0  501    0  0.00000000000E+00  0.00000000000E+00  0.10034061545E+04  0.10034061545E+04  0.25500000000E-02 0. -1.
         -2   -1    0    0    0  501 -0.00000000000E+00 -0.00000000000E+00 -0.57044067561E+03  0.57044067562E+03  0.25500000000E-02 0.  1.
    8880023    1    1    2    0    0 -0.29473380296E+03  0.11570411333E+03 -0.27703142397E+03  0.78154467088E+03  0.65864270000E+03 0.  1.
    8880022    1    1    2    0    0  0.29473380296E+03 -0.11570411333E+03  0.70999690286E+03  0.79230215923E+03  0.15294330000E+03 0.  0.
<mgrwt>
<rscale>  0 0.60865472E+03</rscale>
<asrwt>0</asrwt>
<pdfrwt beam="1">  1        2 0.15437018E+00 0.73079796E+03</pdfrwt>
<pdfrwt beam="2">  1       -2 0.87760105E-01 0.73079796E+03</pdfrwt>
<totfact> 0.28577810E+01</totfact>
</mgrwt>
</event>
<event>
 4    2  0.6387803E-007  0.6864465E+03  0.7818608E-02  0.1005889E+00
          2   -1    0    0  501    0  0.00000000000E+00  0.00000000000E+00  0.44826034725E+03  0.44826034726E+03  0.25500000000E-02 0. -1.
         -2   -1    0    0    0  501 -0.00000000000E+00 -0.00000000000E+00 -0.61337956302E+03  0.61337956303E+03  0.25500000000E-02 0.  1.
    8880023    1    1    2    0    0 -0.98227886760E+02 -0.16658309620E+03 -0.33340102633E+03  0.76312849265E+03  0.65864270000E+03 0.  0.
    8880022    1    1    2    0    0  0.98227886760E+02  0.16658309620E+03  0.16828181056E+03  0.29851141763E+03  0.15294330000E+03 0.  0.
<mgrwt>
<rscale>  0 0.53141563E+03</rscale>
<asrwt>0</asrwt>
<pdfrwt beam="1">  1        2 0.68963130E-01 0.68644654E+03</pdfrwt>
<pdfrwt beam="2">  1       -2 0.94366087E-01 0.68644654E+03</pdfrwt>
<totfact> 0.67134631E+01</totfact>
</mgrwt>
</event>
<event>
 4    2  0.6387803E-007  0.7658914E+03  0.7818608E-02  0.9790087E-01
          2   -1    0    0  501    0  0.00000000000E+00  0.00000000000E+00  0.65401270814E+03  0.65401270814E+03  0.25500000000E-02 0. -1.
         -2   -1    0    0    0  501 -0.00000000000E+00 -0.00000000000E+00 -0.12340341102E+04  0.12340341102E+04  0.25500000000E-02 0.  1.
    8880023    1    1    2    0    0 -0.67391349617E+02 -0.38501666712E+03 -0.10229113894E+04  0.12778643687E+04  0.65864270000E+03 0.  1.
    8880022    1    1    2    0    0  0.67391349617E+02  0.38501666712E+03  0.44288998734E+03  0.61018244965E+03  0.15294330000E+03 0.  0.
<mgrwt>
<rscale>  0 0.65897239E+03</rscale>
<asrwt>0</asrwt>
<pdfrwt beam="1">  1        2 0.10061734E+00 0.76589140E+03</pdfrwt>
<pdfrwt beam="2">  1       -2 0.18985140E+00 0.76589140E+03</pdfrwt>
<totfact> 0.70511520E+00</totfact>
</mgrwt>
</event>
<event>
 4    2  0.6387803E-007  0.7007503E+03  0.7818608E-02  0.9994103E-01
          2   -1    0    0  501    0  0.00000000000E+00  0.00000000000E+00  0.11555771221E+04  0.11555771221E+04  0.25500000000E-02 0. -1.
         -2   -1    0    0    0  501 -0.00000000000E+00 -0.00000000000E+00 -0.21368580616E+03  0.21368580618E+03  0.25500000000E-02 0.  1.
    8880023    1    1    2    0    0  0.26879883761E+02  0.23773558203E+03  0.75069935594E+03  0.10269374199E+04  0.65864270000E+03 0.  1.
    8880022    1    1    2    0    0 -0.26879883761E+02 -0.23773558203E+03  0.19119196002E+03  0.34232550841E+03  0.15294330000E+03 0.  0.
<mgrwt>
<rscale>  0 0.55909569E+03</rscale>
<asrwt>0</asrwt>
<pdfrwt beam="1">  1        2 0.17778110E+00 0.70075027E+03</pdfrwt>
<pdfrwt beam="2">  1       -2 0.32874739E-01 0.70075027E+03</pdfrwt>
<totfact> 0.17651380E+02</totfact>
</mgrwt>
</event>
<event>
 4    2  0.6387803E-007  0.6607144E+03  0.7818608E-02  0.1023436E+00
         -2   -1    0    0    0  501 -0.00000000000E+00  0.00000000000E+00  0.51789743419E+03  0.51789743419E+03  0.25500000000E-02 0.  1.
          2   -1    0    0  501    0  0.00000000000E+00 -0.00000000000E+00 -0.17837619402E+04  0.17837619402E+04  0.25500000000E-02 0. -1.
    8880023    1    1    2    0    0  0.52168163163E+02  0.34367373457E+01  0.30130722408E+03  0.72617461946E+03  0.65864270000E+03 0.  1.
    8880022    1    1    2    0    0 -0.52168163163E+02 -0.34367373457E+01 -0.15671717300E+04  0.15754847549E+04  0.15294330000E+03 0.  0.
<mgrwt>
<rscale>  0 0.46466754E+03</rscale>
<asrwt>0</asrwt>
<pdfrwt beam="1">  1        2 0.27442491E+00 0.66071441E+03</pdfrwt>
<pdfrwt beam="2">  1       -2 0.79676529E-01 0.66071441E+03</pdfrwt>
<totfact> 0.12830634E+01</totfact>
</mgrwt>
</event>
<event>
 4    2  0.6387803E-007  0.7602561E+03  0.7818608E-02  0.9804445E-01
         -2   -1    0    0    0  501 -0.00000000000E+00  0.00000000000E+00  0.34018255008E+03  0.34018255009E+03  0.25500000000E-02 0.  1.
          2   -1    0    0  501    0  0.00000000000E+00 -0.00000000000E+00 -0.16631199547E+04  0.16631199547E+04  0.25500000000E-02 0. -1.
    8880023    1    1    2    0    0  0.36952699063E+03 -0.87344080013E+02 -0.16886994903E+03  0.77878524065E+03  0.65864270000E+03 0.  0.
    8880022    1    1    2    0    0 -0.36952699063E+03  0.87344080013E+02 -0.11540674556E+04  0.12245172642E+04  0.15294330000E+03 0.  0.
<mgrwt>
<rscale>  0 0.65124553E+03</rscale>
<asrwt>0</asrwt>
<pdfrwt beam="1">  1        2 0.25586460E+00 0.76025614E+03</pdfrwt>
<pdfrwt beam="2">  1       -2 0.52335778E-01 0.76025614E+03</pdfrwt>
<totfact> 0.36289875E+01</totfact>
</mgrwt>
</event>
<event>
 4    2  0.6387803E-007  0.6886234E+03  0.7818608E-02  0.1004814E+00
         -2   -1    0    0    0  501 -0.00000000000E+00  0.00000000000E+00  0.36857599052E+03  0.36857599053E+03  0.25500000000E-02 0.  1.
          2   -1    0    0  501    0  0.00000000000E+00 -0.00000000000E+00 -0.83812861834E+03  0.83812861834E+03  0.25500000000E-02 0. -1.
    8880023    1    1    2    0    0  0.17623967323E+03  0.96600210094E+02 -0.17451548656E+02  0.68884452950E+03  0.65864270000E+03 0.  1.
    8880022    1    1    2    0    0 -0.17623967323E+03 -0.96600210094E+02 -0.45210107916E+03  0.51786007937E+03  0.15294330000E+03 0.  0.
<mgrwt>
<rscale>  0 0.53588924E+03</rscale>
<asrwt>0</asrwt>
<pdfrwt beam="1">  1        2 0.12894286E+00 0.68862343E+03</pdfrwt>
<pdfrwt beam="2">  1       -2 0.56703999E-01 0.68862343E+03</pdfrwt>
<totfact> 0.95990372E+01</totfact>
</mgrwt>
</event>
<event>
 4    2  0.6387803E-007  0.7884333E+03  0.7818608E-02  0.9736387E-01
          2   -1    0    0  501    0  0.00000000000E+00  0.00000000000E+00  0.24982692939E+04  0.24982692939E+04  0.25500000000E-02 0. -1.
         -2   -1    0    0    0  501 -0.00000000000E+00 -0.00000000000E+00 -0.25335457798E+03  0.25335457799E+03  0.25500000000E-02 0.  1.
    8880023    1    1    2    0    0 -0.29254057467E+02 -0.43238995654E+03  0.46937901968E+03  0.91757492597E+03  0.65864270000E+03 0.  0.
    8880022    1    1    2    0    0  0.29254057467E+02  0.43238995654E+03  0.17755356962E+04  0.18340489459E+04  0.15294330000E+03 0.  0.
<mgrwt>
<rscale>  0 0.68891026E+03</rscale>
<asrwt>0</asrwt>
<pdfrwt beam="1">  1        2 0.38434913E+00 0.78843331E+03</pdfrwt>
<pdfrwt beam="2">  1       -2 0.38977626E-01 0.78843331E+03</pdfrwt>
<totfact> 0.22558763E+01</totfact>
</mgrwt>
</event>
<event>
 4    2  0.6387803E-007  0.1867865E+04  0.7818608E-02  0.8685897E-01
         -2   -1    0    0    0  501 -0.00000000000E+00  0.00000000000E+00  0.10658070888E+04  0.10658070888E+04  0.25500000000E-02 0.  1.
          2   -1    0    0  501    0  0.00000000000E+00 -0.00000000000E+00 -0.32820451066E+04  0.32820451066E+04  0.25500000000E-02 0. -1.
    8880023    1    1    2    0    0 -0.15570743411E+04 -0.79412156115E+03 -0.16824850372E+04  0.25138965102E+04  0.65864270000E+03 0.  0.
    8880022    1    1    2    0    0  0.15570743411E+04  0.79412156115E+03 -0.53375298063E+03  0.18339556851E+04  0.15294330000E+03 0.  0.
<mgrwt>
<rscale>  0 0.18388721E+04</rscale>
<asrwt>0</asrwt>
<pdfrwt beam="1">  1        2 0.50493001E+00 0.18678650E+04</pdfrwt>
<pdfrwt beam="2">  1       -2 0.16397032E+00 0.18678650E+04</pdfrwt>
<totfact> 0.24569725E-01</totfact>
</mgrwt>
</event>
<event>
 4    2  0.6387803E-007  0.1353462E+04  0.7818608E-02  0.9020714E-01
         -2   -1    0    0    0  501 -0.00000000000E+00  0.00000000000E+00  0.87612285320E+03  0.87612285320E+03  0.25500000000E-02 0.  1.
          2   -1    0    0  501    0  0.00000000000E+00 -0.00000000000E+00 -0.19914276172E+04  0.19914276172E+04  0.25500000000E-02 0. -1.
    8880023    1    1    2    0    0 -0.10685714828E+04 -0.50616731822E+03 -0.20803306077E+03  0.13693569033E+04  0.65864270000E+03 0.  0.
    8880022    1    1    2    0    0  0.10685714828E+04  0.50616731822E+03 -0.90727170319E+03  0.14981935671E+04  0.15294330000E+03 0.  1.
<mgrwt>
<rscale>  0 0.13112207E+04</rscale>
<asrwt>0</asrwt>
<pdfrwt beam="1">  1        2 0.30637348E+00 0.13534624E+04</pdfrwt>
<pdfrwt beam="2">  1       -2 0.13478813E+00 0.13534624E+04</pdfrwt>
<totfact> 0.25675258E+00</totfact>
</mgrwt>
</event>
<event>
 4    2  0.6387803E-007  0.7337470E+03  0.7818608E-02  0.9878551E-01
         -2   -1    0    0    0  501 -0.00000000000E+00  0.00000000000E+00  0.45637098956E+03  0.45637098957E+03  0.25500000000E-02 0.  1.
          2   -1    0    0  501    0  0.00000000000E+00 -0.00000000000E+00 -0.30125574069E+04  0.30125574069E+04  0.25500000000E-02 0. -1.
    8880023    1    1    2    0    0  0.19543111920E+03 -0.25764536729E+03  0.14180594980E+03  0.74732428791E+03  0.65864270000E+03 0.  1.
    8880022    1    1    2    0    0 -0.19543111920E+03  0.25764536729E+03 -0.26979923671E+04  0.27216041086E+04  0.15294330000E+03 0.  0.
<mgrwt>
<rscale>  0 0.61312161E+03</rscale>
<asrwt>0</asrwt>
<pdfrwt beam="1">  1        2 0.46347036E+00 0.73374700E+03</pdfrwt>
<pdfrwt beam="2">  1       -2 0.70210923E-01 0.73374700E+03</pdfrwt>
<totfact> 0.33812357E+00</totfact>
</mgrwt>
</event>
<event>
 4    2  0.6387803E-007  0.9509019E+03  0.7818608E-02  0.9448818E-01
          2   -1    0    0  501    0  0.00000000000E+00  0.00000000000E+00  0.69739025573E+03  0.69739025573E+03  0.25500000000E-02 0. -1.
         -2   -1    0    0    0  501 -0.00000000000E+00 -0.00000000000E+00 -0.16744753606E+04  0.16744753606E+04  0.25500000000E-02 0.  1.
    8880023    1    1    2    0    0  0.58434356643E+03  0.35909165918E+03 -0.12900342755E+04  0.16026237430E+04  0.65864270000E+03 0.  0.
    8880022    1    1    2    0    0 -0.58434356643E+03 -0.35909165918E+03  0.31294917062E+03  0.76924187336E+03  0.15294330000E+03 0.  0.
<mgrwt>
<rscale>  0 0.88164799E+03</rscale>
<asrwt>0</asrwt>
<pdfrwt beam="1">  1        2 0.10729081E+00 0.95090190E+03</pdfrwt>
<pdfrwt beam="2">  1       -2 0.25761159E+00 0.95090190E+03</pdfrwt>
<totfact> 0.23871465E+00</totfact>
</mgrwt>
</event>
<event>
 4    2  0.6387803E-007  0.8132282E+03  0.7818608E-02  0.9682892E-01
         -2   -1    0    0    0  501 -0.00000000000E+00  0.00000000000E+00  0.73014747224E+03  0.73014747224E+03  0.25500000000E-02 0.  1.
          2   -1    0    0  501    0  0.00000000000E+00 -0.00000000000E+00 -0.70720632113E+03  0.70720632114E+03  0.25500000000E-02 0. -1.
    8880023    1    1    2    0    0 -0.43658300143E+03  0.19215911561E+03  0.29772660810E+03  0.86601453930E+03  0.65864270000E+03 0.  1.
    8880022    1    1    2    0    0  0.43658300143E+03 -0.19215911561E+03 -0.27478545700E+03  0.57133925407E+03  0.15294330000E+03 0.  0.
<mgrwt>
<rscale>  0 0.72044618E+03</rscale>
<asrwt>0</asrwt>
<pdfrwt beam="1">  1        2 0.10880097E+00 0.81322817E+03</pdfrwt>
<pdfrwt beam="2">  1       -2 0.11233038E+00 0.81322817E+03</pdfrwt>
<totfact> 0.25459637E+01</totfact>
</mgrwt>
</event>
<event>
 4    2  0.6387803E-007  0.7680000E+03  0.7818608E-02  0.9784820E-01
          2   -1    0    0  501    0  0.00000000000E+00  0.00000000000E+00  0.32574065983E+04  0.32574065983E+04  0.25500000000E-02 0. -1.
         -2   -1    0    0    0  501 -0.00000000000E+00 -0.00000000000E+00 -0.17409028819E+03  0.17409028821E+03  0.25500000000E-02 0.  1.
    8880023    1    1    2    0    0  0.13194516193E+02  0.39476530251E+03  0.28421567359E+04  0.29440921958E+04  0.65864270000E+03 0. -1.
    8880022    1    1    2    0    0 -0.13194516193E+02 -0.39476530251E+03  0.24115957418E+03  0.48740469074E+03  0.15294330000E+03 0.  0.
<mgrwt>
<rscale>  0 0.66183592E+03</rscale>
<asrwt>0</asrwt>
<pdfrwt beam="1">  1        2 0.50113947E+00 0.76799996E+03</pdfrwt>
<pdfrwt beam="2">  1       -2 0.26783121E-01 0.76799996E+03</pdfrwt>
<totfact> 0.16014103E+01</totfact>
</mgrwt>
</event>
<event>
 4    2  0.6387803E-007  0.6589488E+03  0.7818608E-02  0.1025260E+00
         -2   -1    0    0    0  501 -0.00000000000E+00  0.00000000000E+00  0.15648458323E+03  0.15648458325E+03  0.25500000000E-02 0.  1.
          2   -1    0    0  501    0  0.00000000000E+00 -0.00000000000E+00 -0.10701067271E+04  0.10701067271E+04  0.25500000000E-02 0. -1.
    8880023    1    1    2    0    0 -0.19689192619E+02  0.39587032793E+01 -0.68226606550E+03  0.94852544828E+03  0.65864270000E+03 0.  1.
    8880022    1    1    2    0    0  0.19689192619E+02 -0.39587032793E+01 -0.23135607835E+03  0.27806586206E+03  0.15294330000E+03 0.  0.
<mgrwt>
<rscale>  0 0.45835234E+03</rscale>
<asrwt>0</asrwt>
<pdfrwt beam="1">  1        2 0.16463180E+00 0.65894882E+03</pdfrwt>
<pdfrwt beam="2">  1       -2 0.24074552E-01 0.65894882E+03</pdfrwt>
<totfact> 0.35326672E+02</totfact>
</mgrwt>
</event>
<event>
 4    2  0.6387803E-007  0.8108316E+03  0.7818608E-02  0.9687847E-01
          2   -1    0    0  501    0  0.00000000000E+00  0.00000000000E+00  0.10488935713E+04  0.10488935713E+04  0.25500000000E-02 0. -1.
         -2   -1    0    0    0  501 -0.00000000000E+00 -0.00000000000E+00 -0.55010129818E+03  0.55010129818E+03  0.25500000000E-02 0.  1.
    8880023    1    1    2    0    0  0.51301964323E+02 -0.47011253609E+03 -0.10427534951E+03  0.81750916993E+03  0.65864270000E+03 0.  0.
    8880022    1    1    2    0    0 -0.51301964323E+02  0.47011253609E+03  0.60306762263E+03  0.78148569956E+03  0.15294330000E+03 0.  0.
<mgrwt>
<rscale>  0 0.71744988E+03</rscale>
<asrwt>0</asrwt>
<pdfrwt beam="1">  1        2 0.16136824E+00 0.81083161E+03</pdfrwt>
<pdfrwt beam="2">  1       -2 0.84630969E-01 0.81083161E+03</pdfrwt>
<totfact> 0.28841923E+01</totfact>
</mgrwt>
</event>
<event>
 4    2  0.6387803E-007  0.8684940E+03  0.7818608E-02  0.9578629E-01
          2   -1    0    0  501    0  0.00000000000E+00  0.00000000000E+00  0.10339938403E+04  0.10339938403E+04  0.25500000000E-02 0. -1.
         -2   -1    0    0    0  501 -0.00000000000E+00 -0.00000000000E+00 -0.94356120820E+03  0.94356120821E+03  0.25500000000E-02 0.  1.
    8880023    1    1    2    0    0 -0.47578997257E+03 -0.30675003476E+03 -0.61204880423E+03  0.10624902949E+04  0.65864270000E+03 0.  1.
    8880022    1    1    2    0    0  0.47578997257E+03  0.30675003476E+03  0.70248143634E+03  0.91506475358E+03  0.15294330000E+03 0.  0.
<mgrwt>
<rscale>  0 0.78726939E+03</rscale>
<asrwt>0</asrwt>
<pdfrwt beam="1">  1        2 0.15907597E+00 0.86849403E+03</pdfrwt>
<pdfrwt beam="2">  1       -2 0.14516326E+00 0.86849403E+03</pdfrwt>
<totfact> 0.78636756E+00</totfact>
</mgrwt>
</event>
<event>
 4    2  0.6387803E-007  0.7987036E+03  0.7818608E-02  0.9713606E-01
         -2   -1    0    0    0  501 -0.00000000000E+00  0.00000000000E+00  0.32355976061E+03  0.32355976062E+03  0.25500000000E-02 0.  1.
          2   -1    0    0  501    0  0.00000000000E+00 -0.00000000000E+00 -0.30929993671E+04  0.30929993671E+04  0.25500000000E-02 0. -1.
    8880023    1    1    2    0    0 -0.45036646294E+03  0.35879674030E+02 -0.22780534098E+03  0.83055570650E+03  0.65864270000E+03 0.  1.
    8880022    1    1    2    0    0  0.45036646294E+03 -0.35879674030E+02 -0.25416342655E+04  0.25860034212E+04  0.15294330000E+03 0.  0.
<mgrwt>
<rscale>  0 0.70212439E+03</rscale>
<asrwt>0</asrwt>
<pdfrwt beam="1">  1        2 0.47584604E+00 0.79870364E+03</pdfrwt>
<pdfrwt beam="2">  1       -2 0.49778427E-01 0.79870364E+03</pdfrwt>
<totfact> 0.61478919E+00</totfact>
</mgrwt>
</event>
<event>
 4    2  0.6387803E-007  0.7116250E+03  0.7818608E-02  0.9952016E-01
          2   -1    0    0  501    0  0.00000000000E+00  0.00000000000E+00  0.30754419580E+04  0.30754419580E+04  0.25500000000E-02 0. -1.
         -2   -1    0    0    0  501 -0.00000000000E+00 -0.00000000000E+00 -0.54703451286E+03  0.54703451287E+03  0.25500000000E-02 0.  1.
    8880023    1    1    2    0    0  0.84232706707E+02  0.25593893643E+03 -0.30352089479E+03  0.77365045589E+03  0.65864270000E+03 0.  0.
    8880022    1    1    2    0    0 -0.84232706707E+02 -0.25593893643E+03  0.28319283399E+04  0.28488260149E+04  0.15294330000E+03 0.  0.
<mgrwt>
<rscale>  0 0.57805279E+03</rscale>
<asrwt>0</asrwt>
<pdfrwt beam="1">  1        2 0.47314492E+00 0.71162497E+03</pdfrwt>
<pdfrwt beam="2">  1       -2 0.84159156E-01 0.71162497E+03</pdfrwt>
<totfact> 0.20753007E+00</totfact>
</mgrwt>
</event>
<event>
 4    2  0.6387803E-007  0.7985744E+03  0.7818608E-02  0.9713887E-01
          2   -1    0    0  501    0  0.00000000000E+00  0.00000000000E+00  0.15107129565E+04  0.15107129565E+04  0.25500000000E-02 0. -1.
         -2   -1    0    0    0  501 -0.00000000000E+00 -0.00000000000E+00 -0.51756102471E+03  0.51756102471E+03  0.25500000000E-02 0.  1.
    8880023    1    1    2    0    0 -0.12710404148E+03 -0.43330747523E+03 -0.12910669214E+03  0.80894347743E+03  0.65864270000E+03 0.  0.
    8880022    1    1    2    0    0  0.12710404148E+03  0.43330747523E+03  0.11222586240E+04  0.12193305038E+04  0.15294330000E+03 0.  1.
<mgrwt>
<rscale>  0 0.70195947E+03</rscale>
<asrwt>0</asrwt>
<pdfrwt beam="1">  1        2 0.23241737E+00 0.79857436E+03</pdfrwt>
<pdfrwt beam="2">  1       -2 0.79624774E-01 0.79857436E+03</pdfrwt>
<totfact> 0.17808147E+01</totfact>
</mgrwt>
</event>
<event>
 4    2  0.6387803E-007  0.8749130E+03  0.7818608E-02  0.9567567E-01
         -2   -1    0    0    0  501 -0.00000000000E+00  0.00000000000E+00  0.60830315813E+03  0.60830315813E+03  0.25500000000E-02 0.  1.
          2   -1    0    0  501    0  0.00000000000E+00 -0.00000000000E+00 -0.25428110510E+04  0.25428110510E+04  0.25500000000E-02 0. -1.
    8880023    1    1    2    0    0  0.24473067887E+03 -0.52131517147E+03 -0.22940176213E+04  0.24551964618E+04  0.65864270000E+03 0.  0.
    8880022    1    1    2    0    0 -0.24473067887E+03  0.52131517147E+03  0.35950972840E+03  0.69591774731E+03  0.15294330000E+03 0.  0.
<mgrwt>
<rscale>  0 0.79480485E+03</rscale>
<asrwt>0</asrwt>
<pdfrwt beam="1">  1        2 0.39120169E+00 0.87491304E+03</pdfrwt>
<pdfrwt beam="2">  1       -2 0.93585103E-01 0.87491304E+03</pdfrwt>
<totfact> 0.32646923E+00</totfact>
</mgrwt>
</event>
<event>
 4    2  0.6387803E-007  0.7453174E+03  0.7818608E-02  0.9844720E-01
         -2   -1    0    0    0  501 -0.00000000000E+00  0.00000000000E+00  0.51652180525E+03  0.51652180525E+03  0.25500000000E-02 0.  1.
          2   -1    0    0  501    0  0.00000000000E+00 -0.00000000000E+00 -0.69972699240E+03  0.69972699240E+03  0.25500000000E-02 0. -1.
    8880023    1    1    2    0    0 -0.23461108196E+03 -0.25815768244E+03 -0.32058242561E+03  0.81133904544E+03  0.65864270000E+03 0.  0.
    8880022    1    1    2    0    0  0.23461108196E+03  0.25815768244E+03  0.13737723845E+03  0.40490975222E+03  0.15294330000E+03 0.  0.
<mgrwt>
<rscale>  0 0.63016843E+03</rscale>
<asrwt>0</asrwt>
<pdfrwt beam="1">  1        2 0.10765031E+00 0.74531735E+03</pdfrwt>
<pdfrwt beam="2">  1       -2 0.79464893E-01 0.74531735E+03</pdfrwt>
<totfact> 0.58280436E+01</totfact>
</mgrwt>
</event>
<event>
 4    2  0.6387803E-007  0.7691273E+03  0.7818608E-02  0.9782026E-01
          2   -1    0    0  501    0  0.00000000000E+00  0.00000000000E+00  0.10898437465E+04  0.10898437465E+04  0.25500000000E-02 0. -1.
         -2   -1    0    0    0  501 -0.00000000000E+00 -0.00000000000E+00 -0.41106579193E+03  0.41106579194E+03  0.25500000000E-02 0.  1.
    8880023    1    1    2    0    0  0.26991354331E+03 -0.29136444235E+03  0.89945848862E+02  0.77436878883E+03  0.65864270000E+03 0.  0.
    8880022    1    1    2    0    0 -0.26991354331E+03  0.29136444235E+03  0.58883210574E+03  0.72654074965E+03  0.15294330000E+03 0.  0.
<mgrwt>
<rscale>  0 0.66336098E+03</rscale>
<asrwt>0</asrwt>
<pdfrwt beam="1">  1        2 0.16766827E+00 0.76912728E+03</pdfrwt>
<pdfrwt beam="2">  1       -2 0.63240891E-01 0.76912728E+03</pdfrwt>
<totfact> 0.51931933E+01</totfact>
</mgrwt>
</event>
<event>
 4    2  0.6387803E-007  0.7130920E+03  0.7818608E-02  0.9946694E-01
         -2   -1    0    0    0  501 -0.00000000000E+00  0.00000000000E+00  0.51452918338E+03  0.51452918338E+03  0.25500000000E-02 0.  1.
          2   -1    0    0  501    0  0.00000000000E+00 -0.00000000000E+00 -0.57354492468E+03  0.57354492469E+03  0.25500000000E-02 0. -1.
    8880023    1    1    2    0    0  0.15992319126E+03 -0.22161795852E+03  0.12627542886E+03  0.72418618934E+03  0.65864270000E+03 0.  0.
    8880022    1    1    2    0    0 -0.15992319126E+03  0.22161795852E+03 -0.18529117017E+03  0.36388791873E+03  0.15294330000E+03 0.  1.
<mgrwt>
<rscale>  0 0.58050719E+03</rscale>
<asrwt>0</asrwt>
<pdfrwt beam="1">  1        2 0.88237680E-01 0.71309197E+03</pdfrwt>
<pdfrwt beam="2">  1       -2 0.79158336E-01 0.71309197E+03</pdfrwt>
<totfact> 0.75173307E+01</totfact>
</mgrwt>
</event>
<event>
 4    2  0.6387803E-007  0.8355056E+03  0.7818608E-02  0.9638714E-01
          2   -1    0    0  501    0  0.00000000000E+00  0.00000000000E+00  0.26077092982E+04  0.26077092982E+04  0.25500000000E-02 0. -1.
         -2   -1    0    0    0  501 -0.00000000000E+00 -0.00000000000E+00 -0.25658762091E+03  0.25658762093E+03  0.25500000000E-02 0.  1.
    8880023    1    1    2    0    0  0.31739389198E+03 -0.40437666440E+03  0.58869965749E+03  0.10220747832E+04  0.65864270000E+03 0.  1.
    8880022    1    1    2    0    0 -0.31739389198E+03  0.40437666440E+03  0.17624220198E+04  0.18422221360E+04  0.15294330000E+03 0.  0.
<mgrwt>
<rscale>  0 0.74785992E+03</rscale>
<asrwt>0</asrwt>
<pdfrwt beam="1">  1        2 0.40118603E+00 0.83550558E+03</pdfrwt>
<pdfrwt beam="2">  1       -2 0.39475020E-01 0.83550558E+03</pdfrwt>
<totfact> 0.18927964E+01</totfact>
</mgrwt>
</event>
<event>
 4    2  0.6387803E-007  0.6607109E+03  0.7818608E-02  0.1023440E+00
         -2   -1    0    0    0  501 -0.00000000000E+00  0.00000000000E+00  0.60708180746E+02  0.60708180800E+02  0.25500000000E-02 0.  1.
          2   -1    0    0  501    0  0.00000000000E+00 -0.00000000000E+00 -0.28296917414E+04  0.28296917414E+04  0.25500000000E-02 0. -1.
    8880023    1    1    2    0    0 -0.13381190343E+00  0.52236916569E+02 -0.23568692672E+04  0.24477278571E+04  0.65864270000E+03 0.  0.
    8880022    1    1    2    0    0  0.13381190343E+00 -0.52236916569E+02 -0.41211429340E+03  0.44267206507E+03  0.15294330000E+03 0.  0.
<mgrwt>
<rscale>  0 0.46465544E+03</rscale>
<asrwt>0</asrwt>
<pdfrwt beam="1">  1        2 0.43533709E+00 0.66071092E+03</pdfrwt>
<pdfrwt beam="2">  1       -2 0.93397223E-02 0.66071092E+03</pdfrwt>
<totfact> 0.18034503E+02</totfact>
</mgrwt>
</event>
<event>
 4    2  0.6387803E-007  0.8100382E+03  0.7818608E-02  0.9689497E-01
         -2   -1    0    0    0  501 -0.00000000000E+00  0.00000000000E+00  0.91063073257E+03  0.91063073258E+03  0.25500000000E-02 0.  1.
          2   -1    0    0  501    0  0.00000000000E+00 -0.00000000000E+00 -0.19294865753E+04  0.19294865753E+04  0.25500000000E-02 0. -1.
    8880023    1    1    2    0    0  0.12154112165E+03 -0.45560880777E+03  0.68796854075E+03  0.10627617557E+04  0.65864270000E+03 0.  0.
    8880022    1    1    2    0    0 -0.12154112165E+03  0.45560880777E+03 -0.17068243835E+04  0.17773555522E+04  0.15294330000E+03 0.  0.
<mgrwt>
<rscale>  0 0.71645566E+03</rscale>
<asrwt>0</asrwt>
<pdfrwt beam="1">  1        2 0.29684409E+00 0.81003817E+03</pdfrwt>
<pdfrwt beam="2">  1       -2 0.14009704E+00 0.81003817E+03</pdfrwt>
<totfact> 0.26873374E+00</totfact>
</mgrwt>
</event>
<event>
 4    2  0.6387803E-007  0.1175755E+04  0.7818608E-02  0.9181058E-01
          2   -1    0    0  501    0  0.00000000000E+00  0.00000000000E+00  0.68474192782E+03  0.68474192782E+03  0.25500000000E-02 0. -1.
         -2   -1    0    0    0  501 -0.00000000000E+00 -0.00000000000E+00 -0.51989873404E+04  0.51989873404E+04  0.25500000000E-02 0.  1.
    8880023    1    1    2    0    0  0.86042101090E+03 -0.45636089326E+03 -0.47304772348E+04  0.48744040309E+04  0.65864270000E+03 0.  0.
    8880022    1    1    2    0    0 -0.86042101090E+03  0.45636089326E+03  0.21623182217E+03  0.10093252374E+04  0.15294330000E+03 0.  0.
<mgrwt>
<rscale>  0 0.11251097E+04</rscale>
<asrwt>0</asrwt>
<pdfrwt beam="1">  1        2 0.10534492E+00 0.11757550E+04</pdfrwt>
<pdfrwt beam="2">  1       -2 0.79984418E+00 0.11757550E+04</pdfrwt>
<totfact> 0.34298501E-03</totfact>
</mgrwt>
</event>
<event>
 4    2  0.6387803E-007  0.6725795E+03  0.7818608E-02  0.1013877E+00
          2   -1    0    0  501    0  0.00000000000E+00  0.00000000000E+00  0.36206502414E+04  0.36206502414E+04  0.25500000000E-02 0. -1.
         -2   -1    0    0    0  501 -0.00000000000E+00 -0.00000000000E+00 -0.21795336841E+03  0.21795336843E+03  0.25500000000E-02 0.  1.
    8880023    1    1    2    0    0 -0.13430037828E+03  0.22724813901E+02  0.31250959087E+03  0.74163701325E+03  0.65864270000E+03 0.  0.
    8880022    1    1    2    0    0  0.13430037828E+03 -0.22724813901E+02  0.30901872821E+04  0.30969665966E+04  0.15294330000E+03 0. -1.
<mgrwt>
<rscale>  0 0.49962288E+03</rscale>
<asrwt>0</asrwt>
<pdfrwt beam="1">  1        2 0.55702305E+00 0.67257952E+03</pdfrwt>
<pdfrwt beam="2">  1       -2 0.33531291E-01 0.67257952E+03</pdfrwt>
<totfact> 0.61325598E+00</totfact>
</mgrwt>
</event>
<event>
 4    2  0.6387803E-007  0.1037011E+04  0.7818608E-02  0.9334661E-01
         -2   -1    0    0    0  501 -0.00000000000E+00  0.00000000000E+00  0.20846449231E+04  0.20846449231E+04  0.25500000000E-02 0.  1.
          2   -1    0    0  501    0  0.00000000000E+00 -0.00000000000E+00 -0.47466144203E+03  0.47466144204E+03  0.25500000000E-02 0. -1.
    8880023    1    1    2    0    0 -0.66026107761E+03 -0.45347234163E+03  0.42471349613E+03  0.11206130533E+04  0.65864270000E+03 0.  0.
    8880022    1    1    2    0    0  0.66026107761E+03  0.45347234163E+03  0.11852699849E+04  0.14386933118E+04  0.15294330000E+03 0.  0.
<mgrwt>
<rscale>  0 0.97653565E+03</rscale>
<asrwt>0</asrwt>
<pdfrwt beam="1">  1        2 0.73024839E-01 0.10370111E+04</pdfrwt>
<pdfrwt beam="2">  1       -2 0.32071460E+00 0.10370111E+04</pdfrwt>
<totfact> 0.15598012E+00</totfact>
</mgrwt>
</event>
<event>
 4    2  0.6387803E-007  0.7410964E+03  0.7818608E-02  0.9856765E-01
          2   -1    0    0  501    0  0.00000000000E+00  0.00000000000E+00  0.98694191103E+03  0.98694191103E+03  0.25500000000E-02 0. -1.
         -2   -1    0    0    0  501 -0.00000000000E+00 -0.00000000000E+00 -0.56608671090E+03  0.56608671090E+03  0.25500000000E-02 0.  1.
    8880023    1    1    2    0    0  0.31047851994E+03 -0.13790147319E+03 -0.25295465601E+03  0.78307725795E+03  0.65864270000E+03 0.  1.
    8880022    1    1    2    0    0 -0.31047851994E+03  0.13790147319E+03  0.67380985615E+03  0.76995136399E+03  0.15294330000E+03 0.  0.
<mgrwt>
<rscale>  0 0.62403196E+03</rscale>
<asrwt>0</asrwt>
<pdfrwt beam="1">  1        2 0.15183722E+00 0.74109644E+03</pdfrwt>
<pdfrwt beam="2">  1       -2 0.87090263E-01 0.74109644E+03</pdfrwt>
<totfact> 0.29767108E+01</totfact>
</mgrwt>
</event>
<event>
 4    2  0.6387803E-007  0.8081846E+03  0.7818608E-02  0.9693371E-01
          2   -1    0    0  501    0  0.00000000000E+00  0.00000000000E+00  0.14848972024E+04  0.14848972024E+04  0.25500000000E-02 0. -1.
         -2   -1    0    0    0  501 -0.00000000000E+00 -0.00000000000E+00 -0.37280424465E+03  0.37280424466E+03  0.25500000000E-02 0.  1.
    8880023    1    1    2    0    0 -0.25211588476E+03 -0.39470212903E+03  0.21836451608E+03  0.83716513195E+03  0.65864270000E+03 0.  1.
    8880022    1    1    2    0    0  0.25211588476E+03  0.39470212903E+03  0.89372844169E+03  0.10205363151E+04  0.15294330000E+03 0.  0.
<mgrwt>
<rscale>  0 0.71412867E+03</rscale>
<asrwt>0</asrwt>
<pdfrwt beam="1">  1        2 0.22844573E+00 0.80818463E+03</pdfrwt>
<pdfrwt beam="2">  1       -2 0.57354499E-01 0.80818463E+03</pdfrwt>
<totfact> 0.37469366E+01</totfact>
</mgrwt>
</event>
<event>
 4    2  0.6387803E-007  0.6666899E+03  0.7818608E-02  0.1018156E+00
         -2   -1    0    0    0  501 -0.00000000000E+00  0.00000000000E+00  0.52840124799E+03  0.52840124800E+03  0.25500000000E-02 0.  1.
          2   -1    0    0  501    0  0.00000000000E+00 -0.00000000000E+00 -0.42199541035E+03  0.42199541036E+03  0.25500000000E-02 0. -1.
    8880023    1    1    2    0    0 -0.78524218194E+01  0.10297349852E+03  0.25466561004E+03  0.71367358164E+03  0.65864270000E+03 0.  0.
    8880022    1    1    2    0    0  0.78524218194E+01 -0.10297349852E+03 -0.14825977239E+03  0.23672307672E+03  0.15294330000E+03 0.  0.
<mgrwt>
<rscale>  0 0.48358015E+03</rscale>
<asrwt>0</asrwt>
<pdfrwt beam="1">  1        2 0.64922371E-01 0.66668989E+03</pdfrwt>
<pdfrwt beam="2">  1       -2 0.81292500E-01 0.66668989E+03</pdfrwt>
<totfact> 0.10127726E+02</totfact>
</mgrwt>
</event>
<event>
 4    2  0.6387803E-007  0.7777746E+03  0.7818608E-02  0.9761091E-01
          2   -1    0    0  501    0  0.00000000000E+00  0.00000000000E+00  0.31638506277E+04  0.31638506277E+04  0.25500000000E-02 0. -1.
         -2   -1    0    0    0  501 -0.00000000000E+00 -0.00000000000E+00 -0.59661521550E+03  0.59661521551E+03  0.25500000000E-02 0.  1.
    8880023    1    1    2    0    0  0.39973058503E+03 -0.10648241076E+03 -0.31905616183E+03  0.84067240057E+03  0.65864270000E+03 0.  1.
    8880022    1    1    2    0    0 -0.39973058503E+03  0.10648241076E+03  0.28862915740E+04  0.29197934427E+04  0.15294330000E+03 0.  0.
<mgrwt>
<rscale>  0 0.67493096E+03</rscale>
<asrwt>0</asrwt>
<pdfrwt beam="1">  1        2 0.48674623E+00 0.77777455E+03</pdfrwt>
<pdfrwt beam="2">  1       -2 0.91786960E-01 0.77777455E+03</pdfrwt>
<totfact> 0.14758307E+00</totfact>
</mgrwt>
</event>
<event>
 4    2  0.6387803E-007  0.7833805E+03  0.7818608E-02  0.9747955E-01
          2   -1    0    0  501    0  0.00000000000E+00  0.00000000000E+00  0.26189084499E+04  0.26189084499E+04  0.25500000000E-02 0. -1.
         -2   -1    0    0    0  501 -0.00000000000E+00 -0.00000000000E+00 -0.25604890916E+03  0.25604890918E+03  0.25500000000E-02 0.  1.
    8880023    1    1    2    0    0 -0.42204566256E+02 -0.42201136783E+03  0.43699242108E+03  0.89702140573E+03  0.65864270000E+03 0.  1.
    8880022    1    1    2    0    0  0.42204566256E+02  0.42201136783E+03  0.19258671197E+04  0.19779359534E+04  0.15294330000E+03 0.  0.
<mgrwt>
<rscale>  0 0.68231951E+03</rscale>
<asrwt>0</asrwt>
<pdfrwt beam="1">  1        2 0.40290900E+00 0.78338051E+03</pdfrwt>
<pdfrwt beam="2">  1       -2 0.39392139E-01 0.78338051E+03</pdfrwt>
<totfact> 0.18867317E+01</totfact>
</mgrwt>
</event>
<event>
 4    2  0.6387803E-007  0.7085367E+03  0.7818608E-02  0.9963475E-01
         -2   -1    0    0    0  501 -0.00000000000E+00  0.00000000000E+00  0.38717907208E+03  0.38717907208E+03  0.25500000000E-02 0.  1.
          2   -1    0    0  501    0  0.00000000000E+00 -0.00000000000E+00 -0.99387369509E+03  0.99387369509E+03  0.25500000000E-02 0. -1.
    8880023    1    1    2    0    0 -0.54107785157E+02 -0.25551210269E+03 -0.61648463719E+01  0.70856354594E+03  0.65864270000E+03 0.  1.
    8880022    1    1    2    0    0  0.54107785157E+02  0.25551210269E+03 -0.60052977664E+03  0.67248922124E+03  0.15294330000E+03 0.  0.
<mgrwt>
<rscale>  0 0.57281200E+03</rscale>
<asrwt>0</asrwt>
<pdfrwt beam="1">  1        2 0.15290364E+00 0.70853673E+03</pdfrwt>
<pdfrwt beam="2">  1       -2 0.59566012E-01 0.70853673E+03</pdfrwt>
<totfact> 0.68071149E+01</totfact>
</mgrwt>
</event>
<event>
 4    2  0.6387803E-007  0.8082201E+03  0.7818608E-02  0.9693296E-01
          2   -1    0    0  501    0  0.00000000000E+00  0.00000000000E+00  0.17230004014E+04  0.17230004014E+04  0.25500000000E-02 0. -1.
         -2   -1    0    0    0  501 -0.00000000000E+00 -0.00000000000E+00 -0.50274054673E+03  0.50274054673E+03  0.25500000000E-02 0.  1.
    8880023    1    1    2    0    0 -0.45781860070E+03 -0.99053783820E+02 -0.10201963896E+03  0.81463349810E+03  0.65864270000E+03 0.  0.
    8880022    1    1    2    0    0  0.45781860070E+03  0.99053783820E+02  0.13222794936E+04  0.14111074500E+04  0.15294330000E+03 0.  0.
<mgrwt>
<rscale>  0 0.71417326E+03</rscale>
<asrwt>0</asrwt>
<pdfrwt beam="1">  1        2 0.26507699E+00 0.80822010E+03</pdfrwt>
<pdfrwt beam="2">  1       -2 0.77344698E-01 0.80822010E+03</pdfrwt>
<totfact> 0.14494514E+01</totfact>
</mgrwt>
</event>
<event>
 4    2  0.6387803E-007  0.8644346E+03  0.7818608E-02  0.9585723E-01
         -2   -1    0    0    0  501 -0.00000000000E+00  0.00000000000E+00  0.16979570690E+04  0.16979570690E+04  0.25500000000E-02 0.  1.
          2   -1    0    0  501    0  0.00000000000E+00 -0.00000000000E+00 -0.69665607959E+03  0.69665607959E+03  0.25500000000E-02 0. -1.
    8880023    1    1    2    0    0  0.55984403445E+03  0.34023319583E+01  0.14314525132E+04  0.16722151245E+04  0.65864270000E+03 0.  1.
    8880022    1    1    2    0    0 -0.55984403445E+03 -0.34023319583E+01 -0.43015152380E+03  0.72239802409E+03  0.15294330000E+03 0.  0.
<mgrwt>
<rscale>  0 0.78248354E+03</rscale>
<asrwt>0</asrwt>
<pdfrwt beam="1">  1        2 0.10717786E+00 0.86443457E+03</pdfrwt>
<pdfrwt beam="2">  1       -2 0.26122416E+00 0.86443457E+03</pdfrwt>
<totfact> 0.22978494E+00</totfact>
</mgrwt>
</event>
<event>
 4    2  0.6387803E-007  0.8051832E+03  0.7818608E-02  0.9699699E-01
          2   -1    0    0  501    0  0.00000000000E+00  0.00000000000E+00  0.14225346106E+04  0.14225346106E+04  0.25500000000E-02 0. -1.
         -2   -1    0    0    0  501 -0.00000000000E+00 -0.00000000000E+00 -0.47903501187E+03  0.47903501187E+03  0.25500000000E-02 0.  1.
    8880023    1    1    2    0    0 -0.35476418364E+03 -0.29774499418E+03 -0.37446058391E+02  0.80605342323E+03  0.65864270000E+03 0.  1.
    8880022    1    1    2    0    0  0.35476418364E+03  0.29774499418E+03  0.98094565709E+03  0.10955161992E+04  0.15294330000E+03 0.  0.
<mgrwt>
<rscale>  0 0.71034712E+03</rscale>
<asrwt>0</asrwt>
<pdfrwt beam="1">  1        2 0.21885147E+00 0.80518316E+03</pdfrwt>
<pdfrwt beam="2">  1       -2 0.73697695E-01 0.80518316E+03</pdfrwt>
<totfact> 0.23693784E+01</totfact>
</mgrwt>
</event>
<event>
 4    2  0.6387803E-007  0.7142025E+03  0.7818608E-02  0.9942714E-01
         -2   -1    0    0    0  501 -0.00000000000E+00  0.00000000000E+00  0.49710086207E+03  0.49710086207E+03  0.25500000000E-02 0.  1.
          2   -1    0    0  501    0  0.00000000000E+00 -0.00000000000E+00 -0.53587084727E+03  0.53587084727E+03  0.25500000000E-02 0. -1.
    8880023    1    1    2    0    0 -0.17982862247E+03  0.20961090919E+03  0.52176404874E+01  0.71422160199E+03  0.65864270000E+03 0.  1.
    8880022    1    1    2    0    0  0.17982862247E+03 -0.20961090919E+03 -0.43987625687E+02  0.31875010736E+03  0.15294330000E+03 0.  1.
<mgrwt>
<rscale>  0 0.58235099E+03</rscale>
<asrwt>0</asrwt>
<pdfrwt beam="1">  1        2 0.82441669E-01 0.71420254E+03</pdfrwt>
<pdfrwt beam="2">  1       -2 0.76477056E-01 0.71420254E+03</pdfrwt>
<totfact> 0.87978348E+01</totfact>
</mgrwt>
</event>
<event>
 4    2  0.6387803E-007  0.1101142E+04  0.7818608E-02  0.9259786E-01
          2   -1    0    0  501    0  0.00000000000E+00  0.00000000000E+00  0.14213171372E+04  0.14213171372E+04  0.25500000000E-02 0. -1.
         -2   -1    0    0    0  501 -0.00000000000E+00 -0.00000000000E+00 -0.88822889686E+03  0.88822889686E+03  0.25500000000E-02 0.  1.
    8880023    1    1    2    0    0 -0.51002447389E+03 -0.72012325660E+03 -0.23935208714E+03  0.11268549581E+04  0.65864270000E+03 0.  0.
    8880022    1    1    2    0    0  0.51002447389E+03  0.72012325660E+03  0.77244032745E+03  0.11826910760E+04  0.15294330000E+03 0.  0.
<mgrwt>
<rscale>  0 0.10457082E+04</rscale>
<asrwt>0</asrwt>
<pdfrwt beam="1">  1        2 0.21866417E+00 0.11011415E+04</pdfrwt>
<pdfrwt beam="2">  1       -2 0.13665060E+00 0.11011415E+04</pdfrwt>
<totfact> 0.52857576E+00</totfact>
</mgrwt>
</event>
<event>
 4    2  0.6387803E-007  0.1413177E+04  0.7818608E-02  0.8973511E-01
          2   -1    0    0  501    0  0.00000000000E+00  0.00000000000E+00  0.32187639374E+04  0.32187639374E+04  0.25500000000E-02 0. -1.
         -2   -1    0    0    0  501 -0.00000000000E+00 -0.00000000000E+00 -0.90901141669E+03  0.90901141669E+03  0.25500000000E-02 0.  1.
    8880023    1    1    2    0    0  0.10315193071E+04  0.70655921761E+03 -0.91563264315E+02  0.14161398400E+04  0.65864270000E+03 0.  0.
    8880022    1    1    2    0    0 -0.10315193071E+04 -0.70655921761E+03  0.24013157851E+04  0.27116355141E+04  0.15294330000E+03 0.  0.
<mgrwt>
<rscale>  0 0.13731168E+04</rscale>
<asrwt>0</asrwt>
<pdfrwt beam="1">  1        2 0.49519446E+00 0.14131766E+04</pdfrwt>
<pdfrwt beam="2">  1       -2 0.13984791E+00 0.14131766E+04</pdfrwt>
<totfact> 0.43653576E-01</totfact>
</mgrwt>
</event>
<event>
 4    2  0.6387803E-007  0.7143502E+03  0.7818608E-02  0.9942188E-01
         -2   -1    0    0    0  501 -0.00000000000E+00  0.00000000000E+00  0.48315500545E+03  0.48315500545E+03  0.25500000000E-02 0.  1.
          2   -1    0    0  501    0  0.00000000000E+00 -0.00000000000E+00 -0.83153438169E+03  0.83153438170E+03  0.25500000000E-02 0. -1.
    8880023    1    1    2    0    0 -0.25331028902E+03  0.11099495440E+03  0.14485854296E+03  0.72888969410E+03  0.65864270000E+03 0.  1.
    8880022    1    1    2    0    0  0.25331028902E+03 -0.11099495440E+03 -0.49323791920E+03  0.58579969306E+03  0.15294330000E+03 0.  0.
<mgrwt>
<rscale>  0 0.58259520E+03</rscale>
<asrwt>0</asrwt>
<pdfrwt beam="1">  1        2 0.12792837E+00 0.71435019E+03</pdfrwt>
<pdfrwt beam="2">  1       -2 0.74331539E-01 0.71435019E+03</pdfrwt>
<totfact> 0.54157393E+01</totfact>
</mgrwt>
</event>
<event>
 4    2  0.6387803E-007  0.7358355E+03  0.7818608E-02  0.9872248E-01
         -2   -1    0    0    0  501 -0.00000000000E+00  0.00000000000E+00  0.15609162476E+03  0.15609162478E+03  0.25500000000E-02 0.  1.
          2   -1    0    0  501    0  0.00000000000E+00 -0.00000000000E+00 -0.28412409634E+04  0.28412409634E+04  0.25500000000E-02 0. -1.
    8880023    1    1    2    0    0 -0.32456701125E+03 -0.47957767782E+02 -0.83871484062E+03  0.11157492919E+04  0.65864270000E+03 0.  1.
    8880022    1    1    2    0    0  0.32456701125E+03  0.47957767782E+02 -0.18464344980E+04  0.18815832962E+04  0.15294330000E+03 0.  0.
<mgrwt>
<rscale>  0 0.61625310E+03</rscale>
<asrwt>0</asrwt>
<pdfrwt beam="1">  1        2 0.43711396E+00 0.73583551E+03</pdfrwt>
<pdfrwt beam="2">  1       -2 0.24014098E-01 0.73583551E+03</pdfrwt>
<totfact> 0.35461483E+01</totfact>
</mgrwt>
</event>
<event>
 4    2  0.6387803E-007  0.7063238E+03  0.7818608E-02  0.9971914E-01
         -2   -1    0    0    0  501 -0.00000000000E+00  0.00000000000E+00  0.18466959955E+03  0.18466959957E+03  0.25500000000E-02 0.  1.
          2   -1    0    0  501    0  0.00000000000E+00 -0.00000000000E+00 -0.23233373959E+04  0.23233373959E+04  0.25500000000E-02 0. -1.
    8880023    1    1    2    0    0 -0.19602641500E+03  0.16326907642E+03 -0.55950923534E+03  0.90107931803E+03  0.65864270000E+03 0.  1.
    8880022    1    1    2    0    0  0.19602641500E+03 -0.16326907642E+03 -0.15791585610E+04  0.16069276774E+04  0.15294330000E+03 0.  0.
<mgrwt>
<rscale>  0 0.56899093E+03</rscale>
<asrwt>0</asrwt>
<pdfrwt beam="1">  1        2 0.35743650E+00 0.70632383E+03</pdfrwt>
<pdfrwt beam="2">  1       -2 0.28410709E-01 0.70632383E+03</pdfrwt>
<totfact> 0.51984995E+01</totfact>
</mgrwt>
</event>
<event>
 4    2  0.6387803E-007  0.6789768E+03  0.7818608E-02  0.1009908E+00
          2   -1    0    0  501    0  0.00000000000E+00  0.00000000000E+00  0.71515797959E+03  0.71515797959E+03  0.25500000000E-02 0. -1.
         -2   -1    0    0    0  501 -0.00000000000E+00 -0.00000000000E+00 -0.55064283095E+03  0.55064283095E+03  0.25500000000E-02 0.  1.
    8880023    1    1    2    0    0  0.14943644905E+03  0.69771770360E+02 -0.30565174534E+03  0.74460227500E+03  0.65864270000E+03 0.  1.
    8880022    1    1    2    0    0 -0.14943644905E+03 -0.69771770360E+02  0.47016689398E+03  0.52119853555E+03  0.15294330000E+03 0.  0.
<mgrwt>
<rscale>  0 0.51511048E+03</rscale>
<asrwt>0</asrwt>
<pdfrwt beam="1">  1        2 0.11002430E+00 0.67897685E+03</pdfrwt>
<pdfrwt beam="2">  1       -2 0.84714281E-01 0.67897685E+03</pdfrwt>
<totfact> 0.49320870E+01</totfact>
</mgrwt>
</event>
<event>
 4    2  0.6387803E-007  0.6996348E+03  0.7818608E-02  0.9998720E-01
          2   -1    0    0  501    0  0.00000000000E+00  0.00000000000E+00  0.60925878922E+03  0.60925878923E+03  0.25500000000E-02 0. -1.
         -2   -1    0    0    0  501 -0.00000000000E+00 -0.00000000000E+00 -0.54774780934E+03  0.54774780934E+03  0.25500000000E-02 0.  1.
    8880023    1    1    2    0    0 -0.16279165446E+03  0.17081429397E+03 -0.24477389826E+03  0.74121731855E+03  0.65864270000E+03 0.  1.
    8880022    1    1    2    0    0  0.16279165446E+03 -0.17081429397E+03  0.30628487815E+03  0.41578928002E+03  0.15294330000E+03 0.  1.
<mgrwt>
<rscale>  0 0.55706417E+03</rscale>
<asrwt>0</asrwt>
<pdfrwt beam="1">  1        2 0.93732121E-01 0.69963480E+03</pdfrwt>
<pdfrwt beam="2">  1       -2 0.84268894E-01 0.69963480E+03</pdfrwt>
<totfact> 0.60763806E+01</totfact>
</mgrwt>
</event>
<event>
 4    2  0.6387803E-007  0.8616690E+03  0.7818608E-02  0.9590602E-01
          2   -1    0    0  501    0  0.00000000000E+00  0.00000000000E+00  0.92980381772E+03  0.92980381772E+03  0.25500000000E-02 0. -1.
         -2   -1    0    0    0  501 -0.00000000000E+00 -0.00000000000E+00 -0.73786090808E+03  0.73786090809E+03  0.25500000000E-02 0.  1.
    8880023    1    1    2    0    0 -0.47190779363E+03  0.29319999190E+03  0.51818535012E+03  0.10054797185E+04  0.65864270000E+03 0. -1.
    8880022    1    1    2    0    0  0.47190779363E+03 -0.29319999190E+03 -0.32624244048E+03  0.66218500733E+03  0.15294330000E+03 0.  0.
<mgrwt>
<rscale>  0 0.77921368E+03</rscale>
<asrwt>0</asrwt>
<pdfrwt beam="1">  1        2 0.14304674E+00 0.86166897E+03</pdfrwt>
<pdfrwt beam="2">  1       -2 0.11351706E+00 0.86166897E+03</pdfrwt>
<totfact> 0.17124489E+01</totfact>
</mgrwt>
</event>
<event>
 4    2  0.6387803E-007  0.6853077E+03  0.7818608E-02  0.1006468E+00
         -2   -1    0    0    0  501 -0.00000000000E+00  0.00000000000E+00  0.91845067131E+03  0.91845067131E+03  0.25500000000E-02 0.  1.
          2   -1    0    0  501    0  0.00000000000E+00 -0.00000000000E+00 -0.37509627078E+03  0.37509627079E+03  0.25500000000E-02 0. -1.
    8880023    1    1    2    0    0 -0.11976697925E+03 -0.14660234993E+03  0.71910189480E+03  0.99335498171E+03  0.65864270000E+03 0.  1.
    8880022    1    1    2    0    0  0.11976697925E+03  0.14660234993E+03 -0.17574749427E+03  0.30019196039E+03  0.15294330000E+03 0.  0.
<mgrwt>
<rscale>  0 0.52902976E+03</rscale>
<asrwt>0</asrwt>
<pdfrwt beam="1">  1        2 0.57707119E-01 0.68530766E+03</pdfrwt>
<pdfrwt beam="2">  1       -2 0.14130010E+00 0.68530766E+03</pdfrwt>
<totfact> 0.30486789E+01</totfact>
</mgrwt>
</event>
<event>
 4    2  0.6387803E-007  0.7082289E+03  0.7818608E-02  0.9964638E-01
          2   -1    0    0  501    0  0.00000000000E+00  0.00000000000E+00  0.98925710794E+03  0.98925710794E+03  0.25500000000E-02 0. -1.
         -2   -1    0    0    0  501 -0.00000000000E+00 -0.00000000000E+00 -0.47661548284E+03  0.47661548284E+03  0.25500000000E-02 0.  1.
    8880023    1    1    2    0    0 -0.31554915287E+02 -0.25842255856E+03 -0.16219680133E+03  0.72656447758E+03  0.65864270000E+03 0.  1.
    8880022    1    1    2    0    0  0.31554915287E+02  0.25842255856E+03  0.67483842643E+03  0.73930811321E+03  0.15294330000E+03 0.  0.
<mgrwt>
<rscale>  0 0.57228382E+03</rscale>
<asrwt>0</asrwt>
<pdfrwt beam="1">  1        2 0.15219340E+00 0.70822887E+03</pdfrwt>
<pdfrwt beam="2">  1       -2 0.73325459E-01 0.70822887E+03</pdfrwt>
<totfact> 0.43799869E+01</totfact>
</mgrwt>
</event>
<event>
 4    2  0.6387803E-007  0.8305568E+03  0.7818608E-02  0.9648250E-01
          2   -1    0    0  501    0  0.00000000000E+00  0.00000000000E+00  0.19180682828E+04  0.19180682828E+04  0.25500000000E-02 0. -1.
         -2   -1    0    0    0  501 -0.00000000000E+00 -0.00000000000E+00 -0.63262531398E+03  0.63262531399E+03  0.25500000000E-02 0.  1.
    8880023    1    1    2    0    0  0.44397336968E+03  0.24269738360E+03 -0.29718634350E+03  0.88212487893E+03  0.65864270000E+03 0.  0.
    8880022    1    1    2    0    0 -0.44397336968E+03 -0.24269738360E+03  0.15826293123E+04  0.16685687179E+04  0.15294330000E+03 0.  0.
<mgrwt>
<rscale>  0 0.74183355E+03</rscale>
<asrwt>0</asrwt>
<pdfrwt beam="1">  1        2 0.29508743E+00 0.83055679E+03</pdfrwt>
<pdfrwt beam="2">  1       -2 0.97326972E-01 0.83055679E+03</pdfrwt>
<totfact> 0.66745588E+00</totfact>
</mgrwt>
</event>
<event>
 4    2  0.6387803E-007  0.7378925E+03  0.7818608E-02  0.9866129E-01
          2   -1    0    0  501    0  0.00000000000E+00  0.00000000000E+00  0.71290099414E+03  0.71290099415E+03  0.25500000000E-02 0. -1.
         -2   -1    0    0    0  501 -0.00000000000E+00 -0.00000000000E+00 -0.57596712556E+03  0.57596712557E+03  0.25500000000E-02 0.  1.
    8880023    1    1    2    0    0 -0.15025055030E+03  0.29681638515E+03 -0.22759802370E+03  0.77219574009E+03  0.65864270000E+03 0. -1.
    8880022    1    1    2    0    0  0.15025055030E+03 -0.29681638515E+03  0.36453189228E+03  0.51667237963E+03  0.15294330000E+03 0.  0.
<mgrwt>
<rscale>  0 0.61931274E+03</rscale>
<asrwt>0</asrwt>
<pdfrwt beam="1">  1        2 0.10967708E+00 0.73789254E+03</pdfrwt>
<pdfrwt beam="2">  1       -2 0.88610328E-01 0.73789254E+03</pdfrwt>
<totfact> 0.44469371E+01</totfact>
</mgrwt>
</event>
<event>
 4    2  0.6387803E-007  0.8666369E+03  0.7818608E-02  0.9581865E-01
         -2   -1    0    0    0  501 -0.00000000000E+00  0.00000000000E+00  0.25567095292E+03  0.25567095293E+03  0.25500000000E-02 0.  1.
          2   -1    0    0  501    0  0.00000000000E+00 -0.00000000000E+00 -0.27065359888E+04  0.27065359888E+04  0.25500000000E-02 0. -1.
    8880023    1    1    2    0    0  0.49362364277E+03  0.27126566978E+03 -0.69195220397E+03  0.11089893702E+04  0.65864270000E+03 0.  0.
    8880022    1    1    2    0    0 -0.49362364277E+03 -0.27126566978E+03 -0.17589128319E+04  0.18532175716E+04  0.15294330000E+03 0.  0.
<mgrwt>
<rscale>  0 0.78508198E+03</rscale>
<asrwt>0</asrwt>
<pdfrwt beam="1">  1        2 0.41639013E+00 0.86663693E+03</pdfrwt>
<pdfrwt beam="2">  1       -2 0.39333995E-01 0.86663693E+03</pdfrwt>
<totfact> 0.16627635E+01</totfact>
</mgrwt>
</event>
<event>
 4    2  0.6387803E-007  0.8090316E+03  0.7818608E-02  0.9691598E-01
          2   -1    0    0  501    0  0.00000000000E+00  0.00000000000E+00  0.18361433180E+04  0.18361433180E+04  0.25500000000E-02 0. -1.
         -2   -1    0    0    0  501 -0.00000000000E+00 -0.00000000000E+00 -0.10035590219E+04  0.10035590219E+04  0.25500000000E-02 0.  1.
    8880023    1    1    2    0    0  0.15661615358E+03  0.44293704492E+03 -0.79772112688E+03  0.11361738634E+04  0.65864270000E+03 0.  0.
    8880022    1    1    2    0    0 -0.15661615358E+03 -0.44293704492E+03  0.16303054229E+04  0.17035284766E+04  0.15294330000E+03 0.  0.
<mgrwt>
<rscale>  0 0.71519269E+03</rscale>
<asrwt>0</asrwt>
<pdfrwt beam="1">  1        2 0.28248359E+00 0.80903155E+03</pdfrwt>
<pdfrwt beam="2">  1       -2 0.15439370E+00 0.80903155E+03</pdfrwt>
<totfact> 0.23403693E+00</totfact>
</mgrwt>
</event>
<event>
 4    2  0.6387803E-007  0.9239445E+03  0.7818608E-02  0.9488637E-01
          2   -1    0    0  501    0  0.00000000000E+00  0.00000000000E+00  0.17796587141E+04  0.17796587141E+04  0.25500000000E-02 0. -1.
         -2   -1    0    0    0  501 -0.00000000000E+00 -0.00000000000E+00 -0.78664899454E+03  0.78664899454E+03  0.25500000000E-02 0.  1.
    8880023    1    1    2    0    0  0.18698701230E+03 -0.62040235855E+03 -0.41192186258E+03  0.10116091421E+04  0.65864270000E+03 0.  1.
    8880022    1    1    2    0    0 -0.18698701230E+03  0.62040235855E+03  0.14049315821E+04  0.15546985665E+04  0.15294330000E+03 0.  0.
<mgrwt>
<rscale>  0 0.85126760E+03</rscale>
<asrwt>0</asrwt>
<pdfrwt beam="1">  1        2 0.27379365E+00 0.92394450E+03</pdfrwt>
<pdfrwt beam="2">  1       -2 0.12102292E+00 0.92394450E+03</pdfrwt>
<totfact> 0.46307680E+00</totfact>
</mgrwt>
</event>
<event>
 4    2  0.6387803E-007  0.1050520E+04  0.7818608E-02  0.9318256E-01
          2   -1    0    0  501    0  0.00000000000E+00  0.00000000000E+00  0.13654736228E+04  0.13654736228E+04  0.25500000000E-02 0. -1.
         -2   -1    0    0    0  501 -0.00000000000E+00 -0.00000000000E+00 -0.10284853296E+04  0.10284853296E+04  0.25500000000E-02 0.  1.
    8880023    1    1    2    0    0 -0.62290226312E+03 -0.53082542989E+03  0.90458801262E+03  0.13863161780E+04  0.65864270000E+03 0.  0.
    8880022    1    1    2    0    0  0.62290226312E+03  0.53082542989E+03 -0.56759971943E+03  0.10076427745E+04  0.15294330000E+03 0.  0.
<mgrwt>
<rscale>  0 0.99119405E+03</rscale>
<asrwt>0</asrwt>
<pdfrwt beam="1">  1        2 0.21007286E+00 0.10505204E+04</pdfrwt>
<pdfrwt beam="2">  1       -2 0.15822851E+00 0.10505204E+04</pdfrwt>
<totfact> 0.38788579E+00</totfact>
</mgrwt>
</event>
<event>
 4    2  0.6387803E-007  0.9220042E+03  0.7818608E-02  0.9491593E-01
         -2   -1    0    0    0  501 -0.00000000000E+00  0.00000000000E+00  0.45355917715E+03  0.45355917716E+03  0.25500000000E-02 0.  1.
          2   -1    0    0  501    0  0.00000000000E+00 -0.00000000000E+00 -0.14397040804E+04  0.14397040804E+04  0.25500000000E-02 0. -1.
    8880023    1    1    2    0    0 -0.20123740169E+03  0.61301311459E+03 -0.38819676651E+03  0.10003941755E+04  0.65864270000E+03 0.  0.
    8880022    1    1    2    0    0  0.20123740169E+03 -0.61301311459E+03 -0.59794813670E+03  0.89286908206E+03  0.15294330000E+03 0.  0.
<mgrwt>
<rscale>  0 0.84906499E+03</rscale>
<asrwt>0</asrwt>
<pdfrwt beam="1">  1        2 0.22149293E+00 0.92200422E+03</pdfrwt>
<pdfrwt beam="2">  1       -2 0.69778335E-01 0.92200422E+03</pdfrwt>
<totfact> 0.25824805E+01</totfact>
</mgrwt>
</event>
<event>
 4    2  0.6387803E-007  0.6973638E+03  0.7818608E-02  0.1000832E+00
         -2   -1    0    0    0  501 -0.00000000000E+00  0.00000000000E+00  0.93531684340E+03  0.93531684340E+03  0.25500000000E-02 0.  1.
          2   -1    0    0  501    0  0.00000000000E+00 -0.00000000000E+00 -0.11055705504E+04  0.11055705504E+04  0.25500000000E-02 0. -1.
    8880023    1    1    2    0    0 -0.20531610011E+03 -0.10174157389E+03  0.78305673027E+03  0.10485676411E+04  0.65864270000E+03 0.  1.
    8880022    1    1    2    0    0  0.20531610011E+03  0.10174157389E+03 -0.95331043724E+03  0.99231975270E+03  0.15294330000E+03 0.  0.
<mgrwt>
<rscale>  0 0.55287013E+03</rscale>
<asrwt>0</asrwt>
<pdfrwt beam="1">  1        2 0.17008778E+00 0.69736379E+03</pdfrwt>
<pdfrwt beam="2">  1       -2 0.14389490E+00 0.69736379E+03</pdfrwt>
<totfact> 0.74193919E+00</totfact>
</mgrwt>
</event>
<event>
 4    2  0.6387803E-007  0.6865297E+03  0.7818608E-02  0.1005848E+00
          2   -1    0    0  501    0  0.00000000000E+00  0.00000000000E+00  0.27002348628E+04  0.27002348629E+04  0.25500000000E-02 0. -1.
         -2   -1    0    0    0  501 -0.00000000000E+00 -0.00000000000E+00 -0.17069169380E+03  0.17069169382E+03  0.25500000000E-02 0.  1.
    8880023    1    1    2    0    0  0.19358190714E+03 -0.62300239220E+01  0.55993543063E+03  0.88591797629E+03  0.65864270000E+03 0.  0.
    8880022    1    1    2    0    0 -0.19358190714E+03  0.62300239220E+01  0.19696077384E+04  0.19850085804E+04  0.15294330000E+03 0. -1.
<mgrwt>
<rscale>  0 0.53158850E+03</rscale>
<asrwt>0</asrwt>
<pdfrwt beam="1">  1        2 0.41542073E+00 0.68652966E+03</pdfrwt>
<pdfrwt beam="2">  1       -2 0.26260262E-01 0.68652966E+03</pdfrwt>
<totfact> 0.36803237E+01</totfact>
</mgrwt>
</event>
<event>
 4    2  0.6387803E-007  0.1117659E+04  0.7818608E-02  0.9241645E-01
         -2   -1    0    0    0  501 -0.00000000000E+00  0.00000000000E+00  0.83409736027E+03  0.83409736027E+03  0.25500000000E-02 0.  1.
          2   -1    0    0  501    0  0.00000000000E+00 -0.00000000000E+00 -0.13186123420E+04  0.13186123420E+04  0.25500000000E-02 0. -1.
    8880023    1    1    2    0    0 -0.84542455438E+03  0.31718798595E+03 -0.22461416679E+01  0.11176610161E+04  0.65864270000E+03 0.  1.
    8880022    1    1    2    0    0  0.84542455438E+03 -0.31718798595E+03 -0.48226884009E+03  0.10350486862E+04  0.15294330000E+03 0.  0.
<mgrwt>
<rscale>  0 0.10633727E+04</rscale>
<asrwt>0</asrwt>
<pdfrwt beam="1">  1        2 0.20286344E+00 0.11176588E+04</pdfrwt>
<pdfrwt beam="2">  1       -2 0.12832267E+00 0.11176588E+04</pdfrwt>
<totfact> 0.71025639E+00</totfact>
</mgrwt>
</event>
<event>
 4    2  0.6387803E-007  0.7442683E+03  0.7818608E-02  0.9847684E-01
         -2   -1    0    0    0  501 -0.00000000000E+00  0.00000000000E+00  0.29887017084E+03  0.29887017085E+03  0.25500000000E-02 0.  1.
          2   -1    0    0  501    0  0.00000000000E+00 -0.00000000000E+00 -0.11924100701E+04  0.11924100701E+04  0.25500000000E-02 0. -1.
    8880023    1    1    2    0    0 -0.16507196807E+03  0.30475631287E+03 -0.33452459740E+03  0.81599146895E+03  0.65864270000E+03 0.  0.
    8880022    1    1    2    0    0  0.16507196807E+03 -0.30475631287E+03 -0.55901530185E+03  0.67528877200E+03  0.15294330000E+03 0.  0.
<mgrwt>
<rscale>  0 0.62865158E+03</rscale>
<asrwt>0</asrwt>
<pdfrwt beam="1">  1        2 0.18344770E+00 0.74426835E+03</pdfrwt>
<pdfrwt beam="2">  1       -2 0.45980027E-01 0.74426835E+03</pdfrwt>
<totfact> 0.87232884E+01</totfact>
</mgrwt>
</event>
<event>
 4    2  0.6387803E-007  0.7004823E+03  0.7818608E-02  0.9995206E-01
         -2   -1    0    0    0  501 -0.00000000000E+00  0.00000000000E+00  0.29233731929E+03  0.29233731930E+03  0.25500000000E-02 0.  1.
          2   -1    0    0  501    0  0.00000000000E+00 -0.00000000000E+00 -0.27445365301E+04  0.27445365301E+04  0.25500000000E-02 0. -1.
    8880023    1    1    2    0    0 -0.22319827019E+03  0.83950633396E+02 -0.14879192126E+03  0.71611061908E+03  0.65864270000E+03 0.  1.
    8880022    1    1    2    0    0  0.22319827019E+03 -0.83950633396E+02 -0.23034072896E+04  0.23207632303E+04  0.15294330000E+03 0.  0.
<mgrwt>
<rscale>  0 0.55860922E+03</rscale>
<asrwt>0</asrwt>
<pdfrwt beam="1">  1        2 0.42223637E+00 0.70048225E+03</pdfrwt>
<pdfrwt beam="2">  1       -2 0.44974974E-01 0.70048225E+03</pdfrwt>
<totfact> 0.12456366E+01</totfact>
</mgrwt>
</event>
<event>
 4    2  0.6387803E-007  0.7304629E+03  0.7818608E-02  0.9888653E-01
          2   -1    0    0  501    0  0.00000000000E+00  0.00000000000E+00  0.14641102657E+04  0.14641102657E+04  0.25500000000E-02 0. -1.
         -2   -1    0    0    0  501 -0.00000000000E+00 -0.00000000000E+00 -0.25463864223E+03  0.25463864225E+03  0.25500000000E-02 0.  1.
    8880023    1    1    2    0    0  0.21547038857E+03 -0.23095090625E+03  0.11506322225E+04  0.13629125164E+04  0.65864270000E+03 0. -1.
    8880022    1    1    2    0    0 -0.21547038857E+03  0.23095090625E+03  0.58839400907E+02  0.35583639157E+03  0.15294330000E+03 0.  0.
<mgrwt>
<rscale>  0 0.60814369E+03</rscale>
<asrwt>0</asrwt>
<pdfrwt beam="1">  1        2 0.22524773E+00 0.73046288E+03</pdfrwt>
<pdfrwt beam="2">  1       -2 0.39175176E-01 0.73046288E+03</pdfrwt>
<totfact> 0.83642391E+01</totfact>
</mgrwt>
</event>
<event>
 4    2  0.6387803E-007  0.1287229E+04  0.7818608E-02  0.9076667E-01
         -2   -1    0    0    0  501 -0.00000000000E+00  0.00000000000E+00  0.60974109276E+03  0.60974109276E+03  0.25500000000E-02 0.  1.
          2   -1    0    0  501    0  0.00000000000E+00 -0.00000000000E+00 -0.26177230071E+04  0.26177230071E+04  0.25500000000E-02 0. -1.
    8880023    1    1    2    0    0  0.56074166568E+03 -0.95326669076E+03 -0.57221751729E+03  0.14086843836E+04  0.65864270000E+03 0.  1.
    8880022    1    1    2    0    0 -0.56074166568E+03  0.95326669076E+03 -0.14357643971E+04  0.18187797163E+04  0.15294330000E+03 0. -1.
<mgrwt>
<rscale>  0 0.12422391E+04</rscale>
<asrwt>0</asrwt>
<pdfrwt beam="1">  1        2 0.40272661E+00 0.12872291E+04</pdfrwt>
<pdfrwt beam="2">  1       -2 0.93806324E-01 0.12872291E+04</pdfrwt>
<totfact> 0.27835932E+00</totfact>
</mgrwt>
</event>
<event>
 4    2  0.6387803E-007  0.1447159E+04  0.7818608E-02  0.8947879E-01
          2   -1    0    0  501    0  0.00000000000E+00  0.00000000000E+00  0.31057582593E+04  0.31057582593E+04  0.25500000000E-02 0. -1.
         -2   -1    0    0    0  501 -0.00000000000E+00 -0.00000000000E+00 -0.71014471830E+03  0.71014471831E+03  0.25500000000E-02 0.  1.
    8880023    1    1    2    0    0  0.12690235621E+04  0.22369119520E+03  0.52536042331E+03  0.15395688788E+04  0.65864270000E+03 0.  0.
    8880022    1    1    2    0    0 -0.12690235621E+04 -0.22369119520E+03  0.18702531177E+04  0.22763340988E+04  0.15294330000E+03 0.  0.
<mgrwt>
<rscale>  0 0.14082348E+04</rscale>
<asrwt>0</asrwt>
<pdfrwt beam="1">  1        2 0.47780896E+00 0.14471589E+04</pdfrwt>
<pdfrwt beam="2">  1       -2 0.10925303E+00 0.14471589E+04</pdfrwt>
<totfact> 0.95807224E-01</totfact>
</mgrwt>
</event>
<event>
 4    2  0.6387803E-007  0.6699735E+03  0.7818608E-02  0.1015682E+00
          2   -1    0    0  501    0  0.00000000000E+00  0.00000000000E+00  0.48505753082E+04  0.48505753082E+04  0.25500000000E-02 0. -1.
         -2   -1    0    0    0  501 -0.00000000000E+00 -0.00000000000E+00 -0.10366292611E+03  0.10366292614E+03  0.25500000000E-02 0.  1.
    8880023    1    1    2    0    0 -0.21957720588E+02  0.12071486587E+03  0.10089307414E+04  0.12111175284E+04  0.65864270000E+03 0.  1.
    8880022    1    1    2    0    0  0.21957720588E+02 -0.12071486587E+03  0.37379816407E+04  0.37431207060E+04  0.15294330000E+03 0.  0.
<mgrwt>
<rscale>  0 0.49277585E+03</rscale>
<asrwt>0</asrwt>
<pdfrwt beam="1">  1        2 0.74624217E+00 0.66997345E+03</pdfrwt>
<pdfrwt beam="2">  1       -2 0.15948146E-01 0.66997345E+03</pdfrwt>
<totfact> 0.19474556E+00</totfact>
</mgrwt>
</event>
<event>
 4    2  0.6387803E-007  0.8670998E+03  0.7818608E-02  0.9581057E-01
          2   -1    0    0  501    0  0.00000000000E+00  0.00000000000E+00  0.21173966662E+04  0.21173966662E+04  0.25500000000E-02 0. -1.
         -2   -1    0    0    0  501 -0.00000000000E+00 -0.00000000000E+00 -0.57317579793E+03  0.57317579794E+03  0.25500000000E-02 0.  1.
    8880023    1    1    2    0    0  0.27068996157E+03  0.49475127913E+03 -0.16638375049E+03  0.88291881970E+03  0.65864270000E+03 0.  1.
    8880022    1    1    2    0    0 -0.27068996157E+03 -0.49475127913E+03  0.17106046187E+04  0.18076536444E+04  0.15294330000E+03 0.  0.
<mgrwt>
<rscale>  0 0.78562751E+03</rscale>
<asrwt>0</asrwt>
<pdfrwt beam="1">  1        2 0.32575334E+00 0.86709982E+03</pdfrwt>
<pdfrwt beam="2">  1       -2 0.88180891E-01 0.86709982E+03</pdfrwt>
<totfact> 0.64951959E+00</totfact>
</mgrwt>
</event>
<event>
 4    2  0.6387803E-007  0.6733032E+03  0.7818608E-02  0.1013398E+00
         -2   -1    0    0    0  501 -0.00000000000E+00  0.00000000000E+00  0.15257464616E+03  0.15257464618E+03  0.25500000000E-02 0.  1.
          2   -1    0    0  501    0  0.00000000000E+00 -0.00000000000E+00 -0.13397708887E+04  0.13397708887E+04  0.25500000000E-02 0. -1.
    8880023    1    1    2    0    0 -0.12306899432E+03 -0.66188971384E+02 -0.74589750248E+03  0.10048384187E+04  0.65864270000E+03 0. -1.
    8880022    1    1    2    0    0  0.12306899432E+03  0.66188971384E+02 -0.44129874006E+03  0.48750711614E+03  0.15294330000E+03 0.  1.
<mgrwt>
<rscale>  0 0.50146278E+03</rscale>
<asrwt>0</asrwt>
<pdfrwt beam="1">  1        2 0.20611859E+00 0.67330317E+03</pdfrwt>
<pdfrwt beam="2">  1       -2 0.23473023E-01 0.67330317E+03</pdfrwt>
<totfact> 0.25599622E+02</totfact>
</mgrwt>
</event>
<event>
 4    2  0.6387803E-007  0.6786065E+03  0.7818608E-02  0.1010123E+00
         -2   -1    0    0    0  501 -0.00000000000E+00  0.00000000000E+00  0.35760675090E+03  0.35760675091E+03  0.25500000000E-02 0.  1.
          2   -1    0    0  501    0  0.00000000000E+00 -0.00000000000E+00 -0.74164353625E+03  0.74164353626E+03  0.25500000000E-02 0. -1.
    8880023    1    1    2    0    0 -0.10760166802E+03 -0.12295739731E+03 -0.28583542554E+02  0.67920826385E+03  0.65864270000E+03 0.  1.
    8880022    1    1    2    0    0  0.10760166802E+03  0.12295739731E+03 -0.35545324280E+03  0.42004202331E+03  0.15294330000E+03 0.  0.
<mgrwt>
<rscale>  0 0.51425742E+03</rscale>
<asrwt>0</asrwt>
<pdfrwt beam="1">  1        2 0.11409901E+00 0.67860655E+03</pdfrwt>
<pdfrwt beam="2">  1       -2 0.55016423E-01 0.67860655E+03</pdfrwt>
<totfact> 0.12012110E+02</totfact>
</mgrwt>
</event>
<event>
 4    2  0.6387803E-007  0.1582249E+04  0.7818608E-02  0.8853640E-01
         -2   -1    0    0    0  501 -0.00000000000E+00  0.00000000000E+00  0.20760768720E+04  0.20760768720E+04  0.25500000000E-02 0.  1.
          2   -1    0    0  501    0  0.00000000000E+00 -0.00000000000E+00 -0.19780927510E+04  0.19780927510E+04  0.25500000000E-02 0. -1.
    8880023    1    1    2    0    0  0.26571584785E+03  0.14138940390E+04  0.13963187957E+04  0.21102648296E+04  0.65864270000E+03 0.  0.
    8880022    1    1    2    0    0 -0.26571584785E+03 -0.14138940390E+04 -0.12983346747E+04  0.19439047934E+04  0.15294330000E+03 0.  0.
<mgrwt>
<rscale>  0 0.15472292E+04</rscale>
<asrwt>0</asrwt>
<pdfrwt beam="1">  1        2 0.30432196E+00 0.15822489E+04</pdfrwt>
<pdfrwt beam="2">  1       -2 0.31939644E+00 0.15822489E+04</pdfrwt>
<totfact> 0.15422152E-01</totfact>
</mgrwt>
</event>
<event>
 4    2  0.6387803E-007  0.6591970E+03  0.7818608E-02  0.1024995E+00
         -2   -1    0    0    0  501 -0.00000000000E+00  0.00000000000E+00  0.61724059008E+03  0.61724059009E+03  0.25500000000E-02 0.  1.
          2   -1    0    0  501    0  0.00000000000E+00 -0.00000000000E+00 -0.89004998387E+03  0.89004998387E+03  0.25500000000E-02 0. -1.
    8880023    1    1    2    0    0  0.26903945766E+02  0.25848938078E+01  0.43031448557E+03  0.78721742024E+03  0.65864270000E+03 0.  1.
    8880022    1    1    2    0    0 -0.26903945766E+02 -0.25848938078E+01 -0.70312387936E+03  0.72007315372E+03  0.15294330000E+03 0.  0.
<mgrwt>
<rscale>  0 0.45926510E+03</rscale>
<asrwt>0</asrwt>
<pdfrwt beam="1">  1        2 0.13693077E+00 0.65919702E+03</pdfrwt>
<pdfrwt beam="2">  1       -2 0.94960090E-01 0.65919702E+03</pdfrwt>
<totfact> 0.28459115E+01</totfact>
</mgrwt>
</event>
<event>
 4    2  0.6387803E-007  0.1080211E+04  0.7818608E-02  0.9283416E-01
          2   -1    0    0  501    0  0.00000000000E+00  0.00000000000E+00  0.20835178461E+04  0.20835178461E+04  0.25500000000E-02 0. -1.
         -2   -1    0    0    0  501 -0.00000000000E+00 -0.00000000000E+00 -0.88014865341E+03  0.88014865341E+03  0.25500000000E-02 0.  1.
    8880023    1    1    2    0    0 -0.71674175212E+03  0.46832246823E+03 -0.38993700671E+03  0.11484362189E+04  0.65864270000E+03 0.  1.
    8880022    1    1    2    0    0  0.71674175212E+03 -0.46832246823E+03  0.15933061994E+04  0.18152302806E+04  0.15294330000E+03 0.  0.
<mgrwt>
<rscale>  0 0.10232408E+04</rscale>
<asrwt>0</asrwt>
<pdfrwt beam="1">  1        2 0.32054121E+00 0.10802106E+04</pdfrwt>
<pdfrwt beam="2">  1       -2 0.13540749E+00 0.10802106E+04</pdfrwt>
<totfact> 0.23237542E+00</totfact>
</mgrwt>
</event>
<event>
 4    2  0.6387803E-007  0.7428741E+03  0.7818608E-02  0.9851653E-01
         -2   -1    0    0    0  501 -0.00000000000E+00  0.00000000000E+00  0.29228247021E+03  0.29228247022E+03  0.25500000000E-02 0.  1.
          2   -1    0    0  501    0  0.00000000000E+00 -0.00000000000E+00 -0.27036047098E+04  0.27036047098E+04  0.25500000000E-02 0. -1.
    8880023    1    1    2    0    0  0.32146624138E+03 -0.12128980700E+03 -0.22320147218E+03  0.77568090416E+03  0.65864270000E+03 0.  1.
    8880022    1    1    2    0    0 -0.32146624138E+03  0.12128980700E+03 -0.21881207674E+04  0.22202062759E+04  0.15294330000E+03 0.  0.
<mgrwt>
<rscale>  0 0.62662723E+03</rscale>
<asrwt>0</asrwt>
<pdfrwt beam="1">  1        2 0.41593917E+00 0.74287413E+03</pdfrwt>
<pdfrwt beam="2">  1       -2 0.44966536E-01 0.74287413E+03</pdfrwt>
<totfact> 0.13068429E+01</totfact>
</mgrwt>
</event>
<event>
 4    2  0.6387803E-007  0.6599557E+03  0.7818608E-02  0.1024202E+00
          2   -1    0    0  501    0  0.00000000000E+00  0.00000000000E+00  0.45506753108E+04  0.45506753108E+04  0.25500000000E-02 0. -1.
         -2   -1    0    0    0  501 -0.00000000000E+00 -0.00000000000E+00 -0.52674841600E+02  0.52674841662E+02  0.25500000000E-02 0.  1.
    8880023    1    1    2    0    0  0.37581898449E+02  0.17858533462E+02  0.21263948188E+04  0.22264537853E+04  0.65864270000E+03 0.  1.
    8880022    1    1    2    0    0 -0.37581898449E+02 -0.17858533462E+02  0.23716056503E+04  0.23768963671E+04  0.15294330000E+03 0.  0.
<mgrwt>
<rscale>  0 0.46200320E+03</rscale>
<asrwt>0</asrwt>
<pdfrwt beam="1">  1        2 0.70010399E+00 0.65995571E+03</pdfrwt>
<pdfrwt beam="2">  1       -2 0.81038207E-02 0.65995571E+03</pdfrwt>
<totfact> 0.12241879E+01</totfact>
</mgrwt>
</event>
<event>
 4    2  0.6387803E-007  0.1330482E+04  0.7818608E-02  0.9039674E-01
          2   -1    0    0  501    0  0.00000000000E+00  0.00000000000E+00  0.10348620396E+04  0.10348620396E+04  0.25500000000E-02 0. -1.
         -2   -1    0    0    0  501 -0.00000000000E+00 -0.00000000000E+00 -0.17380811068E+04  0.17380811068E+04  0.25500000000E-02 0.  1.
    8880023    1    1    2    0    0 -0.89807705855E+03  0.72789411862E+03 -0.87765057052E+03  0.15938798516E+04  0.65864270000E+03 0.  0.
    8880022    1    1    2    0    0  0.89807705855E+03 -0.72789411862E+03  0.17443150335E+03  0.11790632949E+04  0.15294330000E+03 0.  0.
<mgrwt>
<rscale>  0 0.12873294E+04</rscale>
<asrwt>0</asrwt>
<pdfrwt beam="1">  1        2 0.15920954E+00 0.13304820E+04</pdfrwt>
<pdfrwt beam="2">  1       -2 0.26739709E+00 0.13304820E+04</pdfrwt>
<totfact> 0.11571978E+00</totfact>
</mgrwt>
</event>
<event>
 4    2  0.6387803E-007  0.8694842E+03  0.7818608E-02  0.9576911E-01
         -2   -1    0    0    0  501 -0.00000000000E+00  0.00000000000E+00  0.10823315198E+04  0.10823315198E+04  0.25500000000E-02 0.  1.
          2   -1    0    0  501    0  0.00000000000E+00 -0.00000000000E+00 -0.86147124564E+03  0.86147124564E+03  0.25500000000E-02 0. -1.
    8880023    1    1    2    0    0 -0.55667024310E+03 -0.11095385158E+03  0.75348143289E+03  0.11505376972E+04  0.65864270000E+03 0.  0.
    8880022    1    1    2    0    0  0.55667024310E+03  0.11095385158E+03 -0.53262115873E+03  0.79326506823E+03  0.15294330000E+03 0.  0.
<mgrwt>
<rscale>  0 0.78843426E+03</rscale>
<asrwt>0</asrwt>
<pdfrwt beam="1">  1        2 0.13253404E+00 0.86948417E+03</pdfrwt>
<pdfrwt beam="2">  1       -2 0.16651254E+00 0.86948417E+03</pdfrwt>
<totfact> 0.70654808E+00</totfact>
</mgrwt>
</event>
<event>
 4    2  0.6387803E-007  0.7971694E+03  0.7818608E-02  0.9716950E-01
         -2   -1    0    0    0  501 -0.00000000000E+00  0.00000000000E+00  0.92050261826E+03  0.92050261826E+03  0.25500000000E-02 0.  1.
          2   -1    0    0  501    0  0.00000000000E+00 -0.00000000000E+00 -0.89631330732E+03  0.89631330732E+03  0.25500000000E-02 0. -1.
    8880023    1    1    2    0    0 -0.44127271986E+03  0.83350366916E+02  0.65205088857E+03  0.10298783736E+04  0.65864270000E+03 0.  1.
    8880022    1    1    2    0    0  0.44127271986E+03 -0.83350366916E+02 -0.62786157763E+03  0.78693755193E+03  0.15294330000E+03 0.  0.
<mgrwt>
<rscale>  0 0.70016500E+03</rscale>
<asrwt>0</asrwt>
<pdfrwt beam="1">  1        2 0.13789436E+00 0.79716943E+03</pdfrwt>
<pdfrwt beam="2">  1       -2 0.14161579E+00 0.79716943E+03</pdfrwt>
<totfact> 0.10396322E+01</totfact>
</mgrwt>
</event>
<event>
 4    2  0.6387803E-007  0.6867390E+03  0.7818608E-02  0.1005743E+00
          2   -1    0    0  501    0  0.00000000000E+00  0.00000000000E+00  0.16371900816E+04  0.16371900816E+04  0.25500000000E-02 0. -1.
         -2   -1    0    0    0  501 -0.00000000000E+00 -0.00000000000E+00 -0.35617258857E+03  0.35617258858E+03  0.25500000000E-02 0.  1.
    8880023    1    1    2    0    0  0.12844246516E+03 -0.14595486923E+03 -0.19735356732E+01  0.68674186695E+03  0.65864270000E+03 0.  0.
    8880022    1    1    2    0    0 -0.12844246516E+03  0.14595486923E+03  0.12829910287E+04  0.13066208032E+04  0.15294330000E+03 0. -1.
<mgrwt>
<rscale>  0 0.53202321E+03</rscale>
<asrwt>0</asrwt>
<pdfrwt beam="1">  1        2 0.25187540E+00 0.68673903E+03</pdfrwt>
<pdfrwt beam="2">  1       -2 0.54795782E-01 0.68673903E+03</pdfrwt>
<totfact> 0.34412017E+01</totfact>
</mgrwt>
</event>
<event>
 4    2  0.6387803E-007  0.6905327E+03  0.7818608E-02  0.1003900E+00
         -2   -1    0    0    0  501 -0.00000000000E+00  0.00000000000E+00  0.98006283089E+02  0.98006283122E+02  0.25500000000E-02 0.  1.
          2   -1    0    0  501    0  0.00000000000E+00 -0.00000000000E+00 -0.22942472488E+04  0.22942472488E+04  0.25500000000E-02 0. -1.
    8880023    1    1    2    0    0 -0.39713287130E+02 -0.20358794501E+03 -0.15822167992E+04  0.17263387277E+04  0.65864270000E+03 0.  1.
    8880022    1    1    2    0    0  0.39713287130E+02  0.20358794501E+03 -0.61402416648E+03  0.66591480428E+03  0.15294330000E+03 0. -1.
<mgrwt>
<rscale>  0 0.53972554E+03</rscale>
<asrwt>0</asrwt>
<pdfrwt beam="1">  1        2 0.35296107E+00 0.69053269E+03</pdfrwt>
<pdfrwt beam="2">  1       -2 0.15077892E-01 0.69053269E+03</pdfrwt>
<totfact> 0.16469731E+02</totfact>
</mgrwt>
</event>
<event>
 4    2  0.6387803E-007  0.9505964E+03  0.7818608E-02  0.9449257E-01
         -2   -1    0    0    0  501 -0.00000000000E+00  0.00000000000E+00  0.47487923664E+03  0.47487923665E+03  0.25500000000E-02 0.  1.
          2   -1    0    0  501    0  0.00000000000E+00 -0.00000000000E+00 -0.24988208932E+04  0.24988208932E+04  0.25500000000E-02 0. -1.
    8880023    1    1    2    0    0 -0.57550843836E+01 -0.68541238632E+03 -0.13714323897E+03  0.96043830337E+03  0.65864270000E+03 0.  1.
    8880022    1    1    2    0    0  0.57550843836E+01  0.68541238632E+03 -0.18867984176E+04  0.20132618265E+04  0.15294330000E+03 0.  0.
<mgrwt>
<rscale>  0 0.88130582E+03</rscale>
<asrwt>0</asrwt>
<pdfrwt beam="1">  1        2 0.38443398E+00 0.95059637E+03</pdfrwt>
<pdfrwt beam="2">  1       -2 0.73058345E-01 0.95059637E+03</pdfrwt>
<totfact> 0.60035182E+00</totfact>
</mgrwt>
</event>
<event>
 4    2  0.6387803E-007  0.7573891E+03  0.7818608E-02  0.9811914E-01
          2   -1    0    0  501    0  0.00000000000E+00  0.00000000000E+00  0.14663295332E+04  0.14663295332E+04  0.25500000000E-02 0. -1.
         -2   -1    0    0    0  501 -0.00000000000E+00 -0.00000000000E+00 -0.54305731394E+03  0.54305731395E+03  0.25500000000E-02 0.  1.
    8880023    1    1    2    0    0  0.78922622204E+02 -0.36551235479E+03 -0.22663733362E+03  0.79057115369E+03  0.65864270000E+03 0.  1.
    8880022    1    1    2    0    0 -0.78922622204E+02  0.36551235479E+03  0.11499095529E+04  0.12188156935E+04  0.15294330000E+03 0.  0.
<mgrwt>
<rscale>  0 0.64727058E+03</rscale>
<asrwt>0</asrwt>
<pdfrwt beam="1">  1        2 0.22558916E+00 0.75738911E+03</pdfrwt>
<pdfrwt beam="2">  1       -2 0.83547279E-01 0.75738911E+03</pdfrwt>
<totfact> 0.16996736E+01</totfact>
</mgrwt>
</event>
<event>
 4    2  0.6387803E-007  0.9595508E+03  0.7818608E-02  0.9436504E-01
          2   -1    0    0  501    0  0.00000000000E+00  0.00000000000E+00  0.13247396809E+04  0.13247396809E+04  0.25500000000E-02 0. -1.
         -2   -1    0    0    0  501 -0.00000000000E+00 -0.00000000000E+00 -0.13748448770E+04  0.13748448770E+04  0.25500000000E-02 0.  1.
    8880023    1    1    2    0    0 -0.63267472706E+03 -0.29436416466E+03 -0.10809526438E+04  0.14454052705E+04  0.65864270000E+03 0.  1.
    8880022    1    1    2    0    0  0.63267472706E+03  0.29436416466E+03  0.10308474476E+04  0.12541792874E+04  0.15294330000E+03 0.  0.
<mgrwt>
<rscale>  0 0.89131502E+03</rscale>
<asrwt>0</asrwt>
<pdfrwt beam="1">  1        2 0.20380610E+00 0.95955082E+03</pdfrwt>
<pdfrwt beam="2">  1       -2 0.21151460E+00 0.95955082E+03</pdfrwt>
<totfact> 0.17882921E+00</totfact>
</mgrwt>
</event>
<event>
 4    2  0.6387803E-007  0.6781859E+03  0.7818608E-02  0.1010369E+00
         -2   -1    0    0    0  501 -0.00000000000E+00  0.00000000000E+00  0.54412375383E+02  0.54412375443E+02  0.25500000000E-02 0.  1.
          2   -1    0    0  501    0  0.00000000000E+00 -0.00000000000E+00 -0.45562903439E+04  0.45562903439E+04  0.25500000000E-02 0. -1.
    8880023    1    1    2    0    0 -0.15442706713E+03 -0.47729772632E+02 -0.23082431156E+04  0.24058101207E+04  0.65864270000E+03 0.  1.
    8880022    1    1    2    0    0  0.15442706713E+03  0.47729772632E+02 -0.21936348530E+04  0.22048925986E+04  0.15294330000E+03 0.  0.
<mgrwt>
<rscale>  0 0.51328242E+03</rscale>
<asrwt>0</asrwt>
<pdfrwt beam="1">  1        2 0.70096744E+00 0.67818586E+03</pdfrwt>
<pdfrwt beam="2">  1       -2 0.83711383E-02 0.67818586E+03</pdfrwt>
<totfact> 0.11427080E+01</totfact>
</mgrwt>
</event>
<event>
 4    2  0.6387803E-007  0.7128860E+03  0.7818608E-02  0.9947436E-01
          2   -1    0    0  501    0  0.00000000000E+00  0.00000000000E+00  0.82112876711E+03  0.82112876711E+03  0.25500000000E-02 0. -1.
         -2   -1    0    0    0  501 -0.00000000000E+00 -0.00000000000E+00 -0.39379447150E+03  0.39379447151E+03  0.25500000000E-02 0.  1.
    8880023    1    1    2    0    0  0.27183689465E+03 -0.22382385630E+02  0.35727484788E+02  0.71378072817E+03  0.65864270000E+03 0.  1.
    8880022    1    1    2    0    0 -0.27183689465E+03  0.22382385630E+02  0.39160681082E+03  0.50114251045E+03  0.15294330000E+03 0.  1.
<mgrwt>
<rscale>  0 0.58016393E+03</rscale>
<asrwt>0</asrwt>
<pdfrwt beam="1">  1        2 0.12632750E+00 0.71288602E+03</pdfrwt>
<pdfrwt beam="2">  1       -2 0.60583766E-01 0.71288602E+03</pdfrwt>
<totfact> 0.85713188E+01</totfact>
</mgrwt>
</event>
<event>
 4    2  0.6387803E-007  0.6663138E+03  0.7818608E-02  0.1018456E+00
          2   -1    0    0  501    0  0.00000000000E+00  0.00000000000E+00  0.13430115504E+04  0.13430115504E+04  0.25500000000E-02 0. -1.
         -2   -1    0    0    0  501 -0.00000000000E+00 -0.00000000000E+00 -0.13569175214E+03  0.13569175217E+03  0.25500000000E-02 0.  1.
    8880023    1    1    2    0    0  0.86472809852E+02  0.51829906255E+02  0.88253828505E+03  0.11058245416E+04  0.65864270000E+03 0.  0.
    8880022    1    1    2    0    0 -0.86472809852E+02 -0.51829906255E+02  0.32478151319E+03  0.37287876093E+03  0.15294330000E+03 0.  1.
<mgrwt>
<rscale>  0 0.48248036E+03</rscale>
<asrwt>0</asrwt>
<pdfrwt beam="1">  1        2 0.20661716E+00 0.66631381E+03</pdfrwt>
<pdfrwt beam="2">  1       -2 0.20875654E-01 0.66631381E+03</pdfrwt>
<totfact> 0.31388519E+02</totfact>
</mgrwt>
</event>
<event>
 4    2  0.6387803E-007  0.6652821E+03  0.7818608E-02  0.1019298E+00
         -2   -1    0    0    0  501 -0.00000000000E+00  0.00000000000E+00  0.60849382957E+03  0.60849382958E+03  0.25500000000E-02 0.  1.
          2   -1    0    0  501    0  0.00000000000E+00 -0.00000000000E+00 -0.37348487988E+03  0.37348487989E+03  0.25500000000E-02 0. -1.
    8880023    1    1    2    0    0  0.55181766024E+01  0.93592740377E+02  0.36650226904E+03  0.75955524539E+03  0.65864270000E+03 0.  1.
    8880022    1    1    2    0    0 -0.55181766024E+01 -0.93592740377E+02 -0.13149331935E+03  0.22242346408E+03  0.15294330000E+03 0.  0.
<mgrwt>
<rscale>  0 0.47940825E+03</rscale>
<asrwt>0</asrwt>
<pdfrwt beam="1">  1        2 0.57459212E-01 0.66528209E+03</pdfrwt>
<pdfrwt beam="2">  1       -2 0.93614435E-01 0.66528209E+03</pdfrwt>
<totfact> 0.84115811E+01</totfact>
</mgrwt>
</event>
<event>
 4    2  0.6387803E-007  0.7017568E+03  0.7818608E-02  0.9989990E-01
         -2   -1    0    0    0  501 -0.00000000000E+00  0.00000000000E+00  0.30040336927E+03  0.30040336928E+03  0.25500000000E-02 0.  1.
          2   -1    0    0  501    0  0.00000000000E+00 -0.00000000000E+00 -0.31466882231E+04  0.31466882231E+04  0.25500000000E-02 0. -1.
    8880023    1    1    2    0    0  0.15728018816E+03  0.18416132450E+03 -0.12748202434E+03  0.71324212146E+03  0.65864270000E+03 0.  1.
    8880022    1    1    2    0    0 -0.15728018816E+03 -0.18416132450E+03 -0.27188028295E+04  0.27338494709E+04  0.15294330000E+03 0.  0.
<mgrwt>
<rscale>  0 0.56091352E+03</rscale>
<asrwt>0</asrwt>
<pdfrwt beam="1">  1        2 0.48410586E+00 0.70175684E+03</pdfrwt>
<pdfrwt beam="2">  1       -2 0.46215905E-01 0.70175684E+03</pdfrwt>
<totfact> 0.67339610E+00</totfact>
</mgrwt>
</event>
<event>
 4    2  0.6387803E-007  0.8805838E+03  0.7818608E-02  0.9557948E-01
         -2   -1    0    0    0  501 -0.00000000000E+00  0.00000000000E+00  0.10438586637E+04  0.10438586637E+04  0.25500000000E-02 0.  1.
          2   -1    0    0  501    0  0.00000000000E+00 -0.00000000000E+00 -0.12463077623E+04  0.12463077623E+04  0.25500000000E-02 0. -1.
    8880023    1    1    2    0    0 -0.57413040817E+03  0.10950740907E+03  0.75373006248E+03  0.11591103535E+04  0.65864270000E+03 0.  1.
    8880022    1    1    2    0    0  0.57413040817E+03 -0.10950740907E+03 -0.95617916107E+03  0.11310560726E+04  0.15294330000E+03 0.  0.
<mgrwt>
<rscale>  0 0.80143074E+03</rscale>
<asrwt>0</asrwt>
<pdfrwt beam="1">  1        2 0.19173966E+00 0.88058379E+03</pdfrwt>
<pdfrwt beam="2">  1       -2 0.16059364E+00 0.88058379E+03</pdfrwt>
<totfact> 0.44554897E+00</totfact>
</mgrwt>
</event>
<event>
 4    2  0.6387803E-007  0.1053473E+04  0.7818608E-02  0.9314718E-01
         -2   -1    0    0    0  501 -0.00000000000E+00  0.00000000000E+00  0.97087803461E+03  0.97087803461E+03  0.25500000000E-02 0.  1.
          2   -1    0    0  501    0  0.00000000000E+00 -0.00000000000E+00 -0.28806412929E+04  0.28806412929E+04  0.25500000000E-02 0. -1.
    8880023    1    1    2    0    0  0.78991438915E+03  0.22810132250E+03  0.59565549728E+03  0.12102109871E+04  0.65864270000E+03 0.  1.
    8880022    1    1    2    0    0 -0.78991438915E+03 -0.22810132250E+03 -0.25054187555E+04  0.26413083404E+04  0.15294330000E+03 0.  0.
<mgrwt>
<rscale>  0 0.99439102E+03</rscale>
<asrwt>0</asrwt>
<pdfrwt beam="1">  1        2 0.44317558E+00 0.10534729E+04</pdfrwt>
<pdfrwt beam="2">  1       -2 0.14936585E+00 0.10534729E+04</pdfrwt>
<totfact> 0.62869778E-01</totfact>
</mgrwt>
</event>
<event>
 4    2  0.6387803E-007  0.9263567E+03  0.7818608E-02  0.9484980E-01
         -2   -1    0    0    0  501 -0.00000000000E+00  0.00000000000E+00  0.43186007261E+03  0.43186007262E+03  0.25500000000E-02 0.  1.
          2   -1    0    0  501    0  0.00000000000E+00 -0.00000000000E+00 -0.21641581913E+04  0.21641581913E+04  0.25500000000E-02 0. -1.
    8880023    1    1    2    0    0  0.65065618616E+03  0.31192396734E+02 -0.16879434867E+04  0.19254323823E+04  0.65864270000E+03 0. -1.
    8880022    1    1    2    0    0 -0.65065618616E+03 -0.31192396734E+02 -0.44354631955E+02  0.67058588159E+03  0.15294330000E+03 0.  0.
<mgrwt>
<rscale>  0 0.85400271E+03</rscale>
<asrwt>0</asrwt>
<pdfrwt beam="1">  1        2 0.33294741E+00 0.92635665E+03</pdfrwt>
<pdfrwt beam="2">  1       -2 0.66440012E-01 0.92635665E+03</pdfrwt>
<totfact> 0.11425334E+01</totfact>
</mgrwt>
</event>
<event>
 4    2  0.6387803E-007  0.7564344E+03  0.7818608E-02  0.9814427E-01
         -2   -1    0    0    0  501 -0.00000000000E+00  0.00000000000E+00  0.32638839693E+03  0.32638839694E+03  0.25500000000E-02 0.  1.
          2   -1    0    0  501    0  0.00000000000E+00 -0.00000000000E+00 -0.27097431026E+04  0.27097431026E+04  0.25500000000E-02 0. -1.
    8880023    1    1    2    0    0  0.36617932195E+03 -0.65540050478E+02 -0.15548897808E+03  0.77224984468E+03  0.65864270000E+03 0.  1.
    8880022    1    1    2    0    0 -0.36617932195E+03  0.65540050478E+02 -0.22278657276E+04  0.22638816549E+04  0.15294330000E+03 0.  0.
<mgrwt>
<rscale>  0 0.64594002E+03</rscale>
<asrwt>0</asrwt>
<pdfrwt beam="1">  1        2 0.41688354E+00 0.75643440E+03</pdfrwt>
<pdfrwt beam="2">  1       -2 0.50213601E-01 0.75643440E+03</pdfrwt>
<totfact> 0.10352983E+01</totfact>
</mgrwt>
</event>
<event>
 4    2  0.6387803E-007  0.6938770E+03  0.7818608E-02  0.1002362E+00
         -2   -1    0    0    0  501 -0.00000000000E+00  0.00000000000E+00  0.47119883978E+03  0.47119883978E+03  0.25500000000E-02 0.  1.
          2   -1    0    0  501    0  0.00000000000E+00 -0.00000000000E+00 -0.20444058039E+04  0.20444058039E+04  0.25500000000E-02 0. -1.
    8880023    1    1    2    0    0  0.19538319493E+03 -0.97367764040E+02  0.20027697356E+03  0.72220228935E+03  0.65864270000E+03 0.  1.
    8880022    1    1    2    0    0 -0.19538319493E+03  0.97367764040E+02 -0.17734839377E+04  0.17934023544E+04  0.15294330000E+03 0.  0.
<mgrwt>
<rscale>  0 0.54626689E+03</rscale>
<asrwt>0</asrwt>
<pdfrwt beam="1">  1        2 0.31452397E+00 0.69387699E+03</pdfrwt>
<pdfrwt beam="2">  1       -2 0.72492130E-01 0.69387699E+03</pdfrwt>
<totfact> 0.11359202E+01</totfact>
</mgrwt>
</event>
<event>
 4    2  0.6387803E-007  0.6753278E+03  0.7818608E-02  0.1012100E+00
         -2   -1    0    0    0  501 -0.00000000000E+00  0.00000000000E+00  0.43007561463E+03  0.43007561464E+03  0.25500000000E-02 0.  1.
          2   -1    0    0  501    0  0.00000000000E+00 -0.00000000000E+00 -0.32380763745E+04  0.32380763745E+04  0.25500000000E-02 0. -1.
    8880023    1    1    2    0    0  0.72759600874E+01 -0.14901179911E+03  0.15873534110E+03  0.69373234799E+03  0.65864270000E+03 0.  1.
    8880022    1    1    2    0    0 -0.72759600874E+01  0.14901179911E+03 -0.29667361009E+04  0.29744196411E+04  0.15294330000E+03 0.  0.
<mgrwt>
<rscale>  0 0.50648317E+03</rscale>
<asrwt>0</asrwt>
<pdfrwt beam="1">  1        2 0.49816558E+00 0.67532782E+03</pdfrwt>
<pdfrwt beam="2">  1       -2 0.66165481E-01 0.67532782E+03</pdfrwt>
<totfact> 0.28147338E+00</totfact>
</mgrwt>
</event>
<event>
 4    2  0.6387803E-007  0.6736589E+03  0.7818608E-02  0.1013165E+00
          2   -1    0    0  501    0  0.00000000000E+00  0.00000000000E+00  0.15008687940E+04  0.15008687940E+04  0.25500000000E-02 0. -1.
         -2   -1    0    0    0  501 -0.00000000000E+00 -0.00000000000E+00 -0.20087696811E+03  0.20087696812E+03  0.25500000000E-02 0.  1.
    8880023    1    1    2    0    0 -0.14122499271E+03  0.78505900867E+01  0.41202893753E+03  0.78967346540E+03  0.65864270000E+03 0.  1.
    8880022    1    1    2    0    0  0.14122499271E+03 -0.78505900867E+01  0.88796288833E+03  0.91207229669E+03  0.15294330000E+03 0.  0.
<mgrwt>
<rscale>  0 0.50235819E+03</rscale>
<asrwt>0</asrwt>
<pdfrwt beam="1">  1        2 0.23090290E+00 0.67365892E+03</pdfrwt>
<pdfrwt beam="2">  1       -2 0.30904148E-01 0.67365892E+03</pdfrwt>
<totfact> 0.12592074E+02</totfact>
</mgrwt>
</event>
<event>
 4    2  0.6387803E-007  0.6781472E+03  0.7818608E-02  0.1010392E+00
          2   -1    0    0  501    0  0.00000000000E+00  0.00000000000E+00  0.59515845991E+03  0.59515845992E+03  0.25500000000E-02 0. -1.
         -2   -1    0    0    0  501 -0.00000000000E+00 -0.00000000000E+00 -0.76010329759E+03  0.76010329759E+03  0.25500000000E-02 0.  1.
    8880023    1    1    2    0    0  0.48163927251E+02  0.15412239056E+03 -0.57478300348E+03  0.88896523133E+03  0.65864270000E+03 0.  1.
    8880022    1    1    2    0    0 -0.48163927251E+02 -0.15412239056E+03  0.40983816581E+03  0.46629652618E+03  0.15294330000E+03 0.  0.
<mgrwt>
<rscale>  0 0.51319261E+03</rscale>
<asrwt>0</asrwt>
<pdfrwt beam="1">  1        2 0.91562840E-01 0.67814724E+03</pdfrwt>
<pdfrwt beam="2">  1       -2 0.11693897E+00 0.67814724E+03</pdfrwt>
<totfact> 0.28889629E+01</totfact>
</mgrwt>
</event>
<event>
 4    2  0.6387803E-007  0.1114093E+04  0.7818608E-02  0.9245525E-01
          2   -1    0    0  501    0  0.00000000000E+00  0.00000000000E+00  0.11014051318E+04  0.11014051318E+04  0.25500000000E-02 0. -1.
         -2   -1    0    0    0  501 -0.00000000000E+00 -0.00000000000E+00 -0.10701855325E+04  0.10701855325E+04  0.25500000000E-02 0.  1.
    8880023    1    1    2    0    0  0.83279554093E+03  0.33740872187E+03 -0.37248840909E+03  0.11747131053E+04  0.65864270000E+03 0.  0.
    8880022    1    1    2    0    0 -0.83279554093E+03 -0.33740872187E+03  0.40370800837E+03  0.99687755900E+03  0.15294330000E+03 0.  0.
<mgrwt>
<rscale>  0 0.10595639E+04</rscale>
<asrwt>0</asrwt>
<pdfrwt beam="1">  1        2 0.16944694E+00 0.11140930E+04</pdfrwt>
<pdfrwt beam="2">  1       -2 0.16464393E+00 0.11140930E+04</pdfrwt>
<totfact> 0.49634331E+00</totfact>
</mgrwt>
</event>
<event>
 4    2  0.6387803E-007  0.6862585E+03  0.7818608E-02  0.1005984E+00
          2   -1    0    0  501    0  0.00000000000E+00  0.00000000000E+00  0.62878616774E+03  0.62878616775E+03  0.25500000000E-02 0. -1.
         -2   -1    0    0    0  501 -0.00000000000E+00 -0.00000000000E+00 -0.14585664260E+04  0.14585664260E+04  0.25500000000E-02 0.  1.
    8880023    1    1    2    0    0  0.79194709328E+02 -0.17569489579E+03 -0.13485920758E+04  0.15131593741E+04  0.65864270000E+03 0.  1.
    8880022    1    1    2    0    0 -0.79194709328E+02  0.17569489579E+03  0.51881181754E+03  0.57419321960E+03  0.15294330000E+03 0.  0.
<mgrwt>
<rscale>  0 0.53102389E+03</rscale>
<asrwt>0</asrwt>
<pdfrwt beam="1">  1        2 0.96736334E-01 0.68625848E+03</pdfrwt>
<pdfrwt beam="2">  1       -2 0.22439483E+00 0.68625848E+03</pdfrwt>
<totfact> 0.44896710E+00</totfact>
</mgrwt>
</event>
<event>
 4    2  0.6387803E-007  0.6916736E+03  0.7818608E-02  0.1003367E+00
          2   -1    0    0  501    0  0.00000000000E+00  0.00000000000E+00  0.35014036274E+04  0.35014036274E+04  0.25500000000E-02 0. -1.
         -2   -1    0    0    0  501 -0.00000000000E+00 -0.00000000000E+00 -0.85969791217E+02  0.85969791255E+02  0.25500000000E-02 0.  1.
    8880023    1    1    2    0    0 -0.18315843061E+03  0.10514318270E+03  0.14706247187E+04  0.16251613363E+04  0.65864270000E+03 0.  1.
    8880022    1    1    2    0    0  0.18315843061E+03 -0.10514318270E+03  0.19448091176E+04  0.19622120824E+04  0.15294330000E+03 0.  0.
<mgrwt>
<rscale>  0 0.54198155E+03</rscale>
<asrwt>0</asrwt>
<pdfrwt beam="1">  1        2 0.53867759E+00 0.69167355E+03</pdfrwt>
<pdfrwt beam="2">  1       -2 0.13226119E-01 0.69167355E+03</pdfrwt>
<totfact> 0.38153288E+01</totfact>
</mgrwt>
</event>
<event>
 4    2  0.6387803E-007  0.7177705E+03  0.7818608E-02  0.9930203E-01
          2   -1    0    0  501    0  0.00000000000E+00  0.00000000000E+00  0.69927762560E+03  0.69927762560E+03  0.25500000000E-02 0. -1.
         -2   -1    0    0    0  501 -0.00000000000E+00 -0.00000000000E+00 -0.56418326011E+03  0.56418326011E+03  0.25500000000E-02 0.  1.
    8880023    1    1    2    0    0 -0.27216904606E+03  0.85488245036E+02 -0.25030564392E+03  0.76016271371E+03  0.65864270000E+03 0.  1.
    8880022    1    1    2    0    0  0.27216904606E+03 -0.85488245036E+02  0.38540000941E+03  0.50329817200E+03  0.15294330000E+03 0.  0.
<mgrwt>
<rscale>  0 0.58819571E+03</rscale>
<asrwt>0</asrwt>
<pdfrwt beam="1">  1        2 0.10758117E+00 0.71777046E+03</pdfrwt>
<pdfrwt beam="2">  1       -2 0.86797425E-01 0.71777046E+03</pdfrwt>
<totfact> 0.47855903E+01</totfact>
</mgrwt>
</event>
<event>
 4    2  0.6387803E-007  0.6641120E+03  0.7818608E-02  0.1020290E+00
          2   -1    0    0  501    0  0.00000000000E+00  0.00000000000E+00  0.23836462199E+04  0.23836462199E+04  0.25500000000E-02 0. -1.
         -2   -1    0    0    0  501 -0.00000000000E+00 -0.00000000000E+00 -0.14536850255E+03  0.14536850257E+03  0.25500000000E-02 0.  1.
    8880023    1    1    2    0    0  0.61993416917E+02  0.58234963294E+02  0.64374296243E+03  0.92490523981E+03  0.65864270000E+03 0.  1.
    8880022    1    1    2    0    0 -0.61993416917E+02 -0.58234963294E+02  0.15945347549E+04  0.16041094826E+04  0.15294330000E+03 0.  0.
<mgrwt>
<rscale>  0 0.47581982E+03</rscale>
<asrwt>0</asrwt>
<pdfrwt beam="1">  1        2 0.36671480E+00 0.66411196E+03</pdfrwt>
<pdfrwt beam="2">  1       -2 0.22364385E-01 0.66411196E+03</pdfrwt>
<totfact> 0.74533417E+01</totfact>
</mgrwt>
</event>
<event>
 4    2  0.6387803E-007  0.8200035E+03  0.7818608E-02  0.9669105E-01
         -2   -1    0    0    0  501 -0.00000000000E+00  0.00000000000E+00  0.20066728517E+03  0.20066728519E+03  0.25500000000E-02 0.  1.
          2   -1    0    0  501    0  0.00000000000E+00 -0.00000000000E+00 -0.39344613134E+04  0.39344613134E+04  0.25500000000E-02 0. -1.
    8880023    1    1    2    0    0 -0.48831480161E+03  0.12006238400E+02 -0.76140727461E+03  0.11189936279E+04  0.65864270000E+03 0.  0.
    8880022    1    1    2    0    0  0.48831480161E+03 -0.12006238400E+02 -0.29723867536E+04  0.30161349707E+04  0.15294330000E+03 0.  0.
<mgrwt>
<rscale>  0 0.72886445E+03</rscale>
<asrwt>0</asrwt>
<pdfrwt beam="1">  1        2 0.60530168E+00 0.82000348E+03</pdfrwt>
<pdfrwt beam="2">  1       -2 0.30871893E-01 0.82000348E+03</pdfrwt>
<totfact> 0.40758449E+00</totfact>
</mgrwt>
</event>
<event>
 4    2  0.6387803E-007  0.7170855E+03  0.7818608E-02  0.9932574E-01
          2   -1    0    0  501    0  0.00000000000E+00  0.00000000000E+00  0.77000878192E+03  0.77000878193E+03  0.25500000000E-02 0. -1.
         -2   -1    0    0    0  501 -0.00000000000E+00 -0.00000000000E+00 -0.47450084283E+03  0.47450084284E+03  0.25500000000E-02 0.  1.
    8880023    1    1    2    0    0 -0.40853585288E+02  0.28059295139E+03 -0.11120447517E+03  0.72565698602E+03  0.65864270000E+03 0.  0.
    8880022    1    1    2    0    0  0.40853585288E+02 -0.28059295139E+03  0.40671241426E+03  0.51885263874E+03  0.15294330000E+03 0.  0.
<mgrwt>
<rscale>  0 0.58708266E+03</rscale>
<asrwt>0</asrwt>
<pdfrwt beam="1">  1        2 0.11846289E+00 0.71708551E+03</pdfrwt>
<pdfrwt beam="2">  1       -2 0.73000131E-01 0.71708551E+03</pdfrwt>
<totfact> 0.62383952E+01</totfact>
</mgrwt>
</event>
<event>
 4    2  0.6387803E-007  0.9242974E+03  0.7818608E-02  0.9488101E-01
         -2   -1    0    0    0  501 -0.00000000000E+00  0.00000000000E+00  0.63504986537E+03  0.63504986537E+03  0.25500000000E-02 0.  1.
          2   -1    0    0  501    0  0.00000000000E+00 -0.00000000000E+00 -0.10169839737E+04  0.10169839737E+04  0.25500000000E-02 0. -1.
    8880023    1    1    2    0    0 -0.64839471678E+03 -0.99914295914E+01 -0.10402370569E+03  0.93013261153E+03  0.65864270000E+03 0.  1.
    8880022    1    1    2    0    0  0.64839471678E+03  0.99914295914E+01 -0.27791040264E+03  0.72190122754E+03  0.15294330000E+03 0. -1.
<mgrwt>
<rscale>  0 0.85166801E+03</rscale>
<asrwt>0</asrwt>
<pdfrwt beam="1">  1        2 0.15645907E+00 0.92429743E+03</pdfrwt>
<pdfrwt beam="2">  1       -2 0.97699980E-01 0.92429743E+03</pdfrwt>
<totfact> 0.21443453E+01</totfact>
</mgrwt>
</event>
<event>
 4    2  0.6387803E-007  0.7135618E+03  0.7818608E-02  0.9945005E-01
         -2   -1    0    0    0  501 -0.00000000000E+00  0.00000000000E+00  0.49210154346E+03  0.49210154346E+03  0.25500000000E-02 0.  1.
          2   -1    0    0  501    0  0.00000000000E+00 -0.00000000000E+00 -0.22179607676E+04  0.22179607676E+04  0.25500000000E-02 0. -1.
    8880023    1    1    2    0    0 -0.31307388073E+02  0.27272714984E+03  0.21396378140E+03  0.74495030493E+03  0.65864270000E+03 0.  1.
    8880022    1    1    2    0    0  0.31307388073E+02 -0.27272714984E+03 -0.19398230055E+04  0.19651120061E+04  0.15294330000E+03 0.  0.
<mgrwt>
<rscale>  0 0.58128870E+03</rscale>
<asrwt>0</asrwt>
<pdfrwt beam="1">  1        2 0.34122473E+00 0.71356181E+03</pdfrwt>
<pdfrwt beam="2">  1       -2 0.75707931E-01 0.71356181E+03</pdfrwt>
<totfact> 0.82638994E+00</totfact>
</mgrwt>
</event>
<event>
 4    2  0.6387803E-007  0.9110708E+03  0.7818608E-02  0.9508488E-01
         -2   -1    0    0    0  501 -0.00000000000E+00  0.00000000000E+00  0.53325202550E+03  0.53325202551E+03  0.25500000000E-02 0.  1.
          2   -1    0    0  501    0  0.00000000000E+00 -0.00000000000E+00 -0.11397472469E+04  0.11397472469E+04  0.25500000000E-02 0. -1.
    8880023    1    1    2    0    0 -0.35038089584E+01  0.62946608944E+03 -0.33735630072E+03  0.97152422221E+03  0.65864270000E+03 0.  0.
    8880022    1    1    2    0    0  0.35038089584E+01 -0.62946608944E+03 -0.26913892070E+03  0.70147505022E+03  0.15294330000E+03 0.  1.
<mgrwt>
<rscale>  0 0.83660915E+03</rscale>
<asrwt>0</asrwt>
<pdfrwt beam="1">  1        2 0.17534573E+00 0.91107082E+03</pdfrwt>
<pdfrwt beam="2">  1       -2 0.82038773E-01 0.91107082E+03</pdfrwt>
<totfact> 0.26970793E+01</totfact>
</mgrwt>
</event>
<event>
 4    2  0.6387803E-007  0.7013554E+03  0.7818608E-02  0.9991624E-01
         -2   -1    0    0    0  501 -0.00000000000E+00  0.00000000000E+00  0.61315099265E+03  0.61315099266E+03  0.25500000000E-02 0.  1.
          2   -1    0    0  501    0  0.00000000000E+00 -0.00000000000E+00 -0.14229000755E+04  0.14229000755E+04  0.25500000000E-02 0. -1.
    8880023    1    1    2    0    0 -0.20931867223E+03  0.11947748254E+03  0.39021676247E+03  0.80260108607E+03  0.65864270000E+03 0.  1.
    8880022    1    1    2    0    0  0.20931867223E+03 -0.11947748254E+03 -0.11999658453E+04  0.12334499821E+04  0.15294330000E+03 0.  0.
<mgrwt>
<rscale>  0 0.56019023E+03</rscale>
<asrwt>0</asrwt>
<pdfrwt beam="1">  1        2 0.21890770E+00 0.70135539E+03</pdfrwt>
<pdfrwt beam="2">  1       -2 0.94330923E-01 0.70135539E+03</pdfrwt>
<totfact> 0.13697357E+01</totfact>
</mgrwt>
</event>
<event>
 4    2  0.6387803E-007  0.7027101E+03  0.7818608E-02  0.9986139E-01
          2   -1    0    0  501    0  0.00000000000E+00  0.00000000000E+00  0.25720411164E+04  0.25720411164E+04  0.25500000000E-02 0. -1.
         -2   -1    0    0    0  501 -0.00000000000E+00 -0.00000000000E+00 -0.10546595927E+03  0.10546595930E+03  0.25500000000E-02 0.  1.
    8880023    1    1    2    0    0  0.19724723639E+03 -0.14520590965E+03  0.13230472429E+04  0.14980839234E+04  0.65864270000E+03 0.  0.
    8880022    1    1    2    0    0 -0.19724723639E+03  0.14520590965E+03  0.11435279142E+04  0.11794231523E+04  0.15294330000E+03 0.  0.
<mgrwt>
<rscale>  0 0.56262204E+03</rscale>
<asrwt>0</asrwt>
<pdfrwt beam="1">  1        2 0.39569863E+00 0.70271006E+03</pdfrwt>
<pdfrwt beam="2">  1       -2 0.16225533E-01 0.70271006E+03</pdfrwt>
<totfact> 0.10137646E+02</totfact>
</mgrwt>
</event>
<event>
 4    2  0.6387803E-007  0.1002225E+04  0.7818608E-02  0.9378653E-01
         -2   -1    0    0    0  501 -0.00000000000E+00  0.00000000000E+00  0.11685043079E+04  0.11685043079E+04  0.25500000000E-02 0.  1.
          2   -1    0    0  501    0  0.00000000000E+00 -0.00000000000E+00 -0.18291802556E+04  0.18291802556E+04  0.25500000000E-02 0. -1.
    8880023    1    1    2    0    0 -0.44486675914E+03 -0.61052230253E+03  0.84193551319E+03  0.13089345018E+04  0.65864270000E+03 0.  0.
    8880022    1    1    2    0    0  0.44486675914E+03  0.61052230253E+03 -0.15026114609E+04  0.16887500616E+04  0.15294330000E+03 0.  0.
<mgrwt>
<rscale>  0 0.93853472E+03</rscale>
<asrwt>0</asrwt>
<pdfrwt beam="1">  1        2 0.28141235E+00 0.10022246E+04</pdfrwt>
<pdfrwt beam="2">  1       -2 0.17976989E+00 0.10022246E+04</pdfrwt>
<totfact> 0.15059215E+00</totfact>
</mgrwt>
</event>
<event>
 4    2  0.6387803E-007  0.6836676E+03  0.7818608E-02  0.1007321E+00
         -2   -1    0    0    0  501 -0.00000000000E+00  0.00000000000E+00  0.23485793016E+04  0.23485793016E+04  0.25500000000E-02 0.  1.
          2   -1    0    0  501    0  0.00000000000E+00 -0.00000000000E+00 -0.44904136270E+03  0.44904136270E+03  0.25500000000E-02 0. -1.
    8880023    1    1    2    0    0  0.11604973981E+03 -0.14185781346E+03  0.22623100439E+04  0.23633552679E+04  0.65864270000E+03 0.  1.
    8880022    1    1    2    0    0 -0.11604973981E+03  0.14185781346E+03 -0.36277210498E+03  0.43426539641E+03  0.15294330000E+03 0.  0.
<mgrwt>
<rscale>  0 0.52553513E+03</rscale>
<asrwt>0</asrwt>
<pdfrwt beam="1">  1        2 0.69083286E-01 0.68366760E+03</pdfrwt>
<pdfrwt beam="2">  1       -2 0.36131989E+00 0.68366760E+03</pdfrwt>
<totfact> 0.98342510E-01</totfact>
</mgrwt>
</event>
<event>
 4    2  0.6387803E-007  0.6652361E+03  0.7818608E-02  0.1019336E+00
          2   -1    0    0  501    0  0.00000000000E+00  0.00000000000E+00  0.22046450308E+03  0.22046450309E+03  0.25500000000E-02 0. -1.
         -2   -1    0    0    0  501 -0.00000000000E+00 -0.00000000000E+00 -0.42833275685E+04  0.42833275685E+04  0.25500000000E-02 0.  1.
    8880023    1    1    2    0    0  0.88606205266E+02 -0.29627999556E+02 -0.42159361589E+04  0.42680975598E+04  0.65864270000E+03 0.  1.
    8880022    1    1    2    0    0 -0.88606205266E+02  0.29627999556E+02  0.15307309341E+03  0.23569451184E+03  0.15294330000E+03 0.  0.
<mgrwt>
<rscale>  0 0.47926940E+03</rscale>
<asrwt>0</asrwt>
<pdfrwt beam="1">  1        2 0.33917619E-01 0.66523611E+03</pdfrwt>
<pdfrwt beam="2">  1       -2 0.65897341E+00 0.66523611E+03</pdfrwt>
<totfact> 0.50990497E-02</totfact>
</mgrwt>
</event>
<event>
 4    2  0.6387803E-007  0.6969688E+03  0.7818608E-02  0.1001002E+00
         -2   -1    0    0    0  501 -0.00000000000E+00  0.00000000000E+00  0.24397073120E+03  0.24397073121E+03  0.25500000000E-02 0.  1.
          2   -1    0    0  501    0  0.00000000000E+00 -0.00000000000E+00 -0.12101210073E+04  0.12101210073E+04  0.25500000000E-02 0. -1.
    8880023    1    1    2    0    0 -0.37620006901E+02  0.22481117649E+03 -0.35075430298E+03  0.78025259841E+03  0.65864270000E+03 0.  1.
    8880022    1    1    2    0    0  0.37620006901E+02 -0.22481117649E+03 -0.61539597312E+03  0.67383914011E+03  0.15294330000E+03 0.  0.
<mgrwt>
<rscale>  0 0.55213242E+03</rscale>
<asrwt>0</asrwt>
<pdfrwt beam="1">  1        2 0.18617246E+00 0.69696882E+03</pdfrwt>
<pdfrwt beam="2">  1       -2 0.37533959E-01 0.69696882E+03</pdfrwt>
<totfact> 0.12733664E+02</totfact>
</mgrwt>
</event>
<event>
 4    2  0.6387803E-007  0.8873674E+03  0.7818608E-02  0.9546623E-01
          2   -1    0    0  501    0  0.00000000000E+00  0.00000000000E+00  0.29738705883E+04  0.29738705883E+04  0.25500000000E-02 0. -1.
         -2   -1    0    0    0  501 -0.00000000000E+00 -0.00000000000E+00 -0.71910898821E+03  0.71910898822E+03  0.25500000000E-02 0.  1.
    8880023    1    1    2    0    0  0.49175891072E+03  0.33434101167E+03  0.27591715601E+04  0.28983527464E+04  0.65864270000E+03 0.  0.
    8880022    1    1    2    0    0 -0.49175891072E+03 -0.33434101167E+03 -0.50440996001E+03  0.79462683011E+03  0.15294330000E+03 0.  0.
<mgrwt>
<rscale>  0 0.80932065E+03</rscale>
<asrwt>0</asrwt>
<pdfrwt beam="1">  1        2 0.45751855E+00 0.88736742E+03</pdfrwt>
<pdfrwt beam="2">  1       -2 0.11063215E+00 0.88736742E+03</pdfrwt>
<totfact> 0.12159898E+00</totfact>
</mgrwt>
</event>
<event>
 4    2  0.6387803E-007  0.7401131E+03  0.7818608E-02  0.9859618E-01
         -2   -1    0    0    0  501 -0.00000000000E+00  0.00000000000E+00  0.78808677319E+03  0.78808677319E+03  0.25500000000E-02 0.  1.
          2   -1    0    0  501    0  0.00000000000E+00 -0.00000000000E+00 -0.15339352844E+04  0.15339352844E+04  0.25500000000E-02 0. -1.
    8880023    1    1    2    0    0 -0.18317439736E+03  0.28355649821E+03  0.58319366355E+03  0.94227501452E+03  0.65864270000E+03 0.  0.
    8880022    1    1    2    0    0  0.18317439736E+03 -0.28355649821E+03 -0.13290421748E+04  0.13797470431E+04  0.15294330000E+03 0.  0.
<mgrwt>
<rscale>  0 0.62258932E+03</rscale>
<asrwt>0</asrwt>
<pdfrwt beam="1">  1        2 0.23599004E+00 0.74011307E+03</pdfrwt>
<pdfrwt beam="2">  1       -2 0.12124412E+00 0.74011307E+03</pdfrwt>
<totfact> 0.64576116E+00</totfact>
</mgrwt>
</event>
<event>
 4    2  0.6387803E-007  0.8243029E+03  0.7818608E-02  0.9660521E-01
         -2   -1    0    0    0  501 -0.00000000000E+00  0.00000000000E+00  0.17205719224E+03  0.17205719226E+03  0.25500000000E-02 0.  1.
          2   -1    0    0  501    0  0.00000000000E+00 -0.00000000000E+00 -0.28470311685E+04  0.28470311685E+04  0.25500000000E-02 0. -1.
    8880023    1    1    2    0    0  0.49108449938E+03 -0.67090133461E+02 -0.20329455233E+04  0.21937052624E+04  0.65864270000E+03 0.  0.
    8880022    1    1    2    0    0 -0.49108449938E+03  0.67090133461E+02 -0.64202845296E+03  0.82538309831E+03  0.15294330000E+03 0.  0.
<mgrwt>
<rscale>  0 0.73416826E+03</rscale>
<asrwt>0</asrwt>
<pdfrwt beam="1">  1        2 0.43800476E+00 0.82430290E+03</pdfrwt>
<pdfrwt beam="2">  1       -2 0.26470339E-01 0.82430290E+03</pdfrwt>
<totfact> 0.29127024E+01</totfact>
</mgrwt>
</event>
<event>
 4    2  0.6387803E-007  0.1227542E+04  0.7818608E-02  0.9130803E-01
         -2   -1    0    0    0  501 -0.00000000000E+00  0.00000000000E+00  0.48191560135E+03  0.48191560136E+03  0.25500000000E-02 0.  1.
          2   -1    0    0  501    0  0.00000000000E+00 -0.00000000000E+00 -0.30628088888E+04  0.30628088888E+04  0.25500000000E-02 0. -1.
    8880023    1    1    2    0    0  0.10034670072E+04 -0.25710660501E+03 -0.75865038942E+03  0.14430559451E+04  0.65864270000E+03 0.  1.
    8880022    1    1    2    0    0 -0.10034670072E+04  0.25710660501E+03 -0.18222428980E+04  0.21016685451E+04  0.15294330000E+03 0.  0.
<mgrwt>
<rscale>  0 0.11797107E+04</rscale>
<asrwt>0</asrwt>
<pdfrwt beam="1">  1        2 0.47120136E+00 0.12275423E+04</pdfrwt>
<pdfrwt beam="2">  1       -2 0.74140864E-01 0.12275423E+04</pdfrwt>
<totfact> 0.25828019E+00</totfact>
</mgrwt>
</event>
<event>
 4    2  0.6387803E-007  0.6650706E+03  0.7818608E-02  0.1019474E+00
          2   -1    0    0  501    0  0.00000000000E+00  0.00000000000E+00  0.32421891365E+04  0.32421891365E+04  0.25500000000E-02 0. -1.
         -2   -1    0    0    0  501 -0.00000000000E+00 -0.00000000000E+00 -0.35909558447E+03  0.35909558448E+03  0.25500000000E-02 0.  1.
    8880023    1    1    2    0    0  0.55785337172E+02  0.73462331517E+02 -0.46085513454E+02  0.66666543244E+03  0.65864270000E+03 0.  1.
    8880022    1    1    2    0    0 -0.55785337172E+02 -0.73462331517E+02  0.29291790655E+04  0.29346192885E+04  0.15294330000E+03 0.  0.
<mgrwt>
<rscale>  0 0.47876819E+03</rscale>
<asrwt>0</asrwt>
<pdfrwt beam="1">  1        2 0.49879834E+00 0.66507062E+03</pdfrwt>
<pdfrwt beam="2">  1       -2 0.55245473E-01 0.66507062E+03</pdfrwt>
<totfact> 0.41050519E+00</totfact>
</mgrwt>
</event>
<event>
 4    2  0.6387803E-007  0.7705140E+03  0.7818608E-02  0.9778611E-01
         -2   -1    0    0    0  501 -0.00000000000E+00  0.00000000000E+00  0.10475616828E+04  0.10475616828E+04  0.25500000000E-02 0.  1.
          2   -1    0    0  501    0  0.00000000000E+00 -0.00000000000E+00 -0.11741095842E+04  0.11741095842E+04  0.25500000000E-02 0. -1.
    8880023    1    1    2    0    0  0.37465016880E+03  0.13971018314E+03  0.85491715433E+03  0.11509019208E+04  0.65864270000E+03 0.  0.
    8880022    1    1    2    0    0 -0.37465016880E+03 -0.13971018314E+03 -0.98146505570E+03  0.10707693462E+04  0.15294330000E+03 0.  0.
<mgrwt>
<rscale>  0 0.66523154E+03</rscale>
<asrwt>0</asrwt>
<pdfrwt beam="1">  1        2 0.18063224E+00 0.77051404E+03</pdfrwt>
<pdfrwt beam="2">  1       -2 0.16116334E+00 0.77051404E+03</pdfrwt>
<totfact> 0.49398321E+00</totfact>
</mgrwt>
</event>
<event>
 4    2  0.6387803E-007  0.7445025E+03  0.7818608E-02  0.9847021E-01
         -2   -1    0    0    0  501 -0.00000000000E+00  0.00000000000E+00  0.64028681546E+03  0.64028681547E+03  0.25500000000E-02 0.  1.
          2   -1    0    0  501    0  0.00000000000E+00 -0.00000000000E+00 -0.54811462222E+03  0.54811462222E+03  0.25500000000E-02 0. -1.
    8880023    1    1    2    0    0  0.34490724581E+03 -0.38893787274E+02  0.23863114987E+03  0.78181120922E+03  0.65864270000E+03 0.  1.
    8880022    1    1    2    0    0 -0.34490724581E+03  0.38893787274E+02 -0.14645895662E+03  0.40659022848E+03  0.15294330000E+03 0.  0.
<mgrwt>
<rscale>  0 0.62899059E+03</rscale>
<asrwt>0</asrwt>
<pdfrwt beam="1">  1        2 0.84325326E-01 0.74450248E+03</pdfrwt>
<pdfrwt beam="2">  1       -2 0.98505665E-01 0.74450248E+03</pdfrwt>
<totfact> 0.47900591E+01</totfact>
</mgrwt>
</event>
<event>
 4    2  0.6387803E-007  0.7028544E+03  0.7818608E-02  0.9985560E-01
         -2   -1    0    0    0  501 -0.00000000000E+00  0.00000000000E+00  0.14852608773E+04  0.14852608773E+04  0.25500000000E-02 0.  1.
          2   -1    0    0  501    0  0.00000000000E+00 -0.00000000000E+00 -0.66491111655E+03  0.66491111656E+03  0.25500000000E-02 0. -1.
    8880023    1    1    2    0    0 -0.11376198151E+03 -0.21737603652E+03  0.13639939694E+04  0.15344327566E+04  0.65864270000E+03 0.  1.
    8880022    1    1    2    0    0  0.11376198151E+03  0.21737603652E+03 -0.54364420865E+03  0.61573923726E+03  0.15294330000E+03 0.  0.
<mgrwt>
<rscale>  0 0.56287970E+03</rscale>
<asrwt>0</asrwt>
<pdfrwt beam="1">  1        2 0.10229402E+00 0.70285442E+03</pdfrwt>
<pdfrwt beam="2">  1       -2 0.22850167E+00 0.70285442E+03</pdfrwt>
<totfact> 0.39439397E+00</totfact>
</mgrwt>
</event>
<event>
 4    2  0.6387803E-007  0.1367097E+04  0.7818608E-02  0.9009680E-01
          2   -1    0    0  501    0  0.00000000000E+00  0.00000000000E+00  0.19066540913E+04  0.19066540913E+04  0.25500000000E-02 0. -1.
         -2   -1    0    0    0  501 -0.00000000000E+00 -0.00000000000E+00 -0.14445504423E+04  0.14445504423E+04  0.25500000000E-02 0.  1.
    8880023    1    1    2    0    0  0.55472680398E+03  0.10618012386E+04 -0.81653531714E+03  0.15923830656E+04  0.65864270000E+03 0.  0.
    8880022    1    1    2    0    0 -0.55472680398E+03 -0.10618012386E+04  0.12786389662E+04  0.17588214680E+04  0.15294330000E+03 0.  0.
<mgrwt>
<rscale>  0 0.13253760E+04</rscale>
<asrwt>0</asrwt>
<pdfrwt beam="1">  1        2 0.29333140E+00 0.13670969E+04</pdfrwt>
<pdfrwt beam="2">  1       -2 0.22223853E+00 0.13670969E+04</pdfrwt>
<totfact> 0.68565101E-01</totfact>
</mgrwt>
</event>
<event>
 4    2  0.6387803E-007  0.6871238E+03  0.7818608E-02  0.1005551E+00
          2   -1    0    0  501    0  0.00000000000E+00  0.00000000000E+00  0.16813090042E+04  0.16813090042E+04  0.25500000000E-02 0. -1.
         -2   -1    0    0    0  501 -0.00000000000E+00 -0.00000000000E+00 -0.33931539506E+03  0.33931539507E+03  0.25500000000E-02 0.  1.
    8880023    1    1    2    0    0  0.18402789526E+03 -0.66802834757E+02  0.32627686339E+02  0.68789799908E+03  0.65864270000E+03 0.  1.
    8880022    1    1    2    0    0 -0.18402789526E+03  0.66802834757E+02  0.13093659228E+04  0.13327264002E+04  0.15294330000E+03 0.  0.
<mgrwt>
<rscale>  0 0.53281930E+03</rscale>
<asrwt>0</asrwt>
<pdfrwt beam="1">  1        2 0.25866292E+00 0.68712378E+03</pdfrwt>
<pdfrwt beam="2">  1       -2 0.52202368E-01 0.68712378E+03</pdfrwt>
<totfact> 0.35970464E+01</totfact>
</mgrwt>
</event>
<event>
 4    2  0.6387803E-007  0.7765479E+03  0.7818608E-02  0.9764009E-01
          2   -1    0    0  501    0  0.00000000000E+00  0.00000000000E+00  0.10681031236E+04  0.10681031236E+04  0.25500000000E-02 0. -1.
         -2   -1    0    0    0  501 -0.00000000000E+00 -0.00000000000E+00 -0.50419926320E+03  0.50419926321E+03  0.25500000000E-02 0.  1.
    8880023    1    1    2    0    0  0.40602830587E+03  0.66011413095E+02 -0.93195553950E+02  0.78212026528E+03  0.65864270000E+03 0.  1.
    8880022    1    1    2    0    0 -0.40602830587E+03 -0.66011413095E+02  0.65709941430E+03  0.79018212149E+03  0.15294330000E+03 0.  0.
<mgrwt>
<rscale>  0 0.67330298E+03</rscale>
<asrwt>0</asrwt>
<pdfrwt beam="1">  1        2 0.16432356E+00 0.77654794E+03</pdfrwt>
<pdfrwt beam="2">  1       -2 0.77569118E-01 0.77654794E+03</pdfrwt>
<totfact> 0.34262157E+01</totfact>
</mgrwt>
</event>
<event>
 4    2  0.6387803E-007  0.9382092E+03  0.7818608E-02  0.9467285E-01
          2   -1    0    0  501    0  0.00000000000E+00  0.00000000000E+00  0.26104800995E+04  0.26104800995E+04  0.25500000000E-02 0. -1.
         -2   -1    0    0    0  501 -0.00000000000E+00 -0.00000000000E+00 -0.80217756513E+03  0.80217756513E+03  0.25500000000E-02 0.  1.
    8880023    1    1    2    0    0 -0.66780069236E+03  0.21645386819E+02 -0.45867261489E+03  0.10443261279E+04  0.65864270000E+03 0.  1.
    8880022    1    1    2    0    0  0.66780069236E+03 -0.21645386819E+02  0.22669751493E+04  0.23683315367E+04  0.15294330000E+03 0.  0.
<mgrwt>
<rscale>  0 0.86739310E+03</rscale>
<asrwt>0</asrwt>
<pdfrwt beam="1">  1        2 0.40161232E+00 0.93820920E+03</pdfrwt>
<pdfrwt beam="2">  1       -2 0.12341193E+00 0.93820920E+03</pdfrwt>
<totfact> 0.15136578E+00</totfact>
</mgrwt>
</event>
<event>
 4    2  0.6387803E-007  0.6901888E+03  0.7818608E-02  0.1004063E+00
          2   -1    0    0  501    0  0.00000000000E+00  0.00000000000E+00  0.14390148525E+04  0.14390148525E+04  0.25500000000E-02 0. -1.
         -2   -1    0    0    0  501 -0.00000000000E+00 -0.00000000000E+00 -0.22336621365E+03  0.22336621367E+03  0.25500000000E-02 0.  1.
    8880023    1    1    2    0    0  0.19900906415E+03 -0.54274983435E+02  0.37940255384E+03  0.78759563582E+03  0.65864270000E+03 0.  0.
    8880022    1    1    2    0    0 -0.19900906415E+03  0.54274983435E+02  0.83624608500E+03  0.87478543034E+03  0.15294330000E+03 0.  0.
<mgrwt>
<rscale>  0 0.53904029E+03</rscale>
<asrwt>0</asrwt>
<pdfrwt beam="1">  1        2 0.22138689E+00 0.69018881E+03</pdfrwt>
<pdfrwt beam="2">  1       -2 0.34364034E-01 0.69018881E+03</pdfrwt>
<totfact> 0.11150924E+02</totfact>
</mgrwt>
</event>
<event>
 4    2  0.6387803E-007  0.1150283E+04  0.7818608E-02  0.9207035E-01
         -2   -1    0    0    0  501 -0.00000000000E+00  0.00000000000E+00  0.79002909756E+03  0.79002909757E+03  0.25500000000E-02 0.  1.
          2   -1    0    0  501    0  0.00000000000E+00 -0.00000000000E+00 -0.26227540169E+04  0.26227540169E+04  0.25500000000E-02 0. -1.
    8880023    1    1    2    0    0  0.93937513635E+03  0.83154867132E+02  0.19925758233E+03  0.11674134525E+04  0.65864270000E+03 0.  1.
    8880022    1    1    2    0    0 -0.93937513635E+03 -0.83154867132E+02 -0.20319825016E+04  0.22453696619E+04  0.15294330000E+03 0.  0.
<mgrwt>
<rscale>  0 0.10981114E+04</rscale>
<asrwt>0</asrwt>
<pdfrwt beam="1">  1        2 0.40350061E+00 0.11502828E+04</pdfrwt>
<pdfrwt beam="2">  1       -2 0.12154294E+00 0.11502828E+04</pdfrwt>
<totfact> 0.15001275E+00</totfact>
</mgrwt>
</event>
<event>
 4    2  0.6387803E-007  0.9428470E+03  0.7818608E-02  0.9460481E-01
         -2   -1    0    0    0  501 -0.00000000000E+00  0.00000000000E+00  0.35910864545E+03  0.35910864546E+03  0.25500000000E-02 0.  1.
          2   -1    0    0  501    0  0.00000000000E+00 -0.00000000000E+00 -0.18638933333E+04  0.18638933333E+04  0.25500000000E-02 0. -1.
    8880023    1    1    2    0    0  0.55377852969E+03  0.38533042459E+03 -0.81841377285E+03  0.12485037068E+04  0.65864270000E+03 0. -1.
    8880022    1    1    2    0    0 -0.55377852969E+03 -0.38533042459E+03 -0.68637091501E+03  0.97449827196E+03  0.15294330000E+03 0.  1.
<mgrwt>
<rscale>  0 0.87261143E+03</rscale>
<asrwt>0</asrwt>
<pdfrwt beam="1">  1        2 0.28675281E+00 0.94284697E+03</pdfrwt>
<pdfrwt beam="2">  1       -2 0.55247485E-01 0.94284697E+03</pdfrwt>
<totfact> 0.24685955E+01</totfact>
</mgrwt>
</event>
<event>
 4    2  0.6387803E-007  0.8392849E+03  0.7818608E-02  0.9631530E-01
         -2   -1    0    0    0  501 -0.00000000000E+00  0.00000000000E+00  0.52383118459E+03  0.52383118460E+03  0.25500000000E-02 0.  1.
          2   -1    0    0  501    0  0.00000000000E+00 -0.00000000000E+00 -0.13083205521E+04  0.13083205521E+04  0.25500000000E-02 0. -1.
    8880023    1    1    2    0    0 -0.48032772384E+03 -0.19968534364E+03  0.45769126690E+02  0.84053196130E+03  0.65864270000E+03 0.  1.
    8880022    1    1    2    0    0  0.48032772384E+03  0.19968534364E+03 -0.83025849415E+03  0.99161977535E+03  0.15294330000E+03 0.  0.
<mgrwt>
<rscale>  0 0.75244004E+03</rscale>
<asrwt>0</asrwt>
<pdfrwt beam="1">  1        2 0.20128008E+00 0.83928491E+03</pdfrwt>
<pdfrwt beam="2">  1       -2 0.80589414E-01 0.83928491E+03</pdfrwt>
<totfact> 0.22469178E+01</totfact>
</mgrwt>
</event>
<event>
 4    2  0.6387803E-007  0.7001278E+03  0.7818608E-02  0.9996671E-01
          2   -1    0    0  501    0  0.00000000000E+00  0.00000000000E+00  0.13502445764E+04  0.13502445764E+04  0.25500000000E-02 0. -1.
         -2   -1    0    0    0  501 -0.00000000000E+00 -0.00000000000E+00 -0.32847148310E+03  0.32847148311E+03  0.25500000000E-02 0.  1.
    8880023    1    1    2    0    0  0.23653849240E+03 -0.20452189464E+02  0.90972330827E+02  0.70601340050E+03  0.65864270000E+03 0.  1.
    8880022    1    1    2    0    0 -0.23653849240E+03  0.20452189464E+02  0.93080076251E+03  0.97270265906E+03  0.15294330000E+03 0.  0.
<mgrwt>
<rscale>  0 0.55796431E+03</rscale>
<asrwt>0</asrwt>
<pdfrwt beam="1">  1        2 0.20772993E+00 0.70012781E+03</pdfrwt>
<pdfrwt beam="2">  1       -2 0.50534075E-01 0.70012781E+03</pdfrwt>
<totfact> 0.58618617E+01</totfact>
</mgrwt>
</event>
<event>
 4    2  0.6387803E-007  0.9524135E+03  0.7818608E-02  0.9446650E-01
          2   -1    0    0  501    0  0.00000000000E+00  0.00000000000E+00  0.21318287004E+04  0.21318287004E+04  0.25500000000E-02 0. -1.
         -2   -1    0    0    0  501 -0.00000000000E+00 -0.00000000000E+00 -0.47397141052E+03  0.47397141053E+03  0.25500000000E-02 0.  1.
    8880023    1    1    2    0    0 -0.98325740959E+02 -0.68089159626E+03  0.16451328819E+04  0.19009349601E+04  0.65864270000E+03 0. -1.
    8880022    1    1    2    0    0  0.98325740959E+02  0.68089159626E+03  0.12724407917E+02  0.70486515076E+03  0.15294330000E+03 0.  0.
<mgrwt>
<rscale>  0 0.88334017E+03</rscale>
<asrwt>0</asrwt>
<pdfrwt beam="1">  1        2 0.32797364E+00 0.95241353E+03</pdfrwt>
<pdfrwt beam="2">  1       -2 0.72918679E-01 0.95241353E+03</pdfrwt>
<totfact> 0.96825400E+00</totfact>
</mgrwt>
</event>
<event>
 4    2  0.6387803E-007  0.7720960E+03  0.7818608E-02  0.9774742E-01
          2   -1    0    0  501    0  0.00000000000E+00  0.00000000000E+00  0.81107058960E+03  0.81107058961E+03  0.25500000000E-02 0. -1.
         -2   -1    0    0    0  501 -0.00000000000E+00 -0.00000000000E+00 -0.59110270049E+03  0.59110270050E+03  0.25500000000E-02 0.  1.
    8880023    1    1    2    0    0  0.22555194667E+03  0.33383888029E+03 -0.20300278677E+03  0.79833728232E+03  0.65864270000E+03 0.  0.
    8880022    1    1    2    0    0 -0.22555194667E+03 -0.33383888029E+03  0.42297067587E+03  0.60383600779E+03  0.15294330000E+03 0.  0.
<mgrwt>
<rscale>  0 0.66735819E+03</rscale>
<asrwt>0</asrwt>
<pdfrwt beam="1">  1        2 0.12478009E+00 0.77209603E+03</pdfrwt>
<pdfrwt beam="2">  1       -2 0.90938877E-01 0.77209603E+03</pdfrwt>
<totfact> 0.35318741E+01</totfact>
</mgrwt>
</event>
<event>
 4    2  0.6387803E-007  0.1065186E+04  0.7818608E-02  0.9300845E-01
         -2   -1    0    0    0  501 -0.00000000000E+00  0.00000000000E+00  0.63251483512E+03  0.63251483512E+03  0.25500000000E-02 0.  1.
          2   -1    0    0  501    0  0.00000000000E+00 -0.00000000000E+00 -0.31027032826E+04  0.31027032826E+04  0.25500000000E-02 0. -1.
    8880023    1    1    2    0    0  0.78230389101E+03 -0.29801302088E+03  0.58880058947E+02  0.10668121700E+04  0.65864270000E+03 0.  0.
    8880022    1    1    2    0    0 -0.78230389101E+03  0.29801302088E+03 -0.25290685064E+04  0.26684059477E+04  0.15294330000E+03 0.  0.
<mgrwt>
<rscale>  0 0.10070514E+04</rscale>
<asrwt>0</asrwt>
<pdfrwt beam="1">  1        2 0.47733896E+00 0.10651861E+04</pdfrwt>
<pdfrwt beam="2">  1       -2 0.97309976E-01 0.10651861E+04</pdfrwt>
<totfact> 0.13361416E+00</totfact>
</mgrwt>
</event>
<event>
 4    2  0.6387803E-007  0.6733395E+03  0.7818608E-02  0.1013374E+00
         -2   -1    0    0    0  501 -0.00000000000E+00  0.00000000000E+00  0.17370966155E+03  0.17370966157E+03  0.25500000000E-02 0.  1.
          2   -1    0    0  501    0  0.00000000000E+00 -0.00000000000E+00 -0.22302145665E+04  0.22302145665E+04  0.25500000000E-02 0. -1.
    8880023    1    1    2    0    0 -0.99992714419E+02  0.97863580433E+02 -0.51282607776E+03  0.84639034470E+03  0.65864270000E+03 0.  1.
    8880022    1    1    2    0    0  0.99992714419E+02 -0.97863580433E+02 -0.15436788272E+04  0.15575338834E+04  0.15294330000E+03 0.  0.
<mgrwt>
<rscale>  0 0.50155438E+03</rscale>
<asrwt>0</asrwt>
<pdfrwt beam="1">  1        2 0.34310991E+00 0.67333946E+03</pdfrwt>
<pdfrwt beam="2">  1       -2 0.26724565E-01 0.67333946E+03</pdfrwt>
<totfact> 0.65753917E+01</totfact>
</mgrwt>
</event>
<event>
 4    2  0.6387803E-007  0.6859214E+03  0.7818608E-02  0.1006155E+00
         -2   -1    0    0    0  501 -0.00000000000E+00  0.00000000000E+00  0.39970390645E+03  0.39970390646E+03  0.25500000000E-02 0.  1.
          2   -1    0    0  501    0  0.00000000000E+00 -0.00000000000E+00 -0.10031515816E+04  0.10031515816E+04  0.25500000000E-02 0. -1.
    8880023    1    1    2    0    0 -0.18243443275E+03 -0.58272247642E+02  0.66834104895E+02  0.68916977657E+03  0.65864270000E+03 0. -1.
    8880022    1    1    2    0    0  0.18243443275E+03  0.58272247642E+02 -0.67028178001E+03  0.71368571145E+03  0.15294330000E+03 0.  0.
<mgrwt>
<rscale>  0 0.53031955E+03</rscale>
<asrwt>0</asrwt>
<pdfrwt beam="1">  1        2 0.15433101E+00 0.68592141E+03</pdfrwt>
<pdfrwt beam="2">  1       -2 0.61492909E-01 0.68592141E+03</pdfrwt>
<totfact> 0.62906531E+01</totfact>
</mgrwt>
</event>
<event>
 4    2  0.6387803E-007  0.6928632E+03  0.7818608E-02  0.1002820E+00
         -2   -1    0    0    0  501 -0.00000000000E+00  0.00000000000E+00  0.23117589843E+03  0.23117589844E+03  0.25500000000E-02 0.  1.
          2   -1    0    0  501    0  0.00000000000E+00 -0.00000000000E+00 -0.10464240570E+04  0.10464240570E+04  0.25500000000E-02 0. -1.
    8880023    1    1    2    0    0 -0.76789079597E+01  0.21491931080E+03 -0.44694113968E+03  0.82450946895E+03  0.65864270000E+03 0.  1.
    8880022    1    1    2    0    0  0.76789079597E+01 -0.21491931080E+03 -0.36830701893E+03  0.45309048653E+03  0.15294330000E+03 0. -1.
<mgrwt>
<rscale>  0 0.54430674E+03</rscale>
<asrwt>0</asrwt>
<pdfrwt beam="1">  1        2 0.16098831E+00 0.69286325E+03</pdfrwt>
<pdfrwt beam="2">  1       -2 0.35565523E-01 0.69286325E+03</pdfrwt>
<totfact> 0.17738440E+02</totfact>
</mgrwt>
</event>
<event>
 4    2  0.6387803E-007  0.8780288E+03  0.7818608E-02  0.9562265E-01
         -2   -1    0    0    0  501 -0.00000000000E+00  0.00000000000E+00  0.93821238105E+03  0.93821238105E+03  0.25500000000E-02 0.  1.
          2   -1    0    0  501    0  0.00000000000E+00 -0.00000000000E+00 -0.10506094310E+04  0.10506094310E+04  0.25500000000E-02 0. -1.
    8880023    1    1    2    0    0 -0.40952342983E+03 -0.41160037229E+03  0.59524136718E+03  0.10607765069E+04  0.65864270000E+03 0.  0.
    8880022    1    1    2    0    0  0.40952342983E+03  0.41160037229E+03 -0.70763841711E+03  0.92804530517E+03  0.15294330000E+03 0.  0.
<mgrwt>
<rscale>  0 0.79844889E+03</rscale>
<asrwt>0</asrwt>
<pdfrwt beam="1">  1        2 0.16163222E+00 0.87802877E+03</pdfrwt>
<pdfrwt beam="2">  1       -2 0.14434037E+00 0.87802877E+03</pdfrwt>
<totfact> 0.77840113E+00</totfact>
</mgrwt>
</event>
<event>
 4    2  0.6387803E-007  0.7001591E+03  0.7818608E-02  0.9996542E-01
          2   -1    0    0  501    0  0.00000000000E+00  0.00000000000E+00  0.93129538040E+03  0.93129538041E+03  0.25500000000E-02 0. -1.
         -2   -1    0    0    0  501 -0.00000000000E+00 -0.00000000000E+00 -0.29286759072E+03  0.29286759073E+03  0.25500000000E-02 0.  1.
    8880023    1    1    2    0    0 -0.13285453575E+03 -0.19688117065E+03  0.24911725679E+03  0.74315687235E+03  0.65864270000E+03 0.  1.
    8880022    1    1    2    0    0  0.13285453575E+03  0.19688117065E+03  0.38931053290E+03  0.48100609879E+03  0.15294330000E+03 0.  0.
<mgrwt>
<rscale>  0 0.55802126E+03</rscale>
<asrwt>0</asrwt>
<pdfrwt beam="1">  1        2 0.14327621E+00 0.70015907E+03</pdfrwt>
<pdfrwt beam="2">  1       -2 0.45056552E-01 0.70015907E+03</pdfrwt>
<totfact> 0.13250436E+02</totfact>
</mgrwt>
</event>
<event>
 4    2  0.6387803E-007  0.1147697E+04  0.7818608E-02  0.9209722E-01
         -2   -1    0    0    0  501 -0.00000000000E+00  0.00000000000E+00  0.14009640224E+04  0.14009640224E+04  0.25500000000E-02 0.  1.
          2   -1    0    0  501    0  0.00000000000E+00 -0.00000000000E+00 -0.92718381642E+03  0.92718381643E+03  0.25500000000E-02 0. -1.
    8880023    1    1    2    0    0  0.85942430961E+03  0.38050892613E+03  0.70669488566E+03  0.13478223379E+04  0.65864270000E+03 0.  0.
    8880022    1    1    2    0    0 -0.85942430961E+03 -0.38050892613E+03 -0.23291467967E+03  0.98032550096E+03  0.15294330000E+03 0.  0.
<mgrwt>
<rscale>  0 0.10953643E+04</rscale>
<asrwt>0</asrwt>
<pdfrwt beam="1">  1        2 0.14264366E+00 0.11476966E+04</pdfrwt>
<pdfrwt beam="2">  1       -2 0.21553293E+00 0.11476966E+04</pdfrwt>
<totfact> 0.29023051E+00</totfact>
</mgrwt>
</event>
<event>
 4    2  0.6387803E-007  0.6752182E+03  0.7818608E-02  0.1012169E+00
          2   -1    0    0  501    0  0.00000000000E+00  0.00000000000E+00  0.18042758803E+04  0.18042758803E+04  0.25500000000E-02 0. -1.
         -2   -1    0    0    0  501 -0.00000000000E+00 -0.00000000000E+00 -0.11326453525E+03  0.11326453528E+03  0.25500000000E-02 0.  1.
    8880023    1    1    2    0    0  0.43702870480E+02 -0.14212474530E+03  0.11175829149E+04  0.13057224675E+04  0.65864270000E+03 0.  0.
    8880022    1    1    2    0    0 -0.43702870480E+02  0.14212474530E+03  0.57342843010E+03  0.61181794806E+03  0.15294330000E+03 0.  1.
<mgrwt>
<rscale>  0 0.50621587E+03</rscale>
<asrwt>0</asrwt>
<pdfrwt beam="1">  1        2 0.27758088E+00 0.67521818E+03</pdfrwt>
<pdfrwt beam="2">  1       -2 0.17425315E-01 0.67521818E+03</pdfrwt>
<totfact> 0.23875643E+02</totfact>
</mgrwt>
</event>
<event>
 4    2  0.6387803E-007  0.9495912E+03  0.7818608E-02  0.9450703E-01
          2   -1    0    0  501    0  0.00000000000E+00  0.00000000000E+00  0.29031902018E+04  0.29031902018E+04  0.25500000000E-02 0. -1.
         -2   -1    0    0    0  501 -0.00000000000E+00 -0.00000000000E+00 -0.94605095009E+03  0.94605095010E+03  0.25500000000E-02 0.  1.
    8880023    1    1    2    0    0 -0.64313750842E+03 -0.23299647495E+03 -0.64919858743E+03  0.11502965810E+04  0.65864270000E+03 0.  1.
    8880022    1    1    2    0    0  0.64313750842E+03  0.23299647495E+03  0.26063378392E+04  0.26989445709E+04  0.15294330000E+03 0.  0.
<mgrwt>
<rscale>  0 0.88017978E+03</rscale>
<asrwt>0</asrwt>
<pdfrwt beam="1">  1        2 0.44664464E+00 0.94959118E+03</pdfrwt>
<pdfrwt beam="2">  1       -2 0.14554630E+00 0.94959118E+03</pdfrwt>
<totfact> 0.66416864E-01</totfact>
</mgrwt>
</event>
<event>
 4    2  0.6387803E-007  0.9785682E+03  0.7818608E-02  0.9410150E-01
         -2   -1    0    0    0  501 -0.00000000000E+00  0.00000000000E+00  0.82848532793E+03  0.82848532793E+03  0.25500000000E-02 0.  1.
          2   -1    0    0  501    0  0.00000000000E+00 -0.00000000000E+00 -0.11018735965E+04  0.11018735965E+04  0.25500000000E-02 0. -1.
    8880023    1    1    2    0    0  0.62399450472E+03  0.36662846580E+03  0.26693264736E+03  0.10143218515E+04  0.65864270000E+03 0.  0.
    8880022    1    1    2    0    0 -0.62399450472E+03 -0.36662846580E+03 -0.54032091595E+03  0.91603707299E+03  0.15294330000E+03 0.  0.
<mgrwt>
<rscale>  0 0.91245055E+03</rscale>
<asrwt>0</asrwt>
<pdfrwt beam="1">  1        2 0.16951902E+00 0.97856823E+03</pdfrwt>
<pdfrwt beam="2">  1       -2 0.12745928E+00 0.97856823E+03</pdfrwt>
<totfact> 0.98609692E+00</totfact>
</mgrwt>
</event>
<event>
 4    2  0.6387803E-007  0.7272174E+03  0.7818608E-02  0.9898881E-01
          2   -1    0    0  501    0  0.00000000000E+00  0.00000000000E+00  0.22634291672E+04  0.22634291672E+04  0.25500000000E-02 0. -1.
         -2   -1    0    0    0  501 -0.00000000000E+00 -0.00000000000E+00 -0.19021424872E+03  0.19021424874E+03  0.25500000000E-02 0.  1.
    8880023    1    1    2    0    0 -0.28825764472E+02  0.30692668861E+03  0.60601332990E+03  0.94662414884E+03  0.65864270000E+03 0.  1.
    8880022    1    1    2    0    0  0.28825764472E+02 -0.30692668861E+03  0.14672015886E+04  0.15070192671E+04  0.15294330000E+03 0.  0.
<mgrwt>
<rscale>  0 0.60315556E+03</rscale>
<asrwt>0</asrwt>
<pdfrwt beam="1">  1        2 0.34821987E+00 0.72721738E+03</pdfrwt>
<pdfrwt beam="2">  1       -2 0.29263730E-01 0.72721738E+03</pdfrwt>
<totfact> 0.52990979E+01</totfact>
</mgrwt>
</event>
<event>
 4    2  0.6387803E-007  0.7075581E+03  0.7818608E-02  0.9967183E-01
         -2   -1    0    0    0  501 -0.00000000000E+00  0.00000000000E+00  0.72829855637E+03  0.72829855637E+03  0.25500000000E-02 0.  1.
          2   -1    0    0  501    0  0.00000000000E+00 -0.00000000000E+00 -0.72370483235E+03  0.72370483235E+03  0.25500000000E-02 0. -1.
    8880023    1    1    2    0    0  0.10394285996E+03 -0.23669413297E+03  0.50436182344E+03  0.86891845758E+03  0.65864270000E+03 0.  1.
    8880022    1    1    2    0    0 -0.10394285996E+03  0.23669413297E+03 -0.49976809942E+03  0.58308493114E+03  0.15294330000E+03 0.  0.
<mgrwt>
<rscale>  0 0.57112919E+03</rscale>
<asrwt>0</asrwt>
<pdfrwt beam="1">  1        2 0.11133921E+00 0.70755808E+03</pdfrwt>
<pdfrwt beam="2">  1       -2 0.11204593E+00 0.70755808E+03</pdfrwt>
<totfact> 0.25109246E+01</totfact>
</mgrwt>
</event>
<event>
 4    2  0.6387803E-007  0.8463741E+03  0.7818608E-02  0.9618277E-01
          2   -1    0    0  501    0  0.00000000000E+00  0.00000000000E+00  0.25345513818E+03  0.25345513819E+03  0.25500000000E-02 0. -1.
         -2   -1    0    0    0  501 -0.00000000000E+00 -0.00000000000E+00 -0.19886503572E+04  0.19886503572E+04  0.25500000000E-02 0.  1.
    8880023    1    1    2    0    0  0.35617790737E+03  0.39455813911E+03 -0.12295794603E+04  0.14927205640E+04  0.65864270000E+03 0.  1.
    8880022    1    1    2    0    0 -0.35617790737E+03 -0.39455813911E+03 -0.50561575869E+03  0.74938493132E+03  0.15294330000E+03 0. -1.
<mgrwt>
<rscale>  0 0.76098237E+03</rscale>
<asrwt>0</asrwt>
<pdfrwt beam="1">  1        2 0.38993099E-01 0.84637405E+03</pdfrwt>
<pdfrwt beam="2">  1       -2 0.30594620E+00 0.84637405E+03</pdfrwt>
<totfact> 0.39814149E+00</totfact>
</mgrwt>
</event>
<event>
 4    2  0.6387803E-007  0.7958082E+03  0.7818608E-02  0.9719934E-01
          2   -1    0    0  501    0  0.00000000000E+00  0.00000000000E+00  0.16974958220E+04  0.16974958220E+04  0.25500000000E-02 0. -1.
         -2   -1    0    0    0  501 -0.00000000000E+00 -0.00000000000E+00 -0.30443953018E+03  0.30443953019E+03  0.25500000000E-02 0.  1.
    8880023    1    1    2    0    0 -0.37325003967E+03  0.24532596472E+03  0.37499958632E+03  0.87973593600E+03  0.65864270000E+03 0.  1.
    8880022    1    1    2    0    0  0.37325003967E+03 -0.24532596472E+03  0.10180567055E+04  0.11221994162E+04  0.15294330000E+03 0.  0.
<mgrwt>
<rscale>  0 0.69842233E+03</rscale>
<asrwt>0</asrwt>
<pdfrwt beam="1">  1        2 0.26115321E+00 0.79580816E+03</pdfrwt>
<pdfrwt beam="2">  1       -2 0.46836850E-01 0.79580816E+03</pdfrwt>
<totfact> 0.43373130E+01</totfact>
</mgrwt>
</event>
<event>
 4    2  0.6387803E-007  0.6864423E+03  0.7818608E-02  0.1005892E+00
         -2   -1    0    0    0  501 -0.00000000000E+00  0.00000000000E+00  0.26624663328E+03  0.26624663329E+03  0.25500000000E-02 0.  1.
          2   -1    0    0  501    0  0.00000000000E+00 -0.00000000000E+00 -0.15050335710E+04  0.15050335710E+04  0.25500000000E-02 0. -1.
    8880023    1    1    2    0    0  0.86390238896E+02  0.17300154093E+03 -0.21663508234E+03  0.71981509550E+03  0.65864270000E+03 0.  1.
    8880022    1    1    2    0    0 -0.86390238896E+02 -0.17300154093E+03 -0.10221518554E+04  0.10514651088E+04  0.15294330000E+03 0.  0.
<mgrwt>
<rscale>  0 0.53140678E+03</rscale>
<asrwt>0</asrwt>
<pdfrwt beam="1">  1        2 0.23154362E+00 0.68644229E+03</pdfrwt>
<pdfrwt beam="2">  1       -2 0.40961021E-01 0.68644229E+03</pdfrwt>
<totfact> 0.73084757E+01</totfact>
</mgrwt>
</event>
<event>
 4    2  0.6387803E-007  0.6790218E+03  0.7818608E-02  0.1009882E+00
          2   -1    0    0  501    0  0.00000000000E+00  0.00000000000E+00  0.62822593274E+03  0.62822593274E+03  0.25500000000E-02 0. -1.
         -2   -1    0    0    0  501 -0.00000000000E+00 -0.00000000000E+00 -0.44695876362E+03  0.44695876362E+03  0.25500000000E-02 0.  1.
    8880023    1    1    2    0    0  0.14800920824E+03  0.73168566008E+02 -0.12972159756E+03  0.69130186164E+03  0.65864270000E+03 0.  1.
    8880022    1    1    2    0    0 -0.14800920824E+03 -0.73168566008E+02  0.31098876669E+03  0.38388283472E+03  0.15294330000E+03 0.  0.
<mgrwt>
<rscale>  0 0.51521366E+03</rscale>
<asrwt>0</asrwt>
<pdfrwt beam="1">  1        2 0.96650143E-01 0.67902178E+03</pdfrwt>
<pdfrwt beam="2">  1       -2 0.68762887E-01 0.67902178E+03</pdfrwt>
<totfact> 0.92102164E+01</totfact>
</mgrwt>
</event>
<event>
 4    2  0.6387803E-007  0.8300247E+03  0.7818608E-02  0.9649284E-01
          2   -1    0    0  501    0  0.00000000000E+00  0.00000000000E+00  0.14792110607E+04  0.14792110608E+04  0.25500000000E-02 0. -1.
         -2   -1    0    0    0  501 -0.00000000000E+00 -0.00000000000E+00 -0.49146352754E+03  0.49146352755E+03  0.25500000000E-02 0.  1.
    8880023    1    1    2    0    0 -0.23110771190E+03  0.44913244266E+03 -0.23106757313E+02  0.83034622541E+03  0.65864270000E+03 0.  0.
    8880022    1    1    2    0    0  0.23110771190E+03 -0.44913244266E+03  0.10108542905E+04  0.11403283629E+04  0.15294330000E+03 0.  0.
<mgrwt>
<rscale>  0 0.74118353E+03</rscale>
<asrwt>0</asrwt>
<pdfrwt beam="1">  1        2 0.22757093E+00 0.83002466E+03</pdfrwt>
<pdfrwt beam="2">  1       -2 0.75609775E-01 0.83002466E+03</pdfrwt>
<totfact> 0.20745498E+01</totfact>
</mgrwt>
</event>
<event>
 4    2  0.6387803E-007  0.7793688E+03  0.7818608E-02  0.9757322E-01
          2   -1    0    0  501    0  0.00000000000E+00  0.00000000000E+00  0.19370967783E+04  0.19370967783E+04  0.25500000000E-02 0. -1.
         -2   -1    0    0    0  501 -0.00000000000E+00 -0.00000000000E+00 -0.21506338657E+03  0.21506338659E+03  0.25500000000E-02 0.  1.
    8880023    1    1    2    0    0 -0.38373675050E+03  0.16233206891E+03  0.74104802923E+03  0.10754385069E+04  0.65864270000E+03 0.  1.
    8880022    1    1    2    0    0  0.38373675050E+03 -0.16233206891E+03  0.98098536250E+03  0.10767216580E+04  0.15294330000E+03 0.  0.
<mgrwt>
<rscale>  0 0.67704074E+03</rscale>
<asrwt>0</asrwt>
<pdfrwt beam="1">  1        2 0.29801488E+00 0.77936885E+03</pdfrwt>
<pdfrwt beam="2">  1       -2 0.33086676E-01 0.77936885E+03</pdfrwt>
<totfact> 0.63234424E+01</totfact>
</mgrwt>
</event>
<event>
 4    2  0.6387803E-007  0.8924105E+03  0.7818608E-02  0.9538327E-01
         -2   -1    0    0    0  501 -0.00000000000E+00  0.00000000000E+00  0.56112604110E+03  0.56112604111E+03  0.25500000000E-02 0.  1.
          2   -1    0    0  501    0  0.00000000000E+00 -0.00000000000E+00 -0.18606354723E+04  0.18606354723E+04  0.25500000000E-02 0. -1.
    8880023    1    1    2    0    0 -0.60180383552E+03  0.20454155361E+02  0.92708271752E+02  0.89721305097E+03  0.65864270000E+03 0.  1.
    8880022    1    1    2    0    0  0.60180383552E+03 -0.20454155361E+02 -0.13922177029E+04  0.15245484624E+04  0.15294330000E+03 0.  0.
<mgrwt>
<rscale>  0 0.81516175E+03</rscale>
<asrwt>0</asrwt>
<pdfrwt beam="1">  1        2 0.28625161E+00 0.89241046E+03</pdfrwt>
<pdfrwt beam="2">  1       -2 0.86327084E-01 0.89241046E+03</pdfrwt>
<totfact> 0.94030501E+00</totfact>
</mgrwt>
</event>
<event>
 4    2  0.6387803E-007  0.8364687E+03  0.7818608E-02  0.9636875E-01
         -2   -1    0    0    0  501 -0.00000000000E+00  0.00000000000E+00  0.10746471403E+04  0.10746471403E+04  0.25500000000E-02 0.  1.
          2   -1    0    0  501    0  0.00000000000E+00 -0.00000000000E+00 -0.68690052162E+03  0.68690052162E+03  0.25500000000E-02 0. -1.
    8880023    1    1    2    0    0 -0.23082254923E+03 -0.46107554280E+03 -0.29985347462E+03  0.88858990423E+03  0.65864270000E+03 0.  0.
    8880022    1    1    2    0    0  0.23082254923E+03  0.46107554280E+03  0.68760009332E+03  0.87295775771E+03  0.15294330000E+03 0.  0.
<mgrwt>
<rscale>  0 0.74902891E+03</rscale>
<asrwt>0</asrwt>
<pdfrwt beam="1">  1        2 0.10567700E+00 0.83646872E+03</pdfrwt>
<pdfrwt beam="2">  1       -2 0.16533033E+00 0.83646872E+03</pdfrwt>
<totfact> 0.97324673E+00</totfact>
</mgrwt>
</event>
<event>
 4    2  0.6387803E-007  0.6739127E+03  0.7818608E-02  0.1013001E+00
         -2   -1    0    0    0  501 -0.00000000000E+00  0.00000000000E+00  0.10335517472E+04  0.10335517472E+04  0.25500000000E-02 0.  1.
          2   -1    0    0  501    0  0.00000000000E+00 -0.00000000000E+00 -0.44486568259E+03  0.44486568260E+03  0.25500000000E-02 0. -1.
    8880023    1    1    2    0    0 -0.25041308065E+02  0.14043152891E+03  0.88707782449E+03  0.11140311281E+04  0.65864270000E+03 0.  1.
    8880022    1    1    2    0    0  0.25041308065E+02 -0.14043152891E+03 -0.29839175993E+03  0.36438630165E+03  0.15294330000E+03 0.  0.
<mgrwt>
<rscale>  0 0.50299334E+03</rscale>
<asrwt>0</asrwt>
<pdfrwt beam="1">  1        2 0.68440874E-01 0.67391267E+03</pdfrwt>
<pdfrwt beam="2">  1       -2 0.15900796E+00 0.67391267E+03</pdfrwt>
<totfact> 0.18434148E+01</totfact>
</mgrwt>
</event>
<event>
 4    2  0.6387803E-007  0.7018519E+03  0.7818608E-02  0.9989604E-01
         -2   -1    0    0    0  501 -0.00000000000E+00  0.00000000000E+00  0.91263011743E+03  0.91263011743E+03  0.25500000000E-02 0.  1.
          2   -1    0    0  501    0  0.00000000000E+00 -0.00000000000E+00 -0.45771001114E+03  0.45771001115E+03  0.25500000000E-02 0. -1.
    8880023    1    1    2    0    0 -0.16265365611E+03 -0.17980472718E+03  0.70142232932E+03  0.99226480442E+03  0.65864270000E+03 0.  1.
    8880022    1    1    2    0    0  0.16265365611E+03  0.17980472718E+03 -0.24650222304E+03  0.37807532416E+03  0.15294330000E+03 0.  0.
<mgrwt>
<rscale>  0 0.56108456E+03</rscale>
<asrwt>0</asrwt>
<pdfrwt beam="1">  1        2 0.70416926E-01 0.70185195E+03</pdfrwt>
<pdfrwt beam="2">  1       -2 0.14040463E+00 0.70185195E+03</pdfrwt>
<totfact> 0.24721700E+01</totfact>
</mgrwt>
</event>
<event>
 4    2  0.6387803E-007  0.8056562E+03  0.7818608E-02  0.9698697E-01
          2   -1    0    0  501    0  0.00000000000E+00  0.00000000000E+00  0.15066361234E+04  0.15066361234E+04  0.25500000000E-02 0. -1.
         -2   -1    0    0    0  501 -0.00000000000E+00 -0.00000000000E+00 -0.47170570759E+03  0.47170570760E+03  0.25500000000E-02 0.  1.
    8880023    1    1    2    0    0 -0.45061916727E+03  0.11051753658E+03 -0.30514825070E+02  0.80623391185E+03  0.65864270000E+03 0.  1.
    8880022    1    1    2    0    0  0.45061916727E+03 -0.11051753658E+03  0.10654452409E+04  0.11721079191E+04  0.15294330000E+03 0.  0.
<mgrwt>
<rscale>  0 0.71094427E+03</rscale>
<asrwt>0</asrwt>
<pdfrwt beam="1">  1        2 0.23179017E+00 0.80565623E+03</pdfrwt>
<pdfrwt beam="2">  1       -2 0.72570109E-01 0.80565623E+03</pdfrwt>
<totfact> 0.21988771E+01</totfact>
</mgrwt>
</event>
<event>
 4    2  0.6387803E-007  0.1169903E+04  0.7818608E-02  0.9186948E-01
         -2   -1    0    0    0  501 -0.00000000000E+00  0.00000000000E+00  0.65584370856E+03  0.65584370857E+03  0.25500000000E-02 0.  1.
          2   -1    0    0  501    0  0.00000000000E+00 -0.00000000000E+00 -0.44047924462E+04  0.44047924462E+04  0.25500000000E-02 0. -1.
    8880023    1    1    2    0    0  0.68883464270E+02 -0.96442657830E+03  0.16504878790E+02  0.11700197323E+04  0.65864270000E+03 0.  0.
    8880022    1    1    2    0    0 -0.68883464270E+02  0.96442657830E+03 -0.37654536164E+04  0.38906164225E+04  0.15294330000E+03 0.  0.
<mgrwt>
<rscale>  0 0.11189164E+04</rscale>
<asrwt>0</asrwt>
<pdfrwt beam="1">  1        2 0.67766036E+00 0.11699033E+04</pdfrwt>
<pdfrwt beam="2">  1       -2 0.10089903E+00 0.11699033E+04</pdfrwt>
<totfact> 0.12675703E-01</totfact>
</mgrwt>
</event>
<event>
 4    2  0.6387803E-007  0.6958067E+03  0.7818608E-02  0.1001506E+00
         -2   -1    0    0    0  501 -0.00000000000E+00  0.00000000000E+00  0.54207272257E+03  0.54207272258E+03  0.25500000000E-02 0.  1.
          2   -1    0    0  501    0  0.00000000000E+00 -0.00000000000E+00 -0.18903442622E+04  0.18903442623E+04  0.25500000000E-02 0. -1.
    8880023    1    1    2    0    0 -0.41777749842E+02 -0.22043438293E+03  0.30303754870E+03  0.75893257918E+03  0.65864270000E+03 0.  1.
    8880022    1    1    2    0    0  0.41777749842E+02  0.22043438293E+03 -0.16513090884E+04  0.16734844056E+04  0.15294330000E+03 0.  0.
<mgrwt>
<rscale>  0 0.54994689E+03</rscale>
<asrwt>0</asrwt>
<pdfrwt beam="1">  1        2 0.29082219E+00 0.69580666E+03</pdfrwt>
<pdfrwt beam="2">  1       -2 0.83395805E-01 0.69580666E+03</pdfrwt>
<totfact> 0.10074421E+01</totfact>
</mgrwt>
</event>
<event>
 4    2  0.6387803E-007  0.1284553E+04  0.7818608E-02  0.9079015E-01
          2   -1    0    0  501    0  0.00000000000E+00  0.00000000000E+00  0.20776140268E+04  0.20776140268E+04  0.25500000000E-02 0. -1.
         -2   -1    0    0    0  501 -0.00000000000E+00 -0.00000000000E+00 -0.69477381743E+03  0.69477381744E+03  0.25500000000E-02 0.  1.
    8880023    1    1    2    0    0  0.85552756356E+03  0.69594455973E+03  0.65195979028E+03  0.14405304636E+04  0.65864270000E+03 0.  1.
    8880022    1    1    2    0    0 -0.85552756356E+03 -0.69594455973E+03  0.73088041904E+03  0.13318573806E+04  0.15294330000E+03 0. -1.
<mgrwt>
<rscale>  0 0.12394436E+04</rscale>
<asrwt>0</asrwt>
<pdfrwt beam="1">  1        2 0.31963293E+00 0.12845530E+04</pdfrwt>
<pdfrwt beam="2">  1       -2 0.10688828E+00 0.12845530E+04</pdfrwt>
<totfact> 0.41319837E+00</totfact>
</mgrwt>
</event>
<event>
 4    2  0.6387803E-007  0.8929475E+03  0.7818608E-02  0.9537449E-01
          2   -1    0    0  501    0  0.00000000000E+00  0.00000000000E+00  0.11919754873E+04  0.11919754873E+04  0.25500000000E-02 0. -1.
         -2   -1    0    0    0  501 -0.00000000000E+00 -0.00000000000E+00 -0.95990633524E+03  0.95990633524E+03  0.25500000000E-02 0.  1.
    8880023    1    1    2    0    0  0.60236665793E+03 -0.26448091835E+02 -0.62711439107E+03  0.10911589059E+04  0.65864270000E+03 0.  0.
    8880022    1    1    2    0    0 -0.60236665793E+03  0.26448091835E+02  0.85918354312E+03  0.10607229167E+04  0.15294330000E+03 0.  0.
<mgrwt>
<rscale>  0 0.81578263E+03</rscale>
<asrwt>0</asrwt>
<pdfrwt beam="1">  1        2 0.18338084E+00 0.89294753E+03</pdfrwt>
<pdfrwt beam="2">  1       -2 0.14767790E+00 0.89294753E+03</pdfrwt>
<totfact> 0.59976748E+00</totfact>
</mgrwt>
</event>
<event>
 4    2  0.6387803E-007  0.7565135E+03  0.7818608E-02  0.9814219E-01
          2   -1    0    0  501    0  0.00000000000E+00  0.00000000000E+00  0.20154502102E+04  0.20154502103E+04  0.25500000000E-02 0. -1.
         -2   -1    0    0    0  501 -0.00000000000E+00 -0.00000000000E+00 -0.22890974752E+03  0.22890974753E+03  0.25500000000E-02 0.  1.
    8880023    1    1    2    0    0  0.28580296998E+03  0.23836762100E+03  0.52664254838E+03  0.92177277049E+03  0.65864270000E+03 0.  1.
    8880022    1    1    2    0    0 -0.28580296998E+03 -0.23836762100E+03  0.12598979143E+04  0.13225871873E+04  0.15294330000E+03 0.  0.
<mgrwt>
<rscale>  0 0.64605039E+03</rscale>
<asrwt>0</asrwt>
<pdfrwt beam="1">  1        2 0.31006927E+00 0.75651349E+03</pdfrwt>
<pdfrwt beam="2">  1       -2 0.35216883E-01 0.75651349E+03</pdfrwt>
<totfact> 0.51038238E+01</totfact>
</mgrwt>
</event>
<event>
 4    2  0.6387803E-007  0.6686009E+03  0.7818608E-02  0.1016686E+00
          2   -1    0    0  501    0  0.00000000000E+00  0.00000000000E+00  0.30386064605E+03  0.30386064606E+03  0.25500000000E-02 0. -1.
         -2   -1    0    0    0  501 -0.00000000000E+00 -0.00000000000E+00 -0.10792793675E+04  0.10792793675E+04  0.25500000000E-02 0.  1.
    8880023    1    1    2    0    0  0.78523574454E+02  0.83970110439E+02 -0.92425466955E+03  0.11407339004E+04  0.65864270000E+03 0.  1.
    8880022    1    1    2    0    0 -0.78523574454E+02 -0.83970110439E+02  0.14883594813E+03  0.24240611309E+03  0.15294330000E+03 0.  0.
<mgrwt>
<rscale>  0 0.48901601E+03</rscale>
<asrwt>0</asrwt>
<pdfrwt beam="1">  1        2 0.46747792E-01 0.66860088E+03</pdfrwt>
<pdfrwt beam="2">  1       -2 0.16604298E+00 0.66860088E+03</pdfrwt>
<totfact> 0.25114260E+01</totfact>
</mgrwt>
</event>
<event>
 4    2  0.6387803E-007  0.1031320E+04  0.7818608E-02  0.9341682E-01
         -2   -1    0    0    0  501 -0.00000000000E+00  0.00000000000E+00  0.92083607214E+03  0.92083607215E+03  0.25500000000E-02 0.  1.
          2   -1    0    0  501    0  0.00000000000E+00 -0.00000000000E+00 -0.15394523647E+04  0.15394523647E+04  0.25500000000E-02 0. -1.
    8880023    1    1    2    0    0 -0.58674258809E+03  0.53436236375E+03  0.44601755027E+03  0.11236333307E+04  0.65864270000E+03 0.  1.
    8880022    1    1    2    0    0  0.58674258809E+03 -0.53436236375E+03 -0.10646338429E+04  0.13366551062E+04  0.15294330000E+03 0. -1.
<mgrwt>
<rscale>  0 0.97034434E+03</rscale>
<asrwt>0</asrwt>
<pdfrwt beam="1">  1        2 0.23683882E+00 0.10313196E+04</pdfrwt>
<pdfrwt beam="2">  1       -2 0.14166709E+00 0.10313196E+04</pdfrwt>
<totfact> 0.41565235E+00</totfact>
</mgrwt>
</event>
<event>
 4    2  0.6387803E-007  0.6699763E+03  0.7818608E-02  0.1015680E+00
         -2   -1    0    0    0  501 -0.00000000000E+00  0.00000000000E+00  0.29464834458E+03  0.29464834460E+03  0.25500000000E-02 0.  1.
          2   -1    0    0  501    0  0.00000000000E+00 -0.00000000000E+00 -0.64412164445E+03  0.64412164446E+03  0.25500000000E-02 0. -1.
    8880023    1    1    2    0    0  0.87938789469E+01 -0.12239556179E+03 -0.22609312863E+03  0.70709710431E+03  0.65864270000E+03 0.  1.
    8880022    1    1    2    0    0 -0.87938789469E+01  0.12239556179E+03 -0.12338017125E+03  0.23167288474E+03  0.15294330000E+03 0.  1.
<mgrwt>
<rscale>  0 0.49278347E+03</rscale>
<asrwt>0</asrwt>
<pdfrwt beam="1">  1        2 0.99095637E-01 0.66997628E+03</pdfrwt>
<pdfrwt beam="2">  1       -2 0.45330515E-01 0.66997628E+03</pdfrwt>
<totfact> 0.21257574E+02</totfact>
</mgrwt>
</event>
<event>
 4    2  0.6387803E-007  0.7371559E+03  0.7818608E-02  0.9868310E-01
          2   -1    0    0  501    0  0.00000000000E+00  0.00000000000E+00  0.59121033719E+03  0.59121033720E+03  0.25500000000E-02 0. -1.
         -2   -1    0    0    0  501 -0.00000000000E+00 -0.00000000000E+00 -0.60804442895E+03  0.60804442896E+03  0.25500000000E-02 0.  1.
    8880023    1    1    2    0    0 -0.30789283929E+03  0.12161677925E+03 -0.23573794063E+03  0.77393231254E+03  0.65864270000E+03 0.  1.
    8880022    1    1    2    0    0  0.30789283929E+03 -0.12161677925E+03  0.21890384887E+03  0.42532245361E+03  0.15294330000E+03 0.  0.
<mgrwt>
<rscale>  0 0.61821983E+03</rscale>
<asrwt>0</asrwt>
<pdfrwt beam="1">  1        2 0.90955436E-01 0.73715592E+03</pdfrwt>
<pdfrwt beam="2">  1       -2 0.93545297E-01 0.73715592E+03</pdfrwt>
<totfact> 0.49425946E+01</totfact>
</mgrwt>
</event>
<event>
 4    2  0.6387803E-007  0.7947245E+03  0.7818608E-02  0.9722321E-01
          2   -1    0    0  501    0  0.00000000000E+00  0.00000000000E+00  0.12938209222E+04  0.12938209222E+04  0.25500000000E-02 0. -1.
         -2   -1    0    0    0  501 -0.00000000000E+00 -0.00000000000E+00 -0.43793782203E+03  0.43793782203E+03  0.25500000000E-02 0.  1.
    8880023    1    1    2    0    0  0.37612780839E+03 -0.23728598808E+03  0.47018185326E+02  0.79611411519E+03  0.65864270000E+03 0.  0.
    8880022    1    1    2    0    0 -0.37612780839E+03  0.23728598808E+03  0.80886491484E+03  0.93564462904E+03  0.15294330000E+03 0.  1.
<mgrwt>
<rscale>  0 0.69703218E+03</rscale>
<asrwt>0</asrwt>
<pdfrwt beam="1">  1        2 0.19904937E+00 0.79472446E+03</pdfrwt>
<pdfrwt beam="2">  1       -2 0.67375050E-01 0.79472446E+03</pdfrwt>
<totfact> 0.34187244E+01</totfact>
</mgrwt>
</event>
<event>
 4    2  0.6387803E-007  0.8868478E+03  0.7818608E-02  0.9547484E-01
         -2   -1    0    0    0  501 -0.00000000000E+00  0.00000000000E+00  0.77513070791E+03  0.77513070791E+03  0.25500000000E-02 0.  1.
          2   -1    0    0  501    0  0.00000000000E+00 -0.00000000000E+00 -0.19650929818E+04  0.19650929818E+04  0.25500000000E-02 0. -1.
    8880023    1    1    2    0    0  0.10284747820E+03  0.58490279369E+03 -0.17164194693E+04  0.19319924645E+04  0.65864270000E+03 0. -1.
    8880022    1    1    2    0    0 -0.10284747820E+03 -0.58490279369E+03  0.52645719542E+03  0.80823122525E+03  0.15294330000E+03 0.  0.
<mgrwt>
<rscale>  0 0.80871769E+03</rscale>
<asrwt>0</asrwt>
<pdfrwt beam="1">  1        2 0.30232199E+00 0.88684784E+03</pdfrwt>
<pdfrwt beam="2">  1       -2 0.11925088E+00 0.88684784E+03</pdfrwt>
<totfact> 0.38200879E+00</totfact>
</mgrwt>
</event>
<event>
 4    2  0.6387803E-007  0.7222105E+03  0.7818608E-02  0.9915176E-01
         -2   -1    0    0    0  501 -0.00000000000E+00  0.00000000000E+00  0.22748401795E+03  0.22748401796E+03  0.25500000000E-02 0.  1.
          2   -1    0    0  501    0  0.00000000000E+00 -0.00000000000E+00 -0.13576158704E+04  0.13576158704E+04  0.25500000000E-02 0. -1.
    8880023    1    1    2    0    0  0.28922837982E+03 -0.64224097770E+02 -0.52043936694E+03  0.89019387290E+03  0.65864270000E+03 0.  1.
    8880022    1    1    2    0    0 -0.28922837982E+03  0.64224097770E+02 -0.60969248554E+03  0.69490601549E+03  0.15294330000E+03 0.  0.
<mgrwt>
<rscale>  0 0.59531390E+03</rscale>
<asrwt>0</asrwt>
<pdfrwt beam="1">  1        2 0.20886398E+00 0.72221049E+03</pdfrwt>
<pdfrwt beam="2">  1       -2 0.34997542E-01 0.72221049E+03</pdfrwt>
<totfact> 0.11938081E+02</totfact>
</mgrwt>
</event>
<event>
 4    2  0.6387803E-007  0.9265289E+03  0.7818608E-02  0.9484720E-01
         -2   -1    0    0    0  501 -0.00000000000E+00  0.00000000000E+00  0.52461590456E+03  0.52461590457E+03  0.25500000000E-02 0.  1.
          2   -1    0    0  501    0  0.00000000000E+00 -0.00000000000E+00 -0.13699357377E+04  0.13699357377E+04  0.25500000000E-02 0. -1.
    8880023    1    1    2    0    0  0.56569804156E+03 -0.32346769809E+03 -0.16677356291E+03  0.94141874503E+03  0.65864270000E+03 0.  0.
    8880022    1    1    2    0    0 -0.56569804156E+03  0.32346769809E+03 -0.67854627020E+03  0.95313289721E+03  0.15294330000E+03 0.  0.
<mgrwt>
<rscale>  0 0.85419791E+03</rscale>
<asrwt>0</asrwt>
<pdfrwt beam="1">  1        2 0.21075934E+00 0.92652892E+03</pdfrwt>
<pdfrwt beam="2">  1       -2 0.80710140E-01 0.92652892E+03</pdfrwt>
<totfact> 0.20464362E+01</totfact>
</mgrwt>
</event>
<event>
 4    2  0.6387803E-007  0.6590235E+03  0.7818608E-02  0.1025180E+00
          2   -1    0    0  501    0  0.00000000000E+00  0.00000000000E+00  0.94617235430E+03  0.94617235431E+03  0.25500000000E-02 0. -1.
         -2   -1    0    0    0  501 -0.00000000000E+00 -0.00000000000E+00 -0.18686654573E+03  0.18686654575E+03  0.25500000000E-02 0.  1.
    8880023    1    1    2    0    0 -0.21136044706E+02 -0.74229106638E+01  0.48526619530E+03  0.81841023854E+03  0.65864270000E+03 0.  1.
    8880022    1    1    2    0    0  0.21136044706E+02  0.74229106638E+01  0.27403961327E+03  0.31462866152E+03  0.15294330000E+03 0.  0.
<mgrwt>
<rscale>  0 0.45862808E+03</rscale>
<asrwt>0</asrwt>
<pdfrwt beam="1">  1        2 0.14556498E+00 0.65902355E+03</pdfrwt>
<pdfrwt beam="2">  1       -2 0.28748700E-01 0.65902355E+03</pdfrwt>
<totfact> 0.30674821E+02</totfact>
</mgrwt>
</event>
<event>
 4    2  0.6387803E-007  0.6706442E+03  0.7818608E-02  0.1015205E+00
          2   -1    0    0  501    0  0.00000000000E+00  0.00000000000E+00  0.26299833433E+04  0.26299833433E+04  0.25500000000E-02 0. -1.
         -2   -1    0    0    0  501 -0.00000000000E+00 -0.00000000000E+00 -0.89456638969E+02  0.89456639005E+02  0.25500000000E-02 0.  1.
    8880023    1    1    2    0    0 -0.55799430242E+02 -0.11331330339E+03  0.12963449474E+04  0.14595457889E+04  0.65864270000E+03 0.  1.
    8880022    1    1    2    0    0  0.55799430242E+02  0.11331330339E+03  0.12441817569E+04  0.12598941933E+04  0.15294330000E+03 0.  0.
<mgrwt>
<rscale>  0 0.49457314E+03</rscale>
<asrwt>0</asrwt>
<pdfrwt beam="1">  1        2 0.40461275E+00 0.67064423E+03</pdfrwt>
<pdfrwt beam="2">  1       -2 0.13762562E-01 0.67064423E+03</pdfrwt>
<totfact> 0.12453432E+02</totfact>
</mgrwt>
</event>
<event>
 4    2  0.6387803E-007  0.7221780E+03  0.7818608E-02  0.9915284E-01
         -2   -1    0    0    0  501 -0.00000000000E+00  0.00000000000E+00  0.37593154682E+03  0.37593154683E+03  0.25500000000E-02 0.  1.
          2   -1    0    0  501    0  0.00000000000E+00 -0.00000000000E+00 -0.27167813733E+04  0.27167813733E+04  0.25500000000E-02 0. -1.
    8880023    1    1    2    0    0 -0.27065929663E+03 -0.12030977598E+03  0.61036969407E+01  0.72220382056E+03  0.65864270000E+03 0.  1.
    8880022    1    1    2    0    0  0.27065929663E+03  0.12030977598E+03 -0.23469535234E+04  0.23705090996E+04  0.15294330000E+03 0.  0.
<mgrwt>
<rscale>  0 0.59526244E+03</rscale>
<asrwt>0</asrwt>
<pdfrwt beam="1">  1        2 0.41796635E+00 0.72217803E+03</pdfrwt>
<pdfrwt beam="2">  1       -2 0.57835624E-01 0.72217803E+03</pdfrwt>
<totfact> 0.77047272E+00</totfact>
</mgrwt>
</event>
<event>
 4    2  0.6387803E-007  0.9474646E+03  0.7818608E-02  0.9453771E-01
          2   -1    0    0  501    0  0.00000000000E+00  0.00000000000E+00  0.41225890631E+03  0.41225890632E+03  0.25500000000E-02 0. -1.
         -2   -1    0    0    0  501 -0.00000000000E+00 -0.00000000000E+00 -0.26586666115E+04  0.26586666115E+04  0.25500000000E-02 0.  1.
    8880023    1    1    2    0    0  0.34887385294E+03 -0.58494954730E+03 -0.28560473961E+03  0.98957526834E+03  0.65864270000E+03 0. -1.
    8880022    1    1    2    0    0 -0.34887385294E+03  0.58494954730E+03 -0.19608029656E+04  0.20813502495E+04  0.15294330000E+03 0.  0.
<mgrwt>
<rscale>  0 0.87779583E+03</rscale>
<asrwt>0</asrwt>
<pdfrwt beam="1">  1        2 0.63424449E-01 0.94746459E+03</pdfrwt>
<pdfrwt beam="2">  1       -2 0.40902562E+00 0.94746459E+03</pdfrwt>
<totfact> 0.51247171E-01</totfact>
</mgrwt>
</event>
<event>
 4    2  0.6387803E-007  0.7944476E+03  0.7818608E-02  0.9722933E-01
         -2   -1    0    0    0  501 -0.00000000000E+00  0.00000000000E+00  0.30050835363E+03  0.30050835364E+03  0.25500000000E-02 0.  1.
          2   -1    0    0  501    0  0.00000000000E+00 -0.00000000000E+00 -0.13467809516E+04  0.13467809516E+04  0.25500000000E-02 0. -1.
    8880023    1    1    2    0    0  0.15780991720E+03  0.41525029706E+03 -0.74540077380E+03  0.10893894157E+04  0.65864270000E+03 0.  1.
    8880022    1    1    2    0    0 -0.15780991720E+03 -0.41525029706E+03 -0.30087182417E+03  0.55789988955E+03  0.15294330000E+03 0. -1.
<mgrwt>
<rscale>  0 0.69667661E+03</rscale>
<asrwt>0</asrwt>
<pdfrwt beam="1">  1        2 0.20719707E+00 0.79444760E+03</pdfrwt>
<pdfrwt beam="2">  1       -2 0.46232055E-01 0.79444760E+03</pdfrwt>
<totfact> 0.69863206E+01</totfact>
</mgrwt>
</event>
<event>
 4    2  0.6387803E-007  0.6969252E+03  0.7818608E-02  0.1001020E+00
          2   -1    0    0  501    0  0.00000000000E+00  0.00000000000E+00  0.13185262947E+04  0.13185262947E+04  0.25500000000E-02 0. -1.
         -2   -1    0    0    0  501 -0.00000000000E+00 -0.00000000000E+00 -0.61515139034E+03  0.61515139035E+03  0.25500000000E-02 0.  1.
    8880023    1    1    2    0    0  0.34056424876E+02  0.22524372999E+03 -0.39532072887E+03  0.80123858052E+03  0.65864270000E+03 0.  1.
    8880022    1    1    2    0    0 -0.34056424876E+02 -0.22524372999E+03  0.10986956333E+04  0.11324391046E+04  0.15294330000E+03 0.  0.
<mgrwt>
<rscale>  0 0.55205086E+03</rscale>
<asrwt>0</asrwt>
<pdfrwt beam="1">  1        2 0.20285020E+00 0.69692524E+03</pdfrwt>
<pdfrwt beam="2">  1       -2 0.94638676E-01 0.69692524E+03</pdfrwt>
<totfact> 0.15587812E+01</totfact>
</mgrwt>
</event>
<event>
 4    2  0.6387803E-007  0.9991304E+03  0.7818608E-02  0.9382696E-01
          2   -1    0    0  501    0  0.00000000000E+00  0.00000000000E+00  0.10593059869E+04  0.10593059869E+04  0.25500000000E-02 0. -1.
         -2   -1    0    0    0  501 -0.00000000000E+00 -0.00000000000E+00 -0.11892287697E+04  0.11892287698E+04  0.25500000000E-02 0.  1.
    8880023    1    1    2    0    0 -0.26129426699E+03  0.70439806022E+03 -0.76065313305E+03  0.12557287590E+04  0.65864270000E+03 0.  0.
    8880022    1    1    2    0    0  0.26129426699E+03 -0.70439806022E+03  0.63073035019E+03  0.99280599760E+03  0.15294330000E+03 0.  0.
<mgrwt>
<rscale>  0 0.93513496E+03</rscale>
<asrwt>0</asrwt>
<pdfrwt beam="1">  1        2 0.16297015E+00 0.99913039E+03</pdfrwt>
<pdfrwt beam="2">  1       -2 0.18295827E+00 0.99913039E+03</pdfrwt>
<totfact> 0.39619138E+00</totfact>
</mgrwt>
</event>
<event>
 4    2  0.6387803E-007  0.1134155E+04  0.7818608E-02  0.9223949E-01
         -2   -1    0    0    0  501 -0.00000000000E+00  0.00000000000E+00  0.73903842737E+03  0.73903842737E+03  0.25500000000E-02 0.  1.
          2   -1    0    0  501    0  0.00000000000E+00 -0.00000000000E+00 -0.17033500799E+04  0.17033500799E+04  0.25500000000E-02 0. -1.
    8880023    1    1    2    0    0  0.56804344057E+03 -0.72788936204E+03 -0.51906335828E+02  0.11353416876E+04  0.65864270000E+03 0.  0.
    8880022    1    1    2    0    0 -0.56804344057E+03  0.72788936204E+03 -0.91240531672E+03  0.13070468196E+04  0.15294330000E+03 0.  1.
<mgrwt>
<rscale>  0 0.10809615E+04</rscale>
<asrwt>0</asrwt>
<pdfrwt beam="1">  1        2 0.26205386E+00 0.11341545E+04</pdfrwt>
<pdfrwt beam="2">  1       -2 0.11369822E+00 0.11341545E+04</pdfrwt>
<totfact> 0.58142232E+00</totfact>
</mgrwt>
</event>
<event>
 4    2  0.6387803E-007  0.8892802E+03  0.7818608E-02  0.9543464E-01
          2   -1    0    0  501    0  0.00000000000E+00  0.00000000000E+00  0.14094071525E+04  0.14094071525E+04  0.25500000000E-02 0. -1.
         -2   -1    0    0    0  501 -0.00000000000E+00 -0.00000000000E+00 -0.49840775148E+03  0.49840775148E+03  0.25500000000E-02 0.  1.
    8880023    1    1    2    0    0 -0.48431520960E+03 -0.34992546813E+03  0.10878180715E+03  0.89590889232E+03  0.65864270000E+03 0.  0.
    8880022    1    1    2    0    0  0.48431520960E+03  0.34992546813E+03  0.80221759384E+03  0.10119060116E+04  0.15294330000E+03 0.  0.
<mgrwt>
<rscale>  0 0.81153850E+03</rscale>
<asrwt>0</asrwt>
<pdfrwt beam="1">  1        2 0.21683187E+00 0.88928019E+03</pdfrwt>
<pdfrwt beam="2">  1       -2 0.76678116E-01 0.88928019E+03</pdfrwt>
<totfact> 0.21879904E+01</totfact>
</mgrwt>
</event>
<event>
 4    2  0.6387803E-007  0.8228720E+03  0.7818608E-02  0.9663364E-01
          2   -1    0    0  501    0  0.00000000000E+00  0.00000000000E+00  0.23666566982E+04  0.23666566982E+04  0.25500000000E-02 0. -1.
         -2   -1    0    0    0  501 -0.00000000000E+00 -0.00000000000E+00 -0.30538237808E+03  0.30538237809E+03  0.25500000000E-02 0.  1.
    8880023    1    1    2    0    0 -0.23529492851E+03 -0.43352552503E+03  0.36735897326E+03  0.90114976876E+03  0.65864270000E+03 0.  1.
    8880022    1    1    2    0    0  0.23529492851E+03  0.43352552503E+03  0.16939153469E+04  0.17708893076E+04  0.15294330000E+03 0.  0.
<mgrwt>
<rscale>  0 0.73240623E+03</rscale>
<asrwt>0</asrwt>
<pdfrwt beam="1">  1        2 0.36410102E+00 0.82287198E+03</pdfrwt>
<pdfrwt beam="2">  1       -2 0.46981905E-01 0.82287198E+03</pdfrwt>
<totfact> 0.18410021E+01</totfact>
</mgrwt>
</event>
<event>
 4    2  0.6387803E-007  0.7716102E+03  0.7818608E-02  0.9775927E-01
         -2   -1    0    0    0  501 -0.00000000000E+00  0.00000000000E+00  0.78027222922E+03  0.78027222922E+03  0.25500000000E-02 0.  1.
          2   -1    0    0  501    0  0.00000000000E+00 -0.00000000000E+00 -0.10865656903E+04  0.10865656903E+04  0.25500000000E-02 0. -1.
    8880023    1    1    2    0    0 -0.55782514883E+02 -0.39807091872E+03  0.52334798659E+03  0.93234943376E+03  0.65864270000E+03 0.  1.
    8880022    1    1    2    0    0  0.55782514883E+02  0.39807091872E+03 -0.82964144764E+03  0.93448848572E+03  0.15294330000E+03 0.  0.
<mgrwt>
<rscale>  0 0.66670594E+03</rscale>
<asrwt>0</asrwt>
<pdfrwt beam="1">  1        2 0.16716395E+00 0.77161023E+03</pdfrwt>
<pdfrwt beam="2">  1       -2 0.12004188E+00 0.77161023E+03</pdfrwt>
<totfact> 0.11965300E+01</totfact>
</mgrwt>
</event>
<event>
 4    2  0.6387803E-007  0.8476657E+03  0.7818608E-02  0.9615892E-01
          2   -1    0    0  501    0  0.00000000000E+00  0.00000000000E+00  0.17404226260E+04  0.17404226260E+04  0.25500000000E-02 0. -1.
         -2   -1    0    0    0  501 -0.00000000000E+00 -0.00000000000E+00 -0.44220390245E+03  0.44220390245E+03  0.25500000000E-02 0.  1.
    8880023    1    1    2    0    0  0.45508208718E+03 -0.27861656139E+03  0.89292828553E+02  0.85235574137E+03  0.65864270000E+03 0.  1.
    8880022    1    1    2    0    0 -0.45508208718E+03  0.27861656139E+03  0.12089258950E+04  0.13302707871E+04  0.15294330000E+03 0.  0.
<mgrwt>
<rscale>  0 0.76253219E+03</rscale>
<asrwt>0</asrwt>
<pdfrwt beam="1">  1        2 0.26775733E+00 0.84766568E+03</pdfrwt>
<pdfrwt beam="2">  1       -2 0.68031369E-01 0.84766568E+03</pdfrwt>
<totfact> 0.18722146E+01</totfact>
</mgrwt>
</event>
<event>
 4    2  0.6387803E-007  0.8227724E+03  0.7818608E-02  0.9663562E-01
          2   -1    0    0  501    0  0.00000000000E+00  0.00000000000E+00  0.17613639315E+04  0.17613639315E+04  0.25500000000E-02 0. -1.
         -2   -1    0    0    0  501 -0.00000000000E+00 -0.00000000000E+00 -0.28467311852E+03  0.28467311853E+03  0.25500000000E-02 0.  1.
    8880023    1    1    2    0    0 -0.48769164011E+03 -0.72808270585E+02  0.12146222961E+04  0.14670588633E+04  0.65864270000E+03 0.  0.
    8880022    1    1    2    0    0  0.48769164011E+03  0.72808270585E+02  0.26206851687E+03  0.57897818667E+03  0.15294330000E+03 0.  0.
<mgrwt>
<rscale>  0 0.73228347E+03</rscale>
<asrwt>0</asrwt>
<pdfrwt beam="1">  1        2 0.27097906E+00 0.82277238E+03</pdfrwt>
<pdfrwt beam="2">  1       -2 0.43795865E-01 0.82277238E+03</pdfrwt>
<totfact> 0.45630412E+01</totfact>
</mgrwt>
</event>
<event>
 4    2  0.6387803E-007  0.1052222E+04  0.7818608E-02  0.9316215E-01
          2   -1    0    0  501    0  0.00000000000E+00  0.00000000000E+00  0.24479393439E+04  0.24479393439E+04  0.25500000000E-02 0. -1.
         -2   -1    0    0    0  501 -0.00000000000E+00 -0.00000000000E+00 -0.10829959585E+04  0.10829959585E+04  0.25500000000E-02 0.  1.
    8880023    1    1    2    0    0 -0.82051506287E+03  0.10729435532E+02 -0.72677508536E+03  0.12788167657E+04  0.65864270000E+03 0.  0.
    8880022    1    1    2    0    0  0.82051506287E+03 -0.10729435532E+02  0.20917184708E+04  0.22521185367E+04  0.15294330000E+03 0.  0.
<mgrwt>
<rscale>  0 0.99303640E+03</rscale>
<asrwt>0</asrwt>
<pdfrwt beam="1">  1        2 0.37660605E+00 0.10522216E+04</pdfrwt>
<pdfrwt beam="2">  1       -2 0.16661476E+00 0.10522216E+04</pdfrwt>
<totfact> 0.83794513E-01</totfact>
</mgrwt>
</event>
<event>
 4    2  0.6387803E-007  0.7709182E+03  0.7818608E-02  0.9777620E-01
         -2   -1    0    0    0  501 -0.00000000000E+00  0.00000000000E+00  0.22398774796E+03  0.22398774798E+03  0.25500000000E-02 0.  1.
          2   -1    0    0  501    0  0.00000000000E+00 -0.00000000000E+00 -0.25422719674E+04  0.25422719674E+04  0.25500000000E-02 0. -1.
    8880023    1    1    2    0    0 -0.10064312314E+03 -0.38778290057E+03 -0.55072477433E+03  0.94742419198E+03  0.65864270000E+03 0.  0.
    8880022    1    1    2    0    0  0.10064312314E+03  0.38778290057E+03 -0.17675594451E+04  0.18188355234E+04  0.15294330000E+03 0.  0.
<mgrwt>
<rscale>  0 0.66577552E+03</rscale>
<asrwt>0</asrwt>
<pdfrwt beam="1">  1        2 0.39111874E+00 0.77091817E+03</pdfrwt>
<pdfrwt beam="2">  1       -2 0.34459655E-01 0.77091817E+03</pdfrwt>
<totfact> 0.27048485E+01</totfact>
</mgrwt>
</event>
<event>
 4    2  0.6561062E-007  0.7177778E+03  0.7818608E-02  0.9930178E-01
         -2   -1    0    0    0  501 -0.00000000000E+00  0.00000000000E+00  0.14835126600E+04  0.14835126600E+04  0.25500000000E-02 0.  1.
          2   -1    0    0  501    0  0.00000000000E+00 -0.00000000000E+00 -0.14267839420E+04  0.14267839420E+04  0.25500000000E-02 0. -1.
    8880023    1    1    2    0    0 -0.26985288872E+03 -0.92597108629E+02  0.13759631725E+04  0.15519277253E+04  0.65864270000E+03 0.  0.
    8880022    1    1    2    0    0  0.26985288872E+03  0.92597108629E+02 -0.13192344545E+04  0.13583688767E+04  0.15294330000E+03 0.  0.
<mgrwt>
<rscale>  0 0.58820766E+03</rscale>
<asrwt>0</asrwt>
<pdfrwt beam="1">  1        2 0.21950522E+00 0.71777783E+03</pdfrwt>
<pdfrwt beam="2">  1       -2 0.22823272E+00 0.71777783E+03</pdfrwt>
<totfact> 0.12772823E+00</totfact>
</mgrwt>
</event>
<event>
 4    2  0.6387803E-007  0.6882360E+03  0.7818608E-02  0.1005002E+00
         -2   -1    0    0    0  501 -0.00000000000E+00  0.00000000000E+00  0.22507304420E+03  0.22507304421E+03  0.25500000000E-02 0.  1.
          2   -1    0    0  501    0  0.00000000000E+00 -0.00000000000E+00 -0.11795099529E+04  0.11795099529E+04  0.25500000000E-02 0. -1.
    8880023    1    1    2    0    0  0.10642546451E+03 -0.16891497784E+03 -0.40064001186E+03  0.79635499283E+03  0.65864270000E+03 0.  1.
    8880022    1    1    2    0    0 -0.10642546451E+03  0.16891497784E+03 -0.55379689687E+03  0.60822800432E+03  0.15294330000E+03 0.  0.
<mgrwt>
<rscale>  0 0.53510115E+03</rscale>
<asrwt>0</asrwt>
<pdfrwt beam="1">  1        2 0.18146306E+00 0.68823605E+03</pdfrwt>
<pdfrwt beam="2">  1       -2 0.34626623E-01 0.68823605E+03</pdfrwt>
<totfact> 0.15498640E+02</totfact>
</mgrwt>
</event>
<event>
 4    2  0.6387803E-007  0.7643072E+03  0.7818608E-02  0.9794082E-01
         -2   -1    0    0    0  501 -0.00000000000E+00  0.00000000000E+00  0.37573295011E+03  0.37573295012E+03  0.25500000000E-02 0.  1.
          2   -1    0    0  501    0  0.00000000000E+00 -0.00000000000E+00 -0.12722656186E+04  0.12722656186E+04  0.25500000000E-02 0. -1.
    8880023    1    1    2    0    0  0.47526796640E+02  0.38483303490E+03 -0.12974916600E+03  0.77524209992E+03  0.65864270000E+03 0.  1.
    8880022    1    1    2    0    0 -0.47526796640E+02 -0.38483303490E+03 -0.76678350251E+03  0.87275646883E+03  0.15294330000E+03 0. -1.
<mgrwt>
<rscale>  0 0.65681126E+03</rscale>
<asrwt>0</asrwt>
<pdfrwt beam="1">  1        2 0.19573317E+00 0.76430718E+03</pdfrwt>
<pdfrwt beam="2">  1       -2 0.57805070E-01 0.76430718E+03</pdfrwt>
<totfact> 0.48912219E+01</totfact>
</mgrwt>
</event>
<event>
 4    2  0.6387803E-007  0.8079259E+03  0.7818608E-02  0.9693913E-01
          2   -1    0    0  501    0  0.00000000000E+00  0.00000000000E+00  0.14118258877E+04  0.14118258877E+04  0.25500000000E-02 0. -1.
         -2   -1    0    0    0  501 -0.00000000000E+00 -0.00000000000E+00 -0.33193440533E+03  0.33193440534E+03  0.25500000000E-02 0.  1.
    8880023    1    1    2    0    0  0.21424227309E+03  0.41597395946E+03  0.92399151293E+03  0.12273974942E+04  0.65864270000E+03 0.  0.
    8880022    1    1    2    0    0 -0.21424227309E+03 -0.41597395946E+03  0.15589996942E+03  0.51636279882E+03  0.15294330000E+03 0.  0.
<mgrwt>
<rscale>  0 0.71380338E+03</rscale>
<asrwt>0</asrwt>
<pdfrwt beam="1">  1        2 0.21720398E+00 0.80792592E+03</pdfrwt>
<pdfrwt beam="2">  1       -2 0.51066831E-01 0.80792592E+03</pdfrwt>
<totfact> 0.52385183E+01</totfact>
</mgrwt>
</event>
<event>
 4    2  0.6387803E-007  0.6887961E+03  0.7818608E-02  0.1004730E+00
          2   -1    0    0  501    0  0.00000000000E+00  0.00000000000E+00  0.46233321783E+03  0.46233321784E+03  0.25500000000E-02 0. -1.
         -2   -1    0    0    0  501 -0.00000000000E+00 -0.00000000000E+00 -0.11296978565E+04  0.11296978565E+04  0.25500000000E-02 0.  1.
    8880023    1    1    2    0    0  0.84317242040E+02  0.18308584297E+03 -0.97496694576E+03  0.11937338794E+04  0.65864270000E+03 0.  1.
    8880022    1    1    2    0    0 -0.84317242040E+02 -0.18308584297E+03  0.30760230707E+03  0.39829719498E+03  0.15294330000E+03 0.  0.
<mgrwt>
<rscale>  0 0.53623938E+03</rscale>
<asrwt>0</asrwt>
<pdfrwt beam="1">  1        2 0.71128188E-01 0.68879607E+03</pdfrwt>
<pdfrwt beam="2">  1       -2 0.17379967E+00 0.68879607E+03</pdfrwt>
<totfact> 0.13801440E+01</totfact>
</mgrwt>
</event>
<event>
 4    2  0.6387803E-007  0.7116933E+03  0.7818608E-02  0.9951766E-01
         -2   -1    0    0    0  501 -0.00000000000E+00  0.00000000000E+00  0.17540540833E+03  0.17540540835E+03  0.25500000000E-02 0.  1.
          2   -1    0    0  501    0  0.00000000000E+00 -0.00000000000E+00 -0.28106268634E+04  0.28106268634E+04  0.25500000000E-02 0. -1.
    8880023    1    1    2    0    0 -0.85589841046E+01 -0.26948826937E+03 -0.61034206537E+03  0.93756323870E+03  0.65864270000E+03 0.  0.
    8880022    1    1    2    0    0  0.85589841046E+01  0.26948826937E+03 -0.20248793897E+04  0.20484690330E+04  0.15294330000E+03 0.  0.
<mgrwt>
<rscale>  0 0.57816765E+03</rscale>
<asrwt>0</asrwt>
<pdfrwt beam="1">  1        2 0.43240410E+00 0.71169333E+03</pdfrwt>
<pdfrwt beam="2">  1       -2 0.26985450E-01 0.71169333E+03</pdfrwt>
<totfact> 0.30056225E+01</totfact>
</mgrwt>
</event>
<event>
 4    2  0.6387803E-007  0.6944788E+03  0.7818608E-02  0.1002092E+00
          2   -1    0    0  501    0  0.00000000000E+00  0.00000000000E+00  0.69757642606E+03  0.69757642606E+03  0.25500000000E-02 0. -1.
         -2   -1    0    0    0  501 -0.00000000000E+00 -0.00000000000E+00 -0.91451891564E+03  0.91451891564E+03  0.25500000000E-02 0.  1.
    8880023    1    1    2    0    0 -0.92918699342E+02 -0.19964148057E+03 -0.74585085129E+03  0.10191144706E+04  0.65864270000E+03 0.  1.
    8880022    1    1    2    0    0  0.92918699342E+02  0.19964148057E+03  0.52890836171E+03  0.59298087116E+03  0.15294330000E+03 0.  0.
<mgrwt>
<rscale>  0 0.54742164E+03</rscale>
<asrwt>0</asrwt>
<pdfrwt beam="1">  1        2 0.10731945E+00 0.69447881E+03</pdfrwt>
<pdfrwt beam="2">  1       -2 0.14069522E+00 0.69447881E+03</pdfrwt>
<totfact> 0.14890894E+01</totfact>
</mgrwt>
</event>
<event>
 4    2  0.6387803E-007  0.8024838E+03  0.7818608E-02  0.9705451E-01
          2   -1    0    0  501    0  0.00000000000E+00  0.00000000000E+00  0.17341131230E+04  0.17341131230E+04  0.25500000000E-02 0. -1.
         -2   -1    0    0    0  501 -0.00000000000E+00 -0.00000000000E+00 -0.67289184613E+03  0.67289184613E+03  0.25500000000E-02 0.  1.
    8880023    1    1    2    0    0  0.76065332451E+02 -0.45208854094E+03 -0.37927672826E+03  0.88759846018E+03  0.65864270000E+03 0.  1.
    8880022    1    1    2    0    0 -0.76065332451E+02  0.45208854094E+03  0.14404980051E+04  0.15194065090E+04  0.15294330000E+03 0.  0.
<mgrwt>
<rscale>  0 0.70693157E+03</rscale>
<asrwt>0</asrwt>
<pdfrwt beam="1">  1        2 0.26678663E+00 0.80248376E+03</pdfrwt>
<pdfrwt beam="2">  1       -2 0.10352182E+00 0.80248376E+03</pdfrwt>
<totfact> 0.72956026E+00</totfact>
</mgrwt>
</event>
<event>
 4    2  0.6387803E-007  0.1134568E+04  0.7818608E-02  0.9223511E-01
          2   -1    0    0  501    0  0.00000000000E+00  0.00000000000E+00  0.14774735119E+04  0.14774735119E+04  0.25500000000E-02 0. -1.
         -2   -1    0    0    0  501 -0.00000000000E+00 -0.00000000000E+00 -0.10680604062E+04  0.10680604062E+04  0.25500000000E-02 0.  1.
    8880023    1    1    2    0    0 -0.58617449653E+03  0.71402584428E+03 -0.50032610802E+03  0.12399878497E+04  0.65864270000E+03 0.  1.
    8880022    1    1    2    0    0  0.58617449653E+03 -0.71402584428E+03  0.90973921370E+03  0.13055460684E+04  0.15294330000E+03 0.  0.
<mgrwt>
<rscale>  0 0.10814013E+04</rscale>
<asrwt>0</asrwt>
<pdfrwt beam="1">  1        2 0.22730362E+00 0.11345676E+04</pdfrwt>
<pdfrwt beam="2">  1       -2 0.16431699E+00 0.11345676E+04</pdfrwt>
<totfact> 0.29926389E+00</totfact>
</mgrwt>
</event>
<event>
 4    2  0.6387803E-007  0.1024220E+04  0.7818608E-02  0.9350535E-01
          2   -1    0    0  501    0  0.00000000000E+00  0.00000000000E+00  0.24360679736E+04  0.24360679736E+04  0.25500000000E-02 0. -1.
         -2   -1    0    0    0  501 -0.00000000000E+00 -0.00000000000E+00 -0.66290483475E+03  0.66290483475E+03  0.25500000000E-02 0.  1.
    8880023    1    1    2    0    0  0.55744435800E+01 -0.78433710572E+03 -0.13229219452E+03  0.10327280382E+04  0.65864270000E+03 0.  1.
    8880022    1    1    2    0    0 -0.55744435800E+01  0.78433710572E+03  0.19054553333E+04  0.20662447701E+04  0.15294330000E+03 0.  0.
<mgrwt>
<rscale>  0 0.96260716E+03</rscale>
<asrwt>0</asrwt>
<pdfrwt beam="1">  1        2 0.37477968E+00 0.10242197E+04</pdfrwt>
<pdfrwt beam="2">  1       -2 0.10198536E+00 0.10242197E+04</pdfrwt>
<totfact> 0.29991917E+00</totfact>
</mgrwt>
</event>
<event>
 4    2  0.6387803E-007  0.7347278E+03  0.7818608E-02  0.9875579E-01
          2   -1    0    0  501    0  0.00000000000E+00  0.00000000000E+00  0.64716093601E+03  0.64716093601E+03  0.25500000000E-02 0. -1.
         -2   -1    0    0    0  501 -0.00000000000E+00 -0.00000000000E+00 -0.10569954173E+04  0.10569954173E+04  0.25500000000E-02 0.  1.
    8880023    1    1    2    0    0  0.19085289917E+03  0.26379904628E+03 -0.85792081215E+03  0.11295366714E+04  0.65864270000E+03 0.  0.
    8880022    1    1    2    0    0 -0.19085289917E+03 -0.26379904628E+03  0.44808633083E+03  0.57461968190E+03  0.15294330000E+03 0.  0.
<mgrwt>
<rscale>  0 0.61459545E+03</rscale>
<asrwt>0</asrwt>
<pdfrwt beam="1">  1        2 0.99563221E-01 0.73472782E+03</pdfrwt>
<pdfrwt beam="2">  1       -2 0.16261468E+00 0.73472782E+03</pdfrwt>
<totfact> 0.11084405E+01</totfact>
</mgrwt>
</event>
<event>
 4    2  0.6387803E-007  0.7527953E+03  0.7818608E-02  0.9824130E-01
          2   -1    0    0  501    0  0.00000000000E+00  0.00000000000E+00  0.26035081097E+04  0.26035081097E+04  0.25500000000E-02 0. -1.
         -2   -1    0    0    0  501 -0.00000000000E+00 -0.00000000000E+00 -0.18568839198E+03  0.18568839200E+03  0.25500000000E-02 0.  1.
    8880023    1    1    2    0    0 -0.36450331423E+03 -0.52820447350E+01  0.70508067869E+03  0.10314259720E+04  0.65864270000E+03 0.  0.
    8880022    1    1    2    0    0  0.36450331423E+03  0.52820447350E+01  0.17127390391E+04  0.17577705297E+04  0.15294330000E+03 0.  0.
<mgrwt>
<rscale>  0 0.64083522E+03</rscale>
<asrwt>0</asrwt>
<pdfrwt beam="1">  1        2 0.40053966E+00 0.75279531E+03</pdfrwt>
<pdfrwt beam="2">  1       -2 0.28567448E-01 0.75279531E+03</pdfrwt>
<totfact> 0.35525898E+01</totfact>
</mgrwt>
</event>
<event>
 4    2  0.6387803E-007  0.8407069E+03  0.7818608E-02  0.9628849E-01
          2   -1    0    0  501    0  0.00000000000E+00  0.00000000000E+00  0.26228231058E+04  0.26228231058E+04  0.25500000000E-02 0. -1.
         -2   -1    0    0    0  501 -0.00000000000E+00 -0.00000000000E+00 -0.22300755468E+03  0.22300755470E+03  0.25500000000E-02 0.  1.
    8880023    1    1    2    0    0 -0.14717797674E+03  0.50131476964E+03  0.81814858548E+03  0.11730964024E+04  0.65864270000E+03 0.  0.
    8880022    1    1    2    0    0  0.14717797674E+03 -0.50131476964E+03  0.15816669657E+04  0.16727342581E+04  0.15294330000E+03 0.  0.
<mgrwt>
<rscale>  0 0.75415852E+03</rscale>
<asrwt>0</asrwt>
<pdfrwt beam="1">  1        2 0.40351125E+00 0.84070688E+03</pdfrwt>
<pdfrwt beam="2">  1       -2 0.34308854E-01 0.84070688E+03</pdfrwt>
<totfact> 0.24283380E+01</totfact>
</mgrwt>
</event>
<event>
 4    2  0.6387803E-007  0.7262596E+03  0.7818608E-02  0.9901948E-01
         -2   -1    0    0    0  501 -0.00000000000E+00  0.00000000000E+00  0.92707770604E+03  0.92707770605E+03  0.25500000000E-02 0.  1.
          2   -1    0    0  501    0  0.00000000000E+00 -0.00000000000E+00 -0.41032124372E+03  0.41032124373E+03  0.25500000000E-02 0. -1.
    8880023    1    1    2    0    0  0.17409210356E+03 -0.25166381682E+03  0.64570935825E+03  0.97179911444E+03  0.65864270000E+03 0.  1.
    8880022    1    1    2    0    0 -0.17409210356E+03  0.25166381682E+03 -0.12895289593E+03  0.36559983534E+03  0.15294330000E+03 0.  0.
<mgrwt>
<rscale>  0 0.60166962E+03</rscale>
<asrwt>0</asrwt>
<pdfrwt beam="1">  1        2 0.63126346E-01 0.72625956E+03</pdfrwt>
<pdfrwt beam="2">  1       -2 0.14262734E+00 0.72625956E+03</pdfrwt>
<totfact> 0.26814294E+01</totfact>
</mgrwt>
</event>
<event>
 4    2  0.6387803E-007  0.1060060E+04  0.7818608E-02  0.9306884E-01
         -2   -1    0    0    0  501 -0.00000000000E+00  0.00000000000E+00  0.89900017369E+03  0.89900017370E+03  0.25500000000E-02 0.  1.
          2   -1    0    0  501    0  0.00000000000E+00 -0.00000000000E+00 -0.13508411155E+04  0.13508411155E+04  0.25500000000E-02 0. -1.
    8880023    1    1    2    0    0  0.80862525240E+03 -0.18985046683E+03  0.31833576615E+03  0.11068269354E+04  0.65864270000E+03 0.  1.
    8880022    1    1    2    0    0 -0.80862525240E+03  0.18985046683E+03 -0.77017670798E+03  0.11430143539E+04  0.15294330000E+03 0.  0.
<mgrwt>
<rscale>  0 0.10015157E+04</rscale>
<asrwt>0</asrwt>
<pdfrwt beam="1">  1        2 0.20782171E+00 0.10600605E+04</pdfrwt>
<pdfrwt beam="2">  1       -2 0.13830772E+00 0.10600605E+04</pdfrwt>
<totfact> 0.56455493E+00</totfact>
</mgrwt>
</event>
<event>
 4    2  0.6387803E-007  0.8974102E+03  0.7818608E-02  0.9530202E-01
         -2   -1    0    0    0  501 -0.00000000000E+00  0.00000000000E+00  0.44444852172E+03  0.44444852172E+03  0.25500000000E-02 0.  1.
          2   -1    0    0  501    0  0.00000000000E+00 -0.00000000000E+00 -0.19477119213E+04  0.19477119213E+04  0.25500000000E-02 0. -1.
    8880023    1    1    2    0    0  0.59366181365E+03 -0.13820440562E+03 -0.16329450247E+03  0.91214588061E+03  0.65864270000E+03 0.  1.
    8880022    1    1    2    0    0 -0.59366181365E+03  0.13820440562E+03 -0.13399688971E+04  0.14800145624E+04  0.15294330000E+03 0.  0.
<mgrwt>
<rscale>  0 0.82093310E+03</rscale>
<asrwt>0</asrwt>
<pdfrwt beam="1">  1        2 0.29964798E+00 0.89741017E+03</pdfrwt>
<pdfrwt beam="2">  1       -2 0.68376696E-01 0.89741017E+03</pdfrwt>
<totfact> 0.14172707E+01</totfact>
</mgrwt>
</event>
<event>
 4    2  0.6387803E-007  0.7709967E+03  0.7818608E-02  0.9777427E-01
          2   -1    0    0  501    0  0.00000000000E+00  0.00000000000E+00  0.15019922369E+04  0.15019922369E+04  0.25500000000E-02 0. -1.
         -2   -1    0    0    0  501 -0.00000000000E+00 -0.00000000000E+00 -0.50635837396E+03  0.50635837397E+03  0.25500000000E-02 0.  1.
    8880023    1    1    2    0    0 -0.23690344650E+03 -0.32326851970E+03 -0.14963185309E+03  0.78538250332E+03  0.65864270000E+03 0.  0.
    8880022    1    1    2    0    0  0.23690344650E+03  0.32326851970E+03  0.11452657161E+04  0.12229681076E+04  0.15294330000E+03 0. -1.
<mgrwt>
<rscale>  0 0.66588124E+03</rscale>
<asrwt>0</asrwt>
<pdfrwt beam="1">  1        2 0.23107573E+00 0.77099675E+03</pdfrwt>
<pdfrwt beam="2">  1       -2 0.77901289E-01 0.77099675E+03</pdfrwt>
<totfact> 0.18976044E+01</totfact>
</mgrwt>
</event>
<event>
 4    2  0.6387803E-007  0.9046204E+03  0.7818608E-02  0.9518655E-01
          2   -1    0    0  501    0  0.00000000000E+00  0.00000000000E+00  0.14792833830E+04  0.14792833830E+04  0.25500000000E-02 0. -1.
         -2   -1    0    0    0  501 -0.00000000000E+00 -0.00000000000E+00 -0.45353653184E+03  0.45353653185E+03  0.25500000000E-02 0.  1.
    8880023    1    1    2    0    0  0.50863769793E+03 -0.35470500635E+03  0.91111770606E+03  0.12839289816E+04  0.65864270000E+03 0.  0.
    8880022    1    1    2    0    0 -0.50863769793E+03  0.35470500635E+03  0.11462914507E+03  0.64889093321E+03  0.15294330000E+03 0.  0.
<mgrwt>
<rscale>  0 0.82922354E+03</rscale>
<asrwt>0</asrwt>
<pdfrwt beam="1">  1        2 0.22758206E+00 0.90462045E+03</pdfrwt>
<pdfrwt beam="2">  1       -2 0.69774851E-01 0.90462045E+03</pdfrwt>
<totfact> 0.24574447E+01</totfact>
</mgrwt>
</event>
<event>
 4    2  0.6387803E-007  0.6782225E+03  0.7818608E-02  0.1010347E+00
         -2   -1    0    0    0  501 -0.00000000000E+00  0.00000000000E+00  0.19256202708E+03  0.19256202709E+03  0.25500000000E-02 0.  1.
          2   -1    0    0  501    0  0.00000000000E+00 -0.00000000000E+00 -0.21981282527E+04  0.21981282527E+04  0.25500000000E-02 0. -1.
    8880023    1    1    2    0    0 -0.14421084014E+03 -0.73340644870E+02 -0.43792640208E+03  0.80731986010E+03  0.65864270000E+03 0.  1.
    8880022    1    1    2    0    0  0.14421084014E+03  0.73340644870E+02 -0.15676398235E+04  0.15833704197E+04  0.15294330000E+03 0.  0.
<mgrwt>
<rscale>  0 0.51336770E+03</rscale>
<asrwt>0</asrwt>
<pdfrwt beam="1">  1        2 0.33817356E+00 0.67822255E+03</pdfrwt>
<pdfrwt beam="2">  1       -2 0.29624929E-01 0.67822255E+03</pdfrwt>
<totfact> 0.56649861E+01</totfact>
</mgrwt>
</event>
<event>
 4    2  0.6387803E-007  0.6756809E+03  0.7818608E-02  0.1011880E+00
         -2   -1    0    0    0  501 -0.00000000000E+00  0.00000000000E+00  0.57549240931E+03  0.57549240931E+03  0.25500000000E-02 0.  1.
          2   -1    0    0  501    0  0.00000000000E+00 -0.00000000000E+00 -0.55421823224E+03  0.55421823224E+03  0.25500000000E-02 0. -1.
    8880023    1    1    2    0    0 -0.35711675947E+02 -0.14648949934E+03  0.33132265881E+03  0.75254196409E+03  0.65864270000E+03 0.  1.
    8880022    1    1    2    0    0  0.35711675947E+02  0.14648949934E+03 -0.31004848174E+03  0.37716867747E+03  0.15294330000E+03 0.  0.
<mgrwt>
<rscale>  0 0.50734063E+03</rscale>
<asrwt>0</asrwt>
<pdfrwt beam="1">  1        2 0.85264344E-01 0.67568092E+03</pdfrwt>
<pdfrwt beam="2">  1       -2 0.88537293E-01 0.67568092E+03</pdfrwt>
<totfact> 0.60891205E+01</totfact>
</mgrwt>
</event>
<event>
 4    2  0.6387803E-007  0.7513879E+03  0.7818608E-02  0.9827936E-01
         -2   -1    0    0    0  501 -0.00000000000E+00  0.00000000000E+00  0.89988370600E+03  0.89988370601E+03  0.25500000000E-02 0.  1.
          2   -1    0    0  501    0  0.00000000000E+00 -0.00000000000E+00 -0.53865661131E+03  0.53865661132E+03  0.25500000000E-02 0. -1.
    8880023    1    1    2    0    0 -0.36078067556E+03  0.24715837433E+02  0.61503960166E+03  0.97100848933E+03  0.65864270000E+03 0.  0.
    8880022    1    1    2    0    0  0.36078067556E+03 -0.24715837433E+02 -0.25381250697E+03  0.46753182799E+03  0.15294330000E+03 0.  0.
<mgrwt>
<rscale>  0 0.63884640E+03</rscale>
<asrwt>0</asrwt>
<pdfrwt beam="1">  1        2 0.82870248E-01 0.75138790E+03</pdfrwt>
<pdfrwt beam="2">  1       -2 0.13844365E+00 0.75138790E+03</pdfrwt>
<totfact> 0.21136749E+01</totfact>
</mgrwt>
</event>
<event>
 4    2  0.6387803E-007  0.7888916E+03  0.7818608E-02  0.9735350E-01
         -2   -1    0    0    0  501 -0.00000000000E+00  0.00000000000E+00  0.23004742844E+03  0.23004742846E+03  0.25500000000E-02 0.  1.
          2   -1    0    0  501    0  0.00000000000E+00 -0.00000000000E+00 -0.34037861528E+04  0.34037861528E+04  0.25500000000E-02 0. -1.
    8880023    1    1    2    0    0 -0.13877377786E+03 -0.41143845166E+03 -0.53019236292E+03  0.95050192471E+03  0.65864270000E+03 0.  1.
    8880022    1    1    2    0    0  0.13877377786E+03  0.41143845166E+03 -0.26435463615E+04  0.26833316566E+04  0.15294330000E+03 0.  0.
<mgrwt>
<rscale>  0 0.68950500E+03</rscale>
<asrwt>0</asrwt>
<pdfrwt beam="1">  1        2 0.52365937E+00 0.78889161E+03</pdfrwt>
<pdfrwt beam="2">  1       -2 0.35391915E-01 0.78889161E+03</pdfrwt>
<totfact> 0.76042902E+00</totfact>
</mgrwt>
</event>
<event>
 4    2  0.1369553E-006  0.1211310E+04  0.7818608E-02  0.9146206E-01
         -2   -1    0    0    0  501 -0.00000000000E+00  0.00000000000E+00  0.19559410621E+04  0.19559410621E+04  0.25500000000E-02 0.  1.
          2   -1    0    0  501    0  0.00000000000E+00 -0.00000000000E+00 -0.19970466343E+04  0.19970466343E+04  0.25500000000E-02 0. -1.
    8880023    1    1    2    0    0 -0.95071239090E+03 -0.36001113119E+03  0.16058750515E+04  0.20114937117E+04  0.65864270000E+03 0.  0.
    8880022    1    1    2    0    0  0.95071239090E+03  0.36001113119E+03 -0.16469806237E+04  0.19414939847E+04  0.15294330000E+03 0.  0.
<mgrwt>
<rscale>  0 0.11626350E+04</rscale>
<asrwt>0</asrwt>
<pdfrwt beam="1">  1        2 0.30723794E+00 0.12113101E+04</pdfrwt>
<pdfrwt beam="2">  1       -2 0.30091401E+00 0.12113101E+04</pdfrwt>
<totfact> 0.20523395E-01</totfact>
</mgrwt>
</event>
<event>
 4    2  0.6387803E-007  0.7999090E+03  0.7818608E-02  0.9710993E-01
          2   -1    0    0  501    0  0.00000000000E+00  0.00000000000E+00  0.11707897563E+04  0.11707897563E+04  0.25500000000E-02 0. -1.
         -2   -1    0    0    0  501 -0.00000000000E+00 -0.00000000000E+00 -0.13641688777E+04  0.13641688777E+04  0.25500000000E-02 0.  1.
    8880023    1    1    2    0    0 -0.20696738009E+03 -0.40399087451E+03 -0.11873109510E+04  0.14316290105E+04  0.65864270000E+03 0.  1.
    8880022    1    1    2    0    0  0.20696738009E+03  0.40399087451E+03  0.99393182957E+03  0.11033296234E+04  0.15294330000E+03 0.  0.
<mgrwt>
<rscale>  0 0.70366032E+03</rscale>
<asrwt>0</asrwt>
<pdfrwt beam="1">  1        2 0.18012150E+00 0.79990895E+03</pdfrwt>
<pdfrwt beam="2">  1       -2 0.20987214E+00 0.79990895E+03</pdfrwt>
<totfact> 0.23083596E+00</totfact>
</mgrwt>
</event>
<event>
 4    2  0.6387803E-007  0.8707929E+03  0.7818608E-02  0.9574646E-01
         -2   -1    0    0    0  501 -0.00000000000E+00  0.00000000000E+00  0.17512364130E+04  0.17512364130E+04  0.25500000000E-02 0.  1.
          2   -1    0    0  501    0  0.00000000000E+00 -0.00000000000E+00 -0.69700026148E+03  0.69700026148E+03  0.25500000000E-02 0. -1.
    8880023    1    1    2    0    0  0.56908422062E+03 -0.24764087069E+02  0.14825175551E+04  0.17193424957E+04  0.65864270000E+03 0.  1.
    8880022    1    1    2    0    0 -0.56908422062E+03  0.24764087069E+02 -0.42828140357E+03  0.72889417876E+03  0.15294330000E+03 0.  0.
<mgrwt>
<rscale>  0 0.78997256E+03</rscale>
<asrwt>0</asrwt>
<pdfrwt beam="1">  1        2 0.10723081E+00 0.87079292E+03</pdfrwt>
<pdfrwt beam="2">  1       -2 0.26942099E+00 0.87079292E+03</pdfrwt>
<totfact> 0.20475076E+00</totfact>
</mgrwt>
</event>
<event>
 4    2  0.6387803E-007  0.7652721E+03  0.7818608E-02  0.9791645E-01
         -2   -1    0    0    0  501 -0.00000000000E+00  0.00000000000E+00  0.49733236394E+03  0.49733236395E+03  0.25500000000E-02 0.  1.
          2   -1    0    0  501    0  0.00000000000E+00 -0.00000000000E+00 -0.22251817960E+04  0.22251817960E+04  0.25500000000E-02 0. -1.
    8880023    1    1    2    0    0 -0.26249193845E+03 -0.28797428901E+03  0.16590413866E+03  0.78304891186E+03  0.65864270000E+03 0.  1.
    8880022    1    1    2    0    0  0.26249193845E+03  0.28797428901E+03 -0.18937535707E+04  0.19394652481E+04  0.15294330000E+03 0.  0.
<mgrwt>
<rscale>  0 0.65812860E+03</rscale>
<asrwt>0</asrwt>
<pdfrwt beam="1">  1        2 0.34233566E+00 0.76527212E+03</pdfrwt>
<pdfrwt beam="2">  1       -2 0.76512673E-01 0.76527212E+03</pdfrwt>
<totfact> 0.79306464E+00</totfact>
</mgrwt>
</event>
<event>
 4    2  0.6387803E-007  0.1220622E+04  0.7818608E-02  0.9137333E-01
         -2   -1    0    0    0  501 -0.00000000000E+00  0.00000000000E+00  0.67309538785E+03  0.67309538785E+03  0.25500000000E-02 0.  1.
          2   -1    0    0  501    0  0.00000000000E+00 -0.00000000000E+00 -0.28505760567E+04  0.28505760567E+04  0.25500000000E-02 0. -1.
    8880023    1    1    2    0    0 -0.37609199417E+03 -0.95637956399E+03 -0.12983004936E+03  0.12275068662E+04  0.65864270000E+03 0.  0.
    8880022    1    1    2    0    0  0.37609199417E+03  0.95637956399E+03 -0.20476506194E+04  0.22961645783E+04  0.15294330000E+03 0.  0.
<mgrwt>
<rscale>  0 0.11724345E+04</rscale>
<asrwt>0</asrwt>
<pdfrwt beam="1">  1        2 0.43855016E+00 0.12206217E+04</pdfrwt>
<pdfrwt beam="2">  1       -2 0.10355314E+00 0.12206217E+04</pdfrwt>
<totfact> 0.16127381E+00</totfact>
</mgrwt>
</event>
<event>
 4    2  0.6387803E-007  0.7129243E+03  0.7818608E-02  0.9947298E-01
          2   -1    0    0  501    0  0.00000000000E+00  0.00000000000E+00  0.14072661356E+04  0.14072661356E+04  0.25500000000E-02 0. -1.
         -2   -1    0    0    0  501 -0.00000000000E+00 -0.00000000000E+00 -0.22226699957E+03  0.22226699959E+03  0.25500000000E-02 0.  1.
    8880023    1    1    2    0    0 -0.18593217912E+03  0.19970006695E+03  0.48338153594E+03  0.86134708888E+03  0.65864270000E+03 0.  0.
    8880022    1    1    2    0    0  0.18593217912E+03 -0.19970006695E+03  0.70161760004E+03  0.76818604627E+03  0.15294330000E+03 0.  0.
<mgrwt>
<rscale>  0 0.58022781E+03</rscale>
<asrwt>0</asrwt>
<pdfrwt beam="1">  1        2 0.21650248E+00 0.71292433E+03</pdfrwt>
<pdfrwt beam="2">  1       -2 0.34194923E-01 0.71292433E+03</pdfrwt>
<totfact> 0.11703290E+02</totfact>
</mgrwt>
</event>
<event>
 4    2  0.6387803E-007  0.8146182E+03  0.7818608E-02  0.9680037E-01
          2   -1    0    0  501    0  0.00000000000E+00  0.00000000000E+00  0.18020110714E+04  0.18020110714E+04  0.25500000000E-02 0. -1.
         -2   -1    0    0    0  501 -0.00000000000E+00 -0.00000000000E+00 -0.72836389447E+03  0.72836389447E+03  0.25500000000E-02 0.  1.
    8880023    1    1    2    0    0  0.47421680551E+03  0.70078263046E+02 -0.44660942507E+03  0.92901169337E+03  0.65864270000E+03 0.  1.
    8880022    1    1    2    0    0 -0.47421680551E+03 -0.70078263046E+02  0.15202566021E+04  0.16013632726E+04  0.15294330000E+03 0.  0.
<mgrwt>
<rscale>  0 0.72217947E+03</rscale>
<asrwt>0</asrwt>
<pdfrwt beam="1">  1        2 0.27723247E+00 0.81461816E+03</pdfrwt>
<pdfrwt beam="2">  1       -2 0.11205599E+00 0.81461816E+03</pdfrwt>
<totfact> 0.55218966E+00</totfact>
</mgrwt>
</event>
<event>
 4    2  0.6387803E-007  0.7129654E+03  0.7818608E-02  0.9947150E-01
          2   -1    0    0  501    0  0.00000000000E+00  0.00000000000E+00  0.85051056428E+03  0.85051056429E+03  0.25500000000E-02 0. -1.
         -2   -1    0    0    0  501 -0.00000000000E+00 -0.00000000000E+00 -0.50696067326E+03  0.50696067327E+03  0.25500000000E-02 0.  1.
    8880023    1    1    2    0    0  0.15219375891E+03  0.22659753957E+03 -0.19097738143E+03  0.73810023145E+03  0.65864270000E+03 0.  0.
    8880022    1    1    2    0    0 -0.15219375891E+03 -0.22659753957E+03  0.53452727245E+03  0.61937100610E+03  0.15294330000E+03 0.  0.
<mgrwt>
<rscale>  0 0.58029620E+03</rscale>
<asrwt>0</asrwt>
<pdfrwt beam="1">  1        2 0.13084778E+00 0.71296535E+03</pdfrwt>
<pdfrwt beam="2">  1       -2 0.77993950E-01 0.71296535E+03</pdfrwt>
<totfact> 0.47211786E+01</totfact>
</mgrwt>
</event>
<event>
 4    2  0.6387803E-007  0.7713315E+03  0.7818608E-02  0.9776608E-01
         -2   -1    0    0    0  501 -0.00000000000E+00  0.00000000000E+00  0.20948143929E+04  0.20948143929E+04  0.25500000000E-02 0.  1.
          2   -1    0    0  501    0  0.00000000000E+00 -0.00000000000E+00 -0.97888122416E+03  0.97888122416E+03  0.25500000000E-02 0. -1.
    8880023    1    1    2    0    0  0.20101414917E+03  0.34747004979E+03  0.19711289527E+04  0.21166723124E+04  0.65864270000E+03 0.  0.
    8880022    1    1    2    0    0 -0.20101414917E+03 -0.34747004979E+03 -0.85519578398E+03  0.95702330464E+03  0.15294330000E+03 0.  0.
<mgrwt>
<rscale>  0 0.66633143E+03</rscale>
<asrwt>0</asrwt>
<pdfrwt beam="1">  1        2 0.15059711E+00 0.77133153E+03</pdfrwt>
<pdfrwt beam="2">  1       -2 0.32227913E+00 0.77133153E+03</pdfrwt>
<totfact> 0.63109783E-01</totfact>
</mgrwt>
</event>
<event>
 4    2  0.6387803E-007  0.7179939E+03  0.7818608E-02  0.9929433E-01
          2   -1    0    0  501    0  0.00000000000E+00  0.00000000000E+00  0.15869108685E+04  0.15869108685E+04  0.25500000000E-02 0. -1.
         -2   -1    0    0    0  501 -0.00000000000E+00 -0.00000000000E+00 -0.19693772397E+03  0.19693772399E+03  0.25500000000E-02 0.  1.
    8880023    1    1    2    0    0  0.18591259618E+03 -0.21712087173E+03  0.62084845345E+03  0.94919332845E+03  0.65864270000E+03 0.  0.
    8880022    1    1    2    0    0 -0.18591259618E+03  0.21712087173E+03  0.76912469106E+03  0.83465526403E+03  0.15294330000E+03 0.  0.
<mgrwt>
<rscale>  0 0.58855782E+03</rscale>
<asrwt>0</asrwt>
<pdfrwt beam="1">  1        2 0.24414013E+00 0.71799385E+03</pdfrwt>
<pdfrwt beam="2">  1       -2 0.30298112E-01 0.71799385E+03</pdfrwt>
<totfact> 0.11660191E+02</totfact>
</mgrwt>
</event>
<event>
 4    2  0.6387803E-007  0.6698366E+03  0.7818608E-02  0.1015780E+00
         -2   -1    0    0    0  501 -0.00000000000E+00  0.00000000000E+00  0.18269500593E+03  0.18269500595E+03  0.25500000000E-02 0.  1.
          2   -1    0    0  501    0  0.00000000000E+00 -0.00000000000E+00 -0.13421239818E+04  0.13421239818E+04  0.25500000000E-02 0. -1.
    8880023    1    1    2    0    0 -0.91480466307E+02  0.80635798923E+02 -0.49690978236E+03  0.83402658582E+03  0.65864270000E+03 0.  1.
    8880022    1    1    2    0    0  0.91480466307E+02 -0.80635798923E+02 -0.66251919349E+03  0.69079240192E+03  0.15294330000E+03 0.  0.
<mgrwt>
<rscale>  0 0.49240590E+03</rscale>
<asrwt>0</asrwt>
<pdfrwt beam="1">  1        2 0.20648061E+00 0.66983656E+03</pdfrwt>
<pdfrwt beam="2">  1       -2 0.28106925E-01 0.66983656E+03</pdfrwt>
<totfact> 0.18429018E+02</totfact>
</mgrwt>
</event>
<event>
 4    2  0.6387803E-007  0.7859842E+03  0.7818608E-02  0.9741963E-01
          2   -1    0    0  501    0  0.00000000000E+00  0.00000000000E+00  0.16335829286E+04  0.16335829286E+04  0.25500000000E-02 0. -1.
         -2   -1    0    0    0  501 -0.00000000000E+00 -0.00000000000E+00 -0.32385733651E+03  0.32385733652E+03  0.25500000000E-02 0.  1.
    8880023    1    1    2    0    0 -0.19214394705E+03  0.38346016130E+03  0.28493877016E+03  0.83603905453E+03  0.65864270000E+03 0.  1.
    8880022    1    1    2    0    0  0.19214394705E+03 -0.38346016130E+03  0.10247868219E+04  0.11214012105E+04  0.15294330000E+03 0. -1.
<mgrwt>
<rscale>  0 0.68572356E+03</rscale>
<asrwt>0</asrwt>
<pdfrwt beam="1">  1        2 0.25132045E+00 0.78598422E+03</pdfrwt>
<pdfrwt beam="2">  1       -2 0.49824206E-01 0.78598422E+03</pdfrwt>
<totfact> 0.41539711E+01</totfact>
</mgrwt>
</event>
<event>
 4    2  0.6387803E-007  0.7678583E+03  0.7818608E-02  0.9785172E-01
          2   -1    0    0  501    0  0.00000000000E+00  0.00000000000E+00  0.46635814829E+03  0.46635814830E+03  0.25500000000E-02 0. -1.
         -2   -1    0    0    0  501 -0.00000000000E+00 -0.00000000000E+00 -0.10098820944E+04  0.10098820944E+04  0.25500000000E-02 0.  1.
    8880023    1    1    2    0    0  0.35444407530E+03 -0.17368244264E+03 -0.68593803877E+03  0.10296200235E+04  0.65864270000E+03 0.  1.
    8880022    1    1    2    0    0 -0.35444407530E+03  0.17368244264E+03  0.14241409270E+03  0.44662021921E+03  0.15294330000E+03 0.  0.
<mgrwt>
<rscale>  0 0.66164402E+03</rscale>
<asrwt>0</asrwt>
<pdfrwt beam="1">  1        2 0.71747408E-01 0.76785832E+03</pdfrwt>
<pdfrwt beam="2">  1       -2 0.15536648E+00 0.76785832E+03</pdfrwt>
<totfact> 0.18432273E+01</totfact>
</mgrwt>
</event>
<event>
 4    2  0.6387803E-007  0.9473147E+03  0.7818608E-02  0.9453988E-01
         -2   -1    0    0    0  501 -0.00000000000E+00  0.00000000000E+00  0.38067049149E+03  0.38067049149E+03  0.25500000000E-02 0.  1.
          2   -1    0    0  501    0  0.00000000000E+00 -0.00000000000E+00 -0.18548211195E+04  0.18548211195E+04  0.25500000000E-02 0. -1.
    8880023    1    1    2    0    0  0.48052364607E+03 -0.48238148205E+03 -0.61848106700E+03  0.11313372199E+04  0.65864270000E+03 0.  0.
    8880022    1    1    2    0    0 -0.48052364607E+03  0.48238148205E+03 -0.85566956097E+03  0.11041543910E+04  0.15294330000E+03 0.  0.
<mgrwt>
<rscale>  0 0.87762768E+03</rscale>
<asrwt>0</asrwt>
<pdfrwt beam="1">  1        2 0.28535709E+00 0.94731467E+03</pdfrwt>
<pdfrwt beam="2">  1       -2 0.58564692E-01 0.94731467E+03</pdfrwt>
<totfact> 0.22087607E+01</totfact>
</mgrwt>
</event>
<event>
 4    2  0.6387803E-007  0.9585506E+03  0.7818608E-02  0.9437917E-01
         -2   -1    0    0    0  501 -0.00000000000E+00  0.00000000000E+00  0.96026271381E+03  0.96026271382E+03  0.25500000000E-02 0.  1.
          2   -1    0    0  501    0  0.00000000000E+00 -0.00000000000E+00 -0.11125425514E+04  0.11125425514E+04  0.25500000000E-02 0. -1.
    8880023    1    1    2    0    0  0.65197154329E+03  0.24483072816E+03  0.52198609073E+03  0.10914617098E+04  0.65864270000E+03 0.  0.
    8880022    1    1    2    0    0 -0.65197154329E+03 -0.24483072816E+03 -0.67426592828E+03  0.98134355542E+03  0.15294330000E+03 0.  0.
<mgrwt>
<rscale>  0 0.89019885E+03</rscale>
<asrwt>0</asrwt>
<pdfrwt beam="1">  1        2 0.17116039E+00 0.95855056E+03</pdfrwt>
<pdfrwt beam="2">  1       -2 0.14773273E+00 0.95855056E+03</pdfrwt>
<totfact> 0.66458360E+00</totfact>
</mgrwt>
</event>
<event>
 4    2  0.6387803E-007  0.6658205E+03  0.7818608E-02  0.1018855E+00
         -2   -1    0    0    0  501 -0.00000000000E+00  0.00000000000E+00  0.52326521283E+03  0.52326521284E+03  0.25500000000E-02 0.  1.
          2   -1    0    0  501    0  0.00000000000E+00 -0.00000000000E+00 -0.16908174756E+04  0.16908174756E+04  0.25500000000E-02 0. -1.
    8880023    1    1    2    0    0 -0.67019270942E+02 -0.70817315906E+02  0.30361402514E+03  0.73177753275E+03  0.65864270000E+03 0.  1.
    8880022    1    1    2    0    0  0.67019270942E+02  0.70817315906E+02 -0.14711662879E+04  0.14823051557E+04  0.15294330000E+03 0.  0.
<mgrwt>
<rscale>  0 0.48102160E+03</rscale>
<asrwt>0</asrwt>
<pdfrwt beam="1">  1        2 0.26012576E+00 0.66582046E+03</pdfrwt>
<pdfrwt beam="2">  1       -2 0.80502341E-01 0.66582046E+03</pdfrwt>
<totfact> 0.14074304E+01</totfact>
</mgrwt>
</event>
<event>
 4    2  0.6387803E-007  0.1065813E+04  0.7818608E-02  0.9300109E-01
         -2   -1    0    0    0  501 -0.00000000000E+00  0.00000000000E+00  0.59903202635E+03  0.59903202635E+03  0.25500000000E-02 0.  1.
          2   -1    0    0  501    0  0.00000000000E+00 -0.00000000000E+00 -0.28668737713E+04  0.28668737713E+04  0.25500000000E-02 0. -1.
    8880023    1    1    2    0    0  0.65626989190E+03 -0.52101631252E+03 -0.24278463850E+02  0.10660899676E+04  0.65864270000E+03 0.  0.
    8880022    1    1    2    0    0 -0.65626989190E+03  0.52101631252E+03 -0.22435632811E+04  0.23998158301E+04  0.15294330000E+03 0.  0.
<mgrwt>
<rscale>  0 0.10077286E+04</rscale>
<asrwt>0</asrwt>
<pdfrwt beam="1">  1        2 0.44105749E+00 0.10658135E+04</pdfrwt>
<pdfrwt beam="2">  1       -2 0.92158775E-01 0.10658135E+04</pdfrwt>
<totfact> 0.21213958E+00</totfact>
</mgrwt>
</event>
<event>
 4    2  0.6387803E-007  0.7143704E+03  0.7818608E-02  0.9942116E-01
          2   -1    0    0  501    0  0.00000000000E+00  0.00000000000E+00  0.82709733410E+03  0.82709733410E+03  0.25500000000E-02 0. -1.
         -2   -1    0    0    0  501 -0.00000000000E+00 -0.00000000000E+00 -0.13672971278E+04  0.13672971278E+04  0.25500000000E-02 0.  1.
    8880023    1    1    2    0    0 -0.27642402039E+03 -0.10229874215E+02 -0.12374486994E+04  0.14288472204E+04  0.65864270000E+03 0.  0.
    8880022    1    1    2    0    0  0.27642402039E+03  0.10229874215E+02  0.69724890572E+03  0.76554724147E+03  0.15294330000E+03 0.  0.
<mgrwt>
<rscale>  0 0.58262865E+03</rscale>
<asrwt>0</asrwt>
<pdfrwt beam="1">  1        2 0.12724574E+00 0.71437042E+03</pdfrwt>
<pdfrwt beam="2">  1       -2 0.21035340E+00 0.71437042E+03</pdfrwt>
<totfact> 0.38616244E+00</totfact>
</mgrwt>
</event>
<event>
 4    2  0.6387803E-007  0.1272102E+04  0.7818608E-02  0.9090034E-01
         -2   -1    0    0    0  501 -0.00000000000E+00  0.00000000000E+00  0.83185358881E+03  0.83185358882E+03  0.25500000000E-02 0.  1.
          2   -1    0    0  501    0  0.00000000000E+00 -0.00000000000E+00 -0.22691876983E+04  0.22691876983E+04  0.25500000000E-02 0. -1.
    8880023    1    1    2    0    0  0.97670009826E+03 -0.48009479735E+03 -0.15397518477E+04  0.19972681481E+04  0.65864270000E+03 0.  0.
    8880022    1    1    2    0    0 -0.97670009826E+03  0.48009479735E+03  0.10241773824E+03  0.11037731391E+04  0.15294330000E+03 0.  0.
<mgrwt>
<rscale>  0 0.12264280E+04</rscale>
<asrwt>0</asrwt>
<pdfrwt beam="1">  1        2 0.34910580E+00 0.12721023E+04</pdfrwt>
<pdfrwt beam="2">  1       -2 0.12797748E+00 0.12721023E+04</pdfrwt>
<totfact> 0.20677154E+00</totfact>
</mgrwt>
</event>
<event>
 4    2  0.6387803E-007  0.6641226E+03  0.7818608E-02  0.1020281E+00
          2   -1    0    0  501    0  0.00000000000E+00  0.00000000000E+00  0.88374928894E+03  0.88374928894E+03  0.25500000000E-02 0. -1.
         -2   -1    0    0    0  501 -0.00000000000E+00 -0.00000000000E+00 -0.65767900176E+03  0.65767900176E+03  0.25500000000E-02 0.  1.
    8880023    1    1    2    0    0 -0.81186714709E+02  0.25638553853E+02 -0.47649989024E+03  0.81738055381E+03  0.65864270000E+03 0.  1.
    8880022    1    1    2    0    0  0.81186714709E+02 -0.25638553853E+02  0.70257017742E+03  0.72404773690E+03  0.15294330000E+03 0.  0.
<mgrwt>
<rscale>  0 0.47585295E+03</rscale>
<asrwt>0</asrwt>
<pdfrwt beam="1">  1        2 0.13596143E+00 0.66412260E+03</pdfrwt>
<pdfrwt beam="2">  1       -2 0.10118139E+00 0.66412260E+03</pdfrwt>
<totfact> 0.24741500E+01</totfact>
</mgrwt>
</event>
<event>
 4    2  0.6387803E-007  0.6830460E+03  0.7818608E-02  0.1007651E+00
          2   -1    0    0  501    0  0.00000000000E+00  0.00000000000E+00  0.55364990727E+03  0.55364990728E+03  0.25500000000E-02 0. -1.
         -2   -1    0    0    0  501 -0.00000000000E+00 -0.00000000000E+00 -0.40616219332E+03  0.40616219332E+03  0.25500000000E-02 0.  1.
    8880023    1    1    2    0    0 -0.17876127491E+03 -0.28036682209E+02  0.44558260355E+01  0.68306054608E+03  0.65864270000E+03 0.  1.
    8880022    1    1    2    0    0  0.17876127491E+03  0.28036682209E+02  0.14303188792E+03  0.27675155453E+03  0.15294330000E+03 0.  0.
<mgrwt>
<rscale>  0 0.52419158E+03</rscale>
<asrwt>0</asrwt>
<pdfrwt beam="1">  1        2 0.85176908E-01 0.68304601E+03</pdfrwt>
<pdfrwt beam="2">  1       -2 0.62486492E-01 0.68304601E+03</pdfrwt>
<totfact> 0.13161686E+02</totfact>
</mgrwt>
</event>
<event>
 4    2  0.6387803E-007  0.7544765E+03  0.7818608E-02  0.9819623E-01
         -2   -1    0    0    0  501 -0.00000000000E+00  0.00000000000E+00  0.42955693045E+03  0.42955693045E+03  0.25500000000E-02 0.  1.
          2   -1    0    0  501    0  0.00000000000E+00 -0.00000000000E+00 -0.79170892846E+03  0.79170892846E+03  0.25500000000E-02 0. -1.
    8880023    1    1    2    0    0  0.32865751958E+03 -0.16555595473E+03 -0.14800833296E+03  0.76885708179E+03  0.65864270000E+03 0.  1.
    8880022    1    1    2    0    0 -0.32865751958E+03  0.16555595473E+03 -0.21414366505E+03  0.45240877713E+03  0.15294330000E+03 0.  0.
<mgrwt>
<rscale>  0 0.64320013E+03</rscale>
<asrwt>0</asrwt>
<pdfrwt beam="1">  1        2 0.12180137E+00 0.75447647E+03</pdfrwt>
<pdfrwt beam="2">  1       -2 0.66085682E-01 0.75447647E+03</pdfrwt>
<totfact> 0.74507018E+01</totfact>
</mgrwt>
</event>
<event>
 4    2  0.6387803E-007  0.6627175E+03  0.7818608E-02  0.1021530E+00
         -2   -1    0    0    0  501 -0.00000000000E+00  0.00000000000E+00  0.14088563250E+03  0.14088563253E+03  0.25500000000E-02 0.  1.
          2   -1    0    0  501    0  0.00000000000E+00 -0.00000000000E+00 -0.15047523624E+04  0.15047523624E+04  0.25500000000E-02 0. -1.
    8880023    1    1    2    0    0 -0.42564070367E+02  0.59771245586E+02 -0.71470488683E+03  0.97467819480E+03  0.65864270000E+03 0.  1.
    8880022    1    1    2    0    0  0.42564070367E+02 -0.59771245586E+02 -0.64916184304E+03  0.67095980011E+03  0.15294330000E+03 0.  0.
<mgrwt>
<rscale>  0 0.47138424E+03</rscale>
<asrwt>0</asrwt>
<pdfrwt beam="1">  1        2 0.23150035E+00 0.66271752E+03</pdfrwt>
<pdfrwt beam="2">  1       -2 0.21674714E-01 0.66271752E+03</pdfrwt>
<totfact> 0.23846350E+02</totfact>
</mgrwt>
</event>
<event>
 4    2  0.6387803E-007  0.8100150E+03  0.7818608E-02  0.9689546E-01
         -2   -1    0    0    0  501 -0.00000000000E+00  0.00000000000E+00  0.42250376253E+03  0.42250376254E+03  0.25500000000E-02 0.  1.
          2   -1    0    0  501    0  0.00000000000E+00 -0.00000000000E+00 -0.14231438597E+04  0.14231438597E+04  0.25500000000E-02 0. -1.
    8880023    1    1    2    0    0 -0.47012358321E+03  0.36027353086E+02 -0.98083231529E+02  0.81593178650E+03  0.65864270000E+03 0.  1.
    8880022    1    1    2    0    0  0.47012358321E+03 -0.36027353086E+02 -0.90255686568E+03  0.10297158358E+04  0.15294330000E+03 0.  0.
<mgrwt>
<rscale>  0 0.71642666E+03</rscale>
<asrwt>0</asrwt>
<pdfrwt beam="1">  1        2 0.21894521E+00 0.81001504E+03</pdfrwt>
<pdfrwt beam="2">  1       -2 0.65000579E-01 0.81001504E+03</pdfrwt>
<totfact> 0.31114461E+01</totfact>
</mgrwt>
</event>
<event>
 4    2  0.6387803E-007  0.1518767E+04  0.7818608E-02  0.8896497E-01
          2   -1    0    0  501    0  0.00000000000E+00  0.00000000000E+00  0.13355399699E+04  0.13355399699E+04  0.25500000000E-02 0. -1.
         -2   -1    0    0    0  501 -0.00000000000E+00 -0.00000000000E+00 -0.23511059528E+04  0.23511059528E+04  0.25500000000E-02 0.  1.
    8880023    1    1    2    0    0 -0.53596840561E+03  0.12591979981E+04 -0.15861963248E+04  0.21960579950E+04  0.65864270000E+03 0.  0.
    8880022    1    1    2    0    0  0.53596840561E+03 -0.12591979981E+04  0.57063034188E+03  0.14905879277E+04  0.15294330000E+03 0.  0.
<mgrwt>
<rscale>  0 0.14820223E+04</rscale>
<asrwt>0</asrwt>
<pdfrwt beam="1">  1        2 0.20546769E+00 0.15187666E+04</pdfrwt>
<pdfrwt beam="2">  1       -2 0.36170861E+00 0.15187666E+04</pdfrwt>
<totfact> 0.19478438E-01</totfact>
</mgrwt>
</event>
<event>
 4    2  0.6387803E-007  0.6765955E+03  0.7818608E-02  0.1011319E+00
         -2   -1    0    0    0  501 -0.00000000000E+00  0.00000000000E+00  0.52876911407E+03  0.52876911408E+03  0.25500000000E-02 0.  1.
          2   -1    0    0  501    0  0.00000000000E+00 -0.00000000000E+00 -0.18953825017E+04  0.18953825017E+04  0.25500000000E-02 0. -1.
    8880023    1    1    2    0    0  0.96973034638E+02  0.12069573787E+03  0.30233605713E+03  0.74107255265E+03  0.65864270000E+03 0.  1.
    8880022    1    1    2    0    0 -0.96973034638E+02 -0.12069573787E+03 -0.16689494448E+04  0.16830790631E+04  0.15294330000E+03 0.  0.
<mgrwt>
<rscale>  0 0.50953801E+03</rscale>
<asrwt>0</asrwt>
<pdfrwt beam="1">  1        2 0.29159730E+00 0.67659548E+03</pdfrwt>
<pdfrwt beam="2">  1       -2 0.81349096E-01 0.67659548E+03</pdfrwt>
<totfact> 0.10622660E+01</totfact>
</mgrwt>
</event>
<event>
 4    2  0.6387803E-007  0.7765293E+03  0.7818608E-02  0.9764054E-01
          2   -1    0    0  501    0  0.00000000000E+00  0.00000000000E+00  0.20367638918E+04  0.20367638918E+04  0.25500000000E-02 0. -1.
         -2   -1    0    0    0  501 -0.00000000000E+00 -0.00000000000E+00 -0.26760386493E+03  0.26760386494E+03  0.25500000000E-02 0.  1.
    8880023    1    1    2    0    0 -0.33191201574E+03  0.24294438141E+03  0.41414915353E+03  0.88006663741E+03  0.65864270000E+03 0.  0.
    8880022    1    1    2    0    0  0.33191201574E+03 -0.24294438141E+03  0.13550108733E+04  0.14243011193E+04  0.15294330000E+03 0.  0.
<mgrwt>
<rscale>  0 0.67327822E+03</rscale>
<asrwt>0</asrwt>
<pdfrwt beam="1">  1        2 0.31334829E+00 0.77652931E+03</pdfrwt>
<pdfrwt beam="2">  1       -2 0.41169825E-01 0.77652931E+03</pdfrwt>
<totfact> 0.36646821E+01</totfact>
</mgrwt>
</event>
<event>
 4    2  0.6387803E-007  0.6674604E+03  0.7818608E-02  0.1017553E+00
          2   -1    0    0  501    0  0.00000000000E+00  0.00000000000E+00  0.20245882452E+04  0.20245882452E+04  0.25500000000E-02 0. -1.
         -2   -1    0    0    0  501 -0.00000000000E+00 -0.00000000000E+00 -0.52674868321E+03  0.52674868322E+03  0.25500000000E-02 0.  1.
    8880023    1    1    2    0    0 -0.67822706804E+02  0.84221193062E+02 -0.30850375336E+03  0.73530803139E+03  0.65864270000E+03 0.  1.
    8880022    1    1    2    0    0  0.67822706804E+02 -0.84221193062E+02  0.18063433154E+04  0.18160288970E+04  0.15294330000E+03 0.  0.
<mgrwt>
<rscale>  0 0.48580162E+03</rscale>
<asrwt>0</asrwt>
<pdfrwt beam="1">  1        2 0.31147512E+00 0.66746036E+03</pdfrwt>
<pdfrwt beam="2">  1       -2 0.81038258E-01 0.66746036E+03</pdfrwt>
<totfact> 0.91293246E+00</totfact>
</mgrwt>
</event>
<event>
 4    2  0.6387803E-007  0.8402470E+03  0.7818608E-02  0.9629715E-01
         -2   -1    0    0    0  501 -0.00000000000E+00  0.00000000000E+00  0.97797598299E+03  0.97797598300E+03  0.25500000000E-02 0.  1.
          2   -1    0    0  501    0  0.00000000000E+00 -0.00000000000E+00 -0.10879625191E+04  0.10879625191E+04  0.25500000000E-02 0. -1.
    8880023    1    1    2    0    0  0.44383215170E+03 -0.27425863676E+03  0.69780573291E+03  0.10922215095E+04  0.65864270000E+03 0.  1.
    8880022    1    1    2    0    0 -0.44383215170E+03  0.27425863676E+03 -0.80779226899E+03  0.97371699255E+03  0.15294330000E+03 0.  0.
<mgrwt>
<rscale>  0 0.75360300E+03</rscale>
<asrwt>0</asrwt>
<pdfrwt beam="1">  1        2 0.16737885E+00 0.84024698E+03</pdfrwt>
<pdfrwt beam="2">  1       -2 0.15045784E+00 0.84024698E+03</pdfrwt>
<totfact> 0.66417503E+00</totfact>
</mgrwt>
</event>
<event>
 4    2  0.6387803E-007  0.7327378E+03  0.7818608E-02  0.9881630E-01
         -2   -1    0    0    0  501 -0.00000000000E+00  0.00000000000E+00  0.11520862657E+04  0.11520862657E+04  0.25500000000E-02 0.  1.
          2   -1    0    0  501    0  0.00000000000E+00 -0.00000000000E+00 -0.51545582243E+03  0.51545582243E+03  0.25500000000E-02 0. -1.
    8880023    1    1    2    0    0  0.23852776802E+03 -0.21493934299E+03  0.94570880726E+03  0.11963568747E+04  0.65864270000E+03 0.  0.
    8880022    1    1    2    0    0 -0.23852776802E+03  0.21493934299E+03 -0.30907836396E+03  0.47118521345E+03  0.15294330000E+03 0.  0.
<mgrwt>
<rscale>  0 0.61159900E+03</rscale>
<asrwt>0</asrwt>
<pdfrwt beam="1">  1        2 0.79300896E-01 0.73273776E+03</pdfrwt>
<pdfrwt beam="2">  1       -2 0.17724404E+00 0.73273776E+03</pdfrwt>
<totfact> 0.11466028E+01</totfact>
</mgrwt>
</event>
<event>
 4    2  0.6387803E-007  0.7565664E+03  0.7818608E-02  0.9814079E-01
         -2   -1    0    0    0  501 -0.00000000000E+00  0.00000000000E+00  0.69483318535E+03  0.69483318536E+03  0.25500000000E-02 0.  1.
          2   -1    0    0  501    0  0.00000000000E+00 -0.00000000000E+00 -0.25146389166E+04  0.25146389166E+04  0.25500000000E-02 0. -1.
    8880023    1    1    2    0    0  0.35969417035E+03 -0.95930387554E+02  0.46596077290E+03  0.88854498118E+03  0.65864270000E+03 0.  1.
    8880022    1    1    2    0    0 -0.35969417035E+03  0.95930387554E+02 -0.22857665041E+04  0.23209271207E+04  0.15294330000E+03 0.  0.
<mgrwt>
<rscale>  0 0.64612422E+03</rscale>
<asrwt>0</asrwt>
<pdfrwt beam="1">  1        2 0.38686752E+00 0.75656642E+03</pdfrwt>
<pdfrwt beam="2">  1       -2 0.10689741E+00 0.75656642E+03</pdfrwt>
<totfact> 0.25228288E+00</totfact>
</mgrwt>
</event>
<event>
 4    2  0.6387803E-007  0.6847362E+03  0.7818608E-02  0.1006762E+00
          2   -1    0    0  501    0  0.00000000000E+00  0.00000000000E+00  0.17508586440E+04  0.17508586440E+04  0.25500000000E-02 0. -1.
         -2   -1    0    0    0  501 -0.00000000000E+00 -0.00000000000E+00 -0.19888981581E+03  0.19888981582E+03  0.25500000000E-02 0.  1.
    8880023    1    1    2    0    0 -0.14151389225E+03  0.12258602966E+03  0.44487080989E+03  0.81656215937E+03  0.65864270000E+03 0. -1.
    8880022    1    1    2    0    0  0.14151389225E+03 -0.12258602966E+03  0.11070980183E+04  0.11331863004E+04  0.15294330000E+03 0.  0.
<mgrwt>
<rscale>  0 0.52782027E+03</rscale>
<asrwt>0</asrwt>
<pdfrwt beam="1">  1        2 0.26936287E+00 0.68473624E+03</pdfrwt>
<pdfrwt beam="2">  1       -2 0.30598433E-01 0.68473624E+03</pdfrwt>
<totfact> 0.93430267E+01</totfact>
</mgrwt>
</event>
<event>
 4    2  0.6387803E-007  0.8421864E+03  0.7818608E-02  0.9626071E-01
          2   -1    0    0  501    0  0.00000000000E+00  0.00000000000E+00  0.16359911490E+04  0.16359911490E+04  0.25500000000E-02 0. -1.
         -2   -1    0    0    0  501 -0.00000000000E+00 -0.00000000000E+00 -0.42357105988E+03  0.42357105988E+03  0.25500000000E-02 0.  1.
    8880023    1    1    2    0    0  0.39248091603E+03  0.34846305133E+03  0.13712181188E+03  0.85327625371E+03  0.65864270000E+03 0.  1.
    8880022    1    1    2    0    0 -0.39248091603E+03 -0.34846305133E+03  0.10752982773E+04  0.12062859552E+04  0.15294330000E+03 0.  0.
<mgrwt>
<rscale>  0 0.75594386E+03</rscale>
<asrwt>0</asrwt>
<pdfrwt beam="1">  1        2 0.25169095E+00 0.84218642E+03</pdfrwt>
<pdfrwt beam="2">  1       -2 0.65164777E-01 0.84218642E+03</pdfrwt>
<totfact> 0.23469403E+01</totfact>
</mgrwt>
</event>
<event>
 4    2  0.6387803E-007  0.7024824E+03  0.7818608E-02  0.9987055E-01
          2   -1    0    0  501    0  0.00000000000E+00  0.00000000000E+00  0.26879113056E+04  0.26879113056E+04  0.25500000000E-02 0. -1.
         -2   -1    0    0    0  501 -0.00000000000E+00 -0.00000000000E+00 -0.15400851873E+03  0.15400851875E+03  0.25500000000E-02 0.  1.
    8880023    1    1    2    0    0  0.13727972673E+03  0.20205339763E+03  0.72243196335E+03  0.10076653446E+04  0.65864270000E+03 0.  1.
    8880022    1    1    2    0    0 -0.13727972673E+03 -0.20205339763E+03  0.18114708235E+04  0.18342544797E+04  0.15294330000E+03 0.  0.
<mgrwt>
<rscale>  0 0.56221509E+03</rscale>
<asrwt>0</asrwt>
<pdfrwt beam="1">  1        2 0.41352481E+00 0.70248239E+03</pdfrwt>
<pdfrwt beam="2">  1       -2 0.23693619E-01 0.70248239E+03</pdfrwt>
<totfact> 0.44918331E+01</totfact>
</mgrwt>
</event>
<event>
 4    2  0.6387803E-007  0.6823477E+03  0.7818608E-02  0.1008026E+00
          2   -1    0    0  501    0  0.00000000000E+00  0.00000000000E+00  0.16730511557E+04  0.16730511557E+04  0.25500000000E-02 0. -1.
         -2   -1    0    0    0  501 -0.00000000000E+00 -0.00000000000E+00 -0.34805057965E+03  0.34805057966E+03  0.25500000000E-02 0.  1.
    8880023    1    1    2    0    0 -0.31514574590E+02 -0.17548514955E+03  0.70533665109E+01  0.68238417506E+03  0.65864270000E+03 0.  1.
    8880022    1    1    2    0    0  0.31514574590E+02  0.17548514955E+03  0.13179472095E+04  0.13387175603E+04  0.15294330000E+03 0.  0.
<mgrwt>
<rscale>  0 0.52266917E+03</rscale>
<asrwt>0</asrwt>
<pdfrwt beam="1">  1        2 0.25739249E+00 0.68234772E+03</pdfrwt>
<pdfrwt beam="2">  1       -2 0.53546242E-01 0.68234772E+03</pdfrwt>
<totfact> 0.34517014E+01</totfact>
</mgrwt>
</event>
<event>
 4    2  0.6387803E-007  0.6826837E+03  0.7818608E-02  0.1007845E+00
         -2   -1    0    0    0  501 -0.00000000000E+00  0.00000000000E+00  0.14362538472E+03  0.14362538474E+03  0.25500000000E-02 0.  1.
          2   -1    0    0  501    0  0.00000000000E+00 -0.00000000000E+00 -0.31979876511E+04  0.31979876511E+04  0.25500000000E-02 0. -1.
    8880023    1    1    2    0    0 -0.40778609412E+02  0.17488259066E+03 -0.70836557386E+03  0.98378798935E+03  0.65864270000E+03 0.  1.
    8880022    1    1    2    0    0  0.40778609412E+02 -0.17488259066E+03 -0.23459966925E+04  0.23578250464E+04  0.15294330000E+03 0. -1.
<mgrwt>
<rscale>  0 0.52340340E+03</rscale>
<asrwt>0</asrwt>
<pdfrwt beam="1">  1        2 0.49199805E+00 0.68268369E+03</pdfrwt>
<pdfrwt beam="2">  1       -2 0.22096215E-01 0.68268369E+03</pdfrwt>
<totfact> 0.25068756E+01</totfact>
</mgrwt>
</event>
<event>
 4    2  0.6387803E-007  0.8981344E+03  0.7818608E-02  0.9529033E-01
         -2   -1    0    0    0  501 -0.00000000000E+00  0.00000000000E+00  0.34357011124E+03  0.34357011125E+03  0.25500000000E-02 0.  1.
          2   -1    0    0  501    0  0.00000000000E+00 -0.00000000000E+00 -0.19916763137E+04  0.19916763137E+04  0.25500000000E-02 0. -1.
    8880023    1    1    2    0    0 -0.56529339154E+03  0.23082150442E+03 -0.50522482625E+03  0.10304841177E+04  0.65864270000E+03 0.  0.
    8880022    1    1    2    0    0  0.56529339154E+03 -0.23082150442E+03 -0.11428813762E+04  0.13047623073E+04  0.15294330000E+03 0.  0.
<mgrwt>
<rscale>  0 0.82176754E+03</rscale>
<asrwt>0</asrwt>
<pdfrwt beam="1">  1        2 0.30641173E+00 0.89813440E+03</pdfrwt>
<pdfrwt beam="2">  1       -2 0.52856941E-01 0.89813440E+03</pdfrwt>
<totfact> 0.23133155E+01</totfact>
</mgrwt>
</event>
<event>
 4    2  0.6387803E-007  0.7670158E+03  0.7818608E-02  0.9787272E-01
          2   -1    0    0  501    0  0.00000000000E+00  0.00000000000E+00  0.20501909149E+04  0.20501909149E+04  0.25500000000E-02 0. -1.
         -2   -1    0    0    0  501 -0.00000000000E+00 -0.00000000000E+00 -0.30989173761E+03  0.30989173762E+03  0.25500000000E-02 0.  1.
    8880023    1    1    2    0    0 -0.21362575527E+03 -0.32995007392E+03  0.24311514837E+03  0.80462301497E+03  0.65864270000E+03 0.  1.
    8880022    1    1    2    0    0  0.21362575527E+03  0.32995007392E+03  0.14971840289E+04  0.15554596376E+04  0.15294330000E+03 0.  1.
<mgrwt>
<rscale>  0 0.66050117E+03</rscale>
<asrwt>0</asrwt>
<pdfrwt beam="1">  1        2 0.31541399E+00 0.76701579E+03</pdfrwt>
<pdfrwt beam="2">  1       -2 0.47675651E-01 0.76701579E+03</pdfrwt>
<totfact> 0.26944710E+01</totfact>
</mgrwt>
</event>
<event>
 4    2  0.6387803E-007  0.8818404E+03  0.7818608E-02  0.9555836E-01
         -2   -1    0    0    0  501 -0.00000000000E+00  0.00000000000E+00  0.43277519710E+03  0.43277519711E+03  0.25500000000E-02 0.  1.
          2   -1    0    0  501    0  0.00000000000E+00 -0.00000000000E+00 -0.14561631987E+04  0.14561631987E+04  0.25500000000E-02 0. -1.
    8880023    1    1    2    0    0 -0.58402801265E+03  0.52379892277E+02 -0.27034937628E+03  0.92235099837E+03  0.65864270000E+03 0.  0.
    8880022    1    1    2    0    0  0.58402801265E+03 -0.52379892277E+02 -0.75303862533E+03  0.96658739746E+03  0.15294330000E+03 0.  0.
<mgrwt>
<rscale>  0 0.80289527E+03</rscale>
<asrwt>0</asrwt>
<pdfrwt beam="1">  1        2 0.22402510E+00 0.88184045E+03</pdfrwt>
<pdfrwt beam="2">  1       -2 0.66580800E-01 0.88184045E+03</pdfrwt>
<totfact> 0.28100959E+01</totfact>
</mgrwt>
</event>
<event>
 4    2  0.6387803E-007  0.9038221E+03  0.7818608E-02  0.9519924E-01
         -2   -1    0    0    0  501 -0.00000000000E+00  0.00000000000E+00  0.36818735980E+03  0.36818735981E+03  0.25500000000E-02 0.  1.
          2   -1    0    0  501    0  0.00000000000E+00 -0.00000000000E+00 -0.17816501565E+04  0.17816501565E+04  0.25500000000E-02 0. -1.
    8880023    1    1    2    0    0 -0.31355609535E+03 -0.53363539134E+03 -0.49124987956E+03  0.10286985983E+04  0.65864270000E+03 0.  1.
    8880022    1    1    2    0    0  0.31355609535E+03  0.53363539134E+03 -0.92221291713E+03  0.11211389180E+04  0.15294330000E+03 0. -1.
<mgrwt>
<rscale>  0 0.82830742E+03</rscale>
<asrwt>0</asrwt>
<pdfrwt beam="1">  1        2 0.27410002E+00 0.90382209E+03</pdfrwt>
<pdfrwt beam="2">  1       -2 0.56644210E-01 0.90382209E+03</pdfrwt>
<totfact> 0.26102810E+01</totfact>
</mgrwt>
</event>
<event>
 4    2  0.6387803E-007  0.9419043E+03  0.7818608E-02  0.9461859E-01
          2   -1    0    0  501    0  0.00000000000E+00  0.00000000000E+00  0.15203627269E+04  0.15203627269E+04  0.25500000000E-02 0. -1.
         -2   -1    0    0    0  501 -0.00000000000E+00 -0.00000000000E+00 -0.65734467766E+03  0.65734467766E+03  0.25500000000E-02 0.  1.
    8880023    1    1    2    0    0 -0.54924284514E+03  0.38949431565E+03 -0.14794037165E+03  0.95345166877E+03  0.65864270000E+03 0.  0.
    8880022    1    1    2    0    0  0.54924284514E+03 -0.38949431565E+03  0.10109584209E+04  0.12242557358E+04  0.15294330000E+03 0.  0.
<mgrwt>
<rscale>  0 0.87155170E+03</rscale>
<asrwt>0</asrwt>
<pdfrwt beam="1">  1        2 0.23390196E+00 0.94190431E+03</pdfrwt>
<pdfrwt beam="2">  1       -2 0.10112995E+00 0.94190431E+03</pdfrwt>
<totfact> 0.99575548E+00</totfact>
</mgrwt>
</event>
<event>
 4    2  0.6387803E-007  0.7626141E+03  0.7818608E-02  0.9798386E-01
         -2   -1    0    0    0  501 -0.00000000000E+00  0.00000000000E+00  0.21771292841E+03  0.21771292843E+03  0.25500000000E-02 0.  1.
          2   -1    0    0  501    0  0.00000000000E+00 -0.00000000000E+00 -0.23305336265E+04  0.23305336265E+04  0.25500000000E-02 0. -1.
    8880023    1    1    2    0    0  0.38438918485E+03  0.38708416252E+01 -0.57320778355E+03  0.95401645595E+03  0.65864270000E+03 0.  1.
    8880022    1    1    2    0    0 -0.38438918485E+03 -0.38708416252E+01 -0.15396129145E+04  0.15942300989E+04  0.15294330000E+03 0.  0.
<mgrwt>
<rscale>  0 0.65449214E+03</rscale>
<asrwt>0</asrwt>
<pdfrwt beam="1">  1        2 0.35854362E+00 0.76261408E+03</pdfrwt>
<pdfrwt beam="2">  1       -2 0.33494298E-01 0.76261408E+03</pdfrwt>
<totfact> 0.37612926E+01</totfact>
</mgrwt>
</event>
<event>
 4    2  0.6387803E-007  0.6769561E+03  0.7818608E-02  0.1011101E+00
         -2   -1    0    0    0  501 -0.00000000000E+00  0.00000000000E+00  0.17099528058E+04  0.17099528058E+04  0.25500000000E-02 0.  1.
          2   -1    0    0  501    0  0.00000000000E+00 -0.00000000000E+00 -0.44486244477E+03  0.44486244478E+03  0.25500000000E-02 0. -1.
    8880023    1    1    2    0    0 -0.12082398923E+03 -0.99302049698E+02  0.16099186269E+04  0.17464557037E+04  0.65864270000E+03 0.  1.
    8880022    1    1    2    0    0  0.12082398923E+03  0.99302049698E+02 -0.34482826596E+03  0.40835954680E+03  0.15294330000E+03 0.  0.
<mgrwt>
<rscale>  0 0.51039538E+03</rscale>
<asrwt>0</asrwt>
<pdfrwt beam="1">  1        2 0.68440376E-01 0.67695608E+03</pdfrwt>
<pdfrwt beam="2">  1       -2 0.26306966E+00 0.67695608E+03</pdfrwt>
<totfact> 0.39256119E+00</totfact>
</mgrwt>
</event>
<event>
 4    2  0.6387803E-007  0.9687572E+03  0.7818608E-02  0.9423625E-01
         -2   -1    0    0    0  501 -0.00000000000E+00  0.00000000000E+00  0.64443439137E+03  0.64443439138E+03  0.25500000000E-02 0.  1.
          2   -1    0    0  501    0  0.00000000000E+00 -0.00000000000E+00 -0.34965780273E+04  0.34965780273E+04  0.25500000000E-02 0. -1.
    8880023    1    1    2    0    0  0.70959145126E+03 -0.34063759764E+02  0.21216446443E+03  0.99171786999E+03  0.65864270000E+03 0.  0.
    8880022    1    1    2    0    0 -0.70959145126E+03  0.34063759764E+02 -0.30643081004E+04  0.31492945487E+04  0.15294330000E+03 0.  0.
<mgrwt>
<rscale>  0 0.90156670E+03</rscale>
<asrwt>0</asrwt>
<pdfrwt beam="1">  1        2 0.53793507E+00 0.96875723E+03</pdfrwt>
<pdfrwt beam="2">  1       -2 0.99143755E-01 0.96875723E+03</pdfrwt>
<totfact> 0.71628081E-01</totfact>
</mgrwt>
</event>
<event>
 4    2  0.6387803E-007  0.7235568E+03  0.7818608E-02  0.9910730E-01
         -2   -1    0    0    0  501 -0.00000000000E+00  0.00000000000E+00  0.16262827047E+03  0.16262827049E+03  0.25500000000E-02 0.  1.
          2   -1    0    0  501    0  0.00000000000E+00 -0.00000000000E+00 -0.20697040416E+04  0.20697040416E+04  0.25500000000E-02 0. -1.
    8880023    1    1    2    0    0  0.29929736172E+03 -0.12053180251E+02 -0.81598036973E+03  0.10905770766E+04  0.65864270000E+03 0.  0.
    8880022    1    1    2    0    0 -0.29929736172E+03  0.12053180251E+02 -0.10910954014E+04  0.11417552355E+04  0.15294330000E+03 0.  0.
<mgrwt>
<rscale>  0 0.59744081E+03</rscale>
<asrwt>0</asrwt>
<pdfrwt beam="1">  1        2 0.31841599E+00 0.72355677E+03</pdfrwt>
<pdfrwt beam="2">  1       -2 0.25019735E-01 0.72355677E+03</pdfrwt>
<totfact> 0.90171162E+01</totfact>
</mgrwt>
</event>
<event>
 4    2  0.6387803E-007  0.7640614E+03  0.7818608E-02  0.9794704E-01
          2   -1    0    0  501    0  0.00000000000E+00  0.00000000000E+00  0.91405006511E+03  0.91405006511E+03  0.25500000000E-02 0. -1.
         -2   -1    0    0    0  501 -0.00000000000E+00 -0.00000000000E+00 -0.12224152099E+04  0.12224152099E+04  0.25500000000E-02 0.  1.
    8880023    1    1    2    0    0 -0.17858606490E+03  0.34363734231E+03 -0.10424738999E+04  0.12924943496E+04  0.65864270000E+03 0.  0.
    8880022    1    1    2    0    0  0.17858606490E+03 -0.34363734231E+03  0.73410875508E+03  0.84397092539E+03  0.15294330000E+03 0.  0.
<mgrwt>
<rscale>  0 0.65647521E+03</rscale>
<asrwt>0</asrwt>
<pdfrwt beam="1">  1        2 0.14062309E+00 0.76406139E+03</pdfrwt>
<pdfrwt beam="2">  1       -2 0.18806388E+00 0.76406139E+03</pdfrwt>
<totfact> 0.46712500E+00</totfact>
</mgrwt>
</event>
<event>
 4    2  0.6387803E-007  0.7231647E+03  0.7818608E-02  0.9912020E-01
         -2   -1    0    0    0  501 -0.00000000000E+00  0.00000000000E+00  0.22675556209E+03  0.22675556211E+03  0.25500000000E-02 0.  1.
          2   -1    0    0  501    0  0.00000000000E+00 -0.00000000000E+00 -0.18326827336E+04  0.18326827336E+04  0.25500000000E-02 0. -1.
    8880023    1    1    2    0    0  0.25683233028E+03  0.15229633128E+03 -0.44067555782E+03  0.84685428022E+03  0.65864270000E+03 0.  1.
    8880022    1    1    2    0    0 -0.25683233028E+03 -0.15229633128E+03 -0.11652516137E+04  0.12125840155E+04  0.15294330000E+03 0.  0.
<mgrwt>
<rscale>  0 0.59682289E+03</rscale>
<asrwt>0</asrwt>
<pdfrwt beam="1">  1        2 0.28195118E+00 0.72316473E+03</pdfrwt>
<pdfrwt beam="2">  1       -2 0.34885472E-01 0.72316473E+03</pdfrwt>
<totfact> 0.65612831E+01</totfact>
</mgrwt>
</event>
<event>
 4    2  0.6387803E-007  0.1054355E+04  0.7818608E-02  0.9313664E-01
         -2   -1    0    0    0  501 -0.00000000000E+00  0.00000000000E+00  0.70089832800E+03  0.70089832801E+03  0.25500000000E-02 0.  1.
          2   -1    0    0  501    0  0.00000000000E+00 -0.00000000000E+00 -0.28511383851E+04  0.28511383851E+04  0.25500000000E-02 0. -1.
    8880023    1    1    2    0    0  0.27524383717E+03 -0.77594831072E+03  0.18565410199E+03  0.10705758276E+04  0.65864270000E+03 0.  0.
    8880022    1    1    2    0    0 -0.27524383717E+03  0.77594831072E+03 -0.23358941591E+04  0.24814608855E+04  0.15294330000E+03 0.  0.
<mgrwt>
<rscale>  0 0.99534604E+03</rscale>
<asrwt>0</asrwt>
<pdfrwt beam="1">  1        2 0.43863667E+00 0.10543553E+04</pdfrwt>
<pdfrwt beam="2">  1       -2 0.10783051E+00 0.10543553E+04</pdfrwt>
<totfact> 0.14944962E+00</totfact>
</mgrwt>
</event>
<event>
 4    2  0.6387803E-007  0.6865423E+03  0.7818608E-02  0.1005841E+00
          2   -1    0    0  501    0  0.00000000000E+00  0.00000000000E+00  0.11599685124E+04  0.11599685124E+04  0.25500000000E-02 0. -1.
         -2   -1    0    0    0  501 -0.00000000000E+00 -0.00000000000E+00 -0.39100840639E+03  0.39100840639E+03  0.25500000000E-02 0.  1.
    8880023    1    1    2    0    0 -0.82686561456E+02 -0.17519450368E+03 -0.57020590321E+02  0.68890618777E+03  0.65864270000E+03 0.  1.
    8880022    1    1    2    0    0  0.82686561456E+02  0.17519450368E+03  0.82598069636E+03  0.86207073105E+03  0.15294330000E+03 0.  0.
<mgrwt>
<rscale>  0 0.53161487E+03</rscale>
<asrwt>0</asrwt>
<pdfrwt beam="1">  1        2 0.17845669E+00 0.68654234E+03</pdfrwt>
<pdfrwt beam="2">  1       -2 0.60155141E-01 0.68654234E+03</pdfrwt>
<totfact> 0.52775333E+01</totfact>
</mgrwt>
</event>
<event>
 4    2  0.6387803E-007  0.7032726E+03  0.7818608E-02  0.9983887E-01
          2   -1    0    0  501    0  0.00000000000E+00  0.00000000000E+00  0.16106925649E+04  0.16106925649E+04  0.25500000000E-02 0. -1.
         -2   -1    0    0    0  501 -0.00000000000E+00 -0.00000000000E+00 -0.19621064508E+03  0.19621064510E+03  0.25500000000E-02 0.  1.
    8880023    1    1    2    0    0  0.58959369597E+02 -0.23938665890E+03  0.54332185696E+03  0.88870187703E+03  0.65864270000E+03 0.  1.
    8880022    1    1    2    0    0 -0.58959369597E+02  0.23938665890E+03  0.87116006282E+03  0.91820133292E+03  0.15294330000E+03 0.  0.
<mgrwt>
<rscale>  0 0.56362458E+03</rscale>
<asrwt>0</asrwt>
<pdfrwt beam="1">  1        2 0.24779884E+00 0.70327263E+03</pdfrwt>
<pdfrwt beam="2">  1       -2 0.30186255E-01 0.70327263E+03</pdfrwt>
<totfact> 0.11408219E+02</totfact>
</mgrwt>
</event>
<event>
 4    2  0.6387803E-007  0.1663192E+04  0.7818608E-02  0.8802245E-01
         -2   -1    0    0    0  501 -0.00000000000E+00  0.00000000000E+00  0.15587387512E+04  0.15587387512E+04  0.25500000000E-02 0.  1.
          2   -1    0    0  501    0  0.00000000000E+00 -0.00000000000E+00 -0.30870167782E+04  0.30870167782E+04  0.25500000000E-02 0. -1.
    8880023    1    1    2    0    0 -0.38562821983E+03  0.14777313145E+04  0.80904570268E+03  0.18495307830E+04  0.65864270000E+03 0.  0.
    8880022    1    1    2    0    0  0.38562821983E+03 -0.14777313145E+04 -0.23373237297E+04  0.27962247464E+04  0.15294330000E+03 0.  0.
<mgrwt>
<rscale>  0 0.16301365E+04</rscale>
<asrwt>0</asrwt>
<pdfrwt beam="1">  1        2 0.47492566E+00 0.16631925E+04</pdfrwt>
<pdfrwt beam="2">  1       -2 0.23980596E+00 0.16631925E+04</pdfrwt>
<totfact> 0.10508334E-01</totfact>
</mgrwt>
</event>
<event>
 4    2  0.6387803E-007  0.1113652E+04  0.7818608E-02  0.9246007E-01
          2   -1    0    0  501    0  0.00000000000E+00  0.00000000000E+00  0.38181724683E+04  0.38181724683E+04  0.25500000000E-02 0. -1.
         -2   -1    0    0    0  501 -0.00000000000E+00 -0.00000000000E+00 -0.55877765879E+03  0.55877765879E+03  0.25500000000E-02 0.  1.
    8880023    1    1    2    0    0 -0.81832085534E+03  0.36981267172E+03  0.13420869382E+03  0.11217096836E+04  0.65864270000E+03 0.  0.
    8880022    1    1    2    0    0  0.81832085534E+03 -0.36981267172E+03  0.31251861157E+04  0.32552404435E+04  0.15294330000E+03 0.  0.
<mgrwt>
<rscale>  0 0.10590926E+04</rscale>
<asrwt>0</asrwt>
<pdfrwt beam="1">  1        2 0.58741115E+00 0.11136519E+04</pdfrwt>
<pdfrwt beam="2">  1       -2 0.85965793E-01 0.11136519E+04</pdfrwt>
<totfact> 0.57233123E-01</totfact>
</mgrwt>
</event>
<event>
 4    2  0.6387803E-007  0.8571186E+03  0.7818608E-02  0.9598710E-01
          2   -1    0    0  501    0  0.00000000000E+00  0.00000000000E+00  0.26099054656E+04  0.26099054656E+04  0.25500000000E-02 0. -1.
         -2   -1    0    0    0  501 -0.00000000000E+00 -0.00000000000E+00 -0.26053559679E+03  0.26053559680E+03  0.25500000000E-02 0.  1.
    8880023    1    1    2    0    0  0.43292971447E+03 -0.33676989513E+03  0.64278035898E+03  0.10713631019E+04  0.65864270000E+03 0.  1.
    8880022    1    1    2    0    0 -0.43292971447E+03  0.33676989513E+03  0.17065895099E+04  0.17990779606E+04  0.15294330000E+03 0.  0.
<mgrwt>
<rscale>  0 0.77381647E+03</rscale>
<asrwt>0</asrwt>
<pdfrwt beam="1">  1        2 0.40152391E+00 0.85711861E+03</pdfrwt>
<pdfrwt beam="2">  1       -2 0.40082400E-01 0.85711861E+03</pdfrwt>
<totfact> 0.18263464E+01</totfact>
</mgrwt>
</event>
<event>
 4    2  0.6387803E-007  0.6646472E+03  0.7818608E-02  0.1019831E+00
         -2   -1    0    0    0  501 -0.00000000000E+00  0.00000000000E+00  0.44642502096E+03  0.44642502097E+03  0.25500000000E-02 0.  1.
          2   -1    0    0  501    0  0.00000000000E+00 -0.00000000000E+00 -0.16466620387E+04  0.16466620387E+04  0.25500000000E-02 0. -1.
    8880023    1    1    2    0    0 -0.87836938339E+02 -0.15179732021E+02  0.19027905427E+03  0.69134801422E+03  0.65864270000E+03 0.  1.
    8880022    1    1    2    0    0  0.87836938339E+02  0.15179732021E+02 -0.13905160721E+04  0.14017390455E+04  0.15294330000E+03 0.  0.
<mgrwt>
<rscale>  0 0.47747571E+03</rscale>
<asrwt>0</asrwt>
<pdfrwt beam="1">  1        2 0.25333262E+00 0.66464724E+03</pdfrwt>
<pdfrwt beam="2">  1       -2 0.68680773E-01 0.66464724E+03</pdfrwt>
<totfact> 0.21132739E+01</totfact>
</mgrwt>
</event>
<event>
 4    2  0.6387803E-007  0.6796581E+03  0.7818608E-02  0.1009518E+00
          2   -1    0    0  501    0  0.00000000000E+00  0.00000000000E+00  0.17287797340E+04  0.17287797340E+04  0.25500000000E-02 0. -1.
         -2   -1    0    0    0  501 -0.00000000000E+00 -0.00000000000E+00 -0.43690750137E+03  0.43690750138E+03  0.25500000000E-02 0.  1.
    8880023    1    1    2    0    0  0.10124069245E+03 -0.13369809661E+03 -0.15830884312E+03  0.69785152785E+03  0.65864270000E+03 0.  1.
    8880022    1    1    2    0    0 -0.10124069245E+03  0.13369809661E+03  0.14501810757E+04  0.14678357075E+04  0.15294330000E+03 0.  0.
<mgrwt>
<rscale>  0 0.51666751E+03</rscale>
<asrwt>0</asrwt>
<pdfrwt beam="1">  1        2 0.26596611E+00 0.67965805E+03</pdfrwt>
<pdfrwt beam="2">  1       -2 0.67216539E-01 0.67965805E+03</pdfrwt>
<totfact> 0.19928194E+01</totfact>
</mgrwt>
</event>
<event>
 4    2  0.6387803E-007  0.7039113E+03  0.7818608E-02  0.9981347E-01
          2   -1    0    0  501    0  0.00000000000E+00  0.00000000000E+00  0.19605389882E+04  0.19605389882E+04  0.25500000000E-02 0. -1.
         -2   -1    0    0    0  501 -0.00000000000E+00 -0.00000000000E+00 -0.21979757402E+03  0.21979757404E+03  0.25500000000E-02 0.  1.
    8880023    1    1    2    0    0  0.22831404030E+03 -0.97742329607E+02  0.40288161317E+03  0.81105157942E+03  0.65864270000E+03 0.  1.
    8880022    1    1    2    0    0 -0.22831404030E+03  0.97742329607E+02  0.13378598010E+04  0.13692849828E+04  0.15294330000E+03 0.  0.
<mgrwt>
<rscale>  0 0.56475762E+03</rscale>
<asrwt>0</asrwt>
<pdfrwt beam="1">  1        2 0.30162137E+00 0.70391127E+03</pdfrwt>
<pdfrwt beam="2">  1       -2 0.33815012E-01 0.70391127E+03</pdfrwt>
<totfact> 0.59440914E+01</totfact>
</mgrwt>
</event>
<event>
 4    2  0.6387803E-007  0.7161114E+03  0.7818608E-02  0.9935970E-01
          2   -1    0    0  501    0  0.00000000000E+00  0.00000000000E+00  0.23592382829E+04  0.23592382829E+04  0.25500000000E-02 0. -1.
         -2   -1    0    0    0  501 -0.00000000000E+00 -0.00000000000E+00 -0.30737801461E+03  0.30737801462E+03  0.25500000000E-02 0.  1.
    8880023    1    1    2    0    0  0.28022594316E+03  0.21880759648E+02  0.14189943551E+03  0.73003493267E+03  0.65864270000E+03 0.  1.
    8880022    1    1    2    0    0 -0.28022594316E+03 -0.21880759648E+02  0.19099608328E+04  0.19365813648E+04  0.15294330000E+03 0.  0.
<mgrwt>
<rscale>  0 0.58549252E+03</rscale>
<asrwt>0</asrwt>
<pdfrwt beam="1">  1        2 0.36295974E+00 0.71611141E+03</pdfrwt>
<pdfrwt beam="2">  1       -2 0.47288925E-01 0.71611141E+03</pdfrwt>
<totfact> 0.18633051E+01</totfact>
</mgrwt>
</event>
<event>
 4    2  0.6387803E-007  0.6671263E+03  0.7818608E-02  0.1017812E+00
          2   -1    0    0  501    0  0.00000000000E+00  0.00000000000E+00  0.61823508084E+03  0.61823508085E+03  0.25500000000E-02 0. -1.
         -2   -1    0    0    0  501 -0.00000000000E+00 -0.00000000000E+00 -0.53525913775E+03  0.53525913776E+03  0.25500000000E-02 0.  1.
    8880023    1    1    2    0    0 -0.15772122714E+02 -0.10487420812E+03 -0.29710328828E+03  0.73029304361E+03  0.65864270000E+03 0.  1.
    8880022    1    1    2    0    0  0.15772122714E+02  0.10487420812E+03  0.38007923137E+03  0.42320117499E+03  0.15294330000E+03 0.  0.
<mgrwt>
<rscale>  0 0.48484370E+03</rscale>
<asrwt>0</asrwt>
<pdfrwt beam="1">  1        2 0.95113089E-01 0.66712635E+03</pdfrwt>
<pdfrwt beam="2">  1       -2 0.82347560E-01 0.66712635E+03</pdfrwt>
<totfact> 0.63048692E+01</totfact>
</mgrwt>
</event>
<event>
 4    2  0.6387803E-007  0.6984037E+03  0.7818608E-02  0.1000389E+00
         -2   -1    0    0    0  501 -0.00000000000E+00  0.00000000000E+00  0.21424984158E+03  0.21424984160E+03  0.25500000000E-02 0.  1.
          2   -1    0    0  501    0  0.00000000000E+00 -0.00000000000E+00 -0.19692018355E+04  0.19692018355E+04  0.25500000000E-02 0. -1.
    8880023    1    1    2    0    0  0.22993271456E+03 -0.32992954980E+02 -0.40960136338E+03  0.80965490887E+03  0.65864270000E+03 0.  1.
    8880022    1    1    2    0    0 -0.22993271456E+03  0.32992954980E+02 -0.13453506306E+04  0.13737967682E+04  0.15294330000E+03 0.  0.
<mgrwt>
<rscale>  0 0.55480061E+03</rscale>
<asrwt>0</asrwt>
<pdfrwt beam="1">  1        2 0.30295412E+00 0.69840375E+03</pdfrwt>
<pdfrwt beam="2">  1       -2 0.32961516E-01 0.69840375E+03</pdfrwt>
<totfact> 0.61747551E+01</totfact>
</mgrwt>
</event>
<event>
 4    2  0.6387803E-007  0.6755142E+03  0.7818608E-02  0.1011984E+00
         -2   -1    0    0    0  501 -0.00000000000E+00  0.00000000000E+00  0.23919233121E+03  0.23919233123E+03  0.25500000000E-02 0.  1.
          2   -1    0    0  501    0  0.00000000000E+00 -0.00000000000E+00 -0.25089304333E+04  0.25089304333E+04  0.25500000000E-02 0. -1.
    8880023    1    1    2    0    0  0.84572962935E+02  0.12392211458E+03 -0.25502571545E+03  0.72205096658E+03  0.65864270000E+03 0.  1.
    8880022    1    1    2    0    0 -0.84572962935E+02 -0.12392211458E+03 -0.20147123866E+04  0.20260717979E+04  0.15294330000E+03 0.  0.
<mgrwt>
<rscale>  0 0.50693650E+03</rscale>
<asrwt>0</asrwt>
<pdfrwt beam="1">  1        2 0.38598928E+00 0.67551424E+03</pdfrwt>
<pdfrwt beam="2">  1       -2 0.36798822E-01 0.67551424E+03</pdfrwt>
<totfact> 0.25293077E+01</totfact>
</mgrwt>
</event>
<event>
 4    2  0.6387803E-007  0.8493172E+03  0.7818608E-02  0.9612856E-01
          2   -1    0    0  501    0  0.00000000000E+00  0.00000000000E+00  0.26344319126E+04  0.26344319126E+04  0.25500000000E-02 0. -1.
         -2   -1    0    0    0  501 -0.00000000000E+00 -0.00000000000E+00 -0.29745346081E+03  0.29745346082E+03  0.25500000000E-02 0.  1.
    8880023    1    1    2    0    0 -0.53592867692E+03 -0.17607606158E+02  0.44376062804E+03  0.95826054693E+03  0.65864270000E+03 0.  0.
    8880022    1    1    2    0    0  0.53592867692E+03  0.17607606158E+02  0.18932178237E+04  0.19736248264E+04  0.15294330000E+03 0. -1.
<mgrwt>
<rscale>  0 0.76451103E+03</rscale>
<asrwt>0</asrwt>
<pdfrwt beam="1">  1        2 0.40529721E+00 0.84931724E+03</pdfrwt>
<pdfrwt beam="2">  1       -2 0.45762072E-01 0.84931724E+03</pdfrwt>
<totfact> 0.13613590E+01</totfact>
</mgrwt>
</event>
<event>
 4    2  0.6387803E-007  0.8501874E+03  0.7818608E-02  0.9611262E-01
         -2   -1    0    0    0  501 -0.00000000000E+00  0.00000000000E+00  0.19268206575E+04  0.19268206575E+04  0.25500000000E-02 0.  1.
          2   -1    0    0  501    0  0.00000000000E+00 -0.00000000000E+00 -0.27919931909E+03  0.27919931910E+03  0.25500000000E-02 0. -1.
    8880023    1    1    2    0    0 -0.53627929498E+03 -0.37588997080E+02  0.68043948167E+03  0.10889520235E+04  0.65864270000E+03 0.  0.
    8880022    1    1    2    0    0  0.53627929498E+03  0.37588997080E+02  0.96718185678E+03  0.11170679532E+04  0.15294330000E+03 0.  0.
<mgrwt>
<rscale>  0 0.76555234E+03</rscale>
<asrwt>0</asrwt>
<pdfrwt beam="1">  1        2 0.42953742E-01 0.85018740E+03</pdfrwt>
<pdfrwt beam="2">  1       -2 0.29643395E+00 0.85018740E+03</pdfrwt>
<totfact> 0.40772632E+00</totfact>
</mgrwt>
</event>
<event>
 4    2  0.6387803E-007  0.6728768E+03  0.7818608E-02  0.1013679E+00
          2   -1    0    0  501    0  0.00000000000E+00  0.00000000000E+00  0.16693209461E+04  0.16693209461E+04  0.25500000000E-02 0. -1.
         -2   -1    0    0    0  501 -0.00000000000E+00 -0.00000000000E+00 -0.61062559373E+03  0.61062559374E+03  0.25500000000E-02 0.  1.
    8880023    1    1    2    0    0 -0.95524545627E+02  0.99136399457E+02 -0.41591821484E+03  0.79104433012E+03  0.65864270000E+03 0.  1.
    8880022    1    1    2    0    0  0.95524545627E+02 -0.99136399457E+02  0.14746135672E+04  0.14889022097E+04  0.15294330000E+03 0.  0.
<mgrwt>
<rscale>  0 0.50038172E+03</rscale>
<asrwt>0</asrwt>
<pdfrwt beam="1">  1        2 0.25681860E+00 0.67287679E+03</pdfrwt>
<pdfrwt beam="2">  1       -2 0.93942401E-01 0.67287679E+03</pdfrwt>
<totfact> 0.10148221E+01</totfact>
</mgrwt>
</event>
<event>
 4    2  0.6387803E-007  0.9517585E+03  0.7818608E-02  0.9447588E-01
         -2   -1    0    0    0  501 -0.00000000000E+00  0.00000000000E+00  0.84235497642E+03  0.84235497643E+03  0.25500000000E-02 0.  1.
          2   -1    0    0  501    0  0.00000000000E+00 -0.00000000000E+00 -0.12783134153E+04  0.12783134153E+04  0.25500000000E-02 0. -1.
    8880023    1    1    2    0    0  0.69116510931E+02 -0.68356201949E+03  0.39604573650E+03  0.10308717467E+04  0.65864270000E+03 0.  0.
    8880022    1    1    2    0    0 -0.69116510931E+02  0.68356201949E+03 -0.83200417537E+03  0.10897966450E+04  0.15294330000E+03 0.  0.
<mgrwt>
<rscale>  0 0.88260710E+03</rscale>
<asrwt>0</asrwt>
<pdfrwt beam="1">  1        2 0.19666360E+00 0.95175855E+03</pdfrwt>
<pdfrwt beam="2">  1       -2 0.12959307E+00 0.95175855E+03</pdfrwt>
<totfact> 0.74312645E+00</totfact>
</mgrwt>
</event>
<event>
 4    2  0.6387803E-007  0.7114520E+03  0.7818608E-02  0.9952648E-01
         -2   -1    0    0    0  501 -0.00000000000E+00  0.00000000000E+00  0.32718935052E+03  0.32718935053E+03  0.25500000000E-02 0.  1.
          2   -1    0    0  501    0  0.00000000000E+00 -0.00000000000E+00 -0.95479873032E+03  0.95479873032E+03  0.25500000000E-02 0. -1.
    8880023    1    1    2    0    0  0.95590730043E+02 -0.25142809338E+03 -0.17320042432E+03  0.73223102028E+03  0.65864270000E+03 0.  1.
    8880022    1    1    2    0    0 -0.95590730043E+02  0.25142809338E+03 -0.45440895548E+03  0.54975706057E+03  0.15294330000E+03 0.  0.
<mgrwt>
<rscale>  0 0.57776187E+03</rscale>
<asrwt>0</asrwt>
<pdfrwt beam="1">  1        2 0.14689211E+00 0.71145195E+03</pdfrwt>
<pdfrwt beam="2">  1       -2 0.50336824E-01 0.71145195E+03</pdfrwt>
<totfact> 0.10221806E+02</totfact>
</mgrwt>
</event>
<event>
 4    2  0.6387803E-007  0.7969186E+03  0.7818608E-02  0.9717499E-01
         -2   -1    0    0    0  501 -0.00000000000E+00  0.00000000000E+00  0.25528594838E+03  0.25528594839E+03  0.25500000000E-02 0.  1.
          2   -1    0    0  501    0  0.00000000000E+00 -0.00000000000E+00 -0.28576159549E+04  0.28576159549E+04  0.25500000000E-02 0. -1.
    8880023    1    1    2    0    0 -0.24250118278E+03 -0.37744159927E+03 -0.46291870252E+03  0.92161429889E+03  0.65864270000E+03 0.  1.
    8880022    1    1    2    0    0  0.24250118278E+03  0.37744159927E+03 -0.21394113040E+04  0.21912876044E+04  0.15294330000E+03 0.  0.
<mgrwt>
<rscale>  0 0.69984414E+03</rscale>
<asrwt>0</asrwt>
<pdfrwt beam="1">  1        2 0.43963320E+00 0.79691856E+03</pdfrwt>
<pdfrwt beam="2">  1       -2 0.39274763E-01 0.79691856E+03</pdfrwt>
<totfact> 0.13718542E+01</totfact>
</mgrwt>
</event>
<event>
 4    2  0.6387803E-007  0.1699879E+04  0.7818608E-02  0.8780040E-01
          2   -1    0    0  501    0  0.00000000000E+00  0.00000000000E+00  0.27001517504E+04  0.27001517504E+04  0.25500000000E-02 0. -1.
         -2   -1    0    0    0  501 -0.00000000000E+00 -0.00000000000E+00 -0.13008395533E+04  0.13008395533E+04  0.25500000000E-02 0.  1.
    8880023    1    1    2    0    0 -0.15484488991E+04 -0.24101008296E+03 -0.25299636980E+03  0.17186032766E+04  0.65864270000E+03 0.  0.
    8880022    1    1    2    0    0  0.15484488991E+04  0.24101008296E+03  0.16523085668E+04  0.22823880271E+04  0.15294330000E+03 0.  0.
<mgrwt>
<rscale>  0 0.16676385E+04</rscale>
<asrwt>0</asrwt>
<pdfrwt beam="1">  1        2 0.41540795E+00 0.16998794E+04</pdfrwt>
<pdfrwt beam="2">  1       -2 0.20012917E+00 0.16998794E+04</pdfrwt>
<totfact> 0.32433101E-01</totfact>
</mgrwt>
</event>
<event>
 4    2  0.6387803E-007  0.6930680E+03  0.7818608E-02  0.1002727E+00
          2   -1    0    0  501    0  0.00000000000E+00  0.00000000000E+00  0.41018541000E+03  0.41018541001E+03  0.25500000000E-02 0. -1.
         -2   -1    0    0    0  501 -0.00000000000E+00 -0.00000000000E+00 -0.77790142409E+03  0.77790142409E+03  0.25500000000E-02 0.  1.
    8880023    1    1    2    0    0  0.24810670142E+02  0.21428379362E+03 -0.53468940328E+03  0.87534911767E+03  0.65864270000E+03 0.  1.
    8880022    1    1    2    0    0 -0.24810670142E+02 -0.21428379362E+03  0.16697338919E+03  0.31273771643E+03  0.15294330000E+03 0.  0.
<mgrwt>
<rscale>  0 0.54470428E+03</rscale>
<asrwt>0</asrwt>
<pdfrwt beam="1">  1        2 0.63105448E-01 0.69306805E+03</pdfrwt>
<pdfrwt beam="2">  1       -2 0.11967714E+00 0.69306805E+03</pdfrwt>
<totfact> 0.41954216E+01</totfact>
</mgrwt>
</event>
<event>
 4    2  0.6387803E-007  0.1046201E+04  0.7818608E-02  0.9323462E-01
          2   -1    0    0  501    0  0.00000000000E+00  0.00000000000E+00  0.11975250241E+04  0.11975250241E+04  0.25500000000E-02 0. -1.
         -2   -1    0    0    0  501 -0.00000000000E+00 -0.00000000000E+00 -0.93966764430E+03  0.93966764431E+03  0.25500000000E-02 0.  1.
    8880023    1    1    2    0    0 -0.60319095925E+03  0.54487312991E+03 -0.35824205344E+03  0.11058361706E+04  0.65864270000E+03 0.  0.
    8880022    1    1    2    0    0  0.60319095925E+03 -0.54487312991E+03  0.61609943326E+03  0.10313564979E+04  0.15294330000E+03 0.  0.
<mgrwt>
<rscale>  0 0.98651266E+03</rscale>
<asrwt>0</asrwt>
<pdfrwt beam="1">  1        2 0.18423462E+00 0.10462009E+04</pdfrwt>
<pdfrwt beam="2">  1       -2 0.14456425E+00 0.10462009E+04</pdfrwt>
<totfact> 0.61954181E+00</totfact>
</mgrwt>
</event>
<event>
 4    2  0.6387803E-007  0.1263371E+04  0.7818608E-02  0.9097855E-01
          2   -1    0    0  501    0  0.00000000000E+00  0.00000000000E+00  0.32316889667E+04  0.32316889667E+04  0.25500000000E-02 0. -1.
         -2   -1    0    0    0  501 -0.00000000000E+00 -0.00000000000E+00 -0.97833722038E+03  0.97833722039E+03  0.25500000000E-02 0.  1.
    8880023    1    1    2    0    0  0.37170657519E+03 -0.10119928793E+04 -0.41359699546E+03  0.13293487303E+04  0.65864270000E+03 0.  0.
    8880022    1    1    2    0    0 -0.37170657519E+03  0.10119928793E+04  0.26669487418E+04  0.28806774568E+04  0.15294330000E+03 0.  0.
<mgrwt>
<rscale>  0 0.12172909E+04</rscale>
<asrwt>0</asrwt>
<pdfrwt beam="1">  1        2 0.49718292E+00 0.12633707E+04</pdfrwt>
<pdfrwt beam="2">  1       -2 0.15051342E+00 0.12633707E+04</pdfrwt>
<totfact> 0.35961468E-01</totfact>
</mgrwt>
</event>
<event>
 4    2  0.6387803E-007  0.9265239E+03  0.7818608E-02  0.9484728E-01
         -2   -1    0    0    0  501 -0.00000000000E+00  0.00000000000E+00  0.46505093986E+03  0.46505093987E+03  0.25500000000E-02 0.  1.
          2   -1    0    0  501    0  0.00000000000E+00 -0.00000000000E+00 -0.14558601681E+04  0.14558601681E+04  0.25500000000E-02 0. -1.
    8880023    1    1    2    0    0  0.47075067239E+03 -0.45058866800E+03 -0.80206197265E+03  0.12254590803E+04  0.65864270000E+03 0. -1.
    8880022    1    1    2    0    0 -0.47075067239E+03  0.45058866800E+03 -0.18874725562E+03  0.69545202768E+03  0.15294330000E+03 0.  1.
<mgrwt>
<rscale>  0 0.85419223E+03</rscale>
<asrwt>0</asrwt>
<pdfrwt beam="1">  1        2 0.22397848E+00 0.92652391E+03</pdfrwt>
<pdfrwt beam="2">  1       -2 0.71546299E-01 0.92652391E+03</pdfrwt>
<totfact> 0.23926827E+01</totfact>
</mgrwt>
</event>
<event>
 4    2  0.6387803E-007  0.7556527E+03  0.7818608E-02  0.9816495E-01
         -2   -1    0    0    0  501 -0.00000000000E+00  0.00000000000E+00  0.38248288412E+03  0.38248288413E+03  0.25500000000E-02 0.  1.
          2   -1    0    0  501    0  0.00000000000E+00 -0.00000000000E+00 -0.11597343254E+04  0.11597343254E+04  0.25500000000E-02 0. -1.
    8880023    1    1    2    0    0 -0.17169811108E+03 -0.32820799122E+03 -0.10963866272E+03  0.76356503945E+03  0.65864270000E+03 0.  0.
    8880022    1    1    2    0    0  0.17169811108E+03  0.32820799122E+03 -0.66761277856E+03  0.77865217007E+03  0.15294330000E+03 0.  0.
<mgrwt>
<rscale>  0 0.64484788E+03</rscale>
<asrwt>0</asrwt>
<pdfrwt beam="1">  1        2 0.17842066E+00 0.75565265E+03</pdfrwt>
<pdfrwt beam="2">  1       -2 0.58843521E-01 0.75565265E+03</pdfrwt>
<totfact> 0.54939700E+01</totfact>
</mgrwt>
</event>
<event>
 4    2  0.6387803E-007  0.9018968E+03  0.7818608E-02  0.9522993E-01
          2   -1    0    0  501    0  0.00000000000E+00  0.00000000000E+00  0.61344907683E+03  0.61344907684E+03  0.25500000000E-02 0. -1.
         -2   -1    0    0    0  501 -0.00000000000E+00 -0.00000000000E+00 -0.11641204340E+04  0.11641204340E+04  0.25500000000E-02 0.  1.
    8880023    1    1    2    0    0  0.19015867191E+03 -0.58604380480E+03 -0.68023245153E+03  0.11296610359E+04  0.65864270000E+03 0. -1.
    8880022    1    1    2    0    0 -0.19015867191E+03  0.58604380480E+03  0.12956109441E+03  0.64790847490E+03  0.15294330000E+03 0.  0.
<mgrwt>
<rscale>  0 0.82609630E+03</rscale>
<asrwt>0</asrwt>
<pdfrwt beam="1">  1        2 0.94376781E-01 0.90189682E+03</pdfrwt>
<pdfrwt beam="2">  1       -2 0.17909545E+00 0.90189682E+03</pdfrwt>
<totfact> 0.88979915E+00</totfact>
</mgrwt>
</event>
<event>
 4    2  0.6387803E-007  0.6722418E+03  0.7818608E-02  0.1014104E+00
         -2   -1    0    0    0  501 -0.00000000000E+00  0.00000000000E+00  0.57029976809E+03  0.57029976810E+03  0.25500000000E-02 0.  1.
          2   -1    0    0  501    0  0.00000000000E+00 -0.00000000000E+00 -0.11474102243E+04  0.11474102243E+04  0.25500000000E-02 0. -1.
    8880023    1    1    2    0    0 -0.58712632359E+02  0.12104422516E+03  0.35734095969E+03  0.76131573304E+03  0.65864270000E+03 0.  1.
    8880022    1    1    2    0    0  0.58712632359E+02 -0.12104422516E+03 -0.93445141593E+03  0.95639425939E+03  0.15294330000E+03 0.  0.
<mgrwt>
<rscale>  0 0.49875559E+03</rscale>
<asrwt>0</asrwt>
<pdfrwt beam="1">  1        2 0.17652465E+00 0.67224183E+03</pdfrwt>
<pdfrwt beam="2">  1       -2 0.87738426E-01 0.67224183E+03</pdfrwt>
<totfact> 0.23455270E+01</totfact>
</mgrwt>
</event>
<event>
 4    2  0.6387803E-007  0.6945368E+03  0.7818608E-02  0.1002067E+00
          2   -1    0    0  501    0  0.00000000000E+00  0.00000000000E+00  0.29305613880E+04  0.29305613880E+04  0.25500000000E-02 0. -1.
         -2   -1    0    0    0  501 -0.00000000000E+00 -0.00000000000E+00 -0.27677787690E+03  0.27677787691E+03  0.25500000000E-02 0.  1.
    8880023    1    1    2    0    0 -0.16959433976E+03 -0.14074437386E+03  0.17789108551E+03  0.71695652826E+03  0.65864270000E+03 0.  1.
    8880022    1    1    2    0    0  0.16959433976E+03  0.14074437386E+03  0.24758924256E+04  0.24903827366E+04  0.15294330000E+03 0.  0.
<mgrwt>
<rscale>  0 0.54753266E+03</rscale>
<asrwt>0</asrwt>
<pdfrwt beam="1">  1        2 0.45085559E+00 0.69453684E+03</pdfrwt>
<pdfrwt beam="2">  1       -2 0.42581213E-01 0.69453684E+03</pdfrwt>
<totfact> 0.10777613E+01</totfact>
</mgrwt>
</event>
<event>
 4    2  0.6387803E-007  0.6911391E+03  0.7818608E-02  0.1003616E+00
          2   -1    0    0  501    0  0.00000000000E+00  0.00000000000E+00  0.62829136069E+03  0.62829136069E+03  0.25500000000E-02 0. -1.
         -2   -1    0    0    0  501 -0.00000000000E+00 -0.00000000000E+00 -0.36635967662E+03  0.36635967663E+03  0.25500000000E-02 0.  1.
    8880023    1    1    2    0    0  0.13519666397E+03  0.15995284023E+03  0.12842915437E+03  0.70297034290E+03  0.65864270000E+03 0.  1.
    8880022    1    1    2    0    0 -0.13519666397E+03 -0.15995284023E+03  0.13350252970E+03  0.29168069442E+03  0.15294330000E+03 0.  1.
<mgrwt>
<rscale>  0 0.54092796E+03</rscale>
<asrwt>0</asrwt>
<pdfrwt beam="1">  1        2 0.96660209E-01 0.69113910E+03</pdfrwt>
<pdfrwt beam="2">  1       -2 0.56363028E-01 0.69113910E+03</pdfrwt>
<totfact> 0.14044201E+02</totfact>
</mgrwt>
</event>
<event>
 4    2  0.6387803E-007  0.9734029E+03  0.7818608E-02  0.9417213E-01
         -2   -1    0    0    0  501 -0.00000000000E+00  0.00000000000E+00  0.50665510559E+03  0.50665510559E+03  0.25500000000E-02 0.  1.
          2   -1    0    0  501    0  0.00000000000E+00 -0.00000000000E+00 -0.23544412134E+04  0.23544412134E+04  0.25500000000E-02 0. -1.
    8880023    1    1    2    0    0  0.37684658216E+03 -0.60966351724E+03 -0.11558492110E+03  0.98024131263E+03  0.65864270000E+03 0.  0.
    8880022    1    1    2    0    0 -0.37684658216E+03  0.60966351724E+03 -0.17322011867E+04  0.18808550064E+04  0.15294330000E+03 0.  0.
<mgrwt>
<rscale>  0 0.90672547E+03</rscale>
<asrwt>0</asrwt>
<pdfrwt beam="1">  1        2 0.36222172E+00 0.97340287E+03</pdfrwt>
<pdfrwt beam="2">  1       -2 0.77946941E-01 0.97340287E+03</pdfrwt>
<totfact> 0.62553046E+00</totfact>
</mgrwt>
</event>
<event>
 4    2  0.6387803E-007  0.1072561E+04  0.7818608E-02  0.9292239E-01
          2   -1    0    0  501    0  0.00000000000E+00  0.00000000000E+00  0.32358651551E+04  0.32358651551E+04  0.25500000000E-02 0. -1.
         -2   -1    0    0    0  501 -0.00000000000E+00 -0.00000000000E+00 -0.30646663364E+03  0.30646663365E+03  0.25500000000E-02 0.  1.
    8880023    1    1    2    0    0  0.14631871462E+02 -0.84638256085E+03  0.11911601042E+04  0.16028880595E+04  0.65864270000E+03 0.  0.
    8880022    1    1    2    0    0 -0.14631871462E+02  0.84638256085E+03  0.17382384172E+04  0.19394437292E+04  0.15294330000E+03 0.  0.
<mgrwt>
<rscale>  0 0.10150053E+04</rscale>
<asrwt>0</asrwt>
<pdfrwt beam="1">  1        2 0.49782538E+00 0.10725613E+04</pdfrwt>
<pdfrwt beam="2">  1       -2 0.47148716E-01 0.10725613E+04</pdfrwt>
<totfact> 0.53367997E+00</totfact>
</mgrwt>
</event>
<event>
 4    2  0.6387803E-007  0.6868902E+03  0.7818608E-02  0.1005667E+00
         -2   -1    0    0    0  501 -0.00000000000E+00  0.00000000000E+00  0.36971625133E+03  0.36971625134E+03  0.25500000000E-02 0.  1.
          2   -1    0    0  501    0  0.00000000000E+00 -0.00000000000E+00 -0.22921470837E+04  0.22921470837E+04  0.25500000000E-02 0. -1.
    8880023    1    1    2    0    0 -0.14006228142E+03 -0.13561138784E+03  0.35986732354E+02  0.68783220509E+03  0.65864270000E+03 0.  1.
    8880022    1    1    2    0    0  0.14006228142E+03  0.13561138784E+03 -0.19584175648E+04  0.19740311300E+04  0.15294330000E+03 0.  0.
<mgrwt>
<rscale>  0 0.53233634E+03</rscale>
<asrwt>0</asrwt>
<pdfrwt beam="1">  1        2 0.35263800E+00 0.68689016E+03</pdfrwt>
<pdfrwt beam="2">  1       -2 0.56879425E-01 0.68689016E+03</pdfrwt>
<totfact> 0.13974900E+01</totfact>
</mgrwt>
</event>
<event>
 4    2  0.6387803E-007  0.6749550E+03  0.7818608E-02  0.1012335E+00
          2   -1    0    0  501    0  0.00000000000E+00  0.00000000000E+00  0.15306618929E+04  0.15306618929E+04  0.25500000000E-02 0. -1.
         -2   -1    0    0    0  501 -0.00000000000E+00 -0.00000000000E+00 -0.67933829551E+03  0.67933829552E+03  0.25500000000E-02 0.  1.
    8880023    1    1    2    0    0  0.11314282886E+03 -0.94619074333E+02 -0.50132327311E+03  0.84076708985E+03  0.65864270000E+03 0.  1.
    8880022    1    1    2    0    0 -0.11314282886E+03  0.94619074333E+02  0.13526468705E+04  0.13692330986E+04  0.15294330000E+03 0.  0.
<mgrwt>
<rscale>  0 0.50557221E+03</rscale>
<asrwt>0</asrwt>
<pdfrwt beam="1">  1        2 0.23548644E+00 0.67495502E+03</pdfrwt>
<pdfrwt beam="2">  1       -2 0.10451358E+00 0.67495502E+03</pdfrwt>
<totfact> 0.93992624E+00</totfact>
</mgrwt>
</event>
<event>
 4    2  0.6387803E-007  0.8353760E+03  0.7818608E-02  0.9638962E-01
         -2   -1    0    0    0  501 -0.00000000000E+00  0.00000000000E+00  0.32357619014E+03  0.32357619015E+03  0.25500000000E-02 0.  1.
          2   -1    0    0  501    0  0.00000000000E+00 -0.00000000000E+00 -0.41458292860E+04  0.41458292860E+04  0.25500000000E-02 0. -1.
    8880023    1    1    2    0    0 -0.20124919060E+03 -0.47280189792E+03 -0.27147438232E+03  0.87837999631E+03  0.65864270000E+03 0.  1.
    8880022    1    1    2    0    0  0.20124919060E+03  0.47280189792E+03 -0.35507787136E+04  0.35910254799E+04  0.15294330000E+03 0.  0.
<mgrwt>
<rscale>  0 0.74770256E+03</rscale>
<asrwt>0</asrwt>
<pdfrwt beam="1">  1        2 0.63781985E+00 0.83537601E+03</pdfrwt>
<pdfrwt beam="2">  1       -2 0.49780955E-01 0.83537601E+03</pdfrwt>
<totfact> 0.10842653E+00</totfact>
</mgrwt>
</event>
<event>
 4    2  0.6387803E-007  0.6806013E+03  0.7818608E-02  0.1008986E+00
         -2   -1    0    0    0  501 -0.00000000000E+00  0.00000000000E+00  0.55259297167E+03  0.55259297167E+03  0.25500000000E-02 0.  1.
          2   -1    0    0  501    0  0.00000000000E+00 -0.00000000000E+00 -0.98063106932E+03  0.98063106933E+03  0.25500000000E-02 0. -1.
    8880023    1    1    2    0    0 -0.13257972730E+03  0.10876815515E+03  0.31899586515E+03  0.75164916278E+03  0.65864270000E+03 0.  1.
    8880022    1    1    2    0    0  0.13257972730E+03 -0.10876815515E+03 -0.74703396280E+03  0.78157487822E+03  0.15294330000E+03 0.  0.
<mgrwt>
<rscale>  0 0.51879806E+03</rscale>
<asrwt>0</asrwt>
<pdfrwt beam="1">  1        2 0.15086632E+00 0.68060128E+03</pdfrwt>
<pdfrwt beam="2">  1       -2 0.85014303E-01 0.68060128E+03</pdfrwt>
<totfact> 0.31941120E+01</totfact>
</mgrwt>
</event>
<event>
 4    2  0.6387803E-007  0.7137521E+03  0.7818608E-02  0.9944323E-01
         -2   -1    0    0    0  501 -0.00000000000E+00  0.00000000000E+00  0.82720483285E+02  0.82720483325E+02  0.25500000000E-02 0.  1.
          2   -1    0    0  501    0  0.00000000000E+00 -0.00000000000E+00 -0.38180198146E+04  0.38180198146E+04  0.25500000000E-02 0. -1.
    8880023    1    1    2    0    0 -0.26275393114E+03  0.81192305787E+02 -0.17387766947E+04  0.18795708071E+04  0.65864270000E+03 0.  1.
    8880022    1    1    2    0    0  0.26275393114E+03 -0.81192305787E+02 -0.19965226366E+04  0.20211694907E+04  0.15294330000E+03 0.  0.
<mgrwt>
<rscale>  0 0.58160457E+03</rscale>
<asrwt>0</asrwt>
<pdfrwt beam="1">  1        2 0.58738753E+00 0.71375208E+03</pdfrwt>
<pdfrwt beam="2">  1       -2 0.12726231E-01 0.71375208E+03</pdfrwt>
<totfact> 0.24127644E+01</totfact>
</mgrwt>
</event>
<event>
 4    2  0.6387803E-007  0.1231296E+04  0.7818608E-02  0.9127284E-01
         -2   -1    0    0    0  501 -0.00000000000E+00  0.00000000000E+00  0.19895094312E+04  0.19895094312E+04  0.25500000000E-02 0.  1.
          2   -1    0    0  501    0  0.00000000000E+00 -0.00000000000E+00 -0.13867725278E+04  0.13867725278E+04  0.25500000000E-02 0. -1.
    8880023    1    1    2    0    0  0.51575165723E+03 -0.90348265257E+03  0.15372095161E+04  0.19695441041E+04  0.65864270000E+03 0.  1.
    8880022    1    1    2    0    0 -0.51575165723E+03  0.90348265257E+03 -0.93447261270E+03  0.14067378549E+04  0.15294330000E+03 0.  0.
<mgrwt>
<rscale>  0 0.11836554E+04</rscale>
<asrwt>0</asrwt>
<pdfrwt beam="1">  1        2 0.21334962E+00 0.12312964E+04</pdfrwt>
<pdfrwt beam="2">  1       -2 0.30607837E+00 0.12312964E+04</pdfrwt>
<totfact> 0.41765997E-01</totfact>
</mgrwt>
</event>
<event>
 4    2  0.6387803E-007  0.7564072E+03  0.7818608E-02  0.9814499E-01
         -2   -1    0    0    0  501 -0.00000000000E+00  0.00000000000E+00  0.11975537331E+04  0.11975537331E+04  0.25500000000E-02 0.  1.
          2   -1    0    0  501    0  0.00000000000E+00 -0.00000000000E+00 -0.39955650518E+03  0.39955650519E+03  0.25500000000E-02 0. -1.
    8880023    1    1    2    0    0 -0.83316601136E+00 -0.37194207960E+03  0.90643842319E+03  0.11805856284E+04  0.65864270000E+03 0.  0.
    8880022    1    1    2    0    0  0.83316601136E+00  0.37194207960E+03 -0.10844119531E+03  0.41652460983E+03  0.15294330000E+03 0.  0.
<mgrwt>
<rscale>  0 0.64590202E+03</rscale>
<asrwt>0</asrwt>
<pdfrwt beam="1">  1        2 0.61470231E-01 0.75640717E+03</pdfrwt>
<pdfrwt beam="2">  1       -2 0.18423904E+00 0.75640717E+03</pdfrwt>
<totfact> 0.13712552E+01</totfact>
</mgrwt>
</event>
<event>
 4    2  0.6387803E-007  0.7450509E+03  0.7818608E-02  0.9845471E-01
         -2   -1    0    0    0  501 -0.00000000000E+00  0.00000000000E+00  0.36854278761E+03  0.36854278762E+03  0.25500000000E-02 0.  1.
          2   -1    0    0  501    0  0.00000000000E+00 -0.00000000000E+00 -0.11838793758E+04  0.11838793758E+04  0.25500000000E-02 0. -1.
    8880023    1    1    2    0    0 -0.34085174549E+03  0.71489159072E+02 -0.11282527509E+03  0.75354519522E+03  0.65864270000E+03 0.  0.
    8880022    1    1    2    0    0  0.34085174549E+03 -0.71489159072E+02 -0.70251131307E+03  0.79887696817E+03  0.15294330000E+03 0.  0.
<mgrwt>
<rscale>  0 0.62978362E+03</rscale>
<asrwt>0</asrwt>
<pdfrwt beam="1">  1        2 0.18213529E+00 0.74505088E+03</pdfrwt>
<pdfrwt beam="2">  1       -2 0.56698891E-01 0.74505088E+03</pdfrwt>
<totfact> 0.57501151E+01</totfact>
</mgrwt>
</event>
<event>
 4    2  0.6387803E-007  0.9205471E+03  0.7818608E-02  0.9493821E-01
         -2   -1    0    0    0  501 -0.00000000000E+00  0.00000000000E+00  0.97890275766E+03  0.97890275766E+03  0.25500000000E-02 0.  1.
          2   -1    0    0  501    0  0.00000000000E+00 -0.00000000000E+00 -0.94778285431E+03  0.94778285431E+03  0.25500000000E-02 0. -1.
    8880023    1    1    2    0    0 -0.18887494448E+03 -0.61475445439E+03  0.56227077624E+03  0.10786822590E+04  0.65864270000E+03 0.  1.
    8880022    1    1    2    0    0  0.18887494448E+03  0.61475445439E+03 -0.53115087289E+03  0.84800335296E+03  0.15294330000E+03 0.  0.
<mgrwt>
<rscale>  0 0.84740936E+03</rscale>
<asrwt>0</asrwt>
<pdfrwt beam="1">  1        2 0.14581275E+00 0.92054711E+03</pdfrwt>
<pdfrwt beam="2">  1       -2 0.15060043E+00 0.92054711E+03</pdfrwt>
<totfact> 0.80671136E+00</totfact>
</mgrwt>
</event>
<event>
 4    2  0.6387803E-007  0.8128599E+03  0.7818608E-02  0.9683650E-01
          2   -1    0    0  501    0  0.00000000000E+00  0.00000000000E+00  0.46264722671E+03  0.46264722671E+03  0.25500000000E-02 0. -1.
         -2   -1    0    0    0  501 -0.00000000000E+00 -0.00000000000E+00 -0.17437621164E+04  0.17437621164E+04  0.25500000000E-02 0.  1.
    8880023    1    1    2    0    0  0.35417148009E+03 -0.31858066286E+03 -0.14633286539E+04  0.16739390765E+04  0.65864270000E+03 0.  1.
    8880022    1    1    2    0    0 -0.35417148009E+03  0.31858066286E+03  0.18221376417E+03  0.53247026671E+03  0.15294330000E+03 0.  0.
<mgrwt>
<rscale>  0 0.71998646E+03</rscale>
<asrwt>0</asrwt>
<pdfrwt beam="1">  1        2 0.71176497E-01 0.81285994E+03</pdfrwt>
<pdfrwt beam="2">  1       -2 0.26827109E+00 0.81285994E+03</pdfrwt>
<totfact> 0.34279498E+00</totfact>
</mgrwt>
</event>
<event>
 4    2  0.6387803E-007  0.9033787E+03  0.7818608E-02  0.9520629E-01
         -2   -1    0    0    0  501 -0.00000000000E+00  0.00000000000E+00  0.46701581904E+03  0.46701581904E+03  0.25500000000E-02 0.  1.
          2   -1    0    0  501    0  0.00000000000E+00 -0.00000000000E+00 -0.13058459214E+04  0.13058459214E+04  0.25500000000E-02 0. -1.
    8880023    1    1    2    0    0 -0.16377557517E+03 -0.59620499879E+03 -0.63458643717E+03  0.11039895797E+04  0.65864270000E+03 0.  0.
    8880022    1    1    2    0    0  0.16377557517E+03  0.59620499879E+03 -0.20424366517E+03  0.66887216071E+03  0.15294330000E+03 0.  0.
<mgrwt>
<rscale>  0 0.82779842E+03</rscale>
<asrwt>0</asrwt>
<pdfrwt beam="1">  1        2 0.20089937E+00 0.90337868E+03</pdfrwt>
<pdfrwt beam="2">  1       -2 0.71848588E-01 0.90337868E+03</pdfrwt>
<totfact> 0.28939297E+01</totfact>
</mgrwt>
</event>
<event>
 4    2  0.6387803E-007  0.8910804E+03  0.7818608E-02  0.9540505E-01
          2   -1    0    0  501    0  0.00000000000E+00  0.00000000000E+00  0.10239108964E+04  0.10239108964E+04  0.25500000000E-02 0. -1.
         -2   -1    0    0    0  501 -0.00000000000E+00 -0.00000000000E+00 -0.75226675668E+03  0.75226675669E+03  0.25500000000E-02 0.  1.
    8880023    1    1    2    0    0 -0.47653838925E+03  0.36486331837E+03  0.60088208983E+03  0.10747481424E+04  0.65864270000E+03 0. -1.
    8880022    1    1    2    0    0  0.47653838925E+03 -0.36486331837E+03 -0.32923795015E+03  0.70142951061E+03  0.15294330000E+03 0.  1.
<mgrwt>
<rscale>  0 0.81362316E+03</rscale>
<asrwt>0</asrwt>
<pdfrwt beam="1">  1        2 0.15752475E+00 0.89108040E+03</pdfrwt>
<pdfrwt beam="2">  1       -2 0.11573335E+00 0.89108040E+03</pdfrwt>
<totfact> 0.14152056E+01</totfact>
</mgrwt>
</event>
<event>
 4    2  0.6387803E-007  0.8837386E+03  0.7818608E-02  0.9552657E-01
          2   -1    0    0  501    0  0.00000000000E+00  0.00000000000E+00  0.15024304886E+04  0.15024304886E+04  0.25500000000E-02 0. -1.
         -2   -1    0    0    0  501 -0.00000000000E+00 -0.00000000000E+00 -0.53181742666E+03  0.53181742667E+03  0.25500000000E-02 0.  1.
    8880023    1    1    2    0    0  0.23197302912E+03  0.54163838727E+03 -0.56324014327E+01  0.88375650437E+03  0.65864270000E+03 0.  0.
    8880022    1    1    2    0    0 -0.23197302912E+03 -0.54163838727E+03  0.97624546337E+03  0.11504914109E+04  0.15294330000E+03 0.  0.
<mgrwt>
<rscale>  0 0.80510479E+03</rscale>
<asrwt>0</asrwt>
<pdfrwt beam="1">  1        2 0.23114315E+00 0.88373856E+03</pdfrwt>
<pdfrwt beam="2">  1       -2 0.81818068E-01 0.88373856E+03</pdfrwt>
<totfact> 0.16768306E+01</totfact>
</mgrwt>
</event>
<event>
 4    2  0.6387803E-007  0.9800105E+03  0.7818608E-02  0.9408190E-01
         -2   -1    0    0    0  501 -0.00000000000E+00  0.00000000000E+00  0.10750112262E+04  0.10750112262E+04  0.25500000000E-02 0.  1.
          2   -1    0    0  501    0  0.00000000000E+00 -0.00000000000E+00 -0.11452751246E+04  0.11452751246E+04  0.25500000000E-02 0. -1.
    8880023    1    1    2    0    0  0.53605497175E+03 -0.48913737973E+03 -0.73448565537E+03  0.12246998380E+04  0.65864270000E+03 0.  0.
    8880022    1    1    2    0    0 -0.53605497175E+03  0.48913737973E+03  0.66422175694E+03  0.99558651276E+03  0.15294330000E+03 0.  0.
<mgrwt>
<rscale>  0 0.91404708E+03</rscale>
<asrwt>0</asrwt>
<pdfrwt beam="1">  1        2 0.17619617E+00 0.98001047E+03</pdfrwt>
<pdfrwt beam="2">  1       -2 0.16538634E+00 0.98001047E+03</pdfrwt>
<totfact> 0.46694663E+00</totfact>
</mgrwt>
</event>
<event>
 4    2  0.6387803E-007  0.9750948E+03  0.7818608E-02  0.9414892E-01
          2   -1    0    0  501    0  0.00000000000E+00  0.00000000000E+00  0.22967037496E+04  0.22967037496E+04  0.25500000000E-02 0. -1.
         -2   -1    0    0    0  501 -0.00000000000E+00 -0.00000000000E+00 -0.81114424482E+03  0.81114424483E+03  0.25500000000E-02 0.  1.
    8880023    1    1    2    0    0  0.69972122513E+03  0.16549859756E+03 -0.42278979627E+03  0.10628080715E+04  0.65864270000E+03 0.  0.
    8880022    1    1    2    0    0 -0.69972122513E+03 -0.16549859756E+03  0.19083493010E+04  0.20450399229E+04  0.15294330000E+03 0.  0.
<mgrwt>
<rscale>  0 0.90860193E+03</rscale>
<asrwt>0</asrwt>
<pdfrwt beam="1">  1        2 0.35333903E+00 0.97509476E+03</pdfrwt>
<pdfrwt beam="2">  1       -2 0.12479142E+00 0.97509476E+03</pdfrwt>
<totfact> 0.22071787E+00</totfact>
</mgrwt>
</event>
<event>
 4    2  0.6387803E-007  0.6783518E+03  0.7818608E-02  0.1010272E+00
         -2   -1    0    0    0  501 -0.00000000000E+00  0.00000000000E+00  0.10039365618E+03  0.10039365622E+03  0.25500000000E-02 0.  1.
          2   -1    0    0  501    0  0.00000000000E+00 -0.00000000000E+00 -0.23846923292E+04  0.23846923292E+04  0.25500000000E-02 0. -1.
    8880023    1    1    2    0    0 -0.13260728042E+03  0.93628118072E+02 -0.12034630470E+04  0.13814790723E+04  0.65864270000E+03 0.  1.
    8880022    1    1    2    0    0  0.13260728042E+03 -0.93628118072E+02 -0.10808356259E+04  0.11036069131E+04  0.15294330000E+03 0. -1.
<mgrwt>
<rscale>  0 0.51366769E+03</rscale>
<asrwt>0</asrwt>
<pdfrwt beam="1">  1        2 0.36687570E+00 0.67835177E+03</pdfrwt>
<pdfrwt beam="2">  1       -2 0.15445180E-01 0.67835177E+03</pdfrwt>
<totfact> 0.14103585E+02</totfact>
</mgrwt>
</event>
<event>
 4    2  0.6387803E-007  0.8608161E+03  0.7818608E-02  0.9592113E-01
          2   -1    0    0  501    0  0.00000000000E+00  0.00000000000E+00  0.15430725241E+04  0.15430725241E+04  0.25500000000E-02 0. -1.
         -2   -1    0    0    0  501 -0.00000000000E+00 -0.00000000000E+00 -0.33606301244E+03  0.33606301245E+03  0.25500000000E-02 0.  1.
    8880023    1    1    2    0    0  0.34433922335E+03  0.43430930901E+03  0.65055108520E+03  0.10789907309E+04  0.65864270000E+03 0.  1.
    8880022    1    1    2    0    0 -0.34433922335E+03 -0.43430930901E+03  0.55645842646E+03  0.80014480566E+03  0.15294330000E+03 0. -1.
<mgrwt>
<rscale>  0 0.77820368E+03</rscale>
<asrwt>0</asrwt>
<pdfrwt beam="1">  1        2 0.23739578E+00 0.86081606E+03</pdfrwt>
<pdfrwt beam="2">  1       -2 0.51702001E-01 0.86081606E+03</pdfrwt>
<totfact> 0.42897460E+01</totfact>
</mgrwt>
</event>
<event>
 4    2  0.6387803E-007  0.7465963E+03  0.7818608E-02  0.9841133E-01
          2   -1    0    0  501    0  0.00000000000E+00  0.00000000000E+00  0.14129239836E+04  0.14129239836E+04  0.25500000000E-02 0. -1.
         -2   -1    0    0    0  501 -0.00000000000E+00 -0.00000000000E+00 -0.51158446521E+03  0.51158446522E+03  0.25500000000E-02 0.  1.
    8880023    1    1    2    0    0  0.35153498070E+03 -0.43580327161E+01 -0.18780545931E+03  0.76985513697E+03  0.65864270000E+03 0.  1.
    8880022    1    1    2    0    0 -0.35153498070E+03  0.43580327161E+01  0.10891449777E+04  0.11546533119E+04  0.15294330000E+03 0.  0.
<mgrwt>
<rscale>  0 0.63201069E+03</rscale>
<asrwt>0</asrwt>
<pdfrwt beam="1">  1        2 0.21737292E+00 0.74659630E+03</pdfrwt>
<pdfrwt beam="2">  1       -2 0.78705302E-01 0.74659630E+03</pdfrwt>
<totfact> 0.20864537E+01</totfact>
</mgrwt>
</event>
<event>
 4    2  0.6387803E-007  0.1192345E+04  0.7818608E-02  0.9164600E-01
          2   -1    0    0  501    0  0.00000000000E+00  0.00000000000E+00  0.20110850068E+04  0.20110850068E+04  0.25500000000E-02 0. -1.
         -2   -1    0    0    0  501 -0.00000000000E+00 -0.00000000000E+00 -0.13361593704E+04  0.13361593704E+04  0.25500000000E-02 0.  1.
    8880023    1    1    2    0    0  0.44146011305E+03  0.89049906749E+03 -0.88943544875E+03  0.14875420143E+04  0.65864270000E+03 0.  0.
    8880022    1    1    2    0    0 -0.44146011305E+03 -0.89049906749E+03  0.15643610852E+04  0.18597023629E+04  0.15294330000E+03 0.  0.
<mgrwt>
<rscale>  0 0.11426405E+04</rscale>
<asrwt>0</asrwt>
<pdfrwt beam="1">  1        2 0.30939769E+00 0.11923447E+04</pdfrwt>
<pdfrwt beam="2">  1       -2 0.20556298E+00 0.11923447E+04</pdfrwt>
<totfact> 0.78353450E-01</totfact>
</mgrwt>
</event>
<event>
 4    2  0.6387803E-007  0.9377951E+03  0.7818608E-02  0.9467896E-01
          2   -1    0    0  501    0  0.00000000000E+00  0.00000000000E+00  0.26454904704E+04  0.26454904704E+04  0.25500000000E-02 0. -1.
         -2   -1    0    0    0  501 -0.00000000000E+00 -0.00000000000E+00 -0.44229494992E+03  0.44229494993E+03  0.25500000000E-02 0.  1.
    8880023    1    1    2    0    0  0.57716230953E+03 -0.33545962106E+03  0.18409295809E+03  0.95569341966E+03  0.65864270000E+03 0.  0.
    8880022    1    1    2    0    0 -0.57716230953E+03  0.33545962106E+03  0.20191025624E+04  0.21320920007E+04  0.15294330000E+03 0.  0.
<mgrwt>
<rscale>  0 0.86692663E+03</rscale>
<asrwt>0</asrwt>
<pdfrwt beam="1">  1        2 0.40699852E+00 0.93779512E+03</pdfrwt>
<pdfrwt beam="2">  1       -2 0.68045379E-01 0.93779512E+03</pdfrwt>
<totfact> 0.57864472E+00</totfact>
</mgrwt>
</event>
<event>
 4    2  0.6387803E-007  0.7277227E+03  0.7818608E-02  0.9897272E-01
         -2   -1    0    0    0  501 -0.00000000000E+00  0.00000000000E+00  0.19219656550E+03  0.19219656552E+03  0.25500000000E-02 0.  1.
          2   -1    0    0  501    0  0.00000000000E+00 -0.00000000000E+00 -0.16641612496E+04  0.16641612496E+04  0.25500000000E-02 0. -1.
    8880023    1    1    2    0    0  0.27373912737E+03 -0.14435051667E+03 -0.12486114479E+04  0.14452027316E+04  0.65864270000E+03 0.  0.
    8880022    1    1    2    0    0 -0.27373912737E+03  0.14435051667E+03 -0.22335323619E+03  0.41115508345E+03  0.15294330000E+03 0.  0.
<mgrwt>
<rscale>  0 0.60393696E+03</rscale>
<asrwt>0</asrwt>
<pdfrwt beam="1">  1        2 0.25602480E+00 0.72772274E+03</pdfrwt>
<pdfrwt beam="2">  1       -2 0.29568704E-01 0.72772274E+03</pdfrwt>
<totfact> 0.11053380E+02</totfact>
</mgrwt>
</event>
<event>
 4    2  0.6387803E-007  0.6908905E+03  0.7818608E-02  0.1003732E+00
         -2   -1    0    0    0  501 -0.00000000000E+00  0.00000000000E+00  0.42749752210E+03  0.42749752211E+03  0.25500000000E-02 0.  1.
          2   -1    0    0  501    0  0.00000000000E+00 -0.00000000000E+00 -0.92442650013E+03  0.92442650014E+03  0.25500000000E-02 0. -1.
    8880023    1    1    2    0    0 -0.26681527345E+02  0.20690005273E+03  0.10307384971E+03  0.69853701439E+03  0.65864270000E+03 0.  1.
    8880022    1    1    2    0    0  0.26681527345E+02 -0.20690005273E+03 -0.60000282774E+03  0.65338700785E+03  0.15294330000E+03 0.  0.
<mgrwt>
<rscale>  0 0.54043601E+03</rscale>
<asrwt>0</asrwt>
<pdfrwt beam="1">  1        2 0.14221946E+00 0.69089054E+03</pdfrwt>
<pdfrwt beam="2">  1       -2 0.65768850E-01 0.69089054E+03</pdfrwt>
<totfact> 0.61259186E+01</totfact>
</mgrwt>
</event>
<event>
 4    2  0.6387803E-007  0.7251996E+03  0.7818608E-02  0.9905369E-01
         -2   -1    0    0    0  501 -0.00000000000E+00  0.00000000000E+00  0.25054746522E+03  0.25054746524E+03  0.25500000000E-02 0.  1.
          2   -1    0    0  501    0  0.00000000000E+00 -0.00000000000E+00 -0.13448573699E+04  0.13448573699E+04  0.25500000000E-02 0. -1.
    8880023    1    1    2    0    0 -0.18674649045E+03  0.23922800713E+03 -0.41429665792E+03  0.83519831066E+03  0.65864270000E+03 0.  1.
    8880022    1    1    2    0    0  0.18674649045E+03 -0.23922800713E+03 -0.68001324674E+03  0.76020652447E+03  0.15294330000E+03 0.  0.
<mgrwt>
<rscale>  0 0.60001764E+03</rscale>
<asrwt>0</asrwt>
<pdfrwt beam="1">  1        2 0.20690113E+00 0.72519963E+03</pdfrwt>
<pdfrwt beam="2">  1       -2 0.38545765E-01 0.72519963E+03</pdfrwt>
<totfact> 0.10083032E+02</totfact>
</mgrwt>
</event>
<event>
 4    2  0.6387803E-007  0.1097175E+04  0.7818608E-02  0.9264208E-01
         -2   -1    0    0    0  501 -0.00000000000E+00  0.00000000000E+00  0.26375483873E+03  0.26375483874E+03  0.25500000000E-02 0.  1.
          2   -1    0    0  501    0  0.00000000000E+00 -0.00000000000E+00 -0.48709067863E+04  0.48709067863E+04  0.25500000000E-02 0. -1.
    8880023    1    1    2    0    0 -0.83867453400E+03  0.25808630096E+03 -0.37163983963E+04  0.38749723559E+04  0.65864270000E+03 0.  0.
    8880022    1    1    2    0    0  0.83867453400E+03 -0.25808630096E+03 -0.89075355136E+03  0.12596892692E+04  0.15294330000E+03 0.  0.
<mgrwt>
<rscale>  0 0.10414582E+04</rscale>
<asrwt>0</asrwt>
<pdfrwt beam="1">  1        2 0.74937021E+00 0.10971753E+04</pdfrwt>
<pdfrwt beam="2">  1       -2 0.40577671E-01 0.10971753E+04</pdfrwt>
<totfact> 0.30477325E-01</totfact>
</mgrwt>
</event>
<event>
 4    2  0.6387803E-007  0.8565777E+03  0.7818608E-02  0.9599680E-01
          2   -1    0    0  501    0  0.00000000000E+00  0.00000000000E+00  0.24368718419E+04  0.24368718419E+04  0.25500000000E-02 0. -1.
         -2   -1    0    0    0  501 -0.00000000000E+00 -0.00000000000E+00 -0.24986400904E+03  0.24986400905E+03  0.25500000000E-02 0.  1.
    8880023    1    1    2    0    0  0.54413755601E+03  0.61882158879E+02  0.73976698473E+03  0.11318040817E+04  0.65864270000E+03 0.  1.
    8880022    1    1    2    0    0 -0.54413755601E+03 -0.61882158879E+02  0.14472408481E+04  0.15549317692E+04  0.15294330000E+03 0. -1.
<mgrwt>
<rscale>  0 0.77317340E+03</rscale>
<asrwt>0</asrwt>
<pdfrwt beam="1">  1        2 0.37490337E+00 0.85657766E+03</pdfrwt>
<pdfrwt beam="2">  1       -2 0.38440616E-01 0.85657766E+03</pdfrwt>
<totfact> 0.24876383E+01</totfact>
</mgrwt>
</event>
<event>
 4    2  0.6387803E-007  0.8732532E+03  0.7818608E-02  0.9570410E-01
         -2   -1    0    0    0  501 -0.00000000000E+00  0.00000000000E+00  0.11748910722E+04  0.11748910722E+04  0.25500000000E-02 0.  1.
          2   -1    0    0  501    0  0.00000000000E+00 -0.00000000000E+00 -0.15351895594E+04  0.15351895594E+04  0.25500000000E-02 0. -1.
    8880023    1    1    2    0    0  0.11563769635E+03 -0.56159498661E+03  0.93862244083E+03  0.12820231271E+04  0.65864270000E+03 0.  1.
    8880022    1    1    2    0    0 -0.11563769635E+03  0.56159498661E+03 -0.12989209280E+04  0.14280575045E+04  0.15294330000E+03 0.  0.
<mgrwt>
<rscale>  0 0.79286003E+03</rscale>
<asrwt>0</asrwt>
<pdfrwt beam="1">  1        2 0.23618301E+00 0.87325323E+03</pdfrwt>
<pdfrwt beam="2">  1       -2 0.18075247E+00 0.87325323E+03</pdfrwt>
<totfact> 0.21951788E+00</totfact>
</mgrwt>
</event>
<event>
 4    2  0.6387803E-007  0.6878912E+03  0.7818608E-02  0.1005171E+00
         -2   -1    0    0    0  501 -0.00000000000E+00  0.00000000000E+00  0.50639192263E+03  0.50639192264E+03  0.25500000000E-02 0.  1.
          2   -1    0    0  501    0  0.00000000000E+00 -0.00000000000E+00 -0.24132425122E+04  0.24132425122E+04  0.25500000000E-02 0. -1.
    8880023    1    1    2    0    0 -0.11852461493E+03 -0.15917286632E+03  0.26219491697E+03  0.73616605903E+03  0.65864270000E+03 0.  1.
    8880022    1    1    2    0    0  0.11852461493E+03  0.15917286632E+03 -0.21690455065E+04  0.21834683758E+04  0.15294330000E+03 0.  0.
<mgrwt>
<rscale>  0 0.53439673E+03</rscale>
<asrwt>0</asrwt>
<pdfrwt beam="1">  1        2 0.37126807E+00 0.68789119E+03</pdfrwt>
<pdfrwt beam="2">  1       -2 0.77906451E-01 0.68789119E+03</pdfrwt>
<totfact> 0.60689519E+00</totfact>
</mgrwt>
</event>
<event>
 4    2  0.6387803E-007  0.6763132E+03  0.7818608E-02  0.1011491E+00
          2   -1    0    0  501    0  0.00000000000E+00  0.00000000000E+00  0.10159605836E+04  0.10159605836E+04  0.25500000000E-02 0. -1.
         -2   -1    0    0    0  501 -0.00000000000E+00 -0.00000000000E+00 -0.69543197491E+03  0.69543197491E+03  0.25500000000E-02 0.  1.
    8880023    1    1    2    0    0 -0.15313759186E+03  0.11757464225E+02 -0.51381387706E+03  0.84935520634E+03  0.65864270000E+03 0.  1.
    8880022    1    1    2    0    0  0.15313759186E+03 -0.11757464225E+02  0.83434248576E+03  0.86203735218E+03  0.15294330000E+03 0.  0.
<mgrwt>
<rscale>  0 0.50886339E+03</rscale>
<asrwt>0</asrwt>
<pdfrwt beam="1">  1        2 0.15630163E+00 0.67631322E+03</pdfrwt>
<pdfrwt beam="2">  1       -2 0.10698953E+00 0.67631322E+03</pdfrwt>
<totfact> 0.17724480E+01</totfact>
</mgrwt>
</event>
<event>
 4    2  0.6387803E-007  0.8896470E+03  0.7818608E-02  0.9542860E-01
          2   -1    0    0  501    0  0.00000000000E+00  0.00000000000E+00  0.24119038410E+04  0.24119038410E+04  0.25500000000E-02 0. -1.
         -2   -1    0    0    0  501 -0.00000000000E+00 -0.00000000000E+00 -0.26028245425E+03  0.26028245426E+03  0.25500000000E-02 0.  1.
    8880023    1    1    2    0    0 -0.74565464033E+02  0.59338151637E+03  0.16587484705E+04  0.18822641491E+04  0.65864270000E+03 0. -1.
    8880022    1    1    2    0    0  0.74565464033E+02 -0.59338151637E+03  0.49287291630E+03  0.78992214619E+03  0.15294330000E+03 0.  0.
<mgrwt>
<rscale>  0 0.81196351E+03</rscale>
<asrwt>0</asrwt>
<pdfrwt beam="1">  1        2 0.37106212E+00 0.88964703E+03</pdfrwt>
<pdfrwt beam="2">  1       -2 0.40043456E-01 0.88964703E+03</pdfrwt>
<totfact> 0.23634453E+01</totfact>
</mgrwt>
</event>
<event>
 4    2  0.6387803E-007  0.6758053E+03  0.7818608E-02  0.1011803E+00
          2   -1    0    0  501    0  0.00000000000E+00  0.00000000000E+00  0.21589974473E+04  0.21589974473E+04  0.25500000000E-02 0. -1.
         -2   -1    0    0    0  501 -0.00000000000E+00 -0.00000000000E+00 -0.13518550932E+03  0.13518550934E+03  0.25500000000E-02 0.  1.
    8880023    1    1    2    0    0  0.70953893789E+02 -0.13367179197E+03  0.78063049055E+03  0.10325196231E+04  0.65864270000E+03 0.  1.
    8880022    1    1    2    0    0 -0.70953893789E+02  0.13367179197E+03  0.12431814474E+04  0.12616633335E+04  0.15294330000E+03 0.  0.
<mgrwt>
<rscale>  0 0.50764146E+03</rscale>
<asrwt>0</asrwt>
<pdfrwt beam="1">  1        2 0.33215344E+00 0.67580530E+03</pdfrwt>
<pdfrwt beam="2">  1       -2 0.20797772E-01 0.67580530E+03</pdfrwt>
<totfact> 0.11257401E+02</totfact>
</mgrwt>
</event>
<event>
 4    2  0.6387803E-007  0.1094289E+04  0.7818608E-02  0.9267442E-01
         -2   -1    0    0    0  501 -0.00000000000E+00  0.00000000000E+00  0.15739077928E+04  0.15739077928E+04  0.25500000000E-02 0.  1.
          2   -1    0    0  501    0  0.00000000000E+00 -0.00000000000E+00 -0.19754201535E+04  0.19754201535E+04  0.25500000000E-02 0. -1.
    8880023    1    1    2    0    0 -0.68962556158E+03  0.53672567951E+03  0.12581359336E+04  0.16674453826E+04  0.65864270000E+03 0.  0.
    8880022    1    1    2    0    0  0.68962556158E+03 -0.53672567951E+03 -0.16596482942E+04  0.18818825638E+04  0.15294330000E+03 0.  0.
<mgrwt>
<rscale>  0 0.10383631E+04</rscale>
<asrwt>0</asrwt>
<pdfrwt beam="1">  1        2 0.30391079E+00 0.10942888E+04</pdfrwt>
<pdfrwt beam="2">  1       -2 0.24213966E+00 0.10942888E+04</pdfrwt>
<totfact> 0.48908091E-01</totfact>
</mgrwt>
</event>
<event>
 4    2  0.6387803E-007  0.8625465E+03  0.7818608E-02  0.9589050E-01
          2   -1    0    0  501    0  0.00000000000E+00  0.00000000000E+00  0.24129666359E+04  0.24129666359E+04  0.25500000000E-02 0. -1.
         -2   -1    0    0    0  501 -0.00000000000E+00 -0.00000000000E+00 -0.23654633120E+03  0.23654633121E+03  0.25500000000E-02 0.  1.
    8880023    1    1    2    0    0 -0.47546766654E+03  0.29001154927E+03  0.88999442315E+03  0.12393855252E+04  0.65864270000E+03 0.  1.
    8880022    1    1    2    0    0  0.47546766654E+03 -0.29001154927E+03  0.12864258816E+04  0.14101274419E+04  0.15294330000E+03 0.  0.
<mgrwt>
<rscale>  0 0.78025202E+03</rscale>
<asrwt>0</asrwt>
<pdfrwt beam="1">  1        2 0.37122565E+00 0.86254647E+03</pdfrwt>
<pdfrwt beam="2">  1       -2 0.36391742E-01 0.86254647E+03</pdfrwt>
<totfact> 0.28502557E+01</totfact>
</mgrwt>
</event>
<event>
 4    2  0.6387803E-007  0.8782192E+03  0.7818608E-02  0.9561942E-01
         -2   -1    0    0    0  501 -0.00000000000E+00  0.00000000000E+00  0.30863311840E+03  0.30863311842E+03  0.25500000000E-02 0.  1.
          2   -1    0    0  501    0  0.00000000000E+00 -0.00000000000E+00 -0.24108333288E+04  0.24108333288E+04  0.25500000000E-02 0. -1.
    8880023    1    1    2    0    0  0.33729952192E+03 -0.47295640388E+03 -0.50505465761E+03  0.10130889107E+04  0.65864270000E+03 0.  0.
    8880022    1    1    2    0    0 -0.33729952192E+03  0.47295640388E+03 -0.15971455528E+04  0.17063775365E+04  0.15294330000E+03 0.  0.
<mgrwt>
<rscale>  0 0.79867131E+03</rscale>
<asrwt>0</asrwt>
<pdfrwt beam="1">  1        2 0.37089742E+00 0.87821918E+03</pdfrwt>
<pdfrwt beam="2">  1       -2 0.47482020E-01 0.87821918E+03</pdfrwt>
<totfact> 0.16893562E+01</totfact>
</mgrwt>
</event>
<event>
 4    2  0.6387803E-007  0.8032111E+03  0.7818608E-02  0.9703896E-01
         -2   -1    0    0    0  501 -0.00000000000E+00  0.00000000000E+00  0.56940638229E+03  0.56940638230E+03  0.25500000000E-02 0.  1.
          2   -1    0    0  501    0  0.00000000000E+00 -0.00000000000E+00 -0.76314429109E+03  0.76314429109E+03  0.25500000000E-02 0. -1.
    8880023    1    1    2    0    0 -0.34600785983E+03  0.30268197289E+03  0.18946058029E+02  0.80343448716E+03  0.65864270000E+03 0.  0.
    8880022    1    1    2    0    0  0.34600785983E+03 -0.30268197289E+03 -0.21268396682E+03  0.52911618623E+03  0.15294330000E+03 0. -1.
<mgrwt>
<rscale>  0 0.70785323E+03</rscale>
<asrwt>0</asrwt>
<pdfrwt beam="1">  1        2 0.11740681E+00 0.80321107E+03</pdfrwt>
<pdfrwt beam="2">  1       -2 0.87600982E-01 0.80321107E+03</pdfrwt>
<totfact> 0.41614365E+01</totfact>
</mgrwt>
</event>
<event>
 4    2  0.6387803E-007  0.1060288E+04  0.7818608E-02  0.9306615E-01
          2   -1    0    0  501    0  0.00000000000E+00  0.00000000000E+00  0.89004265816E+03  0.89004265816E+03  0.25500000000E-02 0. -1.
         -2   -1    0    0    0  501 -0.00000000000E+00 -0.00000000000E+00 -0.13044042037E+04  0.13044042037E+04  0.25500000000E-02 0.  1.
    8880023    1    1    2    0    0 -0.16400168953E+03  0.81455766598E+03 -0.73570983749E+03  0.12905347406E+04  0.65864270000E+03 0.  0.
    8880022    1    1    2    0    0  0.16400168953E+03 -0.81455766598E+03  0.32134829190E+03  0.90391212134E+03  0.15294330000E+03 0.  0.
<mgrwt>
<rscale>  0 0.10017617E+04</rscale>
<asrwt>0</asrwt>
<pdfrwt beam="1">  1        2 0.13692964E+00 0.10602881E+04</pdfrwt>
<pdfrwt beam="2">  1       -2 0.20067757E+00 0.10602881E+04</pdfrwt>
<totfact> 0.38674456E+00</totfact>
</mgrwt>
</event>
<event>
 4    2  0.6387803E-007  0.8837212E+03  0.7818608E-02  0.9552686E-01
         -2   -1    0    0    0  501 -0.00000000000E+00  0.00000000000E+00  0.29672386176E+03  0.29672386177E+03  0.25500000000E-02 0.  1.
          2   -1    0    0  501    0  0.00000000000E+00 -0.00000000000E+00 -0.18799176590E+04  0.18799176590E+04  0.25500000000E-02 0. -1.
    8880023    1    1    2    0    0 -0.56699639983E+03  0.16021232287E+03 -0.89263003703E+03  0.12560857833E+04  0.65864270000E+03 0.  1.
    8880022    1    1    2    0    0  0.56699639983E+03 -0.16021232287E+03 -0.69056376024E+03  0.92055573747E+03  0.15294330000E+03 0. -1.
<mgrwt>
<rscale>  0 0.80508456E+03</rscale>
<asrwt>0</asrwt>
<pdfrwt beam="1">  1        2 0.28921809E+00 0.88372117E+03</pdfrwt>
<pdfrwt beam="2">  1       -2 0.45649826E-01 0.88372117E+03</pdfrwt>
<totfact> 0.35945870E+01</totfact>
</mgrwt>
</event>
<event>
 4    2  0.6387803E-007  0.7994840E+03  0.7818608E-02  0.9711913E-01
         -2   -1    0    0    0  501 -0.00000000000E+00  0.00000000000E+00  0.32662804037E+03  0.32662804038E+03  0.25500000000E-02 0.  1.
          2   -1    0    0  501    0  0.00000000000E+00 -0.00000000000E+00 -0.15768851026E+04  0.15768851026E+04  0.25500000000E-02 0. -1.
    8880023    1    1    2    0    0  0.39137682037E+03  0.22844832743E+03 -0.32709440234E+03  0.86380866408E+03  0.65864270000E+03 0.  0.
    8880022    1    1    2    0    0 -0.39137682037E+03 -0.22844832743E+03 -0.92316265984E+03  0.10397044789E+04  0.15294330000E+03 0.  0.
<mgrwt>
<rscale>  0 0.70311914E+03</rscale>
<asrwt>0</asrwt>
<pdfrwt beam="1">  1        2 0.24259770E+00 0.79948400E+03</pdfrwt>
<pdfrwt beam="2">  1       -2 0.50250469E-01 0.79948400E+03</pdfrwt>
<totfact> 0.43813074E+01</totfact>
</mgrwt>
</event>
<event>
 4    2  0.6387803E-007  0.7283493E+03  0.7818608E-02  0.9895285E-01
         -2   -1    0    0    0  501 -0.00000000000E+00  0.00000000000E+00  0.60919710003E+03  0.60919710003E+03  0.25500000000E-02 0.  1.
          2   -1    0    0  501    0  0.00000000000E+00 -0.00000000000E+00 -0.48797077014E+03  0.48797077015E+03  0.25500000000E-02 0. -1.
    8880023    1    1    2    0    0  0.14254673476E+03  0.27633847654E+03  0.16809627189E+03  0.74749520941E+03  0.65864270000E+03 0.  1.
    8880022    1    1    2    0    0 -0.14254673476E+03 -0.27633847654E+03 -0.46869942003E+02  0.34967266077E+03  0.15294330000E+03 0. -1.
<mgrwt>
<rscale>  0 0.60490335E+03</rscale>
<asrwt>0</asrwt>
<pdfrwt beam="1">  1        2 0.75072426E-01 0.72834932E+03</pdfrwt>
<pdfrwt beam="2">  1       -2 0.93722631E-01 0.72834932E+03</pdfrwt>
<totfact> 0.61720351E+01</totfact>
</mgrwt>
</event>
<event>
 4    2  0.6387803E-007  0.7183689E+03  0.7818608E-02  0.9928144E-01
          2   -1    0    0  501    0  0.00000000000E+00  0.00000000000E+00  0.24949678171E+04  0.24949678171E+04  0.25500000000E-02 0. -1.
         -2   -1    0    0    0  501 -0.00000000000E+00 -0.00000000000E+00 -0.17505765722E+03  0.17505765724E+03  0.25500000000E-02 0.  1.
    8880023    1    1    2    0    0 -0.17399273293E+02 -0.28625328704E+03  0.65003105352E+03  0.96881074306E+03  0.65864270000E+03 0.  1.
    8880022    1    1    2    0    0  0.17399273293E+02  0.28625328704E+03  0.16698791063E+04  0.17012147312E+04  0.15294330000E+03 0.  0.
<mgrwt>
<rscale>  0 0.58916480E+03</rscale>
<asrwt>0</asrwt>
<pdfrwt beam="1">  1        2 0.38384119E+00 0.71836891E+03</pdfrwt>
<pdfrwt beam="2">  1       -2 0.26931948E-01 0.71836891E+03</pdfrwt>
<totfact> 0.45861247E+01</totfact>
</mgrwt>
</event>
<event>
 4    2  0.6387803E-007  0.8206759E+03  0.7818608E-02  0.9667754E-01
         -2   -1    0    0    0  501 -0.00000000000E+00  0.00000000000E+00  0.37992361298E+03  0.37992361299E+03  0.25500000000E-02 0.  1.
          2   -1    0    0  501    0  0.00000000000E+00 -0.00000000000E+00 -0.23973687177E+04  0.23973687177E+04  0.25500000000E-02 0. -1.
    8880023    1    1    2    0    0  0.46546352552E+03 -0.15179749334E+03 -0.14187301371E+03  0.83284868425E+03  0.65864270000E+03 0.  0.
    8880022    1    1    2    0    0 -0.46546352552E+03  0.15179749334E+03 -0.18755720910E+04  0.19444436464E+04  0.15294330000E+03 0.  0.
<mgrwt>
<rscale>  0 0.72969589E+03</rscale>
<asrwt>0</asrwt>
<pdfrwt beam="1">  1        2 0.36882595E+00 0.82067593E+03</pdfrwt>
<pdfrwt beam="2">  1       -2 0.58449788E-01 0.82067593E+03</pdfrwt>
<totfact> 0.11291511E+01</totfact>
</mgrwt>
</event>
<event>
 4    2  0.6387803E-007  0.6795169E+03  0.7818608E-02  0.1009598E+00
          2   -1    0    0  501    0  0.00000000000E+00  0.00000000000E+00  0.65762173886E+03  0.65762173886E+03  0.25500000000E-02 0. -1.
         -2   -1    0    0    0  501 -0.00000000000E+00 -0.00000000000E+00 -0.48073076377E+03  0.48073076377E+03  0.25500000000E-02 0.  1.
    8880023    1    1    2    0    0 -0.82954117744E+02  0.14509159458E+03 -0.19140195027E+03  0.70595882975E+03  0.65864270000E+03 0.  1.
    8880022    1    1    2    0    0  0.82954117744E+02 -0.14509159458E+03  0.36829292536E+03  0.43239367289E+03  0.15294330000E+03 0.  0.
<mgrwt>
<rscale>  0 0.51634608E+03</rscale>
<asrwt>0</asrwt>
<pdfrwt beam="1">  1        2 0.10117257E+00 0.67951686E+03</pdfrwt>
<pdfrwt beam="2">  1       -2 0.73958579E-01 0.67951686E+03</pdfrwt>
<totfact> 0.74242438E+01</totfact>
</mgrwt>
</event>
<event>
 4    2  0.6387803E-007  0.8035456E+03  0.7818608E-02  0.9703181E-01
         -2   -1    0    0    0  501 -0.00000000000E+00  0.00000000000E+00  0.45793199826E+03  0.45793199826E+03  0.25500000000E-02 0.  1.
          2   -1    0    0  501    0  0.00000000000E+00 -0.00000000000E+00 -0.15897653779E+04  0.15897653779E+04  0.25500000000E-02 0. -1.
    8880023    1    1    2    0    0  0.39611460750E+03 -0.23445377332E+03  0.13746835484E+02  0.80366319802E+03  0.65864270000E+03 0.  1.
    8880022    1    1    2    0    0 -0.39611460750E+03  0.23445377332E+03 -0.11455802151E+04  0.12440341782E+04  0.15294330000E+03 0.  0.
<mgrwt>
<rscale>  0 0.70827682E+03</rscale>
<asrwt>0</asrwt>
<pdfrwt beam="1">  1        2 0.24457929E+00 0.80354562E+03</pdfrwt>
<pdfrwt beam="2">  1       -2 0.70451078E-01 0.80354562E+03</pdfrwt>
<totfact> 0.21105878E+01</totfact>
</mgrwt>
</event>
<event>
 4    2  0.6387803E-007  0.6707861E+03  0.7818608E-02  0.1015105E+00
         -2   -1    0    0    0  501 -0.00000000000E+00  0.00000000000E+00  0.12619810386E+04  0.12619810386E+04  0.25500000000E-02 0.  1.
          2   -1    0    0  501    0  0.00000000000E+00 -0.00000000000E+00 -0.10399315557E+04  0.10399315557E+04  0.25500000000E-02 0. -1.
    8880023    1    1    2    0    0  0.24529013828E+02 -0.12466817485E+03  0.11617001813E+04  0.13414549355E+04  0.65864270000E+03 0.  1.
    8880022    1    1    2    0    0 -0.24529013828E+02  0.12466817485E+03 -0.93965069839E+03  0.96045765879E+03  0.15294330000E+03 0.  0.
<mgrwt>
<rscale>  0 0.49495012E+03</rscale>
<asrwt>0</asrwt>
<pdfrwt beam="1">  1        2 0.15998947E+00 0.67078613E+03</pdfrwt>
<pdfrwt beam="2">  1       -2 0.19415093E+00 0.67078613E+03</pdfrwt>
<totfact> 0.35801734E+00</totfact>
</mgrwt>
</event>
<event>
 4    2  0.6387803E-007  0.8079118E+03  0.7818608E-02  0.9693943E-01
          2   -1    0    0  501    0  0.00000000000E+00  0.00000000000E+00  0.85377521302E+03  0.85377521302E+03  0.25500000000E-02 0. -1.
         -2   -1    0    0    0  501 -0.00000000000E+00 -0.00000000000E+00 -0.55024900642E+03  0.55024900643E+03  0.25500000000E-02 0.  1.
    8880023    1    1    2    0    0 -0.11076343177E+03 -0.45457971349E+03 -0.31601994956E+02  0.80852961979E+03  0.65864270000E+03 0.  0.
    8880022    1    1    2    0    0  0.11076343177E+03  0.45457971349E+03  0.33512820155E+03  0.59549459966E+03  0.15294330000E+03 0.  0.
<mgrwt>
<rscale>  0 0.71378561E+03</rscale>
<asrwt>0</asrwt>
<pdfrwt beam="1">  1        2 0.13135003E+00 0.80791179E+03</pdfrwt>
<pdfrwt beam="2">  1       -2 0.84653694E-01 0.80791179E+03</pdfrwt>
<totfact> 0.38731846E+01</totfact>
</mgrwt>
</event>
<event>
 4    2  0.6387803E-007  0.7517246E+03  0.7818608E-02  0.9827023E-01
          2   -1    0    0  501    0  0.00000000000E+00  0.00000000000E+00  0.36416355439E+03  0.36416355440E+03  0.25500000000E-02 0. -1.
         -2   -1    0    0    0  501 -0.00000000000E+00 -0.00000000000E+00 -0.11690390093E+04  0.11690390093E+04  0.25500000000E-02 0.  1.
    8880023    1    1    2    0    0  0.11091611109E+03 -0.34493084056E+03 -0.85301970979E+03  0.11369839489E+04  0.65864270000E+03 0.  1.
    8880022    1    1    2    0    0 -0.11091611109E+03  0.34493084056E+03  0.48144254846E+02  0.39621861486E+03  0.15294330000E+03 0. -1.
<mgrwt>
<rscale>  0 0.63932295E+03</rscale>
<asrwt>0</asrwt>
<pdfrwt beam="1">  1        2 0.56025163E-01 0.75172460E+03</pdfrwt>
<pdfrwt beam="2">  1       -2 0.17985215E+00 0.75172460E+03</pdfrwt>
<totfact> 0.16309574E+01</totfact>
</mgrwt>
</event>
<event>
 4    2  0.6387803E-007  0.7374961E+03  0.7818608E-02  0.9867302E-01
          2   -1    0    0  501    0  0.00000000000E+00  0.00000000000E+00  0.27490250242E+04  0.27490250242E+04  0.25500000000E-02 0. -1.
         -2   -1    0    0    0  501 -0.00000000000E+00 -0.00000000000E+00 -0.14292709036E+03  0.14292709038E+03  0.25500000000E-02 0.  1.
    8880023    1    1    2    0    0 -0.40383975186E+02 -0.32933188462E+03  0.98674087617E+03  0.12318920889E+04  0.65864270000E+03 0.  1.
    8880022    1    1    2    0    0  0.40383975186E+02  0.32933188462E+03  0.16193570577E+04  0.16600600257E+04  0.15294330000E+03 0.  0.
<mgrwt>
<rscale>  0 0.61872499E+03</rscale>
<asrwt>0</asrwt>
<pdfrwt beam="1">  1        2 0.42292689E+00 0.73749614E+03</pdfrwt>
<pdfrwt beam="2">  1       -2 0.21988785E-01 0.73749614E+03</pdfrwt>
<totfact> 0.47021454E+01</totfact>
</mgrwt>
</event>
<event>
 4    2  0.6387803E-007  0.8442454E+03  0.7818608E-02  0.9622226E-01
          2   -1    0    0  501    0  0.00000000000E+00  0.00000000000E+00  0.13011961085E+04  0.13011961085E+04  0.25500000000E-02 0. -1.
         -2   -1    0    0    0  501 -0.00000000000E+00 -0.00000000000E+00 -0.50083569480E+03  0.50083569481E+03  0.25500000000E-02 0.  1.
    8880023    1    1    2    0    0 -0.70321743091E+02  0.52344531078E+03  0.16319044973E+02  0.84440313738E+03  0.65864270000E+03 0.  0.
    8880022    1    1    2    0    0  0.70321743091E+02 -0.52344531078E+03  0.78404136872E+03  0.95762866592E+03  0.15294330000E+03 0.  0.
<mgrwt>
<rscale>  0 0.75842391E+03</rscale>
<asrwt>0</asrwt>
<pdfrwt beam="1">  1        2 0.20018402E+00 0.84424543E+03</pdfrwt>
<pdfrwt beam="2">  1       -2 0.77051645E-01 0.84424543E+03</pdfrwt>
<totfact> 0.25075917E+01</totfact>
</mgrwt>
</event>
<event>
 4    2  0.6387803E-007  0.7538041E+03  0.7818608E-02  0.9821420E-01
          2   -1    0    0  501    0  0.00000000000E+00  0.00000000000E+00  0.13522045716E+04  0.13522045716E+04  0.25500000000E-02 0. -1.
         -2   -1    0    0    0  501 -0.00000000000E+00 -0.00000000000E+00 -0.67437873306E+03  0.67437873307E+03  0.25500000000E-02 0.  1.
    8880023    1    1    2    0    0 -0.10099885610E+03  0.35243392091E+03 -0.41732294271E+03  0.86161423057E+03  0.65864270000E+03 0.  1.
    8880022    1    1    2    0    0  0.10099885610E+03 -0.35243392091E+03  0.10951487812E+04  0.11649690741E+04  0.15294330000E+03 0.  0.
<mgrwt>
<rscale>  0 0.64225571E+03</rscale>
<asrwt>0</asrwt>
<pdfrwt beam="1">  1        2 0.20803147E+00 0.75380412E+03</pdfrwt>
<pdfrwt beam="2">  1       -2 0.10375057E+00 0.75380412E+03</pdfrwt>
<totfact> 0.11912948E+01</totfact>
</mgrwt>
</event>
<event>
 4    2  0.6387803E-007  0.6819587E+03  0.7818608E-02  0.1008237E+00
         -2   -1    0    0    0  501 -0.00000000000E+00  0.00000000000E+00  0.33691146463E+03  0.33691146464E+03  0.25500000000E-02 0.  1.
          2   -1    0    0  501    0  0.00000000000E+00 -0.00000000000E+00 -0.96327522233E+03  0.96327522233E+03  0.25500000000E-02 0. -1.
    8880023    1    1    2    0    0  0.81323950027E+01 -0.17661073539E+03 -0.56568928317E+02  0.68430091160E+03  0.65864270000E+03 0.  0.
    8880022    1    1    2    0    0 -0.81323950027E+01  0.17661073539E+03 -0.56979482938E+03  0.61588577537E+03  0.15294330000E+03 0. -1.
<mgrwt>
<rscale>  0 0.52181491E+03</rscale>
<asrwt>0</asrwt>
<pdfrwt beam="1">  1        2 0.14819619E+00 0.68195872E+03</pdfrwt>
<pdfrwt beam="2">  1       -2 0.51832533E-01 0.68195872E+03</pdfrwt>
<totfact> 0.95290234E+01</totfact>
</mgrwt>
</event>
<event>
 4    2  0.6387803E-007  0.7717541E+03  0.7818608E-02  0.9775576E-01
         -2   -1    0    0    0  501 -0.00000000000E+00  0.00000000000E+00  0.20918510613E+03  0.20918510615E+03  0.25500000000E-02 0.  1.
          2   -1    0    0  501    0  0.00000000000E+00 -0.00000000000E+00 -0.26410624019E+04  0.26410624019E+04  0.25500000000E-02 0. -1.
    8880023    1    1    2    0    0 -0.56539826361E+02  0.39824289373E+03 -0.62575332247E+03  0.99356508655E+03  0.65864270000E+03 0.  1.
    8880022    1    1    2    0    0  0.56539826361E+02 -0.39824289373E+03 -0.18061239733E+04  0.18566824215E+04  0.15294330000E+03 0. -1.
<mgrwt>
<rscale>  0 0.66689915E+03</rscale>
<asrwt>0</asrwt>
<pdfrwt beam="1">  1        2 0.40631727E+00 0.77175408E+03</pdfrwt>
<pdfrwt beam="2">  1       -2 0.32182326E-01 0.77175408E+03</pdfrwt>
<totfact> 0.27007479E+01</totfact>
</mgrwt>
</event>
<event>
 4    2  0.6387803E-007  0.9651988E+03  0.7818608E-02  0.9428575E-01
          2   -1    0    0  501    0  0.00000000000E+00  0.00000000000E+00  0.15281317829E+04  0.15281317829E+04  0.25500000000E-02 0. -1.
         -2   -1    0    0    0  501 -0.00000000000E+00 -0.00000000000E+00 -0.68805386047E+03  0.68805386047E+03  0.25500000000E-02 0.  1.
    8880023    1    1    2    0    0 -0.70365767942E+03 -0.51617436907E+02 -0.16448900588E+03  0.97911456373E+03  0.65864270000E+03 0.  0.
    8880022    1    1    2    0    0  0.70365767942E+03  0.51617436907E+02  0.10045669283E+04  0.12370710796E+04  0.15294330000E+03 0.  0.
<mgrwt>
<rscale>  0 0.89760880E+03</rscale>
<asrwt>0</asrwt>
<pdfrwt beam="1">  1        2 0.23509719E+00 0.96519879E+03</pdfrwt>
<pdfrwt beam="2">  1       -2 0.10585444E+00 0.96519879E+03</pdfrwt>
<totfact> 0.88125205E+00</totfact>
</mgrwt>
</event>
<event>
 4    2  0.6387803E-007  0.7762734E+03  0.7818608E-02  0.9764665E-01
         -2   -1    0    0    0  501 -0.00000000000E+00  0.00000000000E+00  0.63677292998E+03  0.63677292999E+03  0.25500000000E-02 0.  1.
          2   -1    0    0  501    0  0.00000000000E+00 -0.00000000000E+00 -0.20772307999E+04  0.20772307999E+04  0.25500000000E-02 0. -1.
    8880023    1    1    2    0    0 -0.27664249092E+03  0.30374177867E+03  0.36377059943E+03  0.85728022907E+03  0.65864270000E+03 0.  1.
    8880022    1    1    2    0    0  0.27664249092E+03 -0.30374177867E+03 -0.18042284694E+04  0.18567235009E+04  0.15294330000E+03 0.  0.
<mgrwt>
<rscale>  0 0.67293799E+03</rscale>
<asrwt>0</asrwt>
<pdfrwt beam="1">  1        2 0.31957397E+00 0.77627337E+03</pdfrwt>
<pdfrwt beam="2">  1       -2 0.97965067E-01 0.77627337E+03</pdfrwt>
<totfact> 0.54225050E+00</totfact>
</mgrwt>
</event>
<event>
 4    2  0.6387803E-007  0.6956122E+03  0.7818608E-02  0.1001591E+00
         -2   -1    0    0    0  501 -0.00000000000E+00  0.00000000000E+00  0.11914261282E+04  0.11914261282E+04  0.25500000000E-02 0.  1.
          2   -1    0    0  501    0  0.00000000000E+00 -0.00000000000E+00 -0.23655970363E+03  0.23655970364E+03  0.25500000000E-02 0. -1.
    8880023    1    1    2    0    0 -0.63111963300E+02  0.21466957084E+03  0.92199607141E+03  0.11549688769E+04  0.65864270000E+03 0.  0.
    8880022    1    1    2    0    0  0.63111963300E+02 -0.21466957084E+03  0.32870353108E+02  0.27301695494E+03  0.15294330000E+03 0.  0.
<mgrwt>
<rscale>  0 0.54957901E+03</rscale>
<asrwt>0</asrwt>
<pdfrwt beam="1">  1        2 0.36393800E-01 0.69561221E+03</pdfrwt>
<pdfrwt beam="2">  1       -2 0.18329633E+00 0.69561221E+03</pdfrwt>
<totfact> 0.25097558E+01</totfact>
</mgrwt>
</event>
<event>
 4    2  0.6387803E-007  0.1362060E+04  0.7818608E-02  0.9013739E-01
         -2   -1    0    0    0  501 -0.00000000000E+00  0.00000000000E+00  0.13664552701E+04  0.13664552701E+04  0.25500000000E-02 0.  1.
          2   -1    0    0  501    0  0.00000000000E+00 -0.00000000000E+00 -0.26665475668E+04  0.26665475668E+04  0.25500000000E-02 0. -1.
    8880023    1    1    2    0    0 -0.26004715427E+03  0.11635169536E+04  0.82434986144E+03  0.15920926870E+04  0.65864270000E+03 0.  0.
    8880022    1    1    2    0    0  0.26004715427E+03 -0.11635169536E+04 -0.21244421581E+04  0.24409101499E+04  0.15294330000E+03 0.  0.
<mgrwt>
<rscale>  0 0.13201479E+04</rscale>
<asrwt>0</asrwt>
<pdfrwt beam="1">  1        2 0.41023809E+00 0.13620596E+04</pdfrwt>
<pdfrwt beam="2">  1       -2 0.21022389E+00 0.13620596E+04</pdfrwt>
<totfact> 0.30333203E-01</totfact>
</mgrwt>
</event>
<event>
 4    2  0.6387803E-007  0.6716553E+03  0.7818608E-02  0.1014503E+00
          2   -1    0    0  501    0  0.00000000000E+00  0.00000000000E+00  0.81780106971E+03  0.81780106971E+03  0.25500000000E-02 0. -1.
         -2   -1    0    0    0  501 -0.00000000000E+00 -0.00000000000E+00 -0.29360165063E+03  0.29360165065E+03  0.25500000000E-02 0.  1.
    8880023    1    1    2    0    0 -0.12964311117E+03  0.22434853053E+02  0.15290997950E+03  0.68884129304E+03  0.65864270000E+03 0.  1.
    8880022    1    1    2    0    0  0.12964311117E+03 -0.22434853053E+02  0.37128943957E+03  0.42256142732E+03  0.15294330000E+03 0. -1.
<mgrwt>
<rscale>  0 0.49723561E+03</rscale>
<asrwt>0</asrwt>
<pdfrwt beam="1">  1        2 0.12581555E+00 0.67165532E+03</pdfrwt>
<pdfrwt beam="2">  1       -2 0.45169485E-01 0.67165532E+03</pdfrwt>
<totfact> 0.15787210E+02</totfact>
</mgrwt>
</event>
<event>
 4    2  0.6387803E-007  0.6673567E+03  0.7818608E-02  0.1017633E+00
         -2   -1    0    0    0  501 -0.00000000000E+00  0.00000000000E+00  0.18245106973E+03  0.18245106975E+03  0.25500000000E-02 0.  1.
          2   -1    0    0  501    0  0.00000000000E+00 -0.00000000000E+00 -0.45500912391E+04  0.45500912391E+04  0.25500000000E-02 0. -1.
    8880023    1    1    2    0    0  0.51233667098E+02 -0.94497943250E+02 -0.43754604962E+03  0.79800470031E+03  0.65864270000E+03 0.  1.
    8880022    1    1    2    0    0 -0.51233667098E+02  0.94497943250E+02 -0.39300941198E+04  0.39345376086E+04  0.15294330000E+03 0.  0.
<mgrwt>
<rscale>  0 0.48550513E+03</rscale>
<asrwt>0</asrwt>
<pdfrwt beam="1">  1        2 0.70001395E+00 0.66735669E+03</pdfrwt>
<pdfrwt beam="2">  1       -2 0.28069399E-01 0.66735669E+03</pdfrwt>
<totfact> 0.14840371E+00</totfact>
</mgrwt>
</event>
<event>
 4    2  0.6387803E-007  0.6975397E+03  0.7818608E-02  0.1000756E+00
          2   -1    0    0  501    0  0.00000000000E+00  0.00000000000E+00  0.85931249957E+03  0.85931249957E+03  0.25500000000E-02 0. -1.
         -2   -1    0    0    0  501 -0.00000000000E+00 -0.00000000000E+00 -0.28724876383E+03  0.28724876384E+03  0.25500000000E-02 0.  1.
    8880023    1    1    2    0    0 -0.17291214464E+03 -0.15117134081E+03  0.30085735718E+03  0.75965567179E+03  0.65864270000E+03 0.  1.
    8880022    1    1    2    0    0  0.17291214464E+03  0.15117134081E+03  0.27120637856E+03  0.38690559163E+03  0.15294330000E+03 0. -1.
<mgrwt>
<rscale>  0 0.55319782E+03</rscale>
<asrwt>0</asrwt>
<pdfrwt beam="1">  1        2 0.13220192E+00 0.69753967E+03</pdfrwt>
<pdfrwt beam="2">  1       -2 0.44192118E-01 0.69753967E+03</pdfrwt>
<totfact> 0.15399717E+02</totfact>
</mgrwt>
</event>
<event>
 4    2  0.6387803E-007  0.6850415E+03  0.7818608E-02  0.1006604E+00
          2   -1    0    0  501    0  0.00000000000E+00  0.00000000000E+00  0.12166774419E+04  0.12166774419E+04  0.25500000000E-02 0. -1.
         -2   -1    0    0    0  501 -0.00000000000E+00 -0.00000000000E+00 -0.40300328578E+03  0.40300328578E+03  0.25500000000E-02 0.  1.
    8880023    1    1    2    0    0 -0.13536501779E+03 -0.13095033477E+03 -0.83655379052E+02  0.69013049992E+03  0.65864270000E+03 0.  1.
    8880022    1    1    2    0    0  0.13536501779E+03  0.13095033477E+03  0.89732953515E+03  0.92955022773E+03  0.15294330000E+03 0.  0.
<mgrwt>
<rscale>  0 0.52846749E+03</rscale>
<asrwt>0</asrwt>
<pdfrwt beam="1">  1        2 0.18718114E+00 0.68504152E+03</pdfrwt>
<pdfrwt beam="2">  1       -2 0.62000506E-01 0.68504152E+03</pdfrwt>
<totfact> 0.45828503E+01</totfact>
</mgrwt>
</event>
<event>
 4    2  0.6387803E-007  0.6954969E+03  0.7818608E-02  0.1001642E+00
          2   -1    0    0  501    0  0.00000000000E+00  0.00000000000E+00  0.23928537002E+04  0.23928537002E+04  0.25500000000E-02 0. -1.
         -2   -1    0    0    0  501 -0.00000000000E+00 -0.00000000000E+00 -0.11680343102E+03  0.11680343105E+03  0.25500000000E-02 0.  1.
    8880023    1    1    2    0    0  0.21275248330E+03  0.68132901584E+02  0.10891498881E+04  0.12922706359E+04  0.65864270000E+03 0. -1.
    8880022    1    1    2    0    0 -0.21275248330E+03 -0.68132901584E+02  0.11869003811E+04  0.12173864954E+04  0.15294330000E+03 0.  0.
<mgrwt>
<rscale>  0 0.54936051E+03</rscale>
<asrwt>0</asrwt>
<pdfrwt beam="1">  1        2 0.36813132E+00 0.69549689E+03</pdfrwt>
<pdfrwt beam="2">  1       -2 0.17969760E-01 0.69549689E+03</pdfrwt>
<totfact> 0.10752691E+02</totfact>
</mgrwt>
</event>
<event>
 4    2  0.6387803E-007  0.7427600E+03  0.7818608E-02  0.9851979E-01
          2   -1    0    0  501    0  0.00000000000E+00  0.00000000000E+00  0.43548793365E+03  0.43548793366E+03  0.25500000000E-02 0. -1.
         -2   -1    0    0    0  501 -0.00000000000E+00 -0.00000000000E+00 -0.15471072250E+04  0.15471072250E+04  0.25500000000E-02 0.  1.
    8880023    1    1    2    0    0  0.17417461143E+03  0.29588062376E+03 -0.13476380090E+04  0.15387724160E+04  0.65864270000E+03 0.  1.
    8880022    1    1    2    0    0 -0.17417461143E+03 -0.29588062376E+03  0.23601871765E+03  0.44382274263E+03  0.15294330000E+03 0.  0.
<mgrwt>
<rscale>  0 0.62646103E+03</rscale>
<asrwt>0</asrwt>
<pdfrwt beam="1">  1        2 0.66998144E-01 0.74275995E+03</pdfrwt>
<pdfrwt beam="2">  1       -2 0.23801649E+00 0.74275995E+03</pdfrwt>
<totfact> 0.56503648E+00</totfact>
</mgrwt>
</event>
<event>
 4    2  0.6387803E-007  0.7835831E+03  0.7818608E-02  0.9747487E-01
         -2   -1    0    0    0  501 -0.00000000000E+00  0.00000000000E+00  0.58778355423E+03  0.58778355424E+03  0.25500000000E-02 0.  1.
          2   -1    0    0  501    0  0.00000000000E+00 -0.00000000000E+00 -0.17192407499E+04  0.17192407499E+04  0.25500000000E-02 0. -1.
    8880023    1    1    2    0    0  0.33022910388E+03  0.26672257113E+03  0.27463091910E+03  0.83031592721E+03  0.65864270000E+03 0.  1.
    8880022    1    1    2    0    0 -0.33022910388E+03 -0.26672257113E+03 -0.14060881148E+04  0.14767083770E+04  0.15294330000E+03 0.  0.
<mgrwt>
<rscale>  0 0.68258492E+03</rscale>
<asrwt>0</asrwt>
<pdfrwt beam="1">  1        2 0.26449857E+00 0.78358305E+03</pdfrwt>
<pdfrwt beam="2">  1       -2 0.90428240E-01 0.78358305E+03</pdfrwt>
<totfact> 0.10243438E+01</totfact>
</mgrwt>
</event>
<event>
 4    2  0.6387803E-007  0.6844986E+03  0.7818608E-02  0.1006885E+00
         -2   -1    0    0    0  501 -0.00000000000E+00  0.00000000000E+00  0.32028071764E+03  0.32028071765E+03  0.25500000000E-02 0.  1.
          2   -1    0    0  501    0  0.00000000000E+00 -0.00000000000E+00 -0.12523808191E+04  0.12523808191E+04  0.25500000000E-02 0. -1.
    8880023    1    1    2    0    0  0.17604239359E+03 -0.61132508794E+02 -0.82420466294E+02  0.68944285296E+03  0.65864270000E+03 0.  1.
    8880022    1    1    2    0    0 -0.17604239359E+03  0.61132508794E+02 -0.84967963520E+03  0.88321868383E+03  0.15294330000E+03 0.  0.
<mgrwt>
<rscale>  0 0.52731472E+03</rscale>
<asrwt>0</asrwt>
<pdfrwt beam="1">  1        2 0.19267397E+00 0.68449859E+03</pdfrwt>
<pdfrwt beam="2">  1       -2 0.49273957E-01 0.68449859E+03</pdfrwt>
<totfact> 0.70354279E+01</totfact>
</mgrwt>
</event>
<event>
 4    2  0.6387803E-007  0.1084757E+04  0.7818608E-02  0.9278220E-01
         -2   -1    0    0    0  501 -0.00000000000E+00  0.00000000000E+00  0.29018817709E+04  0.29018817709E+04  0.25500000000E-02 0.  1.
          2   -1    0    0  501    0  0.00000000000E+00 -0.00000000000E+00 -0.36031967986E+03  0.36031967987E+03  0.25500000000E-02 0. -1.
    8880023    1    1    2    0    0  0.38315836362E+02 -0.86105714582E+03  0.93265919384E+03  0.14305771177E+04  0.65864270000E+03 0.  0.
    8880022    1    1    2    0    0 -0.38315836362E+02  0.86105714582E+03  0.16089028972E+04  0.18316243330E+04  0.15294330000E+03 0.  0.
<mgrwt>
<rscale>  0 0.10281293E+04</rscale>
<asrwt>0</asrwt>
<pdfrwt beam="1">  1        2 0.55433797E-01 0.10847570E+04</pdfrwt>
<pdfrwt beam="2">  1       -2 0.44644335E+00 0.10847570E+04</pdfrwt>
<totfact> 0.33136507E-01</totfact>
</mgrwt>
</event>
<event>
 4    2  0.6387803E-007  0.6701234E+03  0.7818608E-02  0.1015575E+00
         -2   -1    0    0    0  501 -0.00000000000E+00  0.00000000000E+00  0.11848532480E+03  0.11848532482E+03  0.25500000000E-02 0.  1.
          2   -1    0    0  501    0  0.00000000000E+00 -0.00000000000E+00 -0.18600791667E+04  0.18600791667E+04  0.25500000000E-02 0. -1.
    8880023    1    1    2    0    0  0.12335011687E+03 -0.63148720710E+01 -0.94768045954E+03  0.11606737649E+04  0.65864270000E+03 0.  1.
    8880022    1    1    2    0    0 -0.12335011687E+03  0.63148720710E+01 -0.79391338237E+03  0.81789072660E+03  0.15294330000E+03 0.  0.
<mgrwt>
<rscale>  0 0.49317976E+03</rscale>
<asrwt>0</asrwt>
<pdfrwt beam="1">  1        2 0.28616600E+00 0.67012337E+03</pdfrwt>
<pdfrwt beam="2">  1       -2 0.18228513E-01 0.67012337E+03</pdfrwt>
<totfact> 0.20614000E+02</totfact>
</mgrwt>
</event>
<event>
 4    2  0.6387803E-007  0.1074967E+04  0.7818608E-02  0.9289453E-01
         -2   -1    0    0    0  501 -0.00000000000E+00  0.00000000000E+00  0.50220884457E+03  0.50220884458E+03  0.25500000000E-02 0.  1.
          2   -1    0    0  501    0  0.00000000000E+00 -0.00000000000E+00 -0.34067741143E+04  0.34067741143E+04  0.25500000000E-02 0. -1.
    8880023    1    1    2    0    0 -0.65733310356E+03 -0.53819771006E+03 -0.23098299521E+03  0.10995030398E+04  0.65864270000E+03 0.  0.
    8880022    1    1    2    0    0  0.65733310356E+03  0.53819771006E+03 -0.26735822745E+04  0.28094799191E+04  0.15294330000E+03 0.  0.
<mgrwt>
<rscale>  0 0.10175967E+04</rscale>
<asrwt>0</asrwt>
<pdfrwt beam="1">  1        2 0.52411908E+00 0.10749669E+04</pdfrwt>
<pdfrwt beam="2">  1       -2 0.77262901E-01 0.10749669E+04</pdfrwt>
<totfact> 0.14382280E+00</totfact>
</mgrwt>
</event>
<event>
 4    2  0.6387803E-007  0.9115332E+03  0.7818608E-02  0.9507765E-01
          2   -1    0    0  501    0  0.00000000000E+00  0.00000000000E+00  0.25762824520E+04  0.25762824520E+04  0.25500000000E-02 0. -1.
         -2   -1    0    0    0  501 -0.00000000000E+00 -0.00000000000E+00 -0.96628715284E+03  0.96628715284E+03  0.25500000000E-02 0.  1.
    8880023    1    1    2    0    0 -0.17483281581E+02 -0.62990222709E+03  0.23725249701E+04  0.25416072515E+04  0.65864270000E+03 0. -1.
    8880022    1    1    2    0    0  0.17483281581E+02  0.62990222709E+03 -0.76252967091E+03  0.10009623534E+04  0.15294330000E+03 0.  0.
<mgrwt>
<rscale>  0 0.83713743E+03</rscale>
<asrwt>0</asrwt>
<pdfrwt beam="1">  1        2 0.39635113E+00 0.91153315E+03</pdfrwt>
<pdfrwt beam="2">  1       -2 0.14865957E+00 0.91153315E+03</pdfrwt>
<totfact> 0.98563809E-01</totfact>
</mgrwt>
</event>
<event>
 4    2  0.6387803E-007  0.7299902E+03  0.7818608E-02  0.9890127E-01
          2   -1    0    0  501    0  0.00000000000E+00  0.00000000000E+00  0.68212969205E+03  0.68212969206E+03  0.25500000000E-02 0. -1.
         -2   -1    0    0    0  501 -0.00000000000E+00 -0.00000000000E+00 -0.69440317141E+03  0.69440317141E+03  0.25500000000E-02 0.  1.
    8880023    1    1    2    0    0 -0.31144704021E+03 -0.45565933191E+02 -0.41763143961E+03  0.84101232972E+03  0.65864270000E+03 0.  1.
    8880022    1    1    2    0    0  0.31144704021E+03  0.45565933191E+02  0.40535796025E+03  0.53552053375E+03  0.15294330000E+03 0.  0.
<mgrwt>
<rscale>  0 0.60742161E+03</rscale>
<asrwt>0</asrwt>
<pdfrwt beam="1">  1        2 0.10494303E+00 0.72999022E+03</pdfrwt>
<pdfrwt beam="2">  1       -2 0.10683126E+00 0.72999022E+03</pdfrwt>
<totfact> 0.30298835E+01</totfact>
</mgrwt>
</event>
<event>
 4    2  0.6387803E-007  0.7885332E+03  0.7818608E-02  0.9736161E-01
         -2   -1    0    0    0  501 -0.00000000000E+00  0.00000000000E+00  0.36168213172E+03  0.36168213172E+03  0.25500000000E-02 0.  1.
          2   -1    0    0  501    0  0.00000000000E+00 -0.00000000000E+00 -0.21904154467E+04  0.21904154467E+04  0.25500000000E-02 0. -1.
    8880023    1    1    2    0    0  0.40959311080E+03  0.14215436066E+03 -0.13868929734E+03  0.80063681287E+03  0.65864270000E+03 0.  1.
    8880022    1    1    2    0    0 -0.40959311080E+03 -0.14215436066E+03 -0.16900440176E+04  0.17514607655E+04  0.15294330000E+03 0.  0.
<mgrwt>
<rscale>  0 0.68903992E+03</rscale>
<asrwt>0</asrwt>
<pdfrwt beam="1">  1        2 0.33698698E+00 0.78853319E+03</pdfrwt>
<pdfrwt beam="2">  1       -2 0.55643406E-01 0.78853319E+03</pdfrwt>
<totfact> 0.16393248E+01</totfact>
</mgrwt>
</event>
<event>
 4    2  0.6387803E-007  0.7855540E+03  0.7818608E-02  0.9742949E-01
          2   -1    0    0  501    0  0.00000000000E+00  0.00000000000E+00  0.11890748116E+04  0.11890748116E+04  0.25500000000E-02 0. -1.
         -2   -1    0    0    0  501 -0.00000000000E+00 -0.00000000000E+00 -0.41124537894E+03  0.41124537895E+03  0.25500000000E-02 0.  1.
    8880023    1    1    2    0    0 -0.17931482524E+03 -0.38875581778E+03  0.11113473380E+03  0.79337634684E+03  0.65864270000E+03 0.  0.
    8880022    1    1    2    0    0  0.17931482524E+03  0.38875581778E+03  0.66669469889E+03  0.80694384374E+03  0.15294330000E+03 0.  0.
<mgrwt>
<rscale>  0 0.68516226E+03</rscale>
<asrwt>0</asrwt>
<pdfrwt beam="1">  1        2 0.18293458E+00 0.78555401E+03</pdfrwt>
<pdfrwt beam="2">  1       -2 0.63268521E-01 0.78555401E+03</pdfrwt>
<totfact> 0.45126009E+01</totfact>
</mgrwt>
</event>
<event>
 4    2  0.6387803E-007  0.7291152E+03  0.7818608E-02  0.9892870E-01
          2   -1    0    0  501    0  0.00000000000E+00  0.00000000000E+00  0.19474183661E+04  0.19474183661E+04  0.25500000000E-02 0. -1.
         -2   -1    0    0    0  501 -0.00000000000E+00 -0.00000000000E+00 -0.32351234228E+03  0.32351234229E+03  0.25500000000E-02 0.  1.
    8880023    1    1    2    0    0 -0.27464539560E+03  0.14956164422E+03  0.13454484380E+03  0.74142518166E+03  0.65864270000E+03 0.  1.
    8880022    1    1    2    0    0  0.27464539560E+03 -0.14956164422E+03  0.14893611800E+04  0.15295055267E+04  0.15294330000E+03 0.  0.
<mgrwt>
<rscale>  0 0.60608099E+03</rscale>
<asrwt>0</asrwt>
<pdfrwt beam="1">  1        2 0.29960283E+00 0.72911521E+03</pdfrwt>
<pdfrwt beam="2">  1       -2 0.49771129E-01 0.72911521E+03</pdfrwt>
<totfact> 0.28242660E+01</totfact>
</mgrwt>
</event>
<event>
 4    2  0.6387803E-007  0.7256471E+03  0.7818608E-02  0.9903922E-01
         -2   -1    0    0    0  501 -0.00000000000E+00  0.00000000000E+00  0.20266143093E+03  0.20266143095E+03  0.25500000000E-02 0.  1.
          2   -1    0    0  501    0  0.00000000000E+00 -0.00000000000E+00 -0.18609320278E+04  0.18609320278E+04  0.25500000000E-02 0. -1.
    8880023    1    1    2    0    0  0.15057038868E+02  0.30418221293E+03 -0.56863398472E+03  0.92190473907E+03  0.65864270000E+03 0.  0.
    8880022    1    1    2    0    0 -0.15057038868E+02 -0.30418221293E+03 -0.10896366122E+04  0.11416887197E+04  0.15294330000E+03 0.  0.
<mgrwt>
<rscale>  0 0.60071608E+03</rscale>
<asrwt>0</asrwt>
<pdfrwt beam="1">  1        2 0.28629722E+00 0.72564712E+03</pdfrwt>
<pdfrwt beam="2">  1       -2 0.31178683E-01 0.72564712E+03</pdfrwt>
<totfact> 0.78238756E+01</totfact>
</mgrwt>
</event>
<event>
 4    2  0.6387803E-007  0.1025582E+04  0.7818608E-02  0.9348828E-01
          2   -1    0    0  501    0  0.00000000000E+00  0.00000000000E+00  0.19802739733E+04  0.19802739733E+04  0.25500000000E-02 0. -1.
         -2   -1    0    0    0  501 -0.00000000000E+00 -0.00000000000E+00 -0.97544437027E+03  0.97544437028E+03  0.25500000000E-02 0.  1.
    8880023    1    1    2    0    0  0.48935106915E+03 -0.61525909139E+03 -0.58129850475E+03  0.11788665642E+04  0.65864270000E+03 0.  1.
    8880022    1    1    2    0    0 -0.48935106915E+03  0.61525909139E+03  0.15861281078E+04  0.17768517793E+04  0.15294330000E+03 0.  0.
<mgrwt>
<rscale>  0 0.96409293E+03</rscale>
<asrwt>0</asrwt>
<pdfrwt beam="1">  1        2 0.30465753E+00 0.10255820E+04</pdfrwt>
<pdfrwt beam="2">  1       -2 0.15006837E+00 0.10255820E+04</pdfrwt>
<totfact> 0.20383349E+00</totfact>
</mgrwt>
</event>
<event>
 4    2  0.6387803E-007  0.6958553E+03  0.7818608E-02  0.1001485E+00
         -2   -1    0    0    0  501 -0.00000000000E+00  0.00000000000E+00  0.12178600287E+03  0.12178600290E+03  0.25500000000E-02 0.  1.
          2   -1    0    0  501    0  0.00000000000E+00 -0.00000000000E+00 -0.21730743361E+04  0.21730743361E+04  0.25500000000E-02 0. -1.
    8880023    1    1    2    0    0  0.12828663312E+03  0.18424674517E+03 -0.10676406549E+04  0.12743904808E+04  0.65864270000E+03 0.  0.
    8880022    1    1    2    0    0 -0.12828663312E+03 -0.18424674517E+03 -0.98364767832E+03  0.10204698582E+04  0.15294330000E+03 0.  0.
<mgrwt>
<rscale>  0 0.55003873E+03</rscale>
<asrwt>0</asrwt>
<pdfrwt beam="1">  1        2 0.33431910E+00 0.69585525E+03</pdfrwt>
<pdfrwt beam="2">  1       -2 0.18736310E-01 0.69585525E+03</pdfrwt>
<totfact> 0.13237583E+02</totfact>
</mgrwt>
</event>
<event>
 4    2  0.6387803E-007  0.6905986E+03  0.7818608E-02  0.1003869E+00
         -2   -1    0    0    0  501 -0.00000000000E+00  0.00000000000E+00  0.11909164093E+04  0.11909164093E+04  0.25500000000E-02 0.  1.
          2   -1    0    0  501    0  0.00000000000E+00 -0.00000000000E+00 -0.49212221612E+03  0.49212221613E+03  0.25500000000E-02 0. -1.
    8880023    1    1    2    0    0  0.17898408276E+02 -0.20687155220E+03  0.10442414152E+04  0.12519450993E+04  0.65864270000E+03 0.  1.
    8880022    1    1    2    0    0 -0.17898408276E+02  0.20687155220E+03 -0.34544722198E+03  0.43109352618E+03  0.15294330000E+03 0.  0.
<mgrwt>
<rscale>  0 0.53985654E+03</rscale>
<asrwt>0</asrwt>
<pdfrwt beam="1">  1        2 0.75711110E-01 0.69059858E+03</pdfrwt>
<pdfrwt beam="2">  1       -2 0.18321791E+00 0.69059858E+03</pdfrwt>
<totfact> 0.11061757E+01</totfact>
</mgrwt>
</event>
<event>
 4    2  0.6387803E-007  0.6855973E+03  0.7818608E-02  0.1006320E+00
         -2   -1    0    0    0  501 -0.00000000000E+00  0.00000000000E+00  0.33075778714E+03  0.33075778715E+03  0.25500000000E-02 0.  1.
          2   -1    0    0  501    0  0.00000000000E+00 -0.00000000000E+00 -0.11227909633E+04  0.11227909633E+04  0.25500000000E-02 0. -1.
    8880023    1    1    2    0    0 -0.87587834403E+02 -0.16900260657E+03 -0.67426405513E+02  0.68890495439E+03  0.65864270000E+03 0.  1.
    8880022    1    1    2    0    0  0.87587834403E+02  0.16900260657E+03 -0.72460677060E+03  0.76464379601E+03  0.15294330000E+03 0.  0.
<mgrwt>
<rscale>  0 0.52963971E+03</rscale>
<asrwt>0</asrwt>
<pdfrwt beam="1">  1        2 0.17273707E+00 0.68559734E+03</pdfrwt>
<pdfrwt beam="2">  1       -2 0.50885814E-01 0.68559734E+03</pdfrwt>
<totfact> 0.78634546E+01</totfact>
</mgrwt>
</event>
<event>
 4    2  0.6387803E-007  0.1440174E+04  0.7818608E-02  0.8953079E-01
         -2   -1    0    0    0  501 -0.00000000000E+00  0.00000000000E+00  0.12153907821E+04  0.12153907821E+04  0.25500000000E-02 0.  1.
          2   -1    0    0  501    0  0.00000000000E+00 -0.00000000000E+00 -0.20842512416E+04  0.20842512416E+04  0.25500000000E-02 0. -1.
    8880023    1    1    2    0    0 -0.12929090574E+03 -0.12741959303E+04  0.39546649669E+03  0.14934843030E+04  0.65864270000E+03 0.  0.
    8880022    1    1    2    0    0  0.12929090574E+03  0.12741959303E+04 -0.12643269562E+04  0.18061577207E+04  0.15294330000E+03 0.  0.
<mgrwt>
<rscale>  0 0.14010224E+04</rscale>
<asrwt>0</asrwt>
<pdfrwt beam="1">  1        2 0.32065404E+00 0.14401742E+04</pdfrwt>
<pdfrwt beam="2">  1       -2 0.18698320E+00 0.14401742E+04</pdfrwt>
<totfact> 0.92137285E-01</totfact>
</mgrwt>
</event>
<event>
 4    2  0.6387803E-007  0.6591863E+03  0.7818608E-02  0.1025006E+00
          2   -1    0    0  501    0  0.00000000000E+00  0.00000000000E+00  0.14627266246E+04  0.14627266246E+04  0.25500000000E-02 0. -1.
         -2   -1    0    0    0  501 -0.00000000000E+00 -0.00000000000E+00 -0.21504130768E+03  0.21504130769E+03  0.25500000000E-02 0.  1.
    8880023    1    1    2    0    0  0.26379566763E+02 -0.45329875142E+01  0.31201270189E+03  0.72930004931E+03  0.65864270000E+03 0.  1.
    8880022    1    1    2    0    0 -0.26379566763E+02  0.45329875142E+01  0.93567261507E+03  0.94846788302E+03  0.15294330000E+03 0.  0.
<mgrwt>
<rscale>  0 0.45922602E+03</rscale>
<asrwt>0</asrwt>
<pdfrwt beam="1">  1        2 0.22503488E+00 0.65918634E+03</pdfrwt>
<pdfrwt beam="2">  1       -2 0.33083277E-01 0.65918634E+03</pdfrwt>
<totfact> 0.11655103E+02</totfact>
</mgrwt>
</event>
<event>
 4    2  0.6387803E-007  0.8488974E+03  0.7818608E-02  0.9613626E-01
         -2   -1    0    0    0  501 -0.00000000000E+00  0.00000000000E+00  0.46497304402E+03  0.46497304403E+03  0.25500000000E-02 0.  1.
          2   -1    0    0  501    0  0.00000000000E+00 -0.00000000000E+00 -0.19852528584E+04  0.19852528584E+04  0.25500000000E-02 0. -1.
    8880023    1    1    2    0    0 -0.51613614136E+03  0.14289873916E+03 -0.19162818750E+02  0.84911364725E+03  0.65864270000E+03 0.  1.
    8880022    1    1    2    0    0  0.51613614136E+03 -0.14289873916E+03 -0.15011169956E+04  0.16011122551E+04  0.15294330000E+03 0.  0.
<mgrwt>
<rscale>  0 0.76400827E+03</rscale>
<asrwt>0</asrwt>
<pdfrwt beam="1">  1        2 0.30542351E+00 0.84889739E+03</pdfrwt>
<pdfrwt beam="2">  1       -2 0.71534315E-01 0.84889739E+03</pdfrwt>
<totfact> 0.12319550E+01</totfact>
</mgrwt>
</event>
<event>
 4    2  0.6387803E-007  0.9876168E+03  0.7818608E-02  0.9397941E-01
         -2   -1    0    0    0  501 -0.00000000000E+00  0.00000000000E+00  0.61209074666E+03  0.61209074667E+03  0.25500000000E-02 0.  1.
          2   -1    0    0  501    0  0.00000000000E+00 -0.00000000000E+00 -0.22717399825E+04  0.22717399825E+04  0.25500000000E-02 0. -1.
    8880023    1    1    2    0    0  0.25858396325E+03  0.68899279765E+03  0.77888790346E+02  0.99068340613E+03  0.65864270000E+03 0. -1.
    8880022    1    1    2    0    0 -0.25858396325E+03 -0.68899279765E+03 -0.17375380262E+04  0.18931473230E+04  0.15294330000E+03 0.  0.
<mgrwt>
<rscale>  0 0.92245326E+03</rscale>
<asrwt>0</asrwt>
<pdfrwt beam="1">  1        2 0.34949845E+00 0.98761680E+03</pdfrwt>
<pdfrwt beam="2">  1       -2 0.94167808E-01 0.98761680E+03</pdfrwt>
<totfact> 0.45049607E+00</totfact>
</mgrwt>
</event>
<event>
 4    2  0.6387803E-007  0.1342088E+04  0.7818608E-02  0.9030040E-01
          2   -1    0    0  501    0  0.00000000000E+00  0.00000000000E+00  0.24495936207E+04  0.24495936207E+04  0.25500000000E-02 0. -1.
         -2   -1    0    0    0  501 -0.00000000000E+00 -0.00000000000E+00 -0.69015235576E+03  0.69015235576E+03  0.25500000000E-02 0.  1.
    8880023    1    1    2    0    0  0.11490488986E+04 -0.21697268004E+03  0.54972566788E+03  0.14503099777E+04  0.65864270000E+03 0.  0.
    8880022    1    1    2    0    0 -0.11490488986E+04  0.21697268004E+03  0.12097155971E+04  0.16894359988E+04  0.15294330000E+03 0.  0.
<mgrwt>
<rscale>  0 0.12994010E+04</rscale>
<asrwt>0</asrwt>
<pdfrwt beam="1">  1        2 0.37686056E+00 0.13420882E+04</pdfrwt>
<pdfrwt beam="2">  1       -2 0.10617729E+00 0.13420882E+04</pdfrwt>
<totfact> 0.25760197E+00</totfact>
</mgrwt>
</event>
<event>
 4    2  0.6387803E-007  0.8097571E+03  0.7818608E-02  0.9690083E-01
          2   -1    0    0  501    0  0.00000000000E+00  0.00000000000E+00  0.22399824547E+04  0.22399824547E+04  0.25500000000E-02 0. -1.
         -2   -1    0    0    0  501 -0.00000000000E+00 -0.00000000000E+00 -0.44864418311E+03  0.44864418312E+03  0.25500000000E-02 0.  1.
    8880023    1    1    2    0    0 -0.14738835778E+03 -0.44740706467E+03 -0.20803715020E+02  0.81002432701E+03  0.65864270000E+03 0.  0.
    8880022    1    1    2    0    0  0.14738835778E+03  0.44740706467E+03  0.18121419866E+04  0.18786023108E+04  0.15294330000E+03 0.  0.
<mgrwt>
<rscale>  0 0.71610324E+03</rscale>
<asrwt>0</asrwt>
<pdfrwt beam="1">  1        2 0.34461268E+00 0.80975713E+03</pdfrwt>
<pdfrwt beam="2">  1       -2 0.69022183E-01 0.80975713E+03</pdfrwt>
<totfact> 0.96989078E+00</totfact>
</mgrwt>
</event>
<event>
 4    2  0.6387803E-007  0.7465904E+03  0.7818608E-02  0.9841149E-01
          2   -1    0    0  501    0  0.00000000000E+00  0.00000000000E+00  0.23657959885E+04  0.23657959885E+04  0.25500000000E-02 0. -1.
         -2   -1    0    0    0  501 -0.00000000000E+00 -0.00000000000E+00 -0.54275192543E+03  0.54275192544E+03  0.25500000000E-02 0.  1.
    8880023    1    1    2    0    0  0.30379524126E+03 -0.17690528944E+03 -0.25996205739E+03  0.79055518947E+03  0.65864270000E+03 0.  1.
    8880022    1    1    2    0    0 -0.30379524126E+03  0.17690528944E+03  0.20830061205E+04  0.21179927245E+04  0.15294330000E+03 0.  0.
<mgrwt>
<rscale>  0 0.63200221E+03</rscale>
<asrwt>0</asrwt>
<pdfrwt beam="1">  1        2 0.36396861E+00 0.74659041E+03</pdfrwt>
<pdfrwt beam="2">  1       -2 0.83500298E-01 0.74659041E+03</pdfrwt>
<totfact> 0.54601897E+00</totfact>
</mgrwt>
</event>
<event>
 4    2  0.6387803E-007  0.1050990E+04  0.7818608E-02  0.9317693E-01
          2   -1    0    0  501    0  0.00000000000E+00  0.00000000000E+00  0.30258151574E+04  0.30258151574E+04  0.25500000000E-02 0. -1.
         -2   -1    0    0    0  501 -0.00000000000E+00 -0.00000000000E+00 -0.36754819824E+03  0.36754819825E+03  0.25500000000E-02 0.  1.
    8880023    1    1    2    0    0 -0.49757404749E+03 -0.65052978354E+03  0.69331593612E+03  0.12590735187E+04  0.65864270000E+03 0.  0.
    8880022    1    1    2    0    0  0.49757404749E+03  0.65052978354E+03  0.19649510230E+04  0.21342898369E+04  0.15294330000E+03 0.  0.
<mgrwt>
<rscale>  0 0.99170227E+03</rscale>
<asrwt>0</asrwt>
<pdfrwt beam="1">  1        2 0.46551003E+00 0.10509896E+04</pdfrwt>
<pdfrwt beam="2">  1       -2 0.56545876E-01 0.10509896E+04</pdfrwt>
<totfact> 0.50015240E+00</totfact>
</mgrwt>
</event>
<event>
 4    2  0.6387803E-007  0.8562402E+03  0.7818608E-02  0.9600287E-01
         -2   -1    0    0    0  501 -0.00000000000E+00  0.00000000000E+00  0.41168036413E+03  0.41168036414E+03  0.25500000000E-02 0.  1.
          2   -1    0    0  501    0  0.00000000000E+00 -0.00000000000E+00 -0.15680972440E+04  0.15680972440E+04  0.25500000000E-02 0. -1.
    8880023    1    1    2    0    0 -0.48007749814E+03  0.26241699443E+03 -0.21923999681E+03  0.88386280929E+03  0.65864270000E+03 0.  1.
    8880022    1    1    2    0    0  0.48007749814E+03 -0.26241699443E+03 -0.93717688306E+03  0.10959147989E+04  0.15294330000E+03 0.  0.
<mgrwt>
<rscale>  0 0.77277207E+03</rscale>
<asrwt>0</asrwt>
<pdfrwt beam="1">  1        2 0.24124573E+00 0.85624021E+03</pdfrwt>
<pdfrwt beam="2">  1       -2 0.63335442E-01 0.85624021E+03</pdfrwt>
<totfact> 0.27162135E+01</totfact>
</mgrwt>
</event>
<event>
 4    2  0.6387803E-007  0.1339746E+04  0.7818608E-02  0.9031974E-01
          2   -1    0    0  501    0  0.00000000000E+00  0.00000000000E+00  0.28477972134E+04  0.28477972134E+04  0.25500000000E-02 0. -1.
         -2   -1    0    0    0  501 -0.00000000000E+00 -0.00000000000E+00 -0.59726767046E+03  0.59726767046E+03  0.25500000000E-02 0.  1.
    8880023    1    1    2    0    0  0.94135266366E+03  0.68917746304E+03  0.74064684747E+03  0.15308423733E+04  0.65864270000E+03 0.  0.
    8880022    1    1    2    0    0 -0.94135266366E+03 -0.68917746304E+03  0.15098826955E+04  0.19142225106E+04  0.15294330000E+03 0.  0.
<mgrwt>
<rscale>  0 0.12969662E+04</rscale>
<asrwt>0</asrwt>
<pdfrwt beam="1">  1        2 0.43812266E+00 0.13397465E+04</pdfrwt>
<pdfrwt beam="2">  1       -2 0.91887331E-01 0.13397465E+04</pdfrwt>
<totfact> 0.21200886E+00</totfact>
</mgrwt>
</event>
<event>
 4    2  0.6387803E-007  0.7192560E+03  0.7818608E-02  0.9925111E-01
         -2   -1    0    0    0  501 -0.00000000000E+00  0.00000000000E+00  0.27428219817E+03  0.27428219818E+03  0.25500000000E-02 0.  1.
          2   -1    0    0  501    0  0.00000000000E+00 -0.00000000000E+00 -0.19371454517E+04  0.19371454517E+04  0.25500000000E-02 0. -1.
    8880023    1    1    2    0    0  0.26772169769E+03 -0.10883079989E+03 -0.25037496328E+03  0.76158839206E+03  0.65864270000E+03 0.  1.
    8880022    1    1    2    0    0 -0.26772169769E+03  0.10883079989E+03 -0.14124882902E+04  0.14498392578E+04  0.15294330000E+03 0.  0.
<mgrwt>
<rscale>  0 0.59059571E+03</rscale>
<asrwt>0</asrwt>
<pdfrwt beam="1">  1        2 0.29802237E+00 0.71925604E+03</pdfrwt>
<pdfrwt beam="2">  1       -2 0.42197262E-01 0.71925604E+03</pdfrwt>
<totfact> 0.39852424E+01</totfact>
</mgrwt>
</event>
<event>
 4    2  0.6387803E-007  0.6818799E+03  0.7818608E-02  0.1008280E+00
         -2   -1    0    0    0  501 -0.00000000000E+00  0.00000000000E+00  0.43132932023E+03  0.43132932024E+03  0.25500000000E-02 0.  1.
          2   -1    0    0  501    0  0.00000000000E+00 -0.00000000000E+00 -0.53977840100E+03  0.53977840101E+03  0.25500000000E-02 0. -1.
    8880023    1    1    2    0    0  0.96546712986E+02 -0.14774547503E+03  0.57967339458E+02  0.68433939817E+03  0.65864270000E+03 0. -1.
    8880022    1    1    2    0    0 -0.96546712986E+02  0.14774547503E+03 -0.16641642023E+03  0.28676832307E+03  0.15294330000E+03 0.  0.
<mgrwt>
<rscale>  0 0.52164127E+03</rscale>
<asrwt>0</asrwt>
<pdfrwt beam="1">  1        2 0.83042830E-01 0.68187990E+03</pdfrwt>
<pdfrwt beam="2">  1       -2 0.66358358E-01 0.68187990E+03</pdfrwt>
<totfact> 0.11924094E+02</totfact>
</mgrwt>
</event>
<event>
 4    2  0.6387803E-007  0.6892993E+03  0.7818608E-02  0.1004487E+00
         -2   -1    0    0    0  501 -0.00000000000E+00  0.00000000000E+00  0.36096297584E+03  0.36096297585E+03  0.25500000000E-02 0.  1.
          2   -1    0    0  501    0  0.00000000000E+00 -0.00000000000E+00 -0.84899834154E+03  0.84899834154E+03  0.25500000000E-02 0. -1.
    8880023    1    1    2    0    0  0.15999419346E+03 -0.12539997611E+03 -0.34755156856E+02  0.69017492213E+03  0.65864270000E+03 0.  1.
    8880022    1    1    2    0    0 -0.15999419346E+03  0.12539997611E+03 -0.45328020884E+03  0.51978639526E+03  0.15294330000E+03 0.  0.
<mgrwt>
<rscale>  0 0.53725621E+03</rscale>
<asrwt>0</asrwt>
<pdfrwt beam="1">  1        2 0.13061513E+00 0.68929928E+03</pdfrwt>
<pdfrwt beam="2">  1       -2 0.55532766E-01 0.68929928E+03</pdfrwt>
<totfact> 0.98517041E+01</totfact>
</mgrwt>
</event>
<event>
 4    2  0.6387803E-007  0.6780601E+03  0.7818608E-02  0.1010443E+00
          2   -1    0    0  501    0  0.00000000000E+00  0.00000000000E+00  0.29783920422E+04  0.29783920422E+04  0.25500000000E-02 0. -1.
         -2   -1    0    0    0  501 -0.00000000000E+00 -0.00000000000E+00 -0.22521955782E+03  0.22521955784E+03  0.25500000000E-02 0.  1.
    8880023    1    1    2    0    0 -0.84071970627E+02 -0.13743060895E+03  0.30179541597E+03  0.74218996752E+03  0.65864270000E+03 0.  1.
    8880022    1    1    2    0    0  0.84071970627E+02  0.13743060895E+03  0.24513770684E+04  0.24614216325E+04  0.15294330000E+03 0.  0.
<mgrwt>
<rscale>  0 0.51298970E+03</rscale>
<asrwt>0</asrwt>
<pdfrwt beam="1">  1        2 0.45821413E+00 0.67806008E+03</pdfrwt>
<pdfrwt beam="2">  1       -2 0.34649165E-01 0.67806008E+03</pdfrwt>
<totfact> 0.15068187E+01</totfact>
</mgrwt>
</event>
<event>
 4    2  0.6387803E-007  0.9016910E+03  0.7818608E-02  0.9523322E-01
         -2   -1    0    0    0  501 -0.00000000000E+00  0.00000000000E+00  0.12450993853E+04  0.12450993853E+04  0.25500000000E-02 0.  1.
          2   -1    0    0  501    0  0.00000000000E+00 -0.00000000000E+00 -0.47763203208E+03  0.47763203209E+03  0.25500000000E-02 0. -1.
    8880023    1    1    2    0    0 -0.53588653979E+02 -0.61348570727E+03  0.52540357869E+03  0.10435974241E+04  0.65864270000E+03 0. -1.
    8880022    1    1    2    0    0  0.53588653979E+02  0.61348570727E+03  0.24206377453E+03  0.67913399327E+03  0.15294330000E+03 0.  0.
<mgrwt>
<rscale>  0 0.82585977E+03</rscale>
<asrwt>0</asrwt>
<pdfrwt beam="1">  1        2 0.73481851E-01 0.90169100E+03</pdfrwt>
<pdfrwt beam="2">  1       -2 0.19155375E+00 0.90169100E+03</pdfrwt>
<totfact> 0.98596039E+00</totfact>
</mgrwt>
</event>
<event>
 4    2  0.6387803E-007  0.6610884E+03  0.7818608E-02  0.1023068E+00
         -2   -1    0    0    0  501 -0.00000000000E+00  0.00000000000E+00  0.71289327102E+03  0.71289327102E+03  0.25500000000E-02 0.  1.
          2   -1    0    0  501    0  0.00000000000E+00 -0.00000000000E+00 -0.61813710297E+03  0.61813710298E+03  0.25500000000E-02 0. -1.
    8880023    1    1    2    0    0  0.41408398526E+01 -0.56661664113E+02  0.54205524133E+03  0.85490454535E+03  0.65864270000E+03 0.  1.
    8880022    1    1    2    0    0 -0.41408398526E+01  0.56661664113E+02 -0.44729907329E+03  0.47612582866E+03  0.15294330000E+03 0.  0.
<mgrwt>
<rscale>  0 0.46595538E+03</rscale>
<asrwt>0</asrwt>
<pdfrwt beam="1">  1        2 0.95098016E-01 0.66108842E+03</pdfrwt>
<pdfrwt beam="2">  1       -2 0.10967589E+00 0.66108842E+03</pdfrwt>
<totfact> 0.32302943E+01</totfact>
</mgrwt>
</event>
<event>
 4    2  0.6387803E-007  0.1064724E+04  0.7818608E-02  0.9301387E-01
          2   -1    0    0  501    0  0.00000000000E+00  0.00000000000E+00  0.22460650550E+04  0.22460650550E+04  0.25500000000E-02 0. -1.
         -2   -1    0    0    0  501 -0.00000000000E+00 -0.00000000000E+00 -0.43063960447E+03  0.43063960447E+03  0.25500000000E-02 0.  1.
    8880023    1    1    2    0    0 -0.12353550447E+03 -0.82738543320E+03  0.70062618514E+03  0.12745646055E+04  0.65864270000E+03 0.  1.
    8880022    1    1    2    0    0  0.12353550447E+03  0.82738543320E+03  0.11147992654E+04  0.14021400540E+04  0.15294330000E+03 0. -1.
<mgrwt>
<rscale>  0 0.10065530E+04</rscale>
<asrwt>0</asrwt>
<pdfrwt beam="1">  1        2 0.34554847E+00 0.10647243E+04</pdfrwt>
<pdfrwt beam="2">  1       -2 0.66252246E-01 0.10647243E+04</pdfrwt>
<totfact> 0.10185486E+01</totfact>
</mgrwt>
</event>
<event>
 4    2  0.6387803E-007  0.7423386E+03  0.7818608E-02  0.9853187E-01
         -2   -1    0    0    0  501 -0.00000000000E+00  0.00000000000E+00  0.40612229588E+03  0.40612229589E+03  0.25500000000E-02 0.  1.
          2   -1    0    0  501    0  0.00000000000E+00 -0.00000000000E+00 -0.11051654380E+04  0.11051654380E+04  0.25500000000E-02 0. -1.
    8880023    1    1    2    0    0 -0.18941970189E+03  0.28526565809E+03 -0.28370547124E+02  0.74288048390E+03  0.65864270000E+03 0.  1.
    8880022    1    1    2    0    0  0.18941970189E+03 -0.28526565809E+03 -0.67067259502E+03  0.76840725002E+03  0.15294330000E+03 0.  0.
<mgrwt>
<rscale>  0 0.62584703E+03</rscale>
<asrwt>0</asrwt>
<pdfrwt beam="1">  1        2 0.17002545E+00 0.74233855E+03</pdfrwt>
<pdfrwt beam="2">  1       -2 0.62480354E-01 0.74233855E+03</pdfrwt>
<totfact> 0.52274459E+01</totfact>
</mgrwt>
</event>
<event>
 4    2  0.6387803E-007  0.1051299E+04  0.7818608E-02  0.9317322E-01
         -2   -1    0    0    0  501 -0.00000000000E+00  0.00000000000E+00  0.18422191226E+04  0.18422191226E+04  0.25500000000E-02 0.  1.
          2   -1    0    0  501    0  0.00000000000E+00 -0.00000000000E+00 -0.12652445966E+04  0.12652445966E+04  0.25500000000E-02 0. -1.
    8880023    1    1    2    0    0  0.26062959384E+03  0.77684712199E+03  0.15204504725E+04  0.18485126674E+04  0.65864270000E+03 0.  0.
    8880022    1    1    2    0    0 -0.26062959384E+03 -0.77684712199E+03 -0.94347594654E+03  0.12589510518E+04  0.15294330000E+03 0.  0.
<mgrwt>
<rscale>  0 0.99203728E+03</rscale>
<asrwt>0</asrwt>
<pdfrwt beam="1">  1        2 0.19465301E+00 0.10512989E+04</pdfrwt>
<pdfrwt beam="2">  1       -2 0.28341833E+00 0.10512989E+04</pdfrwt>
<totfact> 0.69131877E-01</totfact>
</mgrwt>
</event>
<event>
 4    2  0.6387803E-007  0.1112395E+04  0.7818608E-02  0.9247380E-01
          2   -1    0    0  501    0  0.00000000000E+00  0.00000000000E+00  0.35077287630E+04  0.35077287630E+04  0.25500000000E-02 0. -1.
         -2   -1    0    0    0  501 -0.00000000000E+00 -0.00000000000E+00 -0.92955825141E+03  0.92955825141E+03  0.25500000000E-02 0.  1.
    8880023    1    1    2    0    0  0.54158215715E+03  0.71435306490E+03 -0.50583041811E+03  0.12220008807E+04  0.65864270000E+03 0.  1.
    8880022    1    1    2    0    0 -0.54158215715E+03 -0.71435306490E+03  0.30840009297E+04  0.32152861337E+04  0.15294330000E+03 0.  0.
<mgrwt>
<rscale>  0 0.10577488E+04</rscale>
<asrwt>0</asrwt>
<pdfrwt beam="1">  1        2 0.53965059E+00 0.11123946E+04</pdfrwt>
<pdfrwt beam="2">  1       -2 0.14300896E+00 0.11123946E+04</pdfrwt>
<totfact> 0.27556798E-01</totfact>
</mgrwt>
</event>
<event>
 4    2  0.6387803E-007  0.7171744E+03  0.7818608E-02  0.9932265E-01
         -2   -1    0    0    0  501 -0.00000000000E+00  0.00000000000E+00  0.10068636867E+03  0.10068636870E+03  0.25500000000E-02 0.  1.
          2   -1    0    0  501    0  0.00000000000E+00 -0.00000000000E+00 -0.26833203954E+04  0.26833203954E+04  0.25500000000E-02 0. -1.
    8880023    1    1    2    0    0  0.10712041993E+03  0.26278163450E+03 -0.17903311284E+04  0.19286328648E+04  0.65864270000E+03 0. -1.
    8880022    1    1    2    0    0 -0.10712041993E+03 -0.26278163450E+03 -0.79230289831E+03  0.85537389923E+03  0.15294330000E+03 0. -1.
<mgrwt>
<rscale>  0 0.58722741E+03</rscale>
<asrwt>0</asrwt>
<pdfrwt beam="1">  1        2 0.41281847E+00 0.71717444E+03</pdfrwt>
<pdfrwt beam="2">  1       -2 0.15490213E-01 0.71717444E+03</pdfrwt>
<totfact> 0.94481079E+01</totfact>
</mgrwt>
</event>
<event>
 4    2  0.6387803E-007  0.8830484E+03  0.7818608E-02  0.9553811E-01
         -2   -1    0    0    0  501 -0.00000000000E+00  0.00000000000E+00  0.52412039824E+03  0.52412039824E+03  0.25500000000E-02 0.  1.
          2   -1    0    0  501    0  0.00000000000E+00 -0.00000000000E+00 -0.12368210247E+04  0.12368210247E+04  0.25500000000E-02 0. -1.
    8880023    1    1    2    0    0  0.54812504279E+03 -0.21336149430E+03 -0.84832101799E+02  0.88711379289E+03  0.65864270000E+03 0.  0.
    8880022    1    1    2    0    0 -0.54812504279E+03  0.21336149430E+03 -0.62786852469E+03  0.87382763008E+03  0.15294330000E+03 0.  0.
<mgrwt>
<rscale>  0 0.80430170E+03</rscale>
<asrwt>0</asrwt>
<pdfrwt beam="1">  1        2 0.19028016E+00 0.88304835E+03</pdfrwt>
<pdfrwt beam="2">  1       -2 0.80633908E-01 0.88304835E+03</pdfrwt>
<totfact> 0.24598764E+01</totfact>
</mgrwt>
</event>
<event>
 4    2  0.6387803E-007  0.6615948E+03  0.7818608E-02  0.1022579E+00
          2   -1    0    0  501    0  0.00000000000E+00  0.00000000000E+00  0.26692633743E+03  0.26692633744E+03  0.25500000000E-02 0. -1.
         -2   -1    0    0    0  501 -0.00000000000E+00 -0.00000000000E+00 -0.13689251877E+04  0.13689251877E+04  0.25500000000E-02 0.  1.
    8880023    1    1    2    0    0 -0.35079320268E+02 -0.51642694219E+02 -0.12498506681E+04  0.14141550217E+04  0.65864270000E+03 0.  1.
    8880022    1    1    2    0    0  0.35079320268E+02  0.51642694219E+02  0.14785181785E+03  0.22169650343E+03  0.15294330000E+03 0.  0.
<mgrwt>
<rscale>  0 0.46767364E+03</rscale>
<asrwt>0</asrwt>
<pdfrwt beam="1">  1        2 0.41065591E-01 0.66159484E+03</pdfrwt>
<pdfrwt beam="2">  1       -2 0.21060387E+00 0.66159484E+03</pdfrwt>
<totfact> 0.14585868E+01</totfact>
</mgrwt>
</event>
<event>
 4    2  0.6387803E-007  0.6772674E+03  0.7818608E-02  0.1010914E+00
         -2   -1    0    0    0  501 -0.00000000000E+00  0.00000000000E+00  0.12282196811E+03  0.12282196813E+03  0.25500000000E-02 0.  1.
          2   -1    0    0  501    0  0.00000000000E+00 -0.00000000000E+00 -0.21525121851E+04  0.21525121851E+04  0.25500000000E-02 0. -1.
    8880023    1    1    2    0    0  0.56643775970E+02 -0.14721544863E+03 -0.91042922309E+03  0.11347125108E+04  0.65864270000E+03 0.  1.
    8880022    1    1    2    0    0 -0.56643775970E+02  0.14721544863E+03 -0.11192609939E+04  0.11406216424E+04  0.15294330000E+03 0. -1.
<mgrwt>
<rscale>  0 0.51113152E+03</rscale>
<asrwt>0</asrwt>
<pdfrwt beam="1">  1        2 0.33115569E+00 0.67726739E+03</pdfrwt>
<pdfrwt beam="2">  1       -2 0.18895689E-01 0.67726739E+03</pdfrwt>
<totfact> 0.13415799E+02</totfact>
</mgrwt>
</event>
<event>
 4    2  0.6387803E-007  0.1220290E+04  0.7818608E-02  0.9137647E-01
          2   -1    0    0  501    0  0.00000000000E+00  0.00000000000E+00  0.20918314666E+04  0.20918314666E+04  0.25500000000E-02 0. -1.
         -2   -1    0    0    0  501 -0.00000000000E+00 -0.00000000000E+00 -0.11998346172E+04  0.11998346172E+04  0.25500000000E-02 0.  1.
    8880023    1    1    2    0    0 -0.96462478950E+03  0.35326412497E+03  0.16164648945E+04  0.20253556448E+04  0.65864270000E+03 0.  0.
    8880022    1    1    2    0    0  0.96462478950E+03 -0.35326412497E+03 -0.72446804505E+03  0.12663104390E+04  0.15294330000E+03 0.  0.
<mgrwt>
<rscale>  0 0.11720852E+04</rscale>
<asrwt>0</asrwt>
<pdfrwt beam="1">  1        2 0.32182022E+00 0.12202896E+04</pdfrwt>
<pdfrwt beam="2">  1       -2 0.18458994E+00 0.12202896E+04</pdfrwt>
<totfact> 0.97102854E-01</totfact>
</mgrwt>
</event>
<event>
 4    2  0.6387803E-007  0.7074313E+03  0.7818608E-02  0.9967666E-01
         -2   -1    0    0    0  501 -0.00000000000E+00  0.00000000000E+00  0.28470363364E+03  0.28470363365E+03  0.25500000000E-02 0.  1.
          2   -1    0    0  501    0  0.00000000000E+00 -0.00000000000E+00 -0.13490586582E+04  0.13490586582E+04  0.25500000000E-02 0. -1.
    8880023    1    1    2    0    0  0.25123691728E+03  0.59404391687E+02 -0.22494920471E+03  0.74233497918E+03  0.65864270000E+03 0.  1.
    8880022    1    1    2    0    0 -0.25123691728E+03 -0.59404391687E+02 -0.83940581986E+03  0.89142731268E+03  0.15294330000E+03 0.  0.
<mgrwt>
<rscale>  0 0.57091041E+03</rscale>
<asrwt>0</asrwt>
<pdfrwt beam="1">  1        2 0.20754748E+00 0.70743132E+03</pdfrwt>
<pdfrwt beam="2">  1       -2 0.43800560E-01 0.70743132E+03</pdfrwt>
<totfact> 0.78197077E+01</totfact>
</mgrwt>
</event>
<event>
 4    2  0.6387803E-007  0.7773024E+03  0.7818608E-02  0.9762212E-01
         -2   -1    0    0    0  501 -0.00000000000E+00  0.00000000000E+00  0.74999132468E+03  0.74999132468E+03  0.25500000000E-02 0.  1.
          2   -1    0    0  501    0  0.00000000000E+00 -0.00000000000E+00 -0.18328954145E+04  0.18328954145E+04  0.25500000000E-02 0. -1.
    8880023    1    1    2    0    0 -0.23215154536E+03  0.34131289024E+03  0.51039577480E+03  0.92989401667E+03  0.65864270000E+03 0.  1.
    8880022    1    1    2    0    0  0.23215154536E+03 -0.34131289024E+03 -0.15932998647E+04  0.16529927226E+04  0.15294330000E+03 0.  0.
<mgrwt>
<rscale>  0 0.67430482E+03</rscale>
<asrwt>0</asrwt>
<pdfrwt beam="1">  1        2 0.28198391E+00 0.77730241E+03</pdfrwt>
<pdfrwt beam="2">  1       -2 0.11538328E+00 0.77730241E+03</pdfrwt>
<totfact> 0.49733414E+00</totfact>
</mgrwt>
</event>
<event>
 4    2  0.6387803E-007  0.7581659E+03  0.7818608E-02  0.9809879E-01
          2   -1    0    0  501    0  0.00000000000E+00  0.00000000000E+00  0.16531616963E+04  0.16531616963E+04  0.25500000000E-02 0. -1.
         -2   -1    0    0    0  501 -0.00000000000E+00 -0.00000000000E+00 -0.40487257829E+03  0.40487257830E+03  0.25500000000E-02 0.  1.
    8880023    1    1    2    0    0 -0.20855640619E+03  0.31226515298E+03  0.13399203047E+02  0.75828427732E+03  0.65864270000E+03 0.  1.
    8880022    1    1    2    0    0  0.20855640619E+03 -0.31226515298E+03  0.12348899149E+04  0.12997499972E+04  0.15294330000E+03 0.  0.
<mgrwt>
<rscale>  0 0.64835057E+03</rscale>
<asrwt>0</asrwt>
<pdfrwt beam="1">  1        2 0.25433257E+00 0.75816588E+03</pdfrwt>
<pdfrwt beam="2">  1       -2 0.62288087E-01 0.75816588E+03</pdfrwt>
<totfact> 0.25541131E+01</totfact>
</mgrwt>
</event>
<event>
 4    2  0.6387803E-007  0.1062472E+04  0.7818608E-02  0.9304037E-01
          2   -1    0    0  501    0  0.00000000000E+00  0.00000000000E+00  0.10380765137E+04  0.10380765137E+04  0.25500000000E-02 0. -1.
         -2   -1    0    0    0  501 -0.00000000000E+00 -0.00000000000E+00 -0.98838736063E+03  0.98838736064E+03  0.25500000000E-02 0.  1.
    8880023    1    1    2    0    0  0.26791909715E+03  0.78946527481E+03  0.36305694664E+03  0.11227896577E+04  0.65864270000E+03 0.  0.
    8880022    1    1    2    0    0 -0.26791909715E+03 -0.78946527481E+03 -0.31336779355E+03  0.90367421663E+03  0.15294330000E+03 0.  0.
<mgrwt>
<rscale>  0 0.10041207E+04</rscale>
<asrwt>0</asrwt>
<pdfrwt beam="1">  1        2 0.15970408E+00 0.10624718E+04</pdfrwt>
<pdfrwt beam="2">  1       -2 0.15205959E+00 0.10624718E+04</pdfrwt>
<totfact> 0.67819564E+00</totfact>
</mgrwt>
</event>
<event>
 4    2  0.6387803E-007  0.6740369E+03  0.7818608E-02  0.1012920E+00
          2   -1    0    0  501    0  0.00000000000E+00  0.00000000000E+00  0.12909296903E+04  0.12909296903E+04  0.25500000000E-02 0. -1.
         -2   -1    0    0    0  501 -0.00000000000E+00 -0.00000000000E+00 -0.18399395026E+03  0.18399395027E+03  0.25500000000E-02 0.  1.
    8880023    1    1    2    0    0  0.14183151285E+03 -0.19984623753E+02  0.51880157266E+03  0.85057676978E+03  0.65864270000E+03 0.  1.
    8880022    1    1    2    0    0 -0.14183151285E+03  0.19984623753E+02  0.58813416738E+03  0.62434687080E+03  0.15294330000E+03 0.  0.
<mgrwt>
<rscale>  0 0.50330327E+03</rscale>
<asrwt>0</asrwt>
<pdfrwt beam="1">  1        2 0.19860457E+00 0.67403692E+03</pdfrwt>
<pdfrwt beam="2">  1       -2 0.28306761E-01 0.67403692E+03</pdfrwt>
<totfact> 0.19454425E+02</totfact>
</mgrwt>
</event>
<event>
 4    2  0.6387803E-007  0.1204469E+04  0.7818608E-02  0.9152790E-01
         -2   -1    0    0    0  501 -0.00000000000E+00  0.00000000000E+00  0.55135441796E+03  0.55135441797E+03  0.25500000000E-02 0.  1.
          2   -1    0    0  501    0  0.00000000000E+00 -0.00000000000E+00 -0.28955700070E+04  0.28955700070E+04  0.25500000000E-02 0. -1.
    8880023    1    1    2    0    0 -0.95093829515E+03  0.33563718943E+03 -0.20630494598E+04  0.23889159140E+04  0.65864270000E+03 0.  0.
    8880022    1    1    2    0    0  0.95093829515E+03 -0.33563718943E+03 -0.28116612923E+03  0.10580085110E+04  0.15294330000E+03 0.  0.
<mgrwt>
<rscale>  0 0.11554284E+04</rscale>
<asrwt>0</asrwt>
<pdfrwt beam="1">  1        2 0.44547230E+00 0.12044692E+04</pdfrwt>
<pdfrwt beam="2">  1       -2 0.84823758E-01 0.12044692E+04</pdfrwt>
<totfact> 0.24242938E+00</totfact>
</mgrwt>
</event>
<event>
 4    2  0.6387803E-007  0.1005217E+04  0.7818608E-02  0.9374763E-01
          2   -1    0    0  501    0  0.00000000000E+00  0.00000000000E+00  0.13597017745E+04  0.13597017745E+04  0.25500000000E-02 0. -1.
         -2   -1    0    0    0  501 -0.00000000000E+00 -0.00000000000E+00 -0.99066657135E+03  0.99066657135E+03  0.25500000000E-02 0.  1.
    8880023    1    1    2    0    0 -0.44523093934E+03  0.61515957052E+03 -0.55207022777E+03  0.11468407166E+04  0.65864270000E+03 0.  0.
    8880022    1    1    2    0    0  0.44523093934E+03 -0.61515957052E+03  0.92110543095E+03  0.12035276293E+04  0.15294330000E+03 0.  0.
<mgrwt>
<rscale>  0 0.94181988E+03</rscale>
<asrwt>0</asrwt>
<pdfrwt beam="1">  1        2 0.20918489E+00 0.10052174E+04</pdfrwt>
<pdfrwt beam="2">  1       -2 0.15241024E+00 0.10052174E+04</pdfrwt>
<totfact> 0.43452399E+00</totfact>
</mgrwt>
</event>
<event>
 4    2  0.6387803E-007  0.7652565E+03  0.7818608E-02  0.9791684E-01
         -2   -1    0    0    0  501 -0.00000000000E+00  0.00000000000E+00  0.26906694313E+03  0.26906694314E+03  0.25500000000E-02 0.  1.
          2   -1    0    0  501    0  0.00000000000E+00 -0.00000000000E+00 -0.16177781630E+04  0.16177781630E+04  0.25500000000E-02 0. -1.
    8880023    1    1    2    0    0 -0.20214100316E+03  0.33308612180E+03 -0.43122779059E+03  0.87839339896E+03  0.65864270000E+03 0.  0.
    8880022    1    1    2    0    0  0.20214100316E+03 -0.33308612180E+03 -0.91748342928E+03  0.10084517072E+04  0.15294330000E+03 0.  0.
<mgrwt>
<rscale>  0 0.65810734E+03</rscale>
<asrwt>0</asrwt>
<pdfrwt beam="1">  1        2 0.24888894E+00 0.76525653E+03</pdfrwt>
<pdfrwt beam="2">  1       -2 0.41394915E-01 0.76525653E+03</pdfrwt>
<totfact> 0.61517066E+01</totfact>
</mgrwt>
</event>
<event>
 4    2  0.6387803E-007  0.8204768E+03  0.7818608E-02  0.9668154E-01
         -2   -1    0    0    0  501 -0.00000000000E+00  0.00000000000E+00  0.22637242813E+03  0.22637242815E+03  0.25500000000E-02 0.  1.
          2   -1    0    0  501    0  0.00000000000E+00 -0.00000000000E+00 -0.31965234555E+04  0.31965234555E+04  0.25500000000E-02 0. -1.
    8880023    1    1    2    0    0  0.26036500517E+03  0.41422461155E+03 -0.64987419401E+03  0.10466702628E+04  0.65864270000E+03 0.  0.
    8880022    1    1    2    0    0 -0.26036500517E+03 -0.41422461155E+03 -0.23202768333E+04  0.23762256208E+04  0.15294330000E+03 0.  0.
<mgrwt>
<rscale>  0 0.72944975E+03</rscale>
<asrwt>0</asrwt>
<pdfrwt beam="1">  1        2 0.49177281E+00 0.82047679E+03</pdfrwt>
<pdfrwt beam="2">  1       -2 0.34826530E-01 0.82047679E+03</pdfrwt>
<totfact> 0.10644624E+01</totfact>
</mgrwt>
</event>
<event>
 4    2  0.6387803E-007  0.7959424E+03  0.7818608E-02  0.9719639E-01
          2   -1    0    0  501    0  0.00000000000E+00  0.00000000000E+00  0.24163563414E+04  0.24163563415E+04  0.25500000000E-02 0. -1.
         -2   -1    0    0    0  501 -0.00000000000E+00 -0.00000000000E+00 -0.37404307795E+03  0.37404307796E+03  0.25500000000E-02 0.  1.
    8880023    1    1    2    0    0  0.10012778311E+03  0.43553241794E+03  0.11277869223E+03  0.80389259215E+03  0.65864270000E+03 0.  1.
    8880022    1    1    2    0    0 -0.10012778311E+03 -0.43553241794E+03  0.19295345713E+04  0.19865068273E+04  0.15294330000E+03 0.  0.
<mgrwt>
<rscale>  0 0.69859433E+03</rscale>
<asrwt>0</asrwt>
<pdfrwt beam="1">  1        2 0.37174713E+00 0.79594238E+03</pdfrwt>
<pdfrwt beam="2">  1       -2 0.57545089E-01 0.79594238E+03</pdfrwt>
<totfact> 0.11426100E+01</totfact>
</mgrwt>
</event>
<event>
 4    2  0.6387803E-007  0.7382008E+03  0.7818608E-02  0.9865219E-01
          2   -1    0    0  501    0  0.00000000000E+00  0.00000000000E+00  0.20473835394E+04  0.20473835394E+04  0.25500000000E-02 0. -1.
         -2   -1    0    0    0  501 -0.00000000000E+00 -0.00000000000E+00 -0.22133941641E+03  0.22133941643E+03  0.25500000000E-02 0.  1.
    8880023    1    1    2    0    0 -0.30017703857E+03  0.14499637987E+03  0.49679421035E+03  0.88980048234E+03  0.65864270000E+03 0.  1.
    8880022    1    1    2    0    0  0.30017703857E+03 -0.14499637987E+03  0.13292499126E+04  0.13789224735E+04  0.15294330000E+03 0.  0.
<mgrwt>
<rscale>  0 0.61976920E+03</rscale>
<asrwt>0</asrwt>
<pdfrwt beam="1">  1        2 0.31498209E+00 0.73820079E+03</pdfrwt>
<pdfrwt beam="2">  1       -2 0.34052217E-01 0.73820079E+03</pdfrwt>
<totfact> 0.52379759E+01</totfact>
</mgrwt>
</event>
<event>
 4    2  0.6387803E-007  0.7182256E+03  0.7818608E-02  0.9928636E-01
          2   -1    0    0  501    0  0.00000000000E+00  0.00000000000E+00  0.82635864561E+03  0.82635864562E+03  0.25500000000E-02 0. -1.
         -2   -1    0    0    0  501 -0.00000000000E+00 -0.00000000000E+00 -0.72951904500E+03  0.72951904500E+03  0.25500000000E-02 0.  1.
    8880023    1    1    2    0    0 -0.17348922558E+03  0.22790203968E+03 -0.50089923766E+03  0.87564153832E+03  0.65864270000E+03 0.  1.
    8880022    1    1    2    0    0  0.17348922558E+03 -0.22790203968E+03  0.59773883828E+03  0.68023615229E+03  0.15294330000E+03 0.  0.
<mgrwt>
<rscale>  0 0.58893307E+03</rscale>
<asrwt>0</asrwt>
<pdfrwt beam="1">  1        2 0.12713210E+00 0.71822563E+03</pdfrwt>
<pdfrwt beam="2">  1       -2 0.11223370E+00 0.71822563E+03</pdfrwt>
<totfact> 0.21006421E+01</totfact>
</mgrwt>
</event>
<event>
 4    2  0.6387803E-007  0.8824425E+03  0.7818608E-02  0.9554826E-01
          2   -1    0    0  501    0  0.00000000000E+00  0.00000000000E+00  0.58301129634E+03  0.58301129635E+03  0.25500000000E-02 0. -1.
         -2   -1    0    0    0  501 -0.00000000000E+00 -0.00000000000E+00 -0.22193108498E+04  0.22193108498E+04  0.25500000000E-02 0.  1.
    8880023    1    1    2    0    0  0.21371319700E+03  0.54701118069E+03 -0.19344157064E+04  0.21261864674E+04  0.65864270000E+03 0.  1.
    8880022    1    1    2    0    0 -0.21371319700E+03 -0.54701118069E+03  0.29811615302E+03  0.67613567875E+03  0.15294330000E+03 0.  0.
<mgrwt>
<rscale>  0 0.80359642E+03</rscale>
<asrwt>0</asrwt>
<pdfrwt beam="1">  1        2 0.89694046E-01 0.88244250E+03</pdfrwt>
<pdfrwt beam="2">  1       -2 0.34143244E+00 0.88244250E+03</pdfrwt>
<totfact> 0.93119811E-01</totfact>
</mgrwt>
</event>
<event>
 4    2  0.6387803E-007  0.6619313E+03  0.7818608E-02  0.1022260E+00
          2   -1    0    0  501    0  0.00000000000E+00  0.00000000000E+00  0.13585035810E+04  0.13585035810E+04  0.25500000000E-02 0. -1.
         -2   -1    0    0    0  501 -0.00000000000E+00 -0.00000000000E+00 -0.16674902302E+03  0.16674902304E+03  0.25500000000E-02 0.  1.
    8880023    1    1    2    0    0  0.53098920711E+02  0.39029906374E+02  0.54507322789E+03  0.85747178321E+03  0.65864270000E+03 0.  1.
    8880022    1    1    2    0    0 -0.53098920711E+02 -0.39029906374E+02  0.64668133011E+03  0.66778082086E+03  0.15294330000E+03 0.  0.
<mgrwt>
<rscale>  0 0.46879956E+03</rscale>
<asrwt>0</asrwt>
<pdfrwt beam="1">  1        2 0.20900054E+00 0.66193129E+03</pdfrwt>
<pdfrwt beam="2">  1       -2 0.25653697E-01 0.66193129E+03</pdfrwt>
<totfact> 0.21314092E+02</totfact>
</mgrwt>
</event>
<event>
 4    2  0.6387803E-007  0.1137930E+04  0.7818608E-02  0.9219956E-01
          2   -1    0    0  501    0  0.00000000000E+00  0.00000000000E+00  0.13596822257E+04  0.13596822257E+04  0.25500000000E-02 0. -1.
         -2   -1    0    0    0  501 -0.00000000000E+00 -0.00000000000E+00 -0.10598410002E+04  0.10598410002E+04  0.25500000000E-02 0.  1.
    8880023    1    1    2    0    0 -0.27645778702E+03  0.88580208158E+03 -0.44295410767E+03  0.12211031011E+04  0.65864270000E+03 0.  1.
    8880022    1    1    2    0    0  0.27645778702E+03 -0.88580208158E+03  0.74279533318E+03  0.11984201249E+04  0.15294330000E+03 0.  0.
<mgrwt>
<rscale>  0 0.10849801E+04</rscale>
<asrwt>0</asrwt>
<pdfrwt beam="1">  1        2 0.20918188E+00 0.11379299E+04</pdfrwt>
<pdfrwt beam="2">  1       -2 0.16305246E+00 0.11379299E+04</pdfrwt>
<totfact> 0.35683911E+00</totfact>
</mgrwt>
</event>
<event>
 4    2  0.6387803E-007  0.6866961E+03  0.7818608E-02  0.1005764E+00
         -2   -1    0    0    0  501 -0.00000000000E+00  0.00000000000E+00  0.86920617582E+02  0.86920617620E+02  0.25500000000E-02 0.  1.
          2   -1    0    0  501    0  0.00000000000E+00 -0.00000000000E+00 -0.29609836084E+04  0.29609836084E+04  0.25500000000E-02 0. -1.
    8880023    1    1    2    0    0  0.45735104591E+02  0.18881096076E+03 -0.14731249709E+04  0.16253149433E+04  0.65864270000E+03 0.  1.
    8880022    1    1    2    0    0 -0.45735104591E+02 -0.18881096076E+03 -0.14009380200E+04  0.14225892828E+04  0.15294330000E+03 0. -1.
<mgrwt>
<rscale>  0 0.53193409E+03</rscale>
<asrwt>0</asrwt>
<pdfrwt beam="1">  1        2 0.45553586E+00 0.68669606E+03</pdfrwt>
<pdfrwt beam="2">  1       -2 0.13372405E-01 0.68669606E+03</pdfrwt>
<totfact> 0.83202719E+01</totfact>
</mgrwt>
</event>
<event>
 4    2  0.6387803E-007  0.8011826E+03  0.7818608E-02  0.9708245E-01
          2   -1    0    0  501    0  0.00000000000E+00  0.00000000000E+00  0.34204980425E+04  0.34204980425E+04  0.25500000000E-02 0. -1.
         -2   -1    0    0    0  501 -0.00000000000E+00 -0.00000000000E+00 -0.35885537162E+03  0.35885537162E+03  0.25500000000E-02 0.  1.
    8880023    1    1    2    0    0  0.17434503028E+03 -0.42152959968E+03  0.13384162107E+03  0.81228515854E+03  0.65864270000E+03 0.  1.
    8880022    1    1    2    0    0 -0.17434503028E+03  0.42152959968E+03  0.29278010498E+04  0.29670682556E+04  0.15294330000E+03 0.  0.
<mgrwt>
<rscale>  0 0.70528016E+03</rscale>
<asrwt>0</asrwt>
<pdfrwt beam="1">  1        2 0.52623047E+00 0.80118263E+03</pdfrwt>
<pdfrwt beam="2">  1       -2 0.55208518E-01 0.80118263E+03</pdfrwt>
<totfact> 0.30510969E+00</totfact>
</mgrwt>
</event>
<event>
 4    2  0.6387803E-007  0.8395774E+03  0.7818608E-02  0.9630978E-01
         -2   -1    0    0    0  501 -0.00000000000E+00  0.00000000000E+00  0.16079892458E+04  0.16079892458E+04  0.25500000000E-02 0.  1.
          2   -1    0    0  501    0  0.00000000000E+00 -0.00000000000E+00 -0.29746955080E+03  0.29746955081E+03  0.25500000000E-02 0. -1.
    8880023    1    1    2    0    0  0.13509590498E+03 -0.50282112047E+03  0.83110901800E+03  0.11813688623E+04  0.65864270000E+03 0. -1.
    8880022    1    1    2    0    0 -0.13509590498E+03  0.50282112047E+03  0.47941067696E+03  0.72408993429E+03  0.15294330000E+03 0.  1.
<mgrwt>
<rscale>  0 0.75279371E+03</rscale>
<asrwt>0</asrwt>
<pdfrwt beam="1">  1        2 0.45764547E-01 0.83957739E+03</pdfrwt>
<pdfrwt beam="2">  1       -2 0.24738296E+00 0.83957739E+03</pdfrwt>
<totfact> 0.75171165E+00</totfact>
</mgrwt>
</event>
<event>
 4    2  0.6387803E-007  0.6664100E+03  0.7818608E-02  0.1018379E+00
         -2   -1    0    0    0  501 -0.00000000000E+00  0.00000000000E+00  0.82585251964E+03  0.82585251965E+03  0.25500000000E-02 0.  1.
          2   -1    0    0  501    0  0.00000000000E+00 -0.00000000000E+00 -0.12071944467E+04  0.12071944467E+04  0.25500000000E-02 0. -1.
    8880023    1    1    2    0    0 -0.10041861691E+03 -0.14430062810E+02  0.68226402217E+03  0.95372245834E+03  0.65864270000E+03 0.  1.
    8880022    1    1    2    0    0  0.10041861691E+03  0.14430062810E+02 -0.10636059492E+04  0.10793245080E+04  0.15294330000E+03 0.  0.
<mgrwt>
<rscale>  0 0.48276274E+03</rscale>
<asrwt>0</asrwt>
<pdfrwt beam="1">  1        2 0.18572222E+00 0.66641003E+03</pdfrwt>
<pdfrwt beam="2">  1       -2 0.12705423E+00 0.66641003E+03</pdfrwt>
<totfact> 0.89064308E+00</totfact>
</mgrwt>
</event>
<event>
 4    2  0.6387803E-007  0.1060464E+04  0.7818608E-02  0.9306407E-01
          2   -1    0    0  501    0  0.00000000000E+00  0.00000000000E+00  0.42641955517E+03  0.42641955518E+03  0.25500000000E-02 0. -1.
         -2   -1    0    0    0  501 -0.00000000000E+00 -0.00000000000E+00 -0.24502037595E+04  0.24502037595E+04  0.25500000000E-02 0.  1.
    8880023    1    1    2    0    0 -0.47297068006E+03 -0.68342704287E+03 -0.16292627066E+04  0.19439858437E+04  0.65864270000E+03 0.  0.
    8880022    1    1    2    0    0  0.47297068006E+03  0.68342704287E+03 -0.39452149777E+03  0.93263747101E+03  0.15294330000E+03 0.  0.
<mgrwt>
<rscale>  0 0.10019518E+04</rscale>
<asrwt>0</asrwt>
<pdfrwt beam="1">  1        2 0.65603010E-01 0.10604640E+04</pdfrwt>
<pdfrwt beam="2">  1       -2 0.37695442E+00 0.10604640E+04</pdfrwt>
<totfact> 0.78319563E-01</totfact>
</mgrwt>
</event>
<event>
 4    2  0.6387803E-007  0.1132497E+04  0.7818608E-02  0.9225709E-01
          2   -1    0    0  501    0  0.00000000000E+00  0.00000000000E+00  0.31731638160E+04  0.31731638160E+04  0.25500000000E-02 0. -1.
         -2   -1    0    0    0  501 -0.00000000000E+00 -0.00000000000E+00 -0.51188819689E+03  0.51188819690E+03  0.25500000000E-02 0.  1.
    8880023    1    1    2    0    0 -0.16712323277E+03  0.90598517798E+03  0.33917434300E+03  0.11821965822E+04  0.65864270000E+03 0.  1.
    8880022    1    1    2    0    0  0.16712323277E+03 -0.90598517798E+03  0.23221012761E+04  0.25028554307E+04  0.15294330000E+03 0.  0.
<mgrwt>
<rscale>  0 0.10791965E+04</rscale>
<asrwt>0</asrwt>
<pdfrwt beam="1">  1        2 0.48817903E+00 0.11324970E+04</pdfrwt>
<pdfrwt beam="2">  1       -2 0.78752033E-01 0.11324970E+04</pdfrwt>
<totfact> 0.19446925E+00</totfact>
</mgrwt>
</event>
<event>
 4    2  0.6387803E-007  0.6680902E+03  0.7818608E-02  0.1017071E+00
          2   -1    0    0  501    0  0.00000000000E+00  0.00000000000E+00  0.10953908167E+04  0.10953908167E+04  0.25500000000E-02 0. -1.
         -2   -1    0    0    0  501 -0.00000000000E+00 -0.00000000000E+00 -0.36363157845E+03  0.36363157846E+03  0.25500000000E-02 0.  1.
    8880023    1    1    2    0    0  0.54678341708E+02 -0.97696429675E+02 -0.35172977687E+02  0.66901543932E+03  0.65864270000E+03 0.  0.
    8880022    1    1    2    0    0 -0.54678341708E+02  0.97696429675E+02  0.76693221592E+03  0.79000695583E+03  0.15294330000E+03 0. -1.
<mgrwt>
<rscale>  0 0.48758730E+03</rscale>
<asrwt>0</asrwt>
<pdfrwt beam="1">  1        2 0.16852166E+00 0.66809020E+03</pdfrwt>
<pdfrwt beam="2">  1       -2 0.55943321E-01 0.66809020E+03</pdfrwt>
<totfact> 0.67333012E+01</totfact>
</mgrwt>
</event>
<event>
 4    2  0.6387803E-007  0.6853108E+03  0.7818608E-02  0.1006466E+00
         -2   -1    0    0    0  501 -0.00000000000E+00  0.00000000000E+00  0.21842479573E+03  0.21842479574E+03  0.25500000000E-02 0.  1.
          2   -1    0    0  501    0  0.00000000000E+00 -0.00000000000E+00 -0.99000434522E+03  0.99000434522E+03  0.25500000000E-02 0. -1.
    8880023    1    1    2    0    0 -0.33976289225E+02  0.18624240216E+03 -0.59745614054E+03  0.90917801707E+03  0.65864270000E+03 0.  1.
    8880022    1    1    2    0    0  0.33976289225E+02 -0.18624240216E+03 -0.17412340895E+03  0.29925112389E+03  0.15294330000E+03 0. -1.
<mgrwt>
<rscale>  0 0.52903628E+03</rscale>
<asrwt>0</asrwt>
<pdfrwt beam="1">  1        2 0.15230836E+00 0.68531075E+03</pdfrwt>
<pdfrwt beam="2">  1       -2 0.33603815E-01 0.68531075E+03</pdfrwt>
<totfact> 0.21453582E+02</totfact>
</mgrwt>
</event>
<event>
 4    2  0.6387803E-007  0.7569955E+03  0.7818608E-02  0.9812949E-01
          2   -1    0    0  501    0  0.00000000000E+00  0.00000000000E+00  0.26798036799E+04  0.26798036799E+04  0.25500000000E-02 0. -1.
         -2   -1    0    0    0  501 -0.00000000000E+00 -0.00000000000E+00 -0.16716888287E+03  0.16716888289E+03  0.25500000000E-02 0.  1.
    8880023    1    1    2    0    0 -0.32173410070E+03 -0.18899495587E+03  0.85935801346E+03  0.11452241381E+04  0.65864270000E+03 0.  0.
    8880022    1    1    2    0    0  0.32173410070E+03  0.18899495587E+03  0.16532767836E+04  0.17017484247E+04  0.15294330000E+03 0.  0.
<mgrwt>
<rscale>  0 0.64672239E+03</rscale>
<asrwt>0</asrwt>
<pdfrwt beam="1">  1        2 0.41227750E+00 0.75699546E+03</pdfrwt>
<pdfrwt beam="2">  1       -2 0.25718289E-01 0.75699546E+03</pdfrwt>
<totfact> 0.38867306E+01</totfact>
</mgrwt>
</event>
<event>
 4    2  0.6387803E-007  0.7136287E+03  0.7818608E-02  0.9944765E-01
         -2   -1    0    0    0  501 -0.00000000000E+00  0.00000000000E+00  0.17885721753E+03  0.17885721755E+03  0.25500000000E-02 0.  1.
          2   -1    0    0  501    0  0.00000000000E+00 -0.00000000000E+00 -0.15494798863E+04  0.15494798863E+04  0.25500000000E-02 0. -1.
    8880023    1    1    2    0    0 -0.26144655924E+03 -0.84269930777E+02 -0.76634913987E+03  0.10471661449E+04  0.65864270000E+03 0.  1.
    8880022    1    1    2    0    0  0.26144655924E+03  0.84269930777E+02 -0.60427352890E+03  0.68117095896E+03  0.15294330000E+03 0. -1.
<mgrwt>
<rscale>  0 0.58139980E+03</rscale>
<asrwt>0</asrwt>
<pdfrwt beam="1">  1        2 0.23838151E+00 0.71362871E+03</pdfrwt>
<pdfrwt beam="2">  1       -2 0.27516496E-01 0.71362871E+03</pdfrwt>
<totfact> 0.14609767E+02</totfact>
</mgrwt>
</event>
<event>
 4    2  0.6387803E-007  0.1055449E+04  0.7818608E-02  0.9312359E-01
          2   -1    0    0  501    0  0.00000000000E+00  0.00000000000E+00  0.15070765977E+04  0.15070765977E+04  0.25500000000E-02 0. -1.
         -2   -1    0    0    0  501 -0.00000000000E+00 -0.00000000000E+00 -0.60965916604E+03  0.60965916604E+03  0.25500000000E-02 0.  1.
    8880023    1    1    2    0    0 -0.22185152676E+03  0.79432035428E+03  0.66070588724E+03  0.12451929171E+04  0.65864270000E+03 0.  1.
    8880022    1    1    2    0    0  0.22185152676E+03 -0.79432035428E+03  0.23671154438E+03  0.87154284657E+03  0.15294330000E+03 0. -1.
<mgrwt>
<rscale>  0 0.99652969E+03</rscale>
<asrwt>0</asrwt>
<pdfrwt beam="1">  1        2 0.23185794E+00 0.10554493E+04</pdfrwt>
<pdfrwt beam="2">  1       -2 0.93793718E-01 0.10554493E+04</pdfrwt>
<totfact> 0.11965926E+01</totfact>
</mgrwt>
</event>
<event>
 4    2  0.6387803E-007  0.6729043E+03  0.7818608E-02  0.1013661E+00
          2   -1    0    0  501    0  0.00000000000E+00  0.00000000000E+00  0.16874069334E+04  0.16874069334E+04  0.25500000000E-02 0. -1.
         -2   -1    0    0    0  501 -0.00000000000E+00 -0.00000000000E+00 -0.41182443700E+03  0.41182443701E+03  0.25500000000E-02 0.  1.
    8880023    1    1    2    0    0  0.13531125999E+03 -0.26093274757E+02 -0.12430325773E+03  0.68428904873E+03  0.65864270000E+03 0.  1.
    8880022    1    1    2    0    0 -0.13531125999E+03  0.26093274757E+02  0.13998857541E+04  0.14149423217E+04  0.15294330000E+03 0.  0.
<mgrwt>
<rscale>  0 0.50045175E+03</rscale>
<asrwt>0</asrwt>
<pdfrwt beam="1">  1        2 0.25960106E+00 0.67290430E+03</pdfrwt>
<pdfrwt beam="2">  1       -2 0.63357606E-01 0.67290430E+03</pdfrwt>
<totfact> 0.23854372E+01</totfact>
</mgrwt>
</event>
<event>
 4    2  0.6387803E-007  0.9905248E+03  0.7818608E-02  0.9394060E-01
          2   -1    0    0  501    0  0.00000000000E+00  0.00000000000E+00  0.47190631703E+04  0.47190631703E+04  0.25500000000E-02 0. -1.
         -2   -1    0    0    0  501 -0.00000000000E+00 -0.00000000000E+00 -0.49224250106E+03  0.49224250106E+03  0.25500000000E-02 0.  1.
    8880023    1    1    2    0    0  0.70023291661E+03  0.23875313733E+03  0.43362651220E+04  0.44479584769E+04  0.65864270000E+03 0. -1.
    8880022    1    1    2    0    0 -0.70023291661E+03 -0.23875313733E+03 -0.10944445268E+03  0.76334719449E+03  0.15294330000E+03 0.  0.
<mgrwt>
<rscale>  0 0.92566104E+03</rscale>
<asrwt>0</asrwt>
<pdfrwt beam="1">  1        2 0.72600972E+00 0.99052481E+03</pdfrwt>
<pdfrwt beam="2">  1       -2 0.75729615E-01 0.99052481E+03</pdfrwt>
<totfact> 0.12451578E-01</totfact>
</mgrwt>
</event>
<event>
 4    2  0.6387803E-007  0.7630327E+03  0.7818608E-02  0.9797319E-01
          2   -1    0    0  501    0  0.00000000000E+00  0.00000000000E+00  0.89822472469E+03  0.89822472469E+03  0.25500000000E-02 0. -1.
         -2   -1    0    0    0  501 -0.00000000000E+00 -0.00000000000E+00 -0.10807865932E+04  0.10807865932E+04  0.25500000000E-02 0.  1.
    8880023    1    1    2    0    0  0.38162801511E+03  0.52618272310E+02 -0.88183423541E+03  0.11661262580E+04  0.65864270000E+03 0.  0.
    8880022    1    1    2    0    0 -0.38162801511E+03 -0.52618272310E+02  0.69927236691E+03  0.81288505992E+03  0.15294330000E+03 0.  0.
<mgrwt>
<rscale>  0 0.65506640E+03</rscale>
<asrwt>0</asrwt>
<pdfrwt beam="1">  1        2 0.13818842E+00 0.76303265E+03</pdfrwt>
<pdfrwt beam="2">  1       -2 0.16627486E+00 0.76303265E+03</pdfrwt>
<totfact> 0.67772745E+00</totfact>
</mgrwt>
</event>
<event>
 4    2  0.6387803E-007  0.7584268E+03  0.7818608E-02  0.9809197E-01
          2   -1    0    0  501    0  0.00000000000E+00  0.00000000000E+00  0.15689701531E+04  0.15689701531E+04  0.25500000000E-02 0. -1.
         -2   -1    0    0    0  501 -0.00000000000E+00 -0.00000000000E+00 -0.23132723459E+03  0.23132723461E+03  0.25500000000E-02 0.  1.
    8880023    1    1    2    0    0 -0.37558256097E+03  0.18406687256E+02  0.10792623242E+04  0.13190975843E+04  0.65864270000E+03 0.  0.
    8880022    1    1    2    0    0  0.37558256097E+03 -0.18406687256E+02  0.25838059427E+03  0.48119980335E+03  0.15294330000E+03 0. -1.
<mgrwt>
<rscale>  0 0.64871288E+03</rscale>
<asrwt>0</asrwt>
<pdfrwt beam="1">  1        2 0.24138002E+00 0.75842684E+03</pdfrwt>
<pdfrwt beam="2">  1       -2 0.35588806E-01 0.75842684E+03</pdfrwt>
<totfact> 0.87761493E+01</totfact>
</mgrwt>
</event>
<event>
 4    2  0.6387803E-007  0.7120853E+03  0.7818608E-02  0.9950337E-01
          2   -1    0    0  501    0  0.00000000000E+00  0.00000000000E+00  0.67062199757E+03  0.67062199757E+03  0.25500000000E-02 0. -1.
         -2   -1    0    0    0  501 -0.00000000000E+00 -0.00000000000E+00 -0.78629892584E+03  0.78629892584E+03  0.25500000000E-02 0.  1.
    8880023    1    1    2    0    0 -0.14865285930E+03  0.22618056644E+03 -0.56605857029E+03  0.90966358203E+03  0.65864270000E+03 0.  1.
    8880022    1    1    2    0    0  0.14865285930E+03 -0.22618056644E+03  0.45038164202E+03  0.54725734138E+03  0.15294330000E+03 0.  0.
<mgrwt>
<rscale>  0 0.57882538E+03</rscale>
<asrwt>0</asrwt>
<pdfrwt beam="1">  1        2 0.10317261E+00 0.71208534E+03</pdfrwt>
<pdfrwt beam="2">  1       -2 0.12096907E+00 0.71208534E+03</pdfrwt>
<totfact> 0.22893163E+01</totfact>
</mgrwt>
</event>
<event>
 4    2  0.6387803E-007  0.8658312E+03  0.7818608E-02  0.9583274E-01
          2   -1    0    0  501    0  0.00000000000E+00  0.00000000000E+00  0.10315292636E+04  0.10315292636E+04  0.25500000000E-02 0. -1.
         -2   -1    0    0    0  501 -0.00000000000E+00 -0.00000000000E+00 -0.54150775629E+03  0.54150775630E+03  0.25500000000E-02 0.  1.
    8880023    1    1    2    0    0  0.14724104909E+03 -0.54237769666E+03  0.98920510972E+02  0.87146369180E+03  0.65864270000E+03 0.  0.
    8880022    1    1    2    0    0 -0.14724104909E+03  0.54237769666E+03  0.39110099636E+03  0.70157332812E+03  0.15294330000E+03 0.  1.
<mgrwt>
<rscale>  0 0.78413192E+03</rscale>
<asrwt>0</asrwt>
<pdfrwt beam="1">  1        2 0.15869681E+00 0.86583122E+03</pdfrwt>
<pdfrwt beam="2">  1       -2 0.83308886E-01 0.86583122E+03</pdfrwt>
<totfact> 0.30506800E+01</totfact>
</mgrwt>
</event>
<event>
 4    2  0.6387803E-007  0.6595918E+03  0.7818608E-02  0.1024579E+00
          2   -1    0    0  501    0  0.00000000000E+00  0.00000000000E+00  0.13197451934E+04  0.13197451934E+04  0.25500000000E-02 0. -1.
         -2   -1    0    0    0  501 -0.00000000000E+00 -0.00000000000E+00 -0.99426606282E+03  0.99426606283E+03  0.25500000000E-02 0.  1.
    8880023    1    1    2    0    0 -0.28658774837E+02  0.20732616284E+02 -0.87921792602E+03  0.10991294439E+04  0.65864270000E+03 0.  1.
    8880022    1    1    2    0    0  0.28658774837E+02 -0.20732616284E+02  0.12046970566E+04  0.12148818124E+04  0.15294330000E+03 0.  0.
<mgrwt>
<rscale>  0 0.46069951E+03</rscale>
<asrwt>0</asrwt>
<pdfrwt beam="1">  1        2 0.20303772E+00 0.65959182E+03</pdfrwt>
<pdfrwt beam="2">  1       -2 0.15296401E+00 0.65959182E+03</pdfrwt>
<totfact> 0.47535684E+00</totfact>
</mgrwt>
</event>
<event>
 4    2  0.6387803E-007  0.7888475E+03  0.7818608E-02  0.9735450E-01
         -2   -1    0    0    0  501 -0.00000000000E+00  0.00000000000E+00  0.29327097448E+03  0.29327097449E+03  0.25500000000E-02 0.  1.
          2   -1    0    0  501    0  0.00000000000E+00 -0.00000000000E+00 -0.21323169955E+04  0.21323169955E+04  0.25500000000E-02 0. -1.
    8880023    1    1    2    0    0 -0.14087181049E+02  0.43390295590E+03 -0.34274172533E+03  0.86008855379E+03  0.65864270000E+03 0.  1.
    8880022    1    1    2    0    0  0.14087181049E+02 -0.43390295590E+03 -0.14963042957E+04  0.15654994162E+04  0.15294330000E+03 0.  0.
<mgrwt>
<rscale>  0 0.68944782E+03</rscale>
<asrwt>0</asrwt>
<pdfrwt beam="1">  1        2 0.32804876E+00 0.78884753E+03</pdfrwt>
<pdfrwt beam="2">  1       -2 0.45118613E-01 0.78884753E+03</pdfrwt>
<totfact> 0.27055031E+01</totfact>
</mgrwt>
</event>
<event>
 4    2  0.6387803E-007  0.6605800E+03  0.7818608E-02  0.1023570E+00
          2   -1    0    0  501    0  0.00000000000E+00  0.00000000000E+00  0.13831327285E+04  0.13831327285E+04  0.25500000000E-02 0. -1.
         -2   -1    0    0    0  501 -0.00000000000E+00 -0.00000000000E+00 -0.12400062386E+03  0.12400062389E+03  0.25500000000E-02 0.  1.
    8880023    1    1    2    0    0  0.50202501900E+02  0.59573625612E+01  0.93040061153E+03  0.11410570913E+04  0.65864270000E+03 0.  1.
    8880022    1    1    2    0    0 -0.50202501900E+02 -0.59573625612E+01  0.32873149307E+03  0.36607626107E+03  0.15294330000E+03 0.  0.
<mgrwt>
<rscale>  0 0.46420080E+03</rscale>
<asrwt>0</asrwt>
<pdfrwt beam="1">  1        2 0.21278966E+00 0.66058004E+03</pdfrwt>
<pdfrwt beam="2">  1       -2 0.19077018E-01 0.66058004E+03</pdfrwt>
<totfact> 0.34876087E+02</totfact>
</mgrwt>
</event>
<event>
 4    2  0.6387803E-007  0.7802746E+03  0.7818608E-02  0.9755192E-01
         -2   -1    0    0    0  501 -0.00000000000E+00  0.00000000000E+00  0.59359118577E+03  0.59359118578E+03  0.25500000000E-02 0.  1.
          2   -1    0    0  501    0  0.00000000000E+00 -0.00000000000E+00 -0.80667730047E+03  0.80667730047E+03  0.25500000000E-02 0. -1.
    8880023    1    1    2    0    0 -0.41296439857E+03 -0.66922165733E+02  0.18607555089E+03  0.80215490253E+03  0.65864270000E+03 0. -1.
    8880022    1    1    2    0    0  0.41296439857E+03  0.66922165733E+02 -0.39916166558E+03  0.59811358372E+03  0.15294330000E+03 0.  0.
<mgrwt>
<rscale>  0 0.67823622E+03</rscale>
<asrwt>0</asrwt>
<pdfrwt beam="1">  1        2 0.12410420E+00 0.78027455E+03</pdfrwt>
<pdfrwt beam="2">  1       -2 0.91321721E-01 0.78027455E+03</pdfrwt>
<totfact> 0.35206979E+01</totfact>
</mgrwt>
</event>
<event>
 4    2  0.6387803E-007  0.7333229E+03  0.7818608E-02  0.9879842E-01
          2   -1    0    0  501    0  0.00000000000E+00  0.00000000000E+00  0.17917221219E+04  0.17917221219E+04  0.25500000000E-02 0. -1.
         -2   -1    0    0    0  501 -0.00000000000E+00 -0.00000000000E+00 -0.51881779780E+03  0.51881779780E+03  0.25500000000E-02 0.  1.
    8880023    1    1    2    0    0 -0.31811757644E+03 -0.52473208834E+02 -0.22787939253E+03  0.76791370211E+03  0.65864270000E+03 0.  1.
    8880022    1    1    2    0    0  0.31811757644E+03  0.52473208834E+02  0.15007837167E+04  0.15426262176E+04  0.15294330000E+03 0.  0.
<mgrwt>
<rscale>  0 0.61248250E+03</rscale>
<asrwt>0</asrwt>
<pdfrwt beam="1">  1        2 0.27564956E+00 0.73332287E+03</pdfrwt>
<pdfrwt beam="2">  1       -2 0.79818122E-01 0.73332287E+03</pdfrwt>
<totfact> 0.12513528E+01</totfact>
</mgrwt>
</event>
<event>
 4    2  0.6387803E-007  0.1598856E+04  0.7818608E-02  0.8842811E-01
         -2   -1    0    0    0  501 -0.00000000000E+00  0.00000000000E+00  0.85635761799E+03  0.85635761799E+03  0.25500000000E-02 0.  1.
          2   -1    0    0  501    0  0.00000000000E+00 -0.00000000000E+00 -0.39351557320E+04  0.39351557320E+04  0.25500000000E-02 0. -1.
    8880023    1    1    2    0    0  0.96864005644E+03  0.10882406631E+04 -0.26699042602E+03  0.16209951862E+04  0.65864270000E+03 0.  0.
    8880022    1    1    2    0    0 -0.96864005644E+03 -0.10882406631E+04 -0.28118076880E+04  0.31705181638E+04  0.15294330000E+03 0.  0.
<mgrwt>
<rscale>  0 0.15642596E+04</rscale>
<asrwt>0</asrwt>
<pdfrwt beam="1">  1        2 0.60540856E+00 0.15988563E+04</pdfrwt>
<pdfrwt beam="2">  1       -2 0.13174733E+00 0.15988563E+04</pdfrwt>
<totfact> 0.15388781E-01</totfact>
</mgrwt>
</event>
<event>
 4    2  0.6387803E-007  0.1376954E+04  0.7818608E-02  0.9001800E-01
          2   -1    0    0  501    0  0.00000000000E+00  0.00000000000E+00  0.11741832206E+04  0.11741832206E+04  0.25500000000E-02 0. -1.
         -2   -1    0    0    0  501 -0.00000000000E+00 -0.00000000000E+00 -0.16785409777E+04  0.16785409777E+04  0.25500000000E-02 0.  1.
    8880023    1    1    2    0    0 -0.18654376152E+03 -0.11947354527E+04  0.27753236761E+03  0.14046443672E+04  0.65864270000E+03 0.  0.
    8880022    1    1    2    0    0  0.18654376152E+03  0.11947354527E+04 -0.78189012470E+03  0.14480798311E+04  0.15294330000E+03 0.  0.
<mgrwt>
<rscale>  0 0.13356007E+04</rscale>
<asrwt>0</asrwt>
<pdfrwt beam="1">  1        2 0.18064357E+00 0.13769537E+04</pdfrwt>
<pdfrwt beam="2">  1       -2 0.25823707E+00 0.13769537E+04</pdfrwt>
<totfact> 0.10727110E+00</totfact>
</mgrwt>
</event>
<event>
 4    2  0.6387803E-007  0.9697203E+03  0.7818608E-02  0.9422291E-01
          2   -1    0    0  501    0  0.00000000000E+00  0.00000000000E+00  0.11917305925E+04  0.11917305925E+04  0.25500000000E-02 0. -1.
         -2   -1    0    0    0  501 -0.00000000000E+00 -0.00000000000E+00 -0.66820546341E+03  0.66820546341E+03  0.25500000000E-02 0.  1.
    8880023    1    1    2    0    0 -0.23820719344E+03  0.67067470628E+03  0.11246764677E+02  0.96978550444E+03  0.65864270000E+03 0.  0.
    8880022    1    1    2    0    0  0.23820719344E+03 -0.67067470628E+03  0.51227836445E+03  0.89015055150E+03  0.15294330000E+03 0.  0.
<mgrwt>
<rscale>  0 0.90263690E+03</rscale>
<asrwt>0</asrwt>
<pdfrwt beam="1">  1        2 0.18334317E+00 0.96972029E+03</pdfrwt>
<pdfrwt beam="2">  1       -2 0.10280084E+00 0.96972029E+03</pdfrwt>
<totfact> 0.14765459E+01</totfact>
</mgrwt>
</event>
<event>
 4    2  0.6387803E-007  0.9328694E+03  0.7818608E-02  0.9475202E-01
          2   -1    0    0  501    0  0.00000000000E+00  0.00000000000E+00  0.20745116241E+04  0.20745116241E+04  0.25500000000E-02 0. -1.
         -2   -1    0    0    0  501 -0.00000000000E+00 -0.00000000000E+00 -0.47015849848E+03  0.47015849848E+03  0.25500000000E-02 0.  1.
    8880023    1    1    2    0    0 -0.16146611144E+03  0.64059647838E+03  0.15652443500E+03  0.94590975166E+03  0.65864270000E+03 0.  1.
    8880022    1    1    2    0    0  0.16146611144E+03 -0.64059647838E+03  0.14478286906E+04  0.15987603709E+04  0.15294330000E+03 0.  0.
<mgrwt>
<rscale>  0 0.86137037E+03</rscale>
<asrwt>0</asrwt>
<pdfrwt beam="1">  1        2 0.31915564E+00 0.93286942E+03</pdfrwt>
<pdfrwt beam="2">  1       -2 0.72332075E-01 0.93286942E+03</pdfrwt>
<totfact> 0.10626829E+01</totfact>
</mgrwt>
</event>
<event>
 4    2  0.6387803E-007  0.7724485E+03  0.7818608E-02  0.9773884E-01
         -2   -1    0    0    0  501 -0.00000000000E+00  0.00000000000E+00  0.14767154440E+03  0.14767154443E+03  0.25500000000E-02 0.  1.
          2   -1    0    0  501    0  0.00000000000E+00 -0.00000000000E+00 -0.30209827397E+04  0.30209827397E+04  0.25500000000E-02 0. -1.
    8880023    1    1    2    0    0 -0.24241668617E+03 -0.32264638496E+03 -0.11035693445E+04  0.13470493843E+04  0.65864270000E+03 0.  0.
    8880022    1    1    2    0    0  0.24241668617E+03  0.32264638496E+03 -0.17697418508E+04  0.18216048998E+04  0.15294330000E+03 0.  0.
<mgrwt>
<rscale>  0 0.66783102E+03</rscale>
<asrwt>0</asrwt>
<pdfrwt beam="1">  1        2 0.46476653E+00 0.77244854E+03</pdfrwt>
<pdfrwt beam="2">  1       -2 0.22718701E-01 0.77244854E+03</pdfrwt>
<totfact> 0.30322116E+01</totfact>
</mgrwt>
</event>
<event>
 4    2  0.6387803E-007  0.6670916E+03  0.7818608E-02  0.1017840E+00
         -2   -1    0    0    0  501 -0.00000000000E+00  0.00000000000E+00  0.11964944452E+03  0.11964944454E+03  0.25500000000E-02 0.  1.
          2   -1    0    0  501    0  0.00000000000E+00 -0.00000000000E+00 -0.26265507872E+04  0.26265507872E+04  0.25500000000E-02 0. -1.
    8880023    1    1    2    0    0  0.83538685673E+02  0.64979443066E+02 -0.85788465859E+03  0.10867278103E+04  0.65864270000E+03 0.  1.
    8880022    1    1    2    0    0 -0.83538685673E+02 -0.64979443066E+02 -0.16490166841E+04  0.16594724215E+04  0.15294330000E+03 0.  0.
<mgrwt>
<rscale>  0 0.48474369E+03</rscale>
<asrwt>0</asrwt>
<pdfrwt beam="1">  1        2 0.40408470E+00 0.66709163E+03</pdfrwt>
<pdfrwt beam="2">  1       -2 0.18407609E-01 0.66709163E+03</pdfrwt>
<totfact> 0.76350091E+01</totfact>
</mgrwt>
</event>
<event>
 4    2  0.6387803E-007  0.7482729E+03  0.7818608E-02  0.9836472E-01
          2   -1    0    0  501    0  0.00000000000E+00  0.00000000000E+00  0.13766609382E+04  0.13766609382E+04  0.25500000000E-02 0. -1.
         -2   -1    0    0    0  501 -0.00000000000E+00 -0.00000000000E+00 -0.55780136235E+03  0.55780136235E+03  0.25500000000E-02 0.  1.
    8880023    1    1    2    0    0  0.35149298997E+03  0.50545481013E+02 -0.25704600197E+03  0.79119215178E+03  0.65864270000E+03 0.  1.
    8880022    1    1    2    0    0 -0.35149298997E+03 -0.50545481013E+02  0.10759055778E+04  0.11432701487E+04  0.15294330000E+03 0.  0.
<mgrwt>
<rscale>  0 0.63441425E+03</rscale>
<asrwt>0</asrwt>
<pdfrwt beam="1">  1        2 0.21179399E+00 0.74827293E+03</pdfrwt>
<pdfrwt beam="2">  1       -2 0.85815595E-01 0.74827293E+03</pdfrwt>
<totfact> 0.17984513E+01</totfact>
</mgrwt>
</event>
<event>
 4    2  0.6387803E-007  0.6829575E+03  0.7818608E-02  0.1007698E+00
         -2   -1    0    0    0  501 -0.00000000000E+00  0.00000000000E+00  0.19308584916E+03  0.19308584917E+03  0.25500000000E-02 0.  1.
          2   -1    0    0  501    0  0.00000000000E+00 -0.00000000000E+00 -0.28070990808E+04  0.28070990808E+04  0.25500000000E-02 0. -1.
    8880023    1    1    2    0    0 -0.39985040465E+02 -0.17613058502E+03 -0.43800521096E+03  0.81134429038E+03  0.65864270000E+03 0.  1.
    8880022    1    1    2    0    0  0.39985040465E+02  0.17613058502E+03 -0.21760080207E+04  0.21888406396E+04  0.15294330000E+03 0.  0.
<mgrwt>
<rscale>  0 0.52399946E+03</rscale>
<asrwt>0</asrwt>
<pdfrwt beam="1">  1        2 0.43186137E+00 0.68295753E+03</pdfrwt>
<pdfrwt beam="2">  1       -2 0.29705517E-01 0.68295753E+03</pdfrwt>
<totfact> 0.25438415E+01</totfact>
</mgrwt>
</event>
<event>
 4    2  0.6387803E-007  0.9624196E+03  0.7818608E-02  0.9432466E-01
         -2   -1    0    0    0  501 -0.00000000000E+00  0.00000000000E+00  0.70494374030E+03  0.70494374030E+03  0.25500000000E-02 0.  1.
          2   -1    0    0  501    0  0.00000000000E+00 -0.00000000000E+00 -0.12424335016E+04  0.12424335016E+04  0.25500000000E-02 0. -1.
    8880023    1    1    2    0    0 -0.27231867994E+03  0.64674865937E+03  0.12471906507E+03  0.97046707481E+03  0.65864270000E+03 0.  0.
    8880022    1    1    2    0    0  0.27231867994E+03 -0.64674865937E+03 -0.66220882637E+03  0.97691016710E+03  0.15294330000E+03 0.  0.
<mgrwt>
<rscale>  0 0.89451367E+03</rscale>
<asrwt>0</asrwt>
<pdfrwt beam="1">  1        2 0.19114362E+00 0.96241961E+03</pdfrwt>
<pdfrwt beam="2">  1       -2 0.10845288E+00 0.96241961E+03</pdfrwt>
<totfact> 0.12115906E+01</totfact>
</mgrwt>
</event>
<event>
 4    2  0.6387803E-007  0.7189817E+03  0.7818608E-02  0.9926047E-01
          2   -1    0    0  501    0  0.00000000000E+00  0.00000000000E+00  0.23405425158E+04  0.23405425158E+04  0.25500000000E-02 0. -1.
         -2   -1    0    0    0  501 -0.00000000000E+00 -0.00000000000E+00 -0.73108319941E+03  0.73108319941E+03  0.25500000000E-02 0.  1.
    8880023    1    1    2    0    0 -0.26945501131E+03  0.10255959067E+03 -0.53895810292E+03  0.89856024602E+03  0.65864270000E+03 0.  1.
    8880022    1    1    2    0    0  0.26945501131E+03 -0.10255959067E+03  0.21484174193E+04  0.21730654692E+04  0.15294330000E+03 0.  0.
<mgrwt>
<rscale>  0 0.59015392E+03</rscale>
<asrwt>0</asrwt>
<pdfrwt beam="1">  1        2 0.36008347E+00 0.71898170E+03</pdfrwt>
<pdfrwt beam="2">  1       -2 0.11247434E+00 0.71898170E+03</pdfrwt>
<totfact> 0.28148999E+00</totfact>
</mgrwt>
</event>
<event>
 4    2  0.6387803E-007  0.6775727E+03  0.7818608E-02  0.1010731E+00
         -2   -1    0    0    0  501 -0.00000000000E+00  0.00000000000E+00  0.20398747379E+03  0.20398747380E+03  0.25500000000E-02 0.  1.
          2   -1    0    0  501    0  0.00000000000E+00 -0.00000000000E+00 -0.15909347252E+04  0.15909347252E+04  0.25500000000E-02 0. -1.
    8880023    1    1    2    0    0 -0.11669543488E+03 -0.10805888334E+03 -0.40694101554E+03  0.79038328878E+03  0.65864270000E+03 0.  1.
    8880022    1    1    2    0    0  0.11669543488E+03  0.10805888334E+03 -0.98000623591E+03  0.10045389103E+04  0.15294330000E+03 0.  0.
<mgrwt>
<rscale>  0 0.51184994E+03</rscale>
<asrwt>0</asrwt>
<pdfrwt beam="1">  1        2 0.24475918E+00 0.67757269E+03</pdfrwt>
<pdfrwt beam="2">  1       -2 0.31382689E-01 0.67757269E+03</pdfrwt>
<totfact> 0.10908468E+02</totfact>
</mgrwt>
</event>
<event>
 4    2  0.6387803E-007  0.1001881E+04  0.7818608E-02  0.9379101E-01
          2   -1    0    0  501    0  0.00000000000E+00  0.00000000000E+00  0.11204212017E+04  0.11204212018E+04  0.25500000000E-02 0. -1.
         -2   -1    0    0    0  501 -0.00000000000E+00 -0.00000000000E+00 -0.79296715830E+03  0.79296715830E+03  0.25500000000E-02 0.  1.
    8880023    1    1    2    0    0  0.70115342324E+03 -0.27988988685E+03 -0.14112590380E+03  0.10117713174E+04  0.65864270000E+03 0.  0.
    8880022    1    1    2    0    0 -0.70115342324E+03  0.27988988685E+03  0.46857994725E+03  0.90161704268E+03  0.15294330000E+03 0.  0.
<mgrwt>
<rscale>  0 0.93815691E+03</rscale>
<asrwt>0</asrwt>
<pdfrwt beam="1">  1        2 0.17237249E+00 0.10018806E+04</pdfrwt>
<pdfrwt beam="2">  1       -2 0.12199495E+00 0.10018806E+04</pdfrwt>
<totfact> 0.10702488E+01</totfact>
</mgrwt>
</event>
<event>
 4    2  0.6932087E-007  0.9720305E+03  0.7818608E-02  0.9419101E-01
          2   -1    0    0  501    0  0.00000000000E+00  0.00000000000E+00  0.20208040567E+04  0.20208040567E+04  0.25500000000E-02 0. -1.
         -2   -1    0    0    0  501 -0.00000000000E+00 -0.00000000000E+00 -0.14527094521E+04  0.14527094521E+04  0.25500000000E-02 0.  1.
    8880023    1    1    2    0    0 -0.27723082238E+03  0.65892048833E+03 -0.12093700158E+04  0.15515860209E+04  0.65864270000E+03 0.  1.
    8880022    1    1    2    0    0  0.27723082238E+03 -0.65892048833E+03  0.17774646204E+04  0.19219274879E+04  0.15294330000E+03 0.  0.
<mgrwt>
<rscale>  0 0.90520252E+03</rscale>
<asrwt>0</asrwt>
<pdfrwt beam="1">  1        2 0.31089293E+00 0.97203053E+03</pdfrwt>
<pdfrwt beam="2">  1       -2 0.22349376E+00 0.97203053E+03</pdfrwt>
<totfact> 0.61431303E-01</totfact>
</mgrwt>
</event>
<event>
 4    2  0.6387803E-007  0.6742491E+03  0.7818608E-02  0.1012784E+00
         -2   -1    0    0    0  501 -0.00000000000E+00  0.00000000000E+00  0.12594172226E+04  0.12594172226E+04  0.25500000000E-02 0.  1.
          2   -1    0    0  501    0  0.00000000000E+00 -0.00000000000E+00 -0.39962260803E+03  0.39962260804E+03  0.25500000000E-02 0. -1.
    8880023    1    1    2    0    0  0.14420460983E+03 -0.25957163520E+01  0.11304971187E+04  0.13162961859E+04  0.65864270000E+03 0.  1.
    8880022    1    1    2    0    0 -0.14420460983E+03  0.25957163520E+01 -0.27070250417E+03  0.34274364475E+03  0.15294330000E+03 0.  0.
<mgrwt>
<rscale>  0 0.50383105E+03</rscale>
<asrwt>0</asrwt>
<pdfrwt beam="1">  1        2 0.61480402E-01 0.67424915E+03</pdfrwt>
<pdfrwt beam="2">  1       -2 0.19375649E+00 0.67424915E+03</pdfrwt>
<totfact> 0.11943266E+01</totfact>
</mgrwt>
</event>
<event>
 4    2  0.6387803E-007  0.7180524E+03  0.7818608E-02  0.9929232E-01
          2   -1    0    0  501    0  0.00000000000E+00  0.00000000000E+00  0.44781744102E+03  0.44781744103E+03  0.25500000000E-02 0. -1.
         -2   -1    0    0    0  501 -0.00000000000E+00 -0.00000000000E+00 -0.94900374309E+03  0.94900374309E+03  0.25500000000E-02 0.  1.
    8880023    1    1    2    0    0  0.14861353447E+03  0.24434224084E+03 -0.71103908865E+03  0.10105324859E+04  0.65864270000E+03 0.  1.
    8880022    1    1    2    0    0 -0.14861353447E+03 -0.24434224084E+03  0.20985278659E+03  0.38628869818E+03  0.15294330000E+03 0.  0.
<mgrwt>
<rscale>  0 0.58865274E+03</rscale>
<asrwt>0</asrwt>
<pdfrwt beam="1">  1        2 0.68894991E-01 0.71805245E+03</pdfrwt>
<pdfrwt beam="2">  1       -2 0.14600058E+00 0.71805245E+03</pdfrwt>
<totfact> 0.22859353E+01</totfact>
</mgrwt>
</event>
<event>
 4    2  0.6387803E-007  0.8637831E+03  0.7818608E-02  0.9586869E-01
          2   -1    0    0  501    0  0.00000000000E+00  0.00000000000E+00  0.39511759806E+04  0.39511759806E+04  0.25500000000E-02 0. -1.
         -2   -1    0    0    0  501 -0.00000000000E+00 -0.00000000000E+00 -0.14895890220E+03  0.14895890222E+03  0.25500000000E-02 0.  1.
    8880023    1    1    2    0    0 -0.51116078409E+03  0.22588885897E+03  0.15484326844E+04  0.17730665831E+04  0.65864270000E+03 0.  1.
    8880022    1    1    2    0    0  0.51116078409E+03 -0.22588885897E+03  0.22537843941E+04  0.23270682997E+04  0.15294330000E+03 0. -1.
<mgrwt>
<rscale>  0 0.78171404E+03</rscale>
<asrwt>0</asrwt>
<pdfrwt beam="1">  1        2 0.60787317E+00 0.86378315E+03</pdfrwt>
<pdfrwt beam="2">  1       -2 0.22916756E-01 0.86378315E+03</pdfrwt>
<totfact> 0.67577429E+00</totfact>
</mgrwt>
</event>
<event>
 4    2  0.6387803E-007  0.7136238E+03  0.7818608E-02  0.9944783E-01
          2   -1    0    0  501    0  0.00000000000E+00  0.00000000000E+00  0.83154079261E+03  0.83154079262E+03  0.25500000000E-02 0. -1.
         -2   -1    0    0    0  501 -0.00000000000E+00 -0.00000000000E+00 -0.36128870048E+03  0.36128870049E+03  0.25500000000E-02 0.  1.
    8880023    1    1    2    0    0 -0.56492603025E+02  0.26880722393E+03  0.12255321625E+03  0.72407060078E+03  0.65864270000E+03 0.  1.
    8880022    1    1    2    0    0  0.56492603025E+02 -0.26880722393E+03  0.34769887588E+03  0.46875889233E+03  0.15294330000E+03 0. -1.
<mgrwt>
<rscale>  0 0.58139167E+03</rscale>
<asrwt>0</asrwt>
<pdfrwt beam="1">  1        2 0.12792935E+00 0.71362381E+03</pdfrwt>
<pdfrwt beam="2">  1       -2 0.55582877E-01 0.71362381E+03</pdfrwt>
<totfact> 0.10095170E+02</totfact>
</mgrwt>
</event>
<event>
 4    2  0.6387803E-007  0.7207502E+03  0.7818608E-02  0.9920056E-01
          2   -1    0    0  501    0  0.00000000000E+00  0.00000000000E+00  0.16533998268E+04  0.16533998268E+04  0.25500000000E-02 0. -1.
         -2   -1    0    0    0  501 -0.00000000000E+00 -0.00000000000E+00 -0.62724212586E+03  0.62724212587E+03  0.25500000000E-02 0.  1.
    8880023    1    1    2    0    0  0.26550943345E+03 -0.12318869206E+03 -0.39481169125E+03  0.82180118698E+03  0.65864270000E+03 0.  1.
    8880022    1    1    2    0    0 -0.26550943345E+03  0.12318869206E+03  0.14209693922E+04  0.14588407657E+04  0.15294330000E+03 0.  0.
<mgrwt>
<rscale>  0 0.59299081E+03</rscale>
<asrwt>0</asrwt>
<pdfrwt beam="1">  1        2 0.25436921E+00 0.72075025E+03</pdfrwt>
<pdfrwt beam="2">  1       -2 0.96498788E-01 0.72075025E+03</pdfrwt>
<totfact> 0.96532040E+00</totfact>
</mgrwt>
</event>
<event>
 4    2  0.6387803E-007  0.8124295E+03  0.7818608E-02  0.9684538E-01
         -2   -1    0    0    0  501 -0.00000000000E+00  0.00000000000E+00  0.26755558017E+03  0.26755558018E+03  0.25500000000E-02 0.  1.
          2   -1    0    0  501    0  0.00000000000E+00 -0.00000000000E+00 -0.29780515836E+04  0.29780515836E+04  0.25500000000E-02 0. -1.
    8880023    1    1    2    0    0  0.41448495787E+03  0.23331043133E+03 -0.26132277473E+04  0.27366039179E+04  0.65864270000E+03 0. -1.
    8880022    1    1    2    0    0 -0.41448495787E+03 -0.23331043133E+03 -0.97268256076E+02  0.50900324588E+03  0.15294330000E+03 0.  0.
<mgrwt>
<rscale>  0 0.71944880E+03</rscale>
<asrwt>0</asrwt>
<pdfrwt beam="1">  1        2 0.45816176E+00 0.81242953E+03</pdfrwt>
<pdfrwt beam="2">  1       -2 0.41162399E-01 0.81242953E+03</pdfrwt>
<totfact> 0.10558947E+01</totfact>
</mgrwt>
</event>
<event>
 4    2  0.6387803E-007  0.7073396E+03  0.7818608E-02  0.9968016E-01
         -2   -1    0    0    0  501 -0.00000000000E+00  0.00000000000E+00  0.60055513315E+03  0.60055513315E+03  0.25500000000E-02 0.  1.
          2   -1    0    0  501    0  0.00000000000E+00 -0.00000000000E+00 -0.97034426892E+03  0.97034426893E+03  0.25500000000E-02 0. -1.
    8880023    1    1    2    0    0 -0.20497557061E+03 -0.15653809755E+03  0.35143027304E+03  0.78983074364E+03  0.65864270000E+03 0.  0.
    8880022    1    1    2    0    0  0.20497557061E+03  0.15653809755E+03 -0.72121940881E+03  0.78106865844E+03  0.15294330000E+03 0.  0.
<mgrwt>
<rscale>  0 0.57075206E+03</rscale>
<asrwt>0</asrwt>
<pdfrwt beam="1">  1        2 0.14928373E+00 0.70733964E+03</pdfrwt>
<pdfrwt beam="2">  1       -2 0.92393097E-01 0.70733964E+03</pdfrwt>
<totfact> 0.26714211E+01</totfact>
</mgrwt>
</event>
<event>
 4    2  0.6387803E-007  0.7110560E+03  0.7818608E-02  0.9954100E-01
          2   -1    0    0  501    0  0.00000000000E+00  0.00000000000E+00  0.11254006535E+03  0.11254006537E+03  0.25500000000E-02 0. -1.
         -2   -1    0    0    0  501 -0.00000000000E+00 -0.00000000000E+00 -0.27771190044E+04  0.27771190044E+04  0.25500000000E-02 0.  1.
    8880023    1    1    2    0    0 -0.24394208529E+03 -0.11082730961E+03 -0.23229518954E+04  0.24293427399E+04  0.65864270000E+03 0. -1.
    8880022    1    1    2    0    0  0.24394208529E+03  0.11082730961E+03 -0.34162704364E+03  0.46031632981E+03  0.15294330000E+03 0.  0.
<mgrwt>
<rscale>  0 0.57709493E+03</rscale>
<asrwt>0</asrwt>
<pdfrwt beam="1">  1        2 0.17313858E-01 0.71105600E+03</pdfrwt>
<pdfrwt beam="2">  1       -2 0.42724903E+00 0.71105600E+03</pdfrwt>
<totfact> 0.17725402E+00</totfact>
</mgrwt>
</event>
<event>
 4    2  0.6387803E-007  0.1161528E+04  0.7818608E-02  0.9195458E-01
         -2   -1    0    0    0  501 -0.00000000000E+00  0.00000000000E+00  0.16949177071E+04  0.16949177071E+04  0.25500000000E-02 0.  1.
          2   -1    0    0  501    0  0.00000000000E+00 -0.00000000000E+00 -0.82887855792E+03  0.82887855793E+03  0.25500000000E-02 0. -1.
    8880023    1    1    2    0    0 -0.15716650187E+03  0.94373508280E+03 -0.86956417057E+02  0.11647784513E+04  0.65864270000E+03 0.  0.
    8880022    1    1    2    0    0  0.15716650187E+03 -0.94373508280E+03  0.95299556620E+03  0.13590178137E+04  0.15294330000E+03 0.  0.
<mgrwt>
<rscale>  0 0.11100430E+04</rscale>
<asrwt>0</asrwt>
<pdfrwt beam="1">  1        2 0.12751978E+00 0.11615281E+04</pdfrwt>
<pdfrwt beam="2">  1       -2 0.26075657E+00 0.11615281E+04</pdfrwt>
<totfact> 0.17782302E+00</totfact>
</mgrwt>
</event>
<event>
 4    2  0.6387803E-007  0.1208286E+04  0.7818608E-02  0.9149110E-01
          2   -1    0    0  501    0  0.00000000000E+00  0.00000000000E+00  0.21781154412E+04  0.21781154412E+04  0.25500000000E-02 0. -1.
         -2   -1    0    0    0  501 -0.00000000000E+00 -0.00000000000E+00 -0.67812252721E+03  0.67812252722E+03  0.25500000000E-02 0.  1.
    8880023    1    1    2    0    0  0.31460801872E+02 -0.10124990500E+04  0.23926582076E+03  0.12317477207E+04  0.65864270000E+03 0.  0.
    8880022    1    1    2    0    0 -0.31460801872E+02  0.10124990500E+04  0.12607270932E+04  0.16244902477E+04  0.15294330000E+03 0.  0.
<mgrwt>
<rscale>  0 0.11594496E+04</rscale>
<asrwt>0</asrwt>
<pdfrwt beam="1">  1        2 0.33509468E+00 0.12082857E+04</pdfrwt>
<pdfrwt beam="2">  1       -2 0.10432654E+00 0.12082857E+04</pdfrwt>
<totfact> 0.38813779E+00</totfact>
</mgrwt>
</event>
<event>
 4    2  0.6387803E-007  0.7316102E+03  0.7818608E-02  0.9885096E-01
         -2   -1    0    0    0  501 -0.00000000000E+00  0.00000000000E+00  0.38618928279E+03  0.38618928280E+03  0.25500000000E-02 0.  1.
          2   -1    0    0  501    0  0.00000000000E+00 -0.00000000000E+00 -0.86073527938E+03  0.86073527938E+03  0.25500000000E-02 0. -1.
    8880023    1    1    2    0    0  0.16241013073E+03  0.27398209039E+03 -0.11101836810E+03  0.73998548684E+03  0.65864270000E+03 0.  1.
    8880022    1    1    2    0    0 -0.16241013073E+03 -0.27398209039E+03 -0.36352762848E+03  0.50693907534E+03  0.15294330000E+03 0. -1.
<mgrwt>
<rscale>  0 0.60989040E+03</rscale>
<asrwt>0</asrwt>
<pdfrwt beam="1">  1        2 0.13242081E+00 0.73161017E+03</pdfrwt>
<pdfrwt beam="2">  1       -2 0.59413736E-01 0.73161017E+03</pdfrwt>
<totfact> 0.83692345E+01</totfact>
</mgrwt>
</event>
<event>
 4    2  0.6387803E-007  0.1098170E+04  0.7818608E-02  0.9263097E-01
         -2   -1    0    0    0  501 -0.00000000000E+00  0.00000000000E+00  0.13624595761E+04  0.13624595761E+04  0.25500000000E-02 0.  1.
          2   -1    0    0  501    0  0.00000000000E+00 -0.00000000000E+00 -0.10924484130E+04  0.10924484130E+04  0.25500000000E-02 0. -1.
    8880023    1    1    2    0    0 -0.21256627868E+03  0.85263251357E+03  0.85197070756E+03  0.13899032048E+04  0.65864270000E+03 0.  0.
    8880022    1    1    2    0    0  0.21256627868E+03 -0.85263251357E+03 -0.58195954448E+03  0.10650047842E+04  0.15294330000E+03 0.  0.
<mgrwt>
<rscale>  0 0.10425241E+04</rscale>
<asrwt>0</asrwt>
<pdfrwt beam="1">  1        2 0.16806899E+00 0.10981698E+04</pdfrwt>
<pdfrwt beam="2">  1       -2 0.20960917E+00 0.10981698E+04</pdfrwt>
<totfact> 0.24905866E+00</totfact>
</mgrwt>
</event>
<event>
 4    2  0.6387803E-007  0.8085376E+03  0.7818608E-02  0.9692631E-01
         -2   -1    0    0    0  501 -0.00000000000E+00  0.00000000000E+00  0.16822784264E+03  0.16822784266E+03  0.25500000000E-02 0.  1.
          2   -1    0    0  501    0  0.00000000000E+00 -0.00000000000E+00 -0.52539231139E+04  0.52539231139E+04  0.25500000000E-02 0. -1.
    8880023    1    1    2    0    0 -0.21639882591E+03  0.41604609452E+03 -0.90952619153E+03  0.12169514797E+04  0.65864270000E+03 0.  0.
    8880022    1    1    2    0    0  0.21639882591E+03 -0.41604609452E+03 -0.41761690797E+04  0.42051994768E+04  0.15294330000E+03 0.  0.
<mgrwt>
<rscale>  0 0.71457225E+03</rscale>
<asrwt>0</asrwt>
<pdfrwt beam="1">  1        2 0.80829574E+00 0.80853758E+03</pdfrwt>
<pdfrwt beam="2">  1       -2 0.25881211E-01 0.80853758E+03</pdfrwt>
<totfact> 0.24389716E-01</totfact>
</mgrwt>
</event>
<event>
 4    2  0.6387803E-007  0.7315557E+03  0.7818608E-02  0.9885265E-01
          2   -1    0    0  501    0  0.00000000000E+00  0.00000000000E+00  0.62925029727E+03  0.62925029727E+03  0.25500000000E-02 0. -1.
         -2   -1    0    0    0  501 -0.00000000000E+00 -0.00000000000E+00 -0.59257860069E+03  0.59257860070E+03  0.25500000000E-02 0.  1.
    8880023    1    1    2    0    0  0.31653380123E+03 -0.34204280009E+02 -0.24347709441E+03  0.77100900245E+03  0.65864270000E+03 0.  1.
    8880022    1    1    2    0    0 -0.31653380123E+03  0.34204280009E+02  0.28014879099E+03  0.45081989552E+03  0.15294330000E+03 0.  0.
<mgrwt>
<rscale>  0 0.60980771E+03</rscale>
<asrwt>0</asrwt>
<pdfrwt beam="1">  1        2 0.96807738E-01 0.73155573E+03</pdfrwt>
<pdfrwt beam="2">  1       -2 0.91165938E-01 0.73155573E+03</pdfrwt>
<totfact> 0.48671933E+01</totfact>
</mgrwt>
</event>
<event>
 4    2  0.6387803E-007  0.8791026E+03  0.7818608E-02  0.9560447E-01
         -2   -1    0    0    0  501 -0.00000000000E+00  0.00000000000E+00  0.86611506853E+03  0.86611506853E+03  0.25500000000E-02 0.  1.
          2   -1    0    0  501    0  0.00000000000E+00 -0.00000000000E+00 -0.26869017381E+04  0.26869017381E+04  0.25500000000E-02 0. -1.
    8880023    1    1    2    0    0  0.49826848628E+03 -0.30123031766E+03  0.59619011264E+03  0.10621977431E+04  0.65864270000E+03 0.  1.
    8880022    1    1    2    0    0 -0.49826848628E+03  0.30123031766E+03 -0.24169767822E+04  0.24908190636E+04  0.15294330000E+03 0.  0.
<mgrwt>
<rscale>  0 0.79970282E+03</rscale>
<asrwt>0</asrwt>
<pdfrwt beam="1">  1        2 0.41336950E+00 0.87910261E+03</pdfrwt>
<pdfrwt beam="2">  1       -2 0.13324847E+00 0.87910261E+03</pdfrwt>
<totfact> 0.11369106E+00</totfact>
</mgrwt>
</event>
<event>
 4    2  0.6387803E-007  0.7141050E+03  0.7818608E-02  0.9943062E-01
         -2   -1    0    0    0  501 -0.00000000000E+00  0.00000000000E+00  0.33807446852E+03  0.33807446853E+03  0.25500000000E-02 0.  1.
          2   -1    0    0  501    0  0.00000000000E+00 -0.00000000000E+00 -0.80244984682E+03  0.80244984682E+03  0.25500000000E-02 0. -1.
    8880023    1    1    2    0    0  0.22041303062E+03 -0.16599331558E+03 -0.23986485527E+03  0.75331337433E+03  0.65864270000E+03 0.  1.
    8880022    1    1    2    0    0 -0.22041303062E+03  0.16599331558E+03 -0.22451052303E+03  0.38721094103E+03  0.15294330000E+03 0. -1.
<mgrwt>
<rscale>  0 0.58218945E+03</rscale>
<asrwt>0</asrwt>
<pdfrwt beam="1">  1        2 0.12345382E+00 0.71410496E+03</pdfrwt>
<pdfrwt beam="2">  1       -2 0.52011457E-01 0.71410496E+03</pdfrwt>
<totfact> 0.12141509E+02</totfact>
</mgrwt>
</event>
<event>
 4    2  0.6387803E-007  0.6730585E+03  0.7818608E-02  0.1013559E+00
         -2   -1    0    0    0  501 -0.00000000000E+00  0.00000000000E+00  0.13823639318E+04  0.13823639318E+04  0.25500000000E-02 0.  1.
          2   -1    0    0  501    0  0.00000000000E+00 -0.00000000000E+00 -0.30861717040E+03  0.30861717041E+03  0.25500000000E-02 0. -1.
    8880023    1    1    2    0    0  0.11647286106E+03  0.75044312759E+02  0.12499358072E+04  0.14196292842E+04  0.65864270000E+03 0.  1.
    8880022    1    1    2    0    0 -0.11647286106E+03 -0.75044312759E+02 -0.17618904581E+03  0.27135181798E+03  0.15294330000E+03 0.  0.
<mgrwt>
<rscale>  0 0.50084356E+03</rscale>
<asrwt>0</asrwt>
<pdfrwt beam="1">  1        2 0.47479566E-01 0.67305853E+03</pdfrwt>
<pdfrwt beam="2">  1       -2 0.21267137E+00 0.67305853E+03</pdfrwt>
<totfact> 0.12033760E+01</totfact>
</mgrwt>
</event>
<event>
 4    2  0.6387803E-007  0.8007509E+03  0.7818608E-02  0.9709175E-01
          2   -1    0    0  501    0  0.00000000000E+00  0.00000000000E+00  0.11420347541E+04  0.11420347541E+04  0.25500000000E-02 0. -1.
         -2   -1    0    0    0  501 -0.00000000000E+00 -0.00000000000E+00 -0.69637602998E+03  0.69637602998E+03  0.25500000000E-02 0.  1.
    8880023    1    1    2    0    0 -0.16281410704E+03  0.42530378527E+03 -0.37753986791E+03  0.88528995326E+03  0.65864270000E+03 0.  1.
    8880022    1    1    2    0    0  0.16281410704E+03 -0.42530378527E+03  0.82319859206E+03  0.95312083085E+03  0.15294330000E+03 0.  0.
<mgrwt>
<rscale>  0 0.70473142E+03</rscale>
<asrwt>0</asrwt>
<pdfrwt beam="1">  1        2 0.17569765E+00 0.80075087E+03</pdfrwt>
<pdfrwt beam="2">  1       -2 0.10713477E+00 0.80075087E+03</pdfrwt>
<totfact> 0.14562086E+01</totfact>
</mgrwt>
</event>
<event>
 4    2  0.6387803E-007  0.7218824E+03  0.7818608E-02  0.9916267E-01
         -2   -1    0    0    0  501 -0.00000000000E+00  0.00000000000E+00  0.60220676873E+03  0.60220676874E+03  0.25500000000E-02 0.  1.
          2   -1    0    0  501    0  0.00000000000E+00 -0.00000000000E+00 -0.49788362118E+03  0.49788362118E+03  0.25500000000E-02 0. -1.
    8880023    1    1    2    0    0 -0.11908706731E+03 -0.27041129247E+03  0.20860874591E+03  0.75141986388E+03  0.65864270000E+03 0.  0.
    8880022    1    1    2    0    0  0.11908706731E+03  0.27041129247E+03 -0.10428559836E+03  0.34867052604E+03  0.15294330000E+03 0.  0.
<mgrwt>
<rscale>  0 0.59479343E+03</rscale>
<asrwt>0</asrwt>
<pdfrwt beam="1">  1        2 0.76597480E-01 0.72188240E+03</pdfrwt>
<pdfrwt beam="2">  1       -2 0.92647195E-01 0.72188240E+03</pdfrwt>
<totfact> 0.61966317E+01</totfact>
</mgrwt>
</event>
<event>
 4    2  0.6387803E-007  0.7098317E+03  0.7818608E-02  0.9958626E-01
         -2   -1    0    0    0  501 -0.00000000000E+00  0.00000000000E+00  0.95513582390E+02  0.95513582424E+02  0.25500000000E-02 0.  1.
          2   -1    0    0  501    0  0.00000000000E+00 -0.00000000000E+00 -0.27138459585E+04  0.27138459585E+04  0.25500000000E-02 0. -1.
    8880023    1    1    2    0    0 -0.24475161842E+03  0.10073497868E+03 -0.19218387139E+04  0.20487374500E+04  0.65864270000E+03 0. -1.
    8880022    1    1    2    0    0  0.24475161842E+03 -0.10073497868E+03 -0.69649366229E+03  0.76062209097E+03  0.15294330000E+03 0.  1.
<mgrwt>
<rscale>  0 0.57502224E+03</rscale>
<asrwt>0</asrwt>
<pdfrwt beam="1">  1        2 0.41751470E+00 0.70983174E+03</pdfrwt>
<pdfrwt beam="2">  1       -2 0.14694399E-01 0.70983174E+03</pdfrwt>
<totfact> 0.99257622E+01</totfact>
</mgrwt>
</event>
<event>
 4    2  0.6387803E-007  0.1606770E+04  0.7818608E-02  0.8837704E-01
         -2   -1    0    0    0  501 -0.00000000000E+00  0.00000000000E+00  0.11322403538E+04  0.11322403538E+04  0.25500000000E-02 0.  1.
          2   -1    0    0  501    0  0.00000000000E+00 -0.00000000000E+00 -0.36558530274E+04  0.36558530274E+04  0.25500000000E-02 0. -1.
    8880023    1    1    2    0    0  0.11112121297E+04 -0.95556628379E+03 -0.28565339861E+04  0.32774221486E+04  0.65864270000E+03 0.  0.
    8880022    1    1    2    0    0 -0.11112121297E+04  0.95556628379E+03  0.33292131249E+03  0.15106712327E+04  0.15294330000E+03 0.  0.
<mgrwt>
<rscale>  0 0.15723710E+04</rscale>
<asrwt>0</asrwt>
<pdfrwt beam="1">  1        2 0.56243892E+00 0.16067699E+04</pdfrwt>
<pdfrwt beam="2">  1       -2 0.17419083E+00 0.16067699E+04</pdfrwt>
<totfact> 0.11759066E-01</totfact>
</mgrwt>
</event>
<event>
 4    2  0.6387803E-007  0.6605604E+03  0.7818608E-02  0.1023589E+00
          2   -1    0    0  501    0  0.00000000000E+00  0.00000000000E+00  0.82856789614E+03  0.82856789614E+03  0.25500000000E-02 0. -1.
         -2   -1    0    0    0  501 -0.00000000000E+00 -0.00000000000E+00 -0.72311866851E+03  0.72311866851E+03  0.25500000000E-02 0.  1.
    8880023    1    1    2    0    0  0.39570584053E+02  0.31048680864E+02 -0.56064664286E+03  0.86640909282E+03  0.65864270000E+03 0.  1.
    8880022    1    1    2    0    0 -0.39570584053E+02 -0.31048680864E+02  0.66609587049E+03  0.68527747184E+03  0.15294330000E+03 0.  0.
<mgrwt>
<rscale>  0 0.46413245E+03</rscale>
<asrwt>0</asrwt>
<pdfrwt beam="1">  1        2 0.12747198E+00 0.66056041E+03</pdfrwt>
<pdfrwt beam="2">  1       -2 0.11124903E+00 0.66056041E+03</pdfrwt>
<totfact> 0.21514849E+01</totfact>
</mgrwt>
</event>
<event>
 4    2  0.6387803E-007  0.7050120E+03  0.7818608E-02  0.9977012E-01
          2   -1    0    0  501    0  0.00000000000E+00  0.00000000000E+00  0.32854679747E+03  0.32854679748E+03  0.25500000000E-02 0. -1.
         -2   -1    0    0    0  501 -0.00000000000E+00 -0.00000000000E+00 -0.20202731888E+04  0.20202731888E+04  0.25500000000E-02 0.  1.
    8880023    1    1    2    0    0 -0.12347949840E+03  0.21905361869E+03 -0.18742751694E+04  0.20024857781E+04  0.65864270000E+03 0.  0.
    8880022    1    1    2    0    0  0.12347949840E+03 -0.21905361869E+03  0.18254877809E+03  0.34633420822E+03  0.15294330000E+03 0.  1.
<mgrwt>
<rscale>  0 0.56669806E+03</rscale>
<asrwt>0</asrwt>
<pdfrwt beam="1">  1        2 0.50545662E-01 0.70501197E+03</pdfrwt>
<pdfrwt beam="2">  1       -2 0.31081125E+00 0.70501197E+03</pdfrwt>
<totfact> 0.28404798E+00</totfact>
</mgrwt>
</event>
<event>
 4    2  0.6387803E-007  0.7023432E+03  0.7818608E-02  0.9987616E-01
          2   -1    0    0  501    0  0.00000000000E+00  0.00000000000E+00  0.60835739675E+03  0.60835739675E+03  0.25500000000E-02 0. -1.
         -2   -1    0    0    0  501 -0.00000000000E+00 -0.00000000000E+00 -0.14777410897E+04  0.14777410897E+04  0.25500000000E-02 0.  1.
    8880023    1    1    2    0    0 -0.21048875679E+03 -0.12316782215E+03 -0.13523463750E+04  0.15238526022E+04  0.65864270000E+03 0.  1.
    8880022    1    1    2    0    0  0.21048875679E+03  0.12316782215E+03  0.48296268200E+03  0.56224588426E+03  0.15294330000E+03 0.  0.
<mgrwt>
<rscale>  0 0.56196605E+03</rscale>
<asrwt>0</asrwt>
<pdfrwt beam="1">  1        2 0.93593447E-01 0.70234325E+03</pdfrwt>
<pdfrwt beam="2">  1       -2 0.22734478E+00 0.70234325E+03</pdfrwt>
<totfact> 0.44706171E+00</totfact>
</mgrwt>
</event>
<event>
 4    2  0.6387803E-007  0.6627250E+03  0.7818608E-02  0.1021523E+00
          2   -1    0    0  501    0  0.00000000000E+00  0.00000000000E+00  0.13965483375E+04  0.13965483375E+04  0.25500000000E-02 0. -1.
         -2   -1    0    0    0  501 -0.00000000000E+00 -0.00000000000E+00 -0.29613542395E+03  0.29613542396E+03  0.25500000000E-02 0.  1.
    8880023    1    1    2    0    0 -0.20330069764E+02 -0.70575248040E+02  0.90802447339E+02  0.66891663762E+03  0.65864270000E+03 0.  1.
    8880022    1    1    2    0    0  0.20330069764E+02  0.70575248040E+02  0.10096104662E+04  0.10237671238E+04  0.15294330000E+03 0.  0.
<mgrwt>
<rscale>  0 0.47140843E+03</rscale>
<asrwt>0</asrwt>
<pdfrwt beam="1">  1        2 0.21485359E+00 0.66272497E+03</pdfrwt>
<pdfrwt beam="2">  1       -2 0.45559296E-01 0.66272497E+03</pdfrwt>
<totfact> 0.68277804E+01</totfact>
</mgrwt>
</event>
<event>
 4    2  0.6387803E-007  0.6830822E+03  0.7818608E-02  0.1007631E+00
          2   -1    0    0  501    0  0.00000000000E+00  0.00000000000E+00  0.31156758650E+04  0.31156758650E+04  0.25500000000E-02 0. -1.
         -2   -1    0    0    0  501 -0.00000000000E+00 -0.00000000000E+00 -0.21239859934E+03  0.21239859935E+03  0.25500000000E-02 0.  1.
    8880023    1    1    2    0    0  0.42349683589E+02 -0.17606131834E+03  0.35692096988E+03  0.77070997692E+03  0.65864270000E+03 0.  0.
    8880022    1    1    2    0    0 -0.42349683589E+02  0.17606131834E+03  0.25463562958E+04  0.25573644874E+04  0.15294330000E+03 0. -1.
<mgrwt>
<rscale>  0 0.52427010E+03</rscale>
<asrwt>0</asrwt>
<pdfrwt beam="1">  1        2 0.47933472E+00 0.68308220E+03</pdfrwt>
<pdfrwt beam="2">  1       -2 0.32676710E-01 0.68308220E+03</pdfrwt>
<totfact> 0.13842153E+01</totfact>
</mgrwt>
</event>
<event>
 4    2  0.6387803E-007  0.1061915E+04  0.7818608E-02  0.9304693E-01
         -2   -1    0    0    0  501 -0.00000000000E+00  0.00000000000E+00  0.58208754620E+03  0.58208754620E+03  0.25500000000E-02 0.  1.
          2   -1    0    0  501    0  0.00000000000E+00 -0.00000000000E+00 -0.24466788486E+04  0.24466788486E+04  0.25500000000E-02 0. -1.
    8880023    1    1    2    0    0 -0.81704748577E+03 -0.16213420294E+03 -0.19049085162E+04  0.21809036556E+04  0.65864270000E+03 0. -1.
    8880022    1    1    2    0    0  0.81704748577E+03  0.16213420294E+03  0.40317213773E+02  0.84786273919E+03  0.15294330000E+03 0.  0.
<mgrwt>
<rscale>  0 0.10035198E+04</rscale>
<asrwt>0</asrwt>
<pdfrwt beam="1">  1        2 0.37641213E+00 0.10619154E+04</pdfrwt>
<pdfrwt beam="2">  1       -2 0.89551931E-01 0.10619154E+04</pdfrwt>
<totfact> 0.39967432E+00</totfact>
</mgrwt>
</event>
<event>
 4    2  0.6387803E-007  0.8277971E+03  0.7818608E-02  0.9653634E-01
          2   -1    0    0  501    0  0.00000000000E+00  0.00000000000E+00  0.12882060244E+04  0.12882060244E+04  0.25500000000E-02 0. -1.
         -2   -1    0    0    0  501 -0.00000000000E+00 -0.00000000000E+00 -0.91697210799E+03  0.91697210799E+03  0.25500000000E-02 0.  1.
    8880023    1    1    2    0    0 -0.49046079435E+03 -0.10433642855E+03 -0.65314889527E+03  0.10544437239E+04  0.65864270000E+03 0.  1.
    8880022    1    1    2    0    0  0.49046079435E+03  0.10433642855E+03  0.10243828116E+04  0.11507344085E+04  0.15294330000E+03 0.  0.
<mgrwt>
<rscale>  0 0.73845811E+03</rscale>
<asrwt>0</asrwt>
<pdfrwt beam="1">  1        2 0.19818554E+00 0.82779713E+03</pdfrwt>
<pdfrwt beam="2">  1       -2 0.14107263E+00 0.82779713E+03</pdfrwt>
<totfact> 0.59825236E+00</totfact>
</mgrwt>
</event>
<event>
 4    2  0.6387803E-007  0.1154356E+04  0.7818608E-02  0.9202821E-01
          2   -1    0    0  501    0  0.00000000000E+00  0.00000000000E+00  0.18565372319E+04  0.18565372319E+04  0.25500000000E-02 0. -1.
         -2   -1    0    0    0  501 -0.00000000000E+00 -0.00000000000E+00 -0.97837896736E+03  0.97837896736E+03  0.25500000000E-02 0.  1.
    8880023    1    1    2    0    0 -0.64558996514E+03 -0.69421956426E+03 -0.41282621071E+03  0.12259538707E+04  0.65864270000E+03 0.  0.
    8880022    1    1    2    0    0  0.64558996514E+03  0.69421956426E+03  0.12909844752E+04  0.16089623286E+04  0.15294330000E+03 0.  0.
<mgrwt>
<rscale>  0 0.11024354E+04</rscale>
<asrwt>0</asrwt>
<pdfrwt beam="1">  1        2 0.28562111E+00 0.11543558E+04</pdfrwt>
<pdfrwt beam="2">  1       -2 0.15051984E+00 0.11543558E+04</pdfrwt>
<totfact> 0.23295162E+00</totfact>
</mgrwt>
</event>
<event>
 4    2  0.6387803E-007  0.8346970E+03  0.7818608E-02  0.9640262E-01
          2   -1    0    0  501    0  0.00000000000E+00  0.00000000000E+00  0.14855285673E+04  0.14855285673E+04  0.25500000000E-02 0. -1.
         -2   -1    0    0    0  501 -0.00000000000E+00 -0.00000000000E+00 -0.63113172298E+03  0.63113172298E+03  0.25500000000E-02 0.  1.
    8880023    1    1    2    0    0 -0.47468669927E+03  0.19385945446E+03 -0.26516715370E+03  0.87580407410E+03  0.65864270000E+03 0.  1.
    8880022    1    1    2    0    0  0.47468669927E+03 -0.19385945446E+03  0.11195639980E+04  0.12408562162E+04  0.15294330000E+03 0.  0.
<mgrwt>
<rscale>  0 0.74687761E+03</rscale>
<asrwt>0</asrwt>
<pdfrwt beam="1">  1        2 0.22854286E+00 0.83469704E+03</pdfrwt>
<pdfrwt beam="2">  1       -2 0.97097188E-01 0.83469704E+03</pdfrwt>
<totfact> 0.11608329E+01</totfact>
</mgrwt>
</event>
<event>
 4    2  0.6387803E-007  0.6685286E+03  0.7818608E-02  0.1016740E+00
          2   -1    0    0  501    0  0.00000000000E+00  0.00000000000E+00  0.31722975073E+04  0.31722975073E+04  0.25500000000E-02 0. -1.
         -2   -1    0    0    0  501 -0.00000000000E+00 -0.00000000000E+00 -0.56489613200E+03  0.56489613201E+03  0.25500000000E-02 0.  1.
    8880023    1    1    2    0    0 -0.11402698064E+03 -0.10870117044E+02 -0.36295228841E+03  0.76070025745E+03  0.65864270000E+03 0.  1.
    8880022    1    1    2    0    0  0.11402698064E+03  0.10870117044E+02  0.29703536637E+04  0.29764933818E+04  0.15294330000E+03 0.  0.
<mgrwt>
<rscale>  0 0.48881487E+03</rscale>
<asrwt>0</asrwt>
<pdfrwt beam="1">  1        2 0.48804578E+00 0.66852862E+03</pdfrwt>
<pdfrwt beam="2">  1       -2 0.86907095E-01 0.66852862E+03</pdfrwt>
<totfact> 0.16951507E+00</totfact>
</mgrwt>
</event>
<event>
 4    2  0.6387803E-007  0.8808742E+03  0.7818608E-02  0.9557460E-01
          2   -1    0    0  501    0  0.00000000000E+00  0.00000000000E+00  0.12006734534E+04  0.12006734534E+04  0.25500000000E-02 0. -1.
         -2   -1    0    0    0  501 -0.00000000000E+00 -0.00000000000E+00 -0.46074615143E+03  0.46074615144E+03  0.25500000000E-02 0.  1.
    8880023    1    1    2    0    0  0.12542630599E+03 -0.57131196355E+03  0.39523889972E+03  0.96548076731E+03  0.65864270000E+03 0.  1.
    8880022    1    1    2    0    0 -0.12542630599E+03  0.57131196355E+03  0.34468840226E+03  0.69593883754E+03  0.15294330000E+03 0. -1.
<mgrwt>
<rscale>  0 0.80176929E+03</rscale>
<asrwt>0</asrwt>
<pdfrwt beam="1">  1        2 0.18471899E+00 0.88087418E+03</pdfrwt>
<pdfrwt beam="2">  1       -2 0.70884023E-01 0.88087418E+03</pdfrwt>
<totfact> 0.34432566E+01</totfact>
</mgrwt>
</event>
<event>
 4    2  0.6387803E-007  0.8460094E+03  0.7818608E-02  0.9618952E-01
         -2   -1    0    0    0  501 -0.00000000000E+00  0.00000000000E+00  0.25843644374E+03  0.25843644375E+03  0.25500000000E-02 0.  1.
          2   -1    0    0  501    0  0.00000000000E+00 -0.00000000000E+00 -0.23023737496E+04  0.23023737496E+04  0.25500000000E-02 0. -1.
    8880023    1    1    2    0    0 -0.44445032511E+03 -0.29049186379E+03 -0.66757834624E+03  0.10776792979E+04  0.65864270000E+03 0.  0.
    8880022    1    1    2    0    0  0.44445032511E+03  0.29049186379E+03 -0.13763589597E+04  0.14831308955E+04  0.15294330000E+03 0.  0.
<mgrwt>
<rscale>  0 0.76054442E+03</rscale>
<asrwt>0</asrwt>
<pdfrwt beam="1">  1        2 0.35421133E+00 0.84600935E+03</pdfrwt>
<pdfrwt beam="2">  1       -2 0.39759454E-01 0.84600935E+03</pdfrwt>
<totfact> 0.27756400E+01</totfact>
</mgrwt>
</event>
<event>
 4    2  0.6387803E-007  0.6749273E+03  0.7818608E-02  0.1012352E+00
         -2   -1    0    0    0  501 -0.00000000000E+00  0.00000000000E+00  0.24709918353E+03  0.24709918354E+03  0.25500000000E-02 0.  1.
          2   -1    0    0  501    0  0.00000000000E+00 -0.00000000000E+00 -0.10736342334E+04  0.10736342334E+04  0.25500000000E-02 0. -1.
    8880023    1    1    2    0    0 -0.10922932126E+03 -0.98922555730E+02 -0.87284903636E+03  0.11033550486E+04  0.65864270000E+03 0. -1.
    8880022    1    1    2    0    0  0.10922932126E+03  0.98922555730E+02  0.46313986533E+02  0.21737836833E+03  0.15294330000E+03 0.  0.
<mgrwt>
<rscale>  0 0.50550437E+03</rscale>
<asrwt>0</asrwt>
<pdfrwt beam="1">  1        2 0.16517450E+00 0.67492735E+03</pdfrwt>
<pdfrwt beam="2">  1       -2 0.38015259E-01 0.67492735E+03</pdfrwt>
<totfact> 0.15035809E+02</totfact>
</mgrwt>
</event>
<event>
 4    2  0.6387803E-007  0.9573096E+03  0.7818608E-02  0.9439674E-01
          2   -1    0    0  501    0  0.00000000000E+00  0.00000000000E+00  0.24359716199E+04  0.24359716199E+04  0.25500000000E-02 0. -1.
         -2   -1    0    0    0  501 -0.00000000000E+00 -0.00000000000E+00 -0.34608298387E+03  0.34608298388E+03  0.25500000000E-02 0.  1.
    8880023    1    1    2    0    0  0.55948678978E+03  0.41183246710E+03  0.59661746793E+03  0.11280044584E+04  0.65864270000E+03 0.  0.
    8880022    1    1    2    0    0 -0.55948678978E+03 -0.41183246710E+03  0.14932711681E+04  0.16540501453E+04  0.15294330000E+03 0.  0.
<mgrwt>
<rscale>  0 0.88881342E+03</rscale>
<asrwt>0</asrwt>
<pdfrwt beam="1">  1        2 0.37476487E+00 0.95730959E+03</pdfrwt>
<pdfrwt beam="2">  1       -2 0.53243536E-01 0.95730959E+03</pdfrwt>
<totfact> 0.12809203E+01</totfact>
</mgrwt>
</event>
<event>
 4    2  0.6387803E-007  0.6643629E+03  0.7818608E-02  0.1020074E+00
         -2   -1    0    0    0  501 -0.00000000000E+00  0.00000000000E+00  0.26641786652E+03  0.26641786653E+03  0.25500000000E-02 0.  1.
          2   -1    0    0  501    0  0.00000000000E+00 -0.00000000000E+00 -0.73767605785E+03  0.73767605786E+03  0.25500000000E-02 0. -1.
    8880023    1    1    2    0    0  0.53861002179E+02  0.68314097737E+02 -0.22498888637E+03  0.70142571150E+03  0.65864270000E+03 0.  1.
    8880022    1    1    2    0    0 -0.53861002179E+02 -0.68314097737E+02 -0.24626930497E+03  0.30266821288E+03  0.15294330000E+03 0.  0.
<mgrwt>
<rscale>  0 0.47659910E+03</rscale>
<asrwt>0</asrwt>
<pdfrwt beam="1">  1        2 0.11348862E+00 0.66436288E+03</pdfrwt>
<pdfrwt beam="2">  1       -2 0.40987364E-01 0.66436288E+03</pdfrwt>
<totfact> 0.21889195E+02</totfact>
</mgrwt>
</event>
<event>
 4    2  0.6387803E-007  0.7017130E+03  0.7818608E-02  0.9990168E-01
         -2   -1    0    0    0  501 -0.00000000000E+00  0.00000000000E+00  0.29342406090E+03  0.29342406091E+03  0.25500000000E-02 0.  1.
          2   -1    0    0  501    0  0.00000000000E+00 -0.00000000000E+00 -0.28977433143E+04  0.28977433143E+04  0.25500000000E-02 0. -1.
    8880023    1    1    2    0    0  0.26766094629E+02 -0.24057131414E+03 -0.14664741325E+03  0.71687282769E+03  0.65864270000E+03 0.  1.
    8880022    1    1    2    0    0 -0.26766094629E+02  0.24057131414E+03 -0.24576718401E+04  0.24742945475E+04  0.15294330000E+03 0.  0.
<mgrwt>
<rscale>  0 0.56083472E+03</rscale>
<asrwt>0</asrwt>
<pdfrwt beam="1">  1        2 0.44580664E+00 0.70171304E+03</pdfrwt>
<pdfrwt beam="2">  1       -2 0.45142165E-01 0.70171304E+03</pdfrwt>
<totfact> 0.10031849E+01</totfact>
</mgrwt>
</event>
<event>
 4    2  0.6387803E-007  0.1086686E+04  0.7818608E-02  0.9276026E-01
         -2   -1    0    0    0  501 -0.00000000000E+00  0.00000000000E+00  0.60791648422E+03  0.60791648423E+03  0.25500000000E-02 0.  1.
          2   -1    0    0  501    0  0.00000000000E+00 -0.00000000000E+00 -0.26228370452E+04  0.26228370452E+04  0.25500000000E-02 0. -1.
    8880023    1    1    2    0    0  0.77372926263E+03  0.38525187917E+03 -0.60612968022E+02  0.10883749907E+04  0.65864270000E+03 0.  1.
    8880022    1    1    2    0    0 -0.77372926263E+03 -0.38525187917E+03 -0.19543075930E+04  0.21423785387E+04  0.15294330000E+03 0.  0.
<mgrwt>
<rscale>  0 0.10302018E+04</rscale>
<asrwt>0</asrwt>
<pdfrwt beam="1">  1        2 0.40351338E+00 0.10866859E+04</pdfrwt>
<pdfrwt beam="2">  1       -2 0.93525615E-01 0.10866859E+04</pdfrwt>
<totfact> 0.28512787E+00</totfact>
</mgrwt>
</event>
<event>
 4    2  0.6387803E-007  0.6597405E+03  0.7818608E-02  0.1024424E+00
          2   -1    0    0  501    0  0.00000000000E+00  0.00000000000E+00  0.95308726355E+03  0.95308726356E+03  0.25500000000E-02 0. -1.
         -2   -1    0    0    0  501 -0.00000000000E+00 -0.00000000000E+00 -0.98211666171E+03  0.98211666171E+03  0.25500000000E-02 0.  1.
    8880023    1    1    2    0    0 -0.30999925572E+01 -0.37917714248E+02 -0.86310222571E+03  0.10863714932E+04  0.65864270000E+03 0.  1.
    8880022    1    1    2    0    0  0.30999925572E+01  0.37917714248E+02  0.83407282756E+03  0.84883243204E+03  0.15294330000E+03 0.  0.
<mgrwt>
<rscale>  0 0.46123438E+03</rscale>
<asrwt>0</asrwt>
<pdfrwt beam="1">  1        2 0.14662881E+00 0.65974053E+03</pdfrwt>
<pdfrwt beam="2">  1       -2 0.15109487E+00 0.65974053E+03</pdfrwt>
<totfact> 0.81807090E+00</totfact>
</mgrwt>
</event>
<event>
 4    2  0.6387803E-007  0.1236378E+04  0.7818608E-02  0.9122547E-01
          2   -1    0    0  501    0  0.00000000000E+00  0.00000000000E+00  0.13799619896E+04  0.13799619896E+04  0.25500000000E-02 0. -1.
         -2   -1    0    0    0  501 -0.00000000000E+00 -0.00000000000E+00 -0.12245210914E+04  0.12245210914E+04  0.25500000000E-02 0.  1.
    8880023    1    1    2    0    0  0.91129449969E+03 -0.51416175887E+03 -0.52906158402E+03  0.13448183317E+04  0.65864270000E+03 0.  0.
    8880022    1    1    2    0    0 -0.91129449969E+03  0.51416175887E+03  0.68450248220E+03  0.12596647493E+04  0.15294330000E+03 0.  0.
<mgrwt>
<rscale>  0 0.11889919E+04</rscale>
<asrwt>0</asrwt>
<pdfrwt beam="1">  1        2 0.21230184E+00 0.12363778E+04</pdfrwt>
<pdfrwt beam="2">  1       -2 0.18838786E+00 0.12363778E+04</pdfrwt>
<totfact> 0.22831992E+00</totfact>
</mgrwt>
</event>
<event>
 4    2  0.6387803E-007  0.6830258E+03  0.7818608E-02  0.1007661E+00
          2   -1    0    0  501    0  0.00000000000E+00  0.00000000000E+00  0.25160426088E+04  0.25160426088E+04  0.25500000000E-02 0. -1.
         -2   -1    0    0    0  501 -0.00000000000E+00 -0.00000000000E+00 -0.29322694966E+03  0.29322694967E+03  0.25500000000E-02 0.  1.
    8880023    1    1    2    0    0  0.16311785898E+03 -0.78144747008E+02  0.12040429149E+03  0.69355708999E+03  0.65864270000E+03 0.  1.
    8880022    1    1    2    0    0 -0.16311785898E+03  0.78144747008E+02  0.21024113676E+04  0.21157124685E+04  0.15294330000E+03 0.  0.
<mgrwt>
<rscale>  0 0.52414771E+03</rscale>
<asrwt>0</asrwt>
<pdfrwt beam="1">  1        2 0.38708349E+00 0.68302580E+03</pdfrwt>
<pdfrwt beam="2">  1       -2 0.45111837E-01 0.68302580E+03</pdfrwt>
<totfact> 0.16809416E+01</totfact>
</mgrwt>
</event>
<event>
 4    2  0.6387803E-007  0.7320050E+03  0.7818608E-02  0.9883879E-01
         -2   -1    0    0    0  501 -0.00000000000E+00  0.00000000000E+00  0.49212768595E+03  0.49212768596E+03  0.25500000000E-02 0.  1.
          2   -1    0    0  501    0  0.00000000000E+00 -0.00000000000E+00 -0.61353617768E+03  0.61353617768E+03  0.25500000000E-02 0. -1.
    8880023    1    1    2    0    0  0.25755106370E+03  0.18891414763E+03 -0.22209332234E+01  0.73200836361E+03  0.65864270000E+03 0.  1.
    8880022    1    1    2    0    0 -0.25755106370E+03 -0.18891414763E+03 -0.11918755851E+03  0.37365550003E+03  0.15294330000E+03 0.  1.
<mgrwt>
<rscale>  0 0.61048957E+03</rscale>
<asrwt>0</asrwt>
<pdfrwt beam="1">  1        2 0.94390181E-01 0.73200499E+03</pdfrwt>
<pdfrwt beam="2">  1       -2 0.75711952E-01 0.73200499E+03</pdfrwt>
<totfact> 0.76462931E+01</totfact>
</mgrwt>
</event>
<event>
 4    2  0.6387803E-007  0.7468608E+03  0.7818608E-02  0.9840395E-01
          2   -1    0    0  501    0  0.00000000000E+00  0.00000000000E+00  0.13728831290E+04  0.13728831290E+04  0.25500000000E-02 0. -1.
         -2   -1    0    0    0  501 -0.00000000000E+00 -0.00000000000E+00 -0.68817648058E+03  0.68817648059E+03  0.25500000000E-02 0.  1.
    8880023    1    1    2    0    0  0.33559339117E+03  0.10662019515E+03 -0.44398627374E+03  0.86886409049E+03  0.65864270000E+03 0.  0.
    8880022    1    1    2    0    0 -0.33559339117E+03 -0.10662019515E+03  0.11286929221E+04  0.11921955191E+04  0.15294330000E+03 0.  0.
<mgrwt>
<rscale>  0 0.63239067E+03</rscale>
<asrwt>0</asrwt>
<pdfrwt beam="1">  1        2 0.21121279E+00 0.74686076E+03</pdfrwt>
<pdfrwt beam="2">  1       -2 0.10587331E+00 0.74686076E+03</pdfrwt>
<totfact> 0.11054288E+01</totfact>
</mgrwt>
</event>
<event>
 4    2  0.6387803E-007  0.7379253E+03  0.7818608E-02  0.9866032E-01
          2   -1    0    0  501    0  0.00000000000E+00  0.00000000000E+00  0.18242558955E+04  0.18242558955E+04  0.25500000000E-02 0. -1.
         -2   -1    0    0    0  501 -0.00000000000E+00 -0.00000000000E+00 -0.57052226917E+03  0.57052226917E+03  0.25500000000E-02 0.  1.
    8880023    1    1    2    0    0 -0.32982041671E+03  0.44069325332E+02 -0.30140113149E+03  0.79710505019E+03  0.65864270000E+03 0.  0.
    8880022    1    1    2    0    0  0.32982041671E+03 -0.44069325332E+02  0.15551347578E+04  0.15976731145E+04  0.15294330000E+03 0.  0.
<mgrwt>
<rscale>  0 0.61936135E+03</rscale>
<asrwt>0</asrwt>
<pdfrwt beam="1">  1        2 0.28065475E+00 0.73792535E+03</pdfrwt>
<pdfrwt beam="2">  1       -2 0.87772657E-01 0.73792535E+03</pdfrwt>
<totfact> 0.96764664E+00</totfact>
</mgrwt>
</event>
<event>
 4    2  0.6387803E-007  0.7147792E+03  0.7818608E-02  0.9940664E-01
          2   -1    0    0  501    0  0.00000000000E+00  0.00000000000E+00  0.13096088094E+04  0.13096088094E+04  0.25500000000E-02 0. -1.
         -2   -1    0    0    0  501 -0.00000000000E+00 -0.00000000000E+00 -0.61045427964E+03  0.61045427965E+03  0.25500000000E-02 0.  1.
    8880023    1    1    2    0    0 -0.12551550469E+03 -0.24767925127E+03 -0.37002598849E+03  0.80487799811E+03  0.65864270000E+03 0.  0.
    8880022    1    1    2    0    0  0.12551550469E+03  0.24767925127E+03  0.10691805182E+04  0.11151850909E+04  0.15294330000E+03 0.  0.
<mgrwt>
<rscale>  0 0.58330371E+03</rscale>
<asrwt>0</asrwt>
<pdfrwt beam="1">  1        2 0.20147827E+00 0.71477924E+03</pdfrwt>
<pdfrwt beam="2">  1       -2 0.93916045E-01 0.71477924E+03</pdfrwt>
<totfact> 0.16019863E+01</totfact>
</mgrwt>
</event>
<event>
 4    2  0.6387803E-007  0.1075466E+04  0.7818608E-02  0.9288877E-01
          2   -1    0    0  501    0  0.00000000000E+00  0.00000000000E+00  0.13582501778E+04  0.13582501778E+04  0.25500000000E-02 0. -1.
         -2   -1    0    0    0  501 -0.00000000000E+00 -0.00000000000E+00 -0.10664928366E+04  0.10664928366E+04  0.25500000000E-02 0.  1.
    8880023    1    1    2    0    0 -0.42082250551E+03  0.73873172671E+03 -0.55920788683E+03  0.12121632778E+04  0.65864270000E+03 0.  1.
    8880022    1    1    2    0    0  0.42082250551E+03 -0.73873172671E+03  0.85096522803E+03  0.12125797366E+04  0.15294330000E+03 0. -1.
<mgrwt>
<rscale>  0 0.10181339E+04</rscale>
<asrwt>0</asrwt>
<pdfrwt beam="1">  1        2 0.20896157E+00 0.10754656E+04</pdfrwt>
<pdfrwt beam="2">  1       -2 0.16407582E+00 0.10754656E+04</pdfrwt>
<totfact> 0.35366705E+00</totfact>
</mgrwt>
</event>
<event>
 4    2  0.6387803E-007  0.7728642E+03  0.7818608E-02  0.9772874E-01
         -2   -1    0    0    0  501 -0.00000000000E+00  0.00000000000E+00  0.32459988250E+03  0.32459988251E+03  0.25500000000E-02 0.  1.
          2   -1    0    0  501    0  0.00000000000E+00 -0.00000000000E+00 -0.14247829910E+04  0.14247829910E+04  0.25500000000E-02 0. -1.
    8880023    1    1    2    0    0  0.39740057163E+03  0.74710269471E+02 -0.27960505730E+03  0.82188687362E+03  0.65864270000E+03 0.  0.
    8880022    1    1    2    0    0 -0.39740057163E+03 -0.74710269471E+02 -0.82057805123E+03  0.92749599992E+03  0.15294330000E+03 0.  0.
<mgrwt>
<rscale>  0 0.66838807E+03</rscale>
<asrwt>0</asrwt>
<pdfrwt beam="1">  1        2 0.21919738E+00 0.77286418E+03</pdfrwt>
<pdfrwt beam="2">  1       -2 0.49938444E-01 0.77286418E+03</pdfrwt>
<totfact> 0.54094293E+01</totfact>
</mgrwt>
</event>
<event>
 4    2  0.6387803E-007  0.6848056E+03  0.7818608E-02  0.1006726E+00
          2   -1    0    0  501    0  0.00000000000E+00  0.00000000000E+00  0.10982530219E+04  0.10982530219E+04  0.25500000000E-02 0. -1.
         -2   -1    0    0    0  501 -0.00000000000E+00 -0.00000000000E+00 -0.37357891313E+03  0.37357891314E+03  0.25500000000E-02 0.  1.
    8880023    1    1    2    0    0 -0.17634619744E+03 -0.63643291599E+02 -0.23804056601E+02  0.68521915421E+03  0.65864270000E+03 0.  1.
    8880022    1    1    2    0    0  0.17634619744E+03  0.63643291599E+02  0.74847816538E+03  0.78661278084E+03  0.15294330000E+03 0.  0.
<mgrwt>
<rscale>  0 0.52796744E+03</rscale>
<asrwt>0</asrwt>
<pdfrwt beam="1">  1        2 0.16896200E+00 0.68480556E+03</pdfrwt>
<pdfrwt beam="2">  1       -2 0.57473679E-01 0.68480556E+03</pdfrwt>
<totfact> 0.63292898E+01</totfact>
</mgrwt>
</event>
<event>
 4    2  0.6387803E-007  0.9052736E+03  0.7818608E-02  0.9517618E-01
          2   -1    0    0  501    0  0.00000000000E+00  0.00000000000E+00  0.13859689060E+04  0.13859689060E+04  0.25500000000E-02 0. -1.
         -2   -1    0    0    0  501 -0.00000000000E+00 -0.00000000000E+00 -0.52253734396E+03  0.52253734397E+03  0.25500000000E-02 0.  1.
    8880023    1    1    2    0    0  0.56173370269E+03  0.26488733148E+03  0.97313582747E+02  0.91048898443E+03  0.65864270000E+03 0.  0.
    8880022    1    1    2    0    0 -0.56173370269E+03 -0.26488733148E+03  0.76611797928E+03  0.99801726553E+03  0.15294330000E+03 0.  0.
<mgrwt>
<rscale>  0 0.82997268E+03</rscale>
<asrwt>0</asrwt>
<pdfrwt beam="1">  1        2 0.21322598E+00 0.90527358E+03</pdfrwt>
<pdfrwt beam="2">  1       -2 0.80390363E-01 0.90527358E+03</pdfrwt>
<totfact> 0.20258667E+01</totfact>
</mgrwt>
</event>
<event>
 4    2  0.6387803E-007  0.7402802E+03  0.7818608E-02  0.9859132E-01
         -2   -1    0    0    0  501 -0.00000000000E+00  0.00000000000E+00  0.11127613395E+03  0.11127613398E+03  0.25500000000E-02 0.  1.
          2   -1    0    0  501    0  0.00000000000E+00 -0.00000000000E+00 -0.34710314725E+04  0.34710314725E+04  0.25500000000E-02 0. -1.
    8880023    1    1    2    0    0 -0.33721524835E+03 -0.22146230191E+02 -0.13598415391E+04  0.15482841461E+04  0.65864270000E+03 0. -1.
    8880022    1    1    2    0    0  0.33721524835E+03  0.22146230191E+02 -0.19999137995E+04  0.20340234604E+04  0.15294330000E+03 0.  0.
<mgrwt>
<rscale>  0 0.62283487E+03</rscale>
<asrwt>0</asrwt>
<pdfrwt beam="1">  1        2 0.53400476E+00 0.74028021E+03</pdfrwt>
<pdfrwt beam="2">  1       -2 0.17119408E-01 0.74028021E+03</pdfrwt>
<totfact> 0.25642479E+01</totfact>
</mgrwt>
</event>
<event>
 4    2  0.6387803E-007  0.8865844E+03  0.7818608E-02  0.9547920E-01
         -2   -1    0    0    0  501 -0.00000000000E+00  0.00000000000E+00  0.30354079343E+03  0.30354079344E+03  0.25500000000E-02 0.  1.
          2   -1    0    0  501    0  0.00000000000E+00 -0.00000000000E+00 -0.21853319495E+04  0.21853319495E+04  0.25500000000E-02 0. -1.
    8880023    1    1    2    0    0  0.17065367796E+03 -0.56841797045E+03 -0.60717265257E+03  0.10745652624E+04  0.65864270000E+03 0.  1.
    8880022    1    1    2    0    0 -0.17065367796E+03  0.56841797045E+03 -0.12746185035E+04  0.14143074805E+04  0.15294330000E+03 0.  0.
<mgrwt>
<rscale>  0 0.80841187E+03</rscale>
<asrwt>0</asrwt>
<pdfrwt beam="1">  1        2 0.33620491E+00 0.88658439E+03</pdfrwt>
<pdfrwt beam="2">  1       -2 0.46698585E-01 0.88658439E+03</pdfrwt>
<totfact> 0.23322690E+01</totfact>
</mgrwt>
</event>
<event>
 4    2  0.6387803E-007  0.6954767E+03  0.7818608E-02  0.1001651E+00
         -2   -1    0    0    0  501 -0.00000000000E+00  0.00000000000E+00  0.28089674406E+03  0.28089674407E+03  0.25500000000E-02 0.  1.
          2   -1    0    0  501    0  0.00000000000E+00 -0.00000000000E+00 -0.12997201091E+04  0.12997201091E+04  0.25500000000E-02 0. -1.
    8880023    1    1    2    0    0  0.15044328385E+03 -0.16505893744E+03 -0.20816586680E+03  0.72596202990E+03  0.65864270000E+03 0.  1.
    8880022    1    1    2    0    0 -0.15044328385E+03  0.16505893744E+03 -0.81065749826E+03  0.85465482329E+03  0.15294330000E+03 0.  0.
<mgrwt>
<rscale>  0 0.54932224E+03</rscale>
<asrwt>0</asrwt>
<pdfrwt beam="1">  1        2 0.19995694E+00 0.69547670E+03</pdfrwt>
<pdfrwt beam="2">  1       -2 0.43214884E-01 0.69547670E+03</pdfrwt>
<totfact> 0.85801465E+01</totfact>
</mgrwt>
</event>
<event>
 4    2  0.6387803E-007  0.8604702E+03  0.7818608E-02  0.9592728E-01
          2   -1    0    0  501    0  0.00000000000E+00  0.00000000000E+00  0.22180406235E+04  0.22180406235E+04  0.25500000000E-02 0. -1.
         -2   -1    0    0    0  501 -0.00000000000E+00 -0.00000000000E+00 -0.14111121506E+04  0.14111121506E+04  0.25500000000E-02 0.  1.
    8880023    1    1    2    0    0 -0.15499678185E+03 -0.53157768473E+03 -0.12365459008E+04  0.15064709782E+04  0.65864270000E+03 0.  1.
    8880022    1    1    2    0    0  0.15499678185E+03  0.53157768473E+03  0.20434743737E+04  0.21226817958E+04  0.15294330000E+03 0.  0.
<mgrwt>
<rscale>  0 0.77779397E+03</rscale>
<asrwt>0</asrwt>
<pdfrwt beam="1">  1        2 0.34123702E+00 0.86047025E+03</pdfrwt>
<pdfrwt beam="2">  1       -2 0.21709418E+00 0.86047025E+03</pdfrwt>
<totfact> 0.53506402E-01</totfact>
</mgrwt>
</event>
<event>
 4    2  0.6387803E-007  0.8306962E+03  0.7818608E-02  0.9647979E-01
          2   -1    0    0  501    0  0.00000000000E+00  0.00000000000E+00  0.84556185074E+03  0.84556185074E+03  0.25500000000E-02 0. -1.
         -2   -1    0    0    0  501 -0.00000000000E+00 -0.00000000000E+00 -0.12899725450E+04  0.12899725450E+04  0.25500000000E-02 0.  1.
    8880023    1    1    2    0    0 -0.47876163822E+03  0.16441800643E+03 -0.10452429602E+04  0.13351363373E+04  0.65864270000E+03 0.  1.
    8880022    1    1    2    0    0  0.47876163822E+03 -0.16441800643E+03  0.60083226598E+03  0.80039805842E+03  0.15294330000E+03 0.  0.
<mgrwt>
<rscale>  0 0.74200379E+03</rscale>
<asrwt>0</asrwt>
<pdfrwt beam="1">  1        2 0.13008644E+00 0.83069621E+03</pdfrwt>
<pdfrwt beam="2">  1       -2 0.19845732E+00 0.83069621E+03</pdfrwt>
<totfact> 0.44021659E+00</totfact>
</mgrwt>
</event>
<event>
 4    2  0.6387803E-007  0.9330073E+03  0.7818608E-02  0.9474996E-01
          2   -1    0    0  501    0  0.00000000000E+00  0.00000000000E+00  0.72747228311E+03  0.72747228311E+03  0.25500000000E-02 0. -1.
         -2   -1    0    0    0  501 -0.00000000000E+00 -0.00000000000E+00 -0.14524450809E+04  0.14524450809E+04  0.25500000000E-02 0.  1.
    8880023    1    1    2    0    0 -0.65163034282E+03 -0.10986511007E+03 -0.10693901224E+04  0.14191891651E+04  0.65864270000E+03 0.  0.
    8880022    1    1    2    0    0  0.65163034282E+03  0.10986511007E+03  0.34441732465E+03  0.76072819891E+03  0.15294330000E+03 0.  0.
<mgrwt>
<rscale>  0 0.86152610E+03</rscale>
<asrwt>0</asrwt>
<pdfrwt beam="1">  1        2 0.11191881E+00 0.93300732E+03</pdfrwt>
<pdfrwt beam="2">  1       -2 0.22345309E+00 0.93300732E+03</pdfrwt>
<totfact> 0.36746602E+00</totfact>
</mgrwt>
</event>
<event>
 4    2  0.6387803E-007  0.8104017E+03  0.7818608E-02  0.9688741E-01
          2   -1    0    0  501    0  0.00000000000E+00  0.00000000000E+00  0.97392183046E+03  0.97392183047E+03  0.25500000000E-02 0. -1.
         -2   -1    0    0    0  501 -0.00000000000E+00 -0.00000000000E+00 -0.47142309855E+03  0.47142309855E+03  0.25500000000E-02 0.  1.
    8880023    1    1    2    0    0  0.10568579995E+03  0.46018611993E+03  0.12108303825E+03  0.81939737716E+03  0.65864270000E+03 0.  1.
    8880022    1    1    2    0    0 -0.10568579995E+03 -0.46018611993E+03  0.38141569367E+03  0.62594755186E+03  0.15294330000E+03 0. -1.
<mgrwt>
<rscale>  0 0.71691136E+03</rscale>
<asrwt>0</asrwt>
<pdfrwt beam="1">  1        2 0.14983413E+00 0.81040173E+03</pdfrwt>
<pdfrwt beam="2">  1       -2 0.72526631E-01 0.81040173E+03</pdfrwt>
<totfact> 0.45494171E+01</totfact>
</mgrwt>
</event>
<event>
 4    2  0.6387803E-007  0.6934832E+03  0.7818608E-02  0.1002539E+00
          2   -1    0    0  501    0  0.00000000000E+00  0.00000000000E+00  0.78153800215E+03  0.78153800216E+03  0.25500000000E-02 0. -1.
         -2   -1    0    0    0  501 -0.00000000000E+00 -0.00000000000E+00 -0.33134524095E+03  0.33134524096E+03  0.25500000000E-02 0.  1.
    8880023    1    1    2    0    0 -0.17157787100E+03  0.13292794562E+03  0.14522756141E+03  0.70852667938E+03  0.65864270000E+03 0.  0.
    8880022    1    1    2    0    0  0.17157787100E+03 -0.13292794562E+03  0.30496519979E+03  0.40435656374E+03  0.15294330000E+03 0.  0.
<mgrwt>
<rscale>  0 0.54550781E+03</rscale>
<asrwt>0</asrwt>
<pdfrwt beam="1">  1        2 0.12023661E+00 0.69348324E+03</pdfrwt>
<pdfrwt beam="2">  1       -2 0.50976192E-01 0.69348324E+03</pdfrwt>
<totfact> 0.13116588E+02</totfact>
</mgrwt>
</event>
<event>
 4    2  0.6387803E-007  0.8198169E+03  0.7818608E-02  0.9669480E-01
         -2   -1    0    0    0  501 -0.00000000000E+00  0.00000000000E+00  0.14886516665E+03  0.14886516667E+03  0.25500000000E-02 0.  1.
          2   -1    0    0  501    0  0.00000000000E+00 -0.00000000000E+00 -0.34247905222E+04  0.34247905222E+04  0.25500000000E-02 0. -1.
    8880023    1    1    2    0    0  0.27525749642E+03 -0.40314118212E+03 -0.13365512591E+04  0.15679505657E+04  0.65864270000E+03 0.  1.
    8880022    1    1    2    0    0 -0.27525749642E+03  0.40314118212E+03 -0.19393740965E+04  0.20057051232E+04  0.15294330000E+03 0.  0.
<mgrwt>
<rscale>  0 0.72863360E+03</rscale>
<asrwt>0</asrwt>
<pdfrwt beam="1">  1        2 0.52689079E+00 0.81981687E+03</pdfrwt>
<pdfrwt beam="2">  1       -2 0.22902336E-01 0.81981687E+03</pdfrwt>
<totfact> 0.16339991E+01</totfact>
</mgrwt>
</event>
<event>
 4    2  0.6387803E-007  0.7067866E+03  0.7818608E-02  0.9970133E-01
          2   -1    0    0  501    0  0.00000000000E+00  0.00000000000E+00  0.72680000550E+03  0.72680000550E+03  0.25500000000E-02 0. -1.
         -2   -1    0    0    0  501 -0.00000000000E+00 -0.00000000000E+00 -0.44904115955E+03  0.44904115956E+03  0.25500000000E-02 0.  1.
    8880023    1    1    2    0    0  0.66012242891E+01 -0.25630744666E+03 -0.78383389855E+02  0.71111971246E+03  0.65864270000E+03 0.  0.
    8880022    1    1    2    0    0 -0.66012242891E+01  0.25630744666E+03  0.35614223580E+03  0.46472145260E+03  0.15294330000E+03 0.  0.
<mgrwt>
<rscale>  0 0.56979475E+03</rscale>
<asrwt>0</asrwt>
<pdfrwt beam="1">  1        2 0.11181538E+00 0.70678659E+03</pdfrwt>
<pdfrwt beam="2">  1       -2 0.69083256E-01 0.70678659E+03</pdfrwt>
<totfact> 0.75886699E+01</totfact>
</mgrwt>
</event>
<event>
 4    2  0.6387803E-007  0.8196005E+03  0.7818608E-02  0.9669916E-01
         -2   -1    0    0    0  501 -0.00000000000E+00  0.00000000000E+00  0.97706526123E+03  0.97706526123E+03  0.25500000000E-02 0.  1.
          2   -1    0    0  501    0  0.00000000000E+00 -0.00000000000E+00 -0.65189229918E+03  0.65189229919E+03  0.25500000000E-02 0. -1.
    8880023    1    1    2    0    0  0.29341997874E+03 -0.38966596927E+03  0.63001689740E+03  0.10337631976E+04  0.65864270000E+03 0.  0.
    8880022    1    1    2    0    0 -0.29341997874E+03  0.38966596927E+03 -0.30484393536E+03  0.59519436277E+03  0.15294330000E+03 0.  0.
<mgrwt>
<rscale>  0 0.72836591E+03</rscale>
<asrwt>0</asrwt>
<pdfrwt beam="1">  1        2 0.10029112E+00 0.81960055E+03</pdfrwt>
<pdfrwt beam="2">  1       -2 0.15031773E+00 0.81960055E+03</pdfrwt>
<totfact> 0.13455538E+01</totfact>
</mgrwt>
</event>
<event>
 4    2  0.6387803E-007  0.6600225E+03  0.7818608E-02  0.1024133E+00
          2   -1    0    0  501    0  0.00000000000E+00  0.00000000000E+00  0.29792807102E+03  0.29792807103E+03  0.25500000000E-02 0. -1.
         -2   -1    0    0    0  501 -0.00000000000E+00 -0.00000000000E+00 -0.84164251807E+03  0.84164251807E+03  0.25500000000E-02 0.  1.
    8880023    1    1    2    0    0  0.38100007989E+02 -0.19179177450E+02 -0.66714163125E+03  0.93846023563E+03  0.65864270000E+03 0.  1.
    8880022    1    1    2    0    0 -0.38100007989E+02  0.19179177450E+02  0.12342718420E+03  0.20111035346E+03  0.15294330000E+03 0.  0.
<mgrwt>
<rscale>  0 0.46224053E+03</rscale>
<asrwt>0</asrwt>
<pdfrwt beam="1">  1        2 0.45835088E-01 0.66002247E+03</pdfrwt>
<pdfrwt beam="2">  1       -2 0.12948346E+00 0.66002247E+03</pdfrwt>
<totfact> 0.49331241E+01</totfact>
</mgrwt>
</event>
<event>
 4    2  0.6387803E-007  0.6717579E+03  0.7818608E-02  0.1014433E+00
          2   -1    0    0  501    0  0.00000000000E+00  0.00000000000E+00  0.48471867230E+03  0.48471867231E+03  0.25500000000E-02 0. -1.
         -2   -1    0    0    0  501 -0.00000000000E+00 -0.00000000000E+00 -0.42175134667E+03  0.42175134668E+03  0.25500000000E-02 0.  1.
    8880023    1    1    2    0    0  0.12330348731E+03  0.47379086037E+02 -0.52348320438E+02  0.67379453893E+03  0.65864270000E+03 0.  0.
    8880022    1    1    2    0    0 -0.12330348731E+03 -0.47379086037E+02  0.11531564607E+03  0.23267548006E+03  0.15294330000E+03 0.  0.
<mgrwt>
<rscale>  0 0.49750284E+03</rscale>
<asrwt>0</asrwt>
<pdfrwt beam="1">  1        2 0.74572103E-01 0.67175794E+03</pdfrwt>
<pdfrwt beam="2">  1       -2 0.64884823E-01 0.67175794E+03</pdfrwt>
<totfact> 0.14189357E+02</totfact>
</mgrwt>
</event>
<event>
 4    2  0.6387803E-007  0.6999316E+03  0.7818608E-02  0.9997485E-01
          2   -1    0    0  501    0  0.00000000000E+00  0.00000000000E+00  0.28808416143E+04  0.28808416143E+04  0.25500000000E-02 0. -1.
         -2   -1    0    0    0  501 -0.00000000000E+00 -0.00000000000E+00 -0.32983536733E+03  0.32983536734E+03  0.25500000000E-02 0.  1.
    8880023    1    1    2    0    0  0.22083116255E+03  0.85601635188E+02  0.58604991052E+02  0.70238080380E+03  0.65864270000E+03 0.  1.
    8880022    1    1    2    0    0 -0.22083116255E+03 -0.85601635188E+02  0.24924012559E+04  0.25082961778E+04  0.15294330000E+03 0.  0.
<mgrwt>
<rscale>  0 0.55760650E+03</rscale>
<asrwt>0</asrwt>
<pdfrwt beam="1">  1        2 0.44320640E+00 0.69993160E+03</pdfrwt>
<pdfrwt beam="2">  1       -2 0.50743903E-01 0.69993160E+03</pdfrwt>
<totfact> 0.81139467E+00</totfact>
</mgrwt>
</event>
<event>
 4    2  0.6387803E-007  0.9619152E+03  0.7818608E-02  0.9433174E-01
          2   -1    0    0  501    0  0.00000000000E+00  0.00000000000E+00  0.10927988957E+04  0.10927988957E+04  0.25500000000E-02 0. -1.
         -2   -1    0    0    0  501 -0.00000000000E+00 -0.00000000000E+00 -0.83681747453E+03  0.83681747454E+03  0.25500000000E-02 0.  1.
    8880023    1    1    2    0    0 -0.67384908036E+03  0.19338582699E+03 -0.31547242666E+03  0.10123258959E+04  0.65864270000E+03 0.  0.
    8880022    1    1    2    0    0  0.67384908036E+03 -0.19338582699E+03  0.57145384785E+03  0.91729047440E+03  0.15294330000E+03 0.  0.
<mgrwt>
<rscale>  0 0.89395155E+03</rscale>
<asrwt>0</asrwt>
<pdfrwt beam="1">  1        2 0.16812291E+00 0.96191521E+03</pdfrwt>
<pdfrwt beam="2">  1       -2 0.12874115E+00 0.96191521E+03</pdfrwt>
<totfact> 0.97544783E+00</totfact>
</mgrwt>
</event>
<event>
 4    2  0.6387803E-007  0.9853996E+03  0.7818608E-02  0.9400914E-01
         -2   -1    0    0    0  501 -0.00000000000E+00  0.00000000000E+00  0.43723457507E+03  0.43723457508E+03  0.25500000000E-02 0.  1.
          2   -1    0    0  501    0  0.00000000000E+00 -0.00000000000E+00 -0.21297775005E+04  0.21297775005E+04  0.25500000000E-02 0. -1.
    8880023    1    1    2    0    0  0.38392087031E+03  0.62434514976E+03 -0.38039070052E+03  0.10562714575E+04  0.65864270000E+03 0.  0.
    8880022    1    1    2    0    0 -0.38392087031E+03 -0.62434514976E+03 -0.13121522249E+04  0.15107406180E+04  0.15294330000E+03 0.  0.
<mgrwt>
<rscale>  0 0.92000525E+03</rscale>
<asrwt>0</asrwt>
<pdfrwt beam="1">  1        2 0.32765807E+00 0.98539957E+03</pdfrwt>
<pdfrwt beam="2">  1       -2 0.67266859E-01 0.98539957E+03</pdfrwt>
<totfact> 0.11540104E+01</totfact>
</mgrwt>
</event>
<event>
 4    2  0.6387803E-007  0.7038349E+03  0.7818608E-02  0.9981649E-01
         -2   -1    0    0    0  501 -0.00000000000E+00  0.00000000000E+00  0.13451088781E+03  0.13451088783E+03  0.25500000000E-02 0.  1.
          2   -1    0    0  501    0  0.00000000000E+00 -0.00000000000E+00 -0.23705458248E+04  0.23705458248E+04  0.25500000000E-02 0. -1.
    8880023    1    1    2    0    0  0.28180659478E+02 -0.24653452454E+03 -0.92677831318E+03  0.11637446754E+04  0.65864270000E+03 0.  0.
    8880022    1    1    2    0    0 -0.28180659478E+02  0.24653452454E+03 -0.13092566238E+04  0.13413120373E+04  0.15294330000E+03 0.  1.
<mgrwt>
<rscale>  0 0.56462249E+03</rscale>
<asrwt>0</asrwt>
<pdfrwt beam="1">  1        2 0.36469933E+00 0.70383494E+03</pdfrwt>
<pdfrwt beam="2">  1       -2 0.20693984E-01 0.70383494E+03</pdfrwt>
<totfact> 0.86467947E+01</totfact>
</mgrwt>
</event>
<event>
 4    2  0.6387803E-007  0.7126741E+03  0.7818608E-02  0.9948202E-01
          2   -1    0    0  501    0  0.00000000000E+00  0.00000000000E+00  0.25824547684E+04  0.25824547684E+04  0.25500000000E-02 0. -1.
         -2   -1    0    0    0  501 -0.00000000000E+00 -0.00000000000E+00 -0.16584493446E+03  0.16584493448E+03  0.25500000000E-02 0.  1.
    8880023    1    1    2    0    0 -0.88233345486E+02 -0.25750541276E+03  0.68408178135E+03  0.98786246548E+03  0.65864270000E+03 0.  0.
    8880022    1    1    2    0    0  0.88233345486E+02  0.25750541276E+03  0.17325280526E+04  0.17604372374E+04  0.15294330000E+03 0.  0.
<mgrwt>
<rscale>  0 0.57981028E+03</rscale>
<asrwt>0</asrwt>
<pdfrwt beam="1">  1        2 0.39730073E+00 0.71267410E+03</pdfrwt>
<pdfrwt beam="2">  1       -2 0.25514606E-01 0.71267410E+03</pdfrwt>
<totfact> 0.45150589E+01</totfact>
</mgrwt>
</event>
<event>
 4    2  0.6387803E-007  0.9330431E+03  0.7818608E-02  0.9474943E-01
          2   -1    0    0  501    0  0.00000000000E+00  0.00000000000E+00  0.47768226157E+03  0.47768226158E+03  0.25500000000E-02 0. -1.
         -2   -1    0    0    0  501 -0.00000000000E+00 -0.00000000000E+00 -0.15190138838E+04  0.15190138838E+04  0.25500000000E-02 0.  1.
    8880023    1    1    2    0    0  0.62377986135E+03  0.21830673384E+03 -0.91473394876E+03  0.13066397930E+04  0.65864270000E+03 0.  1.
    8880022    1    1    2    0    0 -0.62377986135E+03 -0.21830673384E+03 -0.12659767347E+03  0.69005635234E+03  0.15294330000E+03 0.  0.
<mgrwt>
<rscale>  0 0.86156647E+03</rscale>
<asrwt>0</asrwt>
<pdfrwt beam="1">  1        2 0.73489580E-01 0.93304306E+03</pdfrwt>
<pdfrwt beam="2">  1       -2 0.23369444E+00 0.93304306E+03</pdfrwt>
<totfact> 0.52896443E+00</totfact>
</mgrwt>
</event>
<event>
 4    2  0.6387803E-007  0.7451873E+03  0.7818608E-02  0.9845086E-01
         -2   -1    0    0    0  501 -0.00000000000E+00  0.00000000000E+00  0.54580481809E+03  0.54580481810E+03  0.25500000000E-02 0.  1.
          2   -1    0    0  501    0  0.00000000000E+00 -0.00000000000E+00 -0.79672794453E+03  0.79672794453E+03  0.25500000000E-02 0. -1.
    8880023    1    1    2    0    0  0.27861984944E+03 -0.20943961417E+03 -0.49109556544E+03  0.89245674021E+03  0.65864270000E+03 0. -1.
    8880022    1    1    2    0    0 -0.27861984944E+03  0.20943961417E+03  0.24017243900E+03  0.45007602242E+03  0.15294330000E+03 0.  0.
<mgrwt>
<rscale>  0 0.62998073E+03</rscale>
<asrwt>0</asrwt>
<pdfrwt beam="1">  1        2 0.12257353E+00 0.74518734E+03</pdfrwt>
<pdfrwt beam="2">  1       -2 0.83969972E-01 0.74518734E+03</pdfrwt>
<totfact> 0.43514636E+01</totfact>
</mgrwt>
</event>
<event>
 4    2  0.6387803E-007  0.7035279E+03  0.7818608E-02  0.9982869E-01
         -2   -1    0    0    0  501 -0.00000000000E+00  0.00000000000E+00  0.17721365522E+03  0.17721365524E+03  0.25500000000E-02 0.  1.
          2   -1    0    0  501    0  0.00000000000E+00 -0.00000000000E+00 -0.14238136205E+04  0.14238136205E+04  0.25500000000E-02 0. -1.
    8880023    1    1    2    0    0 -0.15054356149E+03 -0.19615777990E+03 -0.77224967657E+03  0.10446631073E+04  0.65864270000E+03 0.  0.
    8880022    1    1    2    0    0  0.15054356149E+03  0.19615777990E+03 -0.47435028871E+03  0.55636416845E+03  0.15294330000E+03 0.  0.
<mgrwt>
<rscale>  0 0.56407804E+03</rscale>
<asrwt>0</asrwt>
<pdfrwt beam="1">  1        2 0.21904824E+00 0.70352786E+03</pdfrwt>
<pdfrwt beam="2">  1       -2 0.27263640E-01 0.70352786E+03</pdfrwt>
<totfact> 0.17472055E+02</totfact>
</mgrwt>
</event>
<event>
 4    2  0.6387803E-007  0.9049950E+03  0.7818608E-02  0.9518060E-01
         -2   -1    0    0    0  501 -0.00000000000E+00  0.00000000000E+00  0.38509783578E+03  0.38509783579E+03  0.25500000000E-02 0.  1.
          2   -1    0    0  501    0  0.00000000000E+00 -0.00000000000E+00 -0.32596052724E+04  0.32596052724E+04  0.25500000000E-02 0. -1.
    8880023    1    1    2    0    0 -0.80128959614E+02 -0.61545520832E+03 -0.24353153396E+03  0.93718919003E+03  0.65864270000E+03 0.  1.
    8880022    1    1    2    0    0  0.80128959614E+02  0.61545520832E+03 -0.26309759026E+04  0.27075139181E+04  0.15294330000E+03 0. -1.
<mgrwt>
<rscale>  0 0.82965320E+03</rscale>
<asrwt>0</asrwt>
<pdfrwt beam="1">  1        2 0.50147772E+00 0.90499501E+03</pdfrwt>
<pdfrwt beam="2">  1       -2 0.59245823E-01 0.90499501E+03</pdfrwt>
<totfact> 0.32955262E+00</totfact>
</mgrwt>
</event>
<event>
 4    2  0.6387803E-007  0.8184639E+03  0.7818608E-02  0.9672209E-01
         -2   -1    0    0    0  501 -0.00000000000E+00  0.00000000000E+00  0.19015974593E+03  0.19015974594E+03  0.25500000000E-02 0.  1.
          2   -1    0    0  501    0  0.00000000000E+00 -0.00000000000E+00 -0.34209213319E+04  0.34209213319E+04  0.25500000000E-02 0. -1.
    8880023    1    1    2    0    0  0.40454480674E+03  0.26910300503E+03 -0.86396656637E+03  0.11900930056E+04  0.65864270000E+03 0.  1.
    8880022    1    1    2    0    0 -0.40454480674E+03 -0.26910300503E+03 -0.23667950196E+04  0.24209880722E+04  0.15294330000E+03 0.  0.
<mgrwt>
<rscale>  0 0.72695814E+03</rscale>
<asrwt>0</asrwt>
<pdfrwt beam="1">  1        2 0.52629554E+00 0.81846389E+03</pdfrwt>
<pdfrwt beam="2">  1       -2 0.29255348E-01 0.81846389E+03</pdfrwt>
<totfact> 0.10538167E+01</totfact>
</mgrwt>
</event>
<event>
 4    2  0.6387803E-007  0.8473358E+03  0.7818608E-02  0.9616500E-01
         -2   -1    0    0    0  501 -0.00000000000E+00  0.00000000000E+00  0.44236993284E+03  0.44236993285E+03  0.25500000000E-02 0.  1.
          2   -1    0    0  501    0  0.00000000000E+00 -0.00000000000E+00 -0.17651213407E+04  0.17651213407E+04  0.25500000000E-02 0. -1.
    8880023    1    1    2    0    0 -0.44192738087E+03 -0.29810721274E+03 -0.85506240259E+02  0.85163915107E+03  0.65864270000E+03 0.  1.
    8880022    1    1    2    0    0  0.44192738087E+03  0.29810721274E+03 -0.12372451676E+04  0.13558521225E+04  0.15294330000E+03 0.  0.
<mgrwt>
<rscale>  0 0.76213653E+03</rscale>
<asrwt>0</asrwt>
<pdfrwt beam="1">  1        2 0.27155713E+00 0.84733578E+03</pdfrwt>
<pdfrwt beam="2">  1       -2 0.68056914E-01 0.84733578E+03</pdfrwt>
<totfact> 0.18133225E+01</totfact>
</mgrwt>
</event>
<event>
 4    2  0.6387803E-007  0.9360132E+03  0.7818608E-02  0.9470530E-01
         -2   -1    0    0    0  501 -0.00000000000E+00  0.00000000000E+00  0.54261090273E+03  0.54261090274E+03  0.25500000000E-02 0.  1.
          2   -1    0    0  501    0  0.00000000000E+00 -0.00000000000E+00 -0.17882929436E+04  0.17882929436E+04  0.25500000000E-02 0. -1.
    8880023    1    1    2    0    0  0.37278422661E+03 -0.55076532874E+03 -0.13477396132E+04  0.16408908551E+04  0.65864270000E+03 0.  0.
    8880022    1    1    2    0    0 -0.37278422661E+03  0.55076532874E+03  0.10205757241E+03  0.69001299121E+03  0.15294330000E+03 0.  0.
<mgrwt>
<rscale>  0 0.86491816E+03</rscale>
<asrwt>0</asrwt>
<pdfrwt beam="1">  1        2 0.27512199E+00 0.93601321E+03</pdfrwt>
<pdfrwt beam="2">  1       -2 0.83478601E-01 0.93601321E+03</pdfrwt>
<totfact> 0.11066334E+01</totfact>
</mgrwt>
</event>
<event>
 4    2  0.6387803E-007  0.6784927E+03  0.7818608E-02  0.1010189E+00
         -2   -1    0    0    0  501 -0.00000000000E+00  0.00000000000E+00  0.32840877092E+03  0.32840877093E+03  0.25500000000E-02 0.  1.
          2   -1    0    0  501    0  0.00000000000E+00 -0.00000000000E+00 -0.95980790955E+03  0.95980790956E+03  0.25500000000E-02 0. -1.
    8880023    1    1    2    0    0 -0.23096268793E+02 -0.16127228320E+03 -0.67724299210E+02  0.68186433689E+03  0.65864270000E+03 0.  0.
    8880022    1    1    2    0    0  0.23096268793E+02  0.16127228320E+03 -0.56367483942E+03  0.60635234359E+03  0.15294330000E+03 0.  0.
<mgrwt>
<rscale>  0 0.51399426E+03</rscale>
<asrwt>0</asrwt>
<pdfrwt beam="1">  1        2 0.14766275E+00 0.67849274E+03</pdfrwt>
<pdfrwt beam="2">  1       -2 0.50524427E-01 0.67849274E+03</pdfrwt>
<totfact> 0.10094497E+02</totfact>
</mgrwt>
</event>
<event>
 4    2  0.6387803E-007  0.6659250E+03  0.7818608E-02  0.1018770E+00
         -2   -1    0    0    0  501 -0.00000000000E+00  0.00000000000E+00  0.17085996413E+03  0.17085996415E+03  0.25500000000E-02 0.  1.
          2   -1    0    0  501    0  0.00000000000E+00 -0.00000000000E+00 -0.19364333293E+04  0.19364333293E+04  0.25500000000E-02 0. -1.
    8880023    1    1    2    0    0  0.32630726990E+02 -0.92634209292E+02 -0.51039499280E+03  0.83902271484E+03  0.65864270000E+03 0.  1.
    8880022    1    1    2    0    0 -0.32630726990E+02  0.92634209292E+02 -0.12551783724E+04  0.12682705786E+04  0.15294330000E+03 0.  0.
<mgrwt>
<rscale>  0 0.48133218E+03</rscale>
<asrwt>0</asrwt>
<pdfrwt beam="1">  1        2 0.29791280E+00 0.66592497E+03</pdfrwt>
<pdfrwt beam="2">  1       -2 0.26286150E-01 0.66592497E+03</pdfrwt>
<totfact> 0.98119753E+01</totfact>
</mgrwt>
</event>
<event>
 4    2  0.6387803E-007  0.7569331E+03  0.7818608E-02  0.9813113E-01
         -2   -1    0    0    0  501 -0.00000000000E+00  0.00000000000E+00  0.37799147928E+03  0.37799147929E+03  0.25500000000E-02 0.  1.
          2   -1    0    0  501    0  0.00000000000E+00 -0.00000000000E+00 -0.27681840977E+04  0.27681840977E+04  0.25500000000E-02 0. -1.
    8880023    1    1    2    0    0  0.40144935184E+02 -0.37084475450E+03 -0.36080319731E+02  0.75779248049E+03  0.65864270000E+03 0.  1.
    8880022    1    1    2    0    0 -0.40144935184E+02  0.37084475450E+03 -0.23541122987E+04  0.23883830965E+04  0.15294330000E+03 0.  0.
<mgrwt>
<rscale>  0 0.64663543E+03</rscale>
<asrwt>0</asrwt>
<pdfrwt beam="1">  1        2 0.42587446E+00 0.75693306E+03</pdfrwt>
<pdfrwt beam="2">  1       -2 0.58152537E-01 0.75693306E+03</pdfrwt>
<totfact> 0.70626552E+00</totfact>
</mgrwt>
</event>
<event>
 4    2  0.6387803E-007  0.7954412E+03  0.7818608E-02  0.9720741E-01
          2   -1    0    0  501    0  0.00000000000E+00  0.00000000000E+00  0.12706851245E+04  0.12706851245E+04  0.25500000000E-02 0. -1.
         -2   -1    0    0    0  501 -0.00000000000E+00 -0.00000000000E+00 -0.84962664635E+03  0.84962664635E+03  0.25500000000E-02 0.  1.
    8880023    1    1    2    0    0  0.13331745481E+03  0.42560886990E+03 -0.59953065331E+03  0.99607412597E+03  0.65864270000E+03 0.  0.
    8880022    1    1    2    0    0 -0.13331745481E+03 -0.42560886990E+03  0.10205891314E+04  0.11242376448E+04  0.15294330000E+03 0.  0.
<mgrwt>
<rscale>  0 0.69795185E+03</rscale>
<asrwt>0</asrwt>
<pdfrwt beam="1">  1        2 0.19549002E+00 0.79544117E+03</pdfrwt>
<pdfrwt beam="2">  1       -2 0.13071179E+00 0.79544117E+03</pdfrwt>
<totfact> 0.74793187E+00</totfact>
</mgrwt>
</event>
<event>
 4    2  0.6387803E-007  0.7361621E+03  0.7818608E-02  0.9871271E-01
          2   -1    0    0  501    0  0.00000000000E+00  0.00000000000E+00  0.47823037773E+04  0.47823037773E+04  0.25500000000E-02 0. -1.
         -2   -1    0    0    0  501 -0.00000000000E+00 -0.00000000000E+00 -0.85713084023E+02  0.85713084061E+02  0.25500000000E-02 0.  1.
    8880023    1    1    2    0    0  0.18247021099E+03 -0.27354904122E+03  0.17407432990E+04  0.18900057923E+04  0.65864270000E+03 0.  0.
    8880022    1    1    2    0    0 -0.18247021099E+03  0.27354904122E+03  0.29558473943E+04  0.29780110690E+04  0.15294330000E+03 0.  0.
<mgrwt>
<rscale>  0 0.61674050E+03</rscale>
<asrwt>0</asrwt>
<pdfrwt beam="1">  1        2 0.73573888E+00 0.73616212E+03</pdfrwt>
<pdfrwt beam="2">  1       -2 0.13186631E-01 0.73616212E+03</pdfrwt>
<totfact> 0.31360189E+00</totfact>
</mgrwt>
</event>
<event>
 4    2  0.6387803E-007  0.7454593E+03  0.7818608E-02  0.9844321E-01
         -2   -1    0    0    0  501 -0.00000000000E+00  0.00000000000E+00  0.41375978795E+03  0.41375978795E+03  0.25500000000E-02 0.  1.
          2   -1    0    0  501    0  0.00000000000E+00 -0.00000000000E+00 -0.15125277473E+04  0.15125277473E+04  0.25500000000E-02 0. -1.
    8880023    1    1    2    0    0  0.22203358225E+03  0.26944479274E+03  0.18602249331E+02  0.74569139590E+03  0.65864270000E+03 0. -1.
    8880022    1    1    2    0    0 -0.22203358225E+03 -0.26944479274E+03 -0.11173702087E+04  0.11805961393E+04  0.15294330000E+03 0.  0.
<mgrwt>
<rscale>  0 0.63037333E+03</rscale>
<asrwt>0</asrwt>
<pdfrwt beam="1">  1        2 0.23269657E+00 0.74545933E+03</pdfrwt>
<pdfrwt beam="2">  1       -2 0.63655353E-01 0.74545933E+03</pdfrwt>
<totfact> 0.29203139E+01</totfact>
</mgrwt>
</event>
<event>
 4    2  0.6387803E-007  0.7688018E+03  0.7818608E-02  0.9782831E-01
         -2   -1    0    0    0  501 -0.00000000000E+00  0.00000000000E+00  0.35781558554E+03  0.35781558555E+03  0.25500000000E-02 0.  1.
          2   -1    0    0  501    0  0.00000000000E+00 -0.00000000000E+00 -0.16796825035E+04  0.16796825035E+04  0.25500000000E-02 0. -1.
    8880023    1    1    2    0    0  0.15372904435E+03  0.36553174802E+03 -0.13988389259E+03  0.78142420461E+03  0.65864270000E+03 0.  0.
    8880022    1    1    2    0    0 -0.15372904435E+03 -0.36553174802E+03 -0.11819830254E+04  0.12560738844E+04  0.15294330000E+03 0.  0.
<mgrwt>
<rscale>  0 0.66292115E+03</rscale>
<asrwt>0</asrwt>
<pdfrwt beam="1">  1        2 0.25841269E+00 0.76880185E+03</pdfrwt>
<pdfrwt beam="2">  1       -2 0.55048553E-01 0.76880185E+03</pdfrwt>
<totfact> 0.31984579E+01</totfact>
</mgrwt>
</event>
<event>
 4    2  0.6387803E-007  0.7846540E+03  0.7818608E-02  0.9745016E-01
         -2   -1    0    0    0  501 -0.00000000000E+00  0.00000000000E+00  0.42480574532E+03  0.42480574533E+03  0.25500000000E-02 0.  1.
          2   -1    0    0  501    0  0.00000000000E+00 -0.00000000000E+00 -0.17532111711E+04  0.17532111711E+04  0.25500000000E-02 0. -1.
    8880023    1    1    2    0    0 -0.20976623280E+03  0.37130831626E+03 -0.10836361414E+02  0.78472885199E+03  0.65864270000E+03 0.  0.
    8880022    1    1    2    0    0  0.20976623280E+03 -0.37130831626E+03 -0.13175690644E+04  0.13932880645E+04  0.15294330000E+03 0.  0.
<mgrwt>
<rscale>  0 0.68398660E+03</rscale>
<asrwt>0</asrwt>
<pdfrwt beam="1">  1        2 0.26972479E+00 0.78465403E+03</pdfrwt>
<pdfrwt beam="2">  1       -2 0.65354731E-01 0.78465403E+03</pdfrwt>
<totfact> 0.20246089E+01</totfact>
</mgrwt>
</event>
<event>
 4    2  0.6387803E-007  0.6982696E+03  0.7818608E-02  0.1000446E+00
         -2   -1    0    0    0  501 -0.00000000000E+00  0.00000000000E+00  0.71099928889E+02  0.71099928935E+02  0.25500000000E-02 0.  1.
          2   -1    0    0  501    0  0.00000000000E+00 -0.00000000000E+00 -0.35793972417E+04  0.35793972417E+04  0.25500000000E-02 0. -1.
    8880023    1    1    2    0    0  0.39069843546E+02  0.22856899330E+03 -0.20411243690E+04  0.21572596351E+04  0.65864270000E+03 0. -1.
    8880022    1    1    2    0    0 -0.39069843546E+02 -0.22856899330E+03 -0.14671729439E+04  0.14932375356E+04  0.15294330000E+03 0.  0.
<mgrwt>
<rscale>  0 0.55455256E+03</rscale>
<asrwt>0</asrwt>
<pdfrwt beam="1">  1        2 0.55067636E+00 0.69826961E+03</pdfrwt>
<pdfrwt beam="2">  1       -2 0.10938453E-01 0.69826961E+03</pdfrwt>
<totfact> 0.46096789E+01</totfact>
</mgrwt>
</event>
<event>
 4    2  0.6387803E-007  0.7442375E+03  0.7818608E-02  0.9847771E-01
         -2   -1    0    0    0  501 -0.00000000000E+00  0.00000000000E+00  0.23887491288E+03  0.23887491290E+03  0.25500000000E-02 0.  1.
          2   -1    0    0  501    0  0.00000000000E+00 -0.00000000000E+00 -0.14902067651E+04  0.14902067651E+04  0.25500000000E-02 0. -1.
    8880023    1    1    2    0    0  0.10613396622E+03  0.32987102997E+03 -0.52778037378E+03  0.91238240032E+03  0.65864270000E+03 0.  0.
    8880022    1    1    2    0    0 -0.10613396622E+03 -0.32987102997E+03 -0.72355147841E+03  0.81669927766E+03  0.15294330000E+03 0.  0.
<mgrwt>
<rscale>  0 0.62860696E+03</rscale>
<asrwt>0</asrwt>
<pdfrwt beam="1">  1        2 0.22926257E+00 0.74423754E+03</pdfrwt>
<pdfrwt beam="2">  1       -2 0.36749988E-01 0.74423754E+03</pdfrwt>
<totfact> 0.91388451E+01</totfact>
</mgrwt>
</event>
<event>
 4    2  0.6387803E-007  0.8976453E+03  0.7818608E-02  0.9529822E-01
         -2   -1    0    0    0  501 -0.00000000000E+00  0.00000000000E+00  0.53952684901E+03  0.53952684901E+03  0.25500000000E-02 0.  1.
          2   -1    0    0  501    0  0.00000000000E+00 -0.00000000000E+00 -0.13056280130E+04  0.13056280130E+04  0.25500000000E-02 0. -1.
    8880023    1    1    2    0    0  0.31365937466E+03 -0.52304360359E+03 -0.59956940094E+02  0.89964540542E+03  0.65864270000E+03 0.  0.
    8880022    1    1    2    0    0 -0.31365937466E+03  0.52304360359E+03 -0.70614422392E+03  0.94550945662E+03  0.15294330000E+03 0.  0.
<mgrwt>
<rscale>  0 0.82120402E+03</rscale>
<asrwt>0</asrwt>
<pdfrwt beam="1">  1        2 0.20086585E+00 0.89764526E+03</pdfrwt>
<pdfrwt beam="2">  1       -2 0.83004131E-01 0.89764526E+03</pdfrwt>
<totfact> 0.20971406E+01</totfact>
</mgrwt>
</event>
<event>
 4    2  0.6387803E-007  0.6617035E+03  0.7818608E-02  0.1022475E+00
         -2   -1    0    0    0  501 -0.00000000000E+00  0.00000000000E+00  0.14428793078E+03  0.14428793080E+03  0.25500000000E-02 0.  1.
          2   -1    0    0  501    0  0.00000000000E+00 -0.00000000000E+00 -0.14274359904E+04  0.14274359904E+04  0.25500000000E-02 0. -1.
    8880023    1    1    2    0    0 -0.50569481164E+02 -0.38522444899E+02 -0.69051002842E+03  0.95637626320E+03  0.65864270000E+03 0.  1.
    8880022    1    1    2    0    0  0.50569481164E+02  0.38522444899E+02 -0.59263803117E+03  0.61534765799E+03  0.15294330000E+03 0.  0.
<mgrwt>
<rscale>  0 0.46803844E+03</rscale>
<asrwt>0</asrwt>
<pdfrwt beam="1">  1        2 0.21960553E+00 0.66170345E+03</pdfrwt>
<pdfrwt beam="2">  1       -2 0.22198144E-01 0.66170345E+03</pdfrwt>
<totfact> 0.25247192E+02</totfact>
</mgrwt>
</event>
<event>
 4    2  0.6387803E-007  0.8948909E+03  0.7818608E-02  0.9534284E-01
          2   -1    0    0  501    0  0.00000000000E+00  0.00000000000E+00  0.17993218378E+04  0.17993218378E+04  0.25500000000E-02 0. -1.
         -2   -1    0    0    0  501 -0.00000000000E+00 -0.00000000000E+00 -0.56667240133E+03  0.56667240133E+03  0.25500000000E-02 0.  1.
    8880023    1    1    2    0    0  0.12389057595E+03  0.59301826827E+03 -0.93754557043E+02  0.89978867771E+03  0.65864270000E+03 0.  1.
    8880022    1    1    2    0    0 -0.12389057595E+03 -0.59301826827E+03  0.13264039935E+04  0.14662055614E+04  0.15294330000E+03 0.  0.
<mgrwt>
<rscale>  0 0.81802741E+03</rscale>
<asrwt>0</asrwt>
<pdfrwt beam="1">  1        2 0.27681874E+00 0.89489091E+03</pdfrwt>
<pdfrwt beam="2">  1       -2 0.87180370E-01 0.89489091E+03</pdfrwt>
<totfact> 0.99301821E+00</totfact>
</mgrwt>
</event>
<event>
 4    2  0.6387803E-007  0.1092640E+04  0.7818608E-02  0.9269295E-01
          2   -1    0    0  501    0  0.00000000000E+00  0.00000000000E+00  0.37647622097E+04  0.37647622097E+04  0.25500000000E-02 0. -1.
         -2   -1    0    0    0  501 -0.00000000000E+00 -0.00000000000E+00 -0.35408043755E+03  0.35408043756E+03  0.25500000000E-02 0.  1.
    8880023    1    1    2    0    0 -0.21424844584E+02  0.87154645995E+03  0.77792165714E+03  0.13412772147E+04  0.65864270000E+03 0.  0.
    8880022    1    1    2    0    0  0.21424844584E+02 -0.87154645995E+03  0.26327601150E+04  0.27775654326E+04  0.15294330000E+03 0.  0.
<mgrwt>
<rscale>  0 0.10365944E+04</rscale>
<asrwt>0</asrwt>
<pdfrwt beam="1">  1        2 0.57919418E+00 0.10926401E+04</pdfrwt>
<pdfrwt beam="2">  1       -2 0.54473914E-01 0.10926401E+04</pdfrwt>
<totfact> 0.17063163E+00</totfact>
</mgrwt>
</event>
<event>
 4    2  0.6387803E-007  0.7701650E+03  0.7818608E-02  0.9779468E-01
          2   -1    0    0  501    0  0.00000000000E+00  0.00000000000E+00  0.13364315406E+04  0.13364315406E+04  0.25500000000E-02 0. -1.
         -2   -1    0    0    0  501 -0.00000000000E+00 -0.00000000000E+00 -0.32923395055E+03  0.32923395056E+03  0.25500000000E-02 0.  1.
    8880023    1    1    2    0    0 -0.78375019672E+02 -0.39140937951E+03  0.27494932154E+03  0.81777214538E+03  0.65864270000E+03 0.  1.
    8880022    1    1    2    0    0  0.78375019672E+02  0.39140937951E+03  0.73224826850E+03  0.84789334578E+03  0.15294330000E+03 0.  0.
<mgrwt>
<rscale>  0 0.66476131E+03</rscale>
<asrwt>0</asrwt>
<pdfrwt beam="1">  1        2 0.20560485E+00 0.77016502E+03</pdfrwt>
<pdfrwt beam="2">  1       -2 0.50651377E-01 0.77016502E+03</pdfrwt>
<totfact> 0.59004838E+01</totfact>
</mgrwt>
</event>
<event>
 4    2  0.6387803E-007  0.8730043E+03  0.7818608E-02  0.9570837E-01
         -2   -1    0    0    0  501 -0.00000000000E+00  0.00000000000E+00  0.70231469778E+03  0.70231469779E+03  0.25500000000E-02 0.  1.
          2   -1    0    0  501    0  0.00000000000E+00 -0.00000000000E+00 -0.87586011639E+03  0.87586011640E+03  0.25500000000E-02 0. -1.
    8880023    1    1    2    0    0  0.45344894236E+03  0.35030027828E+03 -0.37736032895E+03  0.95107163369E+03  0.65864270000E+03 0. -1.
    8880022    1    1    2    0    0 -0.45344894236E+03 -0.35030027828E+03  0.20381491034E+03  0.62710318049E+03  0.15294330000E+03 0.  0.
<mgrwt>
<rscale>  0 0.79256808E+03</rscale>
<asrwt>0</asrwt>
<pdfrwt beam="1">  1        2 0.13474771E+00 0.87300426E+03</pdfrwt>
<pdfrwt beam="2">  1       -2 0.10804842E+00 0.87300426E+03</pdfrwt>
<totfact> 0.20975178E+01</totfact>
</mgrwt>
</event>
<event>
 4    2  0.6387803E-007  0.9739154E+03  0.7818608E-02  0.9416509E-01
         -2   -1    0    0    0  501 -0.00000000000E+00  0.00000000000E+00  0.10631565970E+04  0.10631565970E+04  0.25500000000E-02 0.  1.
          2   -1    0    0  501    0  0.00000000000E+00 -0.00000000000E+00 -0.11372407706E+04  0.11372407706E+04  0.25500000000E-02 0. -1.
    8880023    1    1    2    0    0 -0.37287758485E+03  0.61291378321E+03 -0.72939445561E+03  0.12167692785E+04  0.65864270000E+03 0.  0.
    8880022    1    1    2    0    0  0.37287758485E+03 -0.61291378321E+03  0.65531028198E+03  0.98362808908E+03  0.15294330000E+03 0.  0.
<mgrwt>
<rscale>  0 0.90729404E+03</rscale>
<asrwt>0</asrwt>
<pdfrwt beam="1">  1        2 0.17496012E+00 0.97391540E+03</pdfrwt>
<pdfrwt beam="2">  1       -2 0.16356255E+00 0.97391540E+03</pdfrwt>
<totfact> 0.48718085E+00</totfact>
</mgrwt>
</event>
<event>
 4    2  0.2226616E-006  0.7817290E+03  0.7818608E-02  0.9751791E-01
          2   -1    0    0  501    0  0.00000000000E+00  0.00000000000E+00  0.16282928555E+04  0.16282928555E+04  0.25500000000E-02 0. -1.
         -2   -1    0    0    0  501 -0.00000000000E+00 -0.00000000000E+00 -0.25488057060E+04  0.25488057060E+04  0.25500000000E-02 0.  1.
    8880023    1    1    2    0    0 -0.20673707776E+03 -0.36681025124E+03 -0.24560988412E+04  0.25775029978E+04  0.65864270000E+03 0.  1.
    8880022    1    1    2    0    0  0.20673707776E+03  0.36681025124E+03  0.15355859906E+04  0.15995955637E+04  0.15294330000E+03 0.  0.
<mgrwt>
<rscale>  0 0.68015142E+03</rscale>
<asrwt>0</asrwt>
<pdfrwt beam="1">  1        2 0.25050659E+00 0.78172897E+03</pdfrwt>
<pdfrwt beam="2">  1       -2 0.39212395E+00 0.78172897E+03</pdfrwt>
<totfact> 0.96127145E-02</totfact>
</mgrwt>
</event>
<event>
 4    2  0.6387803E-007  0.7177482E+03  0.7818608E-02  0.9930280E-01
         -2   -1    0    0    0  501 -0.00000000000E+00  0.00000000000E+00  0.29770333543E+03  0.29770333544E+03  0.25500000000E-02 0.  1.
          2   -1    0    0  501    0  0.00000000000E+00 -0.00000000000E+00 -0.13483294415E+04  0.13483294415E+04  0.25500000000E-02 0. -1.
    8880023    1    1    2    0    0  0.28508097611E+03 -0.90094608716E+01 -0.21397292167E+03  0.74896391822E+03  0.65864270000E+03 0.  1.
    8880022    1    1    2    0    0 -0.28508097611E+03  0.90094608716E+01 -0.83665318444E+03  0.89706885877E+03  0.15294330000E+03 0.  0.
<mgrwt>
<rscale>  0 0.58815967E+03</rscale>
<asrwt>0</asrwt>
<pdfrwt beam="1">  1        2 0.20743530E+00 0.71774824E+03</pdfrwt>
<pdfrwt beam="2">  1       -2 0.45800514E-01 0.71774824E+03</pdfrwt>
<totfact> 0.71543886E+01</totfact>
</mgrwt>
</event>
<event>
 4    2  0.6387803E-007  0.6880105E+03  0.7818608E-02  0.1005113E+00
         -2   -1    0    0    0  501 -0.00000000000E+00  0.00000000000E+00  0.24323868479E+03  0.24323868480E+03  0.25500000000E-02 0.  1.
          2   -1    0    0  501    0  0.00000000000E+00 -0.00000000000E+00 -0.12423606815E+04  0.12423606815E+04  0.25500000000E-02 0. -1.
    8880023    1    1    2    0    0 -0.55690330444E+02  0.19091046837E+03 -0.31455052275E+03  0.75650542461E+03  0.65864270000E+03 0.  1.
    8880022    1    1    2    0    0  0.55690330444E+02 -0.19091046837E+03 -0.68457147397E+03  0.72909394170E+03  0.15294330000E+03 0.  0.
<mgrwt>
<rscale>  0 0.53464071E+03</rscale>
<asrwt>0</asrwt>
<pdfrwt beam="1">  1        2 0.19113241E+00 0.68801048E+03</pdfrwt>
<pdfrwt beam="2">  1       -2 0.37421337E-01 0.68801048E+03</pdfrwt>
<totfact> 0.12271556E+02</totfact>
</mgrwt>
</event>
<event>
 4    2  0.6387803E-007  0.6872130E+03  0.7818608E-02  0.1005506E+00
         -2   -1    0    0    0  501 -0.00000000000E+00  0.00000000000E+00  0.55535286115E+03  0.55535286116E+03  0.25500000000E-02 0.  1.
          2   -1    0    0  501    0  0.00000000000E+00 -0.00000000000E+00 -0.11620549693E+04  0.11620549693E+04  0.25500000000E-02 0. -1.
    8880023    1    1    2    0    0  0.19471059753E+03 -0.23221152461E+02  0.31989482916E+03  0.75802001735E+03  0.65864270000E+03 0.  1.
    8880022    1    1    2    0    0 -0.19471059753E+03  0.23221152461E+02 -0.92659693729E+03  0.95938781310E+03  0.15294330000E+03 0.  0.
<mgrwt>
<rscale>  0 0.53300331E+03</rscale>
<asrwt>0</asrwt>
<pdfrwt beam="1">  1        2 0.17877769E+00 0.68721295E+03</pdfrwt>
<pdfrwt beam="2">  1       -2 0.85438902E-01 0.68721295E+03</pdfrwt>
<totfact> 0.24380791E+01</totfact>
</mgrwt>
</event>
<event>
 4    2  0.6962242E-007  0.8505520E+03  0.7818608E-02  0.9610596E-01
         -2   -1    0    0    0  501 -0.00000000000E+00  0.00000000000E+00  0.93476179387E+03  0.93476179387E+03  0.25500000000E-02 0.  1.
          2   -1    0    0  501    0  0.00000000000E+00 -0.00000000000E+00 -0.29368204467E+04  0.29368204467E+04  0.25500000000E-02 0. -1.
    8880023    1    1    2    0    0 -0.31746585702E+03 -0.43456168369E+03  0.70658640840E+03  0.11057590090E+04  0.65864270000E+03 0.  1.
    8880022    1    1    2    0    0  0.31746585702E+03  0.43456168369E+03 -0.27086450613E+04  0.27658232316E+04  0.15294330000E+03 0.  0.
<mgrwt>
<rscale>  0 0.76598834E+03</rscale>
<asrwt>0</asrwt>
<pdfrwt beam="1">  1        2 0.45181853E+00 0.85055196E+03</pdfrwt>
<pdfrwt beam="2">  1       -2 0.14380951E+00 0.85055196E+03</pdfrwt>
<totfact> 0.66644817E-01</totfact>
</mgrwt>
</event>
<event>
 4    2  0.6387803E-007  0.8485787E+03  0.7818608E-02  0.9614212E-01
          2   -1    0    0  501    0  0.00000000000E+00  0.00000000000E+00  0.35659190893E+04  0.35659190893E+04  0.25500000000E-02 0. -1.
         -2   -1    0    0    0  501 -0.00000000000E+00 -0.00000000000E+00 -0.28188643747E+03  0.28188643748E+03  0.25500000000E-02 0.  1.
    8880023    1    1    2    0    0 -0.36600674899E+03  0.39027512097E+03  0.45167441318E+03  0.96129890884E+03  0.65864270000E+03 0.  0.
    8880022    1    1    2    0    0  0.36600674899E+03 -0.39027512097E+03  0.28323582387E+04  0.28865066180E+04  0.15294330000E+03 0.  0.
<mgrwt>
<rscale>  0 0.76362653E+03</rscale>
<asrwt>0</asrwt>
<pdfrwt beam="1">  1        2 0.54860294E+00 0.84857870E+03</pdfrwt>
<pdfrwt beam="2">  1       -2 0.43367144E-01 0.84857870E+03</pdfrwt>
<totfact> 0.39263936E+00</totfact>
</mgrwt>
</event>
<event>
 4    2  0.6387803E-007  0.9347469E+03  0.7818608E-02  0.9472408E-01
          2   -1    0    0  501    0  0.00000000000E+00  0.00000000000E+00  0.16225270122E+04  0.16225270122E+04  0.25500000000E-02 0. -1.
         -2   -1    0    0    0  501 -0.00000000000E+00 -0.00000000000E+00 -0.54446542857E+03  0.54446542858E+03  0.25500000000E-02 0.  1.
    8880023    1    1    2    0    0  0.61038382049E+03 -0.25956348572E+03  0.52661686910E+02  0.93622917652E+03  0.65864270000E+03 0.  1.
    8880022    1    1    2    0    0 -0.61038382049E+03  0.25956348572E+03  0.10253998967E+04  0.12307632642E+04  0.15294330000E+03 0.  0.
<mgrwt>
<rscale>  0 0.86348982E+03</rscale>
<asrwt>0</asrwt>
<pdfrwt beam="1">  1        2 0.24961954E+00 0.93474693E+03</pdfrwt>
<pdfrwt beam="2">  1       -2 0.83763913E-01 0.93474693E+03</pdfrwt>
<totfact> 0.13555021E+01</totfact>
</mgrwt>
</event>
<event>
 4    2  0.6387803E-007  0.6941187E+03  0.7818608E-02  0.1002253E+00
          2   -1    0    0  501    0  0.00000000000E+00  0.00000000000E+00  0.18287075245E+04  0.18287075245E+04  0.25500000000E-02 0. -1.
         -2   -1    0    0    0  501 -0.00000000000E+00 -0.00000000000E+00 -0.20712145406E+03  0.20712145408E+03  0.25500000000E-02 0.  1.
    8880023    1    1    2    0    0  0.18087240122E+03  0.12359506631E+03  0.43415868600E+03  0.81871517443E+03  0.65864270000E+03 0.  0.
    8880022    1    1    2    0    0 -0.18087240122E+03 -0.12359506631E+03  0.11874273845E+04  0.12171138042E+04  0.15294330000E+03 0.  0.
<mgrwt>
<rscale>  0 0.54673146E+03</rscale>
<asrwt>0</asrwt>
<pdfrwt beam="1">  1        2 0.28133961E+00 0.69411870E+03</pdfrwt>
<pdfrwt beam="2">  1       -2 0.31864840E-01 0.69411870E+03</pdfrwt>
<totfact> 0.78490966E+01</totfact>
</mgrwt>
</event>
<event>
 4    2  0.6387803E-007  0.7748682E+03  0.7818608E-02  0.9768033E-01
         -2   -1    0    0    0  501 -0.00000000000E+00  0.00000000000E+00  0.19732120746E+04  0.19732120746E+04  0.25500000000E-02 0.  1.
          2   -1    0    0  501    0  0.00000000000E+00 -0.00000000000E+00 -0.71079850655E+03  0.71079850655E+03  0.25500000000E-02 0. -1.
    8880023    1    1    2    0    0  0.33876255250E+03 -0.22770684782E+03  0.18189337148E+04  0.19771040794E+04  0.65864270000E+03 0.  0.
    8880022    1    1    2    0    0 -0.33876255250E+03  0.22770684782E+03 -0.55652014675E+03  0.70690650179E+03  0.15294330000E+03 0. -1.
<mgrwt>
<rscale>  0 0.67106668E+03</rscale>
<asrwt>0</asrwt>
<pdfrwt beam="1">  1        2 0.10935362E+00 0.77486817E+03</pdfrwt>
<pdfrwt beam="2">  1       -2 0.30357109E+00 0.77486817E+03</pdfrwt>
<totfact> 0.12626207E+00</totfact>
</mgrwt>
</event>
<event>
 4    2  0.6387803E-007  0.8354020E+03  0.7818608E-02  0.9638912E-01
         -2   -1    0    0    0  501 -0.00000000000E+00  0.00000000000E+00  0.42946839811E+03  0.42946839812E+03  0.25500000000E-02 0.  1.
          2   -1    0    0  501    0  0.00000000000E+00 -0.00000000000E+00 -0.18236115759E+04  0.18236115759E+04  0.25500000000E-02 0. -1.
    8880023    1    1    2    0    0 -0.32387147350E+03  0.39899076377E+03 -0.14901855103E+04  0.17083762531E+04  0.65864270000E+03 0. -1.
    8880022    1    1    2    0    0  0.32387147350E+03 -0.39899076377E+03  0.96042332484E+02  0.54470372090E+03  0.15294330000E+03 0.  0.
<mgrwt>
<rscale>  0 0.74773417E+03</rscale>
<asrwt>0</asrwt>
<pdfrwt beam="1">  1        2 0.28055562E+00 0.83540204E+03</pdfrwt>
<pdfrwt beam="2">  1       -2 0.66072062E-01 0.83540204E+03</pdfrwt>
<totfact> 0.17985093E+01</totfact>
</mgrwt>
</event>
<event>
 4    2  0.6387803E-007  0.7376744E+03  0.7818608E-02  0.9866774E-01
         -2   -1    0    0    0  501 -0.00000000000E+00  0.00000000000E+00  0.29194250329E+03  0.29194250331E+03  0.25500000000E-02 0.  1.
          2   -1    0    0  501    0  0.00000000000E+00 -0.00000000000E+00 -0.21684481894E+04  0.21684481894E+04  0.25500000000E-02 0. -1.
    8880023    1    1    2    0    0 -0.13271467028E+03  0.30453256789E+03 -0.22843950987E+03  0.77223577005E+03  0.65864270000E+03 0.  0.
    8880022    1    1    2    0    0  0.13271467028E+03 -0.30453256789E+03 -0.16480661762E+04  0.16881549226E+04  0.15294330000E+03 0.  0.
<mgrwt>
<rscale>  0 0.61898936E+03</rscale>
<asrwt>0</asrwt>
<pdfrwt beam="1">  1        2 0.33360740E+00 0.73767437E+03</pdfrwt>
<pdfrwt beam="2">  1       -2 0.44914233E-01 0.73767437E+03</pdfrwt>
<totfact> 0.26259973E+01</totfact>
</mgrwt>
</event>
<event>
 4    2  0.6387803E-007  0.9928842E+03  0.7818608E-02  0.9390927E-01
         -2   -1    0    0    0  501 -0.00000000000E+00  0.00000000000E+00  0.96482550889E+03  0.96482550890E+03  0.25500000000E-02 0.  1.
          2   -1    0    0  501    0  0.00000000000E+00 -0.00000000000E+00 -0.96332967491E+03  0.96332967491E+03  0.25500000000E-02 0. -1.
    8880023    1    1    2    0    0 -0.11923605554E+03  0.73334270039E+03  0.40103335155E+03  0.10708159078E+04  0.65864270000E+03 0.  0.
    8880022    1    1    2    0    0  0.11923605554E+03 -0.73334270039E+03 -0.39953751757E+03  0.85733927597E+03  0.15294330000E+03 0.  0.
<mgrwt>
<rscale>  0 0.92826122E+03</rscale>
<asrwt>0</asrwt>
<pdfrwt beam="1">  1        2 0.14820456E+00 0.99288416E+03</pdfrwt>
<pdfrwt beam="2">  1       -2 0.14843469E+00 0.99288416E+03</pdfrwt>
<totfact> 0.81316841E+00</totfact>
</mgrwt>
</event>
<event>
 4    2  0.6387803E-007  0.8296642E+03  0.7818608E-02  0.9649986E-01
          2   -1    0    0  501    0  0.00000000000E+00  0.00000000000E+00  0.91733720690E+03  0.91733720690E+03  0.25500000000E-02 0. -1.
         -2   -1    0    0    0  501 -0.00000000000E+00 -0.00000000000E+00 -0.18775057818E+04  0.18775057818E+04  0.25500000000E-02 0.  1.
    8880023    1    1    2    0    0  0.18672498336E+03  0.46868559392E+03 -0.16969316880E+04  0.18888937941E+04  0.65864270000E+03 0.  1.
    8880022    1    1    2    0    0 -0.18672498336E+03 -0.46868559392E+03  0.73676311310E+03  0.90594919460E+03  0.15294330000E+03 0.  0.
<mgrwt>
<rscale>  0 0.74074293E+03</rscale>
<asrwt>0</asrwt>
<pdfrwt beam="1">  1        2 0.14112880E+00 0.82966416E+03</pdfrwt>
<pdfrwt beam="2">  1       -2 0.28884704E+00 0.82966416E+03</pdfrwt>
<totfact> 0.10913555E+00</totfact>
</mgrwt>
</event>
<event>
 4    2  0.6387803E-007  0.9335124E+03  0.7818608E-02  0.9474244E-01
         -2   -1    0    0    0  501 -0.00000000000E+00  0.00000000000E+00  0.74858292607E+03  0.74858292607E+03  0.25500000000E-02 0.  1.
          2   -1    0    0  501    0  0.00000000000E+00 -0.00000000000E+00 -0.21327164797E+04  0.21327164797E+04  0.25500000000E-02 0. -1.
    8880023    1    1    2    0    0  0.53862785161E+03 -0.38407720487E+03  0.36705701859E+03  0.10030834078E+04  0.65864270000E+03 0.  1.
    8880022    1    1    2    0    0 -0.53862785161E+03  0.38407720487E+03 -0.17511905722E+04  0.18782159980E+04  0.15294330000E+03 0.  0.
<mgrwt>
<rscale>  0 0.86209647E+03</rscale>
<asrwt>0</asrwt>
<pdfrwt beam="1">  1        2 0.32811022E+00 0.93351244E+03</pdfrwt>
<pdfrwt beam="2">  1       -2 0.11516661E+00 0.93351244E+03</pdfrwt>
<totfact> 0.33439621E+00</totfact>
</mgrwt>
</event>
<event>
 4    2  0.6387803E-007  0.6613386E+03  0.7818608E-02  0.1022825E+00
         -2   -1    0    0    0  501 -0.00000000000E+00  0.00000000000E+00  0.58845667820E+03  0.58845667821E+03  0.25500000000E-02 0.  1.
          2   -1    0    0  501    0  0.00000000000E+00 -0.00000000000E+00 -0.20620497431E+04  0.20620497431E+04  0.25500000000E-02 0. -1.
    8880023    1    1    2    0    0 -0.57201592323E+02  0.16927092001E+02  0.39791015684E+03  0.77181684860E+03  0.65864270000E+03 0.  1.
    8880022    1    1    2    0    0  0.57201592323E+02 -0.16927092001E+02 -0.18715032218E+04  0.18786895728E+04  0.15294330000E+03 0.  0.
<mgrwt>
<rscale>  0 0.46680786E+03</rscale>
<asrwt>0</asrwt>
<pdfrwt beam="1">  1        2 0.31723842E+00 0.66133861E+03</pdfrwt>
<pdfrwt beam="2">  1       -2 0.90531798E-01 0.66133861E+03</pdfrwt>
<totfact> 0.67753567E+00</totfact>
</mgrwt>
</event>
<event>
 4    2  0.6387803E-007  0.6711193E+03  0.7818608E-02  0.1014873E+00
          2   -1    0    0  501    0  0.00000000000E+00  0.00000000000E+00  0.72921523001E+03  0.72921523001E+03  0.25500000000E-02 0. -1.
         -2   -1    0    0    0  501 -0.00000000000E+00 -0.00000000000E+00 -0.15022032881E+04  0.15022032881E+04  0.25500000000E-02 0.  1.
    8880023    1    1    2    0    0 -0.61219169085E+02  0.11332725670E+03 -0.14111796439E+04  0.15626352894E+04  0.65864270000E+03 0.  0.
    8880022    1    1    2    0    0  0.61219169085E+02 -0.11332725670E+03  0.63819158587E+03  0.66878322875E+03  0.15294330000E+03 0. -1.
<mgrwt>
<rscale>  0 0.49583083E+03</rscale>
<asrwt>0</asrwt>
<pdfrwt beam="1">  1        2 0.11218696E+00 0.67111926E+03</pdfrwt>
<pdfrwt beam="2">  1       -2 0.23110820E+00 0.67111926E+03</pdfrwt>
<totfact> 0.34008258E+00</totfact>
</mgrwt>
</event>
<event>
 4    2  0.6387803E-007  0.7554292E+03  0.7818608E-02  0.9817088E-01
          2   -1    0    0  501    0  0.00000000000E+00  0.00000000000E+00  0.12057401411E+04  0.12057401411E+04  0.25500000000E-02 0. -1.
         -2   -1    0    0    0  501 -0.00000000000E+00 -0.00000000000E+00 -0.92700044097E+03  0.92700044098E+03  0.25500000000E-02 0.  1.
    8880023    1    1    2    0    0  0.39025057476E+02  0.36788590745E+03 -0.72812779559E+03  0.10492107934E+04  0.65864270000E+03 0.  0.
    8880022    1    1    2    0    0 -0.39025057476E+02 -0.36788590745E+03  0.10068674958E+04  0.10835297887E+04  0.15294330000E+03 0.  0.
<mgrwt>
<rscale>  0 0.64453519E+03</rscale>
<asrwt>0</asrwt>
<pdfrwt beam="1">  1        2 0.18549848E+00 0.75542915E+03</pdfrwt>
<pdfrwt beam="2">  1       -2 0.14261545E+00 0.75542915E+03</pdfrwt>
<totfact> 0.65608070E+00</totfact>
</mgrwt>
</event>
<event>
 4    2  0.6387803E-007  0.7558587E+03  0.7818608E-02  0.9815949E-01
         -2   -1    0    0    0  501 -0.00000000000E+00  0.00000000000E+00  0.49642921760E+03  0.49642921760E+03  0.25500000000E-02 0.  1.
          2   -1    0    0  501    0  0.00000000000E+00 -0.00000000000E+00 -0.14713190464E+04  0.14713190464E+04  0.25500000000E-02 0. -1.
    8880023    1    1    2    0    0  0.32471047795E+03 -0.17909585919E+03  0.15252969885E+03  0.77109515403E+03  0.65864270000E+03 0.  1.
    8880022    1    1    2    0    0 -0.32471047795E+03  0.17909585919E+03 -0.11274195277E+04  0.11966531100E+04  0.15294330000E+03 0. -1.
<mgrwt>
<rscale>  0 0.64513602E+03</rscale>
<asrwt>0</asrwt>
<pdfrwt beam="1">  1        2 0.22635677E+00 0.75585874E+03</pdfrwt>
<pdfrwt beam="2">  1       -2 0.76373727E-01 0.75585874E+03</pdfrwt>
<totfact> 0.20668207E+01</totfact>
</mgrwt>
</event>
<event>
 4    2  0.6387803E-007  0.7002684E+03  0.7818608E-02  0.9996089E-01
          2   -1    0    0  501    0  0.00000000000E+00  0.00000000000E+00  0.26545272466E+04  0.26545272466E+04  0.25500000000E-02 0. -1.
         -2   -1    0    0    0  501 -0.00000000000E+00 -0.00000000000E+00 -0.31042885720E+03  0.31042885721E+03  0.25500000000E-02 0.  1.
    8880023    1    1    2    0    0  0.22008433431E+03 -0.90158435995E+02  0.10502738643E+03  0.70810071032E+03  0.65864270000E+03 0.  1.
    8880022    1    1    2    0    0 -0.22008433431E+03  0.90158435995E+02  0.22390710030E+04  0.22568553935E+04  0.15294330000E+03 0.  0.
<mgrwt>
<rscale>  0 0.55822037E+03</rscale>
<asrwt>0</asrwt>
<pdfrwt beam="1">  1        2 0.40838881E+00 0.70026842E+03</pdfrwt>
<pdfrwt beam="2">  1       -2 0.47758286E-01 0.70026842E+03</pdfrwt>
<totfact> 0.12458208E+01</totfact>
</mgrwt>
</event>
<event>
 4    2  0.6387803E-007  0.7438678E+03  0.7818608E-02  0.9848820E-01
         -2   -1    0    0    0  501 -0.00000000000E+00  0.00000000000E+00  0.28783990093E+03  0.28783990095E+03  0.25500000000E-02 0.  1.
          2   -1    0    0  501    0  0.00000000000E+00 -0.00000000000E+00 -0.11186570714E+04  0.11186570714E+04  0.25500000000E-02 0. -1.
    8880023    1    1    2    0    0 -0.66882088580E+02  0.33919893018E+03 -0.44740682351E+03  0.86805080496E+03  0.65864270000E+03 0.  0.
    8880022    1    1    2    0    0  0.66882088580E+02 -0.33919893018E+03 -0.38341034698E+03  0.53844616741E+03  0.15294330000E+03 0.  1.
<mgrwt>
<rscale>  0 0.62807101E+03</rscale>
<asrwt>0</asrwt>
<pdfrwt beam="1">  1        2 0.17210109E+00 0.74386782E+03</pdfrwt>
<pdfrwt beam="2">  1       -2 0.44283062E-01 0.74386782E+03</pdfrwt>
<totfact> 0.10411879E+02</totfact>
</mgrwt>
</event>
<event>
 4    2  0.6387803E-007  0.8492289E+03  0.7818608E-02  0.9613018E-01
         -2   -1    0    0    0  501 -0.00000000000E+00  0.00000000000E+00  0.91095659973E+03  0.91095659974E+03  0.25500000000E-02 0.  1.
          2   -1    0    0  501    0  0.00000000000E+00 -0.00000000000E+00 -0.91490125010E+03  0.91490125010E+03  0.25500000000E-02 0. -1.
    8880023    1    1    2    0    0  0.25006743310E+03 -0.47417908557E+03  0.57231782313E+03  0.10240788169E+04  0.65864270000E+03 0.  1.
    8880022    1    1    2    0    0 -0.25006743310E+03  0.47417908557E+03 -0.57626247349E+03  0.80177903294E+03  0.15294330000E+03 0.  0.
<mgrwt>
<rscale>  0 0.76440526E+03</rscale>
<asrwt>0</asrwt>
<pdfrwt beam="1">  1        2 0.14075404E+00 0.84922890E+03</pdfrwt>
<pdfrwt beam="2">  1       -2 0.14014717E+00 0.84922890E+03</pdfrwt>
<totfact> 0.10322227E+01</totfact>
</mgrwt>
</event>
<event>
 4    2  0.6387803E-007  0.7111982E+03  0.7818608E-02  0.9953578E-01
         -2   -1    0    0    0  501 -0.00000000000E+00  0.00000000000E+00  0.27655865984E+03  0.27655865985E+03  0.25500000000E-02 0.  1.
          2   -1    0    0  501    0  0.00000000000E+00 -0.00000000000E+00 -0.31528603722E+04  0.31528603722E+04  0.25500000000E-02 0. -1.
    8880023    1    1    2    0    0 -0.24597567096E+03  0.10718510819E+03 -0.20476401756E+03  0.74008863474E+03  0.65864270000E+03 0.  1.
    8880022    1    1    2    0    0  0.24597567096E+03 -0.10718510819E+03 -0.26715376948E+04  0.26893303973E+04  0.15294330000E+03 0.  0.
<mgrwt>
<rscale>  0 0.57733464E+03</rscale>
<asrwt>0</asrwt>
<pdfrwt beam="1">  1        2 0.48505542E+00 0.71119820E+03</pdfrwt>
<pdfrwt beam="2">  1       -2 0.42547488E-01 0.71119820E+03</pdfrwt>
<totfact> 0.78505531E+00</totfact>
</mgrwt>
</event>
<event>
 4    2  0.6387803E-007  0.6848644E+03  0.7818608E-02  0.1006696E+00
          2   -1    0    0  501    0  0.00000000000E+00  0.00000000000E+00  0.17148505894E+04  0.17148505894E+04  0.25500000000E-02 0. -1.
         -2   -1    0    0    0  501 -0.00000000000E+00 -0.00000000000E+00 -0.83086803930E+03  0.83086803930E+03  0.25500000000E-02 0.  1.
    8880023    1    1    2    0    0 -0.17784898820E+03 -0.59989283896E+02 -0.67881550282E+03  0.96427676002E+03  0.65864270000E+03 0.  1.
    8880022    1    1    2    0    0  0.17784898820E+03  0.59989283896E+02  0.15627980530E+04  0.15814418687E+04  0.15294330000E+03 0.  0.
<mgrwt>
<rscale>  0 0.52809217E+03</rscale>
<asrwt>0</asrwt>
<pdfrwt beam="1">  1        2 0.26382317E+00 0.68486435E+03</pdfrwt>
<pdfrwt beam="2">  1       -2 0.12782585E+00 0.68486435E+03</pdfrwt>
<totfact> 0.45404860E+00</totfact>
</mgrwt>
</event>
<event>
 4    2  0.6387803E-007  0.6639695E+03  0.7818608E-02  0.1020414E+00
          2   -1    0    0  501    0  0.00000000000E+00  0.00000000000E+00  0.41520128624E+03  0.41520128625E+03  0.25500000000E-02 0. -1.
         -2   -1    0    0    0  501 -0.00000000000E+00 -0.00000000000E+00 -0.74821779861E+03  0.74821779861E+03  0.25500000000E-02 0.  1.
    8880023    1    1    2    0    0 -0.67974111993E+02 -0.49242694781E+02 -0.56591764774E+03  0.87242094953E+03  0.65864270000E+03 0.  1.
    8880022    1    1    2    0    0  0.67974111993E+02  0.49242694781E+02  0.23290113538E+03  0.29099813533E+03  0.15294330000E+03 0.  0.
<mgrwt>
<rscale>  0 0.47537495E+03</rscale>
<asrwt>0</asrwt>
<pdfrwt beam="1">  1        2 0.63877121E-01 0.66396952E+03</pdfrwt>
<pdfrwt beam="2">  1       -2 0.11511043E+00 0.66396952E+03</pdfrwt>
<totfact> 0.45624589E+01</totfact>
</mgrwt>
</event>
<event>
 4    2  0.6387803E-007  0.6590085E+03  0.7818608E-02  0.1025196E+00
          2   -1    0    0  501    0  0.00000000000E+00  0.00000000000E+00  0.70270397878E+03  0.70270397879E+03  0.25500000000E-02 0. -1.
         -2   -1    0    0    0  501 -0.00000000000E+00 -0.00000000000E+00 -0.41004449943E+03  0.41004449944E+03  0.25500000000E-02 0.  1.
    8880023    1    1    2    0    0 -0.19075361607E+02  0.10866357283E+02 -0.12202798060E+03  0.67021114692E+03  0.65864270000E+03 0.  1.
    8880022    1    1    2    0    0  0.19075361607E+02 -0.10866357283E+02  0.41468745995E+03  0.44253733131E+03  0.15294330000E+03 0.  0.
<mgrwt>
<rscale>  0 0.45857247E+03</rscale>
<asrwt>0</asrwt>
<pdfrwt beam="1">  1        2 0.10810830E+00 0.65900846E+03</pdfrwt>
<pdfrwt beam="2">  1       -2 0.63083769E-01 0.65900846E+03</pdfrwt>
<totfact> 0.96635632E+01</totfact>
</mgrwt>
</event>
<event>
 4    2  0.6387803E-007  0.7478075E+03  0.7818608E-02  0.9837762E-01
          2   -1    0    0  501    0  0.00000000000E+00  0.00000000000E+00  0.11346539324E+04  0.11346539324E+04  0.25500000000E-02 0. -1.
         -2   -1    0    0    0  501 -0.00000000000E+00 -0.00000000000E+00 -0.39606121854E+03  0.39606121855E+03  0.25500000000E-02 0.  1.
    8880023    1    1    2    0    0 -0.22426279617E+03 -0.27406563967E+03  0.60079685642E+02  0.75021700293E+03  0.65864270000E+03 0.  0.
    8880022    1    1    2    0    0  0.22426279617E+03  0.27406563967E+03  0.67851302819E+03  0.78049814801E+03  0.15294330000E+03 0.  0.
<mgrwt>
<rscale>  0 0.63374824E+03</rscale>
<asrwt>0</asrwt>
<pdfrwt beam="1">  1        2 0.17456214E+00 0.74780745E+03</pdfrwt>
<pdfrwt beam="2">  1       -2 0.60932495E-01 0.74780745E+03</pdfrwt>
<totfact> 0.52881717E+01</totfact>
</mgrwt>
</event>
<event>
 4    2  0.6387803E-007  0.7168461E+03  0.7818608E-02  0.9933406E-01
         -2   -1    0    0    0  501 -0.00000000000E+00  0.00000000000E+00  0.63464134308E+03  0.63464134308E+03  0.25500000000E-02 0.  1.
          2   -1    0    0  501    0  0.00000000000E+00 -0.00000000000E+00 -0.11912658708E+04  0.11912658708E+04  0.25500000000E-02 0. -1.
    8880023    1    1    2    0    0 -0.16505711159E+02 -0.28246363962E+03  0.39704590224E+03  0.81945945657E+03  0.65864270000E+03 0.  1.
    8880022    1    1    2    0    0  0.16505711159E+02  0.28246363962E+03 -0.95367043000E+03  0.10064477574E+04  0.15294330000E+03 0.  0.
<mgrwt>
<rscale>  0 0.58669266E+03</rscale>
<asrwt>0</asrwt>
<pdfrwt beam="1">  1        2 0.18327167E+00 0.71684611E+03</pdfrwt>
<pdfrwt beam="2">  1       -2 0.97637130E-01 0.71684611E+03</pdfrwt>
<totfact> 0.17141820E+01</totfact>
</mgrwt>
</event>
<event>
 4    2  0.6387803E-007  0.8109899E+03  0.7818608E-02  0.9687519E-01
          2   -1    0    0  501    0  0.00000000000E+00  0.00000000000E+00  0.13837628264E+04  0.13837628264E+04  0.25500000000E-02 0. -1.
         -2   -1    0    0    0  501 -0.00000000000E+00 -0.00000000000E+00 -0.79524148851E+03  0.79524148851E+03  0.25500000000E-02 0.  1.
    8880023    1    1    2    0    0 -0.20062707000E+03  0.42853605344E+03 -0.52046242875E+03  0.96363152518E+03  0.65864270000E+03 0.  1.
    8880022    1    1    2    0    0  0.20062707000E+03 -0.42853605344E+03  0.11089837667E+04  0.12153727897E+04  0.15294330000E+03 0.  0.
<mgrwt>
<rscale>  0 0.71764807E+03</rscale>
<asrwt>0</asrwt>
<pdfrwt beam="1">  1        2 0.21288659E+00 0.81098987E+03</pdfrwt>
<pdfrwt beam="2">  1       -2 0.12234484E+00 0.81098987E+03</pdfrwt>
<totfact> 0.75911940E+00</totfact>
</mgrwt>
</event>
<event>
 4    2  0.6387803E-007  0.6756381E+03  0.7818608E-02  0.1011907E+00
          2   -1    0    0  501    0  0.00000000000E+00  0.00000000000E+00  0.14280777865E+04  0.14280777865E+04  0.25500000000E-02 0. -1.
         -2   -1    0    0    0  501 -0.00000000000E+00 -0.00000000000E+00 -0.19710439775E+03  0.19710439776E+03  0.25500000000E-02 0.  1.
    8880023    1    1    2    0    0  0.13653158874E+03  0.63527710657E+02  0.44161223380E+03  0.80716058876E+03  0.65864270000E+03 0.  1.
    8880022    1    1    2    0    0 -0.13653158874E+03 -0.63527710657E+02  0.78936115495E+03  0.81802159550E+03  0.15294330000E+03 0.  0.
<mgrwt>
<rscale>  0 0.50723694E+03</rscale>
<asrwt>0</asrwt>
<pdfrwt beam="1">  1        2 0.21970427E+00 0.67563811E+03</pdfrwt>
<pdfrwt beam="2">  1       -2 0.30323753E-01 0.67563811E+03</pdfrwt>
<totfact> 0.14319133E+02</totfact>
</mgrwt>
</event>
<event>
 4    2  0.6387803E-007  0.7525887E+03  0.7818608E-02  0.9824687E-01
          2   -1    0    0  501    0  0.00000000000E+00  0.00000000000E+00  0.89945350895E+03  0.89945350896E+03  0.25500000000E-02 0. -1.
         -2   -1    0    0    0  501 -0.00000000000E+00 -0.00000000000E+00 -0.78837189101E+03  0.78837189101E+03  0.25500000000E-02 0.  1.
    8880023    1    1    2    0    0 -0.22362235683E+03 -0.28735454719E+03 -0.54003509057E+03  0.92629784604E+03  0.65864270000E+03 0.  1.
    8880022    1    1    2    0    0  0.22362235683E+03  0.28735454719E+03  0.65111670852E+03  0.76152755393E+03  0.15294330000E+03 0.  0.
<mgrwt>
<rscale>  0 0.64054383E+03</rscale>
<asrwt>0</asrwt>
<pdfrwt beam="1">  1        2 0.13837746E+00 0.75258873E+03</pdfrwt>
<pdfrwt beam="2">  1       -2 0.12128798E+00 0.75258873E+03</pdfrwt>
<totfact> 0.15409168E+01</totfact>
</mgrwt>
</event>
<event>
 4    2  0.6387803E-007  0.1058407E+04  0.7818608E-02  0.9308843E-01
         -2   -1    0    0    0  501 -0.00000000000E+00  0.00000000000E+00  0.59533809603E+03  0.59533809604E+03  0.25500000000E-02 0.  1.
          2   -1    0    0  501    0  0.00000000000E+00 -0.00000000000E+00 -0.25002581394E+04  0.25002581394E+04  0.25500000000E-02 0. -1.
    8880023    1    1    2    0    0  0.73337689817E+03  0.38545239788E+03 -0.51480975385E+02  0.10596583048E+04  0.65864270000E+03 0.  0.
    8880022    1    1    2    0    0 -0.73337689817E+03 -0.38545239788E+03 -0.18534390680E+04  0.20359379307E+04  0.15294330000E+03 0.  0.
<mgrwt>
<rscale>  0 0.99972847E+03</rscale>
<asrwt>0</asrwt>
<pdfrwt beam="1">  1        2 0.38465509E+00 0.10584070E+04</pdfrwt>
<pdfrwt beam="2">  1       -2 0.91590478E-01 0.10584070E+04</pdfrwt>
<totfact> 0.35366555E+00</totfact>
</mgrwt>
</event>
<event>
 4    2  0.6387803E-007  0.8794808E+03  0.7818608E-02  0.9559808E-01
          2   -1    0    0  501    0  0.00000000000E+00  0.00000000000E+00  0.89500986493E+03  0.89500986494E+03  0.25500000000E-02 0. -1.
         -2   -1    0    0    0  501 -0.00000000000E+00 -0.00000000000E+00 -0.70481728310E+03  0.70481728311E+03  0.25500000000E-02 0.  1.
    8880023    1    1    2    0    0 -0.68045022704E+02  0.57883172270E+03  0.39405299654E+03  0.96372416109E+03  0.65864270000E+03 0.  0.
    8880022    1    1    2    0    0  0.68045022704E+02 -0.57883172270E+03 -0.20386041470E+03  0.63610298696E+03  0.15294330000E+03 0.  0.
<mgrwt>
<rscale>  0 0.80014420E+03</rscale>
<asrwt>0</asrwt>
<pdfrwt beam="1">  1        2 0.13769383E+00 0.87948081E+03</pdfrwt>
<pdfrwt beam="2">  1       -2 0.10843343E+00 0.87948081E+03</pdfrwt>
<totfact> 0.20168003E+01</totfact>
</mgrwt>
</event>
<event>
 4    2  0.6387803E-007  0.7128670E+03  0.7818608E-02  0.9947505E-01
          2   -1    0    0  501    0  0.00000000000E+00  0.00000000000E+00  0.14700018983E+04  0.14700018983E+04  0.25500000000E-02 0. -1.
         -2   -1    0    0    0  501 -0.00000000000E+00 -0.00000000000E+00 -0.48214515907E+03  0.48214515908E+03  0.25500000000E-02 0.  1.
    8880023    1    1    2    0    0 -0.21579046398E+03 -0.16674400711E+03 -0.18651686226E+03  0.73686351139E+03  0.65864270000E+03 0.  0.
    8880022    1    1    2    0    0  0.21579046398E+03  0.16674400711E+03  0.11743736015E+04  0.12152835460E+04  0.15294330000E+03 0. -1.
<mgrwt>
<rscale>  0 0.58013214E+03</rscale>
<asrwt>0</asrwt>
<pdfrwt beam="1">  1        2 0.22615413E+00 0.71286695E+03</pdfrwt>
<pdfrwt beam="2">  1       -2 0.74176180E-01 0.71286695E+03</pdfrwt>
<totfact> 0.22204418E+01</totfact>
</mgrwt>
</event>
<event>
 4    2  0.6387803E-007  0.6731607E+03  0.7818608E-02  0.1013492E+00
         -2   -1    0    0    0  501 -0.00000000000E+00  0.00000000000E+00  0.28984073123E+03  0.28984073124E+03  0.25500000000E-02 0.  1.
          2   -1    0    0  501    0  0.00000000000E+00 -0.00000000000E+00 -0.10270246793E+04  0.10270246793E+04  0.25500000000E-02 0. -1.
    8880023    1    1    2    0    0 -0.91999732902E+02 -0.10426483212E+03 -0.14358135557E+03  0.68830292604E+03  0.65864270000E+03 0.  1.
    8880022    1    1    2    0    0  0.91999732902E+02  0.10426483212E+03 -0.59360259251E+03  0.62856248450E+03  0.15294330000E+03 0.  0.
<mgrwt>
<rscale>  0 0.50110248E+03</rscale>
<asrwt>0</asrwt>
<pdfrwt beam="1">  1        2 0.15800379E+00 0.67316069E+03</pdfrwt>
<pdfrwt beam="2">  1       -2 0.44590882E-01 0.67316069E+03</pdfrwt>
<totfact> 0.11763148E+02</totfact>
</mgrwt>
</event>
<event>
 4    2  0.6387803E-007  0.7331256E+03  0.7818608E-02  0.9880444E-01
         -2   -1    0    0    0  501 -0.00000000000E+00  0.00000000000E+00  0.10889319418E+04  0.10889319418E+04  0.25500000000E-02 0.  1.
          2   -1    0    0  501    0  0.00000000000E+00 -0.00000000000E+00 -0.73008823663E+03  0.73008823663E+03  0.25500000000E-02 0. -1.
    8880023    1    1    2    0    0 -0.22133570357E+03 -0.23382352709E+03  0.90633142042E+03  0.11657228596E+04  0.65864270000E+03 0.  1.
    8880022    1    1    2    0    0  0.22133570357E+03  0.23382352709E+03 -0.54748771522E+03  0.65329731886E+03  0.15294330000E+03 0. -1.
<mgrwt>
<rscale>  0 0.61218486E+03</rscale>
<asrwt>0</asrwt>
<pdfrwt beam="1">  1        2 0.11232127E+00 0.73312560E+03</pdfrwt>
<pdfrwt beam="2">  1       -2 0.16752799E+00 0.73312560E+03</pdfrwt>
<totfact> 0.87833672E+00</totfact>
</mgrwt>
</event>
<event>
 4    2  0.6387803E-007  0.7576667E+03  0.7818608E-02  0.9811186E-01
          2   -1    0    0  501    0  0.00000000000E+00  0.00000000000E+00  0.28445366223E+04  0.28445366223E+04  0.25500000000E-02 0. -1.
         -2   -1    0    0    0  501 -0.00000000000E+00 -0.00000000000E+00 -0.29894629530E+03  0.29894629531E+03  0.25500000000E-02 0.  1.
    8880023    1    1    2    0    0  0.11190769107E+03 -0.35738670549E+03  0.22853853309E+03  0.79138401295E+03  0.65864270000E+03 0.  1.
    8880022    1    1    2    0    0 -0.11190769107E+03  0.35738670549E+03  0.23170517939E+04  0.23520989046E+04  0.15294330000E+03 0.  0.
<mgrwt>
<rscale>  0 0.64765676E+03</rscale>
<asrwt>0</asrwt>
<pdfrwt beam="1">  1        2 0.43762103E+00 0.75766668E+03</pdfrwt>
<pdfrwt beam="2">  1       -2 0.45991737E-01 0.75766668E+03</pdfrwt>
<totfact> 0.10294394E+01</totfact>
</mgrwt>
</event>
<event>
 4    2  0.6387803E-007  0.7268408E+03  0.7818608E-02  0.9900084E-01
          2   -1    0    0  501    0  0.00000000000E+00  0.00000000000E+00  0.26292085563E+04  0.26292085563E+04  0.25500000000E-02 0. -1.
         -2   -1    0    0    0  501 -0.00000000000E+00 -0.00000000000E+00 -0.11688174501E+03  0.11688174503E+03  0.25500000000E-02 0.  1.
    8880023    1    1    2    0    0 -0.45135957620E+02  0.30405603706E+03  0.20122470362E+04  0.21394942555E+04  0.65864270000E+03 0. -1.
    8880022    1    1    2    0    0  0.45135957620E+02 -0.30405603706E+03  0.50007977504E+03  0.60659604578E+03  0.15294330000E+03 0.  1.
<mgrwt>
<rscale>  0 0.60257210E+03</rscale>
<asrwt>0</asrwt>
<pdfrwt beam="1">  1        2 0.40449356E+00 0.72684079E+03</pdfrwt>
<pdfrwt beam="2">  1       -2 0.17981810E-01 0.72684079E+03</pdfrwt>
<totfact> 0.78572182E+01</totfact>
</mgrwt>
</event>
<event>
 4    2  0.6387803E-007  0.8174656E+03  0.7818608E-02  0.9674231E-01
         -2   -1    0    0    0  501 -0.00000000000E+00  0.00000000000E+00  0.15835187588E+04  0.15835187588E+04  0.25500000000E-02 0.  1.
          2   -1    0    0  501    0  0.00000000000E+00 -0.00000000000E+00 -0.72562439554E+03  0.72562439554E+03  0.25500000000E-02 0. -1.
    8880023    1    1    2    0    0  0.47968905207E+03  0.65865479362E+02  0.13652912953E+04  0.15913108984E+04  0.65864270000E+03 0.  1.
    8880022    1    1    2    0    0 -0.47968905207E+03 -0.65865479362E+02 -0.50739693203E+03  0.71783225596E+03  0.15294330000E+03 0.  0.
<mgrwt>
<rscale>  0 0.72572005E+03</rscale>
<asrwt>0</asrwt>
<pdfrwt beam="1">  1        2 0.11163452E+00 0.81746563E+03</pdfrwt>
<pdfrwt beam="2">  1       -2 0.24361827E+00 0.81746563E+03</pdfrwt>
<totfact> 0.28077230E+00</totfact>
</mgrwt>
</event>
<event>
 4    2  0.6387803E-007  0.7145158E+03  0.7818608E-02  0.9941599E-01
          2   -1    0    0  501    0  0.00000000000E+00  0.00000000000E+00  0.12243689135E+04  0.12243689135E+04  0.25500000000E-02 0. -1.
         -2   -1    0    0    0  501 -0.00000000000E+00 -0.00000000000E+00 -0.77264995045E+03  0.77264995046E+03  0.25500000000E-02 0.  1.
    8880023    1    1    2    0    0  0.27621802071E+03 -0.20644350867E+02 -0.57847536459E+03  0.91932939575E+03  0.65864270000E+03 0.  1.
    8880022    1    1    2    0    0 -0.27621802071E+03  0.20644350867E+02  0.10301943276E+04  0.10776894682E+04  0.15294330000E+03 0.  0.
<mgrwt>
<rscale>  0 0.58286885E+03</rscale>
<asrwt>0</asrwt>
<pdfrwt beam="1">  1        2 0.18836445E+00 0.71451577E+03</pdfrwt>
<pdfrwt beam="2">  1       -2 0.11886922E+00 0.71451577E+03</pdfrwt>
<totfact> 0.10205254E+01</totfact>
</mgrwt>
</event>
<event>
 4    2  0.6387803E-007  0.8252286E+03  0.7818608E-02  0.9658688E-01
         -2   -1    0    0    0  501 -0.00000000000E+00  0.00000000000E+00  0.33201353348E+03  0.33201353349E+03  0.25500000000E-02 0.  1.
          2   -1    0    0  501    0  0.00000000000E+00 -0.00000000000E+00 -0.14672365634E+04  0.14672365634E+04  0.25500000000E-02 0. -1.
    8880023    1    1    2    0    0  0.48457533899E+03  0.11125962997E+03 -0.45315656130E+03  0.94146324396E+03  0.65864270000E+03 0.  1.
    8880022    1    1    2    0    0 -0.48457533899E+03 -0.11125962997E+03 -0.68206646857E+03  0.85778685289E+03  0.15294330000E+03 0. -1.
<mgrwt>
<rscale>  0 0.73530645E+03</rscale>
<asrwt>0</asrwt>
<pdfrwt beam="1">  1        2 0.22572870E+00 0.82522856E+03</pdfrwt>
<pdfrwt beam="2">  1       -2 0.51079006E-01 0.82522856E+03</pdfrwt>
<totfact> 0.48649104E+01</totfact>
</mgrwt>
</event>
<event>
 4    2  0.6387803E-007  0.7015235E+03  0.7818608E-02  0.9990939E-01
          2   -1    0    0  501    0  0.00000000000E+00  0.00000000000E+00  0.55535735285E+03  0.55535735286E+03  0.25500000000E-02 0. -1.
         -2   -1    0    0    0  501 -0.00000000000E+00 -0.00000000000E+00 -0.46720575989E+03  0.46720575990E+03  0.25500000000E-02 0.  1.
    8880023    1    1    2    0    0 -0.18143745373E+03 -0.15939090623E+03  0.17645280375E+03  0.72337459785E+03  0.65864270000E+03 0.  0.
    8880022    1    1    2    0    0  0.18143745373E+03  0.15939090623E+03 -0.88301210789E+02  0.29918851490E+03  0.15294330000E+03 0.  0.
<mgrwt>
<rscale>  0 0.56049339E+03</rscale>
<asrwt>0</asrwt>
<pdfrwt beam="1">  1        2 0.85439593E-01 0.70152350E+03</pdfrwt>
<pdfrwt beam="2">  1       -2 0.71877809E-01 0.70152350E+03</pdfrwt>
<totfact> 0.96810064E+01</totfact>
</mgrwt>
</event>
<event>
 4    2  0.6387803E-007  0.7039150E+03  0.7818608E-02  0.9981332E-01
         -2   -1    0    0    0  501 -0.00000000000E+00  0.00000000000E+00  0.19464372070E+03  0.19464372072E+03  0.25500000000E-02 0.  1.
          2   -1    0    0  501    0  0.00000000000E+00 -0.00000000000E+00 -0.12762796275E+04  0.12762796275E+04  0.25500000000E-02 0. -1.
    8880023    1    1    2    0    0 -0.17240420032E+03  0.17878183696E+03 -0.79756231805E+03  0.10637678370E+04  0.65864270000E+03 0.  1.
    8880022    1    1    2    0    0  0.17240420032E+03 -0.17878183696E+03 -0.28407358876E+03  0.40715551127E+03  0.15294330000E+03 0.  0.
<mgrwt>
<rscale>  0 0.56476427E+03</rscale>
<asrwt>0</asrwt>
<pdfrwt beam="1">  1        2 0.19635071E+00 0.70391502E+03</pdfrwt>
<pdfrwt beam="2">  1       -2 0.29945189E-01 0.70391502E+03</pdfrwt>
<totfact> 0.17840265E+02</totfact>
</mgrwt>
</event>
<event>
 4    2  0.6387803E-007  0.6718262E+03  0.7818608E-02  0.1014386E+00
          2   -1    0    0  501    0  0.00000000000E+00  0.00000000000E+00  0.18769048322E+04  0.18769048322E+04  0.25500000000E-02 0. -1.
         -2   -1    0    0    0  501 -0.00000000000E+00 -0.00000000000E+00 -0.88044596176E+03  0.88044596177E+03  0.25500000000E-02 0.  1.
    8880023    1    1    2    0    0 -0.15315487522E+02  0.13155113441E+03 -0.74557396342E+03  0.10036089907E+04  0.65864270000E+03 0.  1.
    8880022    1    1    2    0    0  0.15315487522E+02 -0.13155113441E+03  0.17420328339E+04  0.17537418033E+04  0.15294330000E+03 0.  0.
<mgrwt>
<rscale>  0 0.49768033E+03</rscale>
<asrwt>0</asrwt>
<pdfrwt beam="1">  1        2 0.28875459E+00 0.67182622E+03</pdfrwt>
<pdfrwt beam="2">  1       -2 0.13545323E+00 0.67182622E+03</pdfrwt>
<totfact> 0.32084538E+00</totfact>
</mgrwt>
</event>
<event>
 4    2  0.6387803E-007  0.1180896E+04  0.7818608E-02  0.9175920E-01
         -2   -1    0    0    0  501 -0.00000000000E+00  0.00000000000E+00  0.42024291179E+03  0.42024291179E+03  0.25500000000E-02 0.  1.
          2   -1    0    0  501    0  0.00000000000E+00 -0.00000000000E+00 -0.34554106769E+04  0.34554106769E+04  0.25500000000E-02 0. -1.
    8880023    1    1    2    0    0 -0.32309621736E+03 -0.92537224911E+03 -0.78913136674E+03  0.14202969708E+04  0.65864270000E+03 0.  1.
    8880022    1    1    2    0    0  0.32309621736E+03  0.92537224911E+03 -0.22460363984E+04  0.24553566179E+04  0.15294330000E+03 0.  0.
<mgrwt>
<rscale>  0 0.11305465E+04</rscale>
<asrwt>0</asrwt>
<pdfrwt beam="1">  1        2 0.53160162E+00 0.11808959E+04</pdfrwt>
<pdfrwt beam="2">  1       -2 0.64652758E-01 0.11808959E+04</pdfrwt>
<totfact> 0.19429532E+00</totfact>
</mgrwt>
</event>
<event>
 4    2  0.6387803E-007  0.7205596E+03  0.7818608E-02  0.9920697E-01
         -2   -1    0    0    0  501 -0.00000000000E+00  0.00000000000E+00  0.35776758247E+03  0.35776758248E+03  0.25500000000E-02 0.  1.
          2   -1    0    0  501    0  0.00000000000E+00 -0.00000000000E+00 -0.13352768170E+04  0.13352768170E+04  0.25500000000E-02 0. -1.
    8880023    1    1    2    0    0  0.11214469243E+03  0.26985089809E+03 -0.65858844489E+02  0.72356308149E+03  0.65864270000E+03 0.  1.
    8880022    1    1    2    0    0 -0.11214469243E+03 -0.26985089809E+03 -0.91165039001E+03  0.96948131795E+03  0.15294330000E+03 0.  0.
<mgrwt>
<rscale>  0 0.59268625E+03</rscale>
<asrwt>0</asrwt>
<pdfrwt beam="1">  1        2 0.20542720E+00 0.72055961E+03</pdfrwt>
<pdfrwt beam="2">  1       -2 0.55041167E-01 0.72055961E+03</pdfrwt>
<totfact> 0.50046164E+01</totfact>
</mgrwt>
</event>
<event>
 4    2  0.6387803E-007  0.7641331E+03  0.7818608E-02  0.9794523E-01
          2   -1    0    0  501    0  0.00000000000E+00  0.00000000000E+00  0.11515518306E+04  0.11515518306E+04  0.25500000000E-02 0. -1.
         -2   -1    0    0    0  501 -0.00000000000E+00 -0.00000000000E+00 -0.74345620488E+03  0.74345620488E+03  0.25500000000E-02 0.  1.
    8880023    1    1    2    0    0  0.27973702991E+03 -0.26802303476E+03 -0.48812312018E+03  0.90673234187E+03  0.65864270000E+03 0.  0.
    8880022    1    1    2    0    0 -0.27973702991E+03  0.26802303476E+03  0.89621874593E+03  0.98827569364E+03  0.15294330000E+03 0.  0.
<mgrwt>
<rscale>  0 0.65657324E+03</rscale>
<asrwt>0</asrwt>
<pdfrwt beam="1">  1        2 0.17716182E+00 0.76413308E+03</pdfrwt>
<pdfrwt beam="2">  1       -2 0.11437788E+00 0.76413308E+03</pdfrwt>
<totfact> 0.12312938E+01</totfact>
</mgrwt>
</event>
<event>
 4    2  0.6387803E-007  0.8656273E+03  0.7818608E-02  0.9583631E-01
          2   -1    0    0  501    0  0.00000000000E+00  0.00000000000E+00  0.78226924880E+03  0.78226924881E+03  0.25500000000E-02 0. -1.
         -2   -1    0    0    0  501 -0.00000000000E+00 -0.00000000000E+00 -0.18684862734E+04  0.18684862734E+04  0.25500000000E-02 0.  1.
    8880023    1    1    2    0    0 -0.56166467564E+03 -0.57690903099E+01 -0.16354532531E+04  0.18504102355E+04  0.65864270000E+03 0.  0.
    8880022    1    1    2    0    0  0.56166467564E+03  0.57690903099E+01  0.54923622850E+03  0.80034528672E+03  0.15294330000E+03 0.  0.
<mgrwt>
<rscale>  0 0.78389142E+03</rscale>
<asrwt>0</asrwt>
<pdfrwt beam="1">  1        2 0.12034912E+00 0.86562734E+03</pdfrwt>
<pdfrwt beam="2">  1       -2 0.28745943E+00 0.86562734E+03</pdfrwt>
<totfact> 0.13745875E+00</totfact>
</mgrwt>
</event>
<event>
 4    2  0.6387803E-007  0.7189495E+03  0.7818608E-02  0.9926156E-01
         -2   -1    0    0    0  501 -0.00000000000E+00  0.00000000000E+00  0.53609147764E+03  0.53609147765E+03  0.25500000000E-02 0.  1.
          2   -1    0    0  501    0  0.00000000000E+00 -0.00000000000E+00 -0.54262479382E+03  0.54262479382E+03  0.25500000000E-02 0. -1.
    8880023    1    1    2    0    0  0.22760176664E+03  0.17684932551E+03  0.11971205850E+03  0.72884801662E+03  0.65864270000E+03 0.  1.
    8880022    1    1    2    0    0 -0.22760176664E+03 -0.17684932551E+03 -0.12624537467E+03  0.34986825485E+03  0.15294330000E+03 0.  0.
<mgrwt>
<rscale>  0 0.59010211E+03</rscale>
<asrwt>0</asrwt>
<pdfrwt beam="1">  1        2 0.83480738E-01 0.71894955E+03</pdfrwt>
<pdfrwt beam="2">  1       -2 0.82475612E-01 0.71894955E+03</pdfrwt>
<totfact> 0.73159586E+01</totfact>
</mgrwt>
</event>
<event>
 4    2  0.6387803E-007  0.8226005E+03  0.7818608E-02  0.9663905E-01
          2   -1    0    0  501    0  0.00000000000E+00  0.00000000000E+00  0.22590257509E+04  0.22590257509E+04  0.25500000000E-02 0. -1.
         -2   -1    0    0    0  501 -0.00000000000E+00 -0.00000000000E+00 -0.37759296431E+03  0.37759296432E+03  0.25500000000E-02 0.  1.
    8880023    1    1    2    0    0 -0.59807912955E+00 -0.49280925776E+03  0.15804980810E+03  0.83764626802E+03  0.65864270000E+03 0.  1.
    8880022    1    1    2    0    0  0.59807912955E+00  0.49280925776E+03  0.17233829785E+04  0.17989724472E+04  0.15294330000E+03 0.  0.
<mgrwt>
<rscale>  0 0.73207154E+03</rscale>
<asrwt>0</asrwt>
<pdfrwt beam="1">  1        2 0.34754242E+00 0.82260047E+03</pdfrwt>
<pdfrwt beam="2">  1       -2 0.58091225E-01 0.82260047E+03</pdfrwt>
<totfact> 0.13662231E+01</totfact>
</mgrwt>
</event>
<event>
 4    2  0.6387803E-007  0.9069739E+03  0.7818608E-02  0.9514928E-01
          2   -1    0    0  501    0  0.00000000000E+00  0.00000000000E+00  0.72400362070E+03  0.72400362070E+03  0.25500000000E-02 0. -1.
         -2   -1    0    0    0  501 -0.00000000000E+00 -0.00000000000E+00 -0.12181779778E+04  0.12181779778E+04  0.25500000000E-02 0.  1.
    8880023    1    1    2    0    0 -0.62064252247E+03  0.59953110608E+02 -0.81956967724E+03  0.12224140781E+04  0.65864270000E+03 0.  0.
    8880022    1    1    2    0    0  0.62064252247E+03 -0.59953110608E+02  0.32539532010E+03  0.71976752047E+03  0.15294330000E+03 0.  0.
<mgrwt>
<rscale>  0 0.83192157E+03</rscale>
<asrwt>0</asrwt>
<pdfrwt beam="1">  1        2 0.11138517E+00 0.90697394E+03</pdfrwt>
<pdfrwt beam="2">  1       -2 0.18741200E+00 0.90697394E+03</pdfrwt>
<totfact> 0.63432641E+00</totfact>
</mgrwt>
</event>
<event>
 4    2  0.6387803E-007  0.9790493E+03  0.7818608E-02  0.9409496E-01
         -2   -1    0    0    0  501 -0.00000000000E+00  0.00000000000E+00  0.75148237280E+03  0.75148237281E+03  0.25500000000E-02 0.  1.
          2   -1    0    0  501    0  0.00000000000E+00 -0.00000000000E+00 -0.10964999414E+04  0.10964999414E+04  0.25500000000E-02 0. -1.
    8880023    1    1    2    0    0  0.66570809358E+03 -0.28558720367E+03  0.10005506833E+03  0.98414863701E+03  0.65864270000E+03 0.  0.
    8880022    1    1    2    0    0 -0.66570809358E+03  0.28558720367E+03 -0.44507263696E+03  0.86383367725E+03  0.15294330000E+03 0.  0.
<mgrwt>
<rscale>  0 0.91298317E+03</rscale>
<asrwt>0</asrwt>
<pdfrwt beam="1">  1        2 0.16869230E+00 0.97904930E+03</pdfrwt>
<pdfrwt beam="2">  1       -2 0.11561267E+00 0.97904930E+03</pdfrwt>
<totfact> 0.12676027E+01</totfact>
</mgrwt>
</event>
<event>
 4    2  0.6387803E-007  0.1197576E+04  0.7818608E-02  0.9159482E-01
          2   -1    0    0  501    0  0.00000000000E+00  0.00000000000E+00  0.21823356707E+04  0.21823356707E+04  0.25500000000E-02 0. -1.
         -2   -1    0    0    0  501 -0.00000000000E+00 -0.00000000000E+00 -0.60563698564E+03  0.60563698565E+03  0.25500000000E-02 0.  1.
    8880023    1    1    2    0    0  0.44365443706E+03  0.89640881968E+03  0.12343038227E+04  0.17197948031E+04  0.65864270000E+03 0. -1.
    8880022    1    1    2    0    0 -0.44365443706E+03 -0.89640881968E+03  0.34239486233E+03  0.10681778533E+04  0.15294330000E+03 0.  1.
<mgrwt>
<rscale>  0 0.11481605E+04</rscale>
<asrwt>0</asrwt>
<pdfrwt beam="1">  1        2 0.33574395E+00 0.11975760E+04</pdfrwt>
<pdfrwt beam="2">  1       -2 0.93174921E-01 0.11975760E+04</pdfrwt>
<totfact> 0.50564417E+00</totfact>
</mgrwt>
</event>
<event>
 4    2  0.6387803E-007  0.7068286E+03  0.7818608E-02  0.9969972E-01
          2   -1    0    0  501    0  0.00000000000E+00  0.00000000000E+00  0.82841832313E+03  0.82841832313E+03  0.25500000000E-02 0. -1.
         -2   -1    0    0    0  501 -0.00000000000E+00 -0.00000000000E+00 -0.37586151943E+03  0.37586151944E+03  0.25500000000E-02 0.  1.
    8880023    1    1    2    0    0  0.14115299708E+03 -0.21417830659E+03  0.57666198896E+02  0.70917706700E+03  0.65864270000E+03 0.  1.
    8880022    1    1    2    0    0 -0.14115299708E+03  0.21417830659E+03  0.39489060480E+03  0.49510277557E+03  0.15294330000E+03 0.  0.
<mgrwt>
<rscale>  0 0.56986766E+03</rscale>
<asrwt>0</asrwt>
<pdfrwt beam="1">  1        2 0.12744897E+00 0.70682864E+03</pdfrwt>
<pdfrwt beam="2">  1       -2 0.57824850E-01 0.70682864E+03</pdfrwt>
<totfact> 0.93473659E+01</totfact>
</mgrwt>
</event>
<event>
 4    2  0.6387803E-007  0.8823662E+03  0.7818608E-02  0.9554954E-01
          2   -1    0    0  501    0  0.00000000000E+00  0.00000000000E+00  0.22913714221E+04  0.22913714221E+04  0.25500000000E-02 0. -1.
         -2   -1    0    0    0  501 -0.00000000000E+00 -0.00000000000E+00 -0.32878942092E+03  0.32878942093E+03  0.25500000000E-02 0.  1.
    8880023    1    1    2    0    0  0.19321334646E+03 -0.55446240804E+03  0.17797233121E+04  0.19864504105E+04  0.65864270000E+03 0. -1.
    8880022    1    1    2    0    0 -0.19321334646E+03  0.55446240804E+03  0.18285868905E+03  0.63371043258E+03  0.15294330000E+03 0.  0.
<mgrwt>
<rscale>  0 0.80350762E+03</rscale>
<asrwt>0</asrwt>
<pdfrwt beam="1">  1        2 0.35251869E+00 0.88236623E+03</pdfrwt>
<pdfrwt beam="2">  1       -2 0.50582987E-01 0.88236623E+03</pdfrwt>
<totfact> 0.17324648E+01</totfact>
</mgrwt>
</event>
<event>
 4    2  0.6387803E-007  0.7644635E+03  0.7818608E-02  0.9793686E-01
          2   -1    0    0  501    0  0.00000000000E+00  0.00000000000E+00  0.57034677322E+03  0.57034677322E+03  0.25500000000E-02 0. -1.
         -2   -1    0    0    0  501 -0.00000000000E+00 -0.00000000000E+00 -0.17725366757E+04  0.17725366757E+04  0.25500000000E-02 0.  1.
    8880023    1    1    2    0    0 -0.22014640214E+03 -0.31957756031E+03 -0.15957460720E+04  0.17694095027E+04  0.65864270000E+03 0.  1.
    8880022    1    1    2    0    0  0.22014640214E+03  0.31957756031E+03  0.39355616956E+03  0.57347394626E+03  0.15294330000E+03 0.  0.
<mgrwt>
<rscale>  0 0.65702490E+03</rscale>
<asrwt>0</asrwt>
<pdfrwt beam="1">  1        2 0.87745658E-01 0.76446351E+03</pdfrwt>
<pdfrwt beam="2">  1       -2 0.27269795E+00 0.76446351E+03</pdfrwt>
<totfact> 0.25409569E+00</totfact>
</mgrwt>
</event>
<event>
 4    2  0.6387803E-007  0.6725893E+03  0.7818608E-02  0.1013871E+00
         -2   -1    0    0    0  501 -0.00000000000E+00  0.00000000000E+00  0.75108542628E+03  0.75108542628E+03  0.25500000000E-02 0.  1.
          2   -1    0    0  501    0  0.00000000000E+00 -0.00000000000E+00 -0.16921348997E+04  0.16921348997E+04  0.25500000000E-02 0. -1.
    8880023    1    1    2    0    0  0.13538266823E+03  0.15416460921E+02  0.59232287287E+03  0.89622693896E+03  0.65864270000E+03 0.  1.
    8880022    1    1    2    0    0 -0.13538266823E+03 -0.15416460921E+02 -0.15333723463E+04  0.15469933870E+04  0.15294330000E+03 0.  0.
<mgrwt>
<rscale>  0 0.49964786E+03</rscale>
<asrwt>0</asrwt>
<pdfrwt beam="1">  1        2 0.26032845E+00 0.67258928E+03</pdfrwt>
<pdfrwt beam="2">  1       -2 0.11555160E+00 0.67258928E+03</pdfrwt>
<totfact> 0.60153220E+00</totfact>
</mgrwt>
</event>
<event>
 4    2  0.6387803E-007  0.7598634E+03  0.7818608E-02  0.9805461E-01
         -2   -1    0    0    0  501 -0.00000000000E+00  0.00000000000E+00  0.33985013051E+03  0.33985013052E+03  0.25500000000E-02 0.  1.
          2   -1    0    0  501    0  0.00000000000E+00 -0.00000000000E+00 -0.14112179201E+04  0.14112179201E+04  0.25500000000E-02 0. -1.
    8880023    1    1    2    0    0 -0.36988162697E+03 -0.82278634001E+02 -0.19556048427E+03  0.78462494279E+03  0.65864270000E+03 0.  1.
    8880022    1    1    2    0    0  0.36988162697E+03  0.82278634001E+02 -0.87580730529E+03  0.96644310779E+03  0.15294330000E+03 0.  0.
<mgrwt>
<rscale>  0 0.65070284E+03</rscale>
<asrwt>0</asrwt>
<pdfrwt beam="1">  1        2 0.21711045E+00 0.75986341E+03</pdfrwt>
<pdfrwt beam="2">  1       -2 0.52284636E-01 0.75986341E+03</pdfrwt>
<totfact> 0.50185903E+01</totfact>
</mgrwt>
</event>
<event>
 4    2  0.6387803E-007  0.6644736E+03  0.7818608E-02  0.1019979E+00
          2   -1    0    0  501    0  0.00000000000E+00  0.00000000000E+00  0.80089683937E+03  0.80089683938E+03  0.25500000000E-02 0. -1.
         -2   -1    0    0    0  501 -0.00000000000E+00 -0.00000000000E+00 -0.27710736214E+03  0.27710736215E+03  0.25500000000E-02 0.  1.
    8880023    1    1    2    0    0 -0.87778461173E+02 -0.31470870719E+01  0.17495890750E+03  0.68712137791E+03  0.65864270000E+03 0.  1.
    8880022    1    1    2    0    0  0.87778461173E+02  0.31470870719E+01  0.34883056973E+03  0.39088282362E+03  0.15294330000E+03 0.  0.
<mgrwt>
<rscale>  0 0.47694126E+03</rscale>
<asrwt>0</asrwt>
<pdfrwt beam="1">  1        2 0.12321490E+00 0.66447360E+03</pdfrwt>
<pdfrwt beam="2">  1       -2 0.42631902E-01 0.66447360E+03</pdfrwt>
<totfact> 0.18208444E+02</totfact>
</mgrwt>
</event>
<event>
 4    2  0.6387803E-007  0.9283505E+03  0.7818608E-02  0.9481972E-01
          2   -1    0    0  501    0  0.00000000000E+00  0.00000000000E+00  0.16860817453E+04  0.16860817453E+04  0.25500000000E-02 0. -1.
         -2   -1    0    0    0  501 -0.00000000000E+00 -0.00000000000E+00 -0.58558246433E+03  0.58558246433E+03  0.25500000000E-02 0.  1.
    8880023    1    1    2    0    0 -0.65144687831E+03  0.60344647020E+02 -0.60447633460E+02  0.93031641625E+03  0.65864270000E+03 0.  0.
    8880022    1    1    2    0    0  0.65144687831E+03 -0.60344647020E+02  0.11609469145E+04  0.13413477934E+04  0.15294330000E+03 0.  0.
<mgrwt>
<rscale>  0 0.85626094E+03</rscale>
<asrwt>0</asrwt>
<pdfrwt beam="1">  1        2 0.25939719E+00 0.92835054E+03</pdfrwt>
<pdfrwt beam="2">  1       -2 0.90089611E-01 0.92835054E+03</pdfrwt>
<totfact> 0.10584700E+01</totfact>
</mgrwt>
</event>
<event>
 4    2  0.6387803E-007  0.7228444E+03  0.7818608E-02  0.9913076E-01
          2   -1    0    0  501    0  0.00000000000E+00  0.00000000000E+00  0.43599091773E+04  0.43599091773E+04  0.25500000000E-02 0. -1.
         -2   -1    0    0    0  501 -0.00000000000E+00 -0.00000000000E+00 -0.26163037700E+03  0.26163037701E+03  0.25500000000E-02 0.  1.
    8880023    1    1    2    0    0 -0.26895811357E+03 -0.12788807370E+03  0.25923257127E+03  0.76792288579E+03  0.65864270000E+03 0.  1.
    8880022    1    1    2    0    0  0.26895811357E+03  0.12788807370E+03  0.38390462291E+04  0.38536166685E+04  0.15294330000E+03 0.  0.
<mgrwt>
<rscale>  0 0.59631713E+03</rscale>
<asrwt>0</asrwt>
<pdfrwt beam="1">  1        2 0.67075527E+00 0.72284440E+03</pdfrwt>
<pdfrwt beam="2">  1       -2 0.40250827E-01 0.72284440E+03</pdfrwt>
<totfact> 0.11124211E+00</totfact>
</mgrwt>
</event>
<event>
 4    2  0.6387803E-007  0.8102940E+03  0.7818608E-02  0.9688965E-01
         -2   -1    0    0    0  501 -0.00000000000E+00  0.00000000000E+00  0.16051998266E+04  0.16051998266E+04  0.25500000000E-02 0.  1.
          2   -1    0    0  501    0  0.00000000000E+00 -0.00000000000E+00 -0.43762282795E+03  0.43762282796E+03  0.25500000000E-02 0. -1.
    8880023    1    1    2    0    0 -0.14824412220E+03 -0.44809571634E+03  0.12976976733E+04  0.15299005028E+04  0.65864270000E+03 0.  1.
    8880022    1    1    2    0    0  0.14824412220E+03  0.44809571634E+03 -0.13012067469E+03  0.51292215176E+03  0.15294330000E+03 0.  0.
<mgrwt>
<rscale>  0 0.71677630E+03</rscale>
<asrwt>0</asrwt>
<pdfrwt beam="1">  1        2 0.67326591E-01 0.81029396E+03</pdfrwt>
<pdfrwt beam="2">  1       -2 0.24695381E+00 0.81029396E+03</pdfrwt>
<totfact> 0.49166754E+00</totfact>
</mgrwt>
</event>
<event>
 4    2  0.6387803E-007  0.9561232E+03  0.7818608E-02  0.9441358E-01
         -2   -1    0    0    0  501 -0.00000000000E+00  0.00000000000E+00  0.96468164577E+03  0.96468164577E+03  0.25500000000E-02 0.  1.
          2   -1    0    0  501    0  0.00000000000E+00 -0.00000000000E+00 -0.11185309071E+04  0.11185309071E+04  0.25500000000E-02 0. -1.
    8880023    1    1    2    0    0 -0.64153187264E+03 -0.26229418792E+03 -0.70222284505E+03  0.11862919181E+04  0.65864270000E+03 0.  0.
    8880022    1    1    2    0    0  0.64153187264E+03  0.26229418792E+03  0.54837358374E+03  0.89692063472E+03  0.15294330000E+03 0.  0.
<mgrwt>
<rscale>  0 0.88748824E+03</rscale>
<asrwt>0</asrwt>
<pdfrwt beam="1">  1        2 0.17208168E+00 0.95612321E+03</pdfrwt>
<pdfrwt beam="2">  1       -2 0.14841256E+00 0.95612321E+03</pdfrwt>
<totfact> 0.65119356E+00</totfact>
</mgrwt>
</event>
<event>
 4    2  0.6387803E-007  0.9987792E+03  0.7818608E-02  0.9383157E-01
          2   -1    0    0  501    0  0.00000000000E+00  0.00000000000E+00  0.29713349920E+04  0.29713349920E+04  0.25500000000E-02 0. -1.
         -2   -1    0    0    0  501 -0.00000000000E+00 -0.00000000000E+00 -0.35384383705E+03  0.35384383706E+03  0.25500000000E-02 0.  1.
    8880023    1    1    2    0    0 -0.66507048678E+03 -0.34846944082E+03  0.59541763044E+03  0.11627906366E+04  0.65864270000E+03 0.  0.
    8880022    1    1    2    0    0  0.66507048678E+03  0.34846944082E+03  0.20220735245E+04  0.21623881925E+04  0.15294330000E+03 0.  0.
<mgrwt>
<rscale>  0 0.93474888E+03</rscale>
<asrwt>0</asrwt>
<pdfrwt beam="1">  1        2 0.45712849E+00 0.99877921E+03</pdfrwt>
<pdfrwt beam="2">  1       -2 0.54437510E-01 0.99877921E+03</pdfrwt>
<totfact> 0.58928723E+00</totfact>
</mgrwt>
</event>
<event>
 4    2  0.6387803E-007  0.7209264E+03  0.7818608E-02  0.9919464E-01
         -2   -1    0    0    0  501 -0.00000000000E+00  0.00000000000E+00  0.30569469557E+03  0.30569469558E+03  0.25500000000E-02 0.  1.
          2   -1    0    0  501    0  0.00000000000E+00 -0.00000000000E+00 -0.97430059793E+03  0.97430059794E+03  0.25500000000E-02 0. -1.
    8880023    1    1    2    0    0  0.79395478812E+02 -0.28217203658E+03 -0.28927666879E+03  0.77679849231E+03  0.65864270000E+03 0. -1.
    8880022    1    1    2    0    0 -0.79395478812E+02  0.28217203658E+03 -0.37932923358E+03  0.50319680121E+03  0.15294330000E+03 0.  1.
<mgrwt>
<rscale>  0 0.59327200E+03</rscale>
<asrwt>0</asrwt>
<pdfrwt beam="1">  1        2 0.14989240E+00 0.72092642E+03</pdfrwt>
<pdfrwt beam="2">  1       -2 0.47029954E-01 0.72092642E+03</pdfrwt>
<totfact> 0.11383767E+02</totfact>
</mgrwt>
</event>
<event>
 4    2  0.6387803E-007  0.8273834E+03  0.7818608E-02  0.9654445E-01
          2   -1    0    0  501    0  0.00000000000E+00  0.00000000000E+00  0.16290868417E+04  0.16290868417E+04  0.25500000000E-02 0. -1.
         -2   -1    0    0    0  501 -0.00000000000E+00 -0.00000000000E+00 -0.68909517576E+03  0.68909517577E+03  0.25500000000E-02 0.  1.
    8880023    1    1    2    0    0  0.71732807341E+02 -0.49558799667E+03 -0.37081012732E+03  0.90667712824E+03  0.65864270000E+03 0.  0.
    8880022    1    1    2    0    0 -0.71732807341E+02  0.49558799667E+03  0.13108017933E+04  0.14115048892E+04  0.15294330000E+03 0.  0.
<mgrwt>
<rscale>  0 0.73795109E+03</rscale>
<asrwt>0</asrwt>
<pdfrwt beam="1">  1        2 0.25062874E+00 0.82738338E+03</pdfrwt>
<pdfrwt beam="2">  1       -2 0.10601464E+00 0.82738338E+03</pdfrwt>
<totfact> 0.78431409E+00</totfact>
</mgrwt>
</event>
<event>
 4    2  0.6387803E-007  0.8119698E+03  0.7818608E-02  0.9685488E-01
         -2   -1    0    0    0  501 -0.00000000000E+00  0.00000000000E+00  0.17756821757E+03  0.17756821759E+03  0.25500000000E-02 0.  1.
          2   -1    0    0  501    0  0.00000000000E+00 -0.00000000000E+00 -0.24578138606E+04  0.24578138606E+04  0.25500000000E-02 0. -1.
    8880023    1    1    2    0    0  0.22120984357E+03  0.42017973592E+03 -0.15685577875E+04  0.17662583459E+04  0.65864270000E+03 0.  0.
    8880022    1    1    2    0    0 -0.22120984357E+03 -0.42017973592E+03 -0.71168785556E+03  0.86912373235E+03  0.15294330000E+03 0. -1.
<mgrwt>
<rscale>  0 0.71887420E+03</rscale>
<asrwt>0</asrwt>
<pdfrwt beam="1">  1        2 0.37812518E+00 0.81196983E+03</pdfrwt>
<pdfrwt beam="2">  1       -2 0.27318189E-01 0.81196983E+03</pdfrwt>
<totfact> 0.46327851E+01</totfact>
</mgrwt>
</event>
<event>
 4    2  0.6387803E-007  0.6969530E+03  0.7818608E-02  0.1001008E+00
          2   -1    0    0  501    0  0.00000000000E+00  0.00000000000E+00  0.11016467132E+04  0.11016467132E+04  0.25500000000E-02 0. -1.
         -2   -1    0    0    0  501 -0.00000000000E+00 -0.00000000000E+00 -0.23190648016E+03  0.23190648017E+03  0.25500000000E-02 0.  1.
    8880023    1    1    2    0    0  0.50967111638E+02  0.22211625030E+03  0.44186363893E+03  0.82521933859E+03  0.65864270000E+03 0.  1.
    8880022    1    1    2    0    0 -0.50967111638E+02 -0.22211625030E+03  0.42787659412E+03  0.50833385479E+03  0.15294330000E+03 0. -1.
<mgrwt>
<rscale>  0 0.55210281E+03</rscale>
<asrwt>0</asrwt>
<pdfrwt beam="1">  1        2 0.16948411E+00 0.69695300E+03</pdfrwt>
<pdfrwt beam="2">  1       -2 0.35677920E-01 0.69695300E+03</pdfrwt>
<totfact> 0.16297865E+02</totfact>
</mgrwt>
</event>
<event>
 4    2  0.6387803E-007  0.1166498E+04  0.7818608E-02  0.9190397E-01
         -2   -1    0    0    0  501 -0.00000000000E+00  0.00000000000E+00  0.55084331067E+03  0.55084331068E+03  0.25500000000E-02 0.  1.
          2   -1    0    0  501    0  0.00000000000E+00 -0.00000000000E+00 -0.25523602157E+04  0.25523602157E+04  0.25500000000E-02 0. -1.
    8880023    1    1    2    0    0  0.50110011128E+03 -0.82207417519E+03 -0.40921391129E+03  0.12361931493E+04  0.65864270000E+03 0.  0.
    8880022    1    1    2    0    0 -0.50110011128E+03  0.82207417519E+03 -0.15923029937E+04  0.18670103770E+04  0.15294330000E+03 0.  0.
<mgrwt>
<rscale>  0 0.11153098E+04</rscale>
<asrwt>0</asrwt>
<pdfrwt beam="1">  1        2 0.39267080E+00 0.11664980E+04</pdfrwt>
<pdfrwt beam="2">  1       -2 0.84745126E-01 0.11664980E+04</pdfrwt>
<totfact> 0.38976865E+00</totfact>
</mgrwt>
</event>
<event>
 4    2  0.6387803E-007  0.6588339E+03  0.7818608E-02  0.1025384E+00
          2   -1    0    0  501    0  0.00000000000E+00  0.00000000000E+00  0.32239455997E+03  0.32239455998E+03  0.25500000000E-02 0. -1.
         -2   -1    0    0    0  501 -0.00000000000E+00 -0.00000000000E+00 -0.51423953237E+03  0.51423953237E+03  0.25500000000E-02 0.  1.
    8880023    1    1    2    0    0  0.15871191708E+02  0.17645225066E+00 -0.17674538742E+03  0.68212980004E+03  0.65864270000E+03 0.  1.
    8880022    1    1    2    0    0 -0.15871191708E+02 -0.17645225066E+00 -0.15099584981E+02  0.15450429231E+03  0.15294330000E+03 0.  0.
<mgrwt>
<rscale>  0 0.45792686E+03</rscale>
<asrwt>0</asrwt>
<pdfrwt beam="1">  1        2 0.49599163E-01 0.65883392E+03</pdfrwt>
<pdfrwt beam="2">  1       -2 0.79113774E-01 0.65883392E+03</pdfrwt>
<totfact> 0.14549530E+02</totfact>
</mgrwt>
</event>
<event>
 4    2  0.6387803E-007  0.1322618E+04  0.7818608E-02  0.9046270E-01
         -2   -1    0    0    0  501 -0.00000000000E+00  0.00000000000E+00  0.12063154129E+04  0.12063154129E+04  0.25500000000E-02 0.  1.
          2   -1    0    0  501    0  0.00000000000E+00 -0.00000000000E+00 -0.27181435042E+04  0.27181435042E+04  0.25500000000E-02 0. -1.
    8880023    1    1    2    0    0  0.39285196570E+03  0.10775784288E+04 -0.22081761260E+04  0.25739774565E+04  0.65864270000E+03 0.  0.
    8880022    1    1    2    0    0 -0.39285196570E+03 -0.10775784288E+04  0.69634803469E+03  0.13504814606E+04  0.15294330000E+03 0.  0.
<mgrwt>
<rscale>  0 0.12791436E+04</rscale>
<asrwt>0</asrwt>
<pdfrwt beam="1">  1        2 0.41817592E+00 0.13226179E+04</pdfrwt>
<pdfrwt beam="2">  1       -2 0.18558699E+00 0.13226179E+04</pdfrwt>
<totfact> 0.41383270E-01</totfact>
</mgrwt>
</event>
<event>
 4    2  0.6387803E-007  0.8300346E+03  0.7818608E-02  0.9649265E-01
          2   -1    0    0  501    0  0.00000000000E+00  0.00000000000E+00  0.67189902792E+03  0.67189902793E+03  0.25500000000E-02 0. -1.
         -2   -1    0    0    0  501 -0.00000000000E+00 -0.00000000000E+00 -0.80538885465E+03  0.80538885465E+03  0.25500000000E-02 0.  1.
    8880023    1    1    2    0    0 -0.45126799115E+03  0.22694594369E+03 -0.35775101959E+03  0.90384913535E+03  0.65864270000E+03 0. -1.
    8880022    1    1    2    0    0  0.45126799115E+03 -0.22694594369E+03  0.22426119286E+03  0.57343874723E+03  0.15294330000E+03 0.  0.
<mgrwt>
<rscale>  0 0.74119570E+03</rscale>
<asrwt>0</asrwt>
<pdfrwt beam="1">  1        2 0.10336908E+00 0.83003462E+03</pdfrwt>
<pdfrwt beam="2">  1       -2 0.12390598E+00 0.83003462E+03</pdfrwt>
<totfact> 0.21288776E+01</totfact>
</mgrwt>
</event>
<event>
 4    2  0.6387803E-007  0.6901064E+03  0.7818608E-02  0.1004102E+00
          2   -1    0    0  501    0  0.00000000000E+00  0.00000000000E+00  0.10319411331E+04  0.10319411332E+04  0.25500000000E-02 0. -1.
         -2   -1    0    0    0  501 -0.00000000000E+00 -0.00000000000E+00 -0.37305196571E+03  0.37305196572E+03  0.25500000000E-02 0.  1.
    8880023    1    1    2    0    0  0.18233180507E+03  0.95873755434E+02 -0.83162053865E+01  0.69015652548E+03  0.65864270000E+03 0.  1.
    8880022    1    1    2    0    0 -0.18233180507E+03 -0.95873755434E+02  0.66720537282E+03  0.71483657339E+03  0.15294330000E+03 0.  0.
<mgrwt>
<rscale>  0 0.53887576E+03</rscale>
<asrwt>0</asrwt>
<pdfrwt beam="1">  1        2 0.15876017E+00 0.69010642E+03</pdfrwt>
<pdfrwt beam="2">  1       -2 0.57392611E-01 0.69010642E+03</pdfrwt>
<totfact> 0.69733489E+01</totfact>
</mgrwt>
</event>
<event>
 4    2  0.6387803E-007  0.7914547E+03  0.7818608E-02  0.9729587E-01
         -2   -1    0    0    0  501 -0.00000000000E+00  0.00000000000E+00  0.55439340620E+03  0.55439340620E+03  0.25500000000E-02 0.  1.
          2   -1    0    0  501    0  0.00000000000E+00 -0.00000000000E+00 -0.92609843623E+03  0.92609843624E+03  0.25500000000E-02 0. -1.
    8880023    1    1    2    0    0  0.36568139836E+03  0.24262631714E+03  0.12387903646E+03  0.80109090421E+03  0.65864270000E+03 0.  0.
    8880022    1    1    2    0    0 -0.36568139836E+03 -0.24262631714E+03 -0.49558406650E+03  0.67940093823E+03  0.15294330000E+03 0.  0.
<mgrwt>
<rscale>  0 0.69282217E+03</rscale>
<asrwt>0</asrwt>
<pdfrwt beam="1">  1        2 0.14247668E+00 0.79145475E+03</pdfrwt>
<pdfrwt beam="2">  1       -2 0.85291294E-01 0.79145475E+03</pdfrwt>
<totfact> 0.34052890E+01</totfact>
</mgrwt>
</event>
<event>
 4    2  0.6387803E-007  0.9245659E+03  0.7818608E-02  0.9487693E-01
          2   -1    0    0  501    0  0.00000000000E+00  0.00000000000E+00  0.23682042877E+04  0.23682042877E+04  0.25500000000E-02 0. -1.
         -2   -1    0    0    0  501 -0.00000000000E+00 -0.00000000000E+00 -0.32261302983E+03  0.32261302984E+03  0.25500000000E-02 0.  1.
    8880023    1    1    2    0    0 -0.37521933613E+02  0.64776847966E+03  0.60907448436E+03  0.11071557400E+04  0.65864270000E+03 0.  0.
    8880022    1    1    2    0    0  0.37521933613E+02 -0.64776847966E+03  0.14365167735E+04  0.15836615776E+04  0.15294330000E+03 0.  0.
<mgrwt>
<rscale>  0 0.85197253E+03</rscale>
<asrwt>0</asrwt>
<pdfrwt beam="1">  1        2 0.36433912E+00 0.92456590E+03</pdfrwt>
<pdfrwt beam="2">  1       -2 0.49632774E-01 0.92456590E+03</pdfrwt>
<totfact> 0.16224756E+01</totfact>
</mgrwt>
</event>
<event>
 4    2  0.6387803E-007  0.6642502E+03  0.7818608E-02  0.1020171E+00
          2   -1    0    0  501    0  0.00000000000E+00  0.00000000000E+00  0.15958444990E+04  0.15958444990E+04  0.25500000000E-02 0. -1.
         -2   -1    0    0    0  501 -0.00000000000E+00 -0.00000000000E+00 -0.16773676655E+03  0.16773676657E+03  0.25500000000E-02 0.  1.
    8880023    1    1    2    0    0  0.67214024883E+02 -0.53855622605E+02  0.53364717515E+03  0.85206083529E+03  0.65864270000E+03 0.  1.
    8880022    1    1    2    0    0 -0.67214024883E+02  0.53855622605E+02  0.89446055732E+03  0.91152043029E+03  0.15294330000E+03 0.  0.
<mgrwt>
<rscale>  0 0.47624991E+03</rscale>
<asrwt>0</asrwt>
<pdfrwt beam="1">  1        2 0.24551454E+00 0.66425022E+03</pdfrwt>
<pdfrwt beam="2">  1       -2 0.25805656E-01 0.66425022E+03</pdfrwt>
<totfact> 0.15551519E+02</totfact>
</mgrwt>
</event>
<event>
 4    2  0.6387803E-007  0.7596287E+03  0.7818608E-02  0.9806070E-01
          2   -1    0    0  501    0  0.00000000000E+00  0.00000000000E+00  0.49698227348E+03  0.49698227349E+03  0.25500000000E-02 0. -1.
         -2   -1    0    0    0  501 -0.00000000000E+00 -0.00000000000E+00 -0.37975560021E+04  0.37975560021E+04  0.25500000000E-02 0.  1.
    8880023    1    1    2    0    0 -0.14563960501E+03 -0.34930606974E+03 -0.36677009440E+04  0.37455394867E+04  0.65864270000E+03 0.  1.
    8880022    1    1    2    0    0  0.14563960501E+03  0.34930606974E+03  0.36712721544E+03  0.54899878892E+03  0.15294330000E+03 0.  0.
<mgrwt>
<rscale>  0 0.65037831E+03</rscale>
<asrwt>0</asrwt>
<pdfrwt beam="1">  1        2 0.76458814E-01 0.75962875E+03</pdfrwt>
<pdfrwt beam="2">  1       -2 0.58423937E+00 0.75962875E+03</pdfrwt>
<totfact> 0.37393554E-02</totfact>
</mgrwt>
</event>
<event>
 4    2  0.6387803E-007  0.8072725E+03  0.7818608E-02  0.9695287E-01
         -2   -1    0    0    0  501 -0.00000000000E+00  0.00000000000E+00  0.13964965738E+03  0.13964965741E+03  0.25500000000E-02 0.  1.
          2   -1    0    0  501    0  0.00000000000E+00 -0.00000000000E+00 -0.48469677593E+04  0.48469677593E+04  0.25500000000E-02 0. -1.
    8880023    1    1    2    0    0  0.46151698554E+03  0.69862242086E+02 -0.12074858115E+04  0.14524843724E+04  0.65864270000E+03 0.  1.
    8880022    1    1    2    0    0 -0.46151698554E+03 -0.69862242086E+02 -0.34998322904E+04  0.35341330443E+04  0.15294330000E+03 0.  0.
<mgrwt>
<rscale>  0 0.71298123E+03</rscale>
<asrwt>0</asrwt>
<pdfrwt beam="1">  1        2 0.74568722E+00 0.80727249E+03</pdfrwt>
<pdfrwt beam="2">  1       -2 0.21484566E-01 0.80727249E+03</pdfrwt>
<totfact> 0.11302892E+00</totfact>
</mgrwt>
</event>
<event>
 4    2  0.6387803E-007  0.6845523E+03  0.7818608E-02  0.1006858E+00
         -2   -1    0    0    0  501 -0.00000000000E+00  0.00000000000E+00  0.37827075856E+03  0.37827075856E+03  0.25500000000E-02 0.  1.
          2   -1    0    0  501    0  0.00000000000E+00 -0.00000000000E+00 -0.61763685087E+03  0.61763685088E+03  0.25500000000E-02 0. -1.
    8880023    1    1    2    0    0 -0.17171694719E+03  0.72903514059E+02 -0.44848362138E+02  0.68601983511E+03  0.65864270000E+03 0.  1.
    8880022    1    1    2    0    0  0.17171694719E+03 -0.72903514059E+02 -0.19451773018E+03  0.30988777434E+03  0.15294330000E+03 0. -1.
<mgrwt>
<rscale>  0 0.52742909E+03</rscale>
<asrwt>0</asrwt>
<pdfrwt beam="1">  1        2 0.95021054E-01 0.68455229E+03</pdfrwt>
<pdfrwt beam="2">  1       -2 0.58195501E-01 0.68455229E+03</pdfrwt>
<totfact> 0.13417197E+02</totfact>
</mgrwt>
</event>
<event>
 4    2  0.6387803E-007  0.6637365E+03  0.7818608E-02  0.1020618E+00
          2   -1    0    0  501    0  0.00000000000E+00  0.00000000000E+00  0.13782209032E+04  0.13782209032E+04  0.25500000000E-02 0. -1.
         -2   -1    0    0    0  501 -0.00000000000E+00 -0.00000000000E+00 -0.24130430147E+03  0.24130430149E+03  0.25500000000E-02 0.  1.
    8880023    1    1    2    0    0 -0.81992700840E+02 -0.36180913673E+01  0.23973010821E+03  0.70570292944E+03  0.65864270000E+03 0.  1.
    8880022    1    1    2    0    0  0.81992700840E+02  0.36180913673E+01  0.89718649355E+03  0.91382227528E+03  0.15294330000E+03 0.  0.
<mgrwt>
<rscale>  0 0.47464316E+03</rscale>
<asrwt>0</asrwt>
<pdfrwt beam="1">  1        2 0.21203399E+00 0.66373647E+03</pdfrwt>
<pdfrwt beam="2">  1       -2 0.37123738E-01 0.66373647E+03</pdfrwt>
<totfact> 0.10437450E+02</totfact>
</mgrwt>
</event>
<event>
 4    2  0.6387803E-007  0.8219262E+03  0.7818608E-02  0.9665251E-01
          2   -1    0    0  501    0  0.00000000000E+00  0.00000000000E+00  0.73392372155E+03  0.73392372155E+03  0.25500000000E-02 0. -1.
         -2   -1    0    0    0  501 -0.00000000000E+00 -0.00000000000E+00 -0.93292749082E+03  0.93292749083E+03  0.25500000000E-02 0.  1.
    8880023    1    1    2    0    0  0.46815329682E+03 -0.15028293037E+03 -0.59715650385E+03  0.10159520485E+04  0.65864270000E+03 0.  0.
    8880022    1    1    2    0    0 -0.46815329682E+03  0.15028293037E+03  0.39815273458E+03  0.65089916389E+03  0.15294330000E+03 0.  0.
<mgrwt>
<rscale>  0 0.73123988E+03</rscale>
<asrwt>0</asrwt>
<pdfrwt beam="1">  1        2 0.11291134E+00 0.82192620E+03</pdfrwt>
<pdfrwt beam="2">  1       -2 0.14352731E+00 0.82192620E+03</pdfrwt>
<totfact> 0.13082671E+01</totfact>
</mgrwt>
</event>
<event>
 4    2  0.6387803E-007  0.9107310E+03  0.7818608E-02  0.9509020E-01
          2   -1    0    0  501    0  0.00000000000E+00  0.00000000000E+00  0.15004699946E+04  0.15004699946E+04  0.25500000000E-02 0. -1.
         -2   -1    0    0    0  501 -0.00000000000E+00 -0.00000000000E+00 -0.63219860294E+03  0.63219860294E+03  0.25500000000E-02 0.  1.
    8880023    1    1    2    0    0 -0.36541344904E+03  0.51195092389E+03 -0.15303976807E+03  0.92349992642E+03  0.65864270000E+03 0.  1.
    8880022    1    1    2    0    0  0.36541344904E+03 -0.51195092389E+03  0.10213111597E+04  0.12091686711E+04  0.15294330000E+03 0.  0.
<mgrwt>
<rscale>  0 0.83622076E+03</rscale>
<asrwt>0</asrwt>
<pdfrwt beam="1">  1        2 0.23084154E+00 0.91073099E+03</pdfrwt>
<pdfrwt beam="2">  1       -2 0.97261324E-01 0.91073099E+03</pdfrwt>
<totfact> 0.11244155E+01</totfact>
</mgrwt>
</event>
<event>
 4    2  0.6387803E-007  0.7655241E+03  0.7818608E-02  0.9791010E-01
         -2   -1    0    0    0  501 -0.00000000000E+00  0.00000000000E+00  0.13462172525E+03  0.13462172528E+03  0.25500000000E-02 0.  1.
          2   -1    0    0  501    0  0.00000000000E+00 -0.00000000000E+00 -0.33728128191E+04  0.33728128191E+04  0.25500000000E-02 0. -1.
    8880023    1    1    2    0    0  0.22369658203E+03 -0.31965110442E+03 -0.11768163115E+04  0.14038959458E+04  0.65864270000E+03 0.  1.
    8880022    1    1    2    0    0 -0.22369658203E+03  0.31965110442E+03 -0.20613747824E+04  0.21035385986E+04  0.15294330000E+03 0.  0.
<mgrwt>
<rscale>  0 0.65847213E+03</rscale>
<asrwt>0</asrwt>
<pdfrwt beam="1">  1        2 0.51889421E+00 0.76552413E+03</pdfrwt>
<pdfrwt beam="2">  1       -2 0.20711037E-01 0.76552413E+03</pdfrwt>
<totfact> 0.21339555E+01</totfact>
</mgrwt>
</event>
<event>
 4    2  0.6387803E-007  0.8591021E+03  0.7818608E-02  0.9595163E-01
          2   -1    0    0  501    0  0.00000000000E+00  0.00000000000E+00  0.30920178394E+04  0.30920178394E+04  0.25500000000E-02 0. -1.
         -2   -1    0    0    0  501 -0.00000000000E+00 -0.00000000000E+00 -0.20755465518E+03  0.20755465520E+03  0.25500000000E-02 0.  1.
    8880023    1    1    2    0    0  0.38656237037E+03  0.39346629238E+03  0.94377608702E+03  0.12762326191E+04  0.65864270000E+03 0.  1.
    8880022    1    1    2    0    0 -0.38656237037E+03 -0.39346629238E+03  0.19406870972E+04  0.20233398754E+04  0.15294330000E+03 0.  0.
<mgrwt>
<rscale>  0 0.77617176E+03</rscale>
<asrwt>0</asrwt>
<pdfrwt beam="1">  1        2 0.47569503E+00 0.85910209E+03</pdfrwt>
<pdfrwt beam="2">  1       -2 0.31931487E-01 0.85910209E+03</pdfrwt>
<totfact> 0.14512242E+01</totfact>
</mgrwt>
</event>
<event>
 4    2  0.6387803E-007  0.6791678E+03  0.7818608E-02  0.1009798E+00
          2   -1    0    0  501    0  0.00000000000E+00  0.00000000000E+00  0.21027305031E+04  0.21027305031E+04  0.25500000000E-02 0. -1.
         -2   -1    0    0    0  501 -0.00000000000E+00 -0.00000000000E+00 -0.11762424766E+03  0.11762424769E+03  0.25500000000E-02 0.  1.
    8880023    1    1    2    0    0 -0.13749993893E+03  0.92479640710E+02  0.99367869558E+03  0.12036055307E+04  0.65864270000E+03 0.  1.
    8880022    1    1    2    0    0  0.13749993893E+03 -0.92479640710E+02  0.99142755982E+03  0.10167492201E+04  0.15294330000E+03 0. -1.
<mgrwt>
<rscale>  0 0.51554857E+03</rscale>
<asrwt>0</asrwt>
<pdfrwt beam="1">  1        2 0.32349699E+00 0.67916782E+03</pdfrwt>
<pdfrwt beam="2">  1       -2 0.18096038E-01 0.67916782E+03</pdfrwt>
<totfact> 0.15389779E+02</totfact>
</mgrwt>
</event>
<event>
 4    2  0.6387803E-007  0.1101197E+04  0.7818608E-02  0.9259724E-01
          2   -1    0    0  501    0  0.00000000000E+00  0.00000000000E+00  0.19457579173E+04  0.19457579173E+04  0.25500000000E-02 0. -1.
         -2   -1    0    0    0  501 -0.00000000000E+00 -0.00000000000E+00 -0.91987911569E+03  0.91987911570E+03  0.25500000000E-02 0.  1.
    8880023    1    1    2    0    0  0.88035781922E+03 -0.61607447654E+02 -0.40854993561E+03  0.11745418782E+04  0.65864270000E+03 0.  0.
    8880022    1    1    2    0    0 -0.88035781922E+03  0.61607447654E+02  0.14344287372E+04  0.16910951548E+04  0.15294330000E+03 0.  0.
<mgrwt>
<rscale>  0 0.10457680E+04</rscale>
<asrwt>0</asrwt>
<pdfrwt beam="1">  1        2 0.29934737E+00 0.11011973E+04</pdfrwt>
<pdfrwt beam="2">  1       -2 0.14151986E+00 0.11011973E+04</pdfrwt>
<totfact> 0.24627166E+00</totfact>
</mgrwt>
</event>
<event>
 4    2  0.6387803E-007  0.7943879E+03  0.7818608E-02  0.9723065E-01
          2   -1    0    0  501    0  0.00000000000E+00  0.00000000000E+00  0.92569390065E+03  0.92569390066E+03  0.25500000000E-02 0. -1.
         -2   -1    0    0    0  501 -0.00000000000E+00 -0.00000000000E+00 -0.79062832410E+03  0.79062832410E+03  0.25500000000E-02 0.  1.
    8880023    1    1    2    0    0 -0.40442110531E+03 -0.18353602467E+03  0.64481920505E+03  0.10231539064E+04  0.65864270000E+03 0.  0.
    8880022    1    1    2    0    0  0.40442110531E+03  0.18353602467E+03 -0.50975362849E+03  0.69316831833E+03  0.15294330000E+03 0.  0.
<mgrwt>
<rscale>  0 0.69659989E+03</rscale>
<asrwt>0</asrwt>
<pdfrwt beam="1">  1        2 0.14241444E+00 0.79438788E+03</pdfrwt>
<pdfrwt beam="2">  1       -2 0.12163513E+00 0.79438788E+03</pdfrwt>
<totfact> 0.14630243E+01</totfact>
</mgrwt>
</event>
<event>
 4    2  0.6387803E-007  0.6828181E+03  0.7818608E-02  0.1007772E+00
         -2   -1    0    0    0  501 -0.00000000000E+00  0.00000000000E+00  0.17388116196E+04  0.17388116196E+04  0.25500000000E-02 0.  1.
          2   -1    0    0  501    0  0.00000000000E+00 -0.00000000000E+00 -0.17198523353E+03  0.17198523355E+03  0.25500000000E-02 0. -1.
    8880023    1    1    2    0    0 -0.85795096471E+02  0.15833388061E+03  0.15249573703E+04  0.16708487675E+04  0.65864270000E+03 0.  0.
    8880022    1    1    2    0    0  0.85795096471E+02 -0.15833388061E+03  0.41869015791E+02  0.23994808569E+03  0.15294330000E+03 0.  0.
<mgrwt>
<rscale>  0 0.52369633E+03</rscale>
<asrwt>0</asrwt>
<pdfrwt beam="1">  1        2 0.26459267E-01 0.68281815E+03</pdfrwt>
<pdfrwt beam="2">  1       -2 0.26750948E+00 0.68281815E+03</pdfrwt>
<totfact> 0.10696145E+01</totfact>
</mgrwt>
</event>
<event>
 4    2  0.6387803E-007  0.6654768E+03  0.7818608E-02  0.1019137E+00
         -2   -1    0    0    0  501 -0.00000000000E+00  0.00000000000E+00  0.58626651762E+03  0.58626651762E+03  0.25500000000E-02 0.  1.
          2   -1    0    0  501    0  0.00000000000E+00 -0.00000000000E+00 -0.12299621024E+04  0.12299621024E+04  0.25500000000E-02 0. -1.
    8880023    1    1    2    0    0 -0.59413075579E+02 -0.74291775044E+02  0.38706077441E+03  0.76985416199E+03  0.65864270000E+03 0.  1.
    8880022    1    1    2    0    0  0.59413075579E+02  0.74291775044E+02 -0.10307563592E+04  0.10463744581E+04  0.15294330000E+03 0.  0.
<mgrwt>
<rscale>  0 0.47999443E+03</rscale>
<asrwt>0</asrwt>
<pdfrwt beam="1">  1        2 0.18922494E+00 0.66547681E+03</pdfrwt>
<pdfrwt beam="2">  1       -2 0.90194849E-01 0.66547681E+03</pdfrwt>
<totfact> 0.19688410E+01</totfact>
</mgrwt>
</event>
<event>
 4    2  0.6387803E-007  0.1251745E+04  0.7818608E-02  0.9108394E-01
         -2   -1    0    0    0  501 -0.00000000000E+00  0.00000000000E+00  0.17831338856E+04  0.17831338856E+04  0.25500000000E-02 0.  1.
          2   -1    0    0  501    0  0.00000000000E+00 -0.00000000000E+00 -0.23529471004E+04  0.23529471004E+04  0.25500000000E-02 0. -1.
    8880023    1    1    2    0    0  0.97421015557E+03 -0.42891617748E+03 -0.19922711019E+04  0.23528724709E+04  0.65864270000E+03 0.  0.
    8880022    1    1    2    0    0 -0.97421015557E+03  0.42891617748E+03  0.14224578872E+04  0.17832085151E+04  0.15294330000E+03 0. -1.
<mgrwt>
<rscale>  0 0.12051122E+04</rscale>
<asrwt>0</asrwt>
<pdfrwt beam="1">  1        2 0.36199186E+00 0.12517447E+04</pdfrwt>
<pdfrwt beam="2">  1       -2 0.27432829E+00 0.12517447E+04</pdfrwt>
<totfact> 0.18705391E-01</totfact>
</mgrwt>
</event>
<event>
 4    2  0.6387803E-007  0.7669981E+03  0.7818608E-02  0.9787316E-01
          2   -1    0    0  501    0  0.00000000000E+00  0.00000000000E+00  0.19535899958E+04  0.19535899958E+04  0.25500000000E-02 0. -1.
         -2   -1    0    0    0  501 -0.00000000000E+00 -0.00000000000E+00 -0.21528893462E+03  0.21528893464E+03  0.25500000000E-02 0.  1.
    8880023    1    1    2    0    0 -0.36257194739E+03  0.15171518185E+03  0.14993605489E+04  0.16841520642E+04  0.65864270000E+03 0.  0.
    8880022    1    1    2    0    0  0.36257194739E+03 -0.15171518185E+03  0.23894051226E+03  0.48472686624E+03  0.15294330000E+03 0. -1.
<mgrwt>
<rscale>  0 0.66047719E+03</rscale>
<asrwt>0</asrwt>
<pdfrwt beam="1">  1        2 0.30055229E+00 0.76699812E+03</pdfrwt>
<pdfrwt beam="2">  1       -2 0.33121376E-01 0.76699812E+03</pdfrwt>
<totfact> 0.61898872E+01</totfact>
</mgrwt>
</event>
<event>
 4    2  0.6387803E-007  0.7575599E+03  0.7818608E-02  0.9811466E-01
         -2   -1    0    0    0  501 -0.00000000000E+00  0.00000000000E+00  0.14982889900E+04  0.14982889900E+04  0.25500000000E-02 0.  1.
          2   -1    0    0  501    0  0.00000000000E+00 -0.00000000000E+00 -0.41379649206E+03  0.41379649207E+03  0.25500000000E-02 0. -1.
    8880023    1    1    2    0    0  0.16368272789E+03 -0.33659295880E+03  0.12608827019E+04  0.14709596356E+04  0.65864270000E+03 0.  1.
    8880022    1    1    2    0    0 -0.16368272789E+03  0.33659295880E+03 -0.17639020400E+03  0.44112584645E+03  0.15294330000E+03 0.  0.
<mgrwt>
<rscale>  0 0.64750829E+03</rscale>
<asrwt>0</asrwt>
<pdfrwt beam="1">  1        2 0.63660999E-01 0.75755994E+03</pdfrwt>
<pdfrwt beam="2">  1       -2 0.23050600E+00 0.75755994E+03</pdfrwt>
<totfact> 0.66468798E+00</totfact>
</mgrwt>
</event>
<event>
 4    2  0.6387803E-007  0.6800471E+03  0.7818608E-02  0.1009297E+00
          2   -1    0    0  501    0  0.00000000000E+00  0.00000000000E+00  0.17564449272E+04  0.17564449272E+04  0.25500000000E-02 0. -1.
         -2   -1    0    0    0  501 -0.00000000000E+00 -0.00000000000E+00 -0.24554153902E+03  0.24554153903E+03  0.25500000000E-02 0.  1.
    8880023    1    1    2    0    0  0.69867131532E+02 -0.15418312495E+03  0.25619216760E+03  0.72670384965E+03  0.65864270000E+03 0.  1.
    8880022    1    1    2    0    0 -0.69867131532E+02  0.15418312495E+03  0.12547112205E+04  0.12752826165E+04  0.15294330000E+03 0.  0.
<mgrwt>
<rscale>  0 0.51754980E+03</rscale>
<asrwt>0</asrwt>
<pdfrwt beam="1">  1        2 0.27022230E+00 0.68004710E+03</pdfrwt>
<pdfrwt beam="2">  1       -2 0.37775621E-01 0.68004710E+03</pdfrwt>
<totfact> 0.62301069E+01</totfact>
</mgrwt>
</event>
<event>
 4    2  0.6387803E-007  0.7123285E+03  0.7818608E-02  0.9949454E-01
          2   -1    0    0  501    0  0.00000000000E+00  0.00000000000E+00  0.15262794673E+04  0.15262794673E+04  0.25500000000E-02 0. -1.
         -2   -1    0    0    0  501 -0.00000000000E+00 -0.00000000000E+00 -0.49786337593E+03  0.49786337594E+03  0.25500000000E-02 0.  1.
    8880023    1    1    2    0    0 -0.26981465908E+03  0.28315370009E+02 -0.21360853306E+03  0.74366694299E+03  0.65864270000E+03 0.  1.
    8880022    1    1    2    0    0  0.26981465908E+03 -0.28315370009E+02  0.12420246244E+04  0.12804759002E+04  0.15294330000E+03 0.  0.
<mgrwt>
<rscale>  0 0.57923261E+03</rscale>
<asrwt>0</asrwt>
<pdfrwt beam="1">  1        2 0.23481223E+00 0.71232852E+03</pdfrwt>
<pdfrwt beam="2">  1       -2 0.76594365E-01 0.71232852E+03</pdfrwt>
<totfact> 0.19243165E+01</totfact>
</mgrwt>
</event>
<event>
 4    2  0.6387803E-007  0.7375923E+03  0.7818608E-02  0.9867017E-01
          2   -1    0    0  501    0  0.00000000000E+00  0.00000000000E+00  0.30461201516E+04  0.30461201516E+04  0.25500000000E-02 0. -1.
         -2   -1    0    0    0  501 -0.00000000000E+00 -0.00000000000E+00 -0.13714270399E+03  0.13714270402E+03  0.25500000000E-02 0.  1.
    8880023    1    1    2    0    0  0.72427853521E+02  0.32401598559E+03  0.26063321199E+04  0.27086914697E+04  0.65864270000E+03 0. -1.
    8880022    1    1    2    0    0 -0.72427853521E+02 -0.32401598559E+03  0.30264532774E+03  0.47457138588E+03  0.15294330000E+03 0.  0.
<mgrwt>
<rscale>  0 0.61886760E+03</rscale>
<asrwt>0</asrwt>
<pdfrwt beam="1">  1        2 0.46863384E+00 0.73759227E+03</pdfrwt>
<pdfrwt beam="2">  1       -2 0.21098879E-01 0.73759227E+03</pdfrwt>
<totfact> 0.33535339E+01</totfact>
</mgrwt>
</event>
<event>
 4    2  0.6387803E-007  0.7739756E+03  0.7818608E-02  0.9770184E-01
          2   -1    0    0  501    0  0.00000000000E+00  0.00000000000E+00  0.28833577582E+04  0.28833577582E+04  0.25500000000E-02 0. -1.
         -2   -1    0    0    0  501 -0.00000000000E+00 -0.00000000000E+00 -0.12976150186E+03  0.12976150188E+03  0.25500000000E-02 0.  1.
    8880023    1    1    2    0    0  0.37451575649E+03 -0.15800620778E+03  0.15278532194E+04  0.17127094558E+04  0.65864270000E+03 0.  1.
    8880022    1    1    2    0    0 -0.37451575649E+03  0.15800620778E+03  0.12257430369E+04  0.13004098043E+04  0.15294330000E+03 0. -1.
<mgrwt>
<rscale>  0 0.66987508E+03</rscale>
<asrwt>0</asrwt>
<pdfrwt beam="1">  1        2 0.44359348E+00 0.77397559E+03</pdfrwt>
<pdfrwt beam="2">  1       -2 0.19963309E-01 0.77397559E+03</pdfrwt>
<totfact> 0.46170169E+01</totfact>
</mgrwt>
</event>
<event>
 4    2  0.6387803E-007  0.1165976E+04  0.7818608E-02  0.9190927E-01
         -2   -1    0    0    0  501 -0.00000000000E+00  0.00000000000E+00  0.48340902064E+03  0.48340902064E+03  0.25500000000E-02 0.  1.
          2   -1    0    0  501    0  0.00000000000E+00 -0.00000000000E+00 -0.25031040513E+04  0.25031040513E+04  0.25500000000E-02 0. -1.
    8880023    1    1    2    0    0  0.82499893179E+03 -0.49504309626E+03 -0.75090035806E+03  0.13868498328E+04  0.65864270000E+03 0.  0.
    8880022    1    1    2    0    0 -0.82499893179E+03  0.49504309626E+03 -0.12687946726E+04  0.15996632392E+04  0.15294330000E+03 0.  0.
<mgrwt>
<rscale>  0 0.11147573E+04</rscale>
<asrwt>0</asrwt>
<pdfrwt beam="1">  1        2 0.38509292E+00 0.11659765E+04</pdfrwt>
<pdfrwt beam="2">  1       -2 0.74370620E-01 0.11659765E+04</pdfrwt>
<totfact> 0.55886682E+00</totfact>
</mgrwt>
</event>
<event>
 4    2  0.6387803E-007  0.7794220E+03  0.7818608E-02  0.9757197E-01
          2   -1    0    0  501    0  0.00000000000E+00  0.00000000000E+00  0.47368380944E+03  0.47368380944E+03  0.25500000000E-02 0. -1.
         -2   -1    0    0    0  501 -0.00000000000E+00 -0.00000000000E+00 -0.17261721732E+04  0.17261721732E+04  0.25500000000E-02 0.  1.
    8880023    1    1    2    0    0 -0.22712912849E+03  0.34942918767E+03 -0.15008499094E+04  0.16911679559E+04  0.65864270000E+03 0.  0.
    8880022    1    1    2    0    0  0.22712912849E+03 -0.34942918767E+03  0.24836154564E+03  0.50868802676E+03  0.15294330000E+03 0.  0.
<mgrwt>
<rscale>  0 0.67711092E+03</rscale>
<asrwt>0</asrwt>
<pdfrwt beam="1">  1        2 0.72874433E-01 0.77942197E+03</pdfrwt>
<pdfrwt beam="2">  1       -2 0.26556495E+00 0.77942197E+03</pdfrwt>
<totfact> 0.34788730E+00</totfact>
</mgrwt>
</event>
<event>
 4    2  0.6387803E-007  0.7188474E+03  0.7818608E-02  0.9926505E-01
         -2   -1    0    0    0  501 -0.00000000000E+00  0.00000000000E+00  0.17547403538E+03  0.17547403540E+03  0.25500000000E-02 0.  1.
          2   -1    0    0  501    0  0.00000000000E+00 -0.00000000000E+00 -0.28090919795E+04  0.28090919795E+04  0.25500000000E-02 0. -1.
    8880023    1    1    2    0    0 -0.20731520158E+03 -0.19987937460E+03 -0.63384782300E+03  0.95838647016E+03  0.65864270000E+03 0.  1.
    8880022    1    1    2    0    0  0.20731520158E+03  0.19987937460E+03 -0.19997701211E+04  0.20261795447E+04  0.15294330000E+03 0.  0.
<mgrwt>
<rscale>  0 0.58993740E+03</rscale>
<asrwt>0</asrwt>
<pdfrwt beam="1">  1        2 0.43216796E+00 0.71884739E+03</pdfrwt>
<pdfrwt beam="2">  1       -2 0.26996007E-01 0.71884739E+03</pdfrwt>
<totfact> 0.30062733E+01</totfact>
</mgrwt>
</event>
<event>
 4    2  0.6387803E-007  0.9439338E+03  0.7818608E-02  0.9458896E-01
          2   -1    0    0  501    0  0.00000000000E+00  0.00000000000E+00  0.22564503087E+04  0.22564503087E+04  0.25500000000E-02 0. -1.
         -2   -1    0    0    0  501 -0.00000000000E+00 -0.00000000000E+00 -0.55106401356E+03  0.55106401357E+03  0.25500000000E-02 0.  1.
    8880023    1    1    2    0    0  0.39991395089E+03 -0.54522439812E+03 -0.24119880485E+02  0.94424191144E+03  0.65864270000E+03 0.  0.
    8880022    1    1    2    0    0 -0.39991395089E+03  0.54522439812E+03  0.17295061756E+04  0.18632724108E+04  0.15294330000E+03 0.  0.
<mgrwt>
<rscale>  0 0.87383266E+03</rscale>
<asrwt>0</asrwt>
<pdfrwt beam="1">  1        2 0.34714620E+00 0.94393380E+03</pdfrwt>
<pdfrwt beam="2">  1       -2 0.84779079E-01 0.94393380E+03</pdfrwt>
<totfact> 0.58910370E+00</totfact>
</mgrwt>
</event>
<event>
 4    2  0.6387803E-007  0.7814519E+03  0.7818608E-02  0.9752437E-01
         -2   -1    0    0    0  501 -0.00000000000E+00  0.00000000000E+00  0.34953551231E+03  0.34953551232E+03  0.25500000000E-02 0.  1.
          2   -1    0    0  501    0  0.00000000000E+00 -0.00000000000E+00 -0.30128675697E+04  0.30128675697E+04  0.25500000000E-02 0. -1.
    8880023    1    1    2    0    0 -0.25260388971E+03  0.33622637043E+03 -0.13285692286E+03  0.79266516606E+03  0.65864270000E+03 0.  0.
    8880022    1    1    2    0    0  0.25260388971E+03 -0.33622637043E+03 -0.25304751345E+04  0.25697379160E+04  0.15294330000E+03 0.  0.
<mgrwt>
<rscale>  0 0.67978702E+03</rscale>
<asrwt>0</asrwt>
<pdfrwt beam="1">  1        2 0.46351807E+00 0.78145192E+03</pdfrwt>
<pdfrwt beam="2">  1       -2 0.53774696E-01 0.78145192E+03</pdfrwt>
<totfact> 0.59004209E+00</totfact>
</mgrwt>
</event>
<event>
 4    2  0.6387803E-007  0.1105486E+04  0.7818608E-02  0.9254972E-01
          2   -1    0    0  501    0  0.00000000000E+00  0.00000000000E+00  0.21729239316E+04  0.21729239316E+04  0.25500000000E-02 0. -1.
         -2   -1    0    0    0  501 -0.00000000000E+00 -0.00000000000E+00 -0.66635494817E+03  0.66635494817E+03  0.25500000000E-02 0.  1.
    8880023    1    1    2    0    0 -0.36484822084E+03  0.80942895194E+03  0.25579409693E+02  0.11057820603E+04  0.65864270000E+03 0.  1.
    8880022    1    1    2    0    0  0.36484822084E+03 -0.80942895194E+03  0.14809895737E+04  0.17334968194E+04  0.15294330000E+03 0.  0.
<mgrwt>
<rscale>  0 0.10503600E+04</rscale>
<asrwt>0</asrwt>
<pdfrwt beam="1">  1        2 0.33429599E+00 0.11054862E+04</pdfrwt>
<pdfrwt beam="2">  1       -2 0.10251615E+00 0.11054862E+04</pdfrwt>
<totfact> 0.41219939E+00</totfact>
</mgrwt>
</event>
<event>
 4    2  0.6387803E-007  0.7594232E+03  0.7818608E-02  0.9806603E-01
          2   -1    0    0  501    0  0.00000000000E+00  0.00000000000E+00  0.18416426119E+04  0.18416426119E+04  0.25500000000E-02 0. -1.
         -2   -1    0    0    0  501 -0.00000000000E+00 -0.00000000000E+00 -0.44487397793E+03  0.44487397794E+03  0.25500000000E-02 0.  1.
    8880023    1    1    2    0    0 -0.35136211744E+03 -0.13949200866E+03 -0.71391503079E+02  0.76277146710E+03  0.65864270000E+03 0.  0.
    8880022    1    1    2    0    0  0.35136211744E+03  0.13949200866E+03  0.14681601370E+04  0.15237451227E+04  0.15294330000E+03 0.  0.
<mgrwt>
<rscale>  0 0.65009384E+03</rscale>
<asrwt>0</asrwt>
<pdfrwt beam="1">  1        2 0.28332963E+00 0.75942318E+03</pdfrwt>
<pdfrwt beam="2">  1       -2 0.68442150E-01 0.75942318E+03</pdfrwt>
<totfact> 0.16448656E+01</totfact>
</mgrwt>
</event>
<event>
 4    2  0.6387803E-007  0.8325432E+03  0.7818608E-02  0.9644404E-01
         -2   -1    0    0    0  501 -0.00000000000E+00  0.00000000000E+00  0.20724397172E+03  0.20724397174E+03  0.25500000000E-02 0.  1.
          2   -1    0    0  501    0  0.00000000000E+00 -0.00000000000E+00 -0.30455290082E+04  0.30455290082E+04  0.25500000000E-02 0. -1.
    8880023    1    1    2    0    0 -0.37142324902E+03 -0.34837163810E+03 -0.83116305466E+03  0.11764184025E+04  0.65864270000E+03 0.  1.
    8880022    1    1    2    0    0  0.37142324902E+03  0.34837163810E+03 -0.20071219818E+04  0.20763545774E+04  0.15294330000E+03 0.  0.
<mgrwt>
<rscale>  0 0.74425658E+03</rscale>
<asrwt>0</asrwt>
<pdfrwt beam="1">  1        2 0.46854289E+00 0.83254323E+03</pdfrwt>
<pdfrwt beam="2">  1       -2 0.31883690E-01 0.83254323E+03</pdfrwt>
<totfact> 0.15618728E+01</totfact>
</mgrwt>
</event>
<event>
 4    2  0.6387803E-007  0.6681531E+03  0.7818608E-02  0.1017023E+00
          2   -1    0    0  501    0  0.00000000000E+00  0.00000000000E+00  0.13939310479E+04  0.13939310479E+04  0.25500000000E-02 0. -1.
         -2   -1    0    0    0  501 -0.00000000000E+00 -0.00000000000E+00 -0.13944434955E+03  0.13944434957E+03  0.25500000000E-02 0.  1.
    8880023    1    1    2    0    0  0.81472960117E+02 -0.77333959665E+02  0.80958075289E+03  0.10496902335E+04  0.65864270000E+03 0.  0.
    8880022    1    1    2    0    0 -0.81472960117E+02  0.77333959665E+02  0.44490594544E+03  0.48368516398E+03  0.15294330000E+03 0.  0.
<mgrwt>
<rscale>  0 0.48776423E+03</rscale>
<asrwt>0</asrwt>
<pdfrwt beam="1">  1        2 0.21445092E+00 0.66815312E+03</pdfrwt>
<pdfrwt beam="2">  1       -2 0.21452978E-01 0.66815312E+03</pdfrwt>
<totfact> 0.27991899E+02</totfact>
</mgrwt>
</event>
<event>
 4    2  0.6387803E-007  0.1078741E+04  0.7818608E-02  0.9285102E-01
         -2   -1    0    0    0  501 -0.00000000000E+00  0.00000000000E+00  0.10542487544E+04  0.10542487544E+04  0.25500000000E-02 0.  1.
          2   -1    0    0  501    0  0.00000000000E+00 -0.00000000000E+00 -0.20315354739E+04  0.20315354739E+04  0.25500000000E-02 0. -1.
    8880023    1    1    2    0    0 -0.31809020886E+03 -0.79290049849E+03  0.63714281583E+03  0.12528502526E+04  0.65864270000E+03 0.  1.
    8880022    1    1    2    0    0  0.31809020886E+03  0.79290049849E+03 -0.16144295353E+04  0.18329339756E+04  0.15294330000E+03 0.  0.
<mgrwt>
<rscale>  0 0.10216600E+04</rscale>
<asrwt>0</asrwt>
<pdfrwt beam="1">  1        2 0.31254392E+00 0.10787413E+04</pdfrwt>
<pdfrwt beam="2">  1       -2 0.16219212E+00 0.10787413E+04</pdfrwt>
<totfact> 0.15375536E+00</totfact>
</mgrwt>
</event>
<event>
 4    2  0.6387803E-007  0.7136342E+03  0.7818608E-02  0.9944746E-01
          2   -1    0    0  501    0  0.00000000000E+00  0.00000000000E+00  0.22297253311E+04  0.22297253311E+04  0.25500000000E-02 0. -1.
         -2   -1    0    0    0  501 -0.00000000000E+00 -0.00000000000E+00 -0.30540605444E+03  0.30540605446E+03  0.25500000000E-02 0.  1.
    8880023    1    1    2    0    0 -0.96091831823E+02  0.25735163117E+03  0.14496106092E+03  0.72820836143E+03  0.65864270000E+03 0.  1.
    8880022    1    1    2    0    0  0.96091831823E+02 -0.25735163117E+03  0.17793582157E+04  0.18069230241E+04  0.15294330000E+03 0.  0.
<mgrwt>
<rscale>  0 0.58140885E+03</rscale>
<asrwt>0</asrwt>
<pdfrwt beam="1">  1        2 0.34303467E+00 0.71363416E+03</pdfrwt>
<pdfrwt beam="2">  1       -2 0.46985547E-01 0.71363416E+03</pdfrwt>
<totfact> 0.22278453E+01</totfact>
</mgrwt>
</event>
<event>
 4    2  0.6387803E-007  0.6716419E+03  0.7818608E-02  0.1014512E+00
          2   -1    0    0  501    0  0.00000000000E+00  0.00000000000E+00  0.68642181255E+03  0.68642181255E+03  0.25500000000E-02 0. -1.
         -2   -1    0    0    0  501 -0.00000000000E+00 -0.00000000000E+00 -0.30951872765E+03  0.30951872766E+03  0.25500000000E-02 0.  1.
    8880023    1    1    2    0    0 -0.11690848504E+03  0.60207836018E+02  0.14230252019E+03  0.68655137529E+03  0.65864270000E+03 0.  1.
    8880022    1    1    2    0    0  0.11690848504E+03 -0.60207836018E+02  0.23460056472E+03  0.30938916492E+03  0.15294330000E+03 0.  1.
<mgrwt>
<rscale>  0 0.49720052E+03</rscale>
<asrwt>0</asrwt>
<pdfrwt beam="1">  1        2 0.10560335E+00 0.67164186E+03</pdfrwt>
<pdfrwt beam="2">  1       -2 0.47618267E-01 0.67164186E+03</pdfrwt>
<totfact> 0.17800855E+02</totfact>
</mgrwt>
</event>
<event>
 4    2  0.6387803E-007  0.7321006E+03  0.7818608E-02  0.9883585E-01
         -2   -1    0    0    0  501 -0.00000000000E+00  0.00000000000E+00  0.58947165499E+03  0.58947165500E+03  0.25500000000E-02 0.  1.
          2   -1    0    0  501    0  0.00000000000E+00 -0.00000000000E+00 -0.13402610294E+04  0.13402610294E+04  0.25500000000E-02 0. -1.
    8880023    1    1    2    0    0  0.25089970181E+03  0.19801603300E+03  0.32211560097E+03  0.79983102987E+03  0.65864270000E+03 0.  1.
    8880022    1    1    2    0    0 -0.25089970181E+03 -0.19801603300E+03 -0.10729049754E+04  0.11299016546E+04  0.15294330000E+03 0.  0.
<mgrwt>
<rscale>  0 0.61063443E+03</rscale>
<asrwt>0</asrwt>
<pdfrwt beam="1">  1        2 0.20619400E+00 0.73210055E+03</pdfrwt>
<pdfrwt beam="2">  1       -2 0.90687947E-01 0.73210055E+03</pdfrwt>
<totfact> 0.16649561E+01</totfact>
</mgrwt>
</event>
<event>
 4    2  0.6387803E-007  0.1448135E+04  0.7818608E-02  0.8947156E-01
         -2   -1    0    0    0  501 -0.00000000000E+00  0.00000000000E+00  0.71341765921E+03  0.71341765921E+03  0.25500000000E-02 0.  1.
          2   -1    0    0  501    0  0.00000000000E+00 -0.00000000000E+00 -0.41929815811E+04  0.41929815811E+04  0.25500000000E-02 0. -1.
    8880023    1    1    2    0    0  0.12384656180E+04 -0.35984239083E+03 -0.30980923061E+03  0.14809036427E+04  0.65864270000E+03 0.  0.
    8880022    1    1    2    0    0 -0.12384656180E+04  0.35984239083E+03 -0.31697546912E+04  0.34254955976E+04  0.15294330000E+03 0.  0.
<mgrwt>
<rscale>  0 0.14092422E+04</rscale>
<asrwt>0</asrwt>
<pdfrwt beam="1">  1        2 0.64507407E+00 0.14481346E+04</pdfrwt>
<pdfrwt beam="2">  1       -2 0.10975657E+00 0.14481346E+04</pdfrwt>
<totfact> 0.15248575E-01</totfact>
</mgrwt>
</event>
<event>
 4    2  0.6387803E-007  0.7062571E+03  0.7818608E-02  0.9972172E-01
         -2   -1    0    0    0  501 -0.00000000000E+00  0.00000000000E+00  0.23008985822E+03  0.23008985824E+03  0.25500000000E-02 0.  1.
          2   -1    0    0  501    0  0.00000000000E+00 -0.00000000000E+00 -0.17205163642E+04  0.17205163642E+04  0.25500000000E-02 0. -1.
    8880023    1    1    2    0    0 -0.49473494921E+02  0.25008247527E+03 -0.38188178499E+03  0.80289026343E+03  0.65864270000E+03 0.  1.
    8880022    1    1    2    0    0  0.49473494921E+02 -0.25008247527E+03 -0.11085447210E+04  0.11477159590E+04  0.15294330000E+03 0.  0.
<mgrwt>
<rscale>  0 0.56887479E+03</rscale>
<asrwt>0</asrwt>
<pdfrwt beam="1">  1        2 0.26469482E+00 0.70625709E+03</pdfrwt>
<pdfrwt beam="2">  1       -2 0.35398441E-01 0.70625709E+03</pdfrwt>
<totfact> 0.73597294E+01</totfact>
</mgrwt>
</event>
<event>
 4    2  0.6387803E-007  0.7861693E+03  0.7818608E-02  0.9741540E-01
         -2   -1    0    0    0  501 -0.00000000000E+00  0.00000000000E+00  0.15964836364E+04  0.15964836364E+04  0.25500000000E-02 0.  1.
          2   -1    0    0  501    0  0.00000000000E+00 -0.00000000000E+00 -0.69953412358E+03  0.69953412359E+03  0.25500000000E-02 0. -1.
    8880023    1    1    2    0    0  0.39933829842E+03 -0.15741967616E+03  0.14071980127E+04  0.16119145400E+04  0.65864270000E+03 0.  0.
    8880022    1    1    2    0    0 -0.39933829842E+03  0.15741967616E+03 -0.51024849986E+03  0.68410322002E+03  0.15294330000E+03 0.  0.
<mgrwt>
<rscale>  0 0.68596494E+03</rscale>
<asrwt>0</asrwt>
<pdfrwt beam="1">  1        2 0.10762063E+00 0.78616934E+03</pdfrwt>
<pdfrwt beam="2">  1       -2 0.24561287E+00 0.78616934E+03</pdfrwt>
<totfact> 0.28730233E+00</totfact>
</mgrwt>
</event>
<event>
 4    2  0.6387803E-007  0.6597145E+03  0.7818608E-02  0.1024451E+00
         -2   -1    0    0    0  501 -0.00000000000E+00  0.00000000000E+00  0.87731704611E+03  0.87731704612E+03  0.25500000000E-02 0.  1.
          2   -1    0    0  501    0  0.00000000000E+00 -0.00000000000E+00 -0.39764698426E+03  0.39764698427E+03  0.25500000000E-02 0. -1.
    8880023    1    1    2    0    0 -0.34672034764E+02 -0.14523048507E+02  0.72702344200E+03  0.98172621459E+03  0.65864270000E+03 0.  0.
    8880022    1    1    2    0    0  0.34672034764E+02  0.14523048507E+02 -0.24735338014E+03  0.29323781580E+03  0.15294330000E+03 0.  0.
<mgrwt>
<rscale>  0 0.46114111E+03</rscale>
<asrwt>0</asrwt>
<pdfrwt beam="1">  1        2 0.61176459E-01 0.65971454E+03</pdfrwt>
<pdfrwt beam="2">  1       -2 0.13497185E+00 0.65971454E+03</pdfrwt>
<totfact> 0.32197776E+01</totfact>
</mgrwt>
</event>
<event>
 4    2  0.6387803E-007  0.1001787E+04  0.7818608E-02  0.9379223E-01
         -2   -1    0    0    0  501 -0.00000000000E+00  0.00000000000E+00  0.16799923823E+04  0.16799923823E+04  0.25500000000E-02 0.  1.
          2   -1    0    0  501    0  0.00000000000E+00 -0.00000000000E+00 -0.67546787450E+03  0.67546787451E+03  0.25500000000E-02 0. -1.
    8880023    1    1    2    0    0 -0.22610553236E+03  0.72016890483E+03  0.11977057741E+04  0.15614340494E+04  0.65864270000E+03 0.  0.
    8880022    1    1    2    0    0  0.22610553236E+03 -0.72016890483E+03 -0.19318126632E+03  0.79402620732E+03  0.15294330000E+03 0.  0.
<mgrwt>
<rscale>  0 0.93805412E+03</rscale>
<asrwt>0</asrwt>
<pdfrwt beam="1">  1        2 0.10391813E+00 0.10017870E+04</pdfrwt>
<pdfrwt beam="2">  1       -2 0.25846037E+00 0.10017870E+04</pdfrwt>
<totfact> 0.24417795E+00</totfact>
</mgrwt>
</event>
<event>
 4    2  0.6387803E-007  0.7452665E+03  0.7818608E-02  0.9844863E-01
          2   -1    0    0  501    0  0.00000000000E+00  0.00000000000E+00  0.38236332252E+04  0.38236332252E+04  0.25500000000E-02 0. -1.
         -2   -1    0    0    0  501 -0.00000000000E+00 -0.00000000000E+00 -0.82909051960E+02  0.82909051999E+02  0.25500000000E-02 0.  1.
    8880023    1    1    2    0    0  0.22278543137E+03  0.26828817423E+03  0.24866850233E+04  0.25959631169E+04  0.65864270000E+03 0.  0.
    8880022    1    1    2    0    0 -0.22278543137E+03 -0.26828817423E+03  0.12540391499E+04  0.13105791603E+04  0.15294330000E+03 0. -1.
<mgrwt>
<rscale>  0 0.63009497E+03</rscale>
<asrwt>0</asrwt>
<pdfrwt beam="1">  1        2 0.58825124E+00 0.74526646E+03</pdfrwt>
<pdfrwt beam="2">  1       -2 0.12755239E-01 0.74526646E+03</pdfrwt>
<totfact> 0.23670286E+01</totfact>
</mgrwt>
</event>
<event>
 4    2  0.6387803E-007  0.7488166E+03  0.7818608E-02  0.9834971E-01
          2   -1    0    0  501    0  0.00000000000E+00  0.00000000000E+00  0.11942966568E+04  0.11942966568E+04  0.25500000000E-02 0. -1.
         -2   -1    0    0    0  501 -0.00000000000E+00 -0.00000000000E+00 -0.38187508553E+03  0.38187508553E+03  0.25500000000E-02 0.  1.
    8880023    1    1    2    0    0 -0.70705865543E+02 -0.34916578357E+03  0.87267410031E+02  0.75388452097E+03  0.65864270000E+03 0.  0.
    8880022    1    1    2    0    0  0.70705865543E+02  0.34916578357E+03  0.72515416126E+03  0.82228722139E+03  0.15294330000E+03 0.  1.
<mgrwt>
<rscale>  0 0.63519087E+03</rscale>
<asrwt>0</asrwt>
<pdfrwt beam="1">  1        2 0.18373795E+00 0.74881658E+03</pdfrwt>
<pdfrwt beam="2">  1       -2 0.58750013E-01 0.74881658E+03</pdfrwt>
<totfact> 0.52602666E+01</totfact>
</mgrwt>
</event>
<event>
 4    2  0.6387803E-007  0.7522023E+03  0.7818608E-02  0.9825730E-01
          2   -1    0    0  501    0  0.00000000000E+00  0.00000000000E+00  0.25687586904E+04  0.25687586904E+04  0.25500000000E-02 0. -1.
         -2   -1    0    0    0  501 -0.00000000000E+00 -0.00000000000E+00 -0.16931175992E+03  0.16931175994E+03  0.25500000000E-02 0.  1.
    8880023    1    1    2    0    0 -0.31783589487E+03  0.17600686148E+03  0.21343694064E+04  0.22630380113E+04  0.65864270000E+03 0. -1.
    8880022    1    1    2    0    0  0.31783589487E+03 -0.17600686148E+03  0.26507752410E+03  0.47503243906E+03  0.15294330000E+03 0.  0.
<mgrwt>
<rscale>  0 0.63999823E+03</rscale>
<asrwt>0</asrwt>
<pdfrwt beam="1">  1        2 0.39519363E+00 0.75220229E+03</pdfrwt>
<pdfrwt beam="2">  1       -2 0.26047964E-01 0.75220229E+03</pdfrwt>
<totfact> 0.44036699E+01</totfact>
</mgrwt>
</event>
<event>
 4    2  0.6387803E-007  0.9521130E+03  0.7818608E-02  0.9447080E-01
         -2   -1    0    0    0  501 -0.00000000000E+00  0.00000000000E+00  0.22907308542E+04  0.22907308542E+04  0.25500000000E-02 0.  1.
          2   -1    0    0  501    0  0.00000000000E+00 -0.00000000000E+00 -0.46817622926E+03  0.46817622927E+03  0.25500000000E-02 0. -1.
    8880023    1    1    2    0    0 -0.10861825434E+02 -0.68745249868E+03  0.18206315557E+04  0.20545603873E+04  0.65864270000E+03 0.  1.
    8880022    1    1    2    0    0  0.10861825434E+02  0.68745249868E+03  0.19230692236E+01  0.70434669616E+03  0.15294330000E+03 0. -1.
<mgrwt>
<rscale>  0 0.88300381E+03</rscale>
<asrwt>0</asrwt>
<pdfrwt beam="1">  1        2 0.72027113E-01 0.95211298E+03</pdfrwt>
<pdfrwt beam="2">  1       -2 0.35242013E+00 0.95211298E+03</pdfrwt>
<totfact> 0.10200191E+00</totfact>
</mgrwt>
</event>
<event>
 4    2  0.6387803E-007  0.7243858E+03  0.7818608E-02  0.9908016E-01
         -2   -1    0    0    0  501 -0.00000000000E+00  0.00000000000E+00  0.74969433297E+03  0.74969433297E+03  0.25500000000E-02 0.  1.
          2   -1    0    0  501    0  0.00000000000E+00 -0.00000000000E+00 -0.12291251061E+04  0.12291251061E+04  0.25500000000E-02 0. -1.
    8880023    1    1    2    0    0 -0.25607609143E+03  0.15921551929E+03  0.54082090576E+03  0.90400332110E+03  0.65864270000E+03 0.  1.
    8880022    1    1    2    0    0  0.25607609143E+03 -0.15921551929E+03 -0.10202516788E+04  0.10748161179E+04  0.15294330000E+03 0.  0.
<mgrwt>
<rscale>  0 0.59874363E+03</rscale>
<asrwt>0</asrwt>
<pdfrwt beam="1">  1        2 0.18909617E+00 0.72438578E+03</pdfrwt>
<pdfrwt beam="2">  1       -2 0.11533759E+00 0.72438578E+03</pdfrwt>
<totfact> 0.10903937E+01</totfact>
</mgrwt>
</event>
<event>
 4    2  0.6387803E-007  0.6835611E+03  0.7818608E-02  0.1007377E+00
          2   -1    0    0  501    0  0.00000000000E+00  0.00000000000E+00  0.18200668455E+04  0.18200668455E+04  0.25500000000E-02 0. -1.
         -2   -1    0    0    0  501 -0.00000000000E+00 -0.00000000000E+00 -0.24603096861E+03  0.24603096862E+03  0.25500000000E-02 0.  1.
    8880023    1    1    2    0    0 -0.46186863481E+02  0.17695290155E+03  0.26116016837E+03  0.73175159414E+03  0.65864270000E+03 0.  1.
    8880022    1    1    2    0    0  0.46186863481E+02 -0.17695290155E+03  0.13128757085E+04  0.13343462200E+04  0.15294330000E+03 0.  0.
<mgrwt>
<rscale>  0 0.52530567E+03</rscale>
<asrwt>0</asrwt>
<pdfrwt beam="1">  1        2 0.28001028E+00 0.68356109E+03</pdfrwt>
<pdfrwt beam="2">  1       -2 0.37850919E-01 0.68356109E+03</pdfrwt>
<totfact> 0.57285520E+01</totfact>
</mgrwt>
</event>
<event>
 4    2  0.6387803E-007  0.6762179E+03  0.7818608E-02  0.1011549E+00
          2   -1    0    0  501    0  0.00000000000E+00  0.00000000000E+00  0.35532798514E+04  0.35532798514E+04  0.25500000000E-02 0. -1.
         -2   -1    0    0    0  501 -0.00000000000E+00 -0.00000000000E+00 -0.40939718014E+03  0.40939718015E+03  0.25500000000E-02 0.  1.
    8880023    1    1    2    0    0 -0.13350926198E+03 -0.75071188986E+02 -0.12411937026E+03  0.68751453133E+03  0.65864270000E+03 0.  1.
    8880022    1    1    2    0    0  0.13350926198E+03  0.75071188986E+02  0.32680020415E+04  0.32751625002E+04  0.15294330000E+03 0.  0.
<mgrwt>
<rscale>  0 0.50863480E+03</rscale>
<asrwt>0</asrwt>
<pdfrwt beam="1">  1        2 0.54665844E+00 0.67621787E+03</pdfrwt>
<pdfrwt beam="2">  1       -2 0.62984181E-01 0.67621787E+03</pdfrwt>
<totfact> 0.19318536E+00</totfact>
</mgrwt>
</event>
<event>
 4    2  0.6387803E-007  0.7344003E+03  0.7818608E-02  0.9876569E-01
          2   -1    0    0  501    0  0.00000000000E+00  0.00000000000E+00  0.75085922764E+03  0.75085922764E+03  0.25500000000E-02 0. -1.
         -2   -1    0    0    0  501 -0.00000000000E+00 -0.00000000000E+00 -0.12101472730E+04  0.12101472730E+04  0.25500000000E-02 0.  1.
    8880023    1    1    2    0    0  0.22996340028E+03  0.22945667840E+03 -0.10430511983E+04  0.12756565138E+04  0.65864270000E+03 0.  1.
    8880022    1    1    2    0    0 -0.22996340028E+03 -0.22945667840E+03  0.58376315291E+03  0.68534998683E+03  0.15294330000E+03 0.  0.
<mgrwt>
<rscale>  0 0.61410387E+03</rscale>
<asrwt>0</asrwt>
<pdfrwt beam="1">  1        2 0.11551680E+00 0.73440026E+03</pdfrwt>
<pdfrwt beam="2">  1       -2 0.18617650E+00 0.73440026E+03</pdfrwt>
<totfact> 0.62911987E+00</totfact>
</mgrwt>
</event>
<event>
 4    2  0.6387803E-007  0.1116049E+04  0.7818608E-02  0.9243395E-01
          2   -1    0    0  501    0  0.00000000000E+00  0.00000000000E+00  0.72104995202E+03  0.72104995203E+03  0.25500000000E-02 0. -1.
         -2   -1    0    0    0  501 -0.00000000000E+00 -0.00000000000E+00 -0.16237530633E+04  0.16237530633E+04  0.25500000000E-02 0.  1.
    8880023    1    1    2    0    0 -0.83904914916E+03  0.32825394379E+03 -0.89551311710E+03  0.14309116239E+04  0.65864270000E+03 0.  0.
    8880022    1    1    2    0    0  0.83904914916E+03 -0.32825394379E+03 -0.71899942233E+01  0.91389139145E+03  0.15294330000E+03 0.  0.
<mgrwt>
<rscale>  0 0.10616530E+04</rscale>
<asrwt>0</asrwt>
<pdfrwt beam="1">  1        2 0.11093076E+00 0.11160485E+04</pdfrwt>
<pdfrwt beam="2">  1       -2 0.24980816E+00 0.11160485E+04</pdfrwt>
<totfact> 0.25061878E+00</totfact>
</mgrwt>
</event>
<event>
 4    2  0.6387803E-007  0.9399759E+03  0.7818608E-02  0.9464686E-01
         -2   -1    0    0    0  501 -0.00000000000E+00  0.00000000000E+00  0.88066913466E+03  0.88066913466E+03  0.25500000000E-02 0.  1.
          2   -1    0    0  501    0  0.00000000000E+00 -0.00000000000E+00 -0.10803374815E+04  0.10803374815E+04  0.25500000000E-02 0. -1.
    8880023    1    1    2    0    0  0.66809314623E+03 -0.58275300916E+02  0.42523171204E+03  0.10316863273E+04  0.65864270000E+03 0.  1.
    8880022    1    1    2    0    0 -0.66809314623E+03  0.58275300916E+02 -0.62490005891E+03  0.92932028891E+03  0.15294330000E+03 0.  0.
<mgrwt>
<rscale>  0 0.86938231E+03</rscale>
<asrwt>0</asrwt>
<pdfrwt beam="1">  1        2 0.16620577E+00 0.93997589E+03</pdfrwt>
<pdfrwt beam="2">  1       -2 0.13548756E+00 0.93997589E+03</pdfrwt>
<totfact> 0.87360745E+00</totfact>
</mgrwt>
</event>
<event>
 4    2  0.6387803E-007  0.8502035E+03  0.7818608E-02  0.9611233E-01
         -2   -1    0    0    0  501 -0.00000000000E+00  0.00000000000E+00  0.37868963593E+03  0.37868963593E+03  0.25500000000E-02 0.  1.
          2   -1    0    0  501    0  0.00000000000E+00 -0.00000000000E+00 -0.14015669830E+04  0.14015669830E+04  0.25500000000E-02 0. -1.
    8880023    1    1    2    0    0  0.48520376745E+03  0.23154517586E+03 -0.83211771417E+03  0.11896495118E+04  0.65864270000E+03 0. -1.
    8880022    1    1    2    0    0 -0.48520376745E+03 -0.23154517586E+03 -0.19075963286E+03  0.59060710710E+03  0.15294330000E+03 0.  0.
<mgrwt>
<rscale>  0 0.76557165E+03</rscale>
<asrwt>0</asrwt>
<pdfrwt beam="1">  1        2 0.21562569E+00 0.85020355E+03</pdfrwt>
<pdfrwt beam="2">  1       -2 0.58259945E-01 0.85020355E+03</pdfrwt>
<totfact> 0.40231856E+01</totfact>
</mgrwt>
</event>
<event>
 4    2  0.6387803E-007  0.8372330E+03  0.7818608E-02  0.9635420E-01
          2   -1    0    0  501    0  0.00000000000E+00  0.00000000000E+00  0.57074490088E+03  0.57074490088E+03  0.25500000000E-02 0. -1.
         -2   -1    0    0    0  501 -0.00000000000E+00 -0.00000000000E+00 -0.96931297656E+03  0.96931297657E+03  0.25500000000E-02 0.  1.
    8880023    1    1    2    0    0 -0.44433933552E+03 -0.26402937202E+03 -0.52260481212E+03  0.98695235462E+03  0.65864270000E+03 0.  0.
    8880022    1    1    2    0    0  0.44433933552E+03  0.26402937202E+03  0.12403673644E+03  0.55310552283E+03  0.15294330000E+03 0.  0.
<mgrwt>
<rscale>  0 0.74995572E+03</rscale>
<asrwt>0</asrwt>
<pdfrwt beam="1">  1        2 0.87806908E-01 0.83723304E+03</pdfrwt>
<pdfrwt beam="2">  1       -2 0.14912507E+00 0.83723304E+03</pdfrwt>
<totfact> 0.16129824E+01</totfact>
</mgrwt>
</event>
<event>
 4    2  0.6387803E-007  0.7257466E+03  0.7818608E-02  0.9903600E-01
          2   -1    0    0  501    0  0.00000000000E+00  0.00000000000E+00  0.10742322656E+04  0.10742322656E+04  0.25500000000E-02 0. -1.
         -2   -1    0    0    0  501 -0.00000000000E+00 -0.00000000000E+00 -0.29179424233E+03  0.29179424234E+03  0.25500000000E-02 0.  1.
    8880023    1    1    2    0    0  0.26364998876E+03 -0.15292669964E+03  0.32430786780E+03  0.79491112171E+03  0.65864270000E+03 0.  1.
    8880022    1    1    2    0    0 -0.26364998876E+03  0.15292669964E+03  0.45813015550E+03  0.57111538626E+03  0.15294330000E+03 0.  1.
<mgrwt>
<rscale>  0 0.60087112E+03</rscale>
<asrwt>0</asrwt>
<pdfrwt beam="1">  1        2 0.16526650E+00 0.72574658E+03</pdfrwt>
<pdfrwt beam="2">  1       -2 0.44891422E-01 0.72574658E+03</pdfrwt>
<totfact> 0.10803087E+02</totfact>
</mgrwt>
</event>
<event>
 4    2  0.6387803E-007  0.6928330E+03  0.7818608E-02  0.1002834E+00
          2   -1    0    0  501    0  0.00000000000E+00  0.00000000000E+00  0.30726027725E+04  0.30726027725E+04  0.25500000000E-02 0. -1.
         -2   -1    0    0    0  501 -0.00000000000E+00 -0.00000000000E+00 -0.22978445548E+03  0.22978445549E+03  0.25500000000E-02 0.  1.
    8880023    1    1    2    0    0  0.11803297768E+03 -0.17965388279E+03  0.31541386069E+03  0.76125121425E+03  0.65864270000E+03 0.  1.
    8880022    1    1    2    0    0 -0.11803297768E+03  0.17965388279E+03  0.25274044563E+04  0.25411360137E+04  0.15294330000E+03 0.  0.
<mgrwt>
<rscale>  0 0.54424788E+03</rscale>
<asrwt>0</asrwt>
<pdfrwt beam="1">  1        2 0.47270814E+00 0.69283296E+03</pdfrwt>
<pdfrwt beam="2">  1       -2 0.35351453E-01 0.69283296E+03</pdfrwt>
<totfact> 0.12661490E+01</totfact>
</mgrwt>
</event>
<event>
 4    2  0.6387803E-007  0.7809620E+03  0.7818608E-02  0.9753582E-01
         -2   -1    0    0    0  501 -0.00000000000E+00  0.00000000000E+00  0.88894202761E+03  0.88894202762E+03  0.25500000000E-02 0.  1.
          2   -1    0    0  501    0  0.00000000000E+00 -0.00000000000E+00 -0.22006123938E+04  0.22006123938E+04  0.25500000000E-02 0. -1.
    8880023    1    1    2    0    0  0.32105718245E+03  0.27021054107E+03  0.68789077873E+03  0.10407186847E+04  0.65864270000E+03 0.  1.
    8880022    1    1    2    0    0 -0.32105718245E+03 -0.27021054107E+03 -0.19995611449E+04  0.20488357367E+04  0.15294330000E+03 0.  0.
<mgrwt>
<rscale>  0 0.67914216E+03</rscale>
<asrwt>0</asrwt>
<pdfrwt beam="1">  1        2 0.33855575E+00 0.78096201E+03</pdfrwt>
<pdfrwt beam="2">  1       -2 0.13676031E+00 0.78096201E+03</pdfrwt>
<totfact> 0.20411593E+00</totfact>
</mgrwt>
</event>
<event>
 4    2  0.6387803E-007  0.9259284E+03  0.7818608E-02  0.9485628E-01
          2   -1    0    0  501    0  0.00000000000E+00  0.00000000000E+00  0.26116756937E+04  0.26116756937E+04  0.25500000000E-02 0. -1.
         -2   -1    0    0    0  501 -0.00000000000E+00 -0.00000000000E+00 -0.33936355793E+03  0.33936355794E+03  0.25500000000E-02 0.  1.
    8880023    1    1    2    0    0  0.28215563799E+03 -0.58644806734E+03  0.49024650775E+03  0.10477046265E+04  0.65864270000E+03 0.  0.
    8880022    1    1    2    0    0 -0.28215563799E+03  0.58644806734E+03  0.17820656281E+04  0.19033346252E+04  0.15294330000E+03 0.  0.
<mgrwt>
<rscale>  0 0.85351734E+03</rscale>
<asrwt>0</asrwt>
<pdfrwt beam="1">  1        2 0.40179627E+00 0.92592837E+03</pdfrwt>
<pdfrwt beam="2">  1       -2 0.52209777E-01 0.92592837E+03</pdfrwt>
<totfact> 0.10622824E+01</totfact>
</mgrwt>
</event>
<event>
 4    2  0.6387803E-007  0.1030758E+04  0.7818608E-02  0.9342379E-01
          2   -1    0    0  501    0  0.00000000000E+00  0.00000000000E+00  0.14370528202E+04  0.14370528202E+04  0.25500000000E-02 0. -1.
         -2   -1    0    0    0  501 -0.00000000000E+00 -0.00000000000E+00 -0.74966765494E+03  0.74966765495E+03  0.25500000000E-02 0.  1.
    8880023    1    1    2    0    0 -0.45245800187E+03  0.65110191184E+03 -0.12858039414E+03  0.10387468734E+04  0.65864270000E+03 0.  0.
    8880022    1    1    2    0    0  0.45245800187E+03 -0.65110191184E+03  0.81596555936E+03  0.11479736017E+04  0.15294330000E+03 0.  0.
<mgrwt>
<rscale>  0 0.96973290E+03</rscale>
<asrwt>0</asrwt>
<pdfrwt beam="1">  1        2 0.22108505E+00 0.10307580E+04</pdfrwt>
<pdfrwt beam="2">  1       -2 0.11533349E+00 0.10307580E+04</pdfrwt>
<totfact> 0.79954777E+00</totfact>
</mgrwt>
</event>
<event>
 4    2  0.6387803E-007  0.7267656E+03  0.7818608E-02  0.9900325E-01
          2   -1    0    0  501    0  0.00000000000E+00  0.00000000000E+00  0.21726065944E+04  0.21726065944E+04  0.25500000000E-02 0. -1.
         -2   -1    0    0    0  501 -0.00000000000E+00 -0.00000000000E+00 -0.13181880517E+03  0.13181880520E+03  0.25500000000E-02 0.  1.
    8880023    1    1    2    0    0 -0.25749221948E+03  0.16755828591E+03  0.14141609946E+04  0.15899809895E+04  0.65864270000E+03 0.  0.
    8880022    1    1    2    0    0  0.25749221948E+03 -0.16755828591E+03  0.62662679464E+03  0.71444441004E+03  0.15294330000E+03 0. -1.
<mgrwt>
<rscale>  0 0.60245547E+03</rscale>
<asrwt>0</asrwt>
<pdfrwt beam="1">  1        2 0.33424715E+00 0.72676559E+03</pdfrwt>
<pdfrwt beam="2">  1       -2 0.20279817E-01 0.72676559E+03</pdfrwt>
<totfact> 0.11498650E+02</totfact>
</mgrwt>
</event>
<event>
 4    2  0.6387803E-007  0.7405592E+03  0.7818608E-02  0.9858321E-01
         -2   -1    0    0    0  501 -0.00000000000E+00  0.00000000000E+00  0.40151696928E+03  0.40151696929E+03  0.25500000000E-02 0.  1.
          2   -1    0    0  501    0  0.00000000000E+00 -0.00000000000E+00 -0.15355377666E+04  0.15355377666E+04  0.25500000000E-02 0. -1.
    8880023    1    1    2    0    0  0.33540590709E+03 -0.46049625214E+02 -0.13260765567E+04  0.15188505295E+04  0.65864270000E+03 0. -1.
    8880022    1    1    2    0    0 -0.33540590709E+03  0.46049625214E+02  0.19205575940E+03  0.41820420637E+03  0.15294330000E+03 0.  0.
<mgrwt>
<rscale>  0 0.62324440E+03</rscale>
<asrwt>0</asrwt>
<pdfrwt beam="1">  1        2 0.23623658E+00 0.74055918E+03</pdfrwt>
<pdfrwt beam="2">  1       -2 0.61771842E-01 0.74055918E+03</pdfrwt>
<totfact> 0.30248529E+01</totfact>
</mgrwt>
</event>
<event>
 4    2  0.6387803E-007  0.9063763E+03  0.7818608E-02  0.9515872E-01
         -2   -1    0    0    0  501 -0.00000000000E+00  0.00000000000E+00  0.59440018186E+03  0.59440018187E+03  0.25500000000E-02 0.  1.
          2   -1    0    0  501    0  0.00000000000E+00 -0.00000000000E+00 -0.23734146721E+04  0.23734146721E+04  0.25500000000E-02 0. -1.
    8880023    1    1    2    0    0  0.77436221081E+02  0.61782802849E+03  0.16457654084E+03  0.92119676790E+03  0.65864270000E+03 0.  1.
    8880022    1    1    2    0    0 -0.77436221081E+02 -0.61782802849E+03 -0.19435910311E+04  0.20466180861E+04  0.15294330000E+03 0.  0.
<mgrwt>
<rscale>  0 0.83123684E+03</rscale>
<asrwt>0</asrwt>
<pdfrwt beam="1">  1        2 0.36514071E+00 0.90637633E+03</pdfrwt>
<pdfrwt beam="2">  1       -2 0.91446183E-01 0.90637633E+03</pdfrwt>
<totfact> 0.42781493E+00</totfact>
</mgrwt>
</event>
<event>
 4    2  0.6387803E-007  0.8006445E+03  0.7818608E-02  0.9709404E-01
         -2   -1    0    0    0  501 -0.00000000000E+00  0.00000000000E+00  0.41175987912E+03  0.41175987913E+03  0.25500000000E-02 0.  1.
          2   -1    0    0  501    0  0.00000000000E+00 -0.00000000000E+00 -0.22505710722E+04  0.22505710722E+04  0.25500000000E-02 0. -1.
    8880023    1    1    2    0    0  0.28551651179E+03  0.35454450127E+03 -0.41225287781E+02  0.80170519052E+03  0.65864270000E+03 0.  1.
    8880022    1    1    2    0    0 -0.28551651179E+03 -0.35454450127E+03 -0.17975859053E+04  0.18606257608E+04  0.15294330000E+03 0.  0.
<mgrwt>
<rscale>  0 0.70459623E+03</rscale>
<asrwt>0</asrwt>
<pdfrwt beam="1">  1        2 0.34624170E+00 0.80064455E+03</pdfrwt>
<pdfrwt beam="2">  1       -2 0.63347675E-01 0.80064455E+03</pdfrwt>
<totfact> 0.11530574E+01</totfact>
</mgrwt>
</event>
<event>
 4    2  0.6387803E-007  0.7104063E+03  0.7818608E-02  0.9956495E-01
         -2   -1    0    0    0  501 -0.00000000000E+00  0.00000000000E+00  0.36894880415E+03  0.36894880416E+03  0.25500000000E-02 0.  1.
          2   -1    0    0  501    0  0.00000000000E+00 -0.00000000000E+00 -0.23615617848E+04  0.23615617848E+04  0.25500000000E-02 0. -1.
    8880023    1    1    2    0    0  0.14448267293E+03 -0.22358813381E+03  0.40134265846E+01  0.71041763084E+03  0.65864270000E+03 0.  1.
    8880022    1    1    2    0    0 -0.14448267293E+03  0.22358813381E+03 -0.19966264072E+04  0.20200929581E+04  0.15294330000E+03 0.  0.
<mgrwt>
<rscale>  0 0.57599696E+03</rscale>
<asrwt>0</asrwt>
<pdfrwt beam="1">  1        2 0.36331719E+00 0.71040629E+03</pdfrwt>
<pdfrwt beam="2">  1       -2 0.56761356E-01 0.71040629E+03</pdfrwt>
<totfact> 0.12791831E+01</totfact>
</mgrwt>
</event>
<event>
 4    2  0.6387803E-007  0.9382505E+03  0.7818608E-02  0.9467225E-01
         -2   -1    0    0    0  501 -0.00000000000E+00  0.00000000000E+00  0.11447758011E+04  0.11447758011E+04  0.25500000000E-02 0.  1.
          2   -1    0    0  501    0  0.00000000000E+00 -0.00000000000E+00 -0.11321871719E+04  0.11321871719E+04  0.25500000000E-02 0. -1.
    8880023    1    1    2    0    0 -0.58986075426E+03 -0.31395540959E+03  0.79997459120E+03  0.12329936178E+04  0.65864270000E+03 0.  0.
    8880022    1    1    2    0    0  0.58986075426E+03  0.31395540959E+03 -0.78738596197E+03  0.10439693553E+04  0.15294330000E+03 0.  0.
<mgrwt>
<rscale>  0 0.86743958E+03</rscale>
<asrwt>0</asrwt>
<pdfrwt beam="1">  1        2 0.17418264E+00 0.93825045E+03</pdfrwt>
<pdfrwt beam="2">  1       -2 0.17611935E+00 0.93825045E+03</pdfrwt>
<totfact> 0.40090954E+00</totfact>
</mgrwt>
</event>
<event>
 4    2  0.6387803E-007  0.7165855E+03  0.7818608E-02  0.9934313E-01
         -2   -1    0    0    0  501 -0.00000000000E+00  0.00000000000E+00  0.12337646810E+04  0.12337646810E+04  0.25500000000E-02 0.  1.
          2   -1    0    0  501    0  0.00000000000E+00 -0.00000000000E+00 -0.13599084321E+04  0.13599084321E+04  0.25500000000E-02 0. -1.
    8880023    1    1    2    0    0  0.28207200894E+03  0.10953136020E+02  0.11074040948E+04  0.13190294253E+04  0.65864270000E+03 0.  1.
    8880022    1    1    2    0    0 -0.28207200894E+03 -0.10953136020E+02 -0.12335478460E+04  0.12746436878E+04  0.15294330000E+03 0.  0.
<mgrwt>
<rscale>  0 0.58626753E+03</rscale>
<asrwt>0</asrwt>
<pdfrwt beam="1">  1        2 0.20921668E+00 0.71658551E+03</pdfrwt>
<pdfrwt beam="2">  1       -2 0.18980995E+00 0.71658551E+03</pdfrwt>
<totfact> 0.24529331E+00</totfact>
</mgrwt>
</event>
<event>
 4    2  0.6387803E-007  0.9688532E+03  0.7818608E-02  0.9423492E-01
         -2   -1    0    0    0  501 -0.00000000000E+00  0.00000000000E+00  0.18413546249E+04  0.18413546249E+04  0.25500000000E-02 0.  1.
          2   -1    0    0  501    0  0.00000000000E+00 -0.00000000000E+00 -0.47841770440E+03  0.47841770441E+03  0.25500000000E-02 0. -1.
    8880023    1    1    2    0    0  0.93574169817E+02 -0.70435084262E+03  0.12542580829E+04  0.15848784747E+04  0.65864270000E+03 0.  0.
    8880022    1    1    2    0    0 -0.93574169817E+02  0.70435084262E+03  0.10867883757E+03  0.73489385458E+03  0.15294330000E+03 0.  0.
<mgrwt>
<rscale>  0 0.90167332E+03</rscale>
<asrwt>0</asrwt>
<pdfrwt beam="1">  1        2 0.73602724E-01 0.96885316E+03</pdfrwt>
<pdfrwt beam="2">  1       -2 0.28328532E+00 0.96885316E+03</pdfrwt>
<totfact> 0.26281625E+00</totfact>
</mgrwt>
</event>
<event>
 4    2  0.6387803E-007  0.9364957E+03  0.7818608E-02  0.9469816E-01
          2   -1    0    0  501    0  0.00000000000E+00  0.00000000000E+00  0.38724955505E+04  0.38724955505E+04  0.25500000000E-02 0. -1.
         -2   -1    0    0    0  501 -0.00000000000E+00 -0.00000000000E+00 -0.45296604526E+03  0.45296604527E+03  0.25500000000E-02 0.  1.
    8880023    1    1    2    0    0 -0.27040185860E+01 -0.66573774744E+03  0.10625392968E+03  0.94250419835E+03  0.65864270000E+03 0.  0.
    8880022    1    1    2    0    0  0.27040185860E+01  0.66573774744E+03  0.33132755755E+04  0.33829573974E+04  0.15294330000E+03 0.  0.
<mgrwt>
<rscale>  0 0.86546221E+03</rscale>
<asrwt>0</asrwt>
<pdfrwt beam="1">  1        2 0.59576855E+00 0.93649574E+03</pdfrwt>
<pdfrwt beam="2">  1       -2 0.69687083E-01 0.93649574E+03</pdfrwt>
<totfact> 0.86076936E-01</totfact>
</mgrwt>
</event>
<event>
 4    2  0.6387803E-007  0.1122655E+04  0.7818608E-02  0.9236242E-01
         -2   -1    0    0    0  501 -0.00000000000E+00  0.00000000000E+00  0.53241432293E+03  0.53241432294E+03  0.25500000000E-02 0.  1.
          2   -1    0    0  501    0  0.00000000000E+00 -0.00000000000E+00 -0.31006749511E+04  0.31006749511E+04  0.25500000000E-02 0. -1.
    8880023    1    1    2    0    0 -0.82994039610E+03  0.37113800468E+03 -0.26691249777E+03  0.11539484249E+04  0.65864270000E+03 0.  0.
    8880022    1    1    2    0    0  0.82994039610E+03 -0.37113800468E+03 -0.23013481303E+04  0.24791408491E+04  0.15294330000E+03 0.  0.
<mgrwt>
<rscale>  0 0.10687056E+04</rscale>
<asrwt>0</asrwt>
<pdfrwt beam="1">  1        2 0.47702691E+00 0.11226552E+04</pdfrwt>
<pdfrwt beam="2">  1       -2 0.81909897E-01 0.11226552E+04</pdfrwt>
<totfact> 0.19808424E+00</totfact>
</mgrwt>
</event>
<event>
 4    2  0.6387803E-007  0.6624688E+03  0.7818608E-02  0.1021759E+00
         -2   -1    0    0    0  501 -0.00000000000E+00  0.00000000000E+00  0.14433792478E+03  0.14433792481E+03  0.25500000000E-02 0.  1.
          2   -1    0    0  501    0  0.00000000000E+00 -0.00000000000E+00 -0.17088350443E+04  0.17088350443E+04  0.25500000000E-02 0. -1.
    8880023    1    1    2    0    0  0.68157043437E+02  0.20230811039E+02 -0.66742495121E+03  0.94038340056E+03  0.65864270000E+03 0.  1.
    8880022    1    1    2    0    0 -0.68157043437E+02 -0.20230811039E+02 -0.89707216828E+03  0.91278956853E+03  0.15294330000E+03 0.  0.
<mgrwt>
<rscale>  0 0.47057334E+03</rscale>
<asrwt>0</asrwt>
<pdfrwt beam="1">  1        2 0.26289769E+00 0.66246877E+03</pdfrwt>
<pdfrwt beam="2">  1       -2 0.22205836E-01 0.66246877E+03</pdfrwt>
<totfact> 0.17653785E+02</totfact>
</mgrwt>
</event>
<event>
 4    2  0.6387803E-007  0.9779607E+03  0.7818608E-02  0.9410977E-01
         -2   -1    0    0    0  501 -0.00000000000E+00  0.00000000000E+00  0.76659044234E+03  0.76659044235E+03  0.25500000000E-02 0.  1.
          2   -1    0    0  501    0  0.00000000000E+00 -0.00000000000E+00 -0.16052074350E+04  0.16052074350E+04  0.25500000000E-02 0. -1.
    8880023    1    1    2    0    0  0.44330112855E+03 -0.57103499471E+03 -0.12010007032E+04  0.15488091397E+04  0.65864270000E+03 0.  0.
    8880022    1    1    2    0    0 -0.44330112855E+03  0.57103499471E+03  0.36238371051E+03  0.82298873772E+03  0.15294330000E+03 0.  1.
<mgrwt>
<rscale>  0 0.91177773E+03</rscale>
<asrwt>0</asrwt>
<pdfrwt beam="1">  1        2 0.24695499E+00 0.97796066E+03</pdfrwt>
<pdfrwt beam="2">  1       -2 0.11793699E+00 0.97796066E+03</pdfrwt>
<totfact> 0.61242893E+00</totfact>
</mgrwt>
</event>
<event>
 4    2  0.6387803E-007  0.7008734E+03  0.7818608E-02  0.9993597E-01
          2   -1    0    0  501    0  0.00000000000E+00  0.00000000000E+00  0.12459669619E+04  0.12459669619E+04  0.25500000000E-02 0. -1.
         -2   -1    0    0    0  501 -0.00000000000E+00 -0.00000000000E+00 -0.42957679876E+03  0.42957679876E+03  0.25500000000E-02 0.  1.
    8880023    1    1    2    0    0 -0.79883642073E+02 -0.22590255289E+03 -0.10735708742E+03  0.70904803092E+03  0.65864270000E+03 0.  1.
    8880022    1    1    2    0    0  0.79883642073E+02  0.22590255289E+03  0.92374725061E+03  0.96649572979E+03  0.15294330000E+03 0.  0.
<mgrwt>
<rscale>  0 0.55931889E+03</rscale>
<asrwt>0</asrwt>
<pdfrwt beam="1">  1        2 0.19168722E+00 0.70087343E+03</pdfrwt>
<pdfrwt beam="2">  1       -2 0.66088739E-01 0.70087343E+03</pdfrwt>
<totfact> 0.38366271E+01</totfact>
</mgrwt>
</event>
<event>
 4    2  0.6387803E-007  0.1015099E+04  0.7818608E-02  0.9362065E-01
         -2   -1    0    0    0  501 -0.00000000000E+00  0.00000000000E+00  0.26646767210E+03  0.26646767211E+03  0.25500000000E-02 0.  1.
          2   -1    0    0  501    0  0.00000000000E+00 -0.00000000000E+00 -0.39984280150E+04  0.39984280150E+04  0.25500000000E-02 0. -1.
    8880023    1    1    2    0    0  0.36184212671E+03 -0.68241205717E+03 -0.10124821918E+04  0.14337176624E+04  0.65864270000E+03 0.  0.
    8880022    1    1    2    0    0 -0.36184212671E+03  0.68241205717E+03 -0.27194781511E+04  0.28311780247E+04  0.15294330000E+03 0.  0.
<mgrwt>
<rscale>  0 0.95264469E+03</rscale>
<asrwt>0</asrwt>
<pdfrwt beam="1">  1        2 0.61514273E+00 0.10150991E+04</pdfrwt>
<pdfrwt beam="2">  1       -2 0.40995029E-01 0.10150991E+04</pdfrwt>
<totfact> 0.20341130E+00</totfact>
</mgrwt>
</event>
<event>
 4    2  0.6387803E-007  0.8971078E+03  0.7818608E-02  0.9530691E-01
         -2   -1    0    0    0  501 -0.00000000000E+00  0.00000000000E+00  0.47461992464E+03  0.47461992465E+03  0.25500000000E-02 0.  1.
          2   -1    0    0  501    0  0.00000000000E+00 -0.00000000000E+00 -0.32716581534E+04  0.32716581534E+04  0.25500000000E-02 0. -1.
    8880023    1    1    2    0    0 -0.60907459962E+03  0.45049180080E+01 -0.18127640010E+02  0.89729091145E+03  0.65864270000E+03 0.  0.
    8880022    1    1    2    0    0  0.60907459962E+03 -0.45049180080E+01 -0.27789105887E+04  0.28489871666E+04  0.15294330000E+03 0.  0.
<mgrwt>
<rscale>  0 0.82058458E+03</rscale>
<asrwt>0</asrwt>
<pdfrwt beam="1">  1        2 0.50333201E+00 0.89710778E+03</pdfrwt>
<pdfrwt beam="2">  1       -2 0.73018452E-01 0.89710778E+03</pdfrwt>
<totfact> 0.20637297E+00</totfact>
</mgrwt>
</event>
<event>
 4    2  0.6387803E-007  0.9182228E+03  0.7818608E-02  0.9497389E-01
          2   -1    0    0  501    0  0.00000000000E+00  0.00000000000E+00  0.12416737524E+04  0.12416737524E+04  0.25500000000E-02 0. -1.
         -2   -1    0    0    0  501 -0.00000000000E+00 -0.00000000000E+00 -0.58739737362E+03  0.58739737362E+03  0.25500000000E-02 0.  1.
    8880023    1    1    2    0    0  0.12918057592E+03  0.62660612616E+03  0.72158491813E+03  0.11678261253E+04  0.65864270000E+03 0.  0.
    8880022    1    1    2    0    0 -0.12918057592E+03 -0.62660612616E+03 -0.67308539349E+02  0.66124500075E+03  0.15294330000E+03 0.  0.
<mgrwt>
<rscale>  0 0.84476561E+03</rscale>
<asrwt>0</asrwt>
<pdfrwt beam="1">  1        2 0.19102673E+00 0.91822278E+03</pdfrwt>
<pdfrwt beam="2">  1       -2 0.90368828E-01 0.91822278E+03</pdfrwt>
<totfact> 0.18770604E+01</totfact>
</mgrwt>
</event>
<event>
 4    2  0.6387803E-007  0.8062913E+03  0.7818608E-02  0.9697354E-01
         -2   -1    0    0    0  501 -0.00000000000E+00  0.00000000000E+00  0.29950913967E+03  0.29950913968E+03  0.25500000000E-02 0.  1.
          2   -1    0    0  501    0  0.00000000000E+00 -0.00000000000E+00 -0.17936546393E+04  0.17936546393E+04  0.25500000000E-02 0. -1.
    8880023    1    1    2    0    0  0.38604172258E+03 -0.25935939675E+03 -0.41206937667E+03  0.90548709859E+03  0.65864270000E+03 0.  0.
    8880022    1    1    2    0    0 -0.38604172258E+03  0.25935939675E+03 -0.10820761230E+04  0.11876766804E+04  0.15294330000E+03 0. -1.
<mgrwt>
<rscale>  0 0.71174527E+03</rscale>
<asrwt>0</asrwt>
<pdfrwt beam="1">  1        2 0.27594686E+00 0.80629133E+03</pdfrwt>
<pdfrwt beam="2">  1       -2 0.46078330E-01 0.80629133E+03</pdfrwt>
<totfact> 0.39656905E+01</totfact>
</mgrwt>
</event>
<event>
 4    2  0.6387803E-007  0.7331809E+03  0.7818608E-02  0.9880275E-01
         -2   -1    0    0    0  501 -0.00000000000E+00  0.00000000000E+00  0.46543862369E+03  0.46543862369E+03  0.25500000000E-02 0.  1.
          2   -1    0    0  501    0  0.00000000000E+00 -0.00000000000E+00 -0.88082091870E+03  0.88082091870E+03  0.25500000000E-02 0. -1.
    8880023    1    1    2    0    0  0.31681994517E+03 -0.58044434330E+02  0.78221943489E+02  0.73734178826E+03  0.65864270000E+03 0.  0.
    8880022    1    1    2    0    0 -0.31681994517E+03  0.58044434330E+02 -0.49360423850E+03  0.60891775413E+03  0.15294330000E+03 0.  0.
<mgrwt>
<rscale>  0 0.61226833E+03</rscale>
<asrwt>0</asrwt>
<pdfrwt beam="1">  1        2 0.13551091E+00 0.73318091E+03</pdfrwt>
<pdfrwt beam="2">  1       -2 0.71605942E-01 0.73318091E+03</pdfrwt>
<totfact> 0.54281749E+01</totfact>
</mgrwt>
</event>
<event>
 4    2  0.6387803E-007  0.7006876E+03  0.7818608E-02  0.9994361E-01
          2   -1    0    0  501    0  0.00000000000E+00  0.00000000000E+00  0.11361252176E+04  0.11361252176E+04  0.25500000000E-02 0. -1.
         -2   -1    0    0    0  501 -0.00000000000E+00 -0.00000000000E+00 -0.36033745941E+03  0.36033745942E+03  0.25500000000E-02 0.  1.
    8880023    1    1    2    0    0 -0.23861297559E+03 -0.14721614992E+02  0.33181279643E+02  0.70147279466E+03  0.65864270000E+03 0.  1.
    8880022    1    1    2    0    0  0.23861297559E+03  0.14721614992E+02  0.74260647856E+03  0.79498988237E+03  0.15294330000E+03 0.  0.
<mgrwt>
<rscale>  0 0.55898200E+03</rscale>
<asrwt>0</asrwt>
<pdfrwt beam="1">  1        2 0.17478850E+00 0.70068758E+03</pdfrwt>
<pdfrwt beam="2">  1       -2 0.55436532E-01 0.70068758E+03</pdfrwt>
<totfact> 0.64624772E+01</totfact>
</mgrwt>
</event>
<event>
 4    2  0.6387803E-007  0.9607741E+03  0.7818608E-02  0.9434779E-01
          2   -1    0    0  501    0  0.00000000000E+00  0.00000000000E+00  0.87530983509E+03  0.87530983509E+03  0.25500000000E-02 0. -1.
         -2   -1    0    0    0  501 -0.00000000000E+00 -0.00000000000E+00 -0.85554591430E+03  0.85554591431E+03  0.25500000000E-02 0.  1.
    8880023    1    1    2    0    0 -0.53850760968E+03 -0.44641491668E+03 -0.20102370285E+03  0.98157906400E+03  0.65864270000E+03 0.  1.
    8880022    1    1    2    0    0  0.53850760968E+03  0.44641491668E+03  0.22078762364E+03  0.74927668540E+03  0.15294330000E+03 0.  0.
<mgrwt>
<rscale>  0 0.89267946E+03</rscale>
<asrwt>0</asrwt>
<pdfrwt beam="1">  1        2 0.13466305E+00 0.96077413E+03</pdfrwt>
<pdfrwt beam="2">  1       -2 0.13162245E+00 0.96077413E+03</pdfrwt>
<totfact> 0.12770737E+01</totfact>
</mgrwt>
</event>
<event>
 4    2  0.6387803E-007  0.7687852E+03  0.7818608E-02  0.9782872E-01
          2   -1    0    0  501    0  0.00000000000E+00  0.00000000000E+00  0.18960732182E+04  0.18960732182E+04  0.25500000000E-02 0. -1.
         -2   -1    0    0    0  501 -0.00000000000E+00 -0.00000000000E+00 -0.10496046761E+04  0.10496046762E+04  0.25500000000E-02 0.  1.
    8880023    1    1    2    0    0  0.33522226802E+03  0.21177005700E+03 -0.87951003434E+03  0.11681475218E+04  0.65864270000E+03 0.  1.
    8880022    1    1    2    0    0 -0.33522226802E+03 -0.21177005700E+03  0.17259785763E+04  0.17775303725E+04  0.15294330000E+03 0.  0.
<mgrwt>
<rscale>  0 0.66289868E+03</rscale>
<asrwt>0</asrwt>
<pdfrwt beam="1">  1        2 0.29170357E+00 0.76878523E+03</pdfrwt>
<pdfrwt beam="2">  1       -2 0.16147764E+00 0.76878523E+03</pdfrwt>
<totfact> 0.19362090E+00</totfact>
</mgrwt>
</event>
<event>
 4    2  0.6387803E-007  0.6927342E+03  0.7818608E-02  0.1002879E+00
          2   -1    0    0  501    0  0.00000000000E+00  0.00000000000E+00  0.29806471752E+04  0.29806471752E+04  0.25500000000E-02 0. -1.
         -2   -1    0    0    0  501 -0.00000000000E+00 -0.00000000000E+00 -0.96302641271E+02  0.96302641304E+02  0.25500000000E-02 0.  1.
    8880023    1    1    2    0    0  0.21272409085E+03 -0.28618099283E+02  0.13217182519E+04  0.14922532888E+04  0.65864270000E+03 0.  1.
    8880022    1    1    2    0    0 -0.21272409085E+03  0.28618099283E+02  0.15626262821E+04  0.15846965277E+04  0.15294330000E+03 0. -1.
<mgrwt>
<rscale>  0 0.54405593E+03</rscale>
<asrwt>0</asrwt>
<pdfrwt beam="1">  1        2 0.45856110E+00 0.69273425E+03</pdfrwt>
<pdfrwt beam="2">  1       -2 0.14815791E-01 0.69273425E+03</pdfrwt>
<totfact> 0.68093818E+01</totfact>
</mgrwt>
</event>
<event>
 4    2  0.7996455E-007  0.8591848E+03  0.7818608E-02  0.9595015E-01
          2   -1    0    0  501    0  0.00000000000E+00  0.00000000000E+00  0.19365899449E+04  0.19365899449E+04  0.25500000000E-02 0. -1.
         -2   -1    0    0    0  501 -0.00000000000E+00 -0.00000000000E+00 -0.12130138145E+04  0.12130138145E+04  0.25500000000E-02 0.  1.
    8880023    1    1    2    0    0  0.55139830998E+03  0.18662415469E+02 -0.10087881666E+04  0.13250857155E+04  0.65864270000E+03 0.  1.
    8880022    1    1    2    0    0 -0.55139830998E+03 -0.18662415469E+02  0.17323642970E+04  0.18245180439E+04  0.15294330000E+03 0.  0.
<mgrwt>
<rscale>  0 0.77626993E+03</rscale>
<asrwt>0</asrwt>
<pdfrwt beam="1">  1        2 0.29793691E+00 0.85918484E+03</pdfrwt>
<pdfrwt beam="2">  1       -2 0.18661751E+00 0.85918484E+03</pdfrwt>
<totfact> 0.12068986E+00</totfact>
</mgrwt>
</event>
<event>
 4    2  0.6387803E-007  0.8010630E+03  0.7818608E-02  0.9708502E-01
          2   -1    0    0  501    0  0.00000000000E+00  0.00000000000E+00  0.33652386706E+04  0.33652386706E+04  0.25500000000E-02 0. -1.
         -2   -1    0    0    0  501 -0.00000000000E+00 -0.00000000000E+00 -0.59328777811E+03  0.59328777811E+03  0.25500000000E-02 0.  1.
    8880023    1    1    2    0    0 -0.17375126406E+03 -0.42154737104E+03 -0.29533273860E+03  0.85377006304E+03  0.65864270000E+03 0.  1.
    8880022    1    1    2    0    0  0.17375126406E+03  0.42154737104E+03  0.30672836311E+04  0.31047563857E+04  0.15294330000E+03 0.  0.
<mgrwt>
<rscale>  0 0.70512813E+03</rscale>
<asrwt>0</asrwt>
<pdfrwt beam="1">  1        2 0.51772903E+00 0.80106298E+03</pdfrwt>
<pdfrwt beam="2">  1       -2 0.91275042E-01 0.80106298E+03</pdfrwt>
<totfact> 0.11022708E+00</totfact>
</mgrwt>
</event>
<event>
 4    2  0.6387803E-007  0.7178747E+03  0.7818608E-02  0.9929844E-01
          2   -1    0    0  501    0  0.00000000000E+00  0.00000000000E+00  0.44443031026E+03  0.44443031027E+03  0.25500000000E-02 0. -1.
         -2   -1    0    0    0  501 -0.00000000000E+00 -0.00000000000E+00 -0.71437314138E+03  0.71437314138E+03  0.25500000000E-02 0.  1.
    8880023    1    1    2    0    0  0.21291609723E+03 -0.19026471078E+03 -0.38556462733E+03  0.81486453644E+03  0.65864270000E+03 0.  0.
    8880022    1    1    2    0    0 -0.21291609723E+03  0.19026471078E+03  0.11562179621E+03  0.34393891522E+03  0.15294330000E+03 0.  0.
<mgrwt>
<rscale>  0 0.58836479E+03</rscale>
<asrwt>0</asrwt>
<pdfrwt beam="1">  1        2 0.68373894E-01 0.71787473E+03</pdfrwt>
<pdfrwt beam="2">  1       -2 0.10990356E+00 0.71787473E+03</pdfrwt>
<totfact> 0.47085267E+01</totfact>
</mgrwt>
</event>
<event>
 4    2  0.6387803E-007  0.1257410E+04  0.7818608E-02  0.9103240E-01
          2   -1    0    0  501    0  0.00000000000E+00  0.00000000000E+00  0.36847203731E+04  0.36847203731E+04  0.25500000000E-02 0. -1.
         -2   -1    0    0    0  501 -0.00000000000E+00 -0.00000000000E+00 -0.49960855922E+03  0.49960855922E+03  0.25500000000E-02 0.  1.
    8880023    1    1    2    0    0 -0.10693956615E+04  0.60523281648E+02  0.62332949443E+03  0.14034315136E+04  0.65864270000E+03 0.  0.
    8880022    1    1    2    0    0  0.10693956615E+04 -0.60523281648E+02  0.25617823195E+04  0.27808974188E+04  0.15294330000E+03 0.  0.
<mgrwt>
<rscale>  0 0.12110488E+04</rscale>
<asrwt>0</asrwt>
<pdfrwt beam="1">  1        2 0.56688008E+00 0.12574102E+04</pdfrwt>
<pdfrwt beam="2">  1       -2 0.76862853E-01 0.12574102E+04</pdfrwt>
<totfact> 0.90578298E-01</totfact>
</mgrwt>
</event>
<event>
 4    2  0.6387803E-007  0.6681389E+03  0.7818608E-02  0.1017034E+00
         -2   -1    0    0    0  501 -0.00000000000E+00  0.00000000000E+00  0.57316908208E+03  0.57316908209E+03  0.25500000000E-02 0.  1.
          2   -1    0    0  501    0  0.00000000000E+00 -0.00000000000E+00 -0.29482447331E+04  0.29482447331E+04  0.25500000000E-02 0. -1.
    8880023    1    1    2    0    0 -0.96597681508E+02  0.57168881959E+02  0.37407201620E+03  0.76572806707E+03  0.65864270000E+03 0.  1.
    8880022    1    1    2    0    0  0.96597681508E+02 -0.57168881959E+02 -0.27491476672E+04  0.27556857481E+04  0.15294330000E+03 0.  0.
<mgrwt>
<rscale>  0 0.48772428E+03</rscale>
<asrwt>0</asrwt>
<pdfrwt beam="1">  1        2 0.45357610E+00 0.66813891E+03</pdfrwt>
<pdfrwt beam="2">  1       -2 0.88179861E-01 0.66813891E+03</pdfrwt>
<totfact> 0.22544112E+00</totfact>
</mgrwt>
</event>
<event>
 4    2  0.6387803E-007  0.7612410E+03  0.7818608E-02  0.9801905E-01
         -2   -1    0    0    0  501 -0.00000000000E+00  0.00000000000E+00  0.34356322873E+03  0.34356322874E+03  0.25500000000E-02 0.  1.
          2   -1    0    0  501    0  0.00000000000E+00 -0.00000000000E+00 -0.26314498380E+04  0.26314498380E+04  0.25500000000E-02 0. -1.
    8880023    1    1    2    0    0  0.22670667610E+03 -0.30705337759E+03 -0.12262309913E+03  0.77105403467E+03  0.65864270000E+03 0.  1.
    8880022    1    1    2    0    0 -0.22670667610E+03  0.30705337759E+03 -0.21652635102E+04  0.22039590321E+04  0.15294330000E+03 0.  0.
<mgrwt>
<rscale>  0 0.65260403E+03</rscale>
<asrwt>0</asrwt>
<pdfrwt beam="1">  1        2 0.40483842E+00 0.76124103E+03</pdfrwt>
<pdfrwt beam="2">  1       -2 0.52855883E-01 0.76124103E+03</pdfrwt>
<totfact> 0.10339567E+01</totfact>
</mgrwt>
</event>
<event>
 4    2  0.6387803E-007  0.6656678E+03  0.7818608E-02  0.1018980E+00
          2   -1    0    0  501    0  0.00000000000E+00  0.00000000000E+00  0.39455384930E+04  0.39455384930E+04  0.25500000000E-02 0. -1.
         -2   -1    0    0    0  501 -0.00000000000E+00 -0.00000000000E+00 -0.14553111990E+03  0.14553111992E+03  0.25500000000E-02 0.  1.
    8880023    1    1    2    0    0  0.23201248933E+02  0.93622028418E+02  0.63197488072E+03  0.91788116785E+03  0.65864270000E+03 0.  1.
    8880022    1    1    2    0    0 -0.23201248933E+02 -0.93622028418E+02  0.31680324924E+04  0.31731884451E+04  0.15294330000E+03 0.  0.
<mgrwt>
<rscale>  0 0.48056637E+03</rscale>
<asrwt>0</asrwt>
<pdfrwt beam="1">  1        2 0.60700584E+00 0.66566778E+03</pdfrwt>
<pdfrwt beam="2">  1       -2 0.22389406E-01 0.66566778E+03</pdfrwt>
<totfact> 0.74124138E+00</totfact>
</mgrwt>
</event>
<event>
 4    2  0.6387803E-007  0.1067647E+04  0.7818608E-02  0.9297962E-01
         -2   -1    0    0    0  501 -0.00000000000E+00  0.00000000000E+00  0.36719632378E+03  0.36719632379E+03  0.25500000000E-02 0.  1.
          2   -1    0    0  501    0  0.00000000000E+00 -0.00000000000E+00 -0.26728521891E+04  0.26728521891E+04  0.25500000000E-02 0. -1.
    8880023    1    1    2    0    0 -0.71730237659E+03 -0.43765028517E+03 -0.16413482380E+04  0.19580333798E+04  0.65864270000E+03 0.  0.
    8880022    1    1    2    0    0  0.71730237659E+03  0.43765028517E+03 -0.66430762726E+03  0.10820151331E+04  0.15294330000E+03 0.  0.
<mgrwt>
<rscale>  0 0.10097072E+04</rscale>
<asrwt>0</asrwt>
<pdfrwt beam="1">  1        2 0.41120802E+00 0.10676473E+04</pdfrwt>
<pdfrwt beam="2">  1       -2 0.56491744E-01 0.10676473E+04</pdfrwt>
<totfact> 0.81590763E+00</totfact>
</mgrwt>
</event>
<event>
 4    2  0.6387803E-007  0.6587400E+03  0.7818608E-02  0.1025486E+00
         -2   -1    0    0    0  501 -0.00000000000E+00  0.00000000000E+00  0.21120135920E+03  0.21120135921E+03  0.25500000000E-02 0.  1.
          2   -1    0    0  501    0  0.00000000000E+00 -0.00000000000E+00 -0.10667409512E+04  0.10667409512E+04  0.25500000000E-02 0. -1.
    8880023    1    1    2    0    0 -0.10175353467E+02 -0.49668503218E+01 -0.34247481657E+03  0.74244690966E+03  0.65864270000E+03 0.  1.
    8880022    1    1    2    0    0  0.10175353467E+02  0.49668503218E+01 -0.51306477539E+03  0.53549540071E+03  0.15294330000E+03 0.  0.
<mgrwt>
<rscale>  0 0.45757773E+03</rscale>
<asrwt>0</asrwt>
<pdfrwt beam="1">  1        2 0.16411399E+00 0.65874002E+03</pdfrwt>
<pdfrwt beam="2">  1       -2 0.32492517E-01 0.65874002E+03</pdfrwt>
<totfact> 0.20491740E+02</totfact>
</mgrwt>
</event>
<event>
 4    2  0.6387803E-007  0.8665888E+03  0.7818608E-02  0.9581949E-01
          2   -1    0    0  501    0  0.00000000000E+00  0.00000000000E+00  0.13638083997E+04  0.13638083997E+04  0.25500000000E-02 0. -1.
         -2   -1    0    0    0  501 -0.00000000000E+00 -0.00000000000E+00 -0.71527016135E+03  0.71527016135E+03  0.25500000000E-02 0.  1.
    8880023    1    1    2    0    0 -0.51368045715E+03 -0.23086420539E+03  0.10569473607E+04  0.13667896045E+04  0.65864270000E+03 0. -1.
    8880022    1    1    2    0    0  0.51368045715E+03  0.23086420539E+03 -0.40840912237E+03  0.71228895656E+03  0.15294330000E+03 0.  0.
<mgrwt>
<rscale>  0 0.78502522E+03</rscale>
<asrwt>0</asrwt>
<pdfrwt beam="1">  1        2 0.20981668E+00 0.86658877E+03</pdfrwt>
<pdfrwt beam="2">  1       -2 0.11004156E+00 0.86658877E+03</pdfrwt>
<totfact> 0.10043551E+01</totfact>
</mgrwt>
</event>
<event>
 4    2  0.6387803E-007  0.1146967E+04  0.7818608E-02  0.9210481E-01
         -2   -1    0    0    0  501 -0.00000000000E+00  0.00000000000E+00  0.92020059463E+03  0.92020059464E+03  0.25500000000E-02 0.  1.
          2   -1    0    0  501    0  0.00000000000E+00 -0.00000000000E+00 -0.17476733644E+04  0.17476733644E+04  0.25500000000E-02 0. -1.
    8880023    1    1    2    0    0 -0.93658630240E+03  0.67302819422E+02  0.30694364914E+03  0.11873281692E+04  0.65864270000E+03 0.  0.
    8880022    1    1    2    0    0  0.93658630240E+03 -0.67302819422E+02 -0.11344164189E+04  0.14805457898E+04  0.15294330000E+03 0.  0.
<mgrwt>
<rscale>  0 0.10945894E+04</rscale>
<asrwt>0</asrwt>
<pdfrwt beam="1">  1        2 0.26887283E+00 0.11469672E+04</pdfrwt>
<pdfrwt beam="2">  1       -2 0.14156932E+00 0.11469672E+04</pdfrwt>
<totfact> 0.31492121E+00</totfact>
</mgrwt>
</event>
<event>
 4    2  0.6387803E-007  0.7010836E+03  0.7818608E-02  0.9992735E-01
         -2   -1    0    0    0  501 -0.00000000000E+00  0.00000000000E+00  0.44473155048E+03  0.44473155049E+03  0.25500000000E-02 0.  1.
          2   -1    0    0  501    0  0.00000000000E+00 -0.00000000000E+00 -0.12125849103E+04  0.12125849103E+04  0.25500000000E-02 0. -1.
    8880023    1    1    2    0    0  0.19704767052E+03  0.13740531056E+03  0.13206470103E+03  0.71341383176E+03  0.65864270000E+03 0.  0.
    8880022    1    1    2    0    0 -0.19704767052E+03 -0.13740531056E+03 -0.89991806085E+03  0.94390262903E+03  0.15294330000E+03 0.  0.
<mgrwt>
<rscale>  0 0.55969926E+03</rscale>
<asrwt>0</asrwt>
<pdfrwt beam="1">  1        2 0.18655152E+00 0.70108360E+03</pdfrwt>
<pdfrwt beam="2">  1       -2 0.68420239E-01 0.70108360E+03</pdfrwt>
<totfact> 0.37233996E+01</totfact>
</mgrwt>
</event>
<event>
 4    2  0.6387803E-007  0.6719944E+03  0.7818608E-02  0.1014272E+00
          2   -1    0    0  501    0  0.00000000000E+00  0.00000000000E+00  0.21825198298E+04  0.21825198298E+04  0.25500000000E-02 0. -1.
         -2   -1    0    0    0  501 -0.00000000000E+00 -0.00000000000E+00 -0.62989758938E+03  0.62989758938E+03  0.25500000000E-02 0.  1.
    8880023    1    1    2    0    0  0.10447025933E+03  0.82778323513E+02 -0.44405681991E+03  0.80545822455E+03  0.65864270000E+03 0.  1.
    8880022    1    1    2    0    0 -0.10447025933E+03 -0.82778323513E+02  0.19966790603E+04  0.20069591946E+04  0.15294330000E+03 0.  0.
<mgrwt>
<rscale>  0 0.49811652E+03</rscale>
<asrwt>0</asrwt>
<pdfrwt beam="1">  1        2 0.33577229E+00 0.67199441E+03</pdfrwt>
<pdfrwt beam="2">  1       -2 0.96907320E-01 0.67199441E+03</pdfrwt>
<totfact> 0.49600942E+00</totfact>
</mgrwt>
</event>
<event>
 4    2  0.6387803E-007  0.7230108E+03  0.7818608E-02  0.9912527E-01
          2   -1    0    0  501    0  0.00000000000E+00  0.00000000000E+00  0.20899262346E+04  0.20899262346E+04  0.25500000000E-02 0. -1.
         -2   -1    0    0    0  501 -0.00000000000E+00 -0.00000000000E+00 -0.16736976190E+03  0.16736976192E+03  0.25500000000E-02 0.  1.
    8880023    1    1    2    0    0  0.20996686260E+03 -0.21177431207E+03  0.17197711719E+04  0.18655716369E+04  0.65864270000E+03 0. -1.
    8880022    1    1    2    0    0 -0.20996686260E+03  0.21177431207E+03  0.20278530077E+03  0.39172435955E+03  0.15294330000E+03 0.  0.
<mgrwt>
<rscale>  0 0.59657999E+03</rscale>
<asrwt>0</asrwt>
<pdfrwt beam="1">  1        2 0.32152710E+00 0.72301082E+03</pdfrwt>
<pdfrwt beam="2">  1       -2 0.25749195E-01 0.72301082E+03</pdfrwt>
<totfact> 0.83460500E+01</totfact>
</mgrwt>
</event>
<event>
 4    2  0.6387803E-007  0.9552091E+03  0.7818608E-02  0.9442659E-01
         -2   -1    0    0    0  501 -0.00000000000E+00  0.00000000000E+00  0.12361938347E+04  0.12361938347E+04  0.25500000000E-02 0.  1.
          2   -1    0    0  501    0  0.00000000000E+00 -0.00000000000E+00 -0.74456776975E+03  0.74456776975E+03  0.25500000000E-02 0. -1.
    8880023    1    1    2    0    0  0.50618136093E+03  0.47158728181E+03  0.76250093348E+03  0.12222242079E+04  0.65864270000E+03 0.  0.
    8880022    1    1    2    0    0 -0.50618136093E+03 -0.47158728181E+03 -0.27087486856E+03  0.75853739654E+03  0.15294330000E+03 0.  0.
<mgrwt>
<rscale>  0 0.88646668E+03</rscale>
<asrwt>0</asrwt>
<pdfrwt beam="1">  1        2 0.11454889E+00 0.95520906E+03</pdfrwt>
<pdfrwt beam="2">  1       -2 0.19018367E+00 0.95520906E+03</pdfrwt>
<totfact> 0.58333053E+00</totfact>
</mgrwt>
</event>
<event>
 4    2  0.6387803E-007  0.7026726E+03  0.7818608E-02  0.9986290E-01
          2   -1    0    0  501    0  0.00000000000E+00  0.00000000000E+00  0.11878744526E+04  0.11878744526E+04  0.25500000000E-02 0. -1.
         -2   -1    0    0    0  501 -0.00000000000E+00 -0.00000000000E+00 -0.24843487351E+03  0.24843487352E+03  0.25500000000E-02 0.  1.
    8880023    1    1    2    0    0  0.17531445260E+03  0.17089017082E+03  0.90474506309E+03  0.11455620643E+04  0.65864270000E+03 0.  0.
    8880022    1    1    2    0    0 -0.17531445260E+03 -0.17089017082E+03  0.34694515969E+02  0.29074726177E+03  0.15294330000E+03 0.  0.
<mgrwt>
<rscale>  0 0.56255517E+03</rscale>
<asrwt>0</asrwt>
<pdfrwt beam="1">  1        2 0.18274992E+00 0.70267262E+03</pdfrwt>
<pdfrwt beam="2">  1       -2 0.38220750E-01 0.70267262E+03</pdfrwt>
<totfact> 0.12667873E+02</totfact>
</mgrwt>
</event>
<event>
 4    2  0.6387803E-007  0.8072153E+03  0.7818608E-02  0.9695407E-01
          2   -1    0    0  501    0  0.00000000000E+00  0.00000000000E+00  0.14319708621E+04  0.14319708621E+04  0.25500000000E-02 0. -1.
         -2   -1    0    0    0  501 -0.00000000000E+00 -0.00000000000E+00 -0.79267588808E+03  0.79267588808E+03  0.25500000000E-02 0.  1.
    8880023    1    1    2    0    0 -0.46577418648E+03 -0.28996207005E+02 -0.52369941894E+03  0.96221497623E+03  0.65864270000E+03 0.  1.
    8880022    1    1    2    0    0  0.46577418648E+03  0.28996207005E+02  0.11629943930E+04  0.12624317740E+04  0.15294330000E+03 0.  0.
<mgrwt>
<rscale>  0 0.71290928E+03</rscale>
<asrwt>0</asrwt>
<pdfrwt beam="1">  1        2 0.22030321E+00 0.80721532E+03</pdfrwt>
<pdfrwt beam="2">  1       -2 0.12195014E+00 0.80721532E+03</pdfrwt>
<totfact> 0.71901605E+00</totfact>
</mgrwt>
</event>
<event>
 4    2  0.6387803E-007  0.8964332E+03  0.7818608E-02  0.9531782E-01
         -2   -1    0    0    0  501 -0.00000000000E+00  0.00000000000E+00  0.37761263917E+03  0.37761263918E+03  0.25500000000E-02 0.  1.
          2   -1    0    0  501    0  0.00000000000E+00 -0.00000000000E+00 -0.34166346011E+04  0.34166346011E+04  0.25500000000E-02 0. -1.
    8880023    1    1    2    0    0 -0.51557682345E+03  0.32243261465E+03 -0.24300940760E+03  0.92878739781E+03  0.65864270000E+03 0.  1.
    8880022    1    1    2    0    0  0.51557682345E+03 -0.32243261465E+03 -0.27960125544E+04  0.28654598425E+04  0.15294330000E+03 0.  0.
<mgrwt>
<rscale>  0 0.81980683E+03</rscale>
<asrwt>0</asrwt>
<pdfrwt beam="1">  1        2 0.52563607E+00 0.89643319E+03</pdfrwt>
<pdfrwt beam="2">  1       -2 0.58094255E-01 0.89643319E+03</pdfrwt>
<totfact> 0.27098828E+00</totfact>
</mgrwt>
</event>
<event>
 4    2  0.6387803E-007  0.6729594E+03  0.7818608E-02  0.1013625E+00
          2   -1    0    0  501    0  0.00000000000E+00  0.00000000000E+00  0.11750071584E+04  0.11750071584E+04  0.25500000000E-02 0. -1.
         -2   -1    0    0    0  501 -0.00000000000E+00 -0.00000000000E+00 -0.39758075652E+03  0.39758075653E+03  0.25500000000E-02 0.  1.
    8880023    1    1    2    0    0 -0.56851836338E+02 -0.12582550508E+03 -0.91873764063E+02  0.67920187265E+03  0.65864270000E+03 0.  1.
    8880022    1    1    2    0    0  0.56851836338E+02  0.12582550508E+03  0.86930016595E+03  0.89338604229E+03  0.15294330000E+03 0.  0.
<mgrwt>
<rscale>  0 0.50059193E+03</rscale>
<asrwt>0</asrwt>
<pdfrwt beam="1">  1        2 0.18077033E+00 0.67295943E+03</pdfrwt>
<pdfrwt beam="2">  1       -2 0.61166271E-01 0.67295943E+03</pdfrwt>
<totfact> 0.49977518E+01</totfact>
</mgrwt>
</event>
<event>
 4    2  0.6387803E-007  0.1381163E+04  0.7818608E-02  0.8998459E-01
          2   -1    0    0  501    0  0.00000000000E+00  0.00000000000E+00  0.21419236113E+04  0.21419236113E+04  0.25500000000E-02 0. -1.
         -2   -1    0    0    0  501 -0.00000000000E+00 -0.00000000000E+00 -0.12058043488E+04  0.12058043488E+04  0.25500000000E-02 0.  1.
    8880023    1    1    2    0    0 -0.10378696053E+04  0.62978407318E+03  0.14661617003E+04  0.20142595746E+04  0.65864270000E+03 0.  0.
    8880022    1    1    2    0    0  0.10378696053E+04 -0.62978407318E+03 -0.53004243778E+03  0.13334683855E+04  0.15294330000E+03 0.  0.
<mgrwt>
<rscale>  0 0.13399650E+04</rscale>
<asrwt>0</asrwt>
<pdfrwt beam="1">  1        2 0.32952671E+00 0.13811631E+04</pdfrwt>
<pdfrwt beam="2">  1       -2 0.18550836E+00 0.13811631E+04</pdfrwt>
<totfact> 0.88097979E-01</totfact>
</mgrwt>
</event>
<event>
 4    2  0.6387803E-007  0.6747706E+03  0.7818608E-02  0.1012451E+00
         -2   -1    0    0    0  501 -0.00000000000E+00  0.00000000000E+00  0.35950303681E+03  0.35950303682E+03  0.25500000000E-02 0.  1.
          2   -1    0    0  501    0  0.00000000000E+00 -0.00000000000E+00 -0.12554125422E+04  0.12554125422E+04  0.25500000000E-02 0. -1.
    8880023    1    1    2    0    0 -0.76743106279E+02 -0.12496264160E+03  0.19750080679E+02  0.67505958115E+03  0.65864270000E+03 0.  1.
    8880022    1    1    2    0    0  0.76743106279E+02  0.12496264160E+03 -0.91565958608E+03  0.93985599788E+03  0.15294330000E+03 0.  0.
<mgrwt>
<rscale>  0 0.50511942E+03</rscale>
<asrwt>0</asrwt>
<pdfrwt beam="1">  1        2 0.19314039E+00 0.67477061E+03</pdfrwt>
<pdfrwt beam="2">  1       -2 0.55308160E-01 0.67477061E+03</pdfrwt>
<totfact> 0.55346243E+01</totfact>
</mgrwt>
</event>
<event>
 4    2  0.6387803E-007  0.7058883E+03  0.7818608E-02  0.9973599E-01
          2   -1    0    0  501    0  0.00000000000E+00  0.00000000000E+00  0.42439446867E+03  0.42439446868E+03  0.25500000000E-02 0. -1.
         -2   -1    0    0    0  501 -0.00000000000E+00 -0.00000000000E+00 -0.13291955132E+04  0.13291955132E+04  0.25500000000E-02 0.  1.
    8880023    1    1    2    0    0  0.16796973462E+03 -0.19040540184E+03 -0.11630218598E+04  0.13604771594E+04  0.65864270000E+03 0.  1.
    8880022    1    1    2    0    0 -0.16796973462E+03  0.19040540184E+03  0.25822081518E+03  0.39311282249E+03  0.15294330000E+03 0.  0.
<mgrwt>
<rscale>  0 0.56823201E+03</rscale>
<asrwt>0</asrwt>
<pdfrwt beam="1">  1        2 0.65291457E-01 0.70588827E+03</pdfrwt>
<pdfrwt beam="2">  1       -2 0.20449162E+00 0.70588827E+03</pdfrwt>
<totfact> 0.94685293E+00</totfact>
</mgrwt>
</event>
<event>
 4    2  0.6387803E-007  0.6652412E+03  0.7818608E-02  0.1019332E+00
         -2   -1    0    0    0  501 -0.00000000000E+00  0.00000000000E+00  0.16868472014E+03  0.16868472016E+03  0.25500000000E-02 0.  1.
          2   -1    0    0  501    0  0.00000000000E+00 -0.00000000000E+00 -0.27018007044E+04  0.27018007044E+04  0.25500000000E-02 0. -1.
    8880023    1    1    2    0    0 -0.77714181223E+02  0.51924960898E+02 -0.50690080926E+03  0.83635777764E+03  0.65864270000E+03 0.  1.
    8880022    1    1    2    0    0  0.77714181223E+02 -0.51924960898E+02 -0.20262151750E+04  0.20341276469E+04  0.15294330000E+03 0.  0.
<mgrwt>
<rscale>  0 0.47928488E+03</rscale>
<asrwt>0</asrwt>
<pdfrwt beam="1">  1        2 0.41566162E+00 0.66524124E+03</pdfrwt>
<pdfrwt beam="2">  1       -2 0.25951497E-01 0.66524124E+03</pdfrwt>
<totfact> 0.37651895E+01</totfact>
</mgrwt>
</event>
<event>
 4    2  0.6387803E-007  0.8190310E+03  0.7818608E-02  0.9671064E-01
          2   -1    0    0  501    0  0.00000000000E+00  0.00000000000E+00  0.10975865126E+04  0.10975865126E+04  0.25500000000E-02 0. -1.
         -2   -1    0    0    0  501 -0.00000000000E+00 -0.00000000000E+00 -0.74578192115E+03  0.74578192115E+03  0.25500000000E-02 0.  1.
    8880023    1    1    2    0    0 -0.47012816688E+03 -0.12641619433E+03 -0.41820371359E+03  0.91962280300E+03  0.65864270000E+03 0.  1.
    8880022    1    1    2    0    0  0.47012816688E+03  0.12641619433E+03  0.77000830500E+03  0.92374563072E+03  0.15294330000E+03 0.  0.
<mgrwt>
<rscale>  0 0.72766076E+03</rscale>
<asrwt>0</asrwt>
<pdfrwt beam="1">  1        2 0.16885946E+00 0.81903098E+03</pdfrwt>
<pdfrwt beam="2">  1       -2 0.11473568E+00 0.81903098E+03</pdfrwt>
<totfact> 0.13096962E+01</totfact>
</mgrwt>
</event>
<event>
 4    2  0.6387803E-007  0.1133399E+04  0.7818608E-02  0.9224751E-01
          2   -1    0    0  501    0  0.00000000000E+00  0.00000000000E+00  0.11791934715E+04  0.11791934715E+04  0.25500000000E-02 0. -1.
         -2   -1    0    0    0  501 -0.00000000000E+00 -0.00000000000E+00 -0.10531929197E+04  0.10531929197E+04  0.25500000000E-02 0.  1.
    8880023    1    1    2    0    0  0.85534236180E+03 -0.34521463325E+03  0.48239973729E+03  0.12317887042E+04  0.65864270000E+03 0.  0.
    8880022    1    1    2    0    0 -0.85534236180E+03  0.34521463325E+03 -0.35639918553E+03  0.10005976871E+04  0.15294330000E+03 0.  0.
<mgrwt>
<rscale>  0 0.10801573E+04</rscale>
<asrwt>0</asrwt>
<pdfrwt beam="1">  1        2 0.18141438E+00 0.11333993E+04</pdfrwt>
<pdfrwt beam="2">  1       -2 0.16202968E+00 0.11333993E+04</pdfrwt>
<totfact> 0.46406277E+00</totfact>
</mgrwt>
</event>
<event>
 4    2  0.6387803E-007  0.7344936E+03  0.7818608E-02  0.9876287E-01
          2   -1    0    0  501    0  0.00000000000E+00  0.00000000000E+00  0.10121051751E+04  0.10121051751E+04  0.25500000000E-02 0. -1.
         -2   -1    0    0    0  501 -0.00000000000E+00 -0.00000000000E+00 -0.79548149640E+03  0.79548149640E+03  0.25500000000E-02 0.  1.
    8880023    1    1    2    0    0  0.32328401150E+03  0.34031016065E+02 -0.57857487773E+03  0.93500254414E+03  0.65864270000E+03 0.  1.
    8880022    1    1    2    0    0 -0.32328401150E+03 -0.34031016065E+02  0.79519855646E+03  0.87258412738E+03  0.15294330000E+03 0.  0.
<mgrwt>
<rscale>  0 0.61424404E+03</rscale>
<asrwt>0</asrwt>
<pdfrwt beam="1">  1        2 0.15570849E+00 0.73449361E+03</pdfrwt>
<pdfrwt beam="2">  1       -2 0.12238177E+00 0.73449361E+03</pdfrwt>
<totfact> 0.12747195E+01</totfact>
</mgrwt>
</event>
<event>
 4    2  0.6387803E-007  0.6692381E+03  0.7818608E-02  0.1016215E+00
          2   -1    0    0  501    0  0.00000000000E+00  0.00000000000E+00  0.28338552343E+04  0.28338552343E+04  0.25500000000E-02 0. -1.
         -2   -1    0    0    0  501 -0.00000000000E+00 -0.00000000000E+00 -0.90966286586E+02  0.90966286622E+02  0.25500000000E-02 0.  1.
    8880023    1    1    2    0    0  0.10412712558E+03 -0.56806108222E+02  0.12359841295E+04  0.14055377500E+04  0.65864270000E+03 0.  1.
    8880022    1    1    2    0    0 -0.10412712558E+03  0.56806108222E+02  0.15069048183E+04  0.15192837709E+04  0.15294330000E+03 0.  0.
<mgrwt>
<rscale>  0 0.49077560E+03</rscale>
<asrwt>0</asrwt>
<pdfrwt beam="1">  1        2 0.43597766E+00 0.66923807E+03</pdfrwt>
<pdfrwt beam="2">  1       -2 0.13994816E-01 0.66923807E+03</pdfrwt>
<totfact> 0.92115045E+01</totfact>
</mgrwt>
</event>
<event>
 4    2  0.6387803E-007  0.7466613E+03  0.7818608E-02  0.9840951E-01
          2   -1    0    0  501    0  0.00000000000E+00  0.00000000000E+00  0.10293223948E+04  0.10293223948E+04  0.25500000000E-02 0. -1.
         -2   -1    0    0    0  501 -0.00000000000E+00 -0.00000000000E+00 -0.36214229978E+03  0.36214229979E+03  0.25500000000E-02 0.  1.
    8880023    1    1    2    0    0 -0.26007227497E+03 -0.23675988541E+03  0.67691122909E+03  0.10078253072E+04  0.65864270000E+03 0.  0.
    8880022    1    1    2    0    0  0.26007227497E+03  0.23675988541E+03 -0.97311340750E+01  0.38363938736E+03  0.15294330000E+03 0.  0.
<mgrwt>
<rscale>  0 0.63210405E+03</rscale>
<asrwt>0</asrwt>
<pdfrwt beam="1">  1        2 0.15835729E+00 0.74666126E+03</pdfrwt>
<pdfrwt beam="2">  1       -2 0.55714200E-01 0.74666126E+03</pdfrwt>
<totfact> 0.74112713E+01</totfact>
</mgrwt>
</event>
<event>
 4    2  0.6387803E-007  0.7840366E+03  0.7818608E-02  0.9746439E-01
         -2   -1    0    0    0  501 -0.00000000000E+00  0.00000000000E+00  0.77451487555E+03  0.77451487555E+03  0.25500000000E-02 0.  1.
          2   -1    0    0  501    0  0.00000000000E+00 -0.00000000000E+00 -0.11012503394E+04  0.11012503394E+04  0.25500000000E-02 0. -1.
    8880023    1    1    2    0    0  0.35485984318E+03  0.23447306114E+03  0.50257089151E+03  0.93128450645E+03  0.65864270000E+03 0.  1.
    8880022    1    1    2    0    0 -0.35485984318E+03 -0.23447306114E+03 -0.82930635538E+03  0.94448070853E+03  0.15294330000E+03 0.  0.
<mgrwt>
<rscale>  0 0.68317882E+03</rscale>
<asrwt>0</asrwt>
<pdfrwt beam="1">  1        2 0.16942313E+00 0.78403656E+03</pdfrwt>
<pdfrwt beam="2">  1       -2 0.11915613E+00 0.78403656E+03</pdfrwt>
<totfact> 0.11920043E+01</totfact>
</mgrwt>
</event>
<event>
 4    2  0.6387803E-007  0.7910843E+03  0.7818608E-02  0.9730416E-01
         -2   -1    0    0    0  501 -0.00000000000E+00  0.00000000000E+00  0.42697226107E+03  0.42697226107E+03  0.25500000000E-02 0.  1.
          2   -1    0    0  501    0  0.00000000000E+00 -0.00000000000E+00 -0.22007233626E+04  0.22007233626E+04  0.25500000000E-02 0. -1.
    8880023    1    1    2    0    0  0.43318257434E+03  0.66008303986E+02  0.32465397601E+01  0.79109100942E+03  0.65864270000E+03 0.  1.
    8880022    1    1    2    0    0 -0.43318257434E+03 -0.66008303986E+02 -0.17769976413E+04  0.18366046142E+04  0.15294330000E+03 0.  1.
<mgrwt>
<rscale>  0 0.69234374E+03</rscale>
<asrwt>0</asrwt>
<pdfrwt beam="1">  1        2 0.33857282E+00 0.79108435E+03</pdfrwt>
<pdfrwt beam="2">  1       -2 0.65688041E-01 0.79108435E+03</pdfrwt>
<totfact> 0.11382010E+01</totfact>
</mgrwt>
</event>
<event>
 4    2  0.6387803E-007  0.6727788E+03  0.7818608E-02  0.1013744E+00
          2   -1    0    0  501    0  0.00000000000E+00  0.00000000000E+00  0.99421074130E+03  0.99421074131E+03  0.25500000000E-02 0. -1.
         -2   -1    0    0    0  501 -0.00000000000E+00 -0.00000000000E+00 -0.22275107527E+03  0.22275107529E+03  0.25500000000E-02 0.  1.
    8880023    1    1    2    0    0 -0.46210410344E+02  0.12917322137E+03  0.37451167954E+03  0.76999371915E+03  0.65864270000E+03 0. -1.
    8880022    1    1    2    0    0  0.46210410344E+02 -0.12917322137E+03  0.39694798649E+03  0.44696809745E+03  0.15294330000E+03 0.  0.
<mgrwt>
<rscale>  0 0.50013209E+03</rscale>
<asrwt>0</asrwt>
<pdfrwt beam="1">  1        2 0.15295550E+00 0.67277881E+03</pdfrwt>
<pdfrwt beam="2">  1       -2 0.34269396E-01 0.67277881E+03</pdfrwt>
<totfact> 0.20561271E+02</totfact>
</mgrwt>
</event>
<event>
 4    2  0.6387803E-007  0.8642972E+03  0.7818608E-02  0.9585965E-01
         -2   -1    0    0    0  501 -0.00000000000E+00  0.00000000000E+00  0.12918833467E+04  0.12918833467E+04  0.25500000000E-02 0.  1.
          2   -1    0    0  501    0  0.00000000000E+00 -0.00000000000E+00 -0.70704555657E+03  0.70704555657E+03  0.25500000000E-02 0. -1.
    8880023    1    1    2    0    0  0.49395317917E+03  0.26307746265E+03  0.97257870437E+03  0.13011222222E+04  0.65864270000E+03 0.  1.
    8880022    1    1    2    0    0 -0.49395317917E+03 -0.26307746265E+03 -0.38774091425E+03  0.69780668109E+03  0.15294330000E+03 0.  0.
<mgrwt>
<rscale>  0 0.78232134E+03</rscale>
<asrwt>0</asrwt>
<pdfrwt beam="1">  1        2 0.10877624E+00 0.86429723E+03</pdfrwt>
<pdfrwt beam="2">  1       -2 0.19875128E+00 0.86429723E+03</pdfrwt>
<totfact> 0.55225355E+00</totfact>
</mgrwt>
</event>
<event>
 4    2  0.6387803E-007  0.6837547E+03  0.7818608E-02  0.1007275E+00
          2   -1    0    0  501    0  0.00000000000E+00  0.00000000000E+00  0.12967667604E+04  0.12967667604E+04  0.25500000000E-02 0. -1.
         -2   -1    0    0    0  501 -0.00000000000E+00 -0.00000000000E+00 -0.29923664530E+03  0.29923664531E+03  0.25500000000E-02 0.  1.
    8880023    1    1    2    0    0  0.63029616815E+02 -0.17244562747E+03  0.12979274342E+03  0.69596450307E+03  0.65864270000E+03 0.  1.
    8880022    1    1    2    0    0 -0.63029616815E+02  0.17244562747E+03  0.86773737166E+03  0.90003890262E+03  0.15294330000E+03 0. -1.
<mgrwt>
<rscale>  0 0.52572245E+03</rscale>
<asrwt>0</asrwt>
<pdfrwt beam="1">  1        2 0.19950258E+00 0.68375466E+03</pdfrwt>
<pdfrwt beam="2">  1       -2 0.46036407E-01 0.68375466E+03</pdfrwt>
<totfact> 0.76045869E+01</totfact>
</mgrwt>
</event>
<event>
 4    2  0.6387803E-007  0.7878644E+03  0.7818608E-02  0.9737677E-01
         -2   -1    0    0    0  501 -0.00000000000E+00  0.00000000000E+00  0.78287006887E+03  0.78287006887E+03  0.25500000000E-02 0.  1.
          2   -1    0    0  501    0  0.00000000000E+00 -0.00000000000E+00 -0.83477612189E+03  0.83477612190E+03  0.25500000000E-02 0. -1.
    8880023    1    1    2    0    0 -0.34787688297E+03 -0.25671354763E+03  0.47432458554E+03  0.91962720161E+03  0.65864270000E+03 0.  0.
    8880022    1    1    2    0    0  0.34787688297E+03  0.25671354763E+03 -0.52623063856E+03  0.69801898915E+03  0.15294330000E+03 0.  0.
<mgrwt>
<rscale>  0 0.68817135E+03</rscale>
<asrwt>0</asrwt>
<pdfrwt beam="1">  1        2 0.12842710E+00 0.78786444E+03</pdfrwt>
<pdfrwt beam="2">  1       -2 0.12044155E+00 0.78786444E+03</pdfrwt>
<totfact> 0.17308734E+01</totfact>
</mgrwt>
</event>
<event>
 4    2  0.6387803E-007  0.1139698E+04  0.7818608E-02  0.9218093E-01
          2   -1    0    0  501    0  0.00000000000E+00  0.00000000000E+00  0.30420512390E+04  0.30420512390E+04  0.25500000000E-02 0. -1.
         -2   -1    0    0    0  501 -0.00000000000E+00 -0.00000000000E+00 -0.59394444860E+03  0.59394444861E+03  0.25500000000E-02 0.  1.
    8880023    1    1    2    0    0  0.43250699941E+03  0.82343114916E+03  0.24403488579E+04  0.26933647946E+04  0.65864270000E+03 0.  0.
    8880022    1    1    2    0    0 -0.43250699941E+03 -0.82343114916E+03  0.77579324435E+01  0.94263089302E+03  0.15294330000E+03 0.  0.
<mgrwt>
<rscale>  0 0.10868611E+04</rscale>
<asrwt>0</asrwt>
<pdfrwt beam="1">  1        2 0.46800788E+00 0.11396979E+04</pdfrwt>
<pdfrwt beam="2">  1       -2 0.91376070E-01 0.11396979E+04</pdfrwt>
<totfact> 0.16724357E+00</totfact>
</mgrwt>
</event>
<event>
 4    2  0.6387803E-007  0.7215429E+03  0.7818608E-02  0.9917400E-01
          2   -1    0    0  501    0  0.00000000000E+00  0.00000000000E+00  0.16714266645E+04  0.16714266645E+04  0.25500000000E-02 0. -1.
         -2   -1    0    0    0  501 -0.00000000000E+00 -0.00000000000E+00 -0.58721403277E+03  0.58721403277E+03  0.25500000000E-02 0.  1.
    8880023    1    1    2    0    0 -0.81005618082E+02 -0.28328785513E+03 -0.33900915970E+03  0.79721473622E+03  0.65864270000E+03 0.  1.
    8880022    1    1    2    0    0  0.81005618082E+02  0.28328785513E+03  0.14232217914E+04  0.14614259610E+04  0.15294330000E+03 0.  0.
<mgrwt>
<rscale>  0 0.59425392E+03</rscale>
<asrwt>0</asrwt>
<pdfrwt beam="1">  1        2 0.25714256E+00 0.72154288E+03</pdfrwt>
<pdfrwt beam="2">  1       -2 0.90340621E-01 0.72154288E+03</pdfrwt>
<totfact> 0.10999351E+01</totfact>
</mgrwt>
</event>
<event>
 4    2  0.6387803E-007  0.8457416E+03  0.7818608E-02  0.9619447E-01
          2   -1    0    0  501    0  0.00000000000E+00  0.00000000000E+00  0.10849710373E+04  0.10849710373E+04  0.25500000000E-02 0. -1.
         -2   -1    0    0    0  501 -0.00000000000E+00 -0.00000000000E+00 -0.46733728208E+03  0.46733728209E+03  0.25500000000E-02 0.  1.
    8880023    1    1    2    0    0  0.49685301670E+03  0.18602624709E+03  0.22612790028E+03  0.87545000906E+03  0.65864270000E+03 0.  1.
    8880022    1    1    2    0    0 -0.49685301670E+03 -0.18602624709E+03  0.39150585496E+03  0.67685831035E+03  0.15294330000E+03 0.  0.
<mgrwt>
<rscale>  0 0.76022281E+03</rscale>
<asrwt>0</asrwt>
<pdfrwt beam="1">  1        2 0.16691862E+00 0.84574162E+03</pdfrwt>
<pdfrwt beam="2">  1       -2 0.71898044E-01 0.84574162E+03</pdfrwt>
<totfact> 0.39337878E+01</totfact>
</mgrwt>
</event>
<event>
 4    2  0.6387803E-007  0.7678350E+03  0.7818608E-02  0.9785230E-01
         -2   -1    0    0    0  501 -0.00000000000E+00  0.00000000000E+00  0.20781167884E+03  0.20781167885E+03  0.25500000000E-02 0.  1.
          2   -1    0    0  501    0  0.00000000000E+00 -0.00000000000E+00 -0.22312776700E+04  0.22312776700E+04  0.25500000000E-02 0. -1.
    8880023    1    1    2    0    0  0.17868095016E+03 -0.35189974889E+03 -0.66354255146E+03  0.10148198062E+04  0.65864270000E+03 0.  1.
    8880022    1    1    2    0    0 -0.17868095016E+03  0.35189974889E+03 -0.13599234397E+04  0.14242695426E+04  0.15294330000E+03 0.  0.
<mgrwt>
<rscale>  0 0.66161236E+03</rscale>
<asrwt>0</asrwt>
<pdfrwt beam="1">  1        2 0.34327347E+00 0.76783496E+03</pdfrwt>
<pdfrwt beam="2">  1       -2 0.31971029E-01 0.76783496E+03</pdfrwt>
<totfact> 0.46580798E+01</totfact>
</mgrwt>
</event>
<event>
 4    2  0.6387803E-007  0.6965309E+03  0.7818608E-02  0.1001191E+00
         -2   -1    0    0    0  501 -0.00000000000E+00  0.00000000000E+00  0.70596118970E+03  0.70596118971E+03  0.25500000000E-02 0.  1.
          2   -1    0    0  501    0  0.00000000000E+00 -0.00000000000E+00 -0.34003384326E+03  0.34003384327E+03  0.25500000000E-02 0. -1.
    8880023    1    1    2    0    0  0.21272798621E+03 -0.78050607095E+02  0.32834823712E+03  0.77004406658E+03  0.65864270000E+03 0.  0.
    8880022    1    1    2    0    0 -0.21272798621E+03  0.78050607095E+02  0.37579109316E+02  0.27595096640E+03  0.15294330000E+03 0.  1.
<mgrwt>
<rscale>  0 0.55131152E+03</rscale>
<asrwt>0</asrwt>
<pdfrwt beam="1">  1        2 0.52312900E-01 0.69653090E+03</pdfrwt>
<pdfrwt beam="2">  1       -2 0.10860941E+00 0.69653090E+03</pdfrwt>
<totfact> 0.65550593E+01</totfact>
</mgrwt>
</event>
<event>
 4    2  0.6387803E-007  0.1098745E+04  0.7818608E-02  0.9262455E-01
          2   -1    0    0  501    0  0.00000000000E+00  0.00000000000E+00  0.20154074356E+04  0.20154074356E+04  0.25500000000E-02 0. -1.
         -2   -1    0    0    0  501 -0.00000000000E+00 -0.00000000000E+00 -0.50047611247E+03  0.50047611248E+03  0.25500000000E-02 0.  1.
    8880023    1    1    2    0    0 -0.20684704516E+03  0.85477714151E+03  0.67087218794E+03  0.12873652786E+04  0.65864270000E+03 0.  0.
    8880022    1    1    2    0    0  0.20684704516E+03 -0.85477714151E+03  0.84405913523E+03  0.12285182695E+04  0.15294330000E+03 0.  0.
<mgrwt>
<rscale>  0 0.10431403E+04</rscale>
<asrwt>0</asrwt>
<pdfrwt beam="1">  1        2 0.31006269E+00 0.10987447E+04</pdfrwt>
<pdfrwt beam="2">  1       -2 0.76996324E-01 0.10987447E+04</pdfrwt>
<totfact> 0.97878555E+00</totfact>
</mgrwt>
</event>
<event>
 4    2  0.6387803E-007  0.6765694E+03  0.7818608E-02  0.1011335E+00
         -2   -1    0    0    0  501 -0.00000000000E+00  0.00000000000E+00  0.15790896167E+03  0.15790896169E+03  0.25500000000E-02 0.  1.
          2   -1    0    0  501    0  0.00000000000E+00 -0.00000000000E+00 -0.14506161846E+04  0.14506161846E+04  0.25500000000E-02 0. -1.
    8880023    1    1    2    0    0  0.17277915638E+02  0.15374479207E+03 -0.68387820056E+03  0.96199562729E+03  0.65864270000E+03 0. -1.
    8880022    1    1    2    0    0 -0.17277915638E+02 -0.15374479207E+03 -0.60882902239E+03  0.64652951903E+03  0.15294330000E+03 0.  0.
<mgrwt>
<rscale>  0 0.50947589E+03</rscale>
<asrwt>0</asrwt>
<pdfrwt beam="1">  1        2 0.22317171E+00 0.67656943E+03</pdfrwt>
<pdfrwt beam="2">  1       -2 0.24293688E-01 0.67656943E+03</pdfrwt>
<totfact> 0.20840926E+02</totfact>
</mgrwt>
</event>
<event>
 4    2  0.6387803E-007  0.7215532E+03  0.7818608E-02  0.9917365E-01
          2   -1    0    0  501    0  0.00000000000E+00  0.00000000000E+00  0.17895364452E+04  0.17895364452E+04  0.25500000000E-02 0. -1.
         -2   -1    0    0    0  501 -0.00000000000E+00 -0.00000000000E+00 -0.16473518482E+03  0.16473518484E+03  0.25500000000E-02 0.  1.
    8880023    1    1    2    0    0 -0.21221617284E+03 -0.20443355518E+03  0.87414603971E+03  0.11334770785E+04  0.65864270000E+03 0.  1.
    8880022    1    1    2    0    0  0.21221617284E+03  0.20443355518E+03  0.75065522071E+03  0.82079455158E+03  0.15294330000E+03 0.  0.
<mgrwt>
<rscale>  0 0.59427030E+03</rscale>
<asrwt>0</asrwt>
<pdfrwt beam="1">  1        2 0.27531330E+00 0.72155318E+03</pdfrwt>
<pdfrwt beam="2">  1       -2 0.25343875E-01 0.72155318E+03</pdfrwt>
<totfact> 0.12523161E+02</totfact>
</mgrwt>
</event>
<event>
 4    2  0.6387803E-007  0.7239040E+03  0.7818608E-02  0.9909591E-01
          2   -1    0    0  501    0  0.00000000000E+00  0.00000000000E+00  0.10197602521E+04  0.10197602521E+04  0.25500000000E-02 0. -1.
         -2   -1    0    0    0  501 -0.00000000000E+00 -0.00000000000E+00 -0.40003331055E+03  0.40003331056E+03  0.25500000000E-02 0.  1.
    8880023    1    1    2    0    0  0.22044108462E+03 -0.20404060879E+03  0.11017595903E+02  0.72398786972E+03  0.65864270000E+03 0.  0.
    8880022    1    1    2    0    0 -0.22044108462E+03  0.20404060879E+03  0.60870934560E+03  0.69580569290E+03  0.15294330000E+03 0. -1.
<mgrwt>
<rscale>  0 0.59798718E+03</rscale>
<asrwt>0</asrwt>
<pdfrwt beam="1">  1        2 0.15688619E+00 0.72390403E+03</pdfrwt>
<pdfrwt beam="2">  1       -2 0.61543588E-01 0.72390403E+03</pdfrwt>
<totfact> 0.61087613E+01</totfact>
</mgrwt>
</event>
<event>
 4    2  0.6387803E-007  0.8550930E+03  0.7818608E-02  0.9602352E-01
          2   -1    0    0  501    0  0.00000000000E+00  0.00000000000E+00  0.17660161361E+04  0.17660161361E+04  0.25500000000E-02 0. -1.
         -2   -1    0    0    0  501 -0.00000000000E+00 -0.00000000000E+00 -0.47816874248E+03  0.47816874249E+03  0.25500000000E-02 0.  1.
    8880023    1    1    2    0    0  0.46729280246E+03  0.28108942637E+03  0.19707019767E+02  0.85532005807E+03  0.65864270000E+03 0.  1.
    8880022    1    1    2    0    0 -0.46729280246E+03 -0.28108942637E+03  0.12681403738E+04  0.13888648205E+04  0.15294330000E+03 0.  0.
<mgrwt>
<rscale>  0 0.77140681E+03</rscale>
<asrwt>0</asrwt>
<pdfrwt beam="1">  1        2 0.27169479E+00 0.85509300E+03</pdfrwt>
<pdfrwt beam="2">  1       -2 0.73564421E-01 0.85509300E+03</pdfrwt>
<totfact> 0.15258015E+01</totfact>
</mgrwt>
</event>
<event>
 4    2  0.6387803E-007  0.6922478E+03  0.7818608E-02  0.1003102E+00
          2   -1    0    0  501    0  0.00000000000E+00  0.00000000000E+00  0.26765856954E+04  0.26765856954E+04  0.25500000000E-02 0. -1.
         -2   -1    0    0    0  501 -0.00000000000E+00 -0.00000000000E+00 -0.10661478423E+03  0.10661478426E+03  0.25500000000E-02 0.  1.
    8880023    1    1    2    0    0  0.94532362647E+02 -0.19094606128E+03  0.11747420617E+04  0.13635343354E+04  0.65864270000E+03 0.  1.
    8880022    1    1    2    0    0 -0.94532362647E+02  0.19094606128E+03  0.13952288494E+04  0.14196661442E+04  0.15294330000E+03 0. -1.
<mgrwt>
<rscale>  0 0.54310724E+03</rscale>
<asrwt>0</asrwt>
<pdfrwt beam="1">  1        2 0.41178249E+00 0.69224777E+03</pdfrwt>
<pdfrwt beam="2">  1       -2 0.16402271E-01 0.69224777E+03</pdfrwt>
<totfact> 0.86782278E+01</totfact>
</mgrwt>
</event>
<event>
 4    2  0.6387803E-007  0.8701305E+03  0.7818608E-02  0.9575791E-01
         -2   -1    0    0    0  501 -0.00000000000E+00  0.00000000000E+00  0.11590211760E+04  0.11590211760E+04  0.25500000000E-02 0.  1.
          2   -1    0    0  501    0  0.00000000000E+00 -0.00000000000E+00 -0.96961246775E+03  0.96961246775E+03  0.25500000000E-02 0. -1.
    8880023    1    1    2    0    0  0.12307010404E+03 -0.55513123027E+03  0.86878574645E+03  0.12295998588E+04  0.65864270000E+03 0.  1.
    8880022    1    1    2    0    0 -0.12307010404E+03  0.55513123027E+03 -0.67937703822E+03  0.89903378491E+03  0.15294330000E+03 0.  0.
<mgrwt>
<rscale>  0 0.78919419E+03</rscale>
<asrwt>0</asrwt>
<pdfrwt beam="1">  1        2 0.14917115E+00 0.87013053E+03</pdfrwt>
<pdfrwt beam="2">  1       -2 0.17831095E+00 0.87013053E+03</pdfrwt>
<totfact> 0.49365232E+00</totfact>
</mgrwt>
</event>
<event>
 4    2  0.6387803E-007  0.7084217E+03  0.7818608E-02  0.9963909E-01
          2   -1    0    0  501    0  0.00000000000E+00  0.00000000000E+00  0.18474318318E+04  0.18474318318E+04  0.25500000000E-02 0. -1.
         -2   -1    0    0    0  501 -0.00000000000E+00 -0.00000000000E+00 -0.29005444180E+03  0.29005444181E+03  0.25500000000E-02 0.  1.
    8880023    1    1    2    0    0  0.20123226213E+03  0.16600209423E+03  0.18498741466E+03  0.73217598189E+03  0.65864270000E+03 0.  1.
    8880022    1    1    2    0    0 -0.20123226213E+03 -0.16600209423E+03  0.13723899754E+04  0.14053102917E+04  0.15294330000E+03 0. -1.
<mgrwt>
<rscale>  0 0.57261480E+03</rscale>
<asrwt>0</asrwt>
<pdfrwt beam="1">  1        2 0.28422028E+00 0.70842171E+03</pdfrwt>
<pdfrwt beam="2">  1       -2 0.44623761E-01 0.70842171E+03</pdfrwt>
<totfact> 0.39978396E+01</totfact>
</mgrwt>
</event>
<event>
 4    2  0.6387803E-007  0.7960360E+03  0.7818608E-02  0.9719433E-01
          2   -1    0    0  501    0  0.00000000000E+00  0.00000000000E+00  0.18688510396E+04  0.18688510396E+04  0.25500000000E-02 0. -1.
         -2   -1    0    0    0  501 -0.00000000000E+00 -0.00000000000E+00 -0.96440332969E+03  0.96440332969E+03  0.25500000000E-02 0.  1.
    8880023    1    1    2    0    0  0.29641459189E+03  0.33466622513E+03 -0.76148925601E+03  0.11016075462E+04  0.65864270000E+03 0.  1.
    8880022    1    1    2    0    0 -0.29641459189E+03 -0.33466622513E+03  0.16659369660E+04  0.17316468231E+04  0.15294330000E+03 0.  0.
<mgrwt>
<rscale>  0 0.69871427E+03</rscale>
<asrwt>0</asrwt>
<pdfrwt beam="1">  1        2 0.28751554E+00 0.79603599E+03</pdfrwt>
<pdfrwt beam="2">  1       -2 0.14836974E+00 0.79603599E+03</pdfrwt>
<totfact> 0.25016371E+00</totfact>
</mgrwt>
</event>
<event>
 4    2  0.6387803E-007  0.7840097E+03  0.7818608E-02  0.9746501E-01
          2   -1    0    0  501    0  0.00000000000E+00  0.00000000000E+00  0.33150379874E+04  0.33150379874E+04  0.25500000000E-02 0. -1.
         -2   -1    0    0    0  501 -0.00000000000E+00 -0.00000000000E+00 -0.16262878053E+03  0.16262878055E+03  0.25500000000E-02 0.  1.
    8880023    1    1    2    0    0  0.16741683012E+02 -0.42494784180E+03  0.27908871450E+04  0.28989174211E+04  0.65864270000E+03 0. -1.
    8880022    1    1    2    0    0 -0.16741683012E+02  0.42494784180E+03  0.36152206185E+03  0.57874934680E+03  0.15294330000E+03 0.  0.
<mgrwt>
<rscale>  0 0.68314362E+03</rscale>
<asrwt>0</asrwt>
<pdfrwt beam="1">  1        2 0.51000583E+00 0.78400967E+03</pdfrwt>
<pdfrwt beam="2">  1       -2 0.25019813E-01 0.78400967E+03</pdfrwt>
<totfact> 0.16579946E+01</totfact>
</mgrwt>
</event>
<event>
 4    2  0.6387803E-007  0.7626006E+03  0.7818608E-02  0.9798421E-01
         -2   -1    0    0    0  501 -0.00000000000E+00  0.00000000000E+00  0.28667817290E+03  0.28667817291E+03  0.25500000000E-02 0.  1.
          2   -1    0    0  501    0  0.00000000000E+00 -0.00000000000E+00 -0.18291792289E+04  0.18291792289E+04  0.25500000000E-02 0. -1.
    8880023    1    1    2    0    0  0.21612792958E+03  0.31786495873E+03 -0.32315403081E+03  0.82824401466E+03  0.65864270000E+03 0.  0.
    8880022    1    1    2    0    0 -0.21612792958E+03 -0.31786495873E+03 -0.12193470252E+04  0.12876133871E+04  0.15294330000E+03 0.  0.
<mgrwt>
<rscale>  0 0.65447358E+03</rscale>
<asrwt>0</asrwt>
<pdfrwt beam="1">  1        2 0.28141218E+00 0.76260056E+03</pdfrwt>
<pdfrwt beam="2">  1       -2 0.44104335E-01 0.76260056E+03</pdfrwt>
<totfact> 0.41592932E+01</totfact>
</mgrwt>
</event>
<event>
 4    2  0.6387803E-007  0.6682167E+03  0.7818608E-02  0.1016975E+00
          2   -1    0    0  501    0  0.00000000000E+00  0.00000000000E+00  0.20367786445E+04  0.20367786445E+04  0.25500000000E-02 0. -1.
         -2   -1    0    0    0  501 -0.00000000000E+00 -0.00000000000E+00 -0.10507763899E+03  0.10507763902E+03  0.25500000000E-02 0.  1.
    8880023    1    1    2    0    0 -0.24043048700E+02  0.11011495574E+03  0.10862739165E+04  0.12753448943E+04  0.65864270000E+03 0.  0.
    8880022    1    1    2    0    0  0.24043048700E+02 -0.11011495574E+03  0.84542708900E+03  0.86651138913E+03  0.15294330000E+03 0.  0.
<mgrwt>
<rscale>  0 0.48794281E+03</rscale>
<asrwt>0</asrwt>
<pdfrwt beam="1">  1        2 0.31335056E+00 0.66821671E+03</pdfrwt>
<pdfrwt beam="2">  1       -2 0.16165791E-01 0.66821671E+03</pdfrwt>
<totfact> 0.20305914E+02</totfact>
</mgrwt>
</event>
<event>
 4    2  0.6387803E-007  0.8743792E+03  0.7818608E-02  0.9568480E-01
         -2   -1    0    0    0  501 -0.00000000000E+00  0.00000000000E+00  0.25661156838E+04  0.25661156838E+04  0.25500000000E-02 0.  1.
          2   -1    0    0  501    0  0.00000000000E+00 -0.00000000000E+00 -0.10929665510E+04  0.10929665510E+04  0.25500000000E-02 0. -1.
    8880023    1    1    2    0    0  0.48547325295E+03  0.30829274826E+03  0.24018655712E+04  0.25560706419E+04  0.65864270000E+03 0.  0.
    8880022    1    1    2    0    0 -0.48547325295E+03 -0.30829274826E+03 -0.92871643845E+03  0.11030115929E+04  0.15294330000E+03 0.  0.
<mgrwt>
<rscale>  0 0.79417956E+03</rscale>
<asrwt>0</asrwt>
<pdfrwt beam="1">  1        2 0.16814870E+00 0.87437915E+03</pdfrwt>
<pdfrwt beam="2">  1       -2 0.39478703E+00 0.87437915E+03</pdfrwt>
<totfact> 0.18382582E-01</totfact>
</mgrwt>
</event>
<event>
 4    2  0.6387803E-007  0.1065185E+04  0.7818608E-02  0.9300845E-01
         -2   -1    0    0    0  501 -0.00000000000E+00  0.00000000000E+00  0.21014139077E+04  0.21014139077E+04  0.25500000000E-02 0.  1.
          2   -1    0    0  501    0  0.00000000000E+00 -0.00000000000E+00 -0.12502950105E+04  0.12502950105E+04  0.25500000000E-02 0. -1.
    8880023    1    1    2    0    0  0.70869096169E+03  0.44560824134E+03  0.17909920251E+04  0.20838119455E+04  0.65864270000E+03 0.  0.
    8880022    1    1    2    0    0 -0.70869096169E+03 -0.44560824134E+03 -0.93987312789E+03  0.12678969727E+04  0.15294330000E+03 0.  0.
<mgrwt>
<rscale>  0 0.10070506E+04</rscale>
<asrwt>0</asrwt>
<pdfrwt beam="1">  1        2 0.19235308E+00 0.10651853E+04</pdfrwt>
<pdfrwt beam="2">  1       -2 0.32329445E+00 0.10651853E+04</pdfrwt>
<totfact> 0.40287705E-01</totfact>
</mgrwt>
</event>
<event>
 4    2  0.6387803E-007  0.7720713E+03  0.7818608E-02  0.9774802E-01
         -2   -1    0    0    0  501 -0.00000000000E+00  0.00000000000E+00  0.47307410791E+03  0.47307410791E+03  0.25500000000E-02 0.  1.
          2   -1    0    0  501    0  0.00000000000E+00 -0.00000000000E+00 -0.15445823114E+04  0.15445823114E+04  0.25500000000E-02 0. -1.
    8880023    1    1    2    0    0 -0.25294403829E+03 -0.31353340406E+03  0.91419010149E+02  0.77746480541E+03  0.65864270000E+03 0.  0.
    8880022    1    1    2    0    0  0.25294403829E+03  0.31353340406E+03 -0.11629272136E+04  0.12401916139E+04  0.15294330000E+03 0.  0.
<mgrwt>
<rscale>  0 0.66732499E+03</rscale>
<asrwt>0</asrwt>
<pdfrwt beam="1">  1        2 0.23762804E+00 0.77207130E+03</pdfrwt>
<pdfrwt beam="2">  1       -2 0.72780633E-01 0.77207130E+03</pdfrwt>
<totfact> 0.20893417E+01</totfact>
</mgrwt>
</event>
<event>
 4    2  0.6387803E-007  0.7643024E+03  0.7818608E-02  0.9794094E-01
          2   -1    0    0  501    0  0.00000000000E+00  0.00000000000E+00  0.15331648825E+04  0.15331648825E+04  0.25500000000E-02 0. -1.
         -2   -1    0    0    0  501 -0.00000000000E+00 -0.00000000000E+00 -0.32217561277E+03  0.32217561278E+03  0.25500000000E-02 0.  1.
    8880023    1    1    2    0    0  0.79725092874E+02  0.37946252806E+03  0.24394209088E+03  0.80228788511E+03  0.65864270000E+03 0.  0.
    8880022    1    1    2    0    0 -0.79725092874E+02 -0.37946252806E+03  0.96704717882E+03  0.10530526101E+04  0.15294330000E+03 0.  0.
<mgrwt>
<rscale>  0 0.65680468E+03</rscale>
<asrwt>0</asrwt>
<pdfrwt beam="1">  1        2 0.23587151E+00 0.76430237E+03</pdfrwt>
<pdfrwt beam="2">  1       -2 0.49565480E-01 0.76430237E+03</pdfrwt>
<totfact> 0.47813806E+01</totfact>
</mgrwt>
</event>
<event>
 4    2  0.6387803E-007  0.6812755E+03  0.7818608E-02  0.1008611E+00
         -2   -1    0    0    0  501 -0.00000000000E+00  0.00000000000E+00  0.34461522826E+03  0.34461522827E+03  0.25500000000E-02 0.  1.
          2   -1    0    0  501    0  0.00000000000E+00 -0.00000000000E+00 -0.17716030668E+04  0.17716030668E+04  0.25500000000E-02 0. -1.
    8880023    1    1    2    0    0  0.11116157885E+03  0.13404941226E+03 -0.10976109345E+02  0.68136394297E+03  0.65864270000E+03 0.  1.
    8880022    1    1    2    0    0 -0.11116157885E+03 -0.13404941226E+03 -0.14160117292E+04  0.14348543521E+04  0.15294330000E+03 0.  0.
<mgrwt>
<rscale>  0 0.52030364E+03</rscale>
<asrwt>0</asrwt>
<pdfrwt beam="1">  1        2 0.27255431E+00 0.68127553E+03</pdfrwt>
<pdfrwt beam="2">  1       -2 0.53017728E-01 0.68127553E+03</pdfrwt>
<totfact> 0.31134786E+01</totfact>
</mgrwt>
</event>
<event>
 4    2  0.6387803E-007  0.1139663E+04  0.7818608E-02  0.9218130E-01
         -2   -1    0    0    0  501 -0.00000000000E+00  0.00000000000E+00  0.10332101244E+04  0.10332101244E+04  0.25500000000E-02 0.  1.
          2   -1    0    0  501    0  0.00000000000E+00 -0.00000000000E+00 -0.11775588887E+04  0.11775588887E+04  0.25500000000E-02 0. -1.
    8880023    1    1    2    0    0 -0.65858187866E+03  0.65672746388E+03  0.28541541365E+03  0.11748588074E+04  0.65864270000E+03 0.  0.
    8880022    1    1    2    0    0  0.65858187866E+03 -0.65672746388E+03 -0.42976417797E+03  0.10359102058E+04  0.15294330000E+03 0.  0.
<mgrwt>
<rscale>  0 0.10868237E+04</rscale>
<asrwt>0</asrwt>
<pdfrwt beam="1">  1        2 0.18116291E+00 0.11396628E+04</pdfrwt>
<pdfrwt beam="2">  1       -2 0.15895540E+00 0.11396628E+04</pdfrwt>
<totfact> 0.48986379E+00</totfact>
</mgrwt>
</event>
<event>
 4    2  0.6387803E-007  0.7358641E+03  0.7818608E-02  0.9872163E-01
         -2   -1    0    0    0  501 -0.00000000000E+00  0.00000000000E+00  0.89920903539E+03  0.89920903540E+03  0.25500000000E-02 0.  1.
          2   -1    0    0  501    0  0.00000000000E+00 -0.00000000000E+00 -0.56459115467E+03  0.56459115468E+03  0.25500000000E-02 0. -1.
    8880023    1    1    2    0    0 -0.31852987856E+03  0.78894998841E+02  0.65137724763E+03  0.98274525151E+03  0.65864270000E+03 0.  1.
    8880022    1    1    2    0    0  0.31852987856E+03 -0.78894998841E+02 -0.31675936690E+03  0.48105493856E+03  0.15294330000E+03 0.  0.
<mgrwt>
<rscale>  0 0.61629572E+03</rscale>
<asrwt>0</asrwt>
<pdfrwt beam="1">  1        2 0.86860179E-01 0.73586406E+03</pdfrwt>
<pdfrwt beam="2">  1       -2 0.13833985E+00 0.73586406E+03</pdfrwt>
<totfact> 0.20058884E+01</totfact>
</mgrwt>
</event>
<event>
 4    2  0.6387803E-007  0.8094338E+03  0.7818608E-02  0.9690758E-01
          2   -1    0    0  501    0  0.00000000000E+00  0.00000000000E+00  0.24290300102E+03  0.24290300103E+03  0.25500000000E-02 0. -1.
         -2   -1    0    0    0  501 -0.00000000000E+00 -0.00000000000E+00 -0.25069945567E+04  0.25069945567E+04  0.25500000000E-02 0.  1.
    8880023    1    1    2    0    0  0.77025582000E+02  0.46415502215E+03 -0.20625348138E+04  0.22156788777E+04  0.65864270000E+03 0.  0.
    8880022    1    1    2    0    0 -0.77025582000E+02 -0.46415502215E+03 -0.20155674194E+03  0.53421868004E+03  0.15294330000E+03 0.  0.
<mgrwt>
<rscale>  0 0.71569756E+03</rscale>
<asrwt>0</asrwt>
<pdfrwt beam="1">  1        2 0.37369694E-01 0.80943377E+03</pdfrwt>
<pdfrwt beam="2">  1       -2 0.38569145E+00 0.80943377E+03</pdfrwt>
<totfact> 0.13410729E+00</totfact>
</mgrwt>
</event>
<event>
 4    2  0.6387803E-007  0.6869251E+03  0.7818608E-02  0.1005650E+00
          2   -1    0    0  501    0  0.00000000000E+00  0.00000000000E+00  0.26531694354E+03  0.26531694355E+03  0.25500000000E-02 0. -1.
         -2   -1    0    0    0  501 -0.00000000000E+00 -0.00000000000E+00 -0.10413879036E+04  0.10413879036E+04  0.25500000000E-02 0.  1.
    8880023    1    1    2    0    0 -0.14578775532E+03 -0.12962168378E+03 -0.80372674082E+03  0.10572808192E+04  0.65864270000E+03 0.  0.
    8880022    1    1    2    0    0  0.14578775532E+03  0.12962168378E+03  0.27655780724E+02  0.24942402797E+03  0.15294330000E+03 0.  0.
<mgrwt>
<rscale>  0 0.53240859E+03</rscale>
<asrwt>0</asrwt>
<pdfrwt beam="1">  1        2 0.40817992E-01 0.68692507E+03</pdfrwt>
<pdfrwt beam="2">  1       -2 0.16021352E+00 0.68692507E+03</pdfrwt>
<totfact> 0.32131434E+01</totfact>
</mgrwt>
</event>
