<event>
 4    1  0.7280516E-007  0.8951167E+03  0.7818608E-02  0.9533917E-01
          2   -1    0    0  501    0  0.00000000000E+00  0.00000000000E+00  0.26966024928E+04  0.26966024928E+04  0.25500000000E-02 0. -1.
         -2   -1    0    0    0  501 -0.00000000000E+00 -0.00000000000E+00 -0.31219950195E+03  0.31219950196E+03  0.25500000000E-02 0.  1.
    8880023    1    1    2    0    0 -0.44786133790E+03 -0.40846543322E+03  0.21708958618E+04  0.23481956556E+04  0.65864270000E+03 0. -1.
    8880022    1    1    2    0    0  0.44786133790E+03  0.40846543322E+03  0.21350712905E+03  0.66060633912E+03  0.15294330000E+03 0.  0.
<mgrwt>
<rscale>  0 0.81828808E+03</rscale>
<asrwt>0</asrwt>
<pdfrwt beam="1">  1        2 0.41486193E+00 0.89511675E+03</pdfrwt>
<pdfrwt beam="2">  1       -2 0.48030692E-01 0.89511675E+03</pdfrwt>
<totfact> 0.11288860E+01</totfact>
</mgrwt>
</event>
<event>
 4    1  0.7280516E-007  0.6868614E+03  0.7818608E-02  0.1005681E+00
          2   -1    0    0  501    0  0.00000000000E+00  0.00000000000E+00  0.13490547285E+04  0.13490547285E+04  0.25500000000E-02 0. -1.
         -2   -1    0    0    0  501 -0.00000000000E+00 -0.00000000000E+00 -0.33313613832E+03  0.33313613833E+03  0.25500000000E-02 0.  1.
    8880023    1    1    2    0    0  0.12295153600E+03 -0.15116666037E+03  0.11937554250E+04  0.13772547551E+04  0.65864270000E+03 0. -1.
    8880022    1    1    2    0    0 -0.12295153600E+03  0.15116666037E+03 -0.17783683482E+03  0.30493611175E+03  0.15294330000E+03 0.  0.
<mgrwt>
<rscale>  0 0.53227688E+03</rscale>
<asrwt>0</asrwt>
<pdfrwt beam="1">  1        2 0.20754688E+00 0.68686145E+03</pdfrwt>
<pdfrwt beam="2">  1       -2 0.51251713E-01 0.68686145E+03</pdfrwt>
<totfact> 0.57124537E+01</totfact>
</mgrwt>
</event>
<event>
 4    1  0.7280516E-007  0.9885074E+03  0.7818608E-02  0.9396750E-01
         -2   -1    0    0    0  501 -0.00000000000E+00  0.00000000000E+00  0.27124300547E+03  0.27124300548E+03  0.25500000000E-02 0.  1.
          2   -1    0    0  501    0  0.00000000000E+00 -0.00000000000E+00 -0.41567065237E+04  0.41567065237E+04  0.25500000000E-02 0. -1.
    8880023    1    1    2    0    0 -0.48286544013E+03  0.55693585158E+03 -0.33790103280E+04  0.35206331219E+04  0.65864270000E+03 0.  0.
    8880022    1    1    2    0    0  0.48286544013E+03 -0.55693585158E+03 -0.50645319028E+03  0.90731640733E+03  0.15294330000E+03 0.  0.
<mgrwt>
<rscale>  0 0.92343596E+03</rscale>
<asrwt>0</asrwt>
<pdfrwt beam="1">  1        2 0.63949326E+00 0.98850735E+03</pdfrwt>
<pdfrwt beam="2">  1       -2 0.41729696E-01 0.98850735E+03</pdfrwt>
<totfact> 0.14661355E+00</totfact>
</mgrwt>
</event>
<event>
 4    1  0.7280516E-007  0.7375343E+03  0.7818608E-02  0.9867188E-01
          2   -1    0    0  501    0  0.00000000000E+00  0.00000000000E+00  0.28827195120E+04  0.28827195120E+04  0.25500000000E-02 0. -1.
         -2   -1    0    0    0  501 -0.00000000000E+00 -0.00000000000E+00 -0.13747161582E+03  0.13747161584E+03  0.25500000000E-02 0.  1.
    8880023    1    1    2    0    0  0.34696121145E+02 -0.33006494225E+03  0.24237100227E+04  0.25334417632E+04  0.65864270000E+03 0. -1.
    8880022    1    1    2    0    0 -0.34696121145E+02  0.33006494225E+03  0.32153787349E+03  0.48674936469E+03  0.15294330000E+03 0.  0.
<mgrwt>
<rscale>  0 0.61878165E+03</rscale>
<asrwt>0</asrwt>
<pdfrwt beam="1">  1        2 0.44349525E+00 0.73753433E+03</pdfrwt>
<pdfrwt beam="2">  1       -2 0.21149482E-01 0.73753433E+03</pdfrwt>
<totfact> 0.41972498E+01</totfact>
</mgrwt>
</event>
<event>
 4    1  0.7280516E-007  0.9476394E+03  0.7818608E-02  0.9453519E-01
         -2   -1    0    0    0  501 -0.00000000000E+00  0.00000000000E+00  0.12507390913E+04  0.12507390913E+04  0.25500000000E-02 0.  1.
          2   -1    0    0  501    0  0.00000000000E+00 -0.00000000000E+00 -0.87592301816E+03  0.87592301816E+03  0.25500000000E-02 0. -1.
    8880023    1    1    2    0    0  0.41383947420E+03  0.54124584447E+03  0.85731628774E+03  0.12778934220E+04  0.65864270000E+03 0.  1.
    8880022    1    1    2    0    0 -0.41383947420E+03 -0.54124584447E+03 -0.48250021464E+03  0.84876868740E+03  0.15294330000E+03 0.  0.
<mgrwt>
<rscale>  0 0.87799186E+03</rscale>
<asrwt>0</asrwt>
<pdfrwt beam="1">  1        2 0.13475739E+00 0.94763937E+03</pdfrwt>
<pdfrwt beam="2">  1       -2 0.19242140E+00 0.94763937E+03</pdfrwt>
<totfact> 0.45358996E+00</totfact>
</mgrwt>
</event>
<event>
 4    1  0.7280516E-007  0.8546813E+03  0.7818608E-02  0.9603095E-01
         -2   -1    0    0    0  501 -0.00000000000E+00  0.00000000000E+00  0.15792802527E+04  0.15792802527E+04  0.25500000000E-02 0.  1.
          2   -1    0    0  501    0  0.00000000000E+00 -0.00000000000E+00 -0.34191745782E+03  0.34191745783E+03  0.25500000000E-02 0. -1.
    8880023    1    1    2    0    0  0.34306673166E+03 -0.42305449763E+03  0.97802078350E+03  0.12988474697E+04  0.65864270000E+03 0.  0.
    8880022    1    1    2    0    0 -0.34306673166E+03  0.42305449763E+03  0.25934201134E+03  0.62235024078E+03  0.15294330000E+03 0.  0.
<mgrwt>
<rscale>  0 0.77091648E+03</rscale>
<asrwt>0</asrwt>
<pdfrwt beam="1">  1        2 0.52602687E-01 0.85468128E+03</pdfrwt>
<pdfrwt beam="2">  1       -2 0.24296619E+00 0.85468128E+03</pdfrwt>
<totfact> 0.68351190E+00</totfact>
</mgrwt>
</event>
<event>
 4    1  0.7280516E-007  0.9875294E+03  0.7818608E-02  0.9398058E-01
         -2   -1    0    0    0  501 -0.00000000000E+00  0.00000000000E+00  0.43496823948E+03  0.43496823949E+03  0.25500000000E-02 0.  1.
          2   -1    0    0  501    0  0.00000000000E+00 -0.00000000000E+00 -0.25015452624E+04  0.25015452624E+04  0.25500000000E-02 0. -1.
    8880023    1    1    2    0    0  0.64884243881E+03  0.34699810410E+03 -0.19365655888E+04  0.21738216764E+04  0.65864270000E+03 0.  0.
    8880022    1    1    2    0    0 -0.64884243881E+03 -0.34699810410E+03 -0.13001143407E+03  0.76269182548E+03  0.15294330000E+03 0.  0.
<mgrwt>
<rscale>  0 0.92235685E+03</rscale>
<asrwt>0</asrwt>
<pdfrwt beam="1">  1        2 0.38485311E+00 0.98752944E+03</pdfrwt>
<pdfrwt beam="2">  1       -2 0.66918192E-01 0.98752944E+03</pdfrwt>
<totfact> 0.72148911E+00</totfact>
</mgrwt>
</event>
<event>
 4    1  0.7280516E-007  0.6683281E+03  0.7818608E-02  0.1016891E+00
          2   -1    0    0  501    0  0.00000000000E+00  0.00000000000E+00  0.16166105718E+04  0.16166105718E+04  0.25500000000E-02 0. -1.
         -2   -1    0    0    0  501 -0.00000000000E+00 -0.00000000000E+00 -0.19848921728E+03  0.19848921730E+03  0.25500000000E-02 0.  1.
    8880023    1    1    2    0    0 -0.91899832088E+02 -0.66382411400E+02  0.14725308951E+04  0.16170991457E+04  0.65864270000E+03 0. -1.
    8880022    1    1    2    0    0  0.91899832088E+02  0.66382411400E+02 -0.54409540563E+02  0.19800064343E+03  0.15294330000E+03 0.  0.
<mgrwt>
<rscale>  0 0.48825486E+03</rscale>
<asrwt>0</asrwt>
<pdfrwt beam="1">  1        2 0.24870931E+00 0.66832807E+03</pdfrwt>
<pdfrwt beam="2">  1       -2 0.30536804E-01 0.66832807E+03</pdfrwt>
<totfact> 0.11121949E+02</totfact>
</mgrwt>
</event>
<event>
 4    1  0.7280516E-007  0.1338393E+04  0.7818608E-02  0.9033094E-01
         -2   -1    0    0    0  501 -0.00000000000E+00  0.00000000000E+00  0.25085786238E+04  0.25085786238E+04  0.25500000000E-02 0.  1.
          2   -1    0    0  501    0  0.00000000000E+00 -0.00000000000E+00 -0.10229422664E+04  0.10229422664E+04  0.25500000000E-02 0. -1.
    8880023    1    1    2    0    0 -0.11409711360E+04  0.23594871811E+03 -0.32098915466E+03  0.13763470400E+04  0.65864270000E+03 0. -1.
    8880022    1    1    2    0    0  0.11409711360E+04 -0.23594871811E+03  0.18066255121E+04  0.21551738502E+04  0.15294330000E+03 0.  0.
<mgrwt>
<rscale>  0 0.12955593E+04</rscale>
<asrwt>0</asrwt>
<pdfrwt beam="1">  1        2 0.15737573E+00 0.13383935E+04</pdfrwt>
<pdfrwt beam="2">  1       -2 0.38593517E+00 0.13383935E+04</pdfrwt>
<totfact> 0.21590722E-01</totfact>
</mgrwt>
</event>
<event>
 4    1  0.7280516E-007  0.1194072E+04  0.7818608E-02  0.9162906E-01
          2   -1    0    0  501    0  0.00000000000E+00  0.00000000000E+00  0.21730975521E+04  0.21730975521E+04  0.25500000000E-02 0. -1.
         -2   -1    0    0    0  501 -0.00000000000E+00 -0.00000000000E+00 -0.10500484844E+04  0.10500484844E+04  0.25500000000E-02 0.  1.
    8880023    1    1    2    0    0  0.96696640672E+03 -0.23869115648E+03  0.16882075953E+04  0.20678134807E+04  0.65864270000E+03 0. -1.
    8880022    1    1    2    0    0 -0.96696640672E+03  0.23869115648E+03 -0.56515852769E+03  0.11553325557E+04  0.15294330000E+03 0.  1.
<mgrwt>
<rscale>  0 0.11444634E+04</rscale>
<asrwt>0</asrwt>
<pdfrwt beam="1">  1        2 0.33432270E+00 0.11940719E+04</pdfrwt>
<pdfrwt beam="2">  1       -2 0.16154592E+00 0.11940719E+04</pdfrwt>
<totfact> 0.12784244E+00</totfact>
</mgrwt>
</event>
<event>
 4    1  0.7280516E-007  0.8283192E+03  0.7818608E-02  0.9652612E-01
          2   -1    0    0  501    0  0.00000000000E+00  0.00000000000E+00  0.23670913054E+04  0.23670913054E+04  0.25500000000E-02 0. -1.
         -2   -1    0    0    0  501 -0.00000000000E+00 -0.00000000000E+00 -0.28120026168E+03  0.28120026169E+03  0.25500000000E-02 0.  1.
    8880023    1    1    2    0    0  0.49021465940E+03  0.10950815521E+03  0.19305221614E+04  0.21007209406E+04  0.65864270000E+03 0. -1.
    8880022    1    1    2    0    0 -0.49021465940E+03 -0.10950815521E+03  0.15536888228E+03  0.54757062644E+03  0.15294330000E+03 0.  0.
<mgrwt>
<rscale>  0 0.73909748E+03</rscale>
<asrwt>0</asrwt>
<pdfrwt beam="1">  1        2 0.36416790E+00 0.82831917E+03</pdfrwt>
<pdfrwt beam="2">  1       -2 0.43261578E-01 0.82831917E+03</pdfrwt>
<totfact> 0.21680110E+01</totfact>
</mgrwt>
</event>
<event>
 4    1  0.7280516E-007  0.8233325E+03  0.7818608E-02  0.9662447E-01
          2   -1    0    0  501    0  0.00000000000E+00  0.00000000000E+00  0.85380471694E+03  0.85380471694E+03  0.25500000000E-02 0. -1.
         -2   -1    0    0    0  501 -0.00000000000E+00 -0.00000000000E+00 -0.14984213446E+04  0.14984213446E+04  0.25500000000E-02 0.  1.
    8880023    1    1    2    0    0  0.12212871904E+03  0.47869688109E+03  0.59050745373E+03  0.10132005661E+04  0.65864270000E+03 0.  0.
    8880022    1    1    2    0    0 -0.12212871904E+03 -0.47869688109E+03 -0.12351240814E+04  0.13390254955E+04  0.15294330000E+03 0.  0.
<mgrwt>
<rscale>  0 0.73297360E+03</rscale>
<asrwt>0</asrwt>
<pdfrwt beam="1">  1        2 0.13135457E+00 0.82333246E+03</pdfrwt>
<pdfrwt beam="2">  1       -2 0.23052636E+00 0.82333246E+03</pdfrwt>
<totfact> 0.27226998E+00</totfact>
</mgrwt>
</event>
<event>
 4    1  0.7280516E-007  0.1484142E+04  0.7818608E-02  0.8920915E-01
         -2   -1    0    0    0  501 -0.00000000000E+00  0.00000000000E+00  0.20537157405E+04  0.20537157405E+04  0.25500000000E-02 0.  1.
          2   -1    0    0  501    0  0.00000000000E+00 -0.00000000000E+00 -0.14350446670E+04  0.14350446670E+04  0.25500000000E-02 0. -1.
    8880023    1    1    2    0    0  0.44621352110E+03 -0.12529013416E+04  0.13121873932E+04  0.19810386769E+04  0.65864270000E+03 0.  0.
    8880022    1    1    2    0    0 -0.44621352110E+03  0.12529013416E+04 -0.69351631969E+03  0.15077217306E+04  0.15294330000E+03 0.  0.
<mgrwt>
<rscale>  0 0.14463779E+04</rscale>
<asrwt>0</asrwt>
<pdfrwt beam="1">  1        2 0.22077610E+00 0.14841423E+04</pdfrwt>
<pdfrwt beam="2">  1       -2 0.31595627E+00 0.14841423E+04</pdfrwt>
<totfact> 0.33067912E-01</totfact>
</mgrwt>
</event>
<event>
 4    1  0.7280516E-007  0.1705211E+04  0.7818608E-02  0.8776866E-01
         -2   -1    0    0    0  501 -0.00000000000E+00  0.00000000000E+00  0.22301740428E+04  0.22301740428E+04  0.25500000000E-02 0.  1.
          2   -1    0    0  501    0  0.00000000000E+00 -0.00000000000E+00 -0.19405653939E+04  0.19405653939E+04  0.25500000000E-02 0. -1.
    8880023    1    1    2    0    0  0.19065023638E+03  0.15612773132E+04 -0.11306613930E+04  0.20460058048E+04  0.65864270000E+03 0.  0.
    8880022    1    1    2    0    0 -0.19065023638E+03 -0.15612773132E+04  0.14202700420E+04  0.21247336319E+04  0.15294330000E+03 0.  0.
<mgrwt>
<rscale>  0 0.16730850E+04</rscale>
<asrwt>0</asrwt>
<pdfrwt beam="1">  1        2 0.29854852E+00 0.17052110E+04</pdfrwt>
<pdfrwt beam="2">  1       -2 0.34310370E+00 0.17052110E+04</pdfrwt>
<totfact> 0.11363439E-01</totfact>
</mgrwt>
</event>
<event>
 4    1  0.7280516E-007  0.8952081E+03  0.7818608E-02  0.9533768E-01
         -2   -1    0    0    0  501 -0.00000000000E+00  0.00000000000E+00  0.17763414941E+04  0.17763414941E+04  0.25500000000E-02 0.  1.
          2   -1    0    0  501    0  0.00000000000E+00 -0.00000000000E+00 -0.63096044780E+03  0.63096044781E+03  0.25500000000E-02 0. -1.
    8880023    1    1    2    0    0  0.53266942346E+03  0.28956985827E+03 -0.20570657793E+03  0.91853841508E+03  0.65864270000E+03 0. -1.
    8880022    1    1    2    0    0 -0.53266942346E+03 -0.28956985827E+03  0.13510876243E+04  0.14887635269E+04  0.15294330000E+03 0.  0.
<mgrwt>
<rscale>  0 0.81839357E+03</rscale>
<asrwt>0</asrwt>
<pdfrwt beam="1">  1        2 0.97070839E-01 0.89520815E+03</pdfrwt>
<pdfrwt beam="2">  1       -2 0.27328330E+00 0.89520815E+03</pdfrwt>
<totfact> 0.21903203E+00</totfact>
</mgrwt>
</event>
<event>
 4    1  0.7280516E-007  0.7102075E+03  0.7818608E-02  0.9957231E-01
          2   -1    0    0  501    0  0.00000000000E+00  0.00000000000E+00  0.17226526235E+04  0.17226526235E+04  0.25500000000E-02 0. -1.
         -2   -1    0    0    0  501 -0.00000000000E+00 -0.00000000000E+00 -0.20622714153E+03  0.20622714155E+03  0.25500000000E-02 0.  1.
    8880023    1    1    2    0    0  0.26564663576E+03  0.40506202963E+01  0.14509046982E+04  0.16154006290E+04  0.65864270000E+03 0. -1.
    8880022    1    1    2    0    0 -0.26564663576E+03 -0.40506202963E+01  0.65520783748E+02  0.31347913604E+03  0.15294330000E+03 0.  0.
<mgrwt>
<rscale>  0 0.57566018E+03</rscale>
<asrwt>0</asrwt>
<pdfrwt beam="1">  1        2 0.26502349E+00 0.71020754E+03</pdfrwt>
<pdfrwt beam="2">  1       -2 0.31727252E-01 0.71020754E+03</pdfrwt>
<totfact> 0.90224012E+01</totfact>
</mgrwt>
</event>
<event>
 4    1  0.7280516E-007  0.8127435E+03  0.7818608E-02  0.9683890E-01
          2   -1    0    0  501    0  0.00000000000E+00  0.00000000000E+00  0.21990627293E+04  0.21990627293E+04  0.25500000000E-02 0. -1.
         -2   -1    0    0    0  501 -0.00000000000E+00 -0.00000000000E+00 -0.42007136704E+03  0.42007136705E+03  0.25500000000E-02 0.  1.
    8880023    1    1    2    0    0 -0.42501903532E+03  0.21471041788E+03  0.19321056612E+04  0.20960878408E+04  0.65864270000E+03 0.  0.
    8880022    1    1    2    0    0  0.42501903532E+03 -0.21471041788E+03 -0.15311429893E+03  0.52304625559E+03  0.15294330000E+03 0.  0.
<mgrwt>
<rscale>  0 0.71984100E+03</rscale>
<asrwt>0</asrwt>
<pdfrwt beam="1">  1        2 0.33831734E+00 0.81274347E+03</pdfrwt>
<pdfrwt beam="2">  1       -2 0.64626364E-01 0.81274347E+03</pdfrwt>
<totfact> 0.11776069E+01</totfact>
</mgrwt>
</event>
<event>
 4    1  0.7280516E-007  0.8954402E+03  0.7818608E-02  0.9533392E-01
         -2   -1    0    0    0  501 -0.00000000000E+00  0.00000000000E+00  0.13536231615E+04  0.13536231615E+04  0.25500000000E-02 0.  1.
          2   -1    0    0  501    0  0.00000000000E+00 -0.00000000000E+00 -0.55665993112E+03  0.55665993113E+03  0.25500000000E-02 0. -1.
    8880023    1    1    2    0    0  0.60630956838E+03 -0.19789179253E+02  0.90758800178E+03  0.12749623883E+04  0.65864270000E+03 0.  0.
    8880022    1    1    2    0    0 -0.60630956838E+03  0.19789179253E+02 -0.11062477138E+03  0.63532070436E+03  0.15294330000E+03 0.  0.
<mgrwt>
<rscale>  0 0.81866134E+03</rscale>
<asrwt>0</asrwt>
<pdfrwt beam="1">  1        2 0.85639990E-01 0.89544018E+03</pdfrwt>
<pdfrwt beam="2">  1       -2 0.20824972E+00 0.89544018E+03</pdfrwt>
<totfact> 0.64106063E+00</totfact>
</mgrwt>
</event>
<event>
 4    1  0.7280516E-007  0.9283913E+03  0.7818608E-02  0.9481911E-01
         -2   -1    0    0    0  501 -0.00000000000E+00  0.00000000000E+00  0.30705873129E+03  0.30705873130E+03  0.25500000000E-02 0.  1.
          2   -1    0    0  501    0  0.00000000000E+00 -0.00000000000E+00 -0.39217406927E+04  0.39217406927E+04  0.25500000000E-02 0. -1.
    8880023    1    1    2    0    0 -0.54836997136E+03  0.35691822684E+03 -0.33983810747E+04  0.35229113502E+04  0.65864270000E+03 0. -1.
    8880022    1    1    2    0    0  0.54836997136E+03 -0.35691822684E+03 -0.21630088670E+03  0.70588807380E+03  0.15294330000E+03 0.  0.
<mgrwt>
<rscale>  0 0.85630711E+03</rscale>
<asrwt>0</asrwt>
<pdfrwt beam="1">  1        2 0.60334468E+00 0.92839133E+03</pdfrwt>
<pdfrwt beam="2">  1       -2 0.47239808E-01 0.92839133E+03</pdfrwt>
<totfact> 0.17884805E+00</totfact>
</mgrwt>
</event>
<event>
 4    1  0.7280516E-007  0.6883220E+03  0.7818608E-02  0.1004960E+00
          2   -1    0    0  501    0  0.00000000000E+00  0.00000000000E+00  0.26409117466E+04  0.26409117466E+04  0.25500000000E-02 0. -1.
         -2   -1    0    0    0  501 -0.00000000000E+00 -0.00000000000E+00 -0.12167431788E+03  0.12167431791E+03  0.25500000000E-02 0.  1.
    8880023    1    1    2    0    0  0.19970390482E+03  0.97662534671E+01  0.23744082055E+04  0.24721653590E+04  0.65864270000E+03 0. -1.
    8880022    1    1    2    0    0 -0.19970390482E+03 -0.97662534671E+01  0.14482922319E+03  0.29042070555E+03  0.15294330000E+03 0.  0.
<mgrwt>
<rscale>  0 0.53527640E+03</rscale>
<asrwt>0</asrwt>
<pdfrwt beam="1">  1        2 0.40629412E+00 0.68832204E+03</pdfrwt>
<pdfrwt beam="2">  1       -2 0.18719126E-01 0.68832204E+03</pdfrwt>
<totfact> 0.72548970E+01</totfact>
</mgrwt>
</event>
<event>
 4    1  0.7280516E-007  0.1168174E+04  0.7818608E-02  0.9188698E-01
         -2   -1    0    0    0  501 -0.00000000000E+00  0.00000000000E+00  0.16282593609E+04  0.16282593609E+04  0.25500000000E-02 0.  1.
          2   -1    0    0  501    0  0.00000000000E+00 -0.00000000000E+00 -0.97114472455E+03  0.97114472456E+03  0.25500000000E-02 0. -1.
    8880023    1    1    2    0    0  0.73083480911E+03 -0.62984155810E+03 -0.32670749490E+03  0.12129995466E+04  0.65864270000E+03 0.  0.
    8880022    1    1    2    0    0 -0.73083480911E+03  0.62984155810E+03  0.98382213124E+03  0.13864045389E+04  0.15294330000E+03 0.  0.
<mgrwt>
<rscale>  0 0.11170849E+04</rscale>
<asrwt>0</asrwt>
<pdfrwt beam="1">  1        2 0.14940688E+00 0.11681738E+04</pdfrwt>
<pdfrwt beam="2">  1       -2 0.25050144E+00 0.11681738E+04</pdfrwt>
<totfact> 0.16406863E+00</totfact>
</mgrwt>
</event>
<event>
 4    1  0.7280516E-007  0.6990864E+03  0.7818608E-02  0.1000101E+00
         -2   -1    0    0    0  501 -0.00000000000E+00  0.00000000000E+00  0.66576171787E+03  0.66576171788E+03  0.25500000000E-02 0.  1.
          2   -1    0    0  501    0  0.00000000000E+00 -0.00000000000E+00 -0.66050076418E+03  0.66050076418E+03  0.25500000000E-02 0. -1.
    8880023    1    1    2    0    0  0.10063829683E+03  0.21162114541E+03 -0.42121708703E+03  0.81617744189E+03  0.65864270000E+03 0.  0.
    8880022    1    1    2    0    0 -0.10063829683E+03 -0.21162114541E+03  0.42647804073E+03  0.51008504017E+03  0.15294330000E+03 0.  1.
<mgrwt>
<rscale>  0 0.55605864E+03</rscale>
<asrwt>0</asrwt>
<pdfrwt beam="1">  1        2 0.10161550E+00 0.69908639E+03</pdfrwt>
<pdfrwt beam="2">  1       -2 0.10242488E+00 0.69908639E+03</pdfrwt>
<totfact> 0.34981447E+01</totfact>
</mgrwt>
</event>
<event>
 4    1  0.7280516E-007  0.9212954E+03  0.7818608E-02  0.9492676E-01
          2   -1    0    0  501    0  0.00000000000E+00  0.00000000000E+00  0.82116544645E+03  0.82116544645E+03  0.25500000000E-02 0. -1.
         -2   -1    0    0    0  501 -0.00000000000E+00 -0.00000000000E+00 -0.14047304599E+04  0.14047304599E+04  0.25500000000E-02 0.  1.
    8880023    1    1    2    0    0  0.63847216142E+03 -0.85605260458E+02  0.42884070464E+03  0.10162133230E+04  0.65864270000E+03 0.  0.
    8880022    1    1    2    0    0 -0.63847216142E+03  0.85605260458E+02 -0.10124057180E+04  0.12096825834E+04  0.15294330000E+03 0.  0.
<mgrwt>
<rscale>  0 0.84825973E+03</rscale>
<asrwt>0</asrwt>
<pdfrwt beam="1">  1        2 0.12633315E+00 0.92129537E+03</pdfrwt>
<pdfrwt beam="2">  1       -2 0.21611238E+00 0.92129537E+03</pdfrwt>
<totfact> 0.34889946E+00</totfact>
</mgrwt>
</event>
<event>
 4    1  0.7280516E-007  0.1413578E+04  0.7818608E-02  0.8973204E-01
          2   -1    0    0  501    0  0.00000000000E+00  0.00000000000E+00  0.22396379728E+04  0.22396379728E+04  0.25500000000E-02 0. -1.
         -2   -1    0    0    0  501 -0.00000000000E+00 -0.00000000000E+00 -0.10474858825E+04  0.10474858825E+04  0.25500000000E-02 0.  1.
    8880023    1    1    2    0    0 -0.98095742376E+03 -0.77596007294E+03 -0.17905097485E+03  0.14248722609E+04  0.65864270000E+03 0. -1.
    8880022    1    1    2    0    0  0.98095742376E+03  0.77596007294E+03  0.13712030651E+04  0.18622515944E+04  0.15294330000E+03 0.  0.
<mgrwt>
<rscale>  0 0.13735316E+04</rscale>
<asrwt>0</asrwt>
<pdfrwt beam="1">  1        2 0.34455969E+00 0.14135776E+04</pdfrwt>
<pdfrwt beam="2">  1       -2 0.16115167E+00 0.14135776E+04</pdfrwt>
<totfact> 0.11523521E+00</totfact>
</mgrwt>
</event>
<event>
 4    1  0.7280516E-007  0.7245003E+03  0.7818608E-02  0.9907643E-01
         -2   -1    0    0    0  501 -0.00000000000E+00  0.00000000000E+00  0.36913189338E+03  0.36913189338E+03  0.25500000000E-02 0.  1.
          2   -1    0    0  501    0  0.00000000000E+00 -0.00000000000E+00 -0.11311457761E+04  0.11311457761E+04  0.25500000000E-02 0. -1.
    8880023    1    1    2    0    0  0.90634297092E+02 -0.28788168199E+03 -0.88188014588E+03  0.11413208298E+04  0.65864270000E+03 0.  0.
    8880022    1    1    2    0    0 -0.90634297092E+02  0.28788168199E+03  0.11986626320E+03  0.35895683961E+03  0.15294330000E+03 0.  0.
<mgrwt>
<rscale>  0 0.59892316E+03</rscale>
<asrwt>0</asrwt>
<pdfrwt beam="1">  1        2 0.17402243E+00 0.72450027E+03</pdfrwt>
<pdfrwt beam="2">  1       -2 0.56789522E-01 0.72450027E+03</pdfrwt>
<totfact> 0.61751243E+01</totfact>
</mgrwt>
</event>
<event>
 4    1  0.7280516E-007  0.6680866E+03  0.7818608E-02  0.1017073E+00
         -2   -1    0    0    0  501 -0.00000000000E+00  0.00000000000E+00  0.14985262310E+03  0.14985262312E+03  0.25500000000E-02 0.  1.
          2   -1    0    0  501    0  0.00000000000E+00 -0.00000000000E+00 -0.18179506694E+04  0.18179506694E+04  0.25500000000E-02 0. -1.
    8880023    1    1    2    0    0  0.53901466779E+02  0.98102524400E+02 -0.16467065460E+04  0.17770712220E+04  0.65864270000E+03 0.  0.
    8880022    1    1    2    0    0 -0.53901466779E+02 -0.98102524400E+02 -0.21391500359E+02  0.19073207050E+03  0.15294330000E+03 0.  1.
<mgrwt>
<rscale>  0 0.48757711E+03</rscale>
<asrwt>0</asrwt>
<pdfrwt beam="1">  1        2 0.27968470E+00 0.66808658E+03</pdfrwt>
<pdfrwt beam="2">  1       -2 0.23054251E-01 0.66808658E+03</pdfrwt>
<totfact> 0.14399537E+02</totfact>
</mgrwt>
</event>
<event>
 4    1  0.7280516E-007  0.6964959E+03  0.7818608E-02  0.1001206E+00
         -2   -1    0    0    0  501 -0.00000000000E+00  0.00000000000E+00  0.25938812130E+03  0.25938812131E+03  0.25500000000E-02 0.  1.
          2   -1    0    0  501    0  0.00000000000E+00 -0.00000000000E+00 -0.10651659138E+04  0.10651659138E+04  0.25500000000E-02 0. -1.
    8880023    1    1    2    0    0  0.45878071949E+02  0.22179158285E+03 -0.78652662160E+03  0.10505858539E+04  0.65864270000E+03 0. -1.
    8880022    1    1    2    0    0 -0.45878071949E+02 -0.22179158285E+03 -0.19251170909E+02  0.27396818119E+03  0.15294330000E+03 0.  0.
<mgrwt>
<rscale>  0 0.55124573E+03</rscale>
<asrwt>0</asrwt>
<pdfrwt beam="1">  1        2 0.16387168E+00 0.69649588E+03</pdfrwt>
<pdfrwt beam="2">  1       -2 0.39905865E-01 0.69649588E+03</pdfrwt>
<totfact> 0.13829375E+02</totfact>
</mgrwt>
</event>
<event>
 4    1  0.7280516E-007  0.7199982E+03  0.7818608E-02  0.9922592E-01
         -2   -1    0    0    0  501 -0.00000000000E+00  0.00000000000E+00  0.66174921686E+03  0.66174921686E+03  0.25500000000E-02 0.  1.
          2   -1    0    0  501    0  0.00000000000E+00 -0.00000000000E+00 -0.10648822628E+04  0.10648822628E+04  0.25500000000E-02 0. -1.
    8880023    1    1    2    0    0 -0.23703508989E+03  0.16852744252E+03 -0.88655996784E+03  0.11420971568E+04  0.65864270000E+03 0. -1.
    8880022    1    1    2    0    0  0.23703508989E+03 -0.16852744252E+03  0.48342692192E+03  0.58453432284E+03  0.15294330000E+03 0.  0.
<mgrwt>
<rscale>  0 0.59178757E+03</rscale>
<asrwt>0</asrwt>
<pdfrwt beam="1">  1        2 0.16382804E+00 0.71999815E+03</pdfrwt>
<pdfrwt beam="2">  1       -2 0.10180757E+00 0.71999815E+03</pdfrwt>
<totfact> 0.18509551E+01</totfact>
</mgrwt>
</event>
<event>
 4    1  0.7280516E-007  0.7451838E+03  0.7818608E-02  0.9845096E-01
         -2   -1    0    0    0  501 -0.00000000000E+00  0.00000000000E+00  0.50535773385E+03  0.50535773386E+03  0.25500000000E-02 0.  1.
          2   -1    0    0  501    0  0.00000000000E+00 -0.00000000000E+00 -0.75524269913E+03  0.75524269913E+03  0.25500000000E-02 0. -1.
    8880023    1    1    2    0    0 -0.13377643327E+02 -0.34829538867E+03 -0.40668704669E+03  0.84893651077E+03  0.65864270000E+03 0. -1.
    8880022    1    1    2    0    0  0.13377643327E+02  0.34829538867E+03  0.15680208142E+03  0.41166392222E+03  0.15294330000E+03 0.  0.
<mgrwt>
<rscale>  0 0.62997556E+03</rscale>
<asrwt>0</asrwt>
<pdfrwt beam="1">  1        2 0.11619119E+00 0.74518377E+03</pdfrwt>
<pdfrwt beam="2">  1       -2 0.77747343E-01 0.74518377E+03</pdfrwt>
<totfact> 0.55511457E+01</totfact>
</mgrwt>
</event>
<event>
 4    1  0.7280516E-007  0.1039128E+04  0.7818608E-02  0.9332067E-01
          2   -1    0    0  501    0  0.00000000000E+00  0.00000000000E+00  0.22182853550E+04  0.22182853550E+04  0.25500000000E-02 0. -1.
         -2   -1    0    0    0  501 -0.00000000000E+00 -0.00000000000E+00 -0.51181427100E+03  0.51181427101E+03  0.25500000000E-02 0.  1.
    8880023    1    1    2    0    0  0.14482066098E+03 -0.79057170481E+03  0.15960803844E+04  0.19045365431E+04  0.65864270000E+03 0.  0.
    8880022    1    1    2    0    0 -0.14482066098E+03  0.79057170481E+03  0.11039069960E+03  0.82556308291E+03  0.15294330000E+03 0.  0.
<mgrwt>
<rscale>  0 0.97883594E+03</rscale>
<asrwt>0</asrwt>
<pdfrwt beam="1">  1        2 0.34127467E+00 0.10391279E+04</pdfrwt>
<pdfrwt beam="2">  1       -2 0.78740657E-01 0.10391279E+04</pdfrwt>
<totfact> 0.72290237E+00</totfact>
</mgrwt>
</event>
<event>
 4    1  0.7280516E-007  0.8160332E+03  0.7818608E-02  0.9677144E-01
          2   -1    0    0  501    0  0.00000000000E+00  0.00000000000E+00  0.91403130599E+03  0.91403130600E+03  0.25500000000E-02 0. -1.
         -2   -1    0    0    0  501 -0.00000000000E+00 -0.00000000000E+00 -0.75070368532E+03  0.75070368533E+03  0.25500000000E-02 0.  1.
    8880023    1    1    2    0    0 -0.27283075679E+03  0.39706844951E+03  0.58697668154E+03  0.10052123191E+04  0.65864270000E+03 0.  0.
    8880022    1    1    2    0    0  0.27283075679E+03 -0.39706844951E+03 -0.42364906087E+03  0.65952267227E+03  0.15294330000E+03 0.  0.
<mgrwt>
<rscale>  0 0.72394064E+03</rscale>
<asrwt>0</asrwt>
<pdfrwt beam="1">  1        2 0.14062020E+00 0.81603320E+03</pdfrwt>
<pdfrwt beam="2">  1       -2 0.11549287E+00 0.81603320E+03</pdfrwt>
<totfact> 0.16892204E+01</totfact>
</mgrwt>
</event>
<event>
 4    1  0.7280516E-007  0.1562920E+04  0.7818608E-02  0.8866438E-01
         -2   -1    0    0    0  501 -0.00000000000E+00  0.00000000000E+00  0.19525848191E+04  0.19525848191E+04  0.25500000000E-02 0.  1.
          2   -1    0    0  501    0  0.00000000000E+00 -0.00000000000E+00 -0.15964238887E+04  0.15964238887E+04  0.25500000000E-02 0. -1.
    8880023    1    1    2    0    0  0.13505258970E+04  0.43010117272E+03 -0.76051838032E+03  0.17381328000E+04  0.65864270000E+03 0.  0.
    8880022    1    1    2    0    0 -0.13505258970E+04 -0.43010117272E+03  0.11166793108E+04  0.18108759078E+04  0.15294330000E+03 0.  0.
<mgrwt>
<rscale>  0 0.15273934E+04</rscale>
<asrwt>0</asrwt>
<pdfrwt beam="1">  1        2 0.24560368E+00 0.15629195E+04</pdfrwt>
<pdfrwt beam="2">  1       -2 0.30039766E+00 0.15629195E+04</pdfrwt>
<totfact> 0.33063189E-01</totfact>
</mgrwt>
</event>
<event>
 4    1  0.7280516E-007  0.1068626E+04  0.7818608E-02  0.9296819E-01
         -2   -1    0    0    0  501 -0.00000000000E+00  0.00000000000E+00  0.54263866937E+03  0.54263866938E+03  0.25500000000E-02 0.  1.
          2   -1    0    0  501    0  0.00000000000E+00 -0.00000000000E+00 -0.24292408877E+04  0.24292408877E+04  0.25500000000E-02 0. -1.
    8880023    1    1    2    0    0 -0.76214927708E+03  0.35676186062E+03 -0.18243837671E+04  0.21143171194E+04  0.65864270000E+03 0. -1.
    8880022    1    1    2    0    0  0.76214927708E+03 -0.35676186062E+03 -0.62218451251E+02  0.85756243763E+03  0.15294330000E+03 0.  0.
<mgrwt>
<rscale>  0 0.10107625E+04</rscale>
<asrwt>0</asrwt>
<pdfrwt beam="1">  1        2 0.37372936E+00 0.10686256E+04</pdfrwt>
<pdfrwt beam="2">  1       -2 0.83482873E-01 0.10686256E+04</pdfrwt>
<totfact> 0.48006499E+00</totfact>
</mgrwt>
</event>
<event>
 4    1  0.7280516E-007  0.8032856E+03  0.7818608E-02  0.9703736E-01
          2   -1    0    0  501    0  0.00000000000E+00  0.00000000000E+00  0.23198233085E+04  0.23198233085E+04  0.25500000000E-02 0. -1.
         -2   -1    0    0    0  501 -0.00000000000E+00 -0.00000000000E+00 -0.41860825265E+03  0.41860825266E+03  0.25500000000E-02 0.  1.
    8880023    1    1    2    0    0  0.35049544954E+03 -0.29767510471E+03  0.20738503215E+04  0.22239880598E+04  0.65864270000E+03 0. -1.
    8880022    1    1    2    0    0 -0.35049544954E+03  0.29767510471E+03 -0.17263526562E+03  0.51444350133E+03  0.15294330000E+03 0.  0.
<mgrwt>
<rscale>  0 0.70794760E+03</rscale>
<asrwt>0</asrwt>
<pdfrwt beam="1">  1        2 0.35689589E+00 0.80328559E+03</pdfrwt>
<pdfrwt beam="2">  1       -2 0.64401270E-01 0.80328559E+03</pdfrwt>
<totfact> 0.10181944E+01</totfact>
</mgrwt>
</event>
<event>
 4    1  0.7280516E-007  0.6919390E+03  0.7818608E-02  0.1003244E+00
         -2   -1    0    0    0  501 -0.00000000000E+00  0.00000000000E+00  0.21481752908E+03  0.21481752910E+03  0.25500000000E-02 0.  1.
          2   -1    0    0  501    0  0.00000000000E+00 -0.00000000000E+00 -0.22993971184E+04  0.22993971184E+04  0.25500000000E-02 0. -1.
    8880023    1    1    2    0    0 -0.17810867591E+03 -0.11509399554E+03 -0.21381497915E+04  0.22473237563E+04  0.65864270000E+03 0. -1.
    8880022    1    1    2    0    0  0.17810867591E+03  0.11509399554E+03  0.53570202201E+02  0.26689089123E+03  0.15294330000E+03 0.  0.
<mgrwt>
<rscale>  0 0.54250267E+03</rscale>
<asrwt>0</asrwt>
<pdfrwt beam="1">  1        2 0.35375339E+00 0.69193897E+03</pdfrwt>
<pdfrwt beam="2">  1       -2 0.33048852E-01 0.69193897E+03</pdfrwt>
<totfact> 0.40536746E+01</totfact>
</mgrwt>
</event>
<event>
 4    1  0.7280516E-007  0.8604642E+03  0.7818608E-02  0.9592738E-01
          2   -1    0    0  501    0  0.00000000000E+00  0.00000000000E+00  0.19109781690E+04  0.19109781690E+04  0.25500000000E-02 0. -1.
         -2   -1    0    0    0  501 -0.00000000000E+00 -0.00000000000E+00 -0.36980239676E+03  0.36980239676E+03  0.25500000000E-02 0.  1.
    8880023    1    1    2    0    0  0.50321246938E+03 -0.23101010269E+03  0.14681431297E+04  0.17017176359E+04  0.65864270000E+03 0. -1.
    8880022    1    1    2    0    0 -0.50321246938E+03  0.23101010269E+03  0.73032642614E+02  0.57906292990E+03  0.15294330000E+03 0.  0.
<mgrwt>
<rscale>  0 0.77778682E+03</rscale>
<asrwt>0</asrwt>
<pdfrwt beam="1">  1        2 0.29399664E+00 0.86046421E+03</pdfrwt>
<pdfrwt beam="2">  1       -2 0.56892677E-01 0.86046421E+03</pdfrwt>
<totfact> 0.22074466E+01</totfact>
</mgrwt>
</event>
<event>
 4    1  0.7280516E-007  0.8141600E+03  0.7818608E-02  0.9680976E-01
          2   -1    0    0  501    0  0.00000000000E+00  0.00000000000E+00  0.22448310114E+04  0.22448310114E+04  0.25500000000E-02 0. -1.
         -2   -1    0    0    0  501 -0.00000000000E+00 -0.00000000000E+00 -0.25824059796E+03  0.25824059798E+03  0.25500000000E-02 0.  1.
    8880023    1    1    2    0    0  0.19119022221E+03  0.43873984234E+03  0.17846246620E+04  0.19615661449E+04  0.65864270000E+03 0.  0.
    8880022    1    1    2    0    0 -0.19119022221E+03 -0.43873984234E+03  0.20196575148E+03  0.54150546452E+03  0.15294330000E+03 0.  0.
<mgrwt>
<rscale>  0 0.72160856E+03</rscale>
<asrwt>0</asrwt>
<pdfrwt beam="1">  1        2 0.34535862E+00 0.81416003E+03</pdfrwt>
<pdfrwt beam="2">  1       -2 0.39729322E-01 0.81416003E+03</pdfrwt>
<totfact> 0.30042819E+01</totfact>
</mgrwt>
</event>
<event>
 4    1  0.7280516E-007  0.6809358E+03  0.7818608E-02  0.1008799E+00
          2   -1    0    0  501    0  0.00000000000E+00  0.00000000000E+00  0.25251836880E+04  0.25251836880E+04  0.25500000000E-02 0. -1.
         -2   -1    0    0    0  501 -0.00000000000E+00 -0.00000000000E+00 -0.25889972501E+03  0.25889972502E+03  0.25500000000E-02 0.  1.
    8880023    1    1    2    0    0 -0.16015771567E+03  0.64906284453E+02  0.24152538516E+04  0.25094072394E+04  0.65864270000E+03 0. -1.
    8880022    1    1    2    0    0  0.16015771567E+03 -0.64906284453E+02 -0.14896988852E+03  0.27467617362E+03  0.15294330000E+03 0.  0.
<mgrwt>
<rscale>  0 0.51954675E+03</rscale>
<asrwt>0</asrwt>
<pdfrwt beam="1">  1        2 0.38848981E+00 0.68093577E+03</pdfrwt>
<pdfrwt beam="2">  1       -2 0.39830725E-01 0.68093577E+03</pdfrwt>
<totfact> 0.21231498E+01</totfact>
</mgrwt>
</event>
<event>
 4    1  0.7280516E-007  0.7873561E+03  0.7818608E-02  0.9738833E-01
         -2   -1    0    0    0  501 -0.00000000000E+00  0.00000000000E+00  0.11660861422E+04  0.11660861422E+04  0.25500000000E-02 0.  1.
          2   -1    0    0  501    0  0.00000000000E+00 -0.00000000000E+00 -0.83607904811E+03  0.83607904811E+03  0.25500000000E-02 0. -1.
    8880023    1    1    2    0    0  0.92265455494E+02 -0.42143396435E+03 -0.58376712126E+03  0.98016006790E+03  0.65864270000E+03 0.  0.
    8880022    1    1    2    0    0 -0.92265455494E+02  0.42143396435E+03  0.91377421533E+03  0.10220051224E+04  0.15294330000E+03 0.  0.
<mgrwt>
<rscale>  0 0.68751046E+03</rscale>
<asrwt>0</asrwt>
<pdfrwt beam="1">  1        2 0.12862755E+00 0.78735615E+03</pdfrwt>
<pdfrwt beam="2">  1       -2 0.17939787E+00 0.78735615E+03</pdfrwt>
<totfact> 0.60300745E+00</totfact>
</mgrwt>
</event>
<event>
 4    1  0.7280516E-007  0.7988462E+03  0.7818608E-02  0.9713296E-01
         -2   -1    0    0    0  501 -0.00000000000E+00  0.00000000000E+00  0.13683767556E+03  0.13683767558E+03  0.25500000000E-02 0.  1.
          2   -1    0    0  501    0  0.00000000000E+00 -0.00000000000E+00 -0.32101470605E+04  0.32101470605E+04  0.25500000000E-02 0. -1.
    8880023    1    1    2    0    0 -0.18777765413E+03  0.41119894076E+03 -0.23350323889E+04  0.24679002167E+04  0.65864270000E+03 0.  0.
    8880022    1    1    2    0    0  0.18777765413E+03 -0.41119894076E+03 -0.73827699612E+03  0.87908451943E+03  0.15294330000E+03 0.  0.
<mgrwt>
<rscale>  0 0.70230619E+03</rscale>
<asrwt>0</asrwt>
<pdfrwt beam="1">  1        2 0.49386872E+00 0.79884618E+03</pdfrwt>
<pdfrwt beam="2">  1       -2 0.21051953E-01 0.79884618E+03</pdfrwt>
<totfact> 0.26311373E+01</totfact>
</mgrwt>
</event>
<event>
 4    1  0.7280516E-007  0.6892911E+03  0.7818608E-02  0.1004491E+00
          2   -1    0    0  501    0  0.00000000000E+00  0.00000000000E+00  0.55918744285E+03  0.55918744285E+03  0.25500000000E-02 0. -1.
         -2   -1    0    0    0  501 -0.00000000000E+00 -0.00000000000E+00 -0.68583710670E+03  0.68583710671E+03  0.25500000000E-02 0.  1.
    8880023    1    1    2    0    0  0.12603869365E+03  0.15945622075E+03  0.29725701239E+03  0.75065569758E+03  0.65864270000E+03 0.  0.
    8880022    1    1    2    0    0 -0.12603869365E+03 -0.15945622075E+03 -0.42390667624E+03  0.49436885198E+03  0.15294330000E+03 0.  0.
<mgrwt>
<rscale>  0 0.53723976E+03</rscale>
<asrwt>0</asrwt>
<pdfrwt beam="1">  1        2 0.86028837E-01 0.68929112E+03</pdfrwt>
<pdfrwt beam="2">  1       -2 0.10551340E+00 0.68929112E+03</pdfrwt>
<totfact> 0.39882681E+01</totfact>
</mgrwt>
</event>
<event>
 4    1  0.7280516E-007  0.7100064E+03  0.7818608E-02  0.9957977E-01
          2   -1    0    0  501    0  0.00000000000E+00  0.00000000000E+00  0.15237088412E+04  0.15237088412E+04  0.25500000000E-02 0. -1.
         -2   -1    0    0    0  501 -0.00000000000E+00 -0.00000000000E+00 -0.64532053830E+03  0.64532053830E+03  0.25500000000E-02 0.  1.
    8880023    1    1    2    0    0  0.19568492143E+03  0.17890314756E+03  0.13968591196E+04  0.15669475201E+04  0.65864270000E+03 0. -1.
    8880022    1    1    2    0    0 -0.19568492143E+03 -0.17890314756E+03 -0.51847081664E+03  0.60208185939E+03  0.15294330000E+03 0.  0.
<mgrwt>
<rscale>  0 0.57531898E+03</rscale>
<asrwt>0</asrwt>
<pdfrwt beam="1">  1        2 0.23441675E+00 0.71000643E+03</pdfrwt>
<pdfrwt beam="2">  1       -2 0.99280082E-01 0.71000643E+03</pdfrwt>
<totfact> 0.10660575E+01</totfact>
</mgrwt>
</event>
<event>
 4    1  0.7280516E-007  0.7286159E+03  0.7818608E-02  0.9894443E-01
          2   -1    0    0  501    0  0.00000000000E+00  0.00000000000E+00  0.10580341516E+04  0.10580341516E+04  0.25500000000E-02 0. -1.
         -2   -1    0    0    0  501 -0.00000000000E+00 -0.00000000000E+00 -0.46686628649E+03  0.46686628650E+03  0.25500000000E-02 0.  1.
    8880023    1    1    2    0    0 -0.31151277020E+03 -0.55460252199E+01  0.82935637775E+03  0.11039534284E+04  0.65864270000E+03 0.  0.
    8880022    1    1    2    0    0  0.31151277020E+03  0.55460252199E+01 -0.23818851268E+03  0.42094700971E+03  0.15294330000E+03 0.  1.
<mgrwt>
<rscale>  0 0.60531374E+03</rscale>
<asrwt>0</asrwt>
<pdfrwt beam="1">  1        2 0.16277448E+00 0.72861593E+03</pdfrwt>
<pdfrwt beam="2">  1       -2 0.71825583E-01 0.72861593E+03</pdfrwt>
<totfact> 0.41400517E+01</totfact>
</mgrwt>
</event>
<event>
 4    1  0.7280516E-007  0.8876882E+03  0.7818608E-02  0.9546092E-01
         -2   -1    0    0    0  501 -0.00000000000E+00  0.00000000000E+00  0.31382669524E+03  0.31382669525E+03  0.25500000000E-02 0.  1.
          2   -1    0    0  501    0  0.00000000000E+00 -0.00000000000E+00 -0.30403801569E+04  0.30403801569E+04  0.25500000000E-02 0. -1.
    8880023    1    1    2    0    0  0.36530708109E+03  0.46982003259E+03 -0.25716031545E+04  0.27205023648E+04  0.65864270000E+03 0. -1.
    8880022    1    1    2    0    0 -0.36530708109E+03 -0.46982003259E+03 -0.15495030711E+03  0.63370448729E+03  0.15294330000E+03 0.  0.
<mgrwt>
<rscale>  0 0.80969279E+03</rscale>
<asrwt>0</asrwt>
<pdfrwt beam="1">  1        2 0.46775077E+00 0.88768820E+03</pdfrwt>
<pdfrwt beam="2">  1       -2 0.48281032E-01 0.88768820E+03</pdfrwt>
<totfact> 0.69481227E+00</totfact>
</mgrwt>
</event>
<event>
 4    1  0.7280516E-007  0.7954572E+03  0.7818608E-02  0.9720706E-01
         -2   -1    0    0    0  501 -0.00000000000E+00  0.00000000000E+00  0.41651200559E+03  0.41651200560E+03  0.25500000000E-02 0.  1.
          2   -1    0    0  501    0  0.00000000000E+00 -0.00000000000E+00 -0.12856590631E+04  0.12856590631E+04  0.25500000000E-02 0. -1.
    8880023    1    1    2    0    0  0.34192066980E+02 -0.44471663023E+03 -0.93330957194E+03  0.12263029568E+04  0.65864270000E+03 0.  0.
    8880022    1    1    2    0    0 -0.34192066980E+02  0.44471663023E+03  0.64162514387E+02  0.47586811189E+03  0.15294330000E+03 0.  0.
<mgrwt>
<rscale>  0 0.69797243E+03</rscale>
<asrwt>0</asrwt>
<pdfrwt beam="1">  1        2 0.19779370E+00 0.79545722E+03</pdfrwt>
<pdfrwt beam="2">  1       -2 0.64078771E-01 0.79545722E+03</pdfrwt>
<totfact> 0.38504030E+01</totfact>
</mgrwt>
</event>
<event>
 4    1  0.7280516E-007  0.9828909E+03  0.7818608E-02  0.9404292E-01
          2   -1    0    0  501    0  0.00000000000E+00  0.00000000000E+00  0.27180872361E+04  0.27180872361E+04  0.25500000000E-02 0. -1.
         -2   -1    0    0    0  501 -0.00000000000E+00 -0.00000000000E+00 -0.31538618706E+03  0.31538618707E+03  0.25500000000E-02 0.  1.
    8880023    1    1    2    0    0  0.71470615645E+03 -0.14649032020E+03  0.18851459072E+04  0.21259937915E+04  0.65864270000E+03 0.  1.
    8880022    1    1    2    0    0 -0.71470615645E+03  0.14649032020E+03  0.51755514188E+03  0.90747963166E+03  0.15294330000E+03 0.  0.
<mgrwt>
<rscale>  0 0.91723313E+03</rscale>
<asrwt>0</asrwt>
<pdfrwt beam="1">  1        2 0.41816725E+00 0.98289089E+03</pdfrwt>
<pdfrwt beam="2">  1       -2 0.48520954E-01 0.98289089E+03</pdfrwt>
<totfact> 0.10617166E+01</totfact>
</mgrwt>
</event>
<event>
 4    1  0.7280516E-007  0.7133414E+03  0.7818608E-02  0.9945796E-01
         -2   -1    0    0    0  501 -0.00000000000E+00  0.00000000000E+00  0.19578720304E+03  0.19578720306E+03  0.25500000000E-02 0.  1.
          2   -1    0    0  501    0  0.00000000000E+00 -0.00000000000E+00 -0.35564660930E+04  0.35564660930E+04  0.25500000000E-02 0. -1.
    8880023    1    1    2    0    0  0.11303268666E+03 -0.24953836281E+03 -0.33636836666E+04  0.34384915003E+04  0.65864270000E+03 0.  0.
    8880022    1    1    2    0    0 -0.11303268666E+03  0.24953836281E+03  0.30047766156E+01  0.31376179574E+03  0.15294330000E+03 0.  1.
<mgrwt>
<rscale>  0 0.58092240E+03</rscale>
<asrwt>0</asrwt>
<pdfrwt beam="1">  1        2 0.54714858E+00 0.71334143E+03</pdfrwt>
<pdfrwt beam="2">  1       -2 0.30121111E-01 0.71334143E+03</pdfrwt>
<totfact> 0.82336795E+00</totfact>
</mgrwt>
</event>
<event>
 4    1  0.7280516E-007  0.7385321E+03  0.7818608E-02  0.9864244E-01
          2   -1    0    0  501    0  0.00000000000E+00  0.00000000000E+00  0.98269226723E+03  0.98269226724E+03  0.25500000000E-02 0. -1.
         -2   -1    0    0    0  501 -0.00000000000E+00 -0.00000000000E+00 -0.58912465424E+03  0.58912465424E+03  0.25500000000E-02 0.  1.
    8880023    1    1    2    0    0  0.32191220032E+03 -0.89397941334E+02  0.75518284146E+03  0.10562815851E+04  0.65864270000E+03 0.  0.
    8880022    1    1    2    0    0 -0.32191220032E+03  0.89397941334E+02 -0.36161522846E+03  0.51553533642E+03  0.15294330000E+03 0.  0.
<mgrwt>
<rscale>  0 0.62025921E+03</rscale>
<asrwt>0</asrwt>
<pdfrwt beam="1">  1        2 0.15118343E+00 0.73853210E+03</pdfrwt>
<pdfrwt beam="2">  1       -2 0.90634562E-01 0.73853210E+03</pdfrwt>
<totfact> 0.27335626E+01</totfact>
</mgrwt>
</event>
<event>
 4    1  0.7280516E-007  0.9155026E+03  0.7818608E-02  0.9501590E-01
         -2   -1    0    0    0  501 -0.00000000000E+00  0.00000000000E+00  0.48256464854E+03  0.48256464855E+03  0.25500000000E-02 0.  1.
          2   -1    0    0  501    0  0.00000000000E+00 -0.00000000000E+00 -0.15829108728E+04  0.15829108728E+04  0.25500000000E-02 0. -1.
    8880023    1    1    2    0    0 -0.87300781116E+02  0.62985191718E+03 -0.10735682478E+04  0.14109195062E+04  0.65864270000E+03 0.  0.
    8880022    1    1    2    0    0  0.87300781116E+02 -0.62985191718E+03 -0.26777976461E+02  0.65455601517E+03  0.15294330000E+03 0.  0.
<mgrwt>
<rscale>  0 0.84166733E+03</rscale>
<asrwt>0</asrwt>
<pdfrwt beam="1">  1        2 0.24352475E+00 0.91550263E+03</pdfrwt>
<pdfrwt beam="2">  1       -2 0.74240716E-01 0.91550263E+03</pdfrwt>
<totfact> 0.18740593E+01</totfact>
</mgrwt>
</event>
<event>
 4    1  0.7280516E-007  0.7768369E+03  0.7818608E-02  0.9763320E-01
          2   -1    0    0  501    0  0.00000000000E+00  0.00000000000E+00  0.90991731491E+03  0.90991731491E+03  0.25500000000E-02 0. -1.
         -2   -1    0    0    0  501 -0.00000000000E+00 -0.00000000000E+00 -0.98750135240E+03  0.98750135240E+03  0.25500000000E-02 0.  1.
    8880023    1    1    2    0    0  0.17836260448E+03 -0.37128443426E+03  0.67291529640E+03  0.10277599682E+04  0.65864270000E+03 0.  0.
    8880022    1    1    2    0    0 -0.17836260448E+03  0.37128443426E+03 -0.75049933389E+03  0.86965869914E+03  0.15294330000E+03 0.  0.
<mgrwt>
<rscale>  0 0.67368686E+03</rscale>
<asrwt>0</asrwt>
<pdfrwt beam="1">  1        2 0.13998728E+00 0.77683689E+03</pdfrwt>
<pdfrwt beam="2">  1       -2 0.15192329E+00 0.77683689E+03</pdfrwt>
<totfact> 0.84819321E+00</totfact>
</mgrwt>
</event>
<event>
 4    1  0.7280516E-007  0.7928969E+03  0.7818608E-02  0.9726370E-01
         -2   -1    0    0    0  501 -0.00000000000E+00  0.00000000000E+00  0.20290898848E+03  0.20290898849E+03  0.25500000000E-02 0.  1.
          2   -1    0    0  501    0  0.00000000000E+00 -0.00000000000E+00 -0.29571323283E+04  0.29571323283E+04  0.25500000000E-02 0. -1.
    8880023    1    1    2    0    0 -0.82608418308E+02  0.43364859338E+03 -0.25112400474E+04  0.26334411016E+04  0.65864270000E+03 0. -1.
    8880022    1    1    2    0    0  0.82608418308E+02 -0.43364859338E+03 -0.24298329244E+03  0.52660021528E+03  0.15294330000E+03 0.  0.
<mgrwt>
<rscale>  0 0.69468195E+03</rscale>
<asrwt>0</asrwt>
<pdfrwt beam="1">  1        2 0.45494340E+00 0.79289688E+03</pdfrwt>
<pdfrwt beam="2">  1       -2 0.31216770E-01 0.79289688E+03</pdfrwt>
<totfact> 0.18524569E+01</totfact>
</mgrwt>
</event>
<event>
 4    1  0.7280516E-007  0.6717846E+03  0.7818608E-02  0.1014415E+00
          2   -1    0    0  501    0  0.00000000000E+00  0.00000000000E+00  0.17358789619E+04  0.17358789619E+04  0.25500000000E-02 0. -1.
         -2   -1    0    0    0  501 -0.00000000000E+00 -0.00000000000E+00 -0.43229851692E+03  0.43229851693E+03  0.25500000000E-02 0.  1.
    8880023    1    1    2    0    0  0.12880726723E+03  0.29883021312E+02  0.16419197529E+04  0.17740335364E+04  0.65864270000E+03 0. -1.
    8880022    1    1    2    0    0 -0.12880726723E+03 -0.29883021312E+02 -0.33833930793E+03  0.39414394243E+03  0.15294330000E+03 0.  0.
<mgrwt>
<rscale>  0 0.49757209E+03</rscale>
<asrwt>0</asrwt>
<pdfrwt beam="1">  1        2 0.26705830E+00 0.67178457E+03</pdfrwt>
<pdfrwt beam="2">  1       -2 0.66507464E-01 0.67178457E+03</pdfrwt>
<totfact> 0.20231978E+01</totfact>
</mgrwt>
</event>
<event>
 4    1  0.7280516E-007  0.1005908E+04  0.7818608E-02  0.9373869E-01
         -2   -1    0    0    0  501 -0.00000000000E+00  0.00000000000E+00  0.12301623638E+04  0.12301623638E+04  0.25500000000E-02 0.  1.
          2   -1    0    0  501    0  0.00000000000E+00 -0.00000000000E+00 -0.82693257488E+03  0.82693257488E+03  0.25500000000E-02 0. -1.
    8880023    1    1    2    0    0  0.26023354709E+03  0.71436595472E+03 -0.25742297794E+03  0.10383241364E+04  0.65864270000E+03 0.  0.
    8880022    1    1    2    0    0 -0.26023354709E+03 -0.71436595472E+03  0.66065276687E+03  0.10187708023E+04  0.15294330000E+03 0.  0.
<mgrwt>
<rscale>  0 0.94257719E+03</rscale>
<asrwt>0</asrwt>
<pdfrwt beam="1">  1        2 0.12722040E+00 0.10059078E+04</pdfrwt>
<pdfrwt beam="2">  1       -2 0.18925575E+00 0.10059078E+04</pdfrwt>
<totfact> 0.51229681E+00</totfact>
</mgrwt>
</event>
<event>
 4    1  0.7280516E-007  0.8909054E+03  0.7818608E-02  0.9540792E-01
         -2   -1    0    0    0  501 -0.00000000000E+00  0.00000000000E+00  0.76797874211E+03  0.76797874211E+03  0.25500000000E-02 0.  1.
          2   -1    0    0  501    0  0.00000000000E+00 -0.00000000000E+00 -0.12537953865E+04  0.12537953865E+04  0.25500000000E-02 0. -1.
    8880023    1    1    2    0    0  0.48872094611E+03  0.34792813067E+03 -0.90826910131E+03  0.12722677053E+04  0.65864270000E+03 0. -1.
    8880022    1    1    2    0    0 -0.48872094611E+03 -0.34792813067E+03  0.42245245689E+03  0.74950642334E+03  0.15294330000E+03 0.  0.
<mgrwt>
<rscale>  0 0.81342057E+03</rscale>
<asrwt>0</asrwt>
<pdfrwt beam="1">  1        2 0.19289160E+00 0.89090536E+03</pdfrwt>
<pdfrwt beam="2">  1       -2 0.11815058E+00 0.89090536E+03</pdfrwt>
<totfact> 0.97488604E+00</totfact>
</mgrwt>
</event>
<event>
 4    1  0.7280516E-007  0.7069314E+03  0.7818608E-02  0.9969578E-01
         -2   -1    0    0    0  501 -0.00000000000E+00  0.00000000000E+00  0.23482051015E+03  0.23482051016E+03  0.25500000000E-02 0.  1.
          2   -1    0    0  501    0  0.00000000000E+00 -0.00000000000E+00 -0.24318924046E+04  0.24318924046E+04  0.25500000000E-02 0. -1.
    8880023    1    1    2    0    0 -0.19583638838E+03 -0.16610189556E+03 -0.22541697393E+04  0.23624210358E+04  0.65864270000E+03 0. -1.
    8880022    1    1    2    0    0  0.19583638838E+03  0.16610189556E+03  0.57097844797E+02  0.30429187898E+03  0.15294330000E+03 0.  0.
<mgrwt>
<rscale>  0 0.57004568E+03</rscale>
<asrwt>0</asrwt>
<pdfrwt beam="1">  1        2 0.37413727E+00 0.70693135E+03</pdfrwt>
<pdfrwt beam="2">  1       -2 0.36126234E-01 0.70693135E+03</pdfrwt>
<totfact> 0.28812733E+01</totfact>
</mgrwt>
</event>
<event>
 4    1  0.7280516E-007  0.7141523E+03  0.7818608E-02  0.9942893E-01
          2   -1    0    0  501    0  0.00000000000E+00  0.00000000000E+00  0.15484279884E+04  0.15484279884E+04  0.25500000000E-02 0. -1.
         -2   -1    0    0    0  501 -0.00000000000E+00 -0.00000000000E+00 -0.21216341116E+03  0.21216341117E+03  0.25500000000E-02 0.  1.
    8880023    1    1    2    0    0  0.24269089814E+03 -0.13154615757E+03  0.12394788662E+04  0.14304968821E+04  0.65864270000E+03 0. -1.
    8880022    1    1    2    0    0 -0.24269089814E+03  0.13154615757E+03  0.96785711062E+02  0.33009451752E+03  0.15294330000E+03 0.  0.
<mgrwt>
<rscale>  0 0.58226779E+03</rscale>
<asrwt>0</asrwt>
<pdfrwt beam="1">  1        2 0.23821969E+00 0.71415227E+03</pdfrwt>
<pdfrwt beam="2">  1       -2 0.32640524E-01 0.71415227E+03</pdfrwt>
<totfact> 0.10657471E+02</totfact>
</mgrwt>
</event>
<event>
 4    1  0.7280516E-007  0.7776086E+03  0.7818608E-02  0.9761485E-01
         -2   -1    0    0    0  501 -0.00000000000E+00  0.00000000000E+00  0.17060763386E+04  0.17060763386E+04  0.25500000000E-02 0.  1.
          2   -1    0    0  501    0  0.00000000000E+00 -0.00000000000E+00 -0.40152018675E+03  0.40152018676E+03  0.25500000000E-02 0. -1.
    8880023    1    1    2    0    0  0.19356597093E+01  0.41335361710E+03  0.51528719900E+02  0.77931404118E+03  0.65864270000E+03 0. -1.
    8880022    1    1    2    0    0 -0.19356597093E+01 -0.41335361710E+03  0.12530274319E+04  0.13282824842E+04  0.15294330000E+03 0.  0.
<mgrwt>
<rscale>  0 0.67471098E+03</rscale>
<asrwt>0</asrwt>
<pdfrwt beam="1">  1        2 0.61772336E-01 0.77760862E+03</pdfrwt>
<pdfrwt beam="2">  1       -2 0.26247329E+00 0.77760862E+03</pdfrwt>
<totfact> 0.43844084E+00</totfact>
</mgrwt>
</event>
<event>
 4    1  0.7280516E-007  0.1071411E+04  0.7818608E-02  0.9293574E-01
          2   -1    0    0  501    0  0.00000000000E+00  0.00000000000E+00  0.32543403982E+04  0.32543403982E+04  0.25500000000E-02 0. -1.
         -2   -1    0    0    0  501 -0.00000000000E+00 -0.00000000000E+00 -0.29934219183E+03  0.29934219184E+03  0.25500000000E-02 0.  1.
    8880023    1    1    2    0    0  0.76727012646E+03  0.35413097466E+03  0.12630573417E+04  0.16562717920E+04  0.65864270000E+03 0.  0.
    8880022    1    1    2    0    0 -0.76727012646E+03 -0.35413097466E+03  0.16919408646E+04  0.18974107981E+04  0.15294330000E+03 0.  0.
<mgrwt>
<rscale>  0 0.10137660E+04</rscale>
<asrwt>0</asrwt>
<pdfrwt beam="1">  1        2 0.50066778E+00 0.10714114E+04</pdfrwt>
<pdfrwt beam="2">  1       -2 0.46052643E-01 0.10714114E+04</pdfrwt>
<totfact> 0.54446688E+00</totfact>
</mgrwt>
</event>
<event>
 4    1  0.7280516E-007  0.6765321E+03  0.7818608E-02  0.1011357E+00
         -2   -1    0    0    0  501 -0.00000000000E+00  0.00000000000E+00  0.22411912666E+03  0.22411912668E+03  0.25500000000E-02 0.  1.
          2   -1    0    0  501    0  0.00000000000E+00 -0.00000000000E+00 -0.97933992388E+03  0.97933992389E+03  0.25500000000E-02 0. -1.
    8880023    1    1    2    0    0  0.12238358855E+03  0.94380469899E+02 -0.71126429714E+03  0.98162748662E+03  0.65864270000E+03 0.  0.
    8880022    1    1    2    0    0 -0.12238358855E+03 -0.94380469899E+02 -0.43956500081E+02  0.22183156394E+03  0.15294330000E+03 0.  0.
<mgrwt>
<rscale>  0 0.50938670E+03</rscale>
<asrwt>0</asrwt>
<pdfrwt beam="1">  1        2 0.15066768E+00 0.67653206E+03</pdfrwt>
<pdfrwt beam="2">  1       -2 0.34479866E-01 0.67653206E+03</pdfrwt>
<totfact> 0.20769286E+02</totfact>
</mgrwt>
</event>
<event>
 4    1  0.7280516E-007  0.7620838E+03  0.7818608E-02  0.9799742E-01
         -2   -1    0    0    0  501 -0.00000000000E+00  0.00000000000E+00  0.58655611371E+03  0.58655611372E+03  0.25500000000E-02 0.  1.
          2   -1    0    0  501    0  0.00000000000E+00 -0.00000000000E+00 -0.15474396251E+04  0.15474396251E+04  0.25500000000E-02 0. -1.
    8880023    1    1    2    0    0  0.35112071736E+03  0.15386916322E+03 -0.13605624230E+04  0.15594556071E+04  0.65864270000E+03 0. -1.
    8880022    1    1    2    0    0 -0.35112071736E+03 -0.15386916322E+03  0.39967891158E+03  0.57454013170E+03  0.15294330000E+03 0.  0.
<mgrwt>
<rscale>  0 0.65376370E+03</rscale>
<asrwt>0</asrwt>
<pdfrwt beam="1">  1        2 0.23806763E+00 0.76208378E+03</pdfrwt>
<pdfrwt beam="2">  1       -2 0.90239403E-01 0.76208378E+03</pdfrwt>
<totfact> 0.12833727E+01</totfact>
</mgrwt>
</event>
<event>
 4    1  0.8640371E-007  0.7826923E+03  0.7818608E-02  0.9749550E-01
          2   -1    0    0  501    0  0.00000000000E+00  0.00000000000E+00  0.10541225671E+04  0.10541225671E+04  0.25500000000E-02 0. -1.
         -2   -1    0    0    0  501 -0.00000000000E+00 -0.00000000000E+00 -0.18820053598E+04  0.18820053598E+04  0.25500000000E-02 0.  1.
    8880023    1    1    2    0    0  0.42079647384E+03  0.41562425650E+02  0.87552408166E+03  0.11743720584E+04  0.65864270000E+03 0.  0.
    8880022    1    1    2    0    0 -0.42079647384E+03 -0.41562425650E+02 -0.17034068744E+04  0.17617558685E+04  0.15294330000E+03 0.  1.
<mgrwt>
<rscale>  0 0.68141697E+03</rscale>
<asrwt>0</asrwt>
<pdfrwt beam="1">  1        2 0.16217270E+00 0.78269235E+03</pdfrwt>
<pdfrwt beam="2">  1       -2 0.28953929E+00 0.78269235E+03</pdfrwt>
<totfact> 0.88956524E-01</totfact>
</mgrwt>
</event>
<event>
 4    1  0.7280516E-007  0.6935896E+03  0.7818608E-02  0.1002491E+00
         -2   -1    0    0    0  501 -0.00000000000E+00  0.00000000000E+00  0.28091383388E+03  0.28091383389E+03  0.25500000000E-02 0.  1.
          2   -1    0    0  501    0  0.00000000000E+00 -0.00000000000E+00 -0.10791618804E+04  0.10791618805E+04  0.25500000000E-02 0. -1.
    8880023    1    1    2    0    0  0.14328752325E+03  0.16347784478E+03 -0.22661922192E+03  0.72967307615E+03  0.65864270000E+03 0.  0.
    8880022    1    1    2    0    0 -0.14328752325E+03 -0.16347784478E+03 -0.57162882465E+03  0.63040263819E+03  0.15294330000E+03 0.  0.
<mgrwt>
<rscale>  0 0.54571311E+03</rscale>
<asrwt>0</asrwt>
<pdfrwt beam="1">  1        2 0.16602490E+00 0.69358960E+03</pdfrwt>
<pdfrwt beam="2">  1       -2 0.43217514E-01 0.69358960E+03</pdfrwt>
<totfact> 0.11597021E+02</totfact>
</mgrwt>
</event>
<event>
 4    1  0.7280516E-007  0.7437263E+03  0.7818608E-02  0.9849223E-01
          2   -1    0    0  501    0  0.00000000000E+00  0.00000000000E+00  0.12494664696E+04  0.12494664697E+04  0.25500000000E-02 0. -1.
         -2   -1    0    0    0  501 -0.00000000000E+00 -0.00000000000E+00 -0.37916394603E+03  0.37916394604E+03  0.25500000000E-02 0.  1.
    8880023    1    1    2    0    0  0.33874827273E+03  0.67588119297E+02  0.98462312151E+03  0.12339414264E+04  0.65864270000E+03 0. -1.
    8880022    1    1    2    0    0 -0.33874827273E+03 -0.67588119297E+02 -0.11432059789E+03  0.39468898928E+03  0.15294330000E+03 0.  0.
<mgrwt>
<rscale>  0 0.62786564E+03</rscale>
<asrwt>0</asrwt>
<pdfrwt beam="1">  1        2 0.19222561E+00 0.74372626E+03</pdfrwt>
<pdfrwt beam="2">  1       -2 0.58332916E-01 0.74372626E+03</pdfrwt>
<totfact> 0.49575638E+01</totfact>
</mgrwt>
</event>
<event>
 4    1  0.7280516E-007  0.1138421E+04  0.7818608E-02  0.9219438E-01
         -2   -1    0    0    0  501 -0.00000000000E+00  0.00000000000E+00  0.15221409986E+04  0.15221409986E+04  0.25500000000E-02 0.  1.
          2   -1    0    0  501    0  0.00000000000E+00 -0.00000000000E+00 -0.98086483301E+03  0.98086483301E+03  0.25500000000E-02 0. -1.
    8880023    1    1    2    0    0  0.58051500625E+03 -0.72470332825E+03 -0.36601135204E+03  0.11958123191E+04  0.65864270000E+03 0. -1.
    8880022    1    1    2    0    0 -0.58051500625E+03  0.72470332825E+03  0.90728751762E+03  0.13071935125E+04  0.15294330000E+03 0.  0.
<mgrwt>
<rscale>  0 0.10855028E+04</rscale>
<asrwt>0</asrwt>
<pdfrwt beam="1">  1        2 0.15090228E+00 0.11384212E+04</pdfrwt>
<pdfrwt beam="2">  1       -2 0.23417554E+00 0.11384212E+04</pdfrwt>
<totfact> 0.20443250E+00</totfact>
</mgrwt>
</event>
<event>
 4    1  0.7280516E-007  0.6798717E+03  0.7818608E-02  0.1009396E+00
         -2   -1    0    0    0  501 -0.00000000000E+00  0.00000000000E+00  0.25727572333E+03  0.25727572334E+03  0.25500000000E-02 0.  1.
          2   -1    0    0  501    0  0.00000000000E+00 -0.00000000000E+00 -0.10278125691E+04  0.10278125692E+04  0.25500000000E-02 0. -1.
    8880023    1    1    2    0    0 -0.16088973885E+03 -0.50297579267E+02 -0.80630704697E+03  0.10546831822E+04  0.65864270000E+03 0. -1.
    8880022    1    1    2    0    0  0.16088973885E+03  0.50297579267E+02  0.35770201150E+02  0.23040511030E+03  0.15294330000E+03 0.  0.
<mgrwt>
<rscale>  0 0.51715270E+03</rscale>
<asrwt>0</asrwt>
<pdfrwt beam="1">  1        2 0.15812501E+00 0.67987172E+03</pdfrwt>
<pdfrwt beam="2">  1       -2 0.39580881E-01 0.67987172E+03</pdfrwt>
<totfact> 0.14843086E+02</totfact>
</mgrwt>
</event>
<event>
 4    1  0.7280516E-007  0.8122174E+03  0.7818608E-02  0.9684976E-01
          2   -1    0    0  501    0  0.00000000000E+00  0.00000000000E+00  0.46196281126E+03  0.46196281126E+03  0.25500000000E-02 0. -1.
         -2   -1    0    0    0  501 -0.00000000000E+00 -0.00000000000E+00 -0.18332207945E+04  0.18332207946E+04  0.25500000000E-02 0.  1.
    8880023    1    1    2    0    0 -0.42183405139E+03 -0.21895892841E+03  0.24733925583E+02  0.81259396538E+03  0.65864270000E+03 0. -1.
    8880022    1    1    2    0    0  0.42183405139E+03  0.21895892841E+03 -0.13959919089E+04  0.14825896404E+04  0.15294330000E+03 0.  0.
<mgrwt>
<rscale>  0 0.71918375E+03</rscale>
<asrwt>0</asrwt>
<pdfrwt beam="1">  1        2 0.71071203E-01 0.81221745E+03</pdfrwt>
<pdfrwt beam="2">  1       -2 0.28203397E+00 0.81221745E+03</pdfrwt>
<totfact> 0.28384109E+00</totfact>
</mgrwt>
</event>
<event>
 4    1  0.7280516E-007  0.8390843E+03  0.7818608E-02  0.9631909E-01
         -2   -1    0    0    0  501 -0.00000000000E+00  0.00000000000E+00  0.68217159566E+03  0.68217159567E+03  0.25500000000E-02 0.  1.
          2   -1    0    0  501    0  0.00000000000E+00 -0.00000000000E+00 -0.76924272519E+03  0.76924272520E+03  0.25500000000E-02 0. -1.
    8880023    1    1    2    0    0  0.49168316116E+03 -0.16881907171E+03 -0.26682822310E+03  0.88048833998E+03  0.65864270000E+03 0. -1.
    8880022    1    1    2    0    0 -0.49168316116E+03  0.16881907171E+03  0.17975709357E+03  0.57092598088E+03  0.15294330000E+03 0.  0.
<mgrwt>
<rscale>  0 0.75219735E+03</rscale>
<asrwt>0</asrwt>
<pdfrwt beam="1">  1        2 0.11834503E+00 0.83908427E+03</pdfrwt>
<pdfrwt beam="2">  1       -2 0.10494948E+00 0.83908427E+03</pdfrwt>
<totfact> 0.26869542E+01</totfact>
</mgrwt>
</event>
<event>
 4    1  0.7280516E-007  0.9063728E+03  0.7818608E-02  0.9515878E-01
         -2   -1    0    0    0  501 -0.00000000000E+00  0.00000000000E+00  0.78775182047E+03  0.78775182048E+03  0.25500000000E-02 0.  1.
          2   -1    0    0  501    0  0.00000000000E+00 -0.00000000000E+00 -0.14032159578E+04  0.14032159578E+04  0.25500000000E-02 0. -1.
    8880023    1    1    2    0    0 -0.62224666249E+03  0.22594275981E+02 -0.10720434762E+04  0.14038478662E+04  0.65864270000E+03 0. -1.
    8880022    1    1    2    0    0  0.62224666249E+03 -0.22594275981E+02  0.45657933888E+03  0.78711991208E+03  0.15294330000E+03 0.  0.
<mgrwt>
<rscale>  0 0.83123278E+03</rscale>
<asrwt>0</asrwt>
<pdfrwt beam="1">  1        2 0.21587938E+00 0.90637278E+03</pdfrwt>
<pdfrwt beam="2">  1       -2 0.12119259E+00 0.90637278E+03</pdfrwt>
<totfact> 0.74909911E+00</totfact>
</mgrwt>
</event>
<event>
 4    1  0.8550814E-007  0.1134783E+04  0.7818608E-02  0.9223283E-01
         -2   -1    0    0    0  501 -0.00000000000E+00  0.00000000000E+00  0.10284108369E+04  0.10284108369E+04  0.25500000000E-02 0.  1.
          2   -1    0    0  501    0  0.00000000000E+00 -0.00000000000E+00 -0.26124111143E+04  0.26124111143E+04  0.25500000000E-02 0. -1.
    8880023    1    1    2    0    0  0.20986173996E+03  0.89993323495E+03 -0.22306022333E+04  0.25026622438E+04  0.65864270000E+03 0.  0.
    8880022    1    1    2    0    0 -0.20986173996E+03 -0.89993323495E+03  0.64660195588E+03  0.11381597074E+04  0.15294330000E+03 0.  0.
<mgrwt>
<rscale>  0 0.10816304E+04</rscale>
<asrwt>0</asrwt>
<pdfrwt beam="1">  1        2 0.40190940E+00 0.11347828E+04</pdfrwt>
<pdfrwt beam="2">  1       -2 0.15821705E+00 0.11347828E+04</pdfrwt>
<totfact> 0.76735573E-01</totfact>
</mgrwt>
</event>
<event>
 4    1  0.7280516E-007  0.7106904E+03  0.7818608E-02  0.9955446E-01
         -2   -1    0    0    0  501 -0.00000000000E+00  0.00000000000E+00  0.28339690263E+03  0.28339690264E+03  0.25500000000E-02 0.  1.
          2   -1    0    0  501    0  0.00000000000E+00 -0.00000000000E+00 -0.22600593680E+04  0.22600593680E+04  0.25500000000E-02 0. -1.
    8880023    1    1    2    0    0 -0.26337939139E+03 -0.43611707137E+02 -0.20961840464E+04  0.22133839359E+04  0.65864270000E+03 0.  0.
    8880022    1    1    2    0    0  0.26337939139E+03  0.43611707137E+02  0.11952158108E+03  0.33007233475E+03  0.15294330000E+03 0.  0.
<mgrwt>
<rscale>  0 0.57647769E+03</rscale>
<asrwt>0</asrwt>
<pdfrwt beam="1">  1        2 0.34770143E+00 0.71069043E+03</pdfrwt>
<pdfrwt beam="2">  1       -2 0.43599525E-01 0.71069043E+03</pdfrwt>
<totfact> 0.24895623E+01</totfact>
</mgrwt>
</event>
<event>
 4    1  0.7280516E-007  0.7431436E+03  0.7818608E-02  0.9850883E-01
         -2   -1    0    0    0  501 -0.00000000000E+00  0.00000000000E+00  0.11170608704E+04  0.11170608704E+04  0.25500000000E-02 0.  1.
          2   -1    0    0  501    0  0.00000000000E+00 -0.00000000000E+00 -0.64972690163E+03  0.64972690163E+03  0.25500000000E-02 0. -1.
    8880023    1    1    2    0    0 -0.32925220153E+03 -0.10022553409E+03 -0.38354516202E+03  0.83628300680E+03  0.65864270000E+03 0.  0.
    8880022    1    1    2    0    0  0.32925220153E+03  0.10022553409E+03  0.85087913078E+03  0.93050476523E+03  0.15294330000E+03 0.  1.
<mgrwt>
<rscale>  0 0.62701921E+03</rscale>
<asrwt>0</asrwt>
<pdfrwt beam="1">  1        2 0.99957985E-01 0.74314358E+03</pdfrwt>
<pdfrwt beam="2">  1       -2 0.17185552E+00 0.74314358E+03</pdfrwt>
<totfact> 0.94650027E+00</totfact>
</mgrwt>
</event>
<event>
 4    1  0.7280516E-007  0.6707387E+03  0.7818608E-02  0.1015139E+00
         -2   -1    0    0    0  501 -0.00000000000E+00  0.00000000000E+00  0.71235751854E+03  0.71235751854E+03  0.25500000000E-02 0.  1.
          2   -1    0    0  501    0  0.00000000000E+00 -0.00000000000E+00 -0.39452569235E+03  0.39452569236E+03  0.25500000000E-02 0. -1.
    8880023    1    1    2    0    0  0.48828608506E+02  0.11702978727E+03 -0.66712448283E+02  0.67404818903E+03  0.65864270000E+03 0. -1.
    8880022    1    1    2    0    0 -0.48828608506E+02 -0.11702978727E+03  0.38454427447E+03  0.43283502187E+03  0.15294330000E+03 0.  0.
<mgrwt>
<rscale>  0 0.49482425E+03</rscale>
<asrwt>0</asrwt>
<pdfrwt beam="1">  1        2 0.60696261E-01 0.67073870E+03</pdfrwt>
<pdfrwt beam="2">  1       -2 0.10959346E+00 0.67073870E+03</pdfrwt>
<totfact> 0.54411530E+01</totfact>
</mgrwt>
</event>
<event>
 4    1  0.7280516E-007  0.1349258E+04  0.7818608E-02  0.9024148E-01
          2   -1    0    0  501    0  0.00000000000E+00  0.00000000000E+00  0.11655439407E+04  0.11655439407E+04  0.25500000000E-02 0. -1.
         -2   -1    0    0    0  501 -0.00000000000E+00 -0.00000000000E+00 -0.22139000683E+04  0.22139000683E+04  0.25500000000E-02 0.  1.
    8880023    1    1    2    0    0  0.10509151684E+04 -0.53128637462E+03  0.49054105352E+03  0.14356631340E+04  0.65864270000E+03 0.  0.
    8880022    1    1    2    0    0 -0.10509151684E+04  0.53128637462E+03 -0.15388971811E+04  0.19437808750E+04  0.15294330000E+03 0.  0.
<mgrwt>
<rscale>  0 0.13068532E+04</rscale>
<asrwt>0</asrwt>
<pdfrwt beam="1">  1        2 0.17931445E+00 0.13492584E+04</pdfrwt>
<pdfrwt beam="2">  1       -2 0.34060001E+00 0.13492584E+04</pdfrwt>
<totfact> 0.34079497E-01</totfact>
</mgrwt>
</event>
<event>
 4    1  0.7280516E-007  0.8714285E+03  0.7818608E-02  0.9573549E-01
         -2   -1    0    0    0  501 -0.00000000000E+00  0.00000000000E+00  0.82689401477E+03  0.82689401477E+03  0.25500000000E-02 0.  1.
          2   -1    0    0  501    0  0.00000000000E+00 -0.00000000000E+00 -0.27952964180E+04  0.27952964180E+04  0.25500000000E-02 0. -1.
    8880023    1    1    2    0    0  0.41253114072E+03  0.39420226340E+03  0.55328318634E+03  0.10322353690E+04  0.65864270000E+03 0.  1.
    8880022    1    1    2    0    0 -0.41253114072E+03 -0.39420226340E+03 -0.25216855896E+04  0.25899550638E+04  0.15294330000E+03 0.  0.
<mgrwt>
<rscale>  0 0.79071899E+03</rscale>
<asrwt>0</asrwt>
<pdfrwt beam="1">  1        2 0.43004560E+00 0.87142847E+03</pdfrwt>
<pdfrwt beam="2">  1       -2 0.12721446E+00 0.87142847E+03</pdfrwt>
<totfact> 0.11056102E+00</totfact>
</mgrwt>
</event>
<event>
 4    1  0.7280516E-007  0.7966986E+03  0.7818608E-02  0.9717980E-01
         -2   -1    0    0    0  501 -0.00000000000E+00  0.00000000000E+00  0.54209806402E+03  0.54209806403E+03  0.25500000000E-02 0.  1.
          2   -1    0    0  501    0  0.00000000000E+00 -0.00000000000E+00 -0.85892126474E+03  0.85892126475E+03  0.25500000000E-02 0. -1.
    8880023    1    1    2    0    0  0.21571163416E+03 -0.39292113796E+03 -0.44206498750E+03  0.91112578122E+03  0.65864270000E+03 0.  0.
    8880022    1    1    2    0    0 -0.21571163416E+03  0.39292113796E+03  0.12524178678E+03  0.48989354756E+03  0.15294330000E+03 0.  0.
<mgrwt>
<rscale>  0 0.69956276E+03</rscale>
<asrwt>0</asrwt>
<pdfrwt beam="1">  1        2 0.13214173E+00 0.79669865E+03</pdfrwt>
<pdfrwt beam="2">  1       -2 0.83399702E-01 0.79669865E+03</pdfrwt>
<totfact> 0.39776636E+01</totfact>
</mgrwt>
</event>
<event>
 4    1  0.7280516E-007  0.6773348E+03  0.7818608E-02  0.1010873E+00
         -2   -1    0    0    0  501 -0.00000000000E+00  0.00000000000E+00  0.49465251407E+03  0.49465251407E+03  0.25500000000E-02 0.  1.
          2   -1    0    0  501    0  0.00000000000E+00 -0.00000000000E+00 -0.75422569238E+03  0.75422569238E+03  0.25500000000E-02 0. -1.
    8880023    1    1    2    0    0  0.47632259368E+02  0.15067628429E+03 -0.55841152916E+03  0.87784156711E+03  0.65864270000E+03 0. -1.
    8880022    1    1    2    0    0 -0.47632259368E+02 -0.15067628429E+03  0.29883835085E+03  0.37103663935E+03  0.15294330000E+03 0.  0.
<mgrwt>
<rscale>  0 0.51129036E+03</rscale>
<asrwt>0</asrwt>
<pdfrwt beam="1">  1        2 0.11603472E+00 0.67733476E+03</pdfrwt>
<pdfrwt beam="2">  1       -2 0.76100387E-01 0.67733476E+03</pdfrwt>
<totfact> 0.58637464E+01</totfact>
</mgrwt>
</event>
<event>
 4    1  0.7280516E-007  0.7574454E+03  0.7818608E-02  0.9811767E-01
         -2   -1    0    0    0  501 -0.00000000000E+00  0.00000000000E+00  0.32342472413E+03  0.32342472414E+03  0.25500000000E-02 0.  1.
          2   -1    0    0  501    0  0.00000000000E+00 -0.00000000000E+00 -0.15780088510E+04  0.15780088510E+04  0.25500000000E-02 0. -1.
    8880023    1    1    2    0    0  0.29695511742E+03  0.22744439246E+03 -0.12898303249E+04  0.14957893457E+04  0.65864270000E+03 0.  0.
    8880022    1    1    2    0    0 -0.29695511742E+03 -0.22744439246E+03  0.35246197985E+02  0.40564422948E+03  0.15294330000E+03 0.  0.
<mgrwt>
<rscale>  0 0.64734889E+03</rscale>
<asrwt>0</asrwt>
<pdfrwt beam="1">  1        2 0.24277059E+00 0.75744538E+03</pdfrwt>
<pdfrwt beam="2">  1       -2 0.49757651E-01 0.75744538E+03</pdfrwt>
<totfact> 0.44835306E+01</totfact>
</mgrwt>
</event>
<event>
 4    1  0.7280516E-007  0.8500054E+03  0.7818608E-02  0.9611595E-01
         -2   -1    0    0    0  501 -0.00000000000E+00  0.00000000000E+00  0.84891430076E+03  0.84891430077E+03  0.25500000000E-02 0.  1.
          2   -1    0    0  501    0  0.00000000000E+00 -0.00000000000E+00 -0.86422024132E+03  0.86422024132E+03  0.25500000000E-02 0. -1.
    8880023    1    1    2    0    0 -0.48788222337E+03  0.22509974260E+03 -0.48905362951E+03  0.98065417798E+03  0.65864270000E+03 0. -1.
    8880022    1    1    2    0    0  0.48788222337E+03 -0.22509974260E+03  0.47374768895E+03  0.73248036411E+03  0.15294330000E+03 0.  0.
<mgrwt>
<rscale>  0 0.76533460E+03</rscale>
<asrwt>0</asrwt>
<pdfrwt beam="1">  1        2 0.13295696E+00 0.85000539E+03</pdfrwt>
<pdfrwt beam="2">  1       -2 0.13060220E+00 0.85000539E+03</pdfrwt>
<totfact> 0.13389783E+01</totfact>
</mgrwt>
</event>
<event>
 4    1  0.7280516E-007  0.8576307E+03  0.7818608E-02  0.9597792E-01
          2   -1    0    0  501    0  0.00000000000E+00  0.00000000000E+00  0.14570998304E+04  0.14570998304E+04  0.25500000000E-02 0. -1.
         -2   -1    0    0    0  501 -0.00000000000E+00 -0.00000000000E+00 -0.12434251808E+04  0.12434251808E+04  0.25500000000E-02 0.  1.
    8880023    1    1    2    0    0 -0.23083816010E+03 -0.49843143770E+03  0.12510414571E+04  0.15167844566E+04  0.65864270000E+03 0. -1.
    8880022    1    1    2    0    0  0.23083816010E+03  0.49843143770E+03 -0.10373668074E+04  0.11837405545E+04  0.15294330000E+03 0.  0.
<mgrwt>
<rscale>  0 0.77442492E+03</rscale>
<asrwt>0</asrwt>
<pdfrwt beam="1">  1        2 0.22416921E+00 0.85763067E+03</pdfrwt>
<pdfrwt beam="2">  1       -2 0.19129618E+00 0.85763067E+03</pdfrwt>
<totfact> 0.20652159E+00</totfact>
</mgrwt>
</event>
<event>
 4    1  0.7280516E-007  0.9890902E+03  0.7818608E-02  0.9395972E-01
         -2   -1    0    0    0  501 -0.00000000000E+00  0.00000000000E+00  0.10042889650E+04  0.10042889650E+04  0.25500000000E-02 0.  1.
          2   -1    0    0  501    0  0.00000000000E+00 -0.00000000000E+00 -0.86603857959E+03  0.86603857959E+03  0.25500000000E-02 0. -1.
    8880023    1    1    2    0    0  0.71591306504E+03 -0.17876696007E+03 -0.25342349221E+03  0.10210400655E+04  0.65864270000E+03 0. -1.
    8880022    1    1    2    0    0 -0.71591306504E+03  0.17876696007E+03  0.39167387760E+03  0.84928747908E+03  0.15294330000E+03 0.  0.
<mgrwt>
<rscale>  0 0.92407891E+03</rscale>
<asrwt>0</asrwt>
<pdfrwt beam="1">  1        2 0.13323671E+00 0.98909016E+03</pdfrwt>
<pdfrwt beam="2">  1       -2 0.15450599E+00 0.98909016E+03</pdfrwt>
<totfact> 0.85012048E+00</totfact>
</mgrwt>
</event>
<event>
 4    1  0.7280516E-007  0.6719223E+03  0.7818608E-02  0.1014321E+00
          2   -1    0    0  501    0  0.00000000000E+00  0.00000000000E+00  0.25190818146E+04  0.25190818146E+04  0.25500000000E-02 0. -1.
         -2   -1    0    0    0  501 -0.00000000000E+00 -0.00000000000E+00 -0.15616480501E+03  0.15616480503E+03  0.25500000000E-02 0.  1.
    8880023    1    1    2    0    0 -0.12226437955E+03  0.52161325525E+02  0.23789097893E+04  0.24719812650E+04  0.65864270000E+03 0. -1.
    8880022    1    1    2    0    0  0.12226437955E+03 -0.52161325525E+02 -0.15992779725E+02  0.20326535466E+03  0.15294330000E+03 0.  0.
<mgrwt>
<rscale>  0 0.49792970E+03</rscale>
<asrwt>0</asrwt>
<pdfrwt beam="1">  1        2 0.38755102E+00 0.67192231E+03</pdfrwt>
<pdfrwt beam="2">  1       -2 0.24025356E-01 0.67192231E+03</pdfrwt>
<totfact> 0.54996742E+01</totfact>
</mgrwt>
</event>
<event>
 4    1  0.7280516E-007  0.1436673E+04  0.7818608E-02  0.8955698E-01
         -2   -1    0    0    0  501 -0.00000000000E+00  0.00000000000E+00  0.15840396093E+04  0.15840396093E+04  0.25500000000E-02 0.  1.
          2   -1    0    0  501    0  0.00000000000E+00 -0.00000000000E+00 -0.13985195667E+04  0.13985195667E+04  0.25500000000E-02 0. -1.
    8880023    1    1    2    0    0  0.98704917917E+03  0.80990911069E+03 -0.50514461597E+03  0.15228920313E+04  0.65864270000E+03 0.  0.
    8880022    1    1    2    0    0 -0.98704917917E+03 -0.80990911069E+03  0.69066465852E+03  0.14596671447E+04  0.15294330000E+03 0.  0.
<mgrwt>
<rscale>  0 0.13974059E+04</rscale>
<asrwt>0</asrwt>
<pdfrwt beam="1">  1        2 0.21515686E+00 0.14366729E+04</pdfrwt>
<pdfrwt beam="2">  1       -2 0.24369840E+00 0.14366729E+04</pdfrwt>
<totfact> 0.96521847E-01</totfact>
</mgrwt>
</event>
<event>
 4    1  0.7280516E-007  0.1002313E+04  0.7818608E-02  0.9378537E-01
          2   -1    0    0  501    0  0.00000000000E+00  0.00000000000E+00  0.19349180834E+04  0.19349180834E+04  0.25500000000E-02 0. -1.
         -2   -1    0    0    0  501 -0.00000000000E+00 -0.00000000000E+00 -0.42898294769E+03  0.42898294770E+03  0.25500000000E-02 0.  1.
    8880023    1    1    2    0    0 -0.35310899475E+03 -0.66793419328E+03  0.57606653522E+03  0.11560644048E+04  0.65864270000E+03 0.  0.
    8880022    1    1    2    0    0  0.35310899475E+03  0.66793419328E+03  0.92986860052E+03  0.12078366264E+04  0.15294330000E+03 0.  1.
<mgrwt>
<rscale>  0 0.93863231E+03</rscale>
<asrwt>0</asrwt>
<pdfrwt beam="1">  1        2 0.29767970E+00 0.10023135E+04</pdfrwt>
<pdfrwt beam="2">  1       -2 0.65997377E-01 0.10023135E+04</pdfrwt>
<totfact> 0.15374960E+01</totfact>
</mgrwt>
</event>
<event>
 4    1  0.7280516E-007  0.1151625E+04  0.7818608E-02  0.9205643E-01
          2   -1    0    0  501    0  0.00000000000E+00  0.00000000000E+00  0.25511667067E+04  0.25511667067E+04  0.25500000000E-02 0. -1.
         -2   -1    0    0    0  501 -0.00000000000E+00 -0.00000000000E+00 -0.54829985147E+03  0.54829985148E+03  0.25500000000E-02 0.  1.
    8880023    1    1    2    0    0 -0.92496186768E+03  0.19203242661E+03  0.17747779743E+04  0.21156743544E+04  0.65864270000E+03 0.  0.
    8880022    1    1    2    0    0  0.92496186768E+03 -0.19203242661E+03  0.22808888088E+03  0.98379220374E+03  0.15294330000E+03 0.  0.
<mgrwt>
<rscale>  0 0.10995370E+04</rscale>
<asrwt>0</asrwt>
<pdfrwt beam="1">  1        2 0.39248718E+00 0.11516254E+04</pdfrwt>
<pdfrwt beam="2">  1       -2 0.84353824E-01 0.11516254E+04</pdfrwt>
<totfact> 0.39522971E+00</totfact>
</mgrwt>
</event>
<event>
 4    1  0.7280516E-007  0.7042261E+03  0.7818608E-02  0.9980102E-01
          2   -1    0    0  501    0  0.00000000000E+00  0.00000000000E+00  0.13387755566E+04  0.13387755566E+04  0.25500000000E-02 0. -1.
         -2   -1    0    0    0  501 -0.00000000000E+00 -0.00000000000E+00 -0.50333514423E+03  0.50333514424E+03  0.25500000000E-02 0.  1.
    8880023    1    1    2    0    0  0.23916631761E+03  0.70168398823E+02  0.11898478025E+04  0.13826323196E+04  0.65864270000E+03 0. -1.
    8880022    1    1    2    0    0 -0.23916631761E+03 -0.70168398823E+02 -0.35440739014E+03  0.45947838129E+03  0.15294330000E+03 0.  0.
<mgrwt>
<rscale>  0 0.56531415E+03</rscale>
<asrwt>0</asrwt>
<pdfrwt beam="1">  1        2 0.20596547E+00 0.70422606E+03</pdfrwt>
<pdfrwt beam="2">  1       -2 0.77436178E-01 0.70422606E+03</pdfrwt>
<totfact> 0.23958054E+01</totfact>
</mgrwt>
</event>
<event>
 4    1  0.7280516E-007  0.8939652E+03  0.7818608E-02  0.9535790E-01
         -2   -1    0    0    0  501 -0.00000000000E+00  0.00000000000E+00  0.12449861614E+04  0.12449861614E+04  0.25500000000E-02 0.  1.
          2   -1    0    0  501    0  0.00000000000E+00 -0.00000000000E+00 -0.86904316043E+03  0.86904316043E+03  0.25500000000E-02 0. -1.
    8880023    1    1    2    0    0  0.40824168167E+03 -0.44576035517E+03 -0.51111704815E+03  0.10297642488E+04  0.65864270000E+03 0.  0.
    8880022    1    1    2    0    0 -0.40824168167E+03  0.44576035517E+03  0.88706004913E+03  0.10842650731E+04  0.15294330000E+03 0.  0.
<mgrwt>
<rscale>  0 0.81695848E+03</rscale>
<asrwt>0</asrwt>
<pdfrwt beam="1">  1        2 0.13369895E+00 0.89396520E+03</pdfrwt>
<pdfrwt beam="2">  1       -2 0.19153633E+00 0.89396520E+03</pdfrwt>
<totfact> 0.46757474E+00</totfact>
</mgrwt>
</event>
<event>
 4    1  0.7280516E-007  0.9018973E+03  0.7818608E-02  0.9522993E-01
          2   -1    0    0  501    0  0.00000000000E+00  0.00000000000E+00  0.80868024149E+03  0.80868024150E+03  0.25500000000E-02 0. -1.
         -2   -1    0    0    0  501 -0.00000000000E+00 -0.00000000000E+00 -0.11556985136E+04  0.11556985136E+04  0.25500000000E-02 0.  1.
    8880023    1    1    2    0    0  0.29607151892E+03  0.54032410978E+03 -0.78291549968E+03  0.11943095804E+04  0.65864270000E+03 0.  1.
    8880022    1    1    2    0    0 -0.29607151892E+03 -0.54032410978E+03  0.43589722752E+03  0.77006917475E+03  0.15294330000E+03 0.  0.
<mgrwt>
<rscale>  0 0.82609683E+03</rscale>
<asrwt>0</asrwt>
<pdfrwt beam="1">  1        2 0.12441234E+00 0.90189727E+03</pdfrwt>
<pdfrwt beam="2">  1       -2 0.17779977E+00 0.90189727E+03</pdfrwt>
<totfact> 0.63864897E+00</totfact>
</mgrwt>
</event>
<event>
 4    1  0.7280516E-007  0.8138243E+03  0.7818608E-02  0.9681665E-01
          2   -1    0    0  501    0  0.00000000000E+00  0.00000000000E+00  0.27320607801E+04  0.27320607801E+04  0.25500000000E-02 0. -1.
         -2   -1    0    0    0  501 -0.00000000000E+00 -0.00000000000E+00 -0.32163975217E+03  0.32163975219E+03  0.25500000000E-02 0.  1.
    8880023    1    1    2    0    0 -0.26045954123E+03  0.40082490357E+03  0.24184926456E+04  0.25517477656E+04  0.65864270000E+03 0. -1.
    8880022    1    1    2    0    0  0.26045954123E+03 -0.40082490357E+03 -0.80716177288E+01  0.50195276668E+03  0.15294330000E+03 0.  0.
<mgrwt>
<rscale>  0 0.72118994E+03</rscale>
<asrwt>0</asrwt>
<pdfrwt beam="1">  1        2 0.42031705E+00 0.81382429E+03</pdfrwt>
<pdfrwt beam="2">  1       -2 0.49483038E-01 0.81382429E+03</pdfrwt>
<totfact> 0.10254116E+01</totfact>
</mgrwt>
</event>
<event>
 4    1  0.7280516E-007  0.1282767E+04  0.7818608E-02  0.9080586E-01
          2   -1    0    0  501    0  0.00000000000E+00  0.00000000000E+00  0.35836860719E+04  0.35836860719E+04  0.25500000000E-02 0. -1.
         -2   -1    0    0    0  501 -0.00000000000E+00 -0.00000000000E+00 -0.76115030201E+03  0.76115030201E+03  0.25500000000E-02 0.  1.
    8880023    1    1    2    0    0  0.10503020223E+04  0.32946376747E+03 -0.30357097809E+02  0.12831260545E+04  0.65864270000E+03 0.  0.
    8880022    1    1    2    0    0 -0.10503020223E+04 -0.32946376747E+03  0.28528928677E+04  0.30617103194E+04  0.15294330000E+03 0.  0.
<mgrwt>
<rscale>  0 0.12375774E+04</rscale>
<asrwt>0</asrwt>
<pdfrwt beam="1">  1        2 0.55133632E+00 0.12827669E+04</pdfrwt>
<pdfrwt beam="2">  1       -2 0.11710005E+00 0.12827669E+04</pdfrwt>
<totfact> 0.39518811E-01</totfact>
</mgrwt>
</event>
<event>
 4    1  0.7280516E-007  0.7235589E+03  0.7818608E-02  0.9910723E-01
         -2   -1    0    0    0  501 -0.00000000000E+00  0.00000000000E+00  0.69996009794E+03  0.69996009795E+03  0.25500000000E-02 0.  1.
          2   -1    0    0  501    0  0.00000000000E+00 -0.00000000000E+00 -0.57187655051E+03  0.57187655051E+03  0.25500000000E-02 0. -1.
    8880023    1    1    2    0    0 -0.99038308224E+01  0.29938137523E+03 -0.25025701305E+03  0.76561483302E+03  0.65864270000E+03 0. -1.
    8880022    1    1    2    0    0  0.99038308224E+01 -0.29938137523E+03  0.37834056049E+03  0.50622181544E+03  0.15294330000E+03 0.  0.
<mgrwt>
<rscale>  0 0.59744419E+03</rscale>
<asrwt>0</asrwt>
<pdfrwt beam="1">  1        2 0.87981008E-01 0.72355891E+03</pdfrwt>
<pdfrwt beam="2">  1       -2 0.10768617E+00 0.72355891E+03</pdfrwt>
<totfact> 0.36875019E+01</totfact>
</mgrwt>
</event>
<event>
 4    1  0.7280516E-007  0.6877295E+03  0.7818608E-02  0.1005251E+00
          2   -1    0    0  501    0  0.00000000000E+00  0.00000000000E+00  0.44587626311E+04  0.44587626311E+04  0.25500000000E-02 0. -1.
         -2   -1    0    0    0  501 -0.00000000000E+00 -0.00000000000E+00 -0.16170425541E+03  0.16170425543E+03  0.25500000000E-02 0.  1.
    8880023    1    1    2    0    0  0.13453077071E+03 -0.14513133910E+03  0.43152414041E+04  0.43697002432E+04  0.65864270000E+03 0. -1.
    8880022    1    1    2    0    0 -0.13453077071E+03  0.14513133910E+03 -0.18183028397E+02  0.25076664330E+03  0.15294330000E+03 0.  0.
<mgrwt>
<rscale>  0 0.53406547E+03</rscale>
<asrwt>0</asrwt>
<pdfrwt beam="1">  1        2 0.68596340E+00 0.68772948E+03</pdfrwt>
<pdfrwt beam="2">  1       -2 0.24877581E-01 0.68772948E+03</pdfrwt>
<totfact> 0.22446812E+00</totfact>
</mgrwt>
</event>
<event>
 4    1  0.7280516E-007  0.6594783E+03  0.7818608E-02  0.1024697E+00
          2   -1    0    0  501    0  0.00000000000E+00  0.00000000000E+00  0.34437019630E+03  0.34437019631E+03  0.25500000000E-02 0. -1.
         -2   -1    0    0    0  501 -0.00000000000E+00 -0.00000000000E+00 -0.17008870055E+04  0.17008870055E+04  0.25500000000E-02 0.  1.
    8880023    1    1    2    0    0 -0.13173174232E+02  0.30460670747E+02  0.20088616840E+02  0.65978416454E+03  0.65864270000E+03 0. -1.
    8880022    1    1    2    0    0  0.13173174232E+02 -0.30460670747E+02 -0.13766054260E+04  0.13854730373E+04  0.15294330000E+03 0.  0.
<mgrwt>
<rscale>  0 0.46028911E+03</rscale>
<asrwt>0</asrwt>
<pdfrwt beam="1">  1        2 0.52980031E-01 0.65947827E+03</pdfrwt>
<pdfrwt beam="2">  1       -2 0.26167492E+00 0.65947827E+03</pdfrwt>
<totfact> 0.53482143E+00</totfact>
</mgrwt>
</event>
<event>
 4    1  0.7280516E-007  0.7423652E+03  0.7818608E-02  0.9853110E-01
          2   -1    0    0  501    0  0.00000000000E+00  0.00000000000E+00  0.19771196517E+04  0.19771196517E+04  0.25500000000E-02 0. -1.
         -2   -1    0    0    0  501 -0.00000000000E+00 -0.00000000000E+00 -0.24964498993E+03  0.24964498995E+03  0.25500000000E-02 0.  1.
    8880023    1    1    2    0    0 -0.24275784066E+03 -0.24158738578E+03  0.16948039290E+04  0.18502611702E+04  0.65864270000E+03 0.  0.
    8880022    1    1    2    0    0  0.24275784066E+03  0.24158738578E+03  0.32670732775E+02  0.37650347139E+03  0.15294330000E+03 0.  0.
<mgrwt>
<rscale>  0 0.62588584E+03</rscale>
<asrwt>0</asrwt>
<pdfrwt beam="1">  1        2 0.30417226E+00 0.74236517E+03</pdfrwt>
<pdfrwt beam="2">  1       -2 0.38406921E-01 0.74236517E+03</pdfrwt>
<totfact> 0.45416251E+01</totfact>
</mgrwt>
</event>
<event>
 4    1  0.7280516E-007  0.6614431E+03  0.7818608E-02  0.1022724E+00
          2   -1    0    0  501    0  0.00000000000E+00  0.00000000000E+00  0.91487534236E+03  0.91487534237E+03  0.25500000000E-02 0. -1.
         -2   -1    0    0    0  501 -0.00000000000E+00 -0.00000000000E+00 -0.73707441196E+03  0.73707441197E+03  0.25500000000E-02 0.  1.
    8880023    1    1    2    0    0  0.58727235285E+02 -0.15744731115E+02  0.78287519028E+03  0.10248905086E+04  0.65864270000E+03 0. -1.
    8880022    1    1    2    0    0 -0.58727235285E+02  0.15744731115E+02 -0.60507425988E+03  0.62705924577E+03  0.15294330000E+03 0.  0.
<mgrwt>
<rscale>  0 0.46716185E+03</rscale>
<asrwt>0</asrwt>
<pdfrwt beam="1">  1        2 0.14075005E+00 0.66144311E+03</pdfrwt>
<pdfrwt beam="2">  1       -2 0.11339606E+00 0.66144311E+03</pdfrwt>
<totfact> 0.17933992E+01</totfact>
</mgrwt>
</event>
<event>
 4    1  0.7280516E-007  0.1072616E+04  0.7818608E-02  0.9292176E-01
          2   -1    0    0  501    0  0.00000000000E+00  0.00000000000E+00  0.12066125274E+04  0.12066125274E+04  0.25500000000E-02 0. -1.
         -2   -1    0    0    0  501 -0.00000000000E+00 -0.00000000000E+00 -0.84407960763E+03  0.84407960763E+03  0.25500000000E-02 0.  1.
    8880023    1    1    2    0    0  0.39368824381E+03  0.74946901305E+03 -0.94092702537E+02  0.10767348224E+04  0.65864270000E+03 0.  1.
    8880022    1    1    2    0    0 -0.39368824381E+03 -0.74946901305E+03  0.45662562227E+03  0.97395731259E+03  0.15294330000E+03 0.  0.
<mgrwt>
<rscale>  0 0.10150639E+04</rscale>
<asrwt>0</asrwt>
<pdfrwt beam="1">  1        2 0.18563270E+00 0.10726157E+04</pdfrwt>
<pdfrwt beam="2">  1       -2 0.12985840E+00 0.10726157E+04</pdfrwt>
<totfact> 0.80549863E+00</totfact>
</mgrwt>
</event>
<event>
 4    1  0.7280516E-007  0.8448357E+03  0.7818608E-02  0.9621129E-01
          2   -1    0    0  501    0  0.00000000000E+00  0.00000000000E+00  0.17812001676E+04  0.17812001676E+04  0.25500000000E-02 0. -1.
         -2   -1    0    0    0  501 -0.00000000000E+00 -0.00000000000E+00 -0.52055417122E+03  0.52055417123E+03  0.25500000000E-02 0.  1.
    8880023    1    1    2    0    0  0.30607673360E+03 -0.43157177348E+03  0.14838423616E+04  0.17074939305E+04  0.65864270000E+03 0. -1.
    8880022    1    1    2    0    0 -0.30607673360E+03  0.43157177348E+03 -0.22319636514E+03  0.59426040836E+03  0.15294330000E+03 0.  0.
<mgrwt>
<rscale>  0 0.75913393E+03</rscale>
<asrwt>0</asrwt>
<pdfrwt beam="1">  1        2 0.27403080E+00 0.84483571E+03</pdfrwt>
<pdfrwt beam="2">  1       -2 0.80085256E-01 0.84483571E+03</pdfrwt>
<totfact> 0.12399224E+01</totfact>
</mgrwt>
</event>
<event>
 4    1  0.7280516E-007  0.8368107E+03  0.7818608E-02  0.9636223E-01
         -2   -1    0    0    0  501 -0.00000000000E+00  0.00000000000E+00  0.38148179002E+03  0.38148179003E+03  0.25500000000E-02 0.  1.
          2   -1    0    0  501    0  0.00000000000E+00 -0.00000000000E+00 -0.17466544794E+04  0.17466544794E+04  0.25500000000E-02 0. -1.
    8880023    1    1    2    0    0  0.12032787837E+03  0.50195933106E+03 -0.13515098952E+04  0.15896009472E+04  0.65864270000E+03 0. -1.
    8880022    1    1    2    0    0 -0.12032787837E+03 -0.50195933106E+03 -0.13662794223E+02  0.53853532225E+03  0.15294330000E+03 0.  0.
<mgrwt>
<rscale>  0 0.74944371E+03</rscale>
<asrwt>0</asrwt>
<pdfrwt beam="1">  1        2 0.26871607E+00 0.83681072E+03</pdfrwt>
<pdfrwt beam="2">  1       -2 0.58689507E-01 0.83681072E+03</pdfrwt>
<totfact> 0.25508618E+01</totfact>
</mgrwt>
</event>
<event>
 4    1  0.7280516E-007  0.7434032E+03  0.7818608E-02  0.9850143E-01
          2   -1    0    0  501    0  0.00000000000E+00  0.00000000000E+00  0.22015985603E+04  0.22015985603E+04  0.25500000000E-02 0. -1.
         -2   -1    0    0    0  501 -0.00000000000E+00 -0.00000000000E+00 -0.20343927508E+03  0.20343927510E+03  0.25500000000E-02 0.  1.
    8880023    1    1    2    0    0 -0.18885417666E+03  0.28839586377E+03  0.18605712836E+04  0.20035902230E+04  0.65864270000E+03 0. -1.
    8880022    1    1    2    0    0  0.18885417666E+03 -0.28839586377E+03  0.13758800167E+03  0.40144761240E+03  0.15294330000E+03 0.  0.
<mgrwt>
<rscale>  0 0.62739652E+03</rscale>
<asrwt>0</asrwt>
<pdfrwt beam="1">  1        2 0.33870744E+00 0.74340317E+03</pdfrwt>
<pdfrwt beam="2">  1       -2 0.31298353E-01 0.74340317E+03</pdfrwt>
<totfact> 0.50489927E+01</totfact>
</mgrwt>
</event>
<event>
 4    1  0.7280516E-007  0.1831736E+04  0.7818608E-02  0.8705181E-01
         -2   -1    0    0    0  501 -0.00000000000E+00  0.00000000000E+00  0.12159991295E+04  0.12159991295E+04  0.25500000000E-02 0.  1.
          2   -1    0    0  501    0  0.00000000000E+00 -0.00000000000E+00 -0.27253268059E+04  0.27253268060E+04  0.25500000000E-02 0. -1.
    8880023    1    1    2    0    0  0.16283798209E+04 -0.51944821630E+03 -0.12205717659E+04  0.22011480942E+04  0.65864270000E+03 0. -1.
    8880022    1    1    2    0    0 -0.16283798209E+04  0.51944821630E+03 -0.28875591051E+03  0.17401778413E+04  0.15294330000E+03 0.  1.
<mgrwt>
<rscale>  0 0.18021042E+04</rscale>
<asrwt>0</asrwt>
<pdfrwt beam="1">  1        2 0.41928104E+00 0.18317362E+04</pdfrwt>
<pdfrwt beam="2">  1       -2 0.18707679E+00 0.18317362E+04</pdfrwt>
<totfact> 0.37855550E-01</totfact>
</mgrwt>
</event>
<event>
 4    1  0.7280516E-007  0.7682404E+03  0.7818608E-02  0.9784223E-01
          2   -1    0    0  501    0  0.00000000000E+00  0.00000000000E+00  0.81913720521E+03  0.81913720521E+03  0.25500000000E-02 0. -1.
         -2   -1    0    0    0  501 -0.00000000000E+00 -0.00000000000E+00 -0.60617735753E+03  0.60617735754E+03  0.25500000000E-02 0.  1.
    8880023    1    1    2    0    0  0.39505538078E+03  0.17729072654E+02  0.49698226164E+03  0.91497794976E+03  0.65864270000E+03 0. -1.
    8880022    1    1    2    0    0 -0.39505538078E+03 -0.17729072654E+02 -0.28402241397E+03  0.51033661298E+03  0.15294330000E+03 0.  0.
<mgrwt>
<rscale>  0 0.66216150E+03</rscale>
<asrwt>0</asrwt>
<pdfrwt beam="1">  1        2 0.12602111E+00 0.76824038E+03</pdfrwt>
<pdfrwt beam="2">  1       -2 0.93258055E-01 0.76824038E+03</pdfrwt>
<totfact> 0.32886669E+01</totfact>
</mgrwt>
</event>
<event>
 4    1  0.7280516E-007  0.6730461E+03  0.7818608E-02  0.1013567E+00
         -2   -1    0    0    0  501 -0.00000000000E+00  0.00000000000E+00  0.10816312465E+04  0.10816312465E+04  0.25500000000E-02 0.  1.
          2   -1    0    0  501    0  0.00000000000E+00 -0.00000000000E+00 -0.46578718569E+03  0.46578718570E+03  0.25500000000E-02 0. -1.
    8880023    1    1    2    0    0  0.12971523126E+03  0.48526019007E+02 -0.20298833512E+03  0.70299024616E+03  0.65864270000E+03 0. -1.
    8880022    1    1    2    0    0 -0.12971523126E+03 -0.48526019007E+02  0.81883239592E+03  0.84442818603E+03  0.15294330000E+03 0.  0.
<mgrwt>
<rscale>  0 0.50081197E+03</rscale>
<asrwt>0</asrwt>
<pdfrwt beam="1">  1        2 0.71659567E-01 0.67304608E+03</pdfrwt>
<pdfrwt beam="2">  1       -2 0.16640481E+00 0.67304608E+03</pdfrwt>
<totfact> 0.15458168E+01</totfact>
</mgrwt>
</event>
<event>
 4    1  0.7280516E-007  0.8023633E+03  0.7818608E-02  0.9705709E-01
         -2   -1    0    0    0  501 -0.00000000000E+00  0.00000000000E+00  0.28300339172E+03  0.28300339173E+03  0.25500000000E-02 0.  1.
          2   -1    0    0  501    0  0.00000000000E+00 -0.00000000000E+00 -0.17825004735E+04  0.17825004735E+04  0.25500000000E-02 0. -1.
    8880023    1    1    2    0    0  0.37228331458E+03 -0.26717365159E+03 -0.13305072486E+04  0.15537169534E+04  0.65864270000E+03 0.  0.
    8880022    1    1    2    0    0 -0.37228331458E+03  0.26717365159E+03 -0.16898983323E+03  0.51178691188E+03  0.15294330000E+03 0.  0.
<mgrwt>
<rscale>  0 0.70677880E+03</rscale>
<asrwt>0</asrwt>
<pdfrwt beam="1">  1        2 0.27423083E+00 0.80236328E+03</pdfrwt>
<pdfrwt beam="2">  1       -2 0.43538985E-01 0.80236328E+03</pdfrwt>
<totfact> 0.45050589E+01</totfact>
</mgrwt>
</event>
<event>
 4    1  0.7280516E-007  0.1037510E+04  0.7818608E-02  0.9334049E-01
          2   -1    0    0  501    0  0.00000000000E+00  0.00000000000E+00  0.43974208132E+04  0.43974208132E+04  0.25500000000E-02 0. -1.
         -2   -1    0    0    0  501 -0.00000000000E+00 -0.00000000000E+00 -0.20730383399E+03  0.20730383401E+03  0.25500000000E-02 0.  1.
    8880023    1    1    2    0    0 -0.25285175045E+03 -0.76071174824E+03  0.28804002197E+04  0.30615571207E+04  0.65864270000E+03 0.  1.
    8880022    1    1    2    0    0  0.25285175045E+03  0.76071174824E+03  0.13097167596E+04  0.15431675265E+04  0.15294330000E+03 0.  0.
<mgrwt>
<rscale>  0 0.97707767E+03</rscale>
<asrwt>0</asrwt>
<pdfrwt beam="1">  1        2 0.67652623E+00 0.10375098E+04</pdfrwt>
<pdfrwt beam="2">  1       -2 0.31892900E-01 0.10375098E+04</pdfrwt>
<totfact> 0.15003969E+00</totfact>
</mgrwt>
</event>
<event>
 4    1  0.7280516E-007  0.8763365E+03  0.7818608E-02  0.9565140E-01
         -2   -1    0    0    0  501 -0.00000000000E+00  0.00000000000E+00  0.59476402715E+03  0.59476402716E+03  0.25500000000E-02 0.  1.
          2   -1    0    0  501    0  0.00000000000E+00 -0.00000000000E+00 -0.93067627095E+03  0.93067627095E+03  0.25500000000E-02 0. -1.
    8880023    1    1    2    0    0  0.54166968539E+03 -0.20186496808E+03 -0.97626450689E+02  0.88175770116E+03  0.65864270000E+03 0. -1.
    8880022    1    1    2    0    0 -0.54166968539E+03  0.20186496808E+03 -0.23828579310E+03  0.64368259695E+03  0.15294330000E+03 0.  1.
<mgrwt>
<rscale>  0 0.79647079E+03</rscale>
<asrwt>0</asrwt>
<pdfrwt beam="1">  1        2 0.14318096E+00 0.87633653E+03</pdfrwt>
<pdfrwt beam="2">  1       -2 0.91502158E-01 0.87633653E+03</pdfrwt>
<totfact> 0.28561279E+01</totfact>
</mgrwt>
</event>
<event>
 4    1  0.7280516E-007  0.1050556E+04  0.7818608E-02  0.9318214E-01
          2   -1    0    0  501    0  0.00000000000E+00  0.00000000000E+00  0.14236599334E+04  0.14236599334E+04  0.25500000000E-02 0. -1.
         -2   -1    0    0    0  501 -0.00000000000E+00 -0.00000000000E+00 -0.82604505560E+03  0.82604505560E+03  0.25500000000E-02 0.  1.
    8880023    1    1    2    0    0 -0.67906501393E+03 -0.45686746175E+03  0.88008345988E+03  0.13704795779E+04  0.65864270000E+03 0.  0.
    8880022    1    1    2    0    0  0.67906501393E+03  0.45686746175E+03 -0.28246858206E+03  0.87922541115E+03  0.15294330000E+03 0.  0.
<mgrwt>
<rscale>  0 0.99123236E+03</rscale>
<asrwt>0</asrwt>
<pdfrwt beam="1">  1        2 0.21902460E+00 0.10505557E+04</pdfrwt>
<pdfrwt beam="2">  1       -2 0.12708386E+00 0.10505557E+04</pdfrwt>
<totfact> 0.63737754E+00</totfact>
</mgrwt>
</event>
<event>
 4    1  0.7280516E-007  0.7739196E+03  0.7818608E-02  0.9770319E-01
          2   -1    0    0  501    0  0.00000000000E+00  0.00000000000E+00  0.16019500242E+04  0.16019500242E+04  0.25500000000E-02 0. -1.
         -2   -1    0    0    0  501 -0.00000000000E+00 -0.00000000000E+00 -0.76730199326E+03  0.76730199326E+03  0.25500000000E-02 0.  1.
    8880023    1    1    2    0    0  0.28706361731E+03  0.28763827573E+03  0.14337842126E+04  0.16293215375E+04  0.65864270000E+03 0.  0.
    8880022    1    1    2    0    0 -0.28706361731E+03 -0.28763827573E+03 -0.59913618163E+03  0.73993047998E+03  0.15294330000E+03 0.  0.
<mgrwt>
<rscale>  0 0.66980021E+03</rscale>
<asrwt>0</asrwt>
<pdfrwt beam="1">  1        2 0.24645385E+00 0.77391957E+03</pdfrwt>
<pdfrwt beam="2">  1       -2 0.11804646E+00 0.77391957E+03</pdfrwt>
<totfact> 0.62968083E+00</totfact>
</mgrwt>
</event>
<event>
 4    1  0.7280516E-007  0.7261820E+03  0.7818608E-02  0.9902198E-01
         -2   -1    0    0    0  501 -0.00000000000E+00  0.00000000000E+00  0.20620416909E+04  0.20620416909E+04  0.25500000000E-02 0.  1.
          2   -1    0    0  501    0  0.00000000000E+00 -0.00000000000E+00 -0.80365646249E+03  0.80365646250E+03  0.25500000000E-02 0. -1.
    8880023    1    1    2    0    0  0.16306559536E+02  0.30539176049E+03 -0.62097508525E+03  0.95548432432E+03  0.65864270000E+03 0. -1.
    8880022    1    1    2    0    0 -0.16306559536E+02 -0.30539176049E+03  0.18793603136E+04  0.19102138291E+04  0.15294330000E+03 0.  0.
<mgrwt>
<rscale>  0 0.60154895E+03</rscale>
<asrwt>0</asrwt>
<pdfrwt beam="1">  1        2 0.12363946E+00 0.72618196E+03</pdfrwt>
<pdfrwt beam="2">  1       -2 0.31723718E+00 0.72618196E+03</pdfrwt>
<totfact> 0.89807868E-01</totfact>
</mgrwt>
</event>
<event>
 4    1  0.7280516E-007  0.7304598E+03  0.7818608E-02  0.9888662E-01
          2   -1    0    0  501    0  0.00000000000E+00  0.00000000000E+00  0.12054014720E+04  0.12054014720E+04  0.25500000000E-02 0. -1.
         -2   -1    0    0    0  501 -0.00000000000E+00 -0.00000000000E+00 -0.39130232192E+03  0.39130232193E+03  0.25500000000E-02 0.  1.
    8880023    1    1    2    0    0  0.25506734216E+03 -0.18628482149E+03  0.96868917825E+03  0.12132313522E+04  0.65864270000E+03 0.  0.
    8880022    1    1    2    0    0 -0.25506734216E+03  0.18628482149E+03 -0.15459002812E+03  0.38347244172E+03  0.15294330000E+03 0.  0.
<mgrwt>
<rscale>  0 0.60813907E+03</rscale>
<asrwt>0</asrwt>
<pdfrwt beam="1">  1        2 0.18544638E+00 0.73045985E+03</pdfrwt>
<pdfrwt beam="2">  1       -2 0.60200357E-01 0.73045985E+03</pdfrwt>
<totfact> 0.49302989E+01</totfact>
</mgrwt>
</event>
<event>
 4    1  0.7280516E-007  0.8522326E+03  0.7818608E-02  0.9607532E-01
          2   -1    0    0  501    0  0.00000000000E+00  0.00000000000E+00  0.23327093480E+04  0.23327093480E+04  0.25500000000E-02 0. -1.
         -2   -1    0    0    0  501 -0.00000000000E+00 -0.00000000000E+00 -0.27082918964E+03  0.27082918965E+03  0.25500000000E-02 0.  1.
    8880023    1    1    2    0    0  0.16437478291E+03 -0.51523894805E+03  0.17828089465E+04  0.19760334483E+04  0.65864270000E+03 0.  0.
    8880022    1    1    2    0    0 -0.16437478291E+03  0.51523894805E+03  0.27907121186E+03  0.62750508934E+03  0.15294330000E+03 0.  0.
<mgrwt>
<rscale>  0 0.76799644E+03</rscale>
<asrwt>0</asrwt>
<pdfrwt beam="1">  1        2 0.35887837E+00 0.85223263E+03</pdfrwt>
<pdfrwt beam="2">  1       -2 0.41666028E-01 0.85223263E+03</pdfrwt>
<totfact> 0.24333351E+01</totfact>
</mgrwt>
</event>
<event>
 4    1  0.7280516E-007  0.9065833E+03  0.7818608E-02  0.9515545E-01
         -2   -1    0    0    0  501 -0.00000000000E+00  0.00000000000E+00  0.18784175918E+03  0.18784175920E+03  0.25500000000E-02 0.  1.
          2   -1    0    0  501    0  0.00000000000E+00 -0.00000000000E+00 -0.44403775732E+04  0.44403775732E+04  0.25500000000E-02 0. -1.
    8880023    1    1    2    0    0 -0.62294094784E+03 -0.52547956269E+01 -0.36030814540E+04  0.37153854723E+04  0.65864270000E+03 0.  0.
    8880022    1    1    2    0    0  0.62294094784E+03  0.52547956269E+01 -0.64945436001E+03  0.91283386009E+03  0.15294330000E+03 0.  0.
<mgrwt>
<rscale>  0 0.83147399E+03</rscale>
<asrwt>0</asrwt>
<pdfrwt beam="1">  1        2 0.68313493E+00 0.90658328E+03</pdfrwt>
<pdfrwt beam="2">  1       -2 0.28898736E-01 0.90658328E+03</pdfrwt>
<totfact> 0.16875511E+00</totfact>
</mgrwt>
</event>
<event>
 4    1  0.7280516E-007  0.8418649E+03  0.7818608E-02  0.9626674E-01
         -2   -1    0    0    0  501 -0.00000000000E+00  0.00000000000E+00  0.66002344617E+03  0.66002344617E+03  0.25500000000E-02 0.  1.
          2   -1    0    0  501    0  0.00000000000E+00 -0.00000000000E+00 -0.10429461753E+04  0.10429461753E+04  0.25500000000E-02 0. -1.
    8880023    1    1    2    0    0 -0.36573896248E+03  0.37571435828E+03 -0.67912176345E+03  0.10816389617E+04  0.65864270000E+03 0.  0.
    8880022    1    1    2    0    0  0.36573896248E+03 -0.37571435828E+03  0.29619903436E+03  0.62133065969E+03  0.15294330000E+03 0.  0.
<mgrwt>
<rscale>  0 0.75555609E+03</rscale>
<asrwt>0</asrwt>
<pdfrwt beam="1">  1        2 0.16045326E+00 0.84186488E+03</pdfrwt>
<pdfrwt beam="2">  1       -2 0.10154207E+00 0.84186488E+03</pdfrwt>
<totfact> 0.18980243E+01</totfact>
</mgrwt>
</event>
<event>
 4    1  0.7280516E-007  0.1116719E+04  0.7818608E-02  0.9242666E-01
         -2   -1    0    0    0  501 -0.00000000000E+00  0.00000000000E+00  0.44368373701E+03  0.44368373702E+03  0.25500000000E-02 0.  1.
          2   -1    0    0  501    0  0.00000000000E+00 -0.00000000000E+00 -0.24030171746E+04  0.24030171746E+04  0.25500000000E-02 0. -1.
    8880023    1    1    2    0    0 -0.68158504785E+03  0.59050318852E+03 -0.81901949977E+03  0.13848665424E+04  0.65864270000E+03 0.  1.
    8880022    1    1    2    0    0  0.68158504785E+03 -0.59050318852E+03 -0.11403139378E+04  0.14618343692E+04  0.15294330000E+03 0.  0.
<mgrwt>
<rscale>  0 0.10623696E+04</rscale>
<asrwt>0</asrwt>
<pdfrwt beam="1">  1        2 0.36969494E+00 0.11167195E+04</pdfrwt>
<pdfrwt beam="2">  1       -2 0.68259038E-01 0.11167195E+04</pdfrwt>
<totfact> 0.77433568E+00</totfact>
</mgrwt>
</event>
<event>
 4    1  0.7280516E-007  0.8478617E+03  0.7818608E-02  0.9615531E-01
         -2   -1    0    0    0  501 -0.00000000000E+00  0.00000000000E+00  0.56446009380E+03  0.56446009381E+03  0.25500000000E-02 0.  1.
          2   -1    0    0  501    0  0.00000000000E+00 -0.00000000000E+00 -0.27163409226E+04  0.27163409226E+04  0.25500000000E-02 0. -1.
    8880023    1    1    2    0    0 -0.42507099222E+03  0.32306943381E+03 -0.24901334838E+04  0.26305197549E+04  0.65864270000E+03 0.  0.
    8880022    1    1    2    0    0  0.42507099222E+03 -0.32306943381E+03  0.33825265498E+03  0.65028126154E+03  0.15294330000E+03 0.  0.
<mgrwt>
<rscale>  0 0.76276718E+03</rscale>
<asrwt>0</asrwt>
<pdfrwt beam="1">  1        2 0.41789860E+00 0.84786167E+03</pdfrwt>
<pdfrwt beam="2">  1       -2 0.86840016E-01 0.84786167E+03</pdfrwt>
<totfact> 0.30937930E+00</totfact>
</mgrwt>
</event>
<event>
 4    1  0.7280516E-007  0.1104258E+04  0.7818608E-02  0.9256330E-01
          2   -1    0    0  501    0  0.00000000000E+00  0.00000000000E+00  0.22256512905E+04  0.22256512905E+04  0.25500000000E-02 0. -1.
         -2   -1    0    0    0  501 -0.00000000000E+00 -0.00000000000E+00 -0.56095675593E+03  0.56095675593E+03  0.25500000000E-02 0.  1.
    8880023    1    1    2    0    0 -0.55363166848E+03  0.69214734564E+03  0.15151244553E+04  0.18748302040E+04  0.65864270000E+03 0.  1.
    8880022    1    1    2    0    0  0.55363166848E+03 -0.69214734564E+03  0.14957007929E+03  0.91177784248E+03  0.15294330000E+03 0.  0.
<mgrwt>
<rscale>  0 0.10490456E+04</rscale>
<asrwt>0</asrwt>
<pdfrwt beam="1">  1        2 0.34240789E+00 0.11042582E+04</pdfrwt>
<pdfrwt beam="2">  1       -2 0.86301039E-01 0.11042582E+04</pdfrwt>
<totfact> 0.57704053E+00</totfact>
</mgrwt>
</event>
<event>
 4    1  0.7280516E-007  0.8562207E+03  0.7818608E-02  0.9600322E-01
          2   -1    0    0  501    0  0.00000000000E+00  0.00000000000E+00  0.17787211887E+04  0.17787211887E+04  0.25500000000E-02 0. -1.
         -2   -1    0    0    0  501 -0.00000000000E+00 -0.00000000000E+00 -0.32165594553E+03  0.32165594554E+03  0.25500000000E-02 0.  1.
    8880023    1    1    2    0    0 -0.33960827960E+03 -0.42891709488E+03  0.51171504411E+03  0.99747989979E+03  0.65864270000E+03 0.  0.
    8880022    1    1    2    0    0  0.33960827960E+03  0.42891709488E+03  0.94535019901E+03  0.11028972344E+04  0.15294330000E+03 0.  0.
<mgrwt>
<rscale>  0 0.77274885E+03</rscale>
<asrwt>0</asrwt>
<pdfrwt beam="1">  1        2 0.27364942E+00 0.85622069E+03</pdfrwt>
<pdfrwt beam="2">  1       -2 0.49485529E-01 0.85622069E+03</pdfrwt>
<totfact> 0.34798733E+01</totfact>
</mgrwt>
</event>
<event>
 4    1  0.7280516E-007  0.1609954E+04  0.7818608E-02  0.8835658E-01
          2   -1    0    0  501    0  0.00000000000E+00  0.00000000000E+00  0.17670008685E+04  0.17670008685E+04  0.25500000000E-02 0. -1.
         -2   -1    0    0    0  501 -0.00000000000E+00 -0.00000000000E+00 -0.18821568445E+04  0.18821568445E+04  0.25500000000E-02 0.  1.
    8880023    1    1    2    0    0 -0.87917493121E+03  0.11769427023E+04  0.91179644638E+03  0.18502231352E+04  0.65864270000E+03 0.  0.
    8880022    1    1    2    0    0  0.87917493121E+03 -0.11769427023E+04 -0.10269524224E+04  0.17989345777E+04  0.15294330000E+03 0.  0.
<mgrwt>
<rscale>  0 0.15756343E+04</rscale>
<asrwt>0</asrwt>
<pdfrwt beam="1">  1        2 0.27184629E+00 0.16099543E+04</pdfrwt>
<pdfrwt beam="2">  1       -2 0.28956259E+00 0.16099543E+04</pdfrwt>
<totfact> 0.30739603E-01</totfact>
</mgrwt>
</event>
<event>
 4    1  0.7280516E-007  0.7319128E+03  0.7818608E-02  0.9884163E-01
         -2   -1    0    0    0  501 -0.00000000000E+00  0.00000000000E+00  0.93909949748E+03  0.93909949749E+03  0.25500000000E-02 0.  1.
          2   -1    0    0  501    0  0.00000000000E+00 -0.00000000000E+00 -0.47933488614E+03  0.47933488615E+03  0.25500000000E-02 0. -1.
    8880023    1    1    2    0    0 -0.18001606952E+03 -0.26359127979E+03 -0.11751448176E+03  0.74128672439E+03  0.65864270000E+03 0.  0.
    8880022    1    1    2    0    0  0.18001606952E+03  0.26359127979E+03  0.57727909310E+03  0.67714765924E+03  0.15294330000E+03 0.  0.
<mgrwt>
<rscale>  0 0.61034975E+03</rscale>
<asrwt>0</asrwt>
<pdfrwt beam="1">  1        2 0.73743830E-01 0.73191281E+03</pdfrwt>
<pdfrwt beam="2">  1       -2 0.14447684E+00 0.73191281E+03</pdfrwt>
<totfact> 0.21708214E+01</totfact>
</mgrwt>
</event>
<event>
 4    1  0.7280516E-007  0.8834076E+03  0.7818608E-02  0.9553211E-01
          2   -1    0    0  501    0  0.00000000000E+00  0.00000000000E+00  0.33525768703E+04  0.33525768703E+04  0.25500000000E-02 0. -1.
         -2   -1    0    0    0  501 -0.00000000000E+00 -0.00000000000E+00 -0.73875889529E+03  0.73875889530E+03  0.25500000000E-02 0.  1.
    8880023    1    1    2    0    0  0.13592487088E+03 -0.57282035616E+03 -0.43340499488E+03  0.98399635508E+03  0.65864270000E+03 0.  1.
    8880022    1    1    2    0    0 -0.13592487088E+03  0.57282035616E+03  0.30472229699E+04  0.31073394105E+04  0.15294330000E+03 0.  0.
<mgrwt>
<rscale>  0 0.80471972E+03</rscale>
<asrwt>0</asrwt>
<pdfrwt beam="1">  1        2 0.51578106E+00 0.88340757E+03</pdfrwt>
<pdfrwt beam="2">  1       -2 0.11365521E+00 0.88340757E+03</pdfrwt>
<totfact> 0.65486956E-01</totfact>
</mgrwt>
</event>
<event>
 4    1  0.7280516E-007  0.7815200E+03  0.7818608E-02  0.9752278E-01
         -2   -1    0    0    0  501 -0.00000000000E+00  0.00000000000E+00  0.25925591779E+03  0.25925591780E+03  0.25500000000E-02 0.  1.
          2   -1    0    0  501    0  0.00000000000E+00 -0.00000000000E+00 -0.15098823717E+04  0.15098823717E+04  0.25500000000E-02 0. -1.
    8880023    1    1    2    0    0  0.42066891210E+03 -0.10196266020E+01 -0.94902491633E+03  0.12293989879E+04  0.65864270000E+03 0. -1.
    8880022    1    1    2    0    0 -0.42066891210E+03  0.10196266020E+01 -0.30160153756E+03  0.53973930163E+03  0.15294330000E+03 0.  1.
<mgrwt>
<rscale>  0 0.67987664E+03</rscale>
<asrwt>0</asrwt>
<pdfrwt beam="1">  1        2 0.23228959E+00 0.78152004E+03</pdfrwt>
<pdfrwt beam="2">  1       -2 0.39885527E-01 0.78152004E+03</pdfrwt>
<totfact> 0.75790920E+01</totfact>
</mgrwt>
</event>
<event>
 4    1  0.7280516E-007  0.7139565E+03  0.7818608E-02  0.9943592E-01
          2   -1    0    0  501    0  0.00000000000E+00  0.00000000000E+00  0.11332065521E+04  0.11332065521E+04  0.25500000000E-02 0. -1.
         -2   -1    0    0    0  501 -0.00000000000E+00 -0.00000000000E+00 -0.24901068615E+03  0.24901068616E+03  0.25500000000E-02 0.  1.
    8880023    1    1    2    0    0 -0.19435744185E+03  0.19531738796E+03  0.76200248798E+03  0.10442134337E+04  0.65864270000E+03 0. -1.
    8880022    1    1    2    0    0  0.19435744185E+03 -0.19531738796E+03  0.12219337798E+03  0.33800380453E+03  0.15294330000E+03 0. -1.
<mgrwt>
<rscale>  0 0.58194356E+03</rscale>
<asrwt>0</asrwt>
<pdfrwt beam="1">  1        2 0.17433946E+00 0.71395651E+03</pdfrwt>
<pdfrwt beam="2">  1       -2 0.38309338E-01 0.71395651E+03</pdfrwt>
<totfact> 0.13585364E+02</totfact>
</mgrwt>
</event>
<event>
 4    1  0.7280516E-007  0.6868801E+03  0.7818608E-02  0.1005672E+00
         -2   -1    0    0    0  501 -0.00000000000E+00  0.00000000000E+00  0.24045318150E+03  0.24045318152E+03  0.25500000000E-02 0.  1.
          2   -1    0    0  501    0  0.00000000000E+00 -0.00000000000E+00 -0.12927972178E+04  0.12927972178E+04  0.25500000000E-02 0. -1.
    8880023    1    1    2    0    0  0.13818758850E+03 -0.13747104008E+03 -0.10841793056E+04  0.12834520129E+04  0.65864270000E+03 0. -1.
    8880022    1    1    2    0    0 -0.13818758850E+03  0.13747104008E+03  0.31835269303E+02  0.24979838642E+03  0.15294330000E+03 0.  0.
<mgrwt>
<rscale>  0 0.53231555E+03</rscale>
<asrwt>0</asrwt>
<pdfrwt beam="1">  1        2 0.19889188E+00 0.68688012E+03</pdfrwt>
<pdfrwt beam="2">  1       -2 0.36992798E-01 0.68688012E+03</pdfrwt>
<totfact> 0.11730896E+02</totfact>
</mgrwt>
</event>
<event>
 4    1  0.7280516E-007  0.7817736E+03  0.7818608E-02  0.9751687E-01
         -2   -1    0    0    0  501 -0.00000000000E+00  0.00000000000E+00  0.32524162872E+03  0.32524162873E+03  0.25500000000E-02 0.  1.
          2   -1    0    0  501    0  0.00000000000E+00 -0.00000000000E+00 -0.12924488949E+04  0.12924488949E+04  0.25500000000E-02 0. -1.
    8880023    1    1    2    0    0 -0.25363144383E+03 -0.33620058651E+03 -0.84940844150E+03  0.11544109539E+04  0.65864270000E+03 0. -1.
    8880022    1    1    2    0    0  0.25363144383E+03  0.33620058651E+03 -0.11779882471E+03  0.46327956979E+03  0.15294330000E+03 0.  0.
<mgrwt>
<rscale>  0 0.68021009E+03</rscale>
<asrwt>0</asrwt>
<pdfrwt beam="1">  1        2 0.19883829E+00 0.78177359E+03</pdfrwt>
<pdfrwt beam="2">  1       -2 0.50037174E-01 0.78177359E+03</pdfrwt>
<totfact> 0.64054427E+01</totfact>
</mgrwt>
</event>
<event>
 4    1  0.7280516E-007  0.6740588E+03  0.7818608E-02  0.1012906E+00
          2   -1    0    0  501    0  0.00000000000E+00  0.00000000000E+00  0.22152198076E+04  0.22152198077E+04  0.25500000000E-02 0. -1.
         -2   -1    0    0    0  501 -0.00000000000E+00 -0.00000000000E+00 -0.12112866903E+03  0.12112866906E+03  0.25500000000E-02 0.  1.
    8880023    1    1    2    0    0  0.13858428683E+03  0.36598986341E+02  0.19924756499E+04  0.21034054560E+04  0.65864270000E+03 0.  0.
    8880022    1    1    2    0    0 -0.13858428683E+03 -0.36598986341E+02  0.10161548870E+03  0.23294302075E+03  0.15294330000E+03 0.  0.
<mgrwt>
<rscale>  0 0.50335783E+03</rscale>
<asrwt>0</asrwt>
<pdfrwt beam="1">  1        2 0.34080301E+00 0.67405882E+03</pdfrwt>
<pdfrwt beam="2">  1       -2 0.18635182E-01 0.67405882E+03</pdfrwt>
<totfact> 0.12700232E+02</totfact>
</mgrwt>
</event>
<event>
 4    1  0.7280516E-007  0.8272537E+03  0.7818608E-02  0.9654700E-01
          2   -1    0    0  501    0  0.00000000000E+00  0.00000000000E+00  0.48441805877E+03  0.48441805878E+03  0.25500000000E-02 0. -1.
         -2   -1    0    0    0  501 -0.00000000000E+00 -0.00000000000E+00 -0.10286639708E+04  0.10286639708E+04  0.25500000000E-02 0.  1.
    8880023    1    1    2    0    0 -0.46856049540E+03  0.17603866844E+03 -0.11303079295E+03  0.83493994817E+03  0.65864270000E+03 0.  0.
    8880022    1    1    2    0    0  0.46856049540E+03 -0.17603866844E+03 -0.43121511907E+03  0.67814208140E+03  0.15294330000E+03 0.  0.
<mgrwt>
<rscale>  0 0.73779218E+03</rscale>
<asrwt>0</asrwt>
<pdfrwt beam="1">  1        2 0.74525855E-01 0.82725374E+03</pdfrwt>
<pdfrwt beam="2">  1       -2 0.15825599E+00 0.82725374E+03</pdfrwt>
<totfact> 0.16703284E+01</totfact>
</mgrwt>
</event>
<event>
 4    1  0.7280516E-007  0.7822530E+03  0.7818608E-02  0.9750571E-01
          2   -1    0    0  501    0  0.00000000000E+00  0.00000000000E+00  0.26024734857E+04  0.26024734857E+04  0.25500000000E-02 0. -1.
         -2   -1    0    0    0  501 -0.00000000000E+00 -0.00000000000E+00 -0.18445857122E+03  0.18445857124E+03  0.25500000000E-02 0.  1.
    8880023    1    1    2    0    0 -0.31313010516E+03  0.28294720790E+03  0.20881852719E+04  0.22298963028E+04  0.65864270000E+03 0. -1.
    8880022    1    1    2    0    0  0.31313010516E+03 -0.28294720790E+03  0.32982964250E+03  0.55703575406E+03  0.15294330000E+03 0.  0.
<mgrwt>
<rscale>  0 0.68084014E+03</rscale>
<asrwt>0</asrwt>
<pdfrwt beam="1">  1        2 0.40038053E+00 0.78225302E+03</pdfrwt>
<pdfrwt beam="2">  1       -2 0.28378242E-01 0.78225302E+03</pdfrwt>
<totfact> 0.35865591E+01</totfact>
</mgrwt>
</event>
<event>
 4    1  0.7280516E-007  0.7997155E+03  0.7818608E-02  0.9711412E-01
          2   -1    0    0  501    0  0.00000000000E+00  0.00000000000E+00  0.13951485802E+04  0.13951485802E+04  0.25500000000E-02 0. -1.
         -2   -1    0    0    0  501 -0.00000000000E+00 -0.00000000000E+00 -0.41925631102E+03  0.41925631103E+03  0.25500000000E-02 0.  1.
    8880023    1    1    2    0    0  0.33922441386E+03  0.30110048561E+03  0.10605819101E+04  0.13282992508E+04  0.65864270000E+03 0.  0.
    8880022    1    1    2    0    0 -0.33922441386E+03 -0.30110048561E+03 -0.84689640895E+02  0.48610564046E+03  0.15294330000E+03 0.  0.
<mgrwt>
<rscale>  0 0.70341403E+03</rscale>
<asrwt>0</asrwt>
<pdfrwt beam="1">  1        2 0.21463824E+00 0.79971552E+03</pdfrwt>
<pdfrwt beam="2">  1       -2 0.64500971E-01 0.79971552E+03</pdfrwt>
<totfact> 0.32844307E+01</totfact>
</mgrwt>
</event>
<event>
 4    1  0.7280516E-007  0.6921563E+03  0.7818608E-02  0.1003144E+00
         -2   -1    0    0    0  501 -0.00000000000E+00  0.00000000000E+00  0.56452499980E+03  0.56452499980E+03  0.25500000000E-02 0.  1.
          2   -1    0    0  501    0  0.00000000000E+00 -0.00000000000E+00 -0.14802422466E+04  0.14802422466E+04  0.25500000000E-02 0. -1.
    8880023    1    1    2    0    0  0.28946741048E+02  0.21078962408E+03 -0.13616921048E+04  0.15275096641E+04  0.65864270000E+03 0. -1.
    8880022    1    1    2    0    0 -0.28946741048E+02 -0.21078962408E+03  0.44597485800E+03  0.51725758228E+03  0.15294330000E+03 0.  0.
<mgrwt>
<rscale>  0 0.54292841E+03</rscale>
<asrwt>0</asrwt>
<pdfrwt beam="1">  1        2 0.22772957E+00 0.69215633E+03</pdfrwt>
<pdfrwt beam="2">  1       -2 0.86850001E-01 0.69215633E+03</pdfrwt>
<totfact> 0.15414927E+01</totfact>
</mgrwt>
</event>
<event>
 4    1  0.7280516E-007  0.3212634E+04  0.7818608E-02  0.8189774E-01
         -2   -1    0    0    0  501 -0.00000000000E+00  0.00000000000E+00  0.27132364484E+04  0.27132364484E+04  0.25500000000E-02 0.  1.
          2   -1    0    0  501    0  0.00000000000E+00 -0.00000000000E+00 -0.44897425268E+04  0.44897425268E+04  0.25500000000E-02 0. -1.
    8880023    1    1    2    0    0  0.22514561099E+04 -0.21950283414E+04 -0.23791952960E+04  0.39976973994E+04  0.65864270000E+03 0.  0.
    8880022    1    1    2    0    0 -0.22514561099E+04  0.21950283414E+04  0.60268921761E+03  0.32052815758E+04  0.15294330000E+03 0.  0.
<mgrwt>
<rscale>  0 0.31963797E+04</rscale>
<asrwt>0</asrwt>
<pdfrwt beam="1">  1        2 0.69072962E+00 0.32126335E+04</pdfrwt>
<pdfrwt beam="2">  1       -2 0.41742099E+00 0.32126335E+04</pdfrwt>
<totfact> 0.55209562E-04</totfact>
</mgrwt>
</event>
<event>
 4    1  0.7280516E-007  0.8185262E+03  0.7818608E-02  0.9672083E-01
         -2   -1    0    0    0  501 -0.00000000000E+00  0.00000000000E+00  0.18382053496E+04  0.18382053496E+04  0.25500000000E-02 0.  1.
          2   -1    0    0  501    0  0.00000000000E+00 -0.00000000000E+00 -0.73478001605E+03  0.73478001606E+03  0.25500000000E-02 0. -1.
    8880023    1    1    2    0    0 -0.42330431116E+03  0.23872256982E+03 -0.45284513651E+03  0.93544317257E+03  0.65864270000E+03 0. -1.
    8880022    1    1    2    0    0  0.42330431116E+03 -0.23872256982E+03  0.15562704701E+04  0.16375421931E+04  0.15294330000E+03 0.  0.
<mgrwt>
<rscale>  0 0.72703542E+03</rscale>
<asrwt>0</asrwt>
<pdfrwt beam="1">  1        2 0.11304308E+00 0.81852624E+03</pdfrwt>
<pdfrwt beam="2">  1       -2 0.28280082E+00 0.81852624E+03</pdfrwt>
<totfact> 0.16023542E+00</totfact>
</mgrwt>
</event>
<event>
 4    1  0.7461651E-007  0.6857683E+03  0.7818608E-02  0.1006232E+00
         -2   -1    0    0    0  501 -0.00000000000E+00  0.00000000000E+00  0.87023968732E+03  0.87023968732E+03  0.25500000000E-02 0.  1.
          2   -1    0    0  501    0  0.00000000000E+00 -0.00000000000E+00 -0.10825687230E+04  0.10825687230E+04  0.25500000000E-02 0. -1.
    8880023    1    1    2    0    0 -0.16303969857E+03  0.99428558796E+02 -0.95225296964E+03  0.11734836625E+04  0.65864270000E+03 0. -1.
    8880022    1    1    2    0    0  0.16303969857E+03 -0.99428558796E+02  0.73992393395E+03  0.77932474788E+03  0.15294330000E+03 0.  0.
<mgrwt>
<rscale>  0 0.52999872E+03</rscale>
<asrwt>0</asrwt>
<pdfrwt beam="1">  1        2 0.16654903E+00 0.68576832E+03</pdfrwt>
<pdfrwt beam="2">  1       -2 0.13388303E+00 0.68576832E+03</pdfrwt>
<totfact> 0.92447745E+00</totfact>
</mgrwt>
</event>
<event>
 4    1  0.7280516E-007  0.6880503E+03  0.7818608E-02  0.1005093E+00
          2   -1    0    0  501    0  0.00000000000E+00  0.00000000000E+00  0.74898879636E+03  0.74898879637E+03  0.25500000000E-02 0. -1.
         -2   -1    0    0    0  501 -0.00000000000E+00 -0.00000000000E+00 -0.60970835042E+03  0.60970835043E+03  0.25500000000E-02 0.  1.
    8880023    1    1    2    0    0  0.19020987484E+03  0.58507930199E+02  0.54762965847E+03  0.87938127310E+03  0.65864270000E+03 0. -1.
    8880022    1    1    2    0    0 -0.19020987484E+03 -0.58507930199E+02 -0.40834921253E+03  0.47931587369E+03  0.15294330000E+03 0.  0.
<mgrwt>
<rscale>  0 0.53472202E+03</rscale>
<asrwt>0</asrwt>
<pdfrwt beam="1">  1        2 0.11522904E+00 0.68805027E+03</pdfrwt>
<pdfrwt beam="2">  1       -2 0.93801285E-01 0.68805027E+03</pdfrwt>
<totfact> 0.36752209E+01</totfact>
</mgrwt>
</event>
<event>
 4    1  0.7280516E-007  0.7393621E+03  0.7818608E-02  0.9861809E-01
          2   -1    0    0  501    0  0.00000000000E+00  0.00000000000E+00  0.13478948135E+04  0.13478948135E+04  0.25500000000E-02 0. -1.
         -2   -1    0    0    0  501 -0.00000000000E+00 -0.00000000000E+00 -0.24282124527E+03  0.24282124528E+03  0.25500000000E-02 0.  1.
    8880023    1    1    2    0    0  0.30242581064E+03 -0.14623506258E+03  0.91235599799E+03  0.11743294843E+04  0.65864270000E+03 0.  0.
    8880022    1    1    2    0    0 -0.30242581064E+03  0.14623506258E+03  0.19271757021E+03  0.41638657441E+03  0.15294330000E+03 0.  0.
<mgrwt>
<rscale>  0 0.62148413E+03</rscale>
<asrwt>0</asrwt>
<pdfrwt beam="1">  1        2 0.20736843E+00 0.73936207E+03</pdfrwt>
<pdfrwt beam="2">  1       -2 0.37357115E-01 0.73936207E+03</pdfrwt>
<totfact> 0.10655986E+02</totfact>
</mgrwt>
</event>
<event>
 4    1  0.7280516E-007  0.6774549E+03  0.7818608E-02  0.1010801E+00
          2   -1    0    0  501    0  0.00000000000E+00  0.00000000000E+00  0.22631289387E+04  0.22631289387E+04  0.25500000000E-02 0. -1.
         -2   -1    0    0    0  501 -0.00000000000E+00 -0.00000000000E+00 -0.16373613133E+03  0.16373613135E+03  0.25500000000E-02 0.  1.
    8880023    1    1    2    0    0 -0.29086568403E+02  0.15584919182E+03  0.21000083041E+04  0.22065765526E+04  0.65864270000E+03 0. -1.
    8880022    1    1    2    0    0  0.29086568403E+02 -0.15584919182E+03 -0.61549673777E+00  0.22028851741E+03  0.15294330000E+03 0.  0.
<mgrwt>
<rscale>  0 0.51157328E+03</rscale>
<asrwt>0</asrwt>
<pdfrwt beam="1">  1        2 0.34817367E+00 0.67745495E+03</pdfrwt>
<pdfrwt beam="2">  1       -2 0.25190175E-01 0.67745495E+03</pdfrwt>
<totfact> 0.70152431E+01</totfact>
</mgrwt>
</event>
<event>
 4    1  0.7280516E-007  0.7088258E+03  0.7818608E-02  0.9962387E-01
          2   -1    0    0  501    0  0.00000000000E+00  0.00000000000E+00  0.12608415503E+04  0.12608415503E+04  0.25500000000E-02 0. -1.
         -2   -1    0    0    0  501 -0.00000000000E+00 -0.00000000000E+00 -0.41784926706E+03  0.41784926707E+03  0.25500000000E-02 0.  1.
    8880023    1    1    2    0    0  0.17516681411E+03  0.19478294679E+03  0.10813112512E+04  0.12929300203E+04  0.65864270000E+03 0. -1.
    8880022    1    1    2    0    0 -0.17516681411E+03 -0.19478294679E+03 -0.23831896791E+03  0.38576079713E+03  0.15294330000E+03 0.  0.
<mgrwt>
<rscale>  0 0.57330699E+03</rscale>
<asrwt>0</asrwt>
<pdfrwt beam="1">  1        2 0.19397562E+00 0.70882580E+03</pdfrwt>
<pdfrwt beam="2">  1       -2 0.64284504E-01 0.70882580E+03</pdfrwt>
<totfact> 0.39878123E+01</totfact>
</mgrwt>
</event>
<event>
 4    1  0.7280516E-007  0.7549311E+03  0.7818608E-02  0.9818411E-01
          2   -1    0    0  501    0  0.00000000000E+00  0.00000000000E+00  0.39695194428E+04  0.39695194428E+04  0.25500000000E-02 0. -1.
         -2   -1    0    0    0  501 -0.00000000000E+00 -0.00000000000E+00 -0.13064893245E+03  0.13064893247E+03  0.25500000000E-02 0.  1.
    8880023    1    1    2    0    0 -0.23148019087E+03 -0.28727638713E+03  0.34873464113E+04  0.35681235965E+04  0.65864270000E+03 0. -1.
    8880022    1    1    2    0    0  0.23148019087E+03  0.28727638713E+03  0.35152409904E+03  0.53204477875E+03  0.15294330000E+03 0.  0.
<mgrwt>
<rscale>  0 0.64383773E+03</rscale>
<asrwt>0</asrwt>
<pdfrwt beam="1">  1        2 0.61069527E+00 0.75493113E+03</pdfrwt>
<pdfrwt beam="2">  1       -2 0.20099837E-01 0.75493113E+03</pdfrwt>
<totfact> 0.84210414E+00</totfact>
</mgrwt>
</event>
<event>
 4    1  0.7280516E-007  0.1397060E+04  0.7818608E-02  0.8985971E-01
         -2   -1    0    0    0  501 -0.00000000000E+00  0.00000000000E+00  0.12086323558E+04  0.12086323558E+04  0.25500000000E-02 0.  1.
          2   -1    0    0  501    0  0.00000000000E+00 -0.00000000000E+00 -0.17387462353E+04  0.17387462353E+04  0.25500000000E-02 0. -1.
    8880023    1    1    2    0    0  0.49088718584E+03 -0.11300422055E+04 -0.88790095655E+03  0.16553380109E+04  0.65864270000E+03 0.  0.
    8880022    1    1    2    0    0 -0.49088718584E+03  0.11300422055E+04  0.35778707701E+03  0.12920405802E+04  0.15294330000E+03 0.  0.
<mgrwt>
<rscale>  0 0.13564355E+04</rscale>
<asrwt>0</asrwt>
<pdfrwt beam="1">  1        2 0.26749942E+00 0.13970597E+04</pdfrwt>
<pdfrwt beam="2">  1       -2 0.18594344E+00 0.13970597E+04</pdfrwt>
<totfact> 0.14646884E+00</totfact>
</mgrwt>
</event>
<event>
 4    1  0.7280516E-007  0.1264515E+04  0.7818608E-02  0.9096826E-01
          2   -1    0    0  501    0  0.00000000000E+00  0.00000000000E+00  0.37268706448E+04  0.37268706448E+04  0.25500000000E-02 0. -1.
         -2   -1    0    0    0  501 -0.00000000000E+00 -0.00000000000E+00 -0.14602340040E+04  0.14602340040E+04  0.25500000000E-02 0.  1.
    8880023    1    1    2    0    0 -0.69107238712E+03 -0.82922010437E+03  0.33921315721E+04  0.36201593659E+04  0.65864270000E+03 0. -1.
    8880022    1    1    2    0    0  0.69107238712E+03  0.82922010437E+03 -0.11254949313E+04  0.15669452828E+04  0.15294330000E+03 0.  0.
<mgrwt>
<rscale>  0 0.12184884E+04</rscale>
<asrwt>0</asrwt>
<pdfrwt beam="1">  1        2 0.57336471E+00 0.12645146E+04</pdfrwt>
<pdfrwt beam="2">  1       -2 0.22465139E+00 0.12645146E+04</pdfrwt>
<totfact> 0.50815548E-02</totfact>
</mgrwt>
</event>
<event>
 4    1  0.7280516E-007  0.8283198E+03  0.7818608E-02  0.9652611E-01
         -2   -1    0    0    0  501 -0.00000000000E+00  0.00000000000E+00  0.53959013072E+03  0.53959013072E+03  0.25500000000E-02 0.  1.
          2   -1    0    0  501    0  0.00000000000E+00 -0.00000000000E+00 -0.97526349163E+03  0.97526349163E+03  0.25500000000E-02 0. -1.
    8880023    1    1    2    0    0 -0.48458953554E+03 -0.13219828812E+03 -0.52721010457E+03  0.98186766214E+03  0.65864270000E+03 0.  0.
    8880022    1    1    2    0    0  0.48458953554E+03  0.13219828812E+03  0.91536743655E+02  0.53298596022E+03  0.15294330000E+03 0.  0.
<mgrwt>
<rscale>  0 0.73909819E+03</rscale>
<asrwt>0</asrwt>
<pdfrwt beam="1">  1        2 0.15004054E+00 0.82831975E+03</pdfrwt>
<pdfrwt beam="2">  1       -2 0.83013866E-01 0.82831975E+03</pdfrwt>
<totfact> 0.33517675E+01</totfact>
</mgrwt>
</event>
<event>
 4    1  0.7280516E-007  0.7093143E+03  0.7818608E-02  0.9960556E-01
          2   -1    0    0  501    0  0.00000000000E+00  0.00000000000E+00  0.12831213650E+04  0.12831213650E+04  0.25500000000E-02 0. -1.
         -2   -1    0    0    0  501 -0.00000000000E+00 -0.00000000000E+00 -0.21866259794E+03  0.21866259795E+03  0.25500000000E-02 0.  1.
    8880023    1    1    2    0    0  0.24898704358E+03  0.85569099219E+02  0.92822390151E+03  0.11682150642E+04  0.65864270000E+03 0.  0.
    8880022    1    1    2    0    0 -0.24898704358E+03 -0.85569099219E+02  0.13623486554E+03  0.33356889875E+03  0.15294330000E+03 0. -1.
<mgrwt>
<rscale>  0 0.57414140E+03</rscale>
<asrwt>0</asrwt>
<pdfrwt beam="1">  1        2 0.19740329E+00 0.70931433E+03</pdfrwt>
<pdfrwt beam="2">  1       -2 0.33640399E-01 0.70931433E+03</pdfrwt>
<totfact> 0.14212867E+02</totfact>
</mgrwt>
</event>
<event>
 4    1  0.7280516E-007  0.6775008E+03  0.7818608E-02  0.1010774E+00
          2   -1    0    0  501    0  0.00000000000E+00  0.00000000000E+00  0.30832026061E+04  0.30832026061E+04  0.25500000000E-02 0. -1.
         -2   -1    0    0    0  501 -0.00000000000E+00 -0.00000000000E+00 -0.19706370376E+03  0.19706370378E+03  0.25500000000E-02 0.  1.
    8880023    1    1    2    0    0 -0.12669052794E+03 -0.95638315689E+02  0.29685918726E+04  0.30449211960E+04  0.65864270000E+03 0. -1.
    8880022    1    1    2    0    0  0.12669052794E+03  0.95638315689E+02 -0.82452970304E+02  0.23534511388E+03  0.15294330000E+03 0.  0.
<mgrwt>
<rscale>  0 0.51168117E+03</rscale>
<asrwt>0</asrwt>
<pdfrwt beam="1">  1        2 0.47433884E+00 0.67750084E+03</pdfrwt>
<pdfrwt beam="2">  1       -2 0.30317494E-01 0.67750084E+03</pdfrwt>
<totfact> 0.16697625E+01</totfact>
</mgrwt>
</event>
<event>
 4    1  0.7280516E-007  0.7283155E+03  0.7818608E-02  0.9895392E-01
         -2   -1    0    0    0  501 -0.00000000000E+00  0.00000000000E+00  0.37611228992E+03  0.37611228993E+03  0.25500000000E-02 0.  1.
          2   -1    0    0  501    0  0.00000000000E+00 -0.00000000000E+00 -0.12348881133E+04  0.12348881133E+04  0.25500000000E-02 0. -1.
    8880023    1    1    2    0    0 -0.14590500643E+03 -0.27449043965E+03 -0.99980169145E+03  0.12369506461E+04  0.65864270000E+03 0. -1.
    8880022    1    1    2    0    0  0.14590500643E+03  0.27449043965E+03  0.14102586805E+03  0.37404975716E+03  0.15294330000E+03 0.  0.
<mgrwt>
<rscale>  0 0.60485127E+03</rscale>
<asrwt>0</asrwt>
<pdfrwt beam="1">  1        2 0.18998278E+00 0.72831551E+03</pdfrwt>
<pdfrwt beam="2">  1       -2 0.57863430E-01 0.72831551E+03</pdfrwt>
<totfact> 0.51499146E+01</totfact>
</mgrwt>
</event>
<event>
 4    1  0.7280516E-007  0.1175735E+04  0.7818608E-02  0.9181078E-01
         -2   -1    0    0    0  501 -0.00000000000E+00  0.00000000000E+00  0.22992256917E+04  0.22992256917E+04  0.25500000000E-02 0.  1.
          2   -1    0    0  501    0  0.00000000000E+00 -0.00000000000E+00 -0.94225421613E+03  0.94225421613E+03  0.25500000000E-02 0. -1.
    8880023    1    1    2    0    0 -0.91323888387E+03 -0.33843492591E+03 -0.38729608911E+03  0.12378820319E+04  0.65864270000E+03 0.  0.
    8880022    1    1    2    0    0  0.91323888387E+03  0.33843492591E+03  0.17442675647E+04  0.20035978759E+04  0.15294330000E+03 0.  0.
<mgrwt>
<rscale>  0 0.11250889E+04</rscale>
<asrwt>0</asrwt>
<pdfrwt beam="1">  1        2 0.14496219E+00 0.11757354E+04</pdfrwt>
<pdfrwt beam="2">  1       -2 0.35372702E+00 0.11757354E+04</pdfrwt>
<totfact> 0.39952648E-01</totfact>
</mgrwt>
</event>
<event>
 4    1  0.7280516E-007  0.1210404E+04  0.7818608E-02  0.9147075E-01
         -2   -1    0    0    0  501 -0.00000000000E+00  0.00000000000E+00  0.70240274111E+03  0.70240274111E+03  0.25500000000E-02 0.  1.
          2   -1    0    0  501    0  0.00000000000E+00 -0.00000000000E+00 -0.40161191265E+04  0.40161191265E+04  0.25500000000E-02 0. -1.
    8880023    1    1    2    0    0  0.79633611500E+03 -0.63017179313E+03 -0.34742710950E+04  0.36790810734E+04  0.65864270000E+03 0. -1.
    8880022    1    1    2    0    0 -0.79633611500E+03  0.63017179313E+03  0.16055470958E+03  0.10394407942E+04  0.15294330000E+03 0.  0.
<mgrwt>
<rscale>  0 0.11616808E+04</rscale>
<asrwt>0</asrwt>
<pdfrwt beam="1">  1        2 0.61786447E+00 0.12104040E+04</pdfrwt>
<pdfrwt beam="2">  1       -2 0.10806196E+00 0.12104040E+04</pdfrwt>
<totfact> 0.23023345E-01</totfact>
</mgrwt>
</event>
<event>
 4    1  0.7280516E-007  0.7261085E+03  0.7818608E-02  0.9902434E-01
         -2   -1    0    0    0  501 -0.00000000000E+00  0.00000000000E+00  0.33325091340E+03  0.33325091341E+03  0.25500000000E-02 0.  1.
          2   -1    0    0  501    0  0.00000000000E+00 -0.00000000000E+00 -0.16491717796E+04  0.16491717796E+04  0.25500000000E-02 0. -1.
    8880023    1    1    2    0    0  0.21342931849E+02  0.30490636753E+03 -0.14449215749E+04  0.16171060502E+04  0.65864270000E+03 0. -1.
    8880022    1    1    2    0    0 -0.21342931849E+02 -0.30490636753E+03  0.12900070866E+03  0.36531664286E+03  0.15294330000E+03 0.  0.
<mgrwt>
<rscale>  0 0.60143475E+03</rscale>
<asrwt>0</asrwt>
<pdfrwt beam="1">  1        2 0.25371873E+00 0.72610855E+03</pdfrwt>
<pdfrwt beam="2">  1       -2 0.51269372E-01 0.72610855E+03</pdfrwt>
<totfact> 0.38679471E+01</totfact>
</mgrwt>
</event>
<event>
 4    1  0.7280516E-007  0.8046116E+03  0.7818608E-02  0.9700912E-01
          2   -1    0    0  501    0  0.00000000000E+00  0.00000000000E+00  0.16210248612E+04  0.16210248612E+04  0.25500000000E-02 0. -1.
         -2   -1    0    0    0  501 -0.00000000000E+00 -0.00000000000E+00 -0.44452402426E+03  0.44452402427E+03  0.25500000000E-02 0.  1.
    8880023    1    1    2    0    0 -0.12510985902E+01  0.46215583688E+03  0.13305785827E+04  0.15549402412E+04  0.65864270000E+03 0. -1.
    8880022    1    1    2    0    0  0.12510985902E+01 -0.46215583688E+03 -0.15407774576E+03  0.51060864423E+03  0.15294330000E+03 0.  0.
<mgrwt>
<rscale>  0 0.70962507E+03</rscale>
<asrwt>0</asrwt>
<pdfrwt beam="1">  1        2 0.24938844E+00 0.80461158E+03</pdfrwt>
<pdfrwt beam="2">  1       -2 0.68388312E-01 0.80461158E+03</pdfrwt>
<totfact> 0.21639073E+01</totfact>
</mgrwt>
</event>
<event>
 4    1  0.7280516E-007  0.8984939E+03  0.7818608E-02  0.9528454E-01
         -2   -1    0    0    0  501 -0.00000000000E+00  0.00000000000E+00  0.79202650233E+03  0.79202650234E+03  0.25500000000E-02 0.  1.
          2   -1    0    0  501    0  0.00000000000E+00 -0.00000000000E+00 -0.13726120067E+04  0.13726120067E+04  0.25500000000E-02 0. -1.
    8880023    1    1    2    0    0  0.15354534601E+03  0.59152759857E+03 -0.10478255578E+04  0.13803005756E+04  0.65864270000E+03 0.  0.
    8880022    1    1    2    0    0 -0.15354534601E+03 -0.59152759857E+03  0.46724005349E+03  0.78433793339E+03  0.15294330000E+03 0.  0.
<mgrwt>
<rscale>  0 0.82218160E+03</rscale>
<asrwt>0</asrwt>
<pdfrwt beam="1">  1        2 0.21117108E+00 0.89849390E+03</pdfrwt>
<pdfrwt beam="2">  1       -2 0.12185023E+00 0.89849390E+03</pdfrwt>
<totfact> 0.77001516E+00</totfact>
</mgrwt>
</event>
<event>
 4    1  0.7280516E-007  0.8727914E+03  0.7818608E-02  0.9571203E-01
         -2   -1    0    0    0  501 -0.00000000000E+00  0.00000000000E+00  0.12381903937E+04  0.12381903937E+04  0.25500000000E-02 0.  1.
          2   -1    0    0  501    0  0.00000000000E+00 -0.00000000000E+00 -0.66173703779E+03  0.66173703779E+03  0.25500000000E-02 0. -1.
    8880023    1    1    2    0    0  0.21463427501E+03 -0.53093007069E+03 -0.22667697694E+03  0.90174678825E+03  0.65864270000E+03 0.  0.
    8880022    1    1    2    0    0 -0.21463427501E+03  0.53093007069E+03  0.80313033281E+03  0.99818064320E+03  0.15294330000E+03 0.  0.
<mgrwt>
<rscale>  0 0.79231843E+03</rscale>
<asrwt>0</asrwt>
<pdfrwt beam="1">  1        2 0.10180570E+00 0.87279139E+03</pdfrwt>
<pdfrwt beam="2">  1       -2 0.19049083E+00 0.87279139E+03</pdfrwt>
<totfact> 0.68012519E+00</totfact>
</mgrwt>
</event>
<event>
 4    1  0.7280516E-007  0.7020788E+03  0.7818608E-02  0.9988685E-01
          2   -1    0    0  501    0  0.00000000000E+00  0.00000000000E+00  0.57423128511E+03  0.57423128512E+03  0.25500000000E-02 0. -1.
         -2   -1    0    0    0  501 -0.00000000000E+00 -0.00000000000E+00 -0.63438937114E+03  0.63438937115E+03  0.25500000000E-02 0.  1.
    8880023    1    1    2    0    0  0.86961567638E+02 -0.22702877415E+03  0.28662955363E+03  0.75833441555E+03  0.65864270000E+03 0. -1.
    8880022    1    1    2    0    0 -0.86961567638E+02  0.22702877415E+03 -0.34678763966E+03  0.45028624071E+03  0.15294330000E+03 0.  0.
<mgrwt>
<rscale>  0 0.56149192E+03</rscale>
<asrwt>0</asrwt>
<pdfrwt beam="1">  1        2 0.88343275E-01 0.70207876E+03</pdfrwt>
<pdfrwt beam="2">  1       -2 0.97598365E-01 0.70207876E+03</pdfrwt>
<totfact> 0.46467618E+01</totfact>
</mgrwt>
</event>
<event>
 4    1  0.7280516E-007  0.9928686E+03  0.7818608E-02  0.9390948E-01
         -2   -1    0    0    0  501 -0.00000000000E+00  0.00000000000E+00  0.72169537863E+03  0.72169537864E+03  0.25500000000E-02 0.  1.
          2   -1    0    0  501    0  0.00000000000E+00 -0.00000000000E+00 -0.13821656569E+04  0.13821656569E+04  0.25500000000E-02 0. -1.
    8880023    1    1    2    0    0 -0.17556679155E+03 -0.72191009831E+03 -0.86654572414E+03  0.13178351895E+04  0.65864270000E+03 0. -1.
    8880022    1    1    2    0    0  0.17556679155E+03  0.72191009831E+03  0.20607544584E+03  0.78602584609E+03  0.15294330000E+03 0.  0.
<mgrwt>
<rscale>  0 0.92824410E+03</rscale>
<asrwt>0</asrwt>
<pdfrwt beam="1">  1        2 0.21264087E+00 0.99286862E+03</pdfrwt>
<pdfrwt beam="2">  1       -2 0.11103006E+00 0.99286862E+03</pdfrwt>
<totfact> 0.94658336E+00</totfact>
</mgrwt>
</event>
<event>
 4    1  0.7280516E-007  0.6818172E+03  0.7818608E-02  0.1008314E+00
         -2   -1    0    0    0  501 -0.00000000000E+00  0.00000000000E+00  0.23613770707E+03  0.23613770708E+03  0.25500000000E-02 0.  1.
          2   -1    0    0  501    0  0.00000000000E+00 -0.00000000000E+00 -0.17500492325E+04  0.17500492325E+04  0.25500000000E-02 0. -1.
    8880023    1    1    2    0    0 -0.41289195245E+02 -0.17134689235E+03 -0.15986059549E+04  0.17379343372E+04  0.65864270000E+03 0. -1.
    8880022    1    1    2    0    0  0.41289195245E+02  0.17134689235E+03  0.84694429509E+02  0.24825260233E+03  0.15294330000E+03 0.  0.
<mgrwt>
<rscale>  0 0.52150312E+03</rscale>
<asrwt>0</asrwt>
<pdfrwt beam="1">  1        2 0.26923834E+00 0.68181725E+03</pdfrwt>
<pdfrwt beam="2">  1       -2 0.36328879E-01 0.68181725E+03</pdfrwt>
<totfact> 0.67679233E+01</totfact>
</mgrwt>
</event>
<event>
 4    1  0.7280516E-007  0.9814787E+03  0.7818608E-02  0.9406201E-01
          2   -1    0    0  501    0  0.00000000000E+00  0.00000000000E+00  0.36221381602E+03  0.36221381603E+03  0.25500000000E-02 0. -1.
         -2   -1    0    0    0  501 -0.00000000000E+00 -0.00000000000E+00 -0.37767157801E+04  0.37767157801E+04  0.25500000000E-02 0.  1.
    8880023    1    1    2    0    0  0.14262274248E+03  0.71354675315E+03 -0.44481806906E+03  0.10775729843E+04  0.65864270000E+03 0. -1.
    8880022    1    1    2    0    0 -0.14262274248E+03 -0.71354675315E+03 -0.29696838950E+04  0.30613566118E+04  0.15294330000E+03 0.  0.
<mgrwt>
<rscale>  0 0.91567151E+03</rscale>
<asrwt>0</asrwt>
<pdfrwt beam="1">  1        2 0.55725205E-01 0.98147869E+03</pdfrwt>
<pdfrwt beam="2">  1       -2 0.58103317E+00 0.98147869E+03</pdfrwt>
<totfact> 0.53535731E-02</totfact>
</mgrwt>
</event>
<event>
 4    1  0.7280516E-007  0.1126202E+04  0.7818608E-02  0.9232429E-01
         -2   -1    0    0    0  501 -0.00000000000E+00  0.00000000000E+00  0.95125157759E+03  0.95125157759E+03  0.25500000000E-02 0.  1.
          2   -1    0    0  501    0  0.00000000000E+00 -0.00000000000E+00 -0.17139979680E+04  0.17139979680E+04  0.25500000000E-02 0. -1.
    8880023    1    1    2    0    0 -0.89480915059E+03 -0.18394833472E+03 -0.11959195291E+04  0.16427276500E+04  0.65864270000E+03 0.  0.
    8880022    1    1    2    0    0  0.89480915059E+03  0.18394833472E+03  0.43317313867E+03  0.10225218956E+04  0.15294330000E+03 0.  0.
<mgrwt>
<rscale>  0 0.10724882E+04</rscale>
<asrwt>0</asrwt>
<pdfrwt beam="1">  1        2 0.26369199E+00 0.11262019E+04</pdfrwt>
<pdfrwt beam="2">  1       -2 0.14634640E+00 0.11262019E+04</pdfrwt>
<totfact> 0.30192141E+00</totfact>
</mgrwt>
</event>
<event>
 4    1  0.7280516E-007  0.1589920E+04  0.7818608E-02  0.8848619E-01
          2   -1    0    0  501    0  0.00000000000E+00  0.00000000000E+00  0.28641431937E+04  0.28641431937E+04  0.25500000000E-02 0. -1.
         -2   -1    0    0    0  501 -0.00000000000E+00 -0.00000000000E+00 -0.10538011264E+04  0.10538011264E+04  0.25500000000E-02 0.  1.
    8880023    1    1    2    0    0 -0.14058132487E+04  0.34310774136E+03  0.18787394716E+04  0.24612001180E+04  0.65864270000E+03 0.  1.
    8880022    1    1    2    0    0  0.14058132487E+04 -0.34310774136E+03 -0.68397404351E+02  0.14567442021E+04  0.15294330000E+03 0. -1.
<mgrwt>
<rscale>  0 0.15550966E+04</rscale>
<asrwt>0</asrwt>
<pdfrwt beam="1">  1        2 0.44063742E+00 0.15899195E+04</pdfrwt>
<pdfrwt beam="2">  1       -2 0.16212325E+00 0.15899195E+04</pdfrwt>
<totfact> 0.48064208E-01</totfact>
</mgrwt>
</event>
<event>
 4    1  0.7280516E-007  0.6711933E+03  0.7818608E-02  0.1014821E+00
         -2   -1    0    0    0  501 -0.00000000000E+00  0.00000000000E+00  0.11808966211E+03  0.11808966213E+03  0.25500000000E-02 0.  1.
          2   -1    0    0  501    0  0.00000000000E+00 -0.00000000000E+00 -0.29095113106E+04  0.29095113106E+04  0.25500000000E-02 0. -1.
    8880023    1    1    2    0    0 -0.79602320278E+02  0.10175313712E+03 -0.27398443353E+04  0.28208593404E+04  0.65864270000E+03 0. -1.
    8880022    1    1    2    0    0  0.79602320278E+02 -0.10175313712E+03 -0.51577313238E+02  0.20674163239E+03  0.15294330000E+03 0.  0.
<mgrwt>
<rscale>  0 0.49602575E+03</rscale>
<asrwt>0</asrwt>
<pdfrwt beam="1">  1        2 0.44761707E+00 0.67119329E+03</pdfrwt>
<pdfrwt beam="2">  1       -2 0.18167643E-01 0.67119329E+03</pdfrwt>
<totfact> 0.53265501E+01</totfact>
</mgrwt>
</event>
<event>
 4    1  0.7280516E-007  0.6661243E+03  0.7818608E-02  0.1018608E+00
          2   -1    0    0  501    0  0.00000000000E+00  0.00000000000E+00  0.10849839825E+04  0.10849839825E+04  0.25500000000E-02 0. -1.
         -2   -1    0    0    0  501 -0.00000000000E+00 -0.00000000000E+00 -0.29455942570E+03  0.29455942571E+03  0.25500000000E-02 0.  1.
    8880023    1    1    2    0    0 -0.62791612209E+02  0.77257016060E+02  0.93409688922E+03  0.11472831550E+04  0.65864270000E+03 0. -1.
    8880022    1    1    2    0    0  0.62791612209E+02 -0.77257016060E+02 -0.14367233241E+03  0.23226025319E+03  0.15294330000E+03 0.  0.
<mgrwt>
<rscale>  0 0.48192232E+03</rscale>
<asrwt>0</asrwt>
<pdfrwt beam="1">  1        2 0.16692061E+00 0.66612434E+03</pdfrwt>
<pdfrwt beam="2">  1       -2 0.45316835E-01 0.66612434E+03</pdfrwt>
<totfact> 0.10492224E+02</totfact>
</mgrwt>
</event>
<event>
 4    1  0.7280516E-007  0.7062310E+03  0.7818608E-02  0.9972273E-01
         -2   -1    0    0    0  501 -0.00000000000E+00  0.00000000000E+00  0.33081461645E+03  0.33081461646E+03  0.25500000000E-02 0.  1.
          2   -1    0    0  501    0  0.00000000000E+00 -0.00000000000E+00 -0.10797800788E+04  0.10797800788E+04  0.25500000000E-02 0. -1.
    8880023    1    1    2    0    0 -0.94578726251E+02 -0.23665760378E+03 -0.84217092281E+03  0.10990969140E+04  0.65864270000E+03 0. -1.
    8880022    1    1    2    0    0  0.94578726251E+02  0.23665760378E+03  0.93205460419E+02  0.31149778130E+03  0.15294330000E+03 0.  1.
<mgrwt>
<rscale>  0 0.56882930E+03</rscale>
<asrwt>0</asrwt>
<pdfrwt beam="1">  1        2 0.16612001E+00 0.70623096E+03</pdfrwt>
<pdfrwt beam="2">  1       -2 0.50894557E-01 0.70623096E+03</pdfrwt>
<totfact> 0.83351840E+01</totfact>
</mgrwt>
</event>
<event>
 4    1  0.7280516E-007  0.7072850E+03  0.7818608E-02  0.9968225E-01
         -2   -1    0    0    0  501 -0.00000000000E+00  0.00000000000E+00  0.90171394184E+03  0.90171394184E+03  0.25500000000E-02 0.  1.
          2   -1    0    0  501    0  0.00000000000E+00 -0.00000000000E+00 -0.28853450230E+03  0.28853450231E+03  0.25500000000E-02 0. -1.
    8880023    1    1    2    0    0 -0.39400676859E+02 -0.25473397249E+03  0.34021327373E+03  0.78485481967E+03  0.65864270000E+03 0. -1.
    8880022    1    1    2    0    0  0.39400676859E+02  0.25473397249E+03  0.27296616581E+03  0.40539362448E+03  0.15294330000E+03 0. -1.
<mgrwt>
<rscale>  0 0.57065757E+03</rscale>
<asrwt>0</asrwt>
<pdfrwt beam="1">  1        2 0.44389924E-01 0.70728496E+03</pdfrwt>
<pdfrwt beam="2">  1       -2 0.13872522E+00 0.70728496E+03</pdfrwt>
<totfact> 0.42751340E+01</totfact>
</mgrwt>
</event>
<event>
 4    1  0.7280516E-007  0.7009573E+03  0.7818608E-02  0.9993253E-01
          2   -1    0    0  501    0  0.00000000000E+00  0.00000000000E+00  0.19443887135E+04  0.19443887135E+04  0.25500000000E-02 0. -1.
         -2   -1    0    0    0  501 -0.00000000000E+00 -0.00000000000E+00 -0.16718877019E+03  0.16718877021E+03  0.25500000000E-02 0.  1.
    8880023    1    1    2    0    0  0.21547698204E+03  0.10535946492E+03  0.16636374043E+04  0.18052785286E+04  0.65864270000E+03 0. -1.
    8880022    1    1    2    0    0 -0.21547698204E+03 -0.10535946492E+03  0.11356253907E+03  0.30629895516E+03  0.15294330000E+03 0.  1.
<mgrwt>
<rscale>  0 0.55947078E+03</rscale>
<asrwt>0</asrwt>
<pdfrwt beam="1">  1        2 0.29913672E+00 0.70095731E+03</pdfrwt>
<pdfrwt beam="2">  1       -2 0.25721350E-01 0.70095731E+03</pdfrwt>
<totfact> 0.10064345E+02</totfact>
</mgrwt>
</event>
<event>
 4    1  0.7280516E-007  0.8595289E+03  0.7818608E-02  0.9594402E-01
         -2   -1    0    0    0  501 -0.00000000000E+00  0.00000000000E+00  0.29994242049E+03  0.29994242050E+03  0.25500000000E-02 0.  1.
          2   -1    0    0  501    0  0.00000000000E+00 -0.00000000000E+00 -0.23742551286E+04  0.23742551286E+04  0.25500000000E-02 0. -1.
    8880023    1    1    2    0    0  0.53113676388E+03 -0.15123962107E+03 -0.48989137004E+03  0.98933485010E+03  0.65864270000E+03 0.  1.
    8880022    1    1    2    0    0 -0.53113676388E+03  0.15123962107E+03 -0.15844213380E+04  0.16848626990E+04  0.15294330000E+03 0.  0.
<mgrwt>
<rscale>  0 0.77667801E+03</rscale>
<asrwt>0</asrwt>
<pdfrwt beam="1">  1        2 0.36527001E+00 0.85952888E+03</pdfrwt>
<pdfrwt beam="2">  1       -2 0.46144989E-01 0.85952888E+03</pdfrwt>
<totfact> 0.18808113E+01</totfact>
</mgrwt>
</event>
<event>
 4    1  0.1801834E-006  0.9687365E+03  0.7818608E-02  0.9423654E-01
         -2   -1    0    0    0  501 -0.00000000000E+00  0.00000000000E+00  0.14023130540E+04  0.14023130540E+04  0.25500000000E-02 0.  1.
          2   -1    0    0  501    0  0.00000000000E+00 -0.00000000000E+00 -0.20968676052E+04  0.20968676052E+04  0.25500000000E-02 0. -1.
    8880023    1    1    2    0    0  0.25045658200E+03  0.66476443624E+03 -0.18764577305E+04  0.21117632623E+04  0.65864270000E+03 0. -1.
    8880022    1    1    2    0    0 -0.25045658200E+03 -0.66476443624E+03  0.11819031793E+04  0.13874173970E+04  0.15294330000E+03 0.  0.
<mgrwt>
<rscale>  0 0.90154369E+03</rscale>
<asrwt>0</asrwt>
<pdfrwt beam="1">  1        2 0.32259502E+00 0.96873653E+03</pdfrwt>
<pdfrwt beam="2">  1       -2 0.21574047E+00 0.96873653E+03</pdfrwt>
<totfact> 0.62450978E-01</totfact>
</mgrwt>
</event>
<event>
 4    1  0.7280516E-007  0.7796838E+03  0.7818608E-02  0.9756580E-01
          2   -1    0    0  501    0  0.00000000000E+00  0.00000000000E+00  0.98509405736E+03  0.98509405736E+03  0.25500000000E-02 0. -1.
         -2   -1    0    0    0  501 -0.00000000000E+00 -0.00000000000E+00 -0.38516292907E+03  0.38516292908E+03  0.25500000000E-02 0.  1.
    8880023    1    1    2    0    0 -0.73572010268E+02 -0.41071133275E+03  0.30671177406E+03  0.83784184555E+03  0.65864270000E+03 0.  0.
    8880022    1    1    2    0    0  0.73572010268E+02  0.41071133275E+03  0.29321935423E+03  0.53241514090E+03  0.15294330000E+03 0.  1.
<mgrwt>
<rscale>  0 0.67745672E+03</rscale>
<asrwt>0</asrwt>
<pdfrwt beam="1">  1        2 0.15155293E+00 0.77968381E+03</pdfrwt>
<pdfrwt beam="2">  1       -2 0.59255834E-01 0.77968381E+03</pdfrwt>
<totfact> 0.69321435E+01</totfact>
</mgrwt>
</event>
<event>
 4    1  0.7280516E-007  0.8471057E+03  0.7818608E-02  0.9616925E-01
         -2   -1    0    0    0  501 -0.00000000000E+00  0.00000000000E+00  0.93016176626E+03  0.93016176627E+03  0.25500000000E-02 0.  1.
          2   -1    0    0  501    0  0.00000000000E+00 -0.00000000000E+00 -0.11490378084E+04  0.11490378084E+04  0.25500000000E-02 0. -1.
    8880023    1    1    2    0    0 -0.51707596469E+03  0.12810289634E+03 -0.87665263907E+03  0.12190602779E+04  0.65864270000E+03 0.  0.
    8880022    1    1    2    0    0  0.51707596469E+03 -0.12810289634E+03  0.65777659695E+03  0.86013929675E+03  0.15294330000E+03 0.  0.
<mgrwt>
<rscale>  0 0.76186055E+03</rscale>
<asrwt>0</asrwt>
<pdfrwt beam="1">  1        2 0.17677505E+00 0.84710573E+03</pdfrwt>
<pdfrwt beam="2">  1       -2 0.14310181E+00 0.84710573E+03</pdfrwt>
<totfact> 0.69497954E+00</totfact>
</mgrwt>
</event>
<event>
 4    1  0.1542876E-006  0.9166515E+03  0.7818608E-02  0.9499812E-01
         -2   -1    0    0    0  501 -0.00000000000E+00  0.00000000000E+00  0.10640013243E+04  0.10640013243E+04  0.25500000000E-02 0.  1.
          2   -1    0    0  501    0  0.00000000000E+00 -0.00000000000E+00 -0.26557614350E+04  0.26557614350E+04  0.25500000000E-02 0. -1.
    8880023    1    1    2    0    0  0.51670435372E+03 -0.37343869261E+03 -0.24637806516E+04  0.26287763602E+04  0.65864270000E+03 0.  0.
    8880022    1    1    2    0    0 -0.51670435372E+03  0.37343869261E+03  0.87202054089E+03  0.10909863991E+04  0.15294330000E+03 0.  0.
<mgrwt>
<rscale>  0 0.84297653E+03</rscale>
<asrwt>0</asrwt>
<pdfrwt beam="1">  1        2 0.40857868E+00 0.91665154E+03</pdfrwt>
<pdfrwt beam="2">  1       -2 0.16369251E+00 0.91665154E+03</pdfrwt>
<totfact> 0.68332441E-01</totfact>
</mgrwt>
</event>
<event>
 4    1  0.7280516E-007  0.8035747E+03  0.7818608E-02  0.9703119E-01
          2   -1    0    0  501    0  0.00000000000E+00  0.00000000000E+00  0.25630819746E+04  0.25630819746E+04  0.25500000000E-02 0. -1.
         -2   -1    0    0    0  501 -0.00000000000E+00 -0.00000000000E+00 -0.45981076808E+03  0.45981076809E+03  0.25500000000E-02 0.  1.
    8880023    1    1    2    0    0 -0.34070774059E+03 -0.30958090545E+03  0.23464691672E+04  0.24802519752E+04  0.65864270000E+03 0.  0.
    8880022    1    1    2    0    0  0.34070774059E+03  0.30958090545E+03 -0.24319796065E+03  0.54264076754E+03  0.15294330000E+03 0.  0.
<mgrwt>
<rscale>  0 0.70831364E+03</rscale>
<asrwt>0</asrwt>
<pdfrwt beam="1">  1        2 0.39432031E+00 0.80357471E+03</pdfrwt>
<pdfrwt beam="2">  1       -2 0.70740117E-01 0.80357471E+03</pdfrwt>
<totfact> 0.60543180E+00</totfact>
</mgrwt>
</event>
<event>
 4    1  0.7280516E-007  0.8929652E+03  0.7818608E-02  0.9537420E-01
         -2   -1    0    0    0  501 -0.00000000000E+00  0.00000000000E+00  0.53694271090E+03  0.53694271091E+03  0.25500000000E-02 0.  1.
          2   -1    0    0  501    0  0.00000000000E+00 -0.00000000000E+00 -0.14780150317E+04  0.14780150317E+04  0.25500000000E-02 0. -1.
    8880023    1    1    2    0    0 -0.34640226149E+03  0.49354032601E+03 -0.10553889125E+04  0.13824733426E+04  0.65864270000E+03 0.  0.
    8880022    1    1    2    0    0  0.34640226149E+03 -0.49354032601E+03  0.11431659164E+03  0.63248440004E+03  0.15294330000E+03 0.  0.
<mgrwt>
<rscale>  0 0.81580301E+03</rscale>
<asrwt>0</asrwt>
<pdfrwt beam="1">  1        2 0.22738693E+00 0.89296517E+03</pdfrwt>
<pdfrwt beam="2">  1       -2 0.82606572E-01 0.89296517E+03</pdfrwt>
<totfact> 0.16916828E+01</totfact>
</mgrwt>
</event>
<event>
 4    1  0.7280516E-007  0.9442199E+03  0.7818608E-02  0.9458480E-01
          2   -1    0    0  501    0  0.00000000000E+00  0.00000000000E+00  0.11437825899E+04  0.11437825899E+04  0.25500000000E-02 0. -1.
         -2   -1    0    0    0  501 -0.00000000000E+00 -0.00000000000E+00 -0.92739500630E+03  0.92739500630E+03  0.25500000000E-02 0.  1.
    8880023    1    1    2    0    0  0.23256010256E+03 -0.63533990511E+03  0.74200709288E+03  0.12008853936E+04  0.65864270000E+03 0.  0.
    8880022    1    1    2    0    0 -0.23256010256E+03  0.63533990511E+03 -0.52561950932E+03  0.87029220261E+03  0.15294330000E+03 0.  0.
<mgrwt>
<rscale>  0 0.87415403E+03</rscale>
<asrwt>0</asrwt>
<pdfrwt beam="1">  1        2 0.17596655E+00 0.94421989E+03</pdfrwt>
<pdfrwt beam="2">  1       -2 0.14267616E+00 0.94421989E+03</pdfrwt>
<totfact> 0.69807798E+00</totfact>
</mgrwt>
</event>
<event>
 4    1  0.7280516E-007  0.1482590E+04  0.7818608E-02  0.8922029E-01
          2   -1    0    0  501    0  0.00000000000E+00  0.00000000000E+00  0.13853332693E+04  0.13853332693E+04  0.25500000000E-02 0. -1.
         -2   -1    0    0    0  501 -0.00000000000E+00 -0.00000000000E+00 -0.23012069324E+04  0.23012069324E+04  0.25500000000E-02 0.  1.
    8880023    1    1    2    0    0 -0.11397089797E+04 -0.68214808327E+03  0.65746061834E+03  0.16218283623E+04  0.65864270000E+03 0.  0.
    8880022    1    1    2    0    0  0.11397089797E+04  0.68214808327E+03 -0.15733342814E+04  0.20647118395E+04  0.15294330000E+03 0.  0.
<mgrwt>
<rscale>  0 0.14447783E+04</rscale>
<asrwt>0</asrwt>
<pdfrwt beam="1">  1        2 0.21312819E+00 0.14825899E+04</pdfrwt>
<pdfrwt beam="2">  1       -2 0.35403184E+00 0.14825899E+04</pdfrwt>
<totfact> 0.20465162E-01</totfact>
</mgrwt>
</event>
<event>
 4    1  0.7280516E-007  0.6619734E+03  0.7818608E-02  0.1022220E+00
         -2   -1    0    0    0  501 -0.00000000000E+00  0.00000000000E+00  0.21998007239E+03  0.21998007240E+03  0.25500000000E-02 0.  1.
          2   -1    0    0  501    0  0.00000000000E+00 -0.00000000000E+00 -0.11795013189E+04  0.11795013189E+04  0.25500000000E-02 0. -1.
    8880023    1    1    2    0    0  0.65739575309E+02 -0.87674945953E+01 -0.10251668241E+04  0.12203179029E+04  0.65864270000E+03 0. -1.
    8880022    1    1    2    0    0 -0.65739575309E+02  0.87674945953E+01  0.65645577524E+02  0.17916348843E+03  0.15294330000E+03 0.  0.
<mgrwt>
<rscale>  0 0.46893957E+03</rscale>
<asrwt>0</asrwt>
<pdfrwt beam="1">  1        2 0.18146174E+00 0.66197339E+03</pdfrwt>
<pdfrwt beam="2">  1       -2 0.33843089E-01 0.66197339E+03</pdfrwt>
<totfact> 0.16218614E+02</totfact>
</mgrwt>
</event>
<event>
 4    1  0.7280516E-007  0.7101235E+03  0.7818608E-02  0.9957543E-01
          2   -1    0    0  501    0  0.00000000000E+00  0.00000000000E+00  0.16217841258E+04  0.16217841258E+04  0.25500000000E-02 0. -1.
         -2   -1    0    0    0  501 -0.00000000000E+00 -0.00000000000E+00 -0.36905318229E+03  0.36905318230E+03  0.25500000000E-02 0.  1.
    8880023    1    1    2    0    0  0.17362481658E+03 -0.20079734916E+03  0.14582242679E+04  0.16219412363E+04  0.65864270000E+03 0.  0.
    8880022    1    1    2    0    0 -0.17362481658E+03  0.20079734916E+03 -0.20549332441E+03  0.36889607176E+03  0.15294330000E+03 0.  0.
<mgrwt>
<rscale>  0 0.57551762E+03</rscale>
<asrwt>0</asrwt>
<pdfrwt beam="1">  1        2 0.24950526E+00 0.71012348E+03</pdfrwt>
<pdfrwt beam="2">  1       -2 0.56777411E-01 0.71012348E+03</pdfrwt>
<totfact> 0.32493669E+01</totfact>
</mgrwt>
</event>
<event>
 4    1  0.7280516E-007  0.9493227E+03  0.7818608E-02  0.9451089E-01
          2   -1    0    0  501    0  0.00000000000E+00  0.00000000000E+00  0.30300029575E+04  0.30300029575E+04  0.25500000000E-02 0. -1.
         -2   -1    0    0    0  501 -0.00000000000E+00 -0.00000000000E+00 -0.23964949334E+03  0.23964949335E+03  0.25500000000E-02 0.  1.
    8880023    1    1    2    0    0 -0.48232183685E+03  0.48452969772E+03  0.19976280180E+04  0.22117258616E+04  0.65864270000E+03 0. -1.
    8880022    1    1    2    0    0  0.48232183685E+03 -0.48452969772E+03  0.79272544617E+03  0.10579265893E+04  0.15294330000E+03 0.  1.
<mgrwt>
<rscale>  0 0.87987893E+03</rscale>
<asrwt>0</asrwt>
<pdfrwt beam="1">  1        2 0.46615427E+00 0.94932270E+03</pdfrwt>
<pdfrwt beam="2">  1       -2 0.36869155E-01 0.94932270E+03</pdfrwt>
<totfact> 0.11908309E+01</totfact>
</mgrwt>
</event>
<event>
 4    1  0.7280516E-007  0.1159737E+04  0.7818608E-02  0.9197290E-01
          2   -1    0    0  501    0  0.00000000000E+00  0.00000000000E+00  0.15420570935E+04  0.15420570935E+04  0.25500000000E-02 0. -1.
         -2   -1    0    0    0  501 -0.00000000000E+00 -0.00000000000E+00 -0.99782886449E+03  0.99782886449E+03  0.25500000000E-02 0.  1.
    8880023    1    1    2    0    0  0.94654445630E+03 -0.12342260109E+03  0.94240736479E+03  0.14943632068E+04  0.65864270000E+03 0.  0.
    8880022    1    1    2    0    0 -0.94654445630E+03  0.12342260109E+03 -0.39817913577E+03  0.10455227513E+04  0.15294330000E+03 0.  0.
<mgrwt>
<rscale>  0 0.11081439E+04</rscale>
<asrwt>0</asrwt>
<pdfrwt beam="1">  1        2 0.23723955E+00 0.11597369E+04</pdfrwt>
<pdfrwt beam="2">  1       -2 0.15351213E+00 0.11597369E+04</pdfrwt>
<totfact> 0.33035223E+00</totfact>
</mgrwt>
</event>
<event>
 4    1  0.7280516E-007  0.6805377E+03  0.7818608E-02  0.1009021E+00
         -2   -1    0    0    0  501 -0.00000000000E+00  0.00000000000E+00  0.75355038138E+02  0.75355038181E+02  0.25500000000E-02 0.  1.
          2   -1    0    0  501    0  0.00000000000E+00 -0.00000000000E+00 -0.29988446258E+04  0.29988446258E+04  0.25500000000E-02 0. -1.
    8880023    1    1    2    0    0 -0.62833421029E+02  0.15929025002E+03 -0.25167224625E+04  0.26071101975E+04  0.65864270000E+03 0. -1.
    8880022    1    1    2    0    0  0.62833421029E+02 -0.15929025002E+03 -0.40676712522E+03  0.46708946651E+03  0.15294330000E+03 0.  1.
<mgrwt>
<rscale>  0 0.51865547E+03</rscale>
<asrwt>0</asrwt>
<pdfrwt beam="1">  1        2 0.46136062E+00 0.68053775E+03</pdfrwt>
<pdfrwt beam="2">  1       -2 0.11593085E-01 0.68053775E+03</pdfrwt>
<totfact> 0.10006463E+02</totfact>
</mgrwt>
</event>
<event>
 4    1  0.7280516E-007  0.8965606E+03  0.7818608E-02  0.9531576E-01
         -2   -1    0    0    0  501 -0.00000000000E+00  0.00000000000E+00  0.15193775684E+04  0.15193775684E+04  0.25500000000E-02 0.  1.
          2   -1    0    0  501    0  0.00000000000E+00 -0.00000000000E+00 -0.79170870730E+03  0.79170870730E+03  0.25500000000E-02 0. -1.
    8880023    1    1    2    0    0  0.48123725343E+03  0.37205016286E+03  0.12197978266E+04  0.15138452899E+04  0.65864270000E+03 0.  1.
    8880022    1    1    2    0    0 -0.48123725343E+03 -0.37205016286E+03 -0.49212896547E+03  0.79724098580E+03  0.15294330000E+03 0. -1.
<mgrwt>
<rscale>  0 0.81995370E+03</rscale>
<asrwt>0</asrwt>
<pdfrwt beam="1">  1        2 0.12180134E+00 0.89656055E+03</pdfrwt>
<pdfrwt beam="2">  1       -2 0.23375039E+00 0.89656055E+03</pdfrwt>
<totfact> 0.28514047E+00</totfact>
</mgrwt>
</event>
<event>
 4    1  0.7280516E-007  0.6792308E+03  0.7818608E-02  0.1009762E+00
         -2   -1    0    0    0  501 -0.00000000000E+00  0.00000000000E+00  0.23014781313E+03  0.23014781314E+03  0.25500000000E-02 0.  1.
          2   -1    0    0  501    0  0.00000000000E+00 -0.00000000000E+00 -0.21354057937E+04  0.21354057937E+04  0.25500000000E-02 0. -1.
    8880023    1    1    2    0    0  0.13301344660E+02 -0.16543086572E+03 -0.20063880256E+04  0.21182415850E+04  0.65864270000E+03 0. -1.
    8880022    1    1    2    0    0 -0.13301344660E+02  0.16543086572E+03  0.10113004502E+03  0.24731202179E+03  0.15294330000E+03 0.  0.
<mgrwt>
<rscale>  0 0.51569282E+03</rscale>
<asrwt>0</asrwt>
<pdfrwt beam="1">  1        2 0.32852396E+00 0.67923082E+03</pdfrwt>
<pdfrwt beam="2">  1       -2 0.35407357E-01 0.67923082E+03</pdfrwt>
<totfact> 0.43872753E+01</totfact>
</mgrwt>
</event>
<event>
 4    1  0.7280516E-007  0.1122257E+04  0.7818608E-02  0.9236671E-01
         -2   -1    0    0    0  501 -0.00000000000E+00  0.00000000000E+00  0.48889879087E+03  0.48889879087E+03  0.25500000000E-02 0.  1.
          2   -1    0    0  501    0  0.00000000000E+00 -0.00000000000E+00 -0.25929240825E+04  0.25929240825E+04  0.25500000000E-02 0. -1.
    8880023    1    1    2    0    0 -0.17301395336E+03 -0.89202994111E+03 -0.17816060789E+04  0.21056071976E+04  0.65864270000E+03 0.  0.
    8880022    1    1    2    0    0  0.17301395336E+03  0.89202994111E+03 -0.32241921273E+03  0.97621567578E+03  0.15294330000E+03 0.  0.
<mgrwt>
<rscale>  0 0.10682811E+04</rscale>
<asrwt>0</asrwt>
<pdfrwt beam="1">  1        2 0.39891139E+00 0.11222573E+04</pdfrwt>
<pdfrwt beam="2">  1       -2 0.75215200E-01 0.11222573E+04</pdfrwt>
<totfact> 0.48605544E+00</totfact>
</mgrwt>
</event>
<event>
 4    1  0.7280516E-007  0.1366474E+04  0.7818608E-02  0.9010181E-01
         -2   -1    0    0    0  501 -0.00000000000E+00  0.00000000000E+00  0.85721168911E+03  0.85721168911E+03  0.25500000000E-02 0.  1.
          2   -1    0    0  501    0  0.00000000000E+00 -0.00000000000E+00 -0.22123260928E+04  0.22123260928E+04  0.25500000000E-02 0. -1.
    8880023    1    1    2    0    0 -0.82311824474E+02  0.11944313706E+04 -0.12601323748E+04  0.18588128857E+04  0.65864270000E+03 0. -1.
    8880022    1    1    2    0    0  0.82311824474E+02 -0.11944313706E+04 -0.94982028920E+02  0.12107248963E+04  0.15294330000E+03 0.  0.
<mgrwt>
<rscale>  0 0.13247298E+04</rscale>
<asrwt>0</asrwt>
<pdfrwt beam="1">  1        2 0.34035786E+00 0.13664742E+04</pdfrwt>
<pdfrwt beam="2">  1       -2 0.13187872E+00 0.13664742E+04</pdfrwt>
<totfact> 0.20415074E+00</totfact>
</mgrwt>
</event>
<event>
 4    1  0.7280516E-007  0.1155217E+04  0.7818608E-02  0.9201934E-01
          2   -1    0    0  501    0  0.00000000000E+00  0.00000000000E+00  0.13911498033E+04  0.13911498033E+04  0.25500000000E-02 0. -1.
         -2   -1    0    0    0  501 -0.00000000000E+00 -0.00000000000E+00 -0.14978885702E+04  0.14978885702E+04  0.25500000000E-02 0.  1.
    8880023    1    1    2    0    0  0.93864577013E+03 -0.14021264048E+03  0.92422452079E+03  0.14794311871E+04  0.65864270000E+03 0.  0.
    8880022    1    1    2    0    0 -0.93864577013E+03  0.14021264048E+03 -0.10309632876E+04  0.14096071863E+04  0.15294330000E+03 0.  0.
<mgrwt>
<rscale>  0 0.11033490E+04</rscale>
<asrwt>0</asrwt>
<pdfrwt beam="1">  1        2 0.21402305E+00 0.11552167E+04</pdfrwt>
<pdfrwt beam="2">  1       -2 0.23044440E+00 0.11552167E+04</pdfrwt>
<totfact> 0.12138543E+00</totfact>
</mgrwt>
</event>
<event>
 4    1  0.7280516E-007  0.7445589E+03  0.7818608E-02  0.9846861E-01
          2   -1    0    0  501    0  0.00000000000E+00  0.00000000000E+00  0.94781237123E+03  0.94781237123E+03  0.25500000000E-02 0. -1.
         -2   -1    0    0    0  501 -0.00000000000E+00 -0.00000000000E+00 -0.44297022859E+03  0.44297022859E+03  0.25500000000E-02 0.  1.
    8880023    1    1    2    0    0  0.34449553390E+03  0.43365990200E+02  0.64622654611E+03  0.98588880567E+03  0.65864270000E+03 0. -1.
    8880022    1    1    2    0    0 -0.34449553390E+03 -0.43365990200E+02 -0.14138440347E+03  0.40489379415E+03  0.15294330000E+03 0.  0.
<mgrwt>
<rscale>  0 0.62907228E+03</rscale>
<asrwt>0</asrwt>
<pdfrwt beam="1">  1        2 0.14581729E+00 0.74455892E+03</pdfrwt>
<pdfrwt beam="2">  1       -2 0.68149267E-01 0.74455892E+03</pdfrwt>
<totfact> 0.54503829E+01</totfact>
</mgrwt>
</event>
<event>
 4    1  0.7280516E-007  0.7181534E+03  0.7818608E-02  0.9928885E-01
         -2   -1    0    0    0  501 -0.00000000000E+00  0.00000000000E+00  0.11249926857E+03  0.11249926859E+03  0.25500000000E-02 0.  1.
          2   -1    0    0  501    0  0.00000000000E+00 -0.00000000000E+00 -0.44382141654E+04  0.44382141654E+04  0.25500000000E-02 0. -1.
    8880023    1    1    2    0    0 -0.26128411924E+03 -0.11689598494E+03 -0.40824196710E+04  0.41451049008E+04  0.65864270000E+03 0.  0.
    8880022    1    1    2    0    0  0.26128411924E+03  0.11689598494E+03 -0.24329522582E+03  0.40560853317E+03  0.15294330000E+03 0.  0.
<mgrwt>
<rscale>  0 0.58881614E+03</rscale>
<asrwt>0</asrwt>
<pdfrwt beam="1">  1        2 0.68280204E+00 0.71815337E+03</pdfrwt>
<pdfrwt beam="2">  1       -2 0.17307583E-01 0.71815337E+03</pdfrwt>
<totfact> 0.44030228E+00</totfact>
</mgrwt>
</event>
<event>
 4    1  0.7280516E-007  0.7019379E+03  0.7818608E-02  0.9989255E-01
         -2   -1    0    0    0  501 -0.00000000000E+00  0.00000000000E+00  0.22496332158E+04  0.22496332158E+04  0.25500000000E-02 0.  1.
          2   -1    0    0  501    0  0.00000000000E+00 -0.00000000000E+00 -0.38638744742E+03  0.38638744743E+03  0.25500000000E-02 0. -1.
    8880023    1    1    2    0    0 -0.61619371527E+02 -0.23475445487E+03 -0.47799111536E+02  0.70356347429E+03  0.65864270000E+03 0. -1.
    8880022    1    1    2    0    0  0.61619371527E+02  0.23475445487E+03  0.19110448799E+04  0.19324571889E+04  0.15294330000E+03 0.  0.
<mgrwt>
<rscale>  0 0.56123900E+03</rscale>
<asrwt>0</asrwt>
<pdfrwt beam="1">  1        2 0.59444223E-01 0.70193789E+03</pdfrwt>
<pdfrwt beam="2">  1       -2 0.34609741E+00 0.70193789E+03</pdfrwt>
<totfact> 0.14442548E+00</totfact>
</mgrwt>
</event>
<event>
 4    1  0.7280516E-007  0.6601986E+03  0.7818608E-02  0.1023954E+00
         -2   -1    0    0    0  501 -0.00000000000E+00  0.00000000000E+00  0.23158499121E+03  0.23158499122E+03  0.25500000000E-02 0.  1.
          2   -1    0    0  501    0  0.00000000000E+00 -0.00000000000E+00 -0.99140902606E+03  0.99140902606E+03  0.25500000000E-02 0. -1.
    8880023    1    1    2    0    0 -0.12569973414E+02 -0.43519759965E+02 -0.81979648622E+03  0.10525818062E+04  0.65864270000E+03 0. -1.
    8880022    1    1    2    0    0  0.12569973414E+02  0.43519759965E+02  0.59972451364E+02  0.17041221105E+03  0.15294330000E+03 0.  0.
<mgrwt>
<rscale>  0 0.46286391E+03</rscale>
<asrwt>0</asrwt>
<pdfrwt beam="1">  1        2 0.15252446E+00 0.66019859E+03</pdfrwt>
<pdfrwt beam="2">  1       -2 0.35628461E-01 0.66019859E+03</pdfrwt>
<totfact> 0.19191142E+02</totfact>
</mgrwt>
</event>
<event>
 4    1  0.7280516E-007  0.7000946E+03  0.7818608E-02  0.9996809E-01
          2   -1    0    0  501    0  0.00000000000E+00  0.00000000000E+00  0.40398577792E+03  0.40398577793E+03  0.25500000000E-02 0. -1.
         -2   -1    0    0    0  501 -0.00000000000E+00 -0.00000000000E+00 -0.81892231553E+03  0.81892231554E+03  0.25500000000E-02 0.  1.
    8880023    1    1    2    0    0 -0.39569409644E+02  0.23400113910E+03  0.24573837804E+02  0.70052576758E+03  0.65864270000E+03 0.  0.
    8880022    1    1    2    0    0  0.39569409644E+02 -0.23400113910E+03 -0.43951037542E+03  0.52238232588E+03  0.15294330000E+03 0.  0.
<mgrwt>
<rscale>  0 0.55790381E+03</rscale>
<asrwt>0</asrwt>
<pdfrwt beam="1">  1        2 0.62151658E-01 0.70009462E+03</pdfrwt>
<pdfrwt beam="2">  1       -2 0.12598805E+00 0.70009462E+03</pdfrwt>
<totfact> 0.37526540E+01</totfact>
</mgrwt>
</event>
<event>
 4    1  0.7280516E-007  0.6964457E+03  0.7818608E-02  0.1001228E+00
          2   -1    0    0  501    0  0.00000000000E+00  0.00000000000E+00  0.10274087836E+04  0.10274087836E+04  0.25500000000E-02 0. -1.
         -2   -1    0    0    0  501 -0.00000000000E+00 -0.00000000000E+00 -0.34080685864E+03  0.34080685865E+03  0.25500000000E-02 0.  1.
    8880023    1    1    2    0    0  0.68234960784E+02  0.21580175131E+03  0.81019986018E+03  0.10683915132E+04  0.65864270000E+03 0. -1.
    8880022    1    1    2    0    0 -0.68234960784E+02 -0.21580175131E+03 -0.12359793525E+03  0.29982412904E+03  0.15294330000E+03 0.  0.
<mgrwt>
<rscale>  0 0.55115143E+03</rscale>
<asrwt>0</asrwt>
<pdfrwt beam="1">  1        2 0.15806289E+00 0.69644570E+03</pdfrwt>
<pdfrwt beam="2">  1       -2 0.52431825E-01 0.69644570E+03</pdfrwt>
<totfact> 0.84603432E+01</totfact>
</mgrwt>
</event>
<event>
 4    1  0.7280516E-007  0.7047144E+03  0.7818608E-02  0.9978179E-01
         -2   -1    0    0    0  501 -0.00000000000E+00  0.00000000000E+00  0.54896908848E+03  0.54896908849E+03  0.25500000000E-02 0.  1.
          2   -1    0    0  501    0  0.00000000000E+00 -0.00000000000E+00 -0.30350636872E+04  0.30350636872E+04  0.25500000000E-02 0. -1.
    8880023    1    1    2    0    0 -0.25056590536E+03  0.53715316608E+01 -0.29511096561E+04  0.30340847937E+04  0.65864270000E+03 0. -1.
    8880022    1    1    2    0    0  0.25056590536E+03 -0.53715316608E+01  0.46501505743E+03  0.54994798202E+03  0.15294330000E+03 0.  0.
<mgrwt>
<rscale>  0 0.56617492E+03</rscale>
<asrwt>0</asrwt>
<pdfrwt beam="1">  1        2 0.46693286E+00 0.70471436E+03</pdfrwt>
<pdfrwt beam="2">  1       -2 0.84456785E-01 0.70471436E+03</pdfrwt>
<totfact> 0.21837640E+00</totfact>
</mgrwt>
</event>
<event>
 4    1  0.7280516E-007  0.9662100E+03  0.7818608E-02  0.9427165E-01
         -2   -1    0    0    0  501 -0.00000000000E+00  0.00000000000E+00  0.11938992132E+04  0.11938992132E+04  0.25500000000E-02 0.  1.
          2   -1    0    0  501    0  0.00000000000E+00 -0.00000000000E+00 -0.71284394094E+03  0.71284394094E+03  0.25500000000E-02 0. -1.
    8880023    1    1    2    0    0 -0.70642667270E+03 -0.26701980662E+02 -0.11029506749E+03  0.97248488310E+03  0.65864270000E+03 0.  1.
    8880022    1    1    2    0    0  0.70642667270E+03  0.26701980662E+02  0.59135033974E+03  0.93425827104E+03  0.15294330000E+03 0.  0.
<mgrwt>
<rscale>  0 0.89873415E+03</rscale>
<asrwt>0</asrwt>
<pdfrwt beam="1">  1        2 0.10966830E+00 0.96621004E+03</pdfrwt>
<pdfrwt beam="2">  1       -2 0.18367680E+00 0.96621004E+03</pdfrwt>
<totfact> 0.68199945E+00</totfact>
</mgrwt>
</event>
<event>
 4    1  0.7280516E-007  0.8447534E+03  0.7818608E-02  0.9621282E-01
         -2   -1    0    0    0  501 -0.00000000000E+00  0.00000000000E+00  0.72769536152E+03  0.72769536152E+03  0.25500000000E-02 0.  1.
          2   -1    0    0  501    0  0.00000000000E+00 -0.00000000000E+00 -0.19200583978E+04  0.19200583978E+04  0.25500000000E-02 0. -1.
    8880023    1    1    2    0    0 -0.16241978236E+03  0.50340633510E+03 -0.17003266125E+04  0.18986097333E+04  0.65864270000E+03 0. -1.
    8880022    1    1    2    0    0  0.16241978236E+03 -0.50340633510E+03  0.50796357623E+03  0.74914402601E+03  0.15294330000E+03 0.  0.
<mgrwt>
<rscale>  0 0.75903497E+03</rscale>
<asrwt>0</asrwt>
<pdfrwt beam="1">  1        2 0.29539360E+00 0.84475341E+03</pdfrwt>
<pdfrwt beam="2">  1       -2 0.11195313E+00 0.84475341E+03</pdfrwt>
<totfact> 0.47490501E+00</totfact>
</mgrwt>
</event>
<event>
 4    1  0.7280516E-007  0.6845217E+03  0.7818608E-02  0.1006873E+00
         -2   -1    0    0    0  501 -0.00000000000E+00  0.00000000000E+00  0.73639688585E+03  0.73639688586E+03  0.25500000000E-02 0.  1.
          2   -1    0    0  501    0  0.00000000000E+00 -0.00000000000E+00 -0.48560932070E+03  0.48560932071E+03  0.25500000000E-02 0. -1.
    8880023    1    1    2    0    0  0.82257629214E+01  0.18625794484E+03 -0.19795836418E+03  0.71257098271E+03  0.65864270000E+03 0. -1.
    8880022    1    1    2    0    0 -0.82257629214E+01 -0.18625794484E+03  0.44874592933E+03  0.50943522385E+03  0.15294330000E+03 0.  0.
<mgrwt>
<rscale>  0 0.52736385E+03</rscale>
<asrwt>0</asrwt>
<pdfrwt beam="1">  1        2 0.74709126E-01 0.68452165E+03</pdfrwt>
<pdfrwt beam="2">  1       -2 0.11329183E+00 0.68452165E+03</pdfrwt>
<totfact> 0.39616748E+01</totfact>
</mgrwt>
</event>
<event>
 4    1  0.7280516E-007  0.7332713E+03  0.7818608E-02  0.9879999E-01
         -2   -1    0    0    0  501 -0.00000000000E+00  0.00000000000E+00  0.12139602260E+03  0.12139602263E+03  0.25500000000E-02 0.  1.
          2   -1    0    0  501    0  0.00000000000E+00 -0.00000000000E+00 -0.27597964737E+04  0.27597964737E+04  0.25500000000E-02 0. -1.
    8880023    1    1    2    0    0  0.31526302001E+03 -0.66975750304E+02 -0.21819641730E+04  0.23018806184E+04  0.65864270000E+03 0.  0.
    8880022    1    1    2    0    0 -0.31526302001E+03  0.66975750304E+02 -0.45643627807E+03  0.57931187789E+03  0.15294330000E+03 0.  0.
<mgrwt>
<rscale>  0 0.61240464E+03</rscale>
<asrwt>0</asrwt>
<pdfrwt beam="1">  1        2 0.42458402E+00 0.73327125E+03</pdfrwt>
<pdfrwt beam="2">  1       -2 0.18676313E-01 0.73327125E+03</pdfrwt>
<totfact> 0.61734396E+01</totfact>
</mgrwt>
</event>
<event>
 4    1  0.7280516E-007  0.6701820E+03  0.7818608E-02  0.1015533E+00
          2   -1    0    0  501    0  0.00000000000E+00  0.00000000000E+00  0.14298844249E+04  0.14298844249E+04  0.25500000000E-02 0. -1.
         -2   -1    0    0    0  501 -0.00000000000E+00 -0.00000000000E+00 -0.13867168360E+03  0.13867168362E+03  0.25500000000E-02 0.  1.
    8880023    1    1    2    0    0 -0.60734007075E+02  0.10791265886E+03  0.11316404686E+04  0.13152011702E+04  0.65864270000E+03 0. -1.
    8880022    1    1    2    0    0  0.60734007075E+02 -0.10791265886E+03  0.15957227267E+03  0.25335493833E+03  0.15294330000E+03 0.  0.
<mgrwt>
<rscale>  0 0.49333747E+03</rscale>
<asrwt>0</asrwt>
<pdfrwt beam="1">  1        2 0.21998223E+00 0.67018204E+03</pdfrwt>
<pdfrwt beam="2">  1       -2 0.21334104E-01 0.67018204E+03</pdfrwt>
<totfact> 0.26978405E+02</totfact>
</mgrwt>
</event>
<event>
 4    1  0.7280516E-007  0.1077567E+04  0.7818608E-02  0.9286453E-01
          2   -1    0    0  501    0  0.00000000000E+00  0.00000000000E+00  0.42621225598E+04  0.42621225598E+04  0.25500000000E-02 0. -1.
         -2   -1    0    0    0  501 -0.00000000000E+00 -0.00000000000E+00 -0.36946316662E+03  0.36946316663E+03  0.25500000000E-02 0.  1.
    8880023    1    1    2    0    0  0.74136384815E+03 -0.42156914892E+03  0.35326165089E+04  0.36933088834E+04  0.65864270000E+03 0. -1.
    8880022    1    1    2    0    0 -0.74136384815E+03  0.42156914892E+03  0.36004288424E+03  0.93827684303E+03  0.15294330000E+03 0.  0.
<mgrwt>
<rscale>  0 0.10203964E+04</rscale>
<asrwt>0</asrwt>
<pdfrwt beam="1">  1        2 0.65571114E+00 0.10775672E+04</pdfrwt>
<pdfrwt beam="2">  1       -2 0.56840489E-01 0.10775672E+04</pdfrwt>
<totfact> 0.62490758E-01</totfact>
</mgrwt>
</event>
<event>
 4    1  0.7280516E-007  0.7247632E+03  0.7818608E-02  0.9906786E-01
         -2   -1    0    0    0  501 -0.00000000000E+00  0.00000000000E+00  0.99391522082E+03  0.99391522082E+03  0.25500000000E-02 0.  1.
          2   -1    0    0  501    0  0.00000000000E+00 -0.00000000000E+00 -0.85224641588E+03  0.85224641589E+03  0.25500000000E-02 0. -1.
    8880023    1    1    2    0    0 -0.18687809064E+03  0.23779850166E+03 -0.65720738407E+03  0.97836767123E+03  0.65864270000E+03 0.  0.
    8880022    1    1    2    0    0  0.18687809064E+03 -0.23779850166E+03  0.79887618901E+03  0.86779396548E+03  0.15294330000E+03 0.  0.
<mgrwt>
<rscale>  0 0.59933513E+03</rscale>
<asrwt>0</asrwt>
<pdfrwt beam="1">  1        2 0.13111483E+00 0.72476324E+03</pdfrwt>
<pdfrwt beam="2">  1       -2 0.15291003E+00 0.72476324E+03</pdfrwt>
<totfact> 0.91826206E+00</totfact>
</mgrwt>
</event>
<event>
 4    1  0.7332253E-007  0.6983570E+03  0.7818608E-02  0.1000409E+00
         -2   -1    0    0    0  501 -0.00000000000E+00  0.00000000000E+00  0.84747044610E+03  0.84747044611E+03  0.25500000000E-02 0.  1.
          2   -1    0    0  501    0  0.00000000000E+00 -0.00000000000E+00 -0.13044121865E+04  0.13044121865E+04  0.25500000000E-02 0. -1.
    8880023    1    1    2    0    0  0.51798432767E+02  0.22629465366E+03 -0.11833740049E+04  0.13740729928E+04  0.65864270000E+03 0. -1.
    8880022    1    1    2    0    0 -0.51798432767E+02 -0.22629465366E+03  0.72643226446E+03  0.77780963981E+03  0.15294330000E+03 0.  0.
<mgrwt>
<rscale>  0 0.55471427E+03</rscale>
<asrwt>0</asrwt>
<pdfrwt beam="1">  1        2 0.20067880E+00 0.69835704E+03</pdfrwt>
<pdfrwt beam="2">  1       -2 0.13038007E+00 0.69835704E+03</pdfrwt>
<totfact> 0.72927387E+00</totfact>
</mgrwt>
</event>
<event>
 4    1  0.7280516E-007  0.8934334E+03  0.7818608E-02  0.9536656E-01
         -2   -1    0    0    0  501 -0.00000000000E+00  0.00000000000E+00  0.28945150130E+03  0.28945150131E+03  0.25500000000E-02 0.  1.
          2   -1    0    0  501    0  0.00000000000E+00 -0.00000000000E+00 -0.20013001580E+04  0.20013001580E+04  0.25500000000E-02 0. -1.
    8880023    1    1    2    0    0 -0.60349119663E+03 -0.14537690887E+02 -0.90726248075E+03  0.12733217913E+04  0.65864270000E+03 0. -1.
    8880022    1    1    2    0    0  0.60349119663E+03  0.14537690887E+02 -0.80458617595E+03  0.10174298681E+04  0.15294330000E+03 0.  1.
<mgrwt>
<rscale>  0 0.81634408E+03</rscale>
<asrwt>0</asrwt>
<pdfrwt beam="1">  1        2 0.30789232E+00 0.89343336E+03</pdfrwt>
<pdfrwt beam="2">  1       -2 0.44531001E-01 0.89343336E+03</pdfrwt>
<totfact> 0.32375140E+01</totfact>
</mgrwt>
</event>
<event>
 4    1  0.7280516E-007  0.7791784E+03  0.7818608E-02  0.9757771E-01
         -2   -1    0    0    0  501 -0.00000000000E+00  0.00000000000E+00  0.50371272964E+03  0.50371272965E+03  0.25500000000E-02 0.  1.
          2   -1    0    0  501    0  0.00000000000E+00 -0.00000000000E+00 -0.88040370514E+03  0.88040370515E+03  0.25500000000E-02 0. -1.
    8880023    1    1    2    0    0  0.40111467491E+03 -0.11142606091E+03  0.33640548260E+02  0.77990425196E+03  0.65864270000E+03 0.  0.
    8880022    1    1    2    0    0 -0.40111467491E+03  0.11142606091E+03 -0.41033152376E+03  0.60421218283E+03  0.15294330000E+03 0.  0.
<mgrwt>
<rscale>  0 0.67678906E+03</rscale>
<asrwt>0</asrwt>
<pdfrwt beam="1">  1        2 0.13544672E+00 0.77917839E+03</pdfrwt>
<pdfrwt beam="2">  1       -2 0.77494266E-01 0.77917839E+03</pdfrwt>
<totfact> 0.45429498E+01</totfact>
</mgrwt>
</event>
<event>
 4    1  0.7280516E-007  0.8880520E+03  0.7818608E-02  0.9545491E-01
          2   -1    0    0  501    0  0.00000000000E+00  0.00000000000E+00  0.13252698804E+04  0.13252698804E+04  0.25500000000E-02 0. -1.
         -2   -1    0    0    0  501 -0.00000000000E+00 -0.00000000000E+00 -0.61508707936E+03  0.61508707936E+03  0.25500000000E-02 0.  1.
    8880023    1    1    2    0    0 -0.47881964243E+03 -0.35434158782E+03 -0.13170717663E+03  0.89776566958E+03  0.65864270000E+03 0.  1.
    8880022    1    1    2    0    0  0.47881964243E+03  0.35434158782E+03  0.84188997764E+03  0.10425912901E+04  0.15294330000E+03 0.  0.
<mgrwt>
<rscale>  0 0.81011480E+03</rscale>
<asrwt>0</asrwt>
<pdfrwt beam="1">  1        2 0.20388767E+00 0.88805204E+03</pdfrwt>
<pdfrwt beam="2">  1       -2 0.94628783E-01 0.88805204E+03</pdfrwt>
<totfact> 0.15116652E+01</totfact>
</mgrwt>
</event>
<event>
 4    1  0.7280516E-007  0.8134129E+03  0.7818608E-02  0.9682511E-01
          2   -1    0    0  501    0  0.00000000000E+00  0.00000000000E+00  0.70116052248E+03  0.70116052249E+03  0.25500000000E-02 0. -1.
         -2   -1    0    0    0  501 -0.00000000000E+00 -0.00000000000E+00 -0.89894575979E+03  0.89894575979E+03  0.25500000000E-02 0.  1.
    8880023    1    1    2    0    0 -0.37353005295E+03 -0.29716265579E+03  0.32493354462E+03  0.87591230105E+03  0.65864270000E+03 0. -1.
    8880022    1    1    2    0    0  0.37353005295E+03  0.29716265579E+03 -0.52271878192E+03  0.72419398122E+03  0.15294330000E+03 0.  0.
<mgrwt>
<rscale>  0 0.72067673E+03</rscale>
<asrwt>0</asrwt>
<pdfrwt beam="1">  1        2 0.10787085E+00 0.81341290E+03</pdfrwt>
<pdfrwt beam="2">  1       -2 0.13829935E+00 0.81341290E+03</pdfrwt>
<totfact> 0.15285564E+01</totfact>
</mgrwt>
</event>
<event>
 4    1  0.7280516E-007  0.1208721E+04  0.7818608E-02  0.9148691E-01
         -2   -1    0    0    0  501 -0.00000000000E+00  0.00000000000E+00  0.95595772860E+03  0.95595772860E+03  0.25500000000E-02 0.  1.
          2   -1    0    0  501    0  0.00000000000E+00 -0.00000000000E+00 -0.15516144231E+04  0.15516144231E+04  0.25500000000E-02 0. -1.
    8880023    1    1    2    0    0  0.67446682553E+03  0.75649911613E+03 -0.81703454988E+03  0.14589558161E+04  0.65864270000E+03 0.  0.
    8880022    1    1    2    0    0 -0.67446682553E+03 -0.75649911613E+03  0.22137785535E+03  0.10486163356E+04  0.15294330000E+03 0.  0.
<mgrwt>
<rscale>  0 0.11599082E+04</rscale>
<asrwt>0</asrwt>
<pdfrwt beam="1">  1        2 0.23870991E+00 0.12087211E+04</pdfrwt>
<pdfrwt beam="2">  1       -2 0.14707042E+00 0.12087211E+04</pdfrwt>
<totfact> 0.36403432E+00</totfact>
</mgrwt>
</event>
<event>
 4    1  0.7280516E-007  0.9170539E+03  0.7818608E-02  0.9499191E-01
          2   -1    0    0  501    0  0.00000000000E+00  0.00000000000E+00  0.16669935686E+04  0.16669935686E+04  0.25500000000E-02 0. -1.
         -2   -1    0    0    0  501 -0.00000000000E+00 -0.00000000000E+00 -0.45257320283E+03  0.45257320283E+03  0.25500000000E-02 0.  1.
    8880023    1    1    2    0    0 -0.63495901417E+03  0.63282329102E+02  0.11341139042E+04  0.14584931117E+04  0.65864270000E+03 0.  0.
    8880022    1    1    2    0    0  0.63495901417E+03 -0.63282329102E+02  0.80306461589E+02  0.66107365977E+03  0.15294330000E+03 0.  0.
<mgrwt>
<rscale>  0 0.84343480E+03</rscale>
<asrwt>0</asrwt>
<pdfrwt beam="1">  1        2 0.25646055E+00 0.91705387E+03</pdfrwt>
<pdfrwt beam="2">  1       -2 0.69626648E-01 0.91705387E+03</pdfrwt>
<totfact> 0.19387437E+01</totfact>
</mgrwt>
</event>
<event>
 4    1  0.7280516E-007  0.8877050E+03  0.7818608E-02  0.9546064E-01
         -2   -1    0    0    0  501 -0.00000000000E+00  0.00000000000E+00  0.49826074596E+03  0.49826074597E+03  0.25500000000E-02 0.  1.
          2   -1    0    0  501    0  0.00000000000E+00 -0.00000000000E+00 -0.12012085177E+04  0.12012085177E+04  0.25500000000E-02 0. -1.
    8880023    1    1    2    0    0  0.37644765944E+03  0.46097410557E+03 -0.61214171440E+03  0.10783031351E+04  0.65864270000E+03 0. -1.
    8880022    1    1    2    0    0 -0.37644765944E+03 -0.46097410557E+03 -0.90806057370E+02  0.62116612864E+03  0.15294330000E+03 0.  1.
<mgrwt>
<rscale>  0 0.80971229E+03</rscale>
<asrwt>0</asrwt>
<pdfrwt beam="1">  1        2 0.18480131E+00 0.88770500E+03</pdfrwt>
<pdfrwt beam="2">  1       -2 0.76655500E-01 0.88770500E+03</pdfrwt>
<totfact> 0.28917041E+01</totfact>
</mgrwt>
</event>
<event>
 4    1  0.7280516E-007  0.7940418E+03  0.7818608E-02  0.9723830E-01
         -2   -1    0    0    0  501 -0.00000000000E+00  0.00000000000E+00  0.56928320747E+03  0.56928320748E+03  0.25500000000E-02 0.  1.
          2   -1    0    0  501    0  0.00000000000E+00 -0.00000000000E+00 -0.14119591257E+04  0.14119591257E+04  0.25500000000E-02 0. -1.
    8880023    1    1    2    0    0  0.42135424437E+02  0.44149371953E+03 -0.11665678296E+04  0.14111636354E+04  0.65864270000E+03 0.  0.
    8880022    1    1    2    0    0 -0.42135424437E+02 -0.44149371953E+03  0.32389191142E+03  0.57007869779E+03  0.15294330000E+03 0.  0.
<mgrwt>
<rscale>  0 0.69615509E+03</rscale>
<asrwt>0</asrwt>
<pdfrwt beam="1">  1        2 0.21722448E+00 0.79404175E+03</pdfrwt>
<pdfrwt beam="2">  1       -2 0.87582032E-01 0.79404175E+03</pdfrwt>
<totfact> 0.16304632E+01</totfact>
</mgrwt>
</event>
<event>
 4    1  0.7280516E-007  0.6965982E+03  0.7818608E-02  0.1001162E+00
         -2   -1    0    0    0  501 -0.00000000000E+00  0.00000000000E+00  0.80110388743E+03  0.80110388744E+03  0.25500000000E-02 0.  1.
          2   -1    0    0  501    0  0.00000000000E+00 -0.00000000000E+00 -0.79021907711E+03  0.79021907712E+03  0.25500000000E-02 0. -1.
    8880023    1    1    2    0    0  0.20527321631E+03  0.96445896344E+02 -0.60166828510E+03  0.92046392423E+03  0.65864270000E+03 0. -1.
    8880022    1    1    2    0    0 -0.20527321631E+03 -0.96445896344E+02  0.61255309542E+03  0.67085904032E+03  0.15294330000E+03 0.  0.
<mgrwt>
<rscale>  0 0.55143795E+03</rscale>
<asrwt>0</asrwt>
<pdfrwt beam="1">  1        2 0.12157217E+00 0.69659824E+03</pdfrwt>
<pdfrwt beam="2">  1       -2 0.12324675E+00 0.69659824E+03</pdfrwt>
<totfact> 0.17747397E+01</totfact>
</mgrwt>
</event>
<event>
 4    1  0.7280516E-007  0.8585398E+03  0.7818608E-02  0.9596166E-01
         -2   -1    0    0    0  501 -0.00000000000E+00  0.00000000000E+00  0.36905851081E+03  0.36905851082E+03  0.25500000000E-02 0.  1.
          2   -1    0    0  501    0  0.00000000000E+00 -0.00000000000E+00 -0.14093500379E+04  0.14093500379E+04  0.25500000000E-02 0. -1.
    8880023    1    1    2    0    0 -0.40814580264E+03  0.36972610997E+03 -0.73636987610E+03  0.11310752377E+04  0.65864270000E+03 0. -1.
    8880022    1    1    2    0    0  0.40814580264E+03 -0.36972610997E+03 -0.30392165095E+03  0.64733331101E+03  0.15294330000E+03 0.  1.
<mgrwt>
<rscale>  0 0.77550450E+03</rscale>
<asrwt>0</asrwt>
<pdfrwt beam="1">  1        2 0.21682308E+00 0.85853981E+03</pdfrwt>
<pdfrwt beam="2">  1       -2 0.56778233E-01 0.85853981E+03</pdfrwt>
<totfact> 0.42003805E+01</totfact>
</mgrwt>
</event>
<event>
 4    1  0.7280516E-007  0.6959717E+03  0.7818608E-02  0.1001434E+00
         -2   -1    0    0    0  501 -0.00000000000E+00  0.00000000000E+00  0.80482986408E+02  0.80482986448E+02  0.25500000000E-02 0.  1.
          2   -1    0    0  501    0  0.00000000000E+00 -0.00000000000E+00 -0.35847295804E+04  0.35847295804E+04  0.25500000000E-02 0. -1.
    8880023    1    1    2    0    0 -0.22445367699E+03 -0.13674787155E+02 -0.31056663238E+04  0.31826938235E+04  0.65864270000E+03 0.  0.
    8880022    1    1    2    0    0  0.22445367699E+03  0.13674787155E+02 -0.39858027024E+03  0.48251874342E+03  0.15294330000E+03 0.  0.
<mgrwt>
<rscale>  0 0.55025871E+03</rscale>
<asrwt>0</asrwt>
<pdfrwt beam="1">  1        2 0.55149674E+00 0.69597174E+03</pdfrwt>
<pdfrwt beam="2">  1       -2 0.12382001E-01 0.69597174E+03</pdfrwt>
<totfact> 0.37277267E+01</totfact>
</mgrwt>
</event>
<event>
 4    1  0.7280516E-007  0.8396355E+03  0.7818608E-02  0.9630868E-01
          2   -1    0    0  501    0  0.00000000000E+00  0.00000000000E+00  0.20455282756E+04  0.20455282756E+04  0.25500000000E-02 0. -1.
         -2   -1    0    0    0  501 -0.00000000000E+00 -0.00000000000E+00 -0.28436598784E+03  0.28436598785E+03  0.25500000000E-02 0.  1.
    8880023    1    1    2    0    0  0.38829029398E+03  0.34699880428E+03  0.15189276053E+04  0.17355485585E+04  0.65864270000E+03 0.  0.
    8880022    1    1    2    0    0 -0.38829029398E+03 -0.34699880428E+03  0.24223468248E+03  0.59434570495E+03  0.15294330000E+03 0.  0.
<mgrwt>
<rscale>  0 0.75286394E+03</rscale>
<asrwt>0</asrwt>
<pdfrwt beam="1">  1        2 0.31469667E+00 0.83963547E+03</pdfrwt>
<pdfrwt beam="2">  1       -2 0.43748612E-01 0.83963547E+03</pdfrwt>
<totfact> 0.31905855E+01</totfact>
</mgrwt>
</event>
<event>
 4    1  0.7280516E-007  0.6691635E+03  0.7818608E-02  0.1016270E+00
         -2   -1    0    0    0  501 -0.00000000000E+00  0.00000000000E+00  0.66769815234E+03  0.66769815234E+03  0.25500000000E-02 0.  1.
          2   -1    0    0  501    0  0.00000000000E+00 -0.00000000000E+00 -0.56584899587E+03  0.56584899588E+03  0.25500000000E-02 0. -1.
    8880023    1    1    2    0    0  0.11042832006E+03 -0.42132787837E+02 -0.34049872932E+03  0.75081234447E+03  0.65864270000E+03 0. -1.
    8880022    1    1    2    0    0 -0.11042832006E+03  0.42132787837E+02  0.44234788578E+03  0.48273480375E+03  0.15294330000E+03 0.  0.
<mgrwt>
<rscale>  0 0.49057097E+03</rscale>
<asrwt>0</asrwt>
<pdfrwt beam="1">  1        2 0.87053691E-01 0.66916350E+03</pdfrwt>
<pdfrwt beam="2">  1       -2 0.10272279E+00 0.66916350E+03</pdfrwt>
<totfact> 0.41999482E+01</totfact>
</mgrwt>
</event>
<event>
 4    1  0.7280516E-007  0.7925203E+03  0.7818608E-02  0.9727208E-01
         -2   -1    0    0    0  501 -0.00000000000E+00  0.00000000000E+00  0.10685413151E+04  0.10685413151E+04  0.25500000000E-02 0.  1.
          2   -1    0    0  501    0  0.00000000000E+00 -0.00000000000E+00 -0.48278831269E+03  0.48278831270E+03  0.25500000000E-02 0. -1.
    8880023    1    1    2    0    0 -0.87137320714E+02  0.43207086925E+03 -0.12553765126E+02  0.79261967677E+03  0.65864270000E+03 0.  1.
    8880022    1    1    2    0    0  0.87137320714E+02 -0.43207086925E+03  0.59830676758E+03  0.75870995108E+03  0.15294330000E+03 0.  0.
<mgrwt>
<rscale>  0 0.69419671E+03</rscale>
<asrwt>0</asrwt>
<pdfrwt beam="1">  1        2 0.74275125E-01 0.79252026E+03</pdfrwt>
<pdfrwt beam="2">  1       -2 0.16439097E+00 0.79252026E+03</pdfrwt>
<totfact> 0.15163556E+01</totfact>
</mgrwt>
</event>
<event>
 4    1  0.7280516E-007  0.6809790E+03  0.7818608E-02  0.1008775E+00
         -2   -1    0    0    0  501 -0.00000000000E+00  0.00000000000E+00  0.54555064378E+03  0.54555064379E+03  0.25500000000E-02 0.  1.
          2   -1    0    0  501    0  0.00000000000E+00 -0.00000000000E+00 -0.23592677395E+04  0.23592677396E+04  0.25500000000E-02 0. -1.
    8880023    1    1    2    0    0 -0.12368127120E+03  0.12093449982E+03 -0.22826816598E+04  0.23820931922E+04  0.65864270000E+03 0. -1.
    8880022    1    1    2    0    0  0.12368127120E+03 -0.12093449982E+03  0.46896456404E+03  0.52272519112E+03  0.15294330000E+03 0.  0.
<mgrwt>
<rscale>  0 0.51964328E+03</rscale>
<asrwt>0</asrwt>
<pdfrwt beam="1">  1        2 0.36296426E+00 0.68097901E+03</pdfrwt>
<pdfrwt beam="2">  1       -2 0.83930870E-01 0.68097901E+03</pdfrwt>
<totfact> 0.55083786E+00</totfact>
</mgrwt>
</event>
<event>
 4    1  0.7280516E-007  0.7704970E+03  0.7818608E-02  0.9778652E-01
         -2   -1    0    0    0  501 -0.00000000000E+00  0.00000000000E+00  0.69046885395E+03  0.69046885396E+03  0.25500000000E-02 0.  1.
          2   -1    0    0  501    0  0.00000000000E+00 -0.00000000000E+00 -0.15416934620E+04  0.15416934620E+04  0.25500000000E-02 0. -1.
    8880023    1    1    2    0    0 -0.14065193844E+03 -0.37426262551E+03 -0.13625434836E+04  0.15653084142E+04  0.65864270000E+03 0.  0.
    8880022    1    1    2    0    0  0.14065193844E+03  0.37426262551E+03  0.51131887561E+03  0.66685390170E+03  0.15294330000E+03 0.  0.
<mgrwt>
<rscale>  0 0.66520864E+03</rscale>
<asrwt>0</asrwt>
<pdfrwt beam="1">  1        2 0.23718361E+00 0.77049704E+03</pdfrwt>
<pdfrwt beam="2">  1       -2 0.10622598E+00 0.77049704E+03</pdfrwt>
<totfact> 0.87909934E+00</totfact>
</mgrwt>
</event>
<event>
 4    1  0.7280516E-007  0.7156857E+03  0.7818608E-02  0.9937464E-01
          2   -1    0    0  501    0  0.00000000000E+00  0.00000000000E+00  0.94600670105E+03  0.94600670105E+03  0.25500000000E-02 0. -1.
         -2   -1    0    0    0  501 -0.00000000000E+00 -0.00000000000E+00 -0.49018836337E+03  0.49018836337E+03  0.25500000000E-02 0.  1.
    8880023    1    1    2    0    0 -0.10755835340E+03 -0.25850910847E+03  0.72501999308E+03  0.10187541191E+04  0.65864270000E+03 0. -1.
    8880022    1    1    2    0    0  0.10755835340E+03  0.25850910847E+03 -0.26920165540E+03  0.41744094533E+03  0.15294330000E+03 0.  0.
<mgrwt>
<rscale>  0 0.58479479E+03</rscale>
<asrwt>0</asrwt>
<pdfrwt beam="1">  1        2 0.14553949E+00 0.71568566E+03</pdfrwt>
<pdfrwt beam="2">  1       -2 0.75413595E-01 0.71568566E+03</pdfrwt>
<totfact> 0.43873952E+01</totfact>
</mgrwt>
</event>
<event>
 4    1  0.7280516E-007  0.7114006E+03  0.7818608E-02  0.9952836E-01
         -2   -1    0    0    0  501 -0.00000000000E+00  0.00000000000E+00  0.77732823673E+03  0.77732823674E+03  0.25500000000E-02 0.  1.
          2   -1    0    0  501    0  0.00000000000E+00 -0.00000000000E+00 -0.37955344460E+03  0.37955344461E+03  0.25500000000E-02 0. -1.
    8880023    1    1    2    0    0  0.26680745425E+03 -0.33082096800E+02  0.45200831488E+03  0.84285370365E+03  0.65864270000E+03 0.  0.
    8880022    1    1    2    0    0 -0.26680745425E+03  0.33082096800E+02 -0.54233522743E+02  0.31402797770E+03  0.15294330000E+03 0.  0.
<mgrwt>
<rscale>  0 0.57767551E+03</rscale>
<asrwt>0</asrwt>
<pdfrwt beam="1">  1        2 0.58392838E-01 0.71140062E+03</pdfrwt>
<pdfrwt beam="2">  1       -2 0.11958896E+00 0.71140062E+03</pdfrwt>
<totfact> 0.45801854E+01</totfact>
</mgrwt>
</event>
<event>
 4    1  0.7280516E-007  0.6770917E+03  0.7818608E-02  0.1011019E+00
          2   -1    0    0  501    0  0.00000000000E+00  0.00000000000E+00  0.25102576375E+04  0.25102576375E+04  0.25500000000E-02 0. -1.
         -2   -1    0    0    0  501 -0.00000000000E+00 -0.00000000000E+00 -0.12651859938E+03  0.12651859941E+03  0.25500000000E-02 0.  1.
    8880023    1    1    2    0    0 -0.86782419803E+02 -0.13081199548E+03  0.23074013939E+04  0.24046942353E+04  0.65864270000E+03 0. -1.
    8880022    1    1    2    0    0  0.86782419803E+02  0.13081199548E+03  0.76337644310E+02  0.23208200168E+03  0.15294330000E+03 0.  0.
<mgrwt>
<rscale>  0 0.51071653E+03</rscale>
<asrwt>0</asrwt>
<pdfrwt beam="1">  1        2 0.38619347E+00 0.67709170E+03</pdfrwt>
<pdfrwt beam="2">  1       -2 0.19464401E-01 0.67709170E+03</pdfrwt>
<totfact> 0.80615457E+01</totfact>
</mgrwt>
</event>
<event>
 4    1  0.7280516E-007  0.7195715E+03  0.7818608E-02  0.9924039E-01
         -2   -1    0    0    0  501 -0.00000000000E+00  0.00000000000E+00  0.72500454572E+03  0.72500454573E+03  0.25500000000E-02 0.  1.
          2   -1    0    0  501    0  0.00000000000E+00 -0.00000000000E+00 -0.10362023244E+04  0.10362023244E+04  0.25500000000E-02 0. -1.
    8880023    1    1    2    0    0  0.25436503772E+03 -0.13882122090E+03 -0.86042933532E+03  0.11216602655E+04  0.65864270000E+03 0. -1.
    8880022    1    1    2    0    0 -0.25436503772E+03  0.13882122090E+03  0.54923155661E+03  0.63954660470E+03  0.15294330000E+03 0.  0.
<mgrwt>
<rscale>  0 0.59110288E+03</rscale>
<asrwt>0</asrwt>
<pdfrwt beam="1">  1        2 0.15941574E+00 0.71957148E+03</pdfrwt>
<pdfrwt beam="2">  1       -2 0.11153916E+00 0.71957148E+03</pdfrwt>
<totfact> 0.15485539E+01</totfact>
</mgrwt>
</event>
<event>
 4    1  0.7280516E-007  0.9409604E+03  0.7818608E-02  0.9463241E-01
         -2   -1    0    0    0  501 -0.00000000000E+00  0.00000000000E+00  0.47940258693E+03  0.47940258693E+03  0.25500000000E-02 0.  1.
          2   -1    0    0  501    0  0.00000000000E+00 -0.00000000000E+00 -0.16117336352E+04  0.16117336352E+04  0.25500000000E-02 0. -1.
    8880023    1    1    2    0    0  0.19151785073E+03 -0.64414060560E+03 -0.10287908194E+04  0.13942083644E+04  0.65864270000E+03 0.  1.
    8880022    1    1    2    0    0 -0.19151785073E+03  0.64414060560E+03 -0.10354022888E+03  0.69692785778E+03  0.15294330000E+03 0.  0.
<mgrwt>
<rscale>  0 0.87049005E+03</rscale>
<asrwt>0</asrwt>
<pdfrwt beam="1">  1        2 0.24795902E+00 0.94096037E+03</pdfrwt>
<pdfrwt beam="2">  1       -2 0.73754245E-01 0.94096037E+03</pdfrwt>
<totfact> 0.18280548E+01</totfact>
</mgrwt>
</event>
<event>
 4    1  0.7280516E-007  0.8682661E+03  0.7818608E-02  0.9579025E-01
          2   -1    0    0  501    0  0.00000000000E+00  0.00000000000E+00  0.31041684714E+04  0.31041684714E+04  0.25500000000E-02 0. -1.
         -2   -1    0    0    0  501 -0.00000000000E+00 -0.00000000000E+00 -0.23013899343E+03  0.23013899344E+03  0.25500000000E-02 0.  1.
    8880023    1    1    2    0    0 -0.27296482586E+03 -0.49554618792E+03  0.24812956258E+04  0.26288236931E+04  0.65864270000E+03 0. -1.
    8880022    1    1    2    0    0  0.27296482586E+03  0.49554618792E+03  0.39273385214E+03  0.70548377171E+03  0.15294330000E+03 0.  0.
<mgrwt>
<rscale>  0 0.78700110E+03</rscale>
<asrwt>0</asrwt>
<pdfrwt beam="1">  1        2 0.47756438E+00 0.86826610E+03</pdfrwt>
<pdfrwt beam="2">  1       -2 0.35405999E-01 0.86826610E+03</pdfrwt>
<totfact> 0.11707852E+01</totfact>
</mgrwt>
</event>
<event>
 4    1  0.7280516E-007  0.7152343E+03  0.7818608E-02  0.9939054E-01
          2   -1    0    0  501    0  0.00000000000E+00  0.00000000000E+00  0.22796791754E+04  0.22796791754E+04  0.25500000000E-02 0. -1.
         -2   -1    0    0    0  501 -0.00000000000E+00 -0.00000000000E+00 -0.19659680297E+03  0.19659680298E+03  0.25500000000E-02 0.  1.
    8880023    1    1    2    0    0  0.21235074546E+03 -0.18071247413E+03  0.20319625657E+04  0.21541661756E+04  0.65864270000E+03 0. -1.
    8880022    1    1    2    0    0 -0.21235074546E+03  0.18071247413E+03  0.51119806743E+02  0.32210980280E+03  0.15294330000E+03 0.  0.
<mgrwt>
<rscale>  0 0.58405319E+03</rscale>
<asrwt>0</asrwt>
<pdfrwt beam="1">  1        2 0.35071987E+00 0.71523426E+03</pdfrwt>
<pdfrwt beam="2">  1       -2 0.30245663E-01 0.71523426E+03</pdfrwt>
<totfact> 0.48903415E+01</totfact>
</mgrwt>
</event>
<event>
 4    1  0.7280516E-007  0.6715231E+03  0.7818608E-02  0.1014594E+00
         -2   -1    0    0    0  501 -0.00000000000E+00  0.00000000000E+00  0.38501497113E+03  0.38501497114E+03  0.25500000000E-02 0.  1.
          2   -1    0    0  501    0  0.00000000000E+00 -0.00000000000E+00 -0.30423796020E+04  0.30423796020E+04  0.25500000000E-02 0. -1.
    8880023    1    1    2    0    0  0.94184556561E+02 -0.90897260461E+02 -0.29758200852E+04  0.30506472147E+04  0.65864270000E+03 0. -1.
    8880022    1    1    2    0    0 -0.94184556561E+02  0.90897260461E+02  0.31845545436E+03  0.37674735843E+03  0.15294330000E+03 0.  0.
<mgrwt>
<rscale>  0 0.49689048E+03</rscale>
<asrwt>0</asrwt>
<pdfrwt beam="1">  1        2 0.46805839E+00 0.67152308E+03</pdfrwt>
<pdfrwt beam="2">  1       -2 0.59233074E-01 0.67152308E+03</pdfrwt>
<totfact> 0.47290978E+00</totfact>
</mgrwt>
</event>
<event>
 4    1  0.7280516E-007  0.6637150E+03  0.7818608E-02  0.1020637E+00
         -2   -1    0    0    0  501 -0.00000000000E+00  0.00000000000E+00  0.61736172605E+03  0.61736172606E+03  0.25500000000E-02 0.  1.
          2   -1    0    0  501    0  0.00000000000E+00 -0.00000000000E+00 -0.29822877928E+03  0.29822877929E+03  0.25500000000E-02 0. -1.
    8880023    1    1    2    0    0 -0.55458753824E+02  0.60263289448E+02  0.16593893080E+03  0.68414418981E+03  0.65864270000E+03 0.  0.
    8880022    1    1    2    0    0  0.55458753824E+02 -0.60263289448E+02  0.15319401597E+03  0.23144631554E+03  0.15294330000E+03 0.  0.
<mgrwt>
<rscale>  0 0.47457537E+03</rscale>
<asrwt>0</asrwt>
<pdfrwt beam="1">  1        2 0.45881351E-01 0.66371496E+03</pdfrwt>
<pdfrwt beam="2">  1       -2 0.94978727E-01 0.66371496E+03</pdfrwt>
<totfact> 0.10446549E+02</totfact>
</mgrwt>
</event>
<event>
 4    1  0.7280516E-007  0.1088959E+04  0.7818608E-02  0.9273449E-01
          2   -1    0    0  501    0  0.00000000000E+00  0.00000000000E+00  0.21982536785E+04  0.21982536785E+04  0.25500000000E-02 0. -1.
         -2   -1    0    0    0  501 -0.00000000000E+00 -0.00000000000E+00 -0.52514986781E+03  0.52514986782E+03  0.25500000000E-02 0.  1.
    8880023    1    1    2    0    0 -0.77460335440E+03  0.38988740242E+03  0.14529291199E+04  0.18157190799E+04  0.65864270000E+03 0. -1.
    8880022    1    1    2    0    0  0.77460335440E+03 -0.38988740242E+03  0.22017469078E+03  0.90768446648E+03  0.15294330000E+03 0.  0.
<mgrwt>
<rscale>  0 0.10326437E+04</rscale>
<asrwt>0</asrwt>
<pdfrwt beam="1">  1        2 0.33819287E+00 0.10889595E+04</pdfrwt>
<pdfrwt beam="2">  1       -2 0.80792288E-01 0.10889595E+04</pdfrwt>
<totfact> 0.69595919E+00</totfact>
</mgrwt>
</event>
<event>
 4    1  0.7280516E-007  0.6706887E+03  0.7818608E-02  0.1015174E+00
         -2   -1    0    0    0  501 -0.00000000000E+00  0.00000000000E+00  0.20604372355E+03  0.20604372356E+03  0.25500000000E-02 0.  1.
          2   -1    0    0  501    0  0.00000000000E+00 -0.00000000000E+00 -0.27537801810E+04  0.27537801810E+04  0.25500000000E-02 0. -1.
    8880023    1    1    2    0    0  0.11666488354E+03 -0.49014457670E+02 -0.26520750015E+04  0.27355666930E+04  0.65864270000E+03 0. -1.
    8880022    1    1    2    0    0 -0.11666488354E+03  0.49014457670E+02  0.10433854409E+03  0.22425721150E+03  0.15294330000E+03 0.  0.
<mgrwt>
<rscale>  0 0.49469137E+03</rscale>
<asrwt>0</asrwt>
<pdfrwt beam="1">  1        2 0.42365846E+00 0.67068869E+03</pdfrwt>
<pdfrwt beam="2">  1       -2 0.31699036E-01 0.67068869E+03</pdfrwt>
<totfact> 0.24281414E+01</totfact>
</mgrwt>
</event>
<event>
 4    1  0.7280516E-007  0.6633934E+03  0.7818608E-02  0.1020921E+00
          2   -1    0    0  501    0  0.00000000000E+00  0.00000000000E+00  0.48496660542E+03  0.48496660543E+03  0.25500000000E-02 0. -1.
         -2   -1    0    0    0  501 -0.00000000000E+00 -0.00000000000E+00 -0.58054397014E+03  0.58054397014E+03  0.25500000000E-02 0.  1.
    8880023    1    1    2    0    0  0.52850032091E+02  0.59054749845E+02  0.22589244136E+03  0.70079825249E+03  0.65864270000E+03 0. -1.
    8880022    1    1    2    0    0 -0.52850032091E+02 -0.59054749845E+02 -0.32146980608E+03  0.36471232308E+03  0.15294330000E+03 0.  0.
<mgrwt>
<rscale>  0 0.47355688E+03</rscale>
<asrwt>0</asrwt>
<pdfrwt beam="1">  1        2 0.74610247E-01 0.66339339E+03</pdfrwt>
<pdfrwt beam="2">  1       -2 0.89314456E-01 0.66339339E+03</pdfrwt>
<totfact> 0.69787374E+01</totfact>
</mgrwt>
</event>
<event>
 4    1  0.7280516E-007  0.6929717E+03  0.7818608E-02  0.1002771E+00
          2   -1    0    0  501    0  0.00000000000E+00  0.00000000000E+00  0.71066192443E+03  0.71066192443E+03  0.25500000000E-02 0. -1.
         -2   -1    0    0    0  501 -0.00000000000E+00 -0.00000000000E+00 -0.40217957791E+03  0.40217957792E+03  0.25500000000E-02 0.  1.
    8880023    1    1    2    0    0 -0.21408208708E+03  0.23840976786E+02  0.43679838026E+03  0.81914746136E+03  0.65864270000E+03 0. -1.
    8880022    1    1    2    0    0  0.21408208708E+03 -0.23840976786E+02 -0.12831603374E+03  0.29369404099E+03  0.15294330000E+03 0.  0.
<mgrwt>
<rscale>  0 0.54451730E+03</rscale>
<asrwt>0</asrwt>
<pdfrwt beam="1">  1        2 0.10933260E+00 0.69297167E+03</pdfrwt>
<pdfrwt beam="2">  1       -2 0.61873781E-01 0.69297167E+03</pdfrwt>
<totfact> 0.99044998E+01</totfact>
</mgrwt>
</event>
<event>
 4    1  0.7280516E-007  0.7269292E+03  0.7818608E-02  0.9899801E-01
          2   -1    0    0  501    0  0.00000000000E+00  0.00000000000E+00  0.85143408622E+03  0.85143408622E+03  0.25500000000E-02 0. -1.
         -2   -1    0    0    0  501 -0.00000000000E+00 -0.00000000000E+00 -0.14865971023E+04  0.14865971023E+04  0.25500000000E-02 0.  1.
    8880023    1    1    2    0    0  0.20532334243E+03  0.22903737901E+03  0.66989006947E+03  0.98852349864E+03  0.65864270000E+03 0. -1.
    8880022    1    1    2    0    0 -0.20532334243E+03 -0.22903737901E+03 -0.13050530855E+04  0.13495076899E+04  0.15294330000E+03 0.  0.
<mgrwt>
<rscale>  0 0.60270910E+03</rscale>
<asrwt>0</asrwt>
<pdfrwt beam="1">  1        2 0.13098986E+00 0.72692916E+03</pdfrwt>
<pdfrwt beam="2">  1       -2 0.22870725E+00 0.72692916E+03</pdfrwt>
<totfact> 0.28446046E+00</totfact>
</mgrwt>
</event>
<event>
 4    1  0.7280516E-007  0.6675091E+03  0.7818608E-02  0.1017515E+00
         -2   -1    0    0    0  501 -0.00000000000E+00  0.00000000000E+00  0.22106627506E+03  0.22106627507E+03  0.25500000000E-02 0.  1.
          2   -1    0    0  501    0  0.00000000000E+00 -0.00000000000E+00 -0.23540901108E+04  0.23540901108E+04  0.25500000000E-02 0. -1.
    8880023    1    1    2    0    0 -0.27679599568E+02  0.10484281423E+03 -0.22548441393E+04  0.23515719157E+04  0.65864270000E+03 0. -1.
    8880022    1    1    2    0    0  0.27679599568E+02 -0.10484281423E+03  0.12182030356E+03  0.22358447017E+03  0.15294330000E+03 0.  0.
<mgrwt>
<rscale>  0 0.48594072E+03</rscale>
<asrwt>0</asrwt>
<pdfrwt beam="1">  1        2 0.36216769E+00 0.66750909E+03</pdfrwt>
<pdfrwt beam="2">  1       -2 0.34010198E-01 0.66750909E+03</pdfrwt>
<totfact> 0.35939784E+01</totfact>
</mgrwt>
</event>
<event>
 4    1  0.7280516E-007  0.7529610E+03  0.7818608E-02  0.9823684E-01
         -2   -1    0    0    0  501 -0.00000000000E+00  0.00000000000E+00  0.50079315505E+03  0.50079315506E+03  0.25500000000E-02 0.  1.
          2   -1    0    0  501    0  0.00000000000E+00 -0.00000000000E+00 -0.93598672714E+03  0.93598672714E+03  0.25500000000E-02 0. -1.
    8880023    1    1    2    0    0 -0.32224305074E+03  0.17117080157E+03 -0.64276098491E+03  0.98999591769E+03  0.65864270000E+03 0. -1.
    8880022    1    1    2    0    0  0.32224305074E+03 -0.17117080157E+03  0.20756741282E+03  0.44678396451E+03  0.15294330000E+03 0.  0.
<mgrwt>
<rscale>  0 0.64106879E+03</rscale>
<asrwt>0</asrwt>
<pdfrwt beam="1">  1        2 0.14399796E+00 0.75296098E+03</pdfrwt>
<pdfrwt beam="2">  1       -2 0.77045101E-01 0.75296098E+03</pdfrwt>
<totfact> 0.42332472E+01</totfact>
</mgrwt>
</event>
<event>
 4    1  0.7280516E-007  0.1027919E+04  0.7818608E-02  0.9345909E-01
          2   -1    0    0  501    0  0.00000000000E+00  0.00000000000E+00  0.22653344664E+04  0.22653344664E+04  0.25500000000E-02 0. -1.
         -2   -1    0    0    0  501 -0.00000000000E+00 -0.00000000000E+00 -0.50352201134E+03  0.50352201135E+03  0.25500000000E-02 0.  1.
    8880023    1    1    2    0    0  0.50555918410E+03 -0.60598428395E+03  0.16683262385E+04  0.19595738530E+04  0.65864270000E+03 0.  1.
    8880022    1    1    2    0    0 -0.50555918410E+03  0.60598428395E+03  0.93486216558E+02  0.80928262475E+03  0.15294330000E+03 0.  0.
<mgrwt>
<rscale>  0 0.96664030E+03</rscale>
<asrwt>0</asrwt>
<pdfrwt beam="1">  1        2 0.34851300E+00 0.10279189E+04</pdfrwt>
<pdfrwt beam="2">  1       -2 0.77464924E-01 0.10279189E+04</pdfrwt>
<totfact> 0.70684182E+00</totfact>
</mgrwt>
</event>
<event>
 4    1  0.7280516E-007  0.1331119E+04  0.7818608E-02  0.9039142E-01
          2   -1    0    0  501    0  0.00000000000E+00  0.00000000000E+00  0.16339024735E+04  0.16339024735E+04  0.25500000000E-02 0. -1.
         -2   -1    0    0    0  501 -0.00000000000E+00 -0.00000000000E+00 -0.12374607150E+04  0.12374607150E+04  0.25500000000E-02 0.  1.
    8880023    1    1    2    0    0  0.11305097453E+04 -0.24497983814E+03  0.89339032394E+03  0.16031294029E+04  0.65864270000E+03 0.  0.
    8880022    1    1    2    0    0 -0.11305097453E+04  0.24497983814E+03 -0.49694856538E+03  0.12682337856E+04  0.15294330000E+03 0.  0.
<mgrwt>
<rscale>  0 0.12879922E+04</rscale>
<asrwt>0</asrwt>
<pdfrwt beam="1">  1        2 0.25136961E+00 0.13311189E+04</pdfrwt>
<pdfrwt beam="2">  1       -2 0.19037857E+00 0.13311189E+04</pdfrwt>
<totfact> 0.15741595E+00</totfact>
</mgrwt>
</event>
<event>
 4    1  0.1202942E-006  0.7862866E+03  0.7818608E-02  0.9741272E-01
         -2   -1    0    0    0  501 -0.00000000000E+00  0.00000000000E+00  0.15219527341E+04  0.15219527341E+04  0.25500000000E-02 0.  1.
          2   -1    0    0  501    0  0.00000000000E+00 -0.00000000000E+00 -0.15754168058E+04  0.15754168058E+04  0.25500000000E-02 0. -1.
    8880023    1    1    2    0    0  0.63863050588E+02 -0.42468558559E+03 -0.14384277084E+04  0.16393049790E+04  0.65864270000E+03 0. -1.
    8880022    1    1    2    0    0 -0.63863050588E+02  0.42468558559E+03  0.13849636366E+04  0.14580645609E+04  0.15294330000E+03 0.  0.
<mgrwt>
<rscale>  0 0.68611773E+03</rscale>
<asrwt>0</asrwt>
<pdfrwt beam="1">  1        2 0.24237182E+00 0.78628655E+03</pdfrwt>
<pdfrwt beam="2">  1       -2 0.23414657E+00 0.78628655E+03</pdfrwt>
<totfact> 0.95785900E-01</totfact>
</mgrwt>
</event>
<event>
 4    1  0.7280516E-007  0.8750891E+03  0.7818608E-02  0.9567267E-01
          2   -1    0    0  501    0  0.00000000000E+00  0.00000000000E+00  0.23410619954E+04  0.23410619954E+04  0.25500000000E-02 0. -1.
         -2   -1    0    0    0  501 -0.00000000000E+00 -0.00000000000E+00 -0.26930957242E+03  0.26930957243E+03  0.25500000000E-02 0.  1.
    8880023    1    1    2    0    0 -0.89315358678E+02  0.56920420263E+03  0.16881748731E+04  0.19015034226E+04  0.65864270000E+03 0.  0.
    8880022    1    1    2    0    0  0.89315358678E+02 -0.56920420263E+03  0.38357754986E+03  0.70886814526E+03  0.15294330000E+03 0.  0.
<mgrwt>
<rscale>  0 0.79501095E+03</rscale>
<asrwt>0</asrwt>
<pdfrwt beam="1">  1        2 0.36016337E+00 0.87508906E+03</pdfrwt>
<pdfrwt beam="2">  1       -2 0.41432244E-01 0.87508906E+03</pdfrwt>
<totfact> 0.24271554E+01</totfact>
</mgrwt>
</event>
<event>
 4    1  0.7280516E-007  0.7152335E+03  0.7818608E-02  0.9939057E-01
         -2   -1    0    0    0  501 -0.00000000000E+00  0.00000000000E+00  0.44698692190E+03  0.44698692191E+03  0.25500000000E-02 0.  1.
          2   -1    0    0  501    0  0.00000000000E+00 -0.00000000000E+00 -0.12658704639E+04  0.12658704639E+04  0.25500000000E-02 0. -1.
    8880023    1    1    2    0    0  0.25184665614E+03 -0.11967444325E+03 -0.10840830027E+04  0.12987666740E+04  0.65864270000E+03 0. -1.
    8880022    1    1    2    0    0 -0.25184665614E+03  0.11967444325E+03  0.26519946072E+03  0.41409071175E+03  0.15294330000E+03 0.  0.
<mgrwt>
<rscale>  0 0.58405189E+03</rscale>
<asrwt>0</asrwt>
<pdfrwt beam="1">  1        2 0.19474930E+00 0.71523347E+03</pdfrwt>
<pdfrwt beam="2">  1       -2 0.68767219E-01 0.71523347E+03</pdfrwt>
<totfact> 0.34226549E+01</totfact>
</mgrwt>
</event>
<event>
 4    1  0.7280516E-007  0.7640992E+03  0.7818608E-02  0.9794608E-01
          2   -1    0    0  501    0  0.00000000000E+00  0.00000000000E+00  0.12560747149E+04  0.12560747149E+04  0.25500000000E-02 0. -1.
         -2   -1    0    0    0  501 -0.00000000000E+00 -0.00000000000E+00 -0.64273024856E+03  0.64273024857E+03  0.25500000000E-02 0.  1.
    8880023    1    1    2    0    0 -0.19311423708E+03 -0.33577406072E+03  0.10479139262E+04  0.12969082972E+04  0.65864270000E+03 0.  0.
    8880022    1    1    2    0    0  0.19311423708E+03  0.33577406072E+03 -0.43456945984E+03  0.60189666627E+03  0.15294330000E+03 0.  0.
<mgrwt>
<rscale>  0 0.65652687E+03</rscale>
<asrwt>0</asrwt>
<pdfrwt beam="1">  1        2 0.19324226E+00 0.76409917E+03</pdfrwt>
<pdfrwt beam="2">  1       -2 0.98881576E-01 0.76409917E+03</pdfrwt>
<totfact> 0.15156049E+01</totfact>
</mgrwt>
</event>
<event>
 4    1  0.7280516E-007  0.8169713E+03  0.7818608E-02  0.9675235E-01
         -2   -1    0    0    0  501 -0.00000000000E+00  0.00000000000E+00  0.22462688480E+04  0.22462688480E+04  0.25500000000E-02 0.  1.
          2   -1    0    0  501    0  0.00000000000E+00 -0.00000000000E+00 -0.41902890030E+03  0.41902890031E+03  0.25500000000E-02 0. -1.
    8880023    1    1    2    0    0 -0.48237041939E+03  0.30834234230E+02  0.51487164459E+02  0.81859214867E+03  0.65864270000E+03 0.  0.
    8880022    1    1    2    0    0  0.48237041939E+03 -0.30834234230E+02  0.17757527832E+04  0.18467055996E+04  0.15294330000E+03 0.  0.
<mgrwt>
<rscale>  0 0.72510642E+03</rscale>
<asrwt>0</asrwt>
<pdfrwt beam="1">  1        2 0.64465984E-01 0.81697134E+03</pdfrwt>
<pdfrwt beam="2">  1       -2 0.34557983E+00 0.81697134E+03</pdfrwt>
<totfact> 0.13027893E+00</totfact>
</mgrwt>
</event>
<event>
 4    1  0.7280516E-007  0.6594729E+03  0.7818608E-02  0.1024703E+00
         -2   -1    0    0    0  501 -0.00000000000E+00  0.00000000000E+00  0.10168230053E+04  0.10168230053E+04  0.25500000000E-02 0.  1.
          2   -1    0    0  501    0  0.00000000000E+00 -0.00000000000E+00 -0.61884867415E+03  0.61884867416E+03  0.25500000000E-02 0. -1.
    8880023    1    1    2    0    0  0.20259999730E+02 -0.26151247857E+02 -0.43376579393E+03  0.78933980364E+03  0.65864270000E+03 0. -1.
    8880022    1    1    2    0    0 -0.20259999730E+02  0.26151247857E+02  0.83174012513E+03  0.84633187587E+03  0.15294330000E+03 0.  0.
<mgrwt>
<rscale>  0 0.46026981E+03</rscale>
<asrwt>0</asrwt>
<pdfrwt beam="1">  1        2 0.95207489E-01 0.65947294E+03</pdfrwt>
<pdfrwt beam="2">  1       -2 0.15643431E+00 0.65947294E+03</pdfrwt>
<totfact> 0.13110737E+01</totfact>
</mgrwt>
</event>
<event>
 4    1  0.7280516E-007  0.6703690E+03  0.7818608E-02  0.1015400E+00
         -2   -1    0    0    0  501 -0.00000000000E+00  0.00000000000E+00  0.74519906941E+03  0.74519906941E+03  0.25500000000E-02 0.  1.
          2   -1    0    0  501    0  0.00000000000E+00 -0.00000000000E+00 -0.11665433862E+04  0.11665433862E+04  0.25500000000E-02 0. -1.
    8880023    1    1    2    0    0 -0.10406815135E+03  0.68951066050E+02 -0.10539303511E+04  0.12490651788E+04  0.65864270000E+03 0. -1.
    8880022    1    1    2    0    0  0.10406815135E+03 -0.68951066050E+02  0.63258603421E+03  0.66267727691E+03  0.15294330000E+03 0.  0.
<mgrwt>
<rscale>  0 0.49383882E+03</rscale>
<asrwt>0</asrwt>
<pdfrwt beam="1">  1        2 0.17946821E+00 0.67036903E+03</pdfrwt>
<pdfrwt beam="2">  1       -2 0.11464601E+00 0.67036903E+03</pdfrwt>
<totfact> 0.12135434E+01</totfact>
</mgrwt>
</event>
<event>
 4    1  0.7280516E-007  0.6935325E+03  0.7818608E-02  0.1002517E+00
          2   -1    0    0  501    0  0.00000000000E+00  0.00000000000E+00  0.24357633358E+04  0.24357633358E+04  0.25500000000E-02 0. -1.
         -2   -1    0    0    0  501 -0.00000000000E+00 -0.00000000000E+00 -0.24680381804E+03  0.24680381806E+03  0.25500000000E-02 0.  1.
    8880023    1    1    2    0    0 -0.47273283732E+02 -0.21199600407E+03  0.22942732089E+04  0.23968055475E+04  0.65864270000E+03 0. -1.
    8880022    1    1    2    0    0  0.47273283732E+02  0.21199600407E+03 -0.10531369117E+03  0.28576160635E+03  0.15294330000E+03 0.  0.
<mgrwt>
<rscale>  0 0.54560285E+03</rscale>
<asrwt>0</asrwt>
<pdfrwt beam="1">  1        2 0.37473283E+00 0.69353246E+03</pdfrwt>
<pdfrwt beam="2">  1       -2 0.37969817E-01 0.69353246E+03</pdfrwt>
<totfact> 0.26109191E+01</totfact>
</mgrwt>
</event>
<event>
 4    1  0.7280516E-007  0.1111185E+04  0.7818608E-02  0.9248704E-01
          2   -1    0    0  501    0  0.00000000000E+00  0.00000000000E+00  0.19013215444E+04  0.19013215444E+04  0.25500000000E-02 0. -1.
         -2   -1    0    0    0  501 -0.00000000000E+00 -0.00000000000E+00 -0.96736734419E+03  0.96736734419E+03  0.25500000000E-02 0.  1.
    8880023    1    1    2    0    0 -0.83549337103E+03 -0.32073658918E+03  0.14480995924E+04  0.18253010076E+04  0.65864270000E+03 0. -1.
    8880022    1    1    2    0    0  0.83549337103E+03  0.32073658918E+03 -0.51414539224E+03  0.10433878809E+04  0.15294330000E+03 0.  0.
<mgrwt>
<rscale>  0 0.10564554E+04</rscale>
<asrwt>0</asrwt>
<pdfrwt beam="1">  1        2 0.29251100E+00 0.11111847E+04</pdfrwt>
<pdfrwt beam="2">  1       -2 0.14882575E+00 0.11111847E+04</pdfrwt>
<totfact> 0.22791708E+00</totfact>
</mgrwt>
</event>
<event>
 4    1  0.7280516E-007  0.1045555E+04  0.7818608E-02  0.9324244E-01
          2   -1    0    0  501    0  0.00000000000E+00  0.00000000000E+00  0.68126687491E+03  0.68126687491E+03  0.25500000000E-02 0. -1.
         -2   -1    0    0    0  501 -0.00000000000E+00 -0.00000000000E+00 -0.15353017844E+04  0.15353017844E+04  0.25500000000E-02 0.  1.
    8880023    1    1    2    0    0  0.74621023860E+03  0.32022616468E+03 -0.91313062607E+03  0.13881614687E+04  0.65864270000E+03 0.  1.
    8880022    1    1    2    0    0 -0.74621023860E+03 -0.32022616468E+03  0.59095716552E+02  0.82840719061E+03  0.15294330000E+03 0.  0.
<mgrwt>
<rscale>  0 0.98581196E+03</rscale>
<asrwt>0</asrwt>
<pdfrwt beam="1">  1        2 0.10481029E+00 0.10455547E+04</pdfrwt>
<pdfrwt beam="2">  1       -2 0.23620027E+00 0.10455547E+04</pdfrwt>
<totfact> 0.32896727E+00</totfact>
</mgrwt>
</event>
<event>
 4    1  0.7280516E-007  0.7018409E+03  0.7818608E-02  0.9989648E-01
         -2   -1    0    0    0  501 -0.00000000000E+00  0.00000000000E+00  0.89449829881E+03  0.89449829881E+03  0.25500000000E-02 0.  1.
          2   -1    0    0  501    0  0.00000000000E+00 -0.00000000000E+00 -0.62967891446E+03  0.62967891446E+03  0.25500000000E-02 0. -1.
    8880023    1    1    2    0    0 -0.11776700202E+03  0.21189941731E+03 -0.39459176827E+03  0.80516041859E+03  0.65864270000E+03 0. -1.
    8880022    1    1    2    0    0  0.11776700202E+03 -0.21189941731E+03  0.65941115262E+03  0.71901679468E+03  0.15294330000E+03 0.  0.
<mgrwt>
<rscale>  0 0.56106468E+03</rscale>
<asrwt>0</asrwt>
<pdfrwt beam="1">  1        2 0.96873679E-01 0.70184089E+03</pdfrwt>
<pdfrwt beam="2">  1       -2 0.13761512E+00 0.70184089E+03</pdfrwt>
<totfact> 0.17886819E+01</totfact>
</mgrwt>
</event>
<event>
 4    1  0.7280516E-007  0.7505033E+03  0.7818608E-02  0.9830345E-01
          2   -1    0    0  501    0  0.00000000000E+00  0.00000000000E+00  0.18834287752E+04  0.18834287752E+04  0.25500000000E-02 0. -1.
         -2   -1    0    0    0  501 -0.00000000000E+00 -0.00000000000E+00 -0.31934212974E+03  0.31934212975E+03  0.25500000000E-02 0.  1.
    8880023    1    1    2    0    0  0.31237301492E+03 -0.17851621358E+03  0.16408702161E+04  0.18043586704E+04  0.65864270000E+03 0. -1.
    8880022    1    1    2    0    0 -0.31237301492E+03  0.17851621358E+03 -0.76783570604E+02  0.39841223462E+03  0.15294330000E+03 0.  0.
<mgrwt>
<rscale>  0 0.63759200E+03</rscale>
<asrwt>0</asrwt>
<pdfrwt beam="1">  1        2 0.28975828E+00 0.75050326E+03</pdfrwt>
<pdfrwt beam="2">  1       -2 0.49129557E-01 0.75050326E+03</pdfrwt>
<totfact> 0.31333604E+01</totfact>
</mgrwt>
</event>
<event>
 4    1  0.7280516E-007  0.8082747E+03  0.7818608E-02  0.9693182E-01
         -2   -1    0    0    0  501 -0.00000000000E+00  0.00000000000E+00  0.75220149763E+03  0.75220149763E+03  0.25500000000E-02 0.  1.
          2   -1    0    0  501    0  0.00000000000E+00 -0.00000000000E+00 -0.72300835564E+03  0.72300835564E+03  0.25500000000E-02 0. -1.
    8880023    1    1    2    0    0  0.44775243184E+03  0.13789703155E+03 -0.32199029664E+03  0.87004930258E+03  0.65864270000E+03 0. -1.
    8880022    1    1    2    0    0 -0.44775243184E+03 -0.13789703155E+03  0.35118343863E+03  0.60516055069E+03  0.15294330000E+03 0.  0.
<mgrwt>
<rscale>  0 0.71424193E+03</rscale>
<asrwt>0</asrwt>
<pdfrwt beam="1">  1        2 0.11123205E+00 0.80827473E+03</pdfrwt>
<pdfrwt beam="2">  1       -2 0.11572331E+00 0.80827473E+03</pdfrwt>
<totfact> 0.23028095E+01</totfact>
</mgrwt>
</event>
<event>
 4    1  0.7280516E-007  0.7173099E+03  0.7818608E-02  0.9931796E-01
         -2   -1    0    0    0  501 -0.00000000000E+00  0.00000000000E+00  0.11055813781E+03  0.11055813784E+03  0.25500000000E-02 0.  1.
          2   -1    0    0  501    0  0.00000000000E+00 -0.00000000000E+00 -0.27549355202E+04  0.27549355202E+04  0.25500000000E-02 0. -1.
    8880023    1    1    2    0    0 -0.24388437186E+03  0.14575197527E+03 -0.22159081261E+04  0.23291161960E+04  0.65864270000E+03 0.  0.
    8880022    1    1    2    0    0  0.24388437186E+03 -0.14575197527E+03 -0.42846925635E+03  0.53637746204E+03  0.15294330000E+03 0.  0.
<mgrwt>
<rscale>  0 0.58744769E+03</rscale>
<asrwt>0</asrwt>
<pdfrwt beam="1">  1        2 0.42383618E+00 0.71730986E+03</pdfrwt>
<pdfrwt beam="2">  1       -2 0.17008946E-01 0.71730986E+03</pdfrwt>
<totfact> 0.73168984E+01</totfact>
</mgrwt>
</event>
<event>
 4    1  0.7280516E-007  0.9542851E+03  0.7818608E-02  0.9443975E-01
          2   -1    0    0  501    0  0.00000000000E+00  0.00000000000E+00  0.83894088194E+03  0.83894088194E+03  0.25500000000E-02 0. -1.
         -2   -1    0    0    0  501 -0.00000000000E+00 -0.00000000000E+00 -0.82394165500E+03  0.82394165500E+03  0.25500000000E-02 0.  1.
    8880023    1    1    2    0    0 -0.67292041548E+03 -0.15500978620E+03 -0.23290030706E+02  0.95456930140E+03  0.65864270000E+03 0.  1.
    8880022    1    1    2    0    0  0.67292041548E+03  0.15500978620E+03  0.38289257642E+02  0.70831323554E+03  0.15294330000E+03 0. -1.
<mgrwt>
<rscale>  0 0.88543379E+03</rscale>
<asrwt>0</asrwt>
<pdfrwt beam="1">  1        2 0.12906783E+00 0.95428514E+03</pdfrwt>
<pdfrwt beam="2">  1       -2 0.12676025E+00 0.95428514E+03</pdfrwt>
<totfact> 0.14901953E+01</totfact>
</mgrwt>
</event>
<event>
 4    1  0.7280516E-007  0.7011260E+03  0.7818608E-02  0.9992562E-01
         -2   -1    0    0    0  501 -0.00000000000E+00  0.00000000000E+00  0.12857832380E+04  0.12857832380E+04  0.25500000000E-02 0.  1.
          2   -1    0    0  501    0  0.00000000000E+00 -0.00000000000E+00 -0.57609310622E+03  0.57609310623E+03  0.25500000000E-02 0. -1.
    8880023    1    1    2    0    0  0.11235636007E+02 -0.24008600821E+03 -0.33642593556E+03  0.77766326083E+03  0.65864270000E+03 0. -1.
    8880022    1    1    2    0    0 -0.11235636007E+02  0.24008600821E+03  0.10461160674E+04  0.10842130834E+04  0.15294330000E+03 0.  0.
<mgrwt>
<rscale>  0 0.55977602E+03</rscale>
<asrwt>0</asrwt>
<pdfrwt beam="1">  1        2 0.88629710E-01 0.70112605E+03</pdfrwt>
<pdfrwt beam="2">  1       -2 0.19781280E+00 0.70112605E+03</pdfrwt>
<totfact> 0.73450322E+00</totfact>
</mgrwt>
</event>
<event>
 4    1  0.7280516E-007  0.8224684E+03  0.7818608E-02  0.9664168E-01
         -2   -1    0    0    0  501 -0.00000000000E+00  0.00000000000E+00  0.10164486205E+04  0.10164486205E+04  0.25500000000E-02 0.  1.
          2   -1    0    0  501    0  0.00000000000E+00 -0.00000000000E+00 -0.10692168491E+04  0.10692168491E+04  0.25500000000E-02 0. -1.
    8880023    1    1    2    0    0 -0.48868222127E+03  0.61917434503E+02 -0.81985310206E+03  0.11612981518E+04  0.65864270000E+03 0. -1.
    8880022    1    1    2    0    0  0.48868222127E+03 -0.61917434503E+02  0.76708487350E+03  0.92436731781E+03  0.15294330000E+03 0.  0.
<mgrwt>
<rscale>  0 0.73190871E+03</rscale>
<asrwt>0</asrwt>
<pdfrwt beam="1">  1        2 0.16449490E+00 0.82246841E+03</pdfrwt>
<pdfrwt beam="2">  1       -2 0.15637671E+00 0.82246841E+03</pdfrwt>
<totfact> 0.61671204E+00</totfact>
</mgrwt>
</event>
<event>
 4    1  0.7280516E-007  0.8402818E+03  0.7818608E-02  0.9629649E-01
         -2   -1    0    0    0  501 -0.00000000000E+00  0.00000000000E+00  0.36030776372E+03  0.36030776373E+03  0.25500000000E-02 0.  1.
          2   -1    0    0  501    0  0.00000000000E+00 -0.00000000000E+00 -0.16584400878E+04  0.16584400878E+04  0.25500000000E-02 0. -1.
    8880023    1    1    2    0    0 -0.30536967017E+02 -0.52089415594E+03 -0.12019793762E+04  0.14665700990E+04  0.65864270000E+03 0.  0.
    8880022    1    1    2    0    0  0.30536967017E+02  0.52089415594E+03 -0.96152947873E+02  0.55217775258E+03  0.15294330000E+03 0.  0.
<mgrwt>
<rscale>  0 0.75364502E+03</rscale>
<asrwt>0</asrwt>
<pdfrwt beam="1">  1        2 0.25514462E+00 0.84028176E+03</pdfrwt>
<pdfrwt beam="2">  1       -2 0.55431965E-01 0.84028176E+03</pdfrwt>
<totfact> 0.32130183E+01</totfact>
</mgrwt>
</event>
<event>
 4    1  0.7280516E-007  0.7803212E+03  0.7818608E-02  0.9755083E-01
         -2   -1    0    0    0  501 -0.00000000000E+00  0.00000000000E+00  0.44892082586E+03  0.44892082587E+03  0.25500000000E-02 0.  1.
          2   -1    0    0  501    0  0.00000000000E+00 -0.00000000000E+00 -0.27755338189E+04  0.27755338189E+04  0.25500000000E-02 0. -1.
    8880023    1    1    2    0    0 -0.70617438320E+02  0.41243682392E+03 -0.25913027799E+04  0.27062430156E+04  0.65864270000E+03 0. -1.
    8880022    1    1    2    0    0  0.70617438320E+02 -0.41243682392E+03  0.26468978684E+03  0.51821162915E+03  0.15294330000E+03 0.  0.
<mgrwt>
<rscale>  0 0.67829772E+03</rscale>
<asrwt>0</asrwt>
<pdfrwt beam="1">  1        2 0.42700519E+00 0.78032119E+03</pdfrwt>
<pdfrwt beam="2">  1       -2 0.69064744E-01 0.78032119E+03</pdfrwt>
<totfact> 0.48214581E+00</totfact>
</mgrwt>
</event>
<event>
 4    1  0.7280516E-007  0.1079142E+04  0.7818608E-02  0.9284642E-01
          2   -1    0    0  501    0  0.00000000000E+00  0.00000000000E+00  0.16375995348E+04  0.16375995348E+04  0.25500000000E-02 0. -1.
         -2   -1    0    0    0  501 -0.00000000000E+00 -0.00000000000E+00 -0.64447448297E+03  0.64447448298E+03  0.25500000000E-02 0.  1.
    8880023    1    1    2    0    0  0.42648213251E+03  0.74084428888E+03  0.90650060852E+03  0.14093583041E+04  0.65864270000E+03 0.  0.
    8880022    1    1    2    0    0 -0.42648213251E+03 -0.74084428888E+03  0.86624443269E+02  0.87271571368E+03  0.15294330000E+03 0.  0.
<mgrwt>
<rscale>  0 0.10220912E+04</rscale>
<asrwt>0</asrwt>
<pdfrwt beam="1">  1        2 0.25193839E+00 0.10791420E+04</pdfrwt>
<pdfrwt beam="2">  1       -2 0.99149922E-01 0.10791420E+04</pdfrwt>
<totfact> 0.88537547E+00</totfact>
</mgrwt>
</event>
<event>
 4    1  0.7280516E-007  0.1061241E+04  0.7818608E-02  0.9305489E-01
          2   -1    0    0  501    0  0.00000000000E+00  0.00000000000E+00  0.39514081250E+04  0.39514081250E+04  0.25500000000E-02 0. -1.
         -2   -1    0    0    0  501 -0.00000000000E+00 -0.00000000000E+00 -0.36248505376E+03  0.36248505377E+03  0.25500000000E-02 0.  1.
    8880023    1    1    2    0    0 -0.10678983870E+03 -0.82523809925E+03  0.32209550428E+04  0.33912805227E+04  0.65864270000E+03 0.  0.
    8880022    1    1    2    0    0  0.10678983870E+03  0.82523809925E+03  0.36796802848E+03  0.92261265604E+03  0.15294330000E+03 0.  0.
<mgrwt>
<rscale>  0 0.10027911E+04</rscale>
<asrwt>0</asrwt>
<pdfrwt beam="1">  1        2 0.60790892E+00 0.10612409E+04</pdfrwt>
<pdfrwt beam="2">  1       -2 0.55766933E-01 0.10612409E+04</pdfrwt>
<totfact> 0.11775057E+00</totfact>
</mgrwt>
</event>
<event>
 4    1  0.7280516E-007  0.8395194E+03  0.7818608E-02  0.9631087E-01
          2   -1    0    0  501    0  0.00000000000E+00  0.00000000000E+00  0.18684216229E+04  0.18684216229E+04  0.25500000000E-02 0. -1.
         -2   -1    0    0    0  501 -0.00000000000E+00 -0.00000000000E+00 -0.31390286965E+03  0.31390286966E+03  0.25500000000E-02 0.  1.
    8880023    1    1    2    0    0  0.47591996610E+03  0.21090946051E+03  0.13746365206E+04  0.16107198343E+04  0.65864270000E+03 0.  0.
    8880022    1    1    2    0    0 -0.47591996610E+03 -0.21090946051E+03  0.17988223264E+03  0.57160465822E+03  0.15294330000E+03 0.  0.
<mgrwt>
<rscale>  0 0.75272360E+03</rscale>
<asrwt>0</asrwt>
<pdfrwt beam="1">  1        2 0.28744948E+00 0.83951940E+03</pdfrwt>
<pdfrwt beam="2">  1       -2 0.48292749E-01 0.83951940E+03</pdfrwt>
<totfact> 0.32716015E+01</totfact>
</mgrwt>
</event>
<event>
 4    1  0.7280516E-007  0.6684194E+03  0.7818608E-02  0.1016822E+00
          2   -1    0    0  501    0  0.00000000000E+00  0.00000000000E+00  0.33211284105E+04  0.33211284105E+04  0.25500000000E-02 0. -1.
         -2   -1    0    0    0  501 -0.00000000000E+00 -0.00000000000E+00 -0.28277752405E+03  0.28277752406E+03  0.25500000000E-02 0.  1.
    8880023    1    1    2    0    0  0.11312865258E+03  0.13272581381E+02  0.32505767174E+04  0.33185890760E+04  0.65864270000E+03 0. -1.
    8880022    1    1    2    0    0 -0.11312865258E+03 -0.13272581381E+02 -0.21222583094E+03  0.28531685857E+03  0.15294330000E+03 0.  0.
<mgrwt>
<rscale>  0 0.48851013E+03</rscale>
<asrwt>0</asrwt>
<pdfrwt beam="1">  1        2 0.51094282E+00 0.66841937E+03</pdfrwt>
<pdfrwt beam="2">  1       -2 0.43504236E-01 0.66841937E+03</pdfrwt>
<totfact> 0.59166929E+00</totfact>
</mgrwt>
</event>
<event>
 4    1  0.7280516E-007  0.7273582E+03  0.7818608E-02  0.9898432E-01
         -2   -1    0    0    0  501 -0.00000000000E+00  0.00000000000E+00  0.14090843486E+04  0.14090843486E+04  0.25500000000E-02 0.  1.
          2   -1    0    0  501    0  0.00000000000E+00 -0.00000000000E+00 -0.30500167158E+03  0.30500167159E+03  0.25500000000E-02 0. -1.
    8880023    1    1    2    0    0  0.73112052940E+02  0.29982381654E+03  0.21169825728E+03  0.75753947201E+03  0.65864270000E+03 0. -1.
    8880022    1    1    2    0    0 -0.73112052940E+02 -0.29982381654E+03  0.89238441973E+03  0.95654654818E+03  0.15294330000E+03 0.  0.
<mgrwt>
<rscale>  0 0.60337341E+03</rscale>
<asrwt>0</asrwt>
<pdfrwt beam="1">  1        2 0.46923334E-01 0.72735816E+03</pdfrwt>
<pdfrwt beam="2">  1       -2 0.21678221E+00 0.72735816E+03</pdfrwt>
<totfact> 0.11420237E+01</totfact>
</mgrwt>
</event>
<event>
 4    1  0.9823068E-007  0.1117746E+04  0.7818608E-02  0.9241551E-01
         -2   -1    0    0    0  501 -0.00000000000E+00  0.00000000000E+00  0.14713289676E+04  0.14713289676E+04  0.25500000000E-02 0.  1.
          2   -1    0    0  501    0  0.00000000000E+00 -0.00000000000E+00 -0.16947901421E+04  0.16947901421E+04  0.25500000000E-02 0. -1.
    8880023    1    1    2    0    0  0.36103134938E+03  0.82776953566E+03 -0.13250241111E+04  0.17335066024E+04  0.65864270000E+03 0.  0.
    8880022    1    1    2    0    0 -0.36103134938E+03 -0.82776953566E+03  0.11015629366E+04  0.14326125072E+04  0.15294330000E+03 0.  0.
<mgrwt>
<rscale>  0 0.10634659E+04</rscale>
<asrwt>0</asrwt>
<pdfrwt beam="1">  1        2 0.26073695E+00 0.11177461E+04</pdfrwt>
<pdfrwt beam="2">  1       -2 0.22635830E+00 0.11177461E+04</pdfrwt>
<totfact> 0.87266326E-01</totfact>
</mgrwt>
</event>
<event>
 4    1  0.7280516E-007  0.6763868E+03  0.7818608E-02  0.1011446E+00
         -2   -1    0    0    0  501 -0.00000000000E+00  0.00000000000E+00  0.12370749369E+03  0.12370749371E+03  0.25500000000E-02 0.  1.
          2   -1    0    0  501    0  0.00000000000E+00 -0.00000000000E+00 -0.18644699924E+04  0.18644699924E+04  0.25500000000E-02 0. -1.
    8880023    1    1    2    0    0 -0.69594264883E+01 -0.15375471337E+03 -0.15782592088E+04  0.17170909359E+04  0.65864270000E+03 0. -1.
    8880022    1    1    2    0    0  0.69594264883E+01  0.15375471337E+03 -0.16250328994E+03  0.27108655030E+03  0.15294330000E+03 0.  0.
<mgrwt>
<rscale>  0 0.50903964E+03</rscale>
<asrwt>0</asrwt>
<pdfrwt beam="1">  1        2 0.28684152E+00 0.67638684E+03</pdfrwt>
<pdfrwt beam="2">  1       -2 0.19031923E-01 0.67638684E+03</pdfrwt>
<totfact> 0.19014910E+02</totfact>
</mgrwt>
</event>
<event>
 4    1  0.7280516E-007  0.6613902E+03  0.7818608E-02  0.1022775E+00
         -2   -1    0    0    0  501 -0.00000000000E+00  0.00000000000E+00  0.22620564535E+03  0.22620564537E+03  0.25500000000E-02 0.  1.
          2   -1    0    0  501    0  0.00000000000E+00 -0.00000000000E+00 -0.17160021128E+04  0.17160021128E+04  0.25500000000E-02 0. -1.
    8880023    1    1    2    0    0  0.18575729868E+02 -0.57285931422E+02 -0.16086888654E+04  0.17393437865E+04  0.65864270000E+03 0. -1.
    8880022    1    1    2    0    0 -0.18575729868E+02  0.57285931422E+02  0.11889239798E+03  0.20286397165E+03  0.15294330000E+03 0.  0.
<mgrwt>
<rscale>  0 0.46698263E+03</rscale>
<asrwt>0</asrwt>
<pdfrwt beam="1">  1        2 0.26400032E+00 0.66139016E+03</pdfrwt>
<pdfrwt beam="2">  1       -2 0.34800870E-01 0.66139016E+03</pdfrwt>
<totfact> 0.76843569E+01</totfact>
</mgrwt>
</event>
<event>
 4    1  0.7280516E-007  0.9984376E+03  0.7818608E-02  0.9383605E-01
          2   -1    0    0  501    0  0.00000000000E+00  0.00000000000E+00  0.87595075045E+03  0.87595075045E+03  0.25500000000E-02 0. -1.
         -2   -1    0    0    0  501 -0.00000000000E+00 -0.00000000000E+00 -0.17643996775E+04  0.17643996775E+04  0.25500000000E-02 0.  1.
    8880023    1    1    2    0    0 -0.69052103456E+03 -0.29368034236E+03  0.45245611403E+03  0.10961725156E+04  0.65864270000E+03 0.  0.
    8880022    1    1    2    0    0  0.69052103456E+03  0.29368034236E+03 -0.13409050411E+04  0.15441779123E+04  0.15294330000E+03 0.  0.
<mgrwt>
<rscale>  0 0.93437328E+03</rscale>
<asrwt>0</asrwt>
<pdfrwt beam="1">  1        2 0.13476165E+00 0.99843760E+03</pdfrwt>
<pdfrwt beam="2">  1       -2 0.27144610E+00 0.99843760E+03</pdfrwt>
<totfact> 0.14464336E+00</totfact>
</mgrwt>
</event>
<event>
 4    1  0.7280516E-007  0.7028764E+03  0.7818608E-02  0.9985471E-01
          2   -1    0    0  501    0  0.00000000000E+00  0.00000000000E+00  0.15299296846E+04  0.15299296846E+04  0.25500000000E-02 0. -1.
         -2   -1    0    0    0  501 -0.00000000000E+00 -0.00000000000E+00 -0.44315940454E+03  0.44315940455E+03  0.25500000000E-02 0.  1.
    8880023    1    1    2    0    0  0.40623121888E+02  0.24202242837E+03  0.13878192055E+04  0.15556598109E+04  0.65864270000E+03 0. -1.
    8880022    1    1    2    0    0 -0.40623121888E+02 -0.24202242837E+03 -0.30104892540E+03  0.41742927828E+03  0.15294330000E+03 0.  0.
<mgrwt>
<rscale>  0 0.56291899E+03</rscale>
<asrwt>0</asrwt>
<pdfrwt beam="1">  1        2 0.23537380E+00 0.70287645E+03</pdfrwt>
<pdfrwt beam="2">  1       -2 0.68178371E-01 0.70287645E+03</pdfrwt>
<totfact> 0.24764513E+01</totfact>
</mgrwt>
</event>
<event>
 4    1  0.7280516E-007  0.6872367E+03  0.7818608E-02  0.1005495E+00
          2   -1    0    0  501    0  0.00000000000E+00  0.00000000000E+00  0.34206342229E+04  0.34206342229E+04  0.25500000000E-02 0. -1.
         -2   -1    0    0    0  501 -0.00000000000E+00 -0.00000000000E+00 -0.10714293485E+03  0.10714293488E+03  0.25500000000E-02 0.  1.
    8880023    1    1    2    0    0  0.65111966918E+02  0.18505272375E+03  0.31635428222E+04  0.32373287558E+04  0.65864270000E+03 0. -1.
    8880022    1    1    2    0    0 -0.65111966918E+02 -0.18505272375E+03  0.14994846584E+03  0.29044840200E+03  0.15294330000E+03 0.  0.
<mgrwt>
<rscale>  0 0.53305228E+03</rscale>
<asrwt>0</asrwt>
<pdfrwt beam="1">  1        2 0.52625135E+00 0.68723670E+03</pdfrwt>
<pdfrwt beam="2">  1       -2 0.16483531E-01 0.68723670E+03</pdfrwt>
<totfact> 0.29857734E+01</totfact>
</mgrwt>
</event>
<event>
 4    1  0.7280516E-007  0.7903582E+03  0.7818608E-02  0.9732045E-01
         -2   -1    0    0    0  501 -0.00000000000E+00  0.00000000000E+00  0.47178342423E+03  0.47178342424E+03  0.25500000000E-02 0.  1.
          2   -1    0    0  501    0  0.00000000000E+00 -0.00000000000E+00 -0.10725696499E+04  0.10725696499E+04  0.25500000000E-02 0. -1.
    8880023    1    1    2    0    0 -0.29738408781E+03 -0.32002903023E+03 -0.71699286974E+03  0.10671198890E+04  0.65864270000E+03 0. -1.
    8880022    1    1    2    0    0  0.29738408781E+03  0.32002903023E+03  0.11620664409E+03  0.47723318516E+03  0.15294330000E+03 0.  0.
<mgrwt>
<rscale>  0 0.69140489E+03</rscale>
<asrwt>0</asrwt>
<pdfrwt beam="1">  1        2 0.16501071E+00 0.79035820E+03</pdfrwt>
<pdfrwt beam="2">  1       -2 0.72582066E-01 0.79035820E+03</pdfrwt>
<totfact> 0.39401685E+01</totfact>
</mgrwt>
</event>
<event>
 4    1  0.7280516E-007  0.7761738E+03  0.7818608E-02  0.9764903E-01
          2   -1    0    0  501    0  0.00000000000E+00  0.00000000000E+00  0.11584220402E+04  0.11584220402E+04  0.25500000000E-02 0. -1.
         -2   -1    0    0    0  501 -0.00000000000E+00 -0.00000000000E+00 -0.32583633010E+03  0.32583633011E+03  0.25500000000E-02 0.  1.
    8880023    1    1    2    0    0 -0.31019738478E+03  0.26909679786E+03  0.63824178348E+03  0.10048871999E+04  0.65864270000E+03 0.  0.
    8880022    1    1    2    0    0  0.31019738478E+03 -0.26909679786E+03  0.19434392658E+03  0.47937117035E+03  0.15294330000E+03 0.  0.
<mgrwt>
<rscale>  0 0.67280553E+03</rscale>
<asrwt>0</asrwt>
<pdfrwt beam="1">  1        2 0.17821878E+00 0.77617376E+03</pdfrwt>
<pdfrwt beam="2">  1       -2 0.50128666E-01 0.77617376E+03</pdfrwt>
<totfact> 0.76567308E+01</totfact>
</mgrwt>
</event>
<event>
 4    1  0.7280516E-007  0.8796545E+03  0.7818608E-02  0.9559515E-01
          2   -1    0    0  501    0  0.00000000000E+00  0.00000000000E+00  0.11933263614E+04  0.11933263614E+04  0.25500000000E-02 0. -1.
         -2   -1    0    0    0  501 -0.00000000000E+00 -0.00000000000E+00 -0.63479163941E+03  0.63479163942E+03  0.25500000000E-02 0.  1.
    8880023    1    1    2    0    0  0.21350277748E+03  0.54258484235E+03  0.79007486557E+03  0.11823748334E+04  0.65864270000E+03 0. -1.
    8880022    1    1    2    0    0 -0.21350277748E+03 -0.54258484235E+03 -0.23154014361E+03  0.64574316741E+03  0.15294330000E+03 0.  0.
<mgrwt>
<rscale>  0 0.80034681E+03</rscale>
<asrwt>0</asrwt>
<pdfrwt beam="1">  1        2 0.18358867E+00 0.87965445E+03</pdfrwt>
<pdfrwt beam="2">  1       -2 0.97660253E-01 0.87965445E+03</pdfrwt>
<totfact> 0.16786250E+01</totfact>
</mgrwt>
</event>
<event>
 4    1  0.7280516E-007  0.1113093E+04  0.7818608E-02  0.9246617E-01
         -2   -1    0    0    0  501 -0.00000000000E+00  0.00000000000E+00  0.35116587681E+03  0.35116587682E+03  0.25500000000E-02 0.  1.
          2   -1    0    0  501    0  0.00000000000E+00 -0.00000000000E+00 -0.34794153084E+04  0.34794153084E+04  0.25500000000E-02 0. -1.
    8880023    1    1    2    0    0  0.36178363608E+03 -0.82114487503E+03 -0.24639444832E+04  0.27037009686E+04  0.65864270000E+03 0.  0.
    8880022    1    1    2    0    0 -0.36178363608E+03  0.82114487503E+03 -0.66430494842E+03  0.11268802166E+04  0.15294330000E+03 0.  0.
<mgrwt>
<rscale>  0 0.10584955E+04</rscale>
<asrwt>0</asrwt>
<pdfrwt beam="1">  1        2 0.53529464E+00 0.11130932E+04</pdfrwt>
<pdfrwt beam="2">  1       -2 0.54025522E-01 0.11130932E+04</pdfrwt>
<totfact> 0.27628755E+00</totfact>
</mgrwt>
</event>
<event>
 4    1  0.7280516E-007  0.9405633E+03  0.7818608E-02  0.9463823E-01
          2   -1    0    0  501    0  0.00000000000E+00  0.00000000000E+00  0.32761141378E+04  0.32761141378E+04  0.25500000000E-02 0. -1.
         -2   -1    0    0    0  501 -0.00000000000E+00 -0.00000000000E+00 -0.52844529964E+03  0.52844529965E+03  0.25500000000E-02 0.  1.
    8880023    1    1    2    0    0 -0.11427634372E+03  0.66165700752E+03  0.29422623185E+04  0.30889426727E+04  0.65864270000E+03 0. -1.
    8880022    1    1    2    0    0  0.11427634372E+03 -0.66165700752E+03 -0.19459348034E+03  0.71561676472E+03  0.15294330000E+03 0.  0.
<mgrwt>
<rscale>  0 0.87004331E+03</rscale>
<asrwt>0</asrwt>
<pdfrwt beam="1">  1        2 0.50401754E+00 0.94056328E+03</pdfrwt>
<pdfrwt beam="2">  1       -2 0.81299280E-01 0.94056328E+03</pdfrwt>
<totfact> 0.15999442E+00</totfact>
</mgrwt>
</event>
<event>
 4    1  0.7280516E-007  0.1820342E+04  0.7818608E-02  0.8711366E-01
          2   -1    0    0  501    0  0.00000000000E+00  0.00000000000E+00  0.19454004910E+04  0.19454004910E+04  0.25500000000E-02 0. -1.
         -2   -1    0    0    0  501 -0.00000000000E+00 -0.00000000000E+00 -0.20303096425E+04  0.20303096425E+04  0.25500000000E-02 0.  1.
    8880023    1    1    2    0    0 -0.12505546954E+03  0.16923940135E+04  0.87534333115E+03  0.20198694316E+04  0.65864270000E+03 0.  0.
    8880022    1    1    2    0    0  0.12505546954E+03 -0.16923940135E+04 -0.96025248264E+03  0.19558407018E+04  0.15294330000E+03 0.  0.
<mgrwt>
<rscale>  0 0.17905026E+04</rscale>
<asrwt>0</asrwt>
<pdfrwt beam="1">  1        2 0.29929238E+00 0.18203424E+04</pdfrwt>
<pdfrwt beam="2">  1       -2 0.31235533E+00 0.18203424E+04</pdfrwt>
<totfact> 0.17328140E-01</totfact>
</mgrwt>
</event>
<event>
 4    1  0.7280516E-007  0.7312086E+03  0.7818608E-02  0.9886338E-01
          2   -1    0    0  501    0  0.00000000000E+00  0.00000000000E+00  0.89141277796E+03  0.89141277796E+03  0.25500000000E-02 0. -1.
         -2   -1    0    0    0  501 -0.00000000000E+00 -0.00000000000E+00 -0.53181992751E+03  0.53181992752E+03  0.25500000000E-02 0.  1.
    8880023    1    1    2    0    0 -0.28138143556E+03  0.14724223430E+03  0.64084404570E+03  0.97228960964E+03  0.65864270000E+03 0. -1.
    8880022    1    1    2    0    0  0.28138143556E+03 -0.14724223430E+03 -0.28125119525E+03  0.45094309584E+03  0.15294330000E+03 0.  0.
<mgrwt>
<rscale>  0 0.60927996E+03</rscale>
<asrwt>0</asrwt>
<pdfrwt beam="1">  1        2 0.13714043E+00 0.73120858E+03</pdfrwt>
<pdfrwt beam="2">  1       -2 0.81818451E-01 0.73120858E+03</pdfrwt>
<totfact> 0.39687868E+01</totfact>
</mgrwt>
</event>
<event>
 4    1  0.7280516E-007  0.7222092E+03  0.7818608E-02  0.9915181E-01
          2   -1    0    0  501    0  0.00000000000E+00  0.00000000000E+00  0.26131291476E+04  0.26131291476E+04  0.25500000000E-02 0. -1.
         -2   -1    0    0    0  501 -0.00000000000E+00 -0.00000000000E+00 -0.26327793655E+03  0.26327793656E+03  0.25500000000E-02 0.  1.
    8880023    1    1    2    0    0  0.27502478489E+03 -0.11016923979E+03  0.24286892419E+04  0.25337950852E+04  0.65864270000E+03 0.  0.
    8880022    1    1    2    0    0 -0.27502478489E+03  0.11016923979E+03 -0.78838030877E+02  0.34261199895E+03  0.15294330000E+03 0.  0.
<mgrwt>
<rscale>  0 0.59531182E+03</rscale>
<asrwt>0</asrwt>
<pdfrwt beam="1">  1        2 0.40201985E+00 0.72220918E+03</pdfrwt>
<pdfrwt beam="2">  1       -2 0.40504300E-01 0.72220918E+03</pdfrwt>
<totfact> 0.18179698E+01</totfact>
</mgrwt>
</event>
<event>
 4    1  0.7280516E-007  0.8561662E+03  0.7818608E-02  0.9600420E-01
          2   -1    0    0  501    0  0.00000000000E+00  0.00000000000E+00  0.31134688264E+03  0.31134688265E+03  0.25500000000E-02 0. -1.
         -2   -1    0    0    0  501 -0.00000000000E+00 -0.00000000000E+00 -0.23302934801E+04  0.23302934801E+04  0.25500000000E-02 0.  1.
    8880023    1    1    2    0    0 -0.27731500182E+03  0.47149413572E+03 -0.43787155958E+03  0.96164028576E+03  0.65864270000E+03 0.  0.
    8880022    1    1    2    0    0  0.27731500182E+03 -0.47149413572E+03 -0.15810750379E+04  0.16800000770E+04  0.15294330000E+03 0.  0.
<mgrwt>
<rscale>  0 0.77268402E+03</rscale>
<asrwt>0</asrwt>
<pdfrwt beam="1">  1        2 0.47899522E-01 0.85616619E+03</pdfrwt>
<pdfrwt beam="2">  1       -2 0.35850668E+00 0.85616619E+03</pdfrwt>
<totfact> 0.15018106E+00</totfact>
</mgrwt>
</event>
<event>
 4    1  0.7280516E-007  0.7531743E+03  0.7818608E-02  0.9823110E-01
          2   -1    0    0  501    0  0.00000000000E+00  0.00000000000E+00  0.16057685797E+04  0.16057685797E+04  0.25500000000E-02 0. -1.
         -2   -1    0    0    0  501 -0.00000000000E+00 -0.00000000000E+00 -0.30442885855E+03  0.30442885856E+03  0.25500000000E-02 0.  1.
    8880023    1    1    2    0    0 -0.17924068971E+03 -0.31833026233E+03  0.13133283536E+04  0.15139692703E+04  0.65864270000E+03 0.  0.
    8880022    1    1    2    0    0  0.17924068971E+03  0.31833026233E+03 -0.11988632452E+02  0.39622816796E+03  0.15294330000E+03 0.  0.
<mgrwt>
<rscale>  0 0.64136942E+03</rscale>
<asrwt>0</asrwt>
<pdfrwt beam="1">  1        2 0.24704133E+00 0.75317434E+03</pdfrwt>
<pdfrwt beam="2">  1       -2 0.46835208E-01 0.75317434E+03</pdfrwt>
<totfact> 0.48938327E+01</totfact>
</mgrwt>
</event>
<event>
 4    1  0.7280516E-007  0.1247385E+04  0.7818608E-02  0.9112383E-01
         -2   -1    0    0    0  501 -0.00000000000E+00  0.00000000000E+00  0.64051767705E+03  0.64051767706E+03  0.25500000000E-02 0.  1.
          2   -1    0    0  501    0  0.00000000000E+00 -0.00000000000E+00 -0.21814077607E+04  0.21814077607E+04  0.25500000000E-02 0. -1.
    8880023    1    1    2    0    0 -0.77525033407E+03 -0.72190396465E+03 -0.54962569016E+03  0.13631056526E+04  0.65864270000E+03 0.  0.
    8880022    1    1    2    0    0  0.77525033407E+03  0.72190396465E+03 -0.99126439346E+03  0.14588197851E+04  0.15294330000E+03 0.  0.
<mgrwt>
<rscale>  0 0.12005412E+04</rscale>
<asrwt>0</asrwt>
<pdfrwt beam="1">  1        2 0.33560119E+00 0.12473847E+04</pdfrwt>
<pdfrwt beam="2">  1       -2 0.98541182E-01 0.12473847E+04</pdfrwt>
<totfact> 0.44135164E+00</totfact>
</mgrwt>
</event>
<event>
 4    1  0.7280516E-007  0.7346181E+03  0.7818608E-02  0.9875911E-01
          2   -1    0    0  501    0  0.00000000000E+00  0.00000000000E+00  0.18224575145E+04  0.18224575145E+04  0.25500000000E-02 0. -1.
         -2   -1    0    0    0  501 -0.00000000000E+00 -0.00000000000E+00 -0.42313000940E+03  0.42313000941E+03  0.25500000000E-02 0.  1.
    8880023    1    1    2    0    0 -0.23304629222E+03  0.22703080274E+03  0.16507872116E+04  0.18068652921E+04  0.65864270000E+03 0. -1.
    8880022    1    1    2    0    0  0.23304629222E+03 -0.22703080274E+03 -0.25145970644E+03  0.43872223182E+03  0.15294330000E+03 0.  0.
<mgrwt>
<rscale>  0 0.61443087E+03</rscale>
<asrwt>0</asrwt>
<pdfrwt beam="1">  1        2 0.28037808E+00 0.73461811E+03</pdfrwt>
<pdfrwt beam="2">  1       -2 0.65096924E-01 0.73461811E+03</pdfrwt>
<totfact> 0.18839164E+01</totfact>
</mgrwt>
</event>
<event>
 4    1  0.7280516E-007  0.7602187E+03  0.7818608E-02  0.9804542E-01
         -2   -1    0    0    0  501 -0.00000000000E+00  0.00000000000E+00  0.21280470376E+03  0.21280470377E+03  0.25500000000E-02 0.  1.
          2   -1    0    0  501    0  0.00000000000E+00 -0.00000000000E+00 -0.16197988094E+04  0.16197988094E+04  0.25500000000E-02 0. -1.
    8880023    1    1    2    0    0 -0.22950705336E+03  0.30240495571E+03 -0.83456792683E+03  0.11289092415E+04  0.65864270000E+03 0.  1.
    8880022    1    1    2    0    0  0.22950705336E+03 -0.30240495571E+03 -0.57242617878E+03  0.70369427165E+03  0.15294330000E+03 0. -1.
<mgrwt>
<rscale>  0 0.65119381E+03</rscale>
<asrwt>0</asrwt>
<pdfrwt beam="1">  1        2 0.24919981E+00 0.76021869E+03</pdfrwt>
<pdfrwt beam="2">  1       -2 0.32739186E-01 0.76021869E+03</pdfrwt>
<totfact> 0.96369036E+01</totfact>
</mgrwt>
</event>
<event>
 4    1  0.7280516E-007  0.1040030E+04  0.7818608E-02  0.9330964E-01
          2   -1    0    0  501    0  0.00000000000E+00  0.00000000000E+00  0.25416230796E+04  0.25416230796E+04  0.25500000000E-02 0. -1.
         -2   -1    0    0    0  501 -0.00000000000E+00 -0.00000000000E+00 -0.46714371802E+03  0.46714371802E+03  0.25500000000E-02 0.  1.
    8880023    1    1    2    0    0 -0.76810746909E+03 -0.24054740853E+03  0.19075337651E+04  0.21726360513E+04  0.65864270000E+03 0. -1.
    8880022    1    1    2    0    0  0.76810746909E+03  0.24054740853E+03  0.16694559643E+03  0.83613074635E+03  0.15294330000E+03 0.  0.
<mgrwt>
<rscale>  0 0.97981577E+03</rscale>
<asrwt>0</asrwt>
<pdfrwt beam="1">  1        2 0.39101894E+00 0.10400300E+04</pdfrwt>
<pdfrwt beam="2">  1       -2 0.71868264E-01 0.10400300E+04</pdfrwt>
<totfact> 0.58144548E+00</totfact>
</mgrwt>
</event>
<event>
 4    1  0.7280516E-007  0.6746788E+03  0.7818608E-02  0.1012509E+00
         -2   -1    0    0    0  501 -0.00000000000E+00  0.00000000000E+00  0.62512174263E+03  0.62512174263E+03  0.25500000000E-02 0.  1.
          2   -1    0    0  501    0  0.00000000000E+00 -0.00000000000E+00 -0.40129711423E+03  0.40129711424E+03  0.25500000000E-02 0. -1.
    8880023    1    1    2    0    0  0.11871964484E+03  0.85363708329E+02 -0.54405845728E+02  0.67686890834E+03  0.65864270000E+03 0. -1.
    8880022    1    1    2    0    0 -0.11871964484E+03 -0.85363708329E+02  0.27823047412E+03  0.34954994853E+03  0.15294330000E+03 0.  0.
<mgrwt>
<rscale>  0 0.50489352E+03</rscale>
<asrwt>0</asrwt>
<pdfrwt beam="1">  1        2 0.61738018E-01 0.67467883E+03</pdfrwt>
<pdfrwt beam="2">  1       -2 0.96172576E-01 0.67467883E+03</pdfrwt>
<totfact> 0.72842962E+01</totfact>
</mgrwt>
</event>
<event>
 4    1  0.7280516E-007  0.7936603E+03  0.7818608E-02  0.9724675E-01
          2   -1    0    0  501    0  0.00000000000E+00  0.00000000000E+00  0.22885410420E+04  0.22885410420E+04  0.25500000000E-02 0. -1.
         -2   -1    0    0    0  501 -0.00000000000E+00 -0.00000000000E+00 -0.44736024229E+03  0.44736024230E+03  0.25500000000E-02 0.  1.
    8880023    1    1    2    0    0 -0.14492820692E+02  0.44257930984E+03  0.20682408700E+04  0.22152916264E+04  0.65864270000E+03 0. -1.
    8880022    1    1    2    0    0  0.14492820692E+02 -0.44257930984E+03 -0.22706007031E+03  0.52060965790E+03  0.15294330000E+03 0.  0.
<mgrwt>
<rscale>  0 0.69566460E+03</rscale>
<asrwt>0</asrwt>
<pdfrwt beam="1">  1        2 0.35208324E+00 0.79366031E+03</pdfrwt>
<pdfrwt beam="2">  1       -2 0.68824652E-01 0.79366031E+03</pdfrwt>
<totfact> 0.91945450E+00</totfact>
</mgrwt>
</event>
<event>
 4    1  0.7280516E-007  0.7180756E+03  0.7818608E-02  0.9929152E-01
          2   -1    0    0  501    0  0.00000000000E+00  0.00000000000E+00  0.12306756318E+04  0.12306756318E+04  0.25500000000E-02 0. -1.
         -2   -1    0    0    0  501 -0.00000000000E+00 -0.00000000000E+00 -0.60376056748E+03  0.60376056748E+03  0.25500000000E-02 0.  1.
    8880023    1    1    2    0    0 -0.13558344321E+03 -0.25187194094E+03  0.10679800695E+04  0.12869397732E+04  0.65864270000E+03 0. -1.
    8880022    1    1    2    0    0  0.13558344321E+03  0.25187194094E+03 -0.44106500522E+03  0.54749642606E+03  0.15294330000E+03 0.  0.
<mgrwt>
<rscale>  0 0.58869021E+03</rscale>
<asrwt>0</asrwt>
<pdfrwt beam="1">  1        2 0.18933471E+00 0.71807559E+03</pdfrwt>
<pdfrwt beam="2">  1       -2 0.92886242E-01 0.71807559E+03</pdfrwt>
<totfact> 0.18255826E+01</totfact>
</mgrwt>
</event>
<event>
 4    1  0.7280516E-007  0.1367244E+04  0.7818608E-02  0.9009562E-01
         -2   -1    0    0    0  501 -0.00000000000E+00  0.00000000000E+00  0.86622037296E+03  0.86622037296E+03  0.25500000000E-02 0.  1.
          2   -1    0    0  501    0  0.00000000000E+00 -0.00000000000E+00 -0.22122217602E+04  0.22122217602E+04  0.25500000000E-02 0. -1.
    8880023    1    1    2    0    0 -0.20912285829E+03  0.11797511422E+04 -0.12734029041E+04  0.18683977868E+04  0.65864270000E+03 0. -1.
    8880022    1    1    2    0    0  0.20912285829E+03 -0.11797511422E+04 -0.72598483126E+02  0.12100443463E+04  0.15294330000E+03 0.  0.
<mgrwt>
<rscale>  0 0.13255283E+04</rscale>
<asrwt>0</asrwt>
<pdfrwt beam="1">  1        2 0.34034181E+00 0.13672437E+04</pdfrwt>
<pdfrwt beam="2">  1       -2 0.13326467E+00 0.13672437E+04</pdfrwt>
<totfact> 0.19875897E+00</totfact>
</mgrwt>
</event>
<event>
 4    1  0.7280516E-007  0.9171178E+03  0.7818608E-02  0.9499092E-01
          2   -1    0    0  501    0  0.00000000000E+00  0.00000000000E+00  0.41986955924E+03  0.41986955925E+03  0.25500000000E-02 0. -1.
         -2   -1    0    0    0  501 -0.00000000000E+00 -0.00000000000E+00 -0.18256645515E+04  0.18256645515E+04  0.25500000000E-02 0.  1.
    8880023    1    1    2    0    0  0.13846123990E+03 -0.62299547649E+03 -0.30970799563E+03  0.96800006586E+03  0.65864270000E+03 0.  0.
    8880022    1    1    2    0    0 -0.13846123990E+03  0.62299547649E+03 -0.10960869966E+04  0.12775340449E+04  0.15294330000E+03 0.  0.
<mgrwt>
<rscale>  0 0.84350762E+03</rscale>
<asrwt>0</asrwt>
<pdfrwt beam="1">  1        2 0.64595318E-01 0.91711781E+03</pdfrwt>
<pdfrwt beam="2">  1       -2 0.28087147E+00 0.91711781E+03</pdfrwt>
<totfact> 0.31760585E+00</totfact>
</mgrwt>
</event>
<event>
 4    1  0.7280516E-007  0.7187213E+03  0.7818608E-02  0.9926937E-01
          2   -1    0    0  501    0  0.00000000000E+00  0.00000000000E+00  0.36226946021E+03  0.36226946022E+03  0.25500000000E-02 0. -1.
         -2   -1    0    0    0  501 -0.00000000000E+00 -0.00000000000E+00 -0.11781712094E+04  0.11781712094E+04  0.25500000000E-02 0.  1.
    8880023    1    1    2    0    0  0.28765200442E+03 -0.25351292872E+01 -0.64693351252E+02  0.72162700787E+03  0.65864270000E+03 0. -1.
    8880022    1    1    2    0    0 -0.28765200442E+03  0.25351292872E+01 -0.75120839791E+03  0.81881366173E+03  0.15294330000E+03 0.  0.
<mgrwt>
<rscale>  0 0.58973401E+03</rscale>
<asrwt>0</asrwt>
<pdfrwt beam="1">  1        2 0.55733763E-01 0.71872130E+03</pdfrwt>
<pdfrwt beam="2">  1       -2 0.18125711E+00 0.71872130E+03</pdfrwt>
<totfact> 0.16093505E+01</totfact>
</mgrwt>
</event>
<event>
 4    1  0.7280516E-007  0.8292943E+03  0.7818608E-02  0.9650707E-01
          2   -1    0    0  501    0  0.00000000000E+00  0.00000000000E+00  0.36349884881E+04  0.36349884881E+04  0.25500000000E-02 0. -1.
         -2   -1    0    0    0  501 -0.00000000000E+00 -0.00000000000E+00 -0.13583931702E+03  0.13583931704E+03  0.25500000000E-02 0.  1.
    8880023    1    1    2    0    0  0.88900834898E+02  0.49599940076E+03  0.25974011458E+04  0.27265769166E+04  0.65864270000E+03 0. -1.
    8880022    1    1    2    0    0 -0.88900834898E+02 -0.49599940076E+03  0.90174802533E+03  0.10442508885E+04  0.15294330000E+03 0.  0.
<mgrwt>
<rscale>  0 0.74029066E+03</rscale>
<asrwt>0</asrwt>
<pdfrwt beam="1">  1        2 0.55922907E+00 0.82929426E+03</pdfrwt>
<pdfrwt beam="2">  1       -2 0.20898354E-01 0.82929426E+03</pdfrwt>
<totfact> 0.13746154E+01</totfact>
</mgrwt>
</event>
<event>
 4    1  0.7280516E-007  0.6816608E+03  0.7818608E-02  0.1008399E+00
         -2   -1    0    0    0  501 -0.00000000000E+00  0.00000000000E+00  0.43138564143E+03  0.43138564144E+03  0.25500000000E-02 0.  1.
          2   -1    0    0  501    0  0.00000000000E+00 -0.00000000000E+00 -0.11362593516E+04  0.11362593516E+04  0.25500000000E-02 0. -1.
    8880023    1    1    2    0    0 -0.17552957261E+03  0.63770150141E+01 -0.98843784243E+03  0.12006959947E+04  0.65864270000E+03 0. -1.
    8880022    1    1    2    0    0  0.17552957261E+03 -0.63770150141E+01  0.28356413230E+03  0.36694899826E+03  0.15294330000E+03 0.  0.
<mgrwt>
<rscale>  0 0.52115772E+03</rscale>
<asrwt>0</asrwt>
<pdfrwt beam="1">  1        2 0.17480913E+00 0.68166084E+03</pdfrwt>
<pdfrwt beam="2">  1       -2 0.66367022E-01 0.68166084E+03</pdfrwt>
<totfact> 0.44244411E+01</totfact>
</mgrwt>
</event>
<event>
 4    1  0.7280516E-007  0.6856960E+03  0.7818608E-02  0.1006269E+00
          2   -1    0    0  501    0  0.00000000000E+00  0.00000000000E+00  0.18205135016E+04  0.18205135016E+04  0.25500000000E-02 0. -1.
         -2   -1    0    0    0  501 -0.00000000000E+00 -0.00000000000E+00 -0.16391300560E+03  0.16391300562E+03  0.25500000000E-02 0.  1.
    8880023    1    1    2    0    0 -0.27358941471E+01  0.19068647452E+03  0.15892401539E+04  0.17308562302E+04  0.65864270000E+03 0. -1.
    8880022    1    1    2    0    0  0.27358941471E+01 -0.19068647452E+03  0.67360342130E+02  0.25357027702E+03  0.15294330000E+03 0.  1.
<mgrwt>
<rscale>  0 0.52984699E+03</rscale>
<asrwt>0</asrwt>
<pdfrwt beam="1">  1        2 0.28007898E+00 0.68569601E+03</pdfrwt>
<pdfrwt beam="2">  1       -2 0.25217388E-01 0.68569601E+03</pdfrwt>
<totfact> 0.12200160E+02</totfact>
</mgrwt>
</event>
<event>
 4    1  0.7280516E-007  0.6589578E+03  0.7818608E-02  0.1025251E+00
         -2   -1    0    0    0  501 -0.00000000000E+00  0.00000000000E+00  0.10734316383E+03  0.10734316386E+03  0.25500000000E-02 0.  1.
          2   -1    0    0  501    0  0.00000000000E+00 -0.00000000000E+00 -0.15754043235E+04  0.15754043235E+04  0.25500000000E-02 0. -1.
    8880023    1    1    2    0    0  0.19417141368E+02  0.61733299943E+01 -0.12785115097E+04  0.14383382850E+04  0.65864270000E+03 0. -1.
    8880022    1    1    2    0    0 -0.19417141368E+02 -0.61733299943E+01 -0.18954964997E+03  0.24440920236E+03  0.15294330000E+03 0.  0.
<mgrwt>
<rscale>  0 0.45838541E+03</rscale>
<asrwt>0</asrwt>
<pdfrwt beam="1">  1        2 0.24236988E+00 0.65895777E+03</pdfrwt>
<pdfrwt beam="2">  1       -2 0.16514334E-01 0.65895777E+03</pdfrwt>
<totfact> 0.34943677E+02</totfact>
</mgrwt>
</event>
<event>
 4    1  0.7700400E-007  0.1015737E+04  0.7818608E-02  0.9361253E-01
         -2   -1    0    0    0  501 -0.00000000000E+00  0.00000000000E+00  0.14955760893E+04  0.14955760893E+04  0.25500000000E-02 0.  1.
          2   -1    0    0  501    0  0.00000000000E+00 -0.00000000000E+00 -0.14127557493E+04  0.14127557493E+04  0.25500000000E-02 0. -1.
    8880023    1    1    2    0    0 -0.50898150154E+03 -0.58210678657E+03 -0.10934179281E+04  0.14924086075E+04  0.65864270000E+03 0.  0.
    8880022    1    1    2    0    0  0.50898150154E+03  0.58210678657E+03  0.11762382681E+04  0.14159232311E+04  0.15294330000E+03 0.  1.
<mgrwt>
<rscale>  0 0.95334185E+03</rscale>
<asrwt>0</asrwt>
<pdfrwt beam="1">  1        2 0.21734704E+00 0.10157365E+04</pdfrwt>
<pdfrwt beam="2">  1       -2 0.23008863E+00 0.10157365E+04</pdfrwt>
<totfact> 0.12069332E+00</totfact>
</mgrwt>
</event>
<event>
 4    1  0.7280516E-007  0.1164884E+04  0.7818608E-02  0.9192037E-01
         -2   -1    0    0    0  501 -0.00000000000E+00  0.00000000000E+00  0.71584671437E+03  0.71584671438E+03  0.25500000000E-02 0.  1.
          2   -1    0    0  501    0  0.00000000000E+00 -0.00000000000E+00 -0.27448129446E+04  0.27448129446E+04  0.25500000000E-02 0. -1.
    8880023    1    1    2    0    0 -0.13389287711E+03  0.95142879831E+03 -0.21842351443E+04  0.24754469157E+04  0.65864270000E+03 0.  0.
    8880022    1    1    2    0    0  0.13389287711E+03 -0.95142879831E+03  0.15526891405E+03  0.98521274326E+03  0.15294330000E+03 0.  0.
<mgrwt>
<rscale>  0 0.11135996E+04</rscale>
<asrwt>0</asrwt>
<pdfrwt beam="1">  1        2 0.42227891E+00 0.11648838E+04</pdfrwt>
<pdfrwt beam="2">  1       -2 0.11013027E+00 0.11648838E+04</pdfrwt>
<totfact> 0.16186372E+00</totfact>
</mgrwt>
</event>
<event>
 4    1  0.7280516E-007  0.6698670E+03  0.7818608E-02  0.1015758E+00
          2   -1    0    0  501    0  0.00000000000E+00  0.00000000000E+00  0.21904619831E+04  0.21904619831E+04  0.25500000000E-02 0. -1.
         -2   -1    0    0    0  501 -0.00000000000E+00 -0.00000000000E+00 -0.37815718021E+03  0.37815718022E+03  0.25500000000E-02 0.  1.
    8880023    1    1    2    0    0 -0.68965557758E+02 -0.10077380893E+03  0.21092019842E+04  0.22130193911E+04  0.65864270000E+03 0. -1.
    8880022    1    1    2    0    0  0.68965557758E+02  0.10077380893E+03 -0.29689718133E+03  0.35559977225E+03  0.15294330000E+03 0.  0.
<mgrwt>
<rscale>  0 0.49248830E+03</rscale>
<asrwt>0</asrwt>
<pdfrwt beam="1">  1        2 0.33699415E+00 0.66986701E+03</pdfrwt>
<pdfrwt beam="2">  1       -2 0.58178028E-01 0.66986701E+03</pdfrwt>
<totfact> 0.15210684E+01</totfact>
</mgrwt>
</event>
<event>
 4    1  0.7280516E-007  0.1029967E+04  0.7818608E-02  0.9343361E-01
          2   -1    0    0  501    0  0.00000000000E+00  0.00000000000E+00  0.15650636641E+04  0.15650636641E+04  0.25500000000E-02 0. -1.
         -2   -1    0    0    0  501 -0.00000000000E+00 -0.00000000000E+00 -0.82859430467E+03  0.82859430467E+03  0.25500000000E-02 0.  1.
    8880023    1    1    2    0    0  0.73861134790E+03 -0.28543787397E+03  0.11018401155E+04  0.15082716432E+04  0.65864270000E+03 0. -1.
    8880022    1    1    2    0    0 -0.73861134790E+03  0.28543787397E+03 -0.36537075610E+03  0.88538632560E+03  0.15294330000E+03 0.  0.
<mgrwt>
<rscale>  0 0.96887132E+03</rscale>
<asrwt>0</asrwt>
<pdfrwt beam="1">  1        2 0.24077902E+00 0.10299668E+04</pdfrwt>
<pdfrwt beam="2">  1       -2 0.12747605E+00 0.10299668E+04</pdfrwt>
<totfact> 0.52751591E+00</totfact>
</mgrwt>
</event>
<event>
 4    1  0.9213536E-007  0.9451095E+03  0.7818608E-02  0.9457186E-01
          2   -1    0    0  501    0  0.00000000000E+00  0.00000000000E+00  0.30868704468E+04  0.30868704468E+04  0.25500000000E-02 0. -1.
         -2   -1    0    0    0  501 -0.00000000000E+00 -0.00000000000E+00 -0.85211147346E+03  0.85211147346E+03  0.25500000000E-02 0.  1.
    8880023    1    1    2    0    0  0.44066709564E+03 -0.51500897931E+03  0.28551308695E+04  0.30074913510E+04  0.65864270000E+03 0. -1.
    8880022    1    1    2    0    0 -0.44066709564E+03  0.51500897931E+03 -0.62037189621E+03  0.93149056923E+03  0.15294330000E+03 0.  0.
<mgrwt>
<rscale>  0 0.87515304E+03</rscale>
<asrwt>0</asrwt>
<pdfrwt beam="1">  1        2 0.47490315E+00 0.94510949E+03</pdfrwt>
<pdfrwt beam="2">  1       -2 0.13109407E+00 0.94510949E+03</pdfrwt>
<totfact> 0.67163710E-01</totfact>
</mgrwt>
</event>
<event>
 4    1  0.7280516E-007  0.1042683E+04  0.7818608E-02  0.9327729E-01
         -2   -1    0    0    0  501 -0.00000000000E+00  0.00000000000E+00  0.11237098616E+04  0.11237098616E+04  0.25500000000E-02 0.  1.
          2   -1    0    0  501    0  0.00000000000E+00 -0.00000000000E+00 -0.13726978508E+04  0.13726978508E+04  0.25500000000E-02 0. -1.
    8880023    1    1    2    0    0  0.60871407648E+03  0.53183203495E+03 -0.95378999700E+03  0.14131184327E+04  0.65864270000E+03 0.  0.
    8880022    1    1    2    0    0 -0.60871407648E+03 -0.53183203495E+03  0.70480200775E+03  0.10832892797E+04  0.15294330000E+03 0.  0.
<mgrwt>
<rscale>  0 0.98269652E+03</rscale>
<asrwt>0</asrwt>
<pdfrwt beam="1">  1        2 0.21118428E+00 0.10426832E+04</pdfrwt>
<pdfrwt beam="2">  1       -2 0.17287844E+00 0.10426832E+04</pdfrwt>
<totfact> 0.30112028E+00</totfact>
</mgrwt>
</event>
<event>
 4    1  0.7280516E-007  0.7002629E+03  0.7818608E-02  0.9996112E-01
          2   -1    0    0  501    0  0.00000000000E+00  0.00000000000E+00  0.25271431779E+04  0.25271431779E+04  0.25500000000E-02 0. -1.
         -2   -1    0    0    0  501 -0.00000000000E+00 -0.00000000000E+00 -0.14138780719E+03  0.14138780722E+03  0.25500000000E-02 0.  1.
    8880023    1    1    2    0    0 -0.36673018350E+02 -0.23497436629E+03  0.22469581132E+04  0.23535481367E+04  0.65864270000E+03 0. -1.
    8880022    1    1    2    0    0  0.36673018350E+02  0.23497436629E+03  0.13879725753E+03  0.31498284842E+03  0.15294330000E+03 0.  0.
<mgrwt>
<rscale>  0 0.55821024E+03</rscale>
<asrwt>0</asrwt>
<pdfrwt beam="1">  1        2 0.38879127E+00 0.70026286E+03</pdfrwt>
<pdfrwt beam="2">  1       -2 0.21751969E-01 0.70026286E+03</pdfrwt>
<totfact> 0.64684833E+01</totfact>
</mgrwt>
</event>
<event>
 4    1  0.7280516E-007  0.7040626E+03  0.7818608E-02  0.9980748E-01
         -2   -1    0    0    0  501 -0.00000000000E+00  0.00000000000E+00  0.44484539253E+03  0.44484539253E+03  0.25500000000E-02 0.  1.
          2   -1    0    0  501    0  0.00000000000E+00 -0.00000000000E+00 -0.99501071306E+03  0.99501071306E+03  0.25500000000E-02 0. -1.
    8880023    1    1    2    0    0 -0.14730906427E+03  0.20048440750E+03 -0.79271040125E+03  0.10602329671E+04  0.65864270000E+03 0. -1.
    8880022    1    1    2    0    0  0.14730906427E+03 -0.20048440750E+03  0.24254508072E+03  0.37962313847E+03  0.15294330000E+03 0.  0.
<mgrwt>
<rscale>  0 0.56502535E+03</rscale>
<asrwt>0</asrwt>
<pdfrwt beam="1">  1        2 0.15307857E+00 0.70406261E+03</pdfrwt>
<pdfrwt beam="2">  1       -2 0.68437753E-01 0.70406261E+03</pdfrwt>
<totfact> 0.50522124E+01</totfact>
</mgrwt>
</event>
<event>
 4    1  0.7280516E-007  0.6989784E+03  0.7818608E-02  0.1000147E+00
          2   -1    0    0  501    0  0.00000000000E+00  0.00000000000E+00  0.10196276400E+04  0.10196276400E+04  0.25500000000E-02 0. -1.
         -2   -1    0    0    0  501 -0.00000000000E+00 -0.00000000000E+00 -0.68875850996E+03  0.68875850996E+03  0.25500000000E-02 0.  1.
    8880023    1    1    2    0    0 -0.21120738718E+03  0.10075706702E+03  0.86103365484E+03  0.11090309770E+04  0.65864270000E+03 0. -1.
    8880022    1    1    2    0    0  0.21120738718E+03 -0.10075706702E+03 -0.53016452481E+03  0.59935517294E+03  0.15294330000E+03 0.  0.
<mgrwt>
<rscale>  0 0.55586004E+03</rscale>
<asrwt>0</asrwt>
<pdfrwt beam="1">  1        2 0.15686579E+00 0.69897836E+03</pdfrwt>
<pdfrwt beam="2">  1       -2 0.10596285E+00 0.69897836E+03</pdfrwt>
<totfact> 0.17995421E+01</totfact>
</mgrwt>
</event>
<event>
 4    1  0.7280516E-007  0.1420082E+04  0.7818608E-02  0.8968233E-01
         -2   -1    0    0    0  501 -0.00000000000E+00  0.00000000000E+00  0.15871717520E+04  0.15871717520E+04  0.25500000000E-02 0.  1.
          2   -1    0    0  501    0  0.00000000000E+00 -0.00000000000E+00 -0.18847780324E+04  0.18847780324E+04  0.25500000000E-02 0. -1.
    8880023    1    1    2    0    0  0.81555293931E+03  0.95796500966E+03 -0.12458418215E+04  0.18891150328E+04  0.65864270000E+03 0.  0.
    8880022    1    1    2    0    0 -0.81555293931E+03 -0.95796500966E+03  0.94823554107E+03  0.15828347516E+04  0.15294330000E+03 0.  0.
<mgrwt>
<rscale>  0 0.13802591E+04</rscale>
<asrwt>0</asrwt>
<pdfrwt beam="1">  1        2 0.28996585E+00 0.14200823E+04</pdfrwt>
<pdfrwt beam="2">  1       -2 0.24418027E+00 0.14200823E+04</pdfrwt>
<totfact> 0.51134729E-01</totfact>
</mgrwt>
</event>
<event>
 4    1  0.7280516E-007  0.6685284E+03  0.7818608E-02  0.1016740E+00
          2   -1    0    0  501    0  0.00000000000E+00  0.00000000000E+00  0.22486853825E+04  0.22486853825E+04  0.25500000000E-02 0. -1.
         -2   -1    0    0    0  501 -0.00000000000E+00 -0.00000000000E+00 -0.20495346949E+03  0.20495346950E+03  0.25500000000E-02 0.  1.
    8880023    1    1    2    0    0  0.10077639085E+03  0.54444138126E+02  0.21383483671E+04  0.22404160306E+04  0.65864270000E+03 0. -1.
    8880022    1    1    2    0    0 -0.10077639085E+03 -0.54444138126E+02 -0.94616454102E+02  0.21322282132E+03  0.15294330000E+03 0.  0.
<mgrwt>
<rscale>  0 0.48881431E+03</rscale>
<asrwt>0</asrwt>
<pdfrwt beam="1">  1        2 0.34595162E+00 0.66852842E+03</pdfrwt>
<pdfrwt beam="2">  1       -2 0.31531301E-01 0.66852842E+03</pdfrwt>
<totfact> 0.47384363E+01</totfact>
</mgrwt>
</event>
<event>
 4    1  0.7280516E-007  0.8626752E+03  0.7818608E-02  0.9588822E-01
         -2   -1    0    0    0  501 -0.00000000000E+00  0.00000000000E+00  0.35949607633E+03  0.35949607634E+03  0.25500000000E-02 0.  1.
          2   -1    0    0  501    0  0.00000000000E+00 -0.00000000000E+00 -0.16512359932E+04  0.16512359932E+04  0.25500000000E-02 0. -1.
    8880023    1    1    2    0    0  0.37631847586E+03  0.41083166169E+03 -0.40652272373E+03  0.95366093592E+03  0.65864270000E+03 0.  0.
    8880022    1    1    2    0    0 -0.37631847586E+03 -0.41083166169E+03 -0.88521719317E+03  0.10570711337E+04  0.15294330000E+03 0.  0.
<mgrwt>
<rscale>  0 0.78040425E+03</rscale>
<asrwt>0</asrwt>
<pdfrwt beam="1">  1        2 0.25403630E+00 0.86267517E+03</pdfrwt>
<pdfrwt beam="2">  1       -2 0.55307090E-01 0.86267517E+03</pdfrwt>
<totfact> 0.32501929E+01</totfact>
</mgrwt>
</event>
<event>
 4    1  0.7280516E-007  0.7172128E+03  0.7818608E-02  0.9932132E-01
         -2   -1    0    0    0  501 -0.00000000000E+00  0.00000000000E+00  0.46384161006E+03  0.46384161007E+03  0.25500000000E-02 0.  1.
          2   -1    0    0  501    0  0.00000000000E+00 -0.00000000000E+00 -0.94039459857E+03  0.94039459858E+03  0.25500000000E-02 0. -1.
    8880023    1    1    2    0    0 -0.15926321828E+03  0.23498784000E+03 -0.70762658567E+03  0.10075364255E+04  0.65864270000E+03 0.  0.
    8880022    1    1    2    0    0  0.15926321828E+03 -0.23498784000E+03  0.23107359716E+03  0.39669978317E+03  0.15294330000E+03 0.  0.
<mgrwt>
<rscale>  0 0.58728990E+03</rscale>
<asrwt>0</asrwt>
<pdfrwt beam="1">  1        2 0.14467609E+00 0.71721284E+03</pdfrwt>
<pdfrwt beam="2">  1       -2 0.71360248E-01 0.71721284E+03</pdfrwt>
<totfact> 0.49970614E+01</totfact>
</mgrwt>
</event>
<event>
 4    1  0.7280516E-007  0.1026393E+04  0.7818608E-02  0.9347814E-01
         -2   -1    0    0    0  501 -0.00000000000E+00  0.00000000000E+00  0.62342532456E+03  0.62342532456E+03  0.25500000000E-02 0.  1.
          2   -1    0    0  501    0  0.00000000000E+00 -0.00000000000E+00 -0.19899934813E+04  0.19899934813E+04  0.25500000000E-02 0. -1.
    8880023    1    1    2    0    0  0.53867840784E+03 -0.57401920596E+03 -0.14825374765E+04  0.18031639003E+04  0.65864270000E+03 0.  0.
    8880022    1    1    2    0    0 -0.53867840784E+03  0.57401920596E+03  0.11596931973E+03  0.81025490558E+03  0.15294330000E+03 0.  0.
<mgrwt>
<rscale>  0 0.96497722E+03</rscale>
<asrwt>0</asrwt>
<pdfrwt beam="1">  1        2 0.30615284E+00 0.10263930E+04</pdfrwt>
<pdfrwt beam="2">  1       -2 0.95911589E-01 0.10263930E+04</pdfrwt>
<totfact> 0.61530362E+00</totfact>
</mgrwt>
</event>
<event>
 4    1  0.7280516E-007  0.7242931E+03  0.7818608E-02  0.9908319E-01
          2   -1    0    0  501    0  0.00000000000E+00  0.00000000000E+00  0.25197399250E+04  0.25197399250E+04  0.25500000000E-02 0. -1.
         -2   -1    0    0    0  501 -0.00000000000E+00 -0.00000000000E+00 -0.38484326304E+03  0.38484326305E+03  0.25500000000E-02 0.  1.
    8880023    1    1    2    0    0  0.25945944115E+03 -0.15320265747E+03  0.23795927012E+04  0.24873805269E+04  0.65864270000E+03 0. -1.
    8880022    1    1    2    0    0 -0.25945944115E+03  0.15320265747E+03 -0.24469603921E+03  0.41720266116E+03  0.15294330000E+03 0.  0.
<mgrwt>
<rscale>  0 0.59859821E+03</rscale>
<asrwt>0</asrwt>
<pdfrwt beam="1">  1        2 0.38765229E+00 0.72429308E+03</pdfrwt>
<pdfrwt beam="2">  1       -2 0.59206656E-01 0.72429308E+03</pdfrwt>
<totfact> 0.95177407E+00</totfact>
</mgrwt>
</event>
<event>
 4    1  0.7280516E-007  0.6600016E+03  0.7818608E-02  0.1024155E+00
          2   -1    0    0  501    0  0.00000000000E+00  0.00000000000E+00  0.10558873612E+04  0.10558873613E+04  0.25500000000E-02 0. -1.
         -2   -1    0    0    0  501 -0.00000000000E+00 -0.00000000000E+00 -0.17295275207E+03  0.17295275209E+03  0.25500000000E-02 0.  1.
    8880023    1    1    2    0    0  0.18671044927E+02 -0.37991509078E+02  0.83237860682E+03  0.10622882443E+04  0.65864270000E+03 0. -1.
    8880022    1    1    2    0    0 -0.18671044927E+02  0.37991509078E+02  0.50556002356E+02  0.16655186901E+03  0.15294330000E+03 0.  0.
<mgrwt>
<rscale>  0 0.46216656E+03</rscale>
<asrwt>0</asrwt>
<pdfrwt beam="1">  1        2 0.16244421E+00 0.66000164E+03</pdfrwt>
<pdfrwt beam="2">  1       -2 0.26608116E-01 0.66000164E+03</pdfrwt>
<totfact> 0.30094261E+02</totfact>
</mgrwt>
</event>
<event>
 4    1  0.7280516E-007  0.7497684E+03  0.7818608E-02  0.9832355E-01
          2   -1    0    0  501    0  0.00000000000E+00  0.00000000000E+00  0.33197025832E+04  0.33197025832E+04  0.25500000000E-02 0. -1.
         -2   -1    0    0    0  501 -0.00000000000E+00 -0.00000000000E+00 -0.13015422059E+03  0.13015422061E+03  0.25500000000E-02 0.  1.
    8880023    1    1    2    0    0  0.17002589043E+03  0.31533105369E+03  0.28012260200E+04  0.28998310120E+04  0.65864270000E+03 0. -1.
    8880022    1    1    2    0    0 -0.17002589043E+03 -0.31533105369E+03  0.38832234256E+03  0.55002579175E+03  0.15294330000E+03 0.  0.
<mgrwt>
<rscale>  0 0.63654743E+03</rscale>
<asrwt>0</asrwt>
<pdfrwt beam="1">  1        2 0.51072347E+00 0.74976842E+03</pdfrwt>
<pdfrwt beam="2">  1       -2 0.20023726E-01 0.74976842E+03</pdfrwt>
<totfact> 0.24601973E+01</totfact>
</mgrwt>
</event>
<event>
 4    1  0.7280516E-007  0.9895704E+03  0.7818608E-02  0.9395332E-01
          2   -1    0    0  501    0  0.00000000000E+00  0.00000000000E+00  0.26419785064E+04  0.26419785064E+04  0.25500000000E-02 0. -1.
         -2   -1    0    0    0  501 -0.00000000000E+00 -0.00000000000E+00 -0.74968359700E+03  0.74968359701E+03  0.25500000000E-02 0.  1.
    8880023    1    1    2    0    0  0.73844853639E+03  0.11534413568E+02  0.23216893806E+04  0.25237850681E+04  0.65864270000E+03 0.  0.
    8880022    1    1    2    0    0 -0.73844853639E+03 -0.11534413568E+02 -0.42939447118E+03  0.86787703535E+03  0.15294330000E+03 0.  0.
<mgrwt>
<rscale>  0 0.92460856E+03</rscale>
<asrwt>0</asrwt>
<pdfrwt beam="1">  1        2 0.40645823E+00 0.98957036E+03</pdfrwt>
<pdfrwt beam="2">  1       -2 0.11533594E+00 0.98957036E+03</pdfrwt>
<totfact> 0.17030062E+00</totfact>
</mgrwt>
</event>
<event>
 4    1  0.7280516E-007  0.1000434E+04  0.7818608E-02  0.9380990E-01
         -2   -1    0    0    0  501 -0.00000000000E+00  0.00000000000E+00  0.14485621379E+04  0.14485621379E+04  0.25500000000E-02 0.  1.
          2   -1    0    0  501    0  0.00000000000E+00 -0.00000000000E+00 -0.61489195637E+03  0.61489195637E+03  0.25500000000E-02 0. -1.
    8880023    1    1    2    0    0  0.54683639995E+03  0.51771404161E+03  0.10747686093E+03  0.10061905183E+04  0.65864270000E+03 0.  0.
    8880022    1    1    2    0    0 -0.54683639995E+03 -0.51771404161E+03  0.72619332056E+03  0.10572635760E+04  0.15294330000E+03 0.  0.
<mgrwt>
<rscale>  0 0.93656767E+03</rscale>
<asrwt>0</asrwt>
<pdfrwt beam="1">  1        2 0.94598763E-01 0.10004339E+04</pdfrwt>
<pdfrwt beam="2">  1       -2 0.22285571E+00 0.10004339E+04</pdfrwt>
<totfact> 0.45452629E+00</totfact>
</mgrwt>
</event>
<event>
 4    1  0.7280516E-007  0.9254767E+03  0.7818608E-02  0.9486312E-01
          2   -1    0    0  501    0  0.00000000000E+00  0.00000000000E+00  0.11415727764E+04  0.11415727764E+04  0.25500000000E-02 0. -1.
         -2   -1    0    0    0  501 -0.00000000000E+00 -0.00000000000E+00 -0.88805145746E+03  0.88805145746E+03  0.25500000000E-02 0.  1.
    8880023    1    1    2    0    0 -0.57337223305E+03  0.30649841564E+03  0.75503466435E+03  0.11943971480E+04  0.65864270000E+03 0.  0.
    8880022    1    1    2    0    0  0.57337223305E+03 -0.30649841564E+03 -0.50151334540E+03  0.83522708592E+03  0.15294330000E+03 0.  0.
<mgrwt>
<rscale>  0 0.85300540E+03</rscale>
<asrwt>0</asrwt>
<pdfrwt beam="1">  1        2 0.17562658E+00 0.92547674E+03</pdfrwt>
<pdfrwt beam="2">  1       -2 0.13662330E+00 0.92547674E+03</pdfrwt>
<totfact> 0.78532888E+00</totfact>
</mgrwt>
</event>
<event>
 4    1  0.7280516E-007  0.8115699E+03  0.7818608E-02  0.9686316E-01
          2   -1    0    0  501    0  0.00000000000E+00  0.00000000000E+00  0.19260867582E+04  0.19260867582E+04  0.25500000000E-02 0. -1.
         -2   -1    0    0    0  501 -0.00000000000E+00 -0.00000000000E+00 -0.40890559011E+03  0.40890559012E+03  0.25500000000E-02 0.  1.
    8880023    1    1    2    0    0 -0.22152840780E+03 -0.41923811278E+03  0.81894234717E+02  0.81569130350E+03  0.65864270000E+03 0.  1.
    8880022    1    1    2    0    0  0.22152840780E+03  0.41923811278E+03  0.14352869334E+04  0.15193010448E+04  0.15294330000E+03 0.  0.
<mgrwt>
<rscale>  0 0.71837395E+03</rscale>
<asrwt>0</asrwt>
<pdfrwt beam="1">  1        2 0.29632104E+00 0.81156986E+03</pdfrwt>
<pdfrwt beam="2">  1       -2 0.62908552E-01 0.81156986E+03</pdfrwt>
<totfact> 0.17617229E+01</totfact>
</mgrwt>
</event>
<event>
 4    1  0.7280516E-007  0.7971801E+03  0.7818608E-02  0.9716927E-01
          2   -1    0    0  501    0  0.00000000000E+00  0.00000000000E+00  0.11499599971E+04  0.11499599971E+04  0.25500000000E-02 0. -1.
         -2   -1    0    0    0  501 -0.00000000000E+00 -0.00000000000E+00 -0.71308207334E+03  0.71308207334E+03  0.25500000000E-02 0.  1.
    8880023    1    1    2    0    0  0.36980540740E+03 -0.25481325084E+03  0.89845208389E+03  0.12011295457E+04  0.65864270000E+03 0.  0.
    8880022    1    1    2    0    0 -0.36980540740E+03  0.25481325084E+03 -0.46157416013E+03  0.66191252478E+03  0.15294330000E+03 0.  0.
<mgrwt>
<rscale>  0 0.70017859E+03</rscale>
<asrwt>0</asrwt>
<pdfrwt beam="1">  1        2 0.17691692E+00 0.79718005E+03</pdfrwt>
<pdfrwt beam="2">  1       -2 0.10970494E+00 0.79718005E+03</pdfrwt>
<totfact> 0.13605827E+01</totfact>
</mgrwt>
</event>
<event>
 4    1  0.7280516E-007  0.6979806E+03  0.7818608E-02  0.1000568E+00
          2   -1    0    0  501    0  0.00000000000E+00  0.00000000000E+00  0.26845396187E+04  0.26845396187E+04  0.25500000000E-02 0. -1.
         -2   -1    0    0    0  501 -0.00000000000E+00 -0.00000000000E+00 -0.12597158051E+03  0.12597158054E+03  0.25500000000E-02 0.  1.
    8880023    1    1    2    0    0  0.40345133104E+02 -0.22746195970E+03  0.23815748289E+04  0.24817484854E+04  0.65864270000E+03 0. -1.
    8880022    1    1    2    0    0 -0.40345133104E+02  0.22746195970E+03  0.17699320933E+03  0.32876271389E+03  0.15294330000E+03 0.  0.
<mgrwt>
<rscale>  0 0.55401712E+03</rscale>
<asrwt>0</asrwt>
<pdfrwt beam="1">  1        2 0.41300606E+00 0.69798057E+03</pdfrwt>
<pdfrwt beam="2">  1       -2 0.19380245E-01 0.69798057E+03</pdfrwt>
<totfact> 0.64364304E+01</totfact>
</mgrwt>
</event>
<event>
 4    1  0.7280516E-007  0.7077980E+03  0.7818608E-02  0.9966271E-01
          2   -1    0    0  501    0  0.00000000000E+00  0.00000000000E+00  0.37639079742E+04  0.37639079742E+04  0.25500000000E-02 0. -1.
         -2   -1    0    0    0  501 -0.00000000000E+00 -0.00000000000E+00 -0.71761440030E+02  0.71761440075E+02  0.25500000000E-02 0.  1.
    8880023    1    1    2    0    0  0.49578985834E+02 -0.25438096236E+03  0.29730968418E+04  0.30561876230E+04  0.65864270000E+03 0. -1.
    8880022    1    1    2    0    0 -0.49578985834E+02  0.25438096236E+03  0.71904969230E+03  0.77948179123E+03  0.15294330000E+03 0.  1.
<mgrwt>
<rscale>  0 0.57154269E+03</rscale>
<asrwt>0</asrwt>
<pdfrwt beam="1">  1        2 0.57906283E+00 0.70779796E+03</pdfrwt>
<pdfrwt beam="2">  1       -2 0.11040220E-01 0.70779796E+03</pdfrwt>
<totfact> 0.33481517E+01</totfact>
</mgrwt>
</event>
<event>
 4    1  0.7280516E-007  0.9734046E+03  0.7818608E-02  0.9417211E-01
         -2   -1    0    0    0  501 -0.00000000000E+00  0.00000000000E+00  0.45055973715E+03  0.45055973716E+03  0.25500000000E-02 0.  1.
          2   -1    0    0  501    0  0.00000000000E+00 -0.00000000000E+00 -0.17161555540E+04  0.17161555540E+04  0.25500000000E-02 0. -1.
    8880023    1    1    2    0    0 -0.61671351847E+03 -0.36519954987E+03 -0.45676028125E+03  0.10752425010E+04  0.65864270000E+03 0.  1.
    8880022    1    1    2    0    0  0.61671351847E+03  0.36519954987E+03 -0.80883553562E+03  0.10914727902E+04  0.15294330000E+03 0. -1.
<mgrwt>
<rscale>  0 0.90672737E+03</rscale>
<asrwt>0</asrwt>
<pdfrwt beam="1">  1        2 0.26402393E+00 0.97340458E+03</pdfrwt>
<pdfrwt beam="2">  1       -2 0.69316883E-01 0.97340458E+03</pdfrwt>
<totfact> 0.18286699E+01</totfact>
</mgrwt>
</event>
<event>
 4    1  0.7280516E-007  0.7303972E+03  0.7818608E-02  0.9888857E-01
          2   -1    0    0  501    0  0.00000000000E+00  0.00000000000E+00  0.30358875717E+04  0.30358875717E+04  0.25500000000E-02 0. -1.
         -2   -1    0    0    0  501 -0.00000000000E+00 -0.00000000000E+00 -0.16892002702E+03  0.16892002704E+03  0.25500000000E-02 0.  1.
    8880023    1    1    2    0    0  0.26936768293E+03 -0.16465408372E+03  0.27336220974E+04  0.28295176079E+04  0.65864270000E+03 0. -1.
    8880022    1    1    2    0    0 -0.26936768293E+03  0.16465408372E+03  0.13334544731E+03  0.37528999084E+03  0.15294330000E+03 0.  0.
<mgrwt>
<rscale>  0 0.60804350E+03</rscale>
<asrwt>0</asrwt>
<pdfrwt beam="1">  1        2 0.46705960E+00 0.73039724E+03</pdfrwt>
<pdfrwt beam="2">  1       -2 0.25987698E-01 0.73039724E+03</pdfrwt>
<totfact> 0.23471793E+01</totfact>
</mgrwt>
</event>
<event>
 4    1  0.7280516E-007  0.6857266E+03  0.7818608E-02  0.1006254E+00
         -2   -1    0    0    0  501 -0.00000000000E+00  0.00000000000E+00  0.13600119972E+03  0.13600119975E+03  0.25500000000E-02 0.  1.
          2   -1    0    0  501    0  0.00000000000E+00 -0.00000000000E+00 -0.23503459710E+04  0.23503459710E+04  0.25500000000E-02 0. -1.
    8880023    1    1    2    0    0 -0.19059808978E+03  0.91170595151E+01 -0.21132638620E+04  0.22217347072E+04  0.65864270000E+03 0. -1.
    8880022    1    1    2    0    0  0.19059808978E+03 -0.91170595151E+01 -0.10108090925E+03  0.26461246349E+03  0.15294330000E+03 0.  0.
<mgrwt>
<rscale>  0 0.52991117E+03</rscale>
<asrwt>0</asrwt>
<pdfrwt beam="1">  1        2 0.36159166E+00 0.68572659E+03</pdfrwt>
<pdfrwt beam="2">  1       -2 0.20923263E-01 0.68572659E+03</pdfrwt>
<totfact> 0.87239026E+01</totfact>
</mgrwt>
</event>
<event>
 4    1  0.7280516E-007  0.6999904E+03  0.7818608E-02  0.9997241E-01
         -2   -1    0    0    0  501 -0.00000000000E+00  0.00000000000E+00  0.82407680454E+03  0.82407680455E+03  0.25500000000E-02 0.  1.
          2   -1    0    0  501    0  0.00000000000E+00 -0.00000000000E+00 -0.40613745534E+03  0.40613745535E+03  0.25500000000E-02 0. -1.
    8880023    1    1    2    0    0  0.20765869372E+03  0.11425478352E+03 -0.30253578613E+02  0.70064382814E+03  0.65864270000E+03 0. -1.
    8880022    1    1    2    0    0 -0.20765869372E+03 -0.11425478352E+03  0.44819292781E+03  0.52957043175E+03  0.15294330000E+03 0.  0.
<mgrwt>
<rscale>  0 0.55771369E+03</rscale>
<asrwt>0</asrwt>
<pdfrwt beam="1">  1        2 0.62482686E-01 0.69999035E+03</pdfrwt>
<pdfrwt beam="2">  1       -2 0.12678105E+00 0.69999035E+03</pdfrwt>
<totfact> 0.36720015E+01</totfact>
</mgrwt>
</event>
<event>
 4    1  0.7280516E-007  0.1001547E+04  0.7818608E-02  0.9379537E-01
          2   -1    0    0  501    0  0.00000000000E+00  0.00000000000E+00  0.16578431317E+04  0.16578431317E+04  0.25500000000E-02 0. -1.
         -2   -1    0    0    0  501 -0.00000000000E+00 -0.00000000000E+00 -0.57993182861E+03  0.57993182862E+03  0.25500000000E-02 0.  1.
    8880023    1    1    2    0    0 -0.75445252305E+03 -0.93290602498E+01  0.10731490238E+04  0.14679048588E+04  0.65864270000E+03 0.  0.
    8880022    1    1    2    0    0  0.75445252305E+03  0.93290602498E+01  0.47622792760E+01  0.76987010153E+03  0.15294330000E+03 0.  0.
<mgrwt>
<rscale>  0 0.93779022E+03</rscale>
<asrwt>0</asrwt>
<pdfrwt beam="1">  1        2 0.25505278E+00 0.10015467E+04</pdfrwt>
<pdfrwt beam="2">  1       -2 0.89220283E-01 0.10015467E+04</pdfrwt>
<totfact> 0.11133270E+01</totfact>
</mgrwt>
</event>
<event>
 4    1  0.7280516E-007  0.7784581E+03  0.7818608E-02  0.9759471E-01
          2   -1    0    0  501    0  0.00000000000E+00  0.00000000000E+00  0.93486407011E+03  0.93486407012E+03  0.25500000000E-02 0. -1.
         -2   -1    0    0    0  501 -0.00000000000E+00 -0.00000000000E+00 -0.82015352211E+03  0.82015352211E+03  0.25500000000E-02 0.  1.
    8880023    1    1    2    0    0  0.14278806001E+03  0.38961317700E+03  0.68252867622E+03  0.10352982459E+04  0.65864270000E+03 0. -1.
    8880022    1    1    2    0    0 -0.14278806001E+03 -0.38961317700E+03 -0.56781812822E+03  0.71971934636E+03  0.15294330000E+03 0.  0.
<mgrwt>
<rscale>  0 0.67583641E+03</rscale>
<asrwt>0</asrwt>
<pdfrwt beam="1">  1        2 0.14382524E+00 0.77845813E+03</pdfrwt>
<pdfrwt beam="2">  1       -2 0.12617746E+00 0.77845813E+03</pdfrwt>
<totfact> 0.13183374E+01</totfact>
</mgrwt>
</event>
<event>
 4    1  0.7280516E-007  0.6853428E+03  0.7818608E-02  0.1006450E+00
          2   -1    0    0  501    0  0.00000000000E+00  0.00000000000E+00  0.24121151734E+04  0.24121151734E+04  0.25500000000E-02 0. -1.
         -2   -1    0    0    0  501 -0.00000000000E+00 -0.00000000000E+00 -0.18446658196E+03  0.18446658197E+03  0.25500000000E-02 0.  1.
    8880023    1    1    2    0    0 -0.17977866230E+03 -0.59700262638E+02  0.22500278679E+04  0.23520884552E+04  0.65864270000E+03 0. -1.
    8880022    1    1    2    0    0  0.17977866230E+03  0.59700262638E+02 -0.22379276440E+02  0.24449330013E+03  0.15294330000E+03 0.  0.
<mgrwt>
<rscale>  0 0.52910378E+03</rscale>
<asrwt>0</asrwt>
<pdfrwt beam="1">  1        2 0.37109463E+00 0.68534276E+03</pdfrwt>
<pdfrwt beam="2">  1       -2 0.28379475E-01 0.68534276E+03</pdfrwt>
<totfact> 0.46616526E+01</totfact>
</mgrwt>
</event>
<event>
 4    1  0.7280516E-007  0.1093552E+04  0.7818608E-02  0.9268269E-01
         -2   -1    0    0    0  501 -0.00000000000E+00  0.00000000000E+00  0.16902446343E+04  0.16902446343E+04  0.25500000000E-02 0.  1.
          2   -1    0    0  501    0  0.00000000000E+00 -0.00000000000E+00 -0.20604603415E+04  0.20604603415E+04  0.25500000000E-02 0. -1.
    8880023    1    1    2    0    0 -0.49243209324E+03  0.72080237675E+03  0.13967654776E+04  0.17739248683E+04  0.65864270000E+03 0.  1.
    8880022    1    1    2    0    0  0.49243209324E+03 -0.72080237675E+03 -0.17669811848E+04  0.19767801075E+04  0.15294330000E+03 0.  0.
<mgrwt>
<rscale>  0 0.10375725E+04</rscale>
<asrwt>0</asrwt>
<pdfrwt beam="1">  1        2 0.31699390E+00 0.10935518E+04</pdfrwt>
<pdfrwt beam="2">  1       -2 0.26003764E+00 0.10935518E+04</pdfrwt>
<totfact> 0.34124799E-01</totfact>
</mgrwt>
</event>
<event>
 4    1  0.7280516E-007  0.6710501E+03  0.7818608E-02  0.1014921E+00
          2   -1    0    0  501    0  0.00000000000E+00  0.00000000000E+00  0.20172900869E+04  0.20172900869E+04  0.25500000000E-02 0. -1.
         -2   -1    0    0    0  501 -0.00000000000E+00 -0.00000000000E+00 -0.11154579350E+03  0.11154579353E+03  0.25500000000E-02 0.  1.
    8880023    1    1    2    0    0 -0.98724318062E+02 -0.82168084542E+02  0.17540638728E+04  0.18780437591E+04  0.65864270000E+03 0. -1.
    8880022    1    1    2    0    0  0.98724318062E+02  0.82168084542E+02  0.15168042060E+03  0.25079212129E+03  0.15294330000E+03 0.  0.
<mgrwt>
<rscale>  0 0.49564859E+03</rscale>
<asrwt>0</asrwt>
<pdfrwt beam="1">  1        2 0.31035233E+00 0.67105014E+03</pdfrwt>
<pdfrwt beam="2">  1       -2 0.17160891E-01 0.67105014E+03</pdfrwt>
<totfact> 0.18784444E+02</totfact>
</mgrwt>
</event>
<event>
 4    1  0.7280516E-007  0.8068395E+03  0.7818608E-02  0.9696198E-01
          2   -1    0    0  501    0  0.00000000000E+00  0.00000000000E+00  0.23862707960E+04  0.23862707960E+04  0.25500000000E-02 0. -1.
         -2   -1    0    0    0  501 -0.00000000000E+00 -0.00000000000E+00 -0.21162220089E+03  0.21162220090E+03  0.25500000000E-02 0.  1.
    8880023    1    1    2    0    0  0.18983822358E+03  0.42560692975E+03  0.18254320450E+04  0.19957936183E+04  0.65864270000E+03 0. -1.
    8880022    1    1    2    0    0 -0.18983822358E+03 -0.42560692975E+03  0.34921655011E+03  0.60209937857E+03  0.15294330000E+03 0.  0.
<mgrwt>
<rscale>  0 0.71243605E+03</rscale>
<asrwt>0</asrwt>
<pdfrwt beam="1">  1        2 0.36711858E+00 0.80683952E+03</pdfrwt>
<pdfrwt beam="2">  1       -2 0.32557262E-01 0.80683952E+03</pdfrwt>
<totfact> 0.36722661E+01</totfact>
</mgrwt>
</event>
<event>
 4    1  0.7280516E-007  0.6884849E+03  0.7818608E-02  0.1004881E+00
         -2   -1    0    0    0  501 -0.00000000000E+00  0.00000000000E+00  0.47955766715E+03  0.47955766715E+03  0.25500000000E-02 0.  1.
          2   -1    0    0  501    0  0.00000000000E+00 -0.00000000000E+00 -0.20850906799E+04  0.20850906799E+04  0.25500000000E-02 0. -1.
    8880023    1    1    2    0    0 -0.16588559307E+03 -0.11261971989E+03 -0.19895083615E+04  0.21052683815E+04  0.65864270000E+03 0. -1.
    8880022    1    1    2    0    0  0.16588559307E+03  0.11261971989E+03  0.38397534876E+03  0.45937996557E+03  0.15294330000E+03 0.  0.
<mgrwt>
<rscale>  0 0.53560778E+03</rscale>
<asrwt>0</asrwt>
<pdfrwt beam="1">  1        2 0.32078318E+00 0.68848489E+03</pdfrwt>
<pdfrwt beam="2">  1       -2 0.73778104E-01 0.68848489E+03</pdfrwt>
<totfact> 0.10392644E+01</totfact>
</mgrwt>
</event>
<event>
 4    1  0.7280516E-007  0.7567920E+03  0.7818608E-02  0.9813484E-01
         -2   -1    0    0    0  501 -0.00000000000E+00  0.00000000000E+00  0.55910209892E+03  0.55910209893E+03  0.25500000000E-02 0.  1.
          2   -1    0    0  501    0  0.00000000000E+00 -0.00000000000E+00 -0.11166184824E+04  0.11166184824E+04  0.25500000000E-02 0. -1.
    8880023    1    1    2    0    0  0.19288614901E+03 -0.31893399878E+03 -0.87928096568E+03  0.11601160222E+04  0.65864270000E+03 0. -1.
    8880022    1    1    2    0    0 -0.19288614901E+03  0.31893399878E+03  0.32176458219E+03  0.51560455916E+03  0.15294330000E+03 0.  0.
<mgrwt>
<rscale>  0 0.64643885E+03</rscale>
<asrwt>0</asrwt>
<pdfrwt beam="1">  1        2 0.17178746E+00 0.75679202E+03</pdfrwt>
<pdfrwt beam="2">  1       -2 0.86015708E-01 0.75679202E+03</pdfrwt>
<totfact> 0.25377458E+01</totfact>
</mgrwt>
</event>
<event>
 4    1  0.7280516E-007  0.8603337E+03  0.7818608E-02  0.9592970E-01
         -2   -1    0    0    0  501 -0.00000000000E+00  0.00000000000E+00  0.15858821097E+04  0.15858821097E+04  0.25500000000E-02 0.  1.
          2   -1    0    0  501    0  0.00000000000E+00 -0.00000000000E+00 -0.59606484530E+03  0.59606484531E+03  0.25500000000E-02 0. -1.
    8880023    1    1    2    0    0 -0.51948947382E+03 -0.19103549586E+03 -0.17984058312E+03  0.87892930073E+03  0.65864270000E+03 0.  0.
    8880022    1    1    2    0    0  0.51948947382E+03  0.19103549586E+03  0.11696578475E+04  0.13030176543E+04  0.15294330000E+03 0.  0.
<mgrwt>
<rscale>  0 0.77763216E+03</rscale>
<asrwt>0</asrwt>
<pdfrwt beam="1">  1        2 0.91702283E-01 0.86033370E+03</pdfrwt>
<pdfrwt beam="2">  1       -2 0.24398186E+00 0.86033370E+03</pdfrwt>
<totfact> 0.35479572E+00</totfact>
</mgrwt>
</event>
<event>
 4    1  0.7280516E-007  0.7970437E+03  0.7818608E-02  0.9717225E-01
         -2   -1    0    0    0  501 -0.00000000000E+00  0.00000000000E+00  0.29776788887E+03  0.29776788889E+03  0.25500000000E-02 0.  1.
          2   -1    0    0  501    0  0.00000000000E+00 -0.00000000000E+00 -0.14177538827E+04  0.14177538827E+04  0.25500000000E-02 0. -1.
    8880023    1    1    2    0    0 -0.16403711319E+03 -0.41780415442E+03 -0.86837572851E+03  0.11787090812E+04  0.65864270000E+03 0.  0.
    8880022    1    1    2    0    0  0.16403711319E+03  0.41780415442E+03 -0.25161026533E+03  0.53681269041E+03  0.15294330000E+03 0.  0.
<mgrwt>
<rscale>  0 0.70000424E+03</rscale>
<asrwt>0</asrwt>
<pdfrwt beam="1">  1        2 0.21811598E+00 0.79704372E+03</pdfrwt>
<pdfrwt beam="2">  1       -2 0.45810445E-01 0.79704372E+03</pdfrwt>
<totfact> 0.64831952E+01</totfact>
</mgrwt>
</event>
<event>
 4    1  0.7280516E-007  0.7647219E+03  0.7818608E-02  0.9793033E-01
          2   -1    0    0  501    0  0.00000000000E+00  0.00000000000E+00  0.22224534932E+04  0.22224534932E+04  0.25500000000E-02 0. -1.
         -2   -1    0    0    0  501 -0.00000000000E+00 -0.00000000000E+00 -0.23763945063E+03  0.23763945064E+03  0.25500000000E-02 0.  1.
    8880023    1    1    2    0    0 -0.38134751761E+03  0.74588230444E+02  0.18799548535E+04  0.20295393051E+04  0.65864270000E+03 0.  0.
    8880022    1    1    2    0    0  0.38134751761E+03 -0.74588230444E+02  0.10485918904E+03  0.43055363876E+03  0.15294330000E+03 0.  0.
<mgrwt>
<rscale>  0 0.65737779E+03</rscale>
<asrwt>0</asrwt>
<pdfrwt beam="1">  1        2 0.34191592E+00 0.76472187E+03</pdfrwt>
<pdfrwt beam="2">  1       -2 0.36559916E-01 0.76472187E+03</pdfrwt>
<totfact> 0.36536299E+01</totfact>
</mgrwt>
</event>
<event>
 4    1  0.7280516E-007  0.7175959E+03  0.7818608E-02  0.9930806E-01
          2   -1    0    0  501    0  0.00000000000E+00  0.00000000000E+00  0.20794463701E+04  0.20794463701E+04  0.25500000000E-02 0. -1.
         -2   -1    0    0    0  501 -0.00000000000E+00 -0.00000000000E+00 -0.24768250508E+03  0.24768250509E+03  0.25500000000E-02 0.  1.
    8880023    1    1    2    0    0 -0.24776578658E+03  0.14051975565E+03  0.18686779287E+04  0.20017245300E+04  0.65864270000E+03 0. -1.
    8880022    1    1    2    0    0  0.24776578658E+03 -0.14051975565E+03 -0.36914063672E+02  0.32540434514E+03  0.15294330000E+03 0.  0.
<mgrwt>
<rscale>  0 0.58791246E+03</rscale>
<asrwt>0</asrwt>
<pdfrwt beam="1">  1        2 0.31991483E+00 0.71759591E+03</pdfrwt>
<pdfrwt beam="2">  1       -2 0.38105000E-01 0.71759591E+03</pdfrwt>
<totfact> 0.40675953E+01</totfact>
</mgrwt>
</event>
<event>
 4    1  0.7280516E-007  0.1241543E+04  0.7818608E-02  0.9117760E-01
         -2   -1    0    0    0  501 -0.00000000000E+00  0.00000000000E+00  0.13843767894E+04  0.13843767894E+04  0.25500000000E-02 0.  1.
          2   -1    0    0  501    0  0.00000000000E+00 -0.00000000000E+00 -0.15654921861E+04  0.15654921861E+04  0.25500000000E-02 0. -1.
    8880023    1    1    2    0    0 -0.13242186666E+03 -0.10440709589E+04 -0.10108313633E+04  0.16010028011E+04  0.65864270000E+03 0.  0.
    8880022    1    1    2    0    0  0.13242186666E+03  0.10440709589E+04  0.82971596664E+03  0.13488661744E+04  0.15294330000E+03 0.  0.
<mgrwt>
<rscale>  0 0.11944137E+04</rscale>
<asrwt>0</asrwt>
<pdfrwt beam="1">  1        2 0.24084495E+00 0.12415434E+04</pdfrwt>
<pdfrwt beam="2">  1       -2 0.21298105E+00 0.12415434E+04</pdfrwt>
<totfact> 0.12335733E+00</totfact>
</mgrwt>
</event>
<event>
 4    1  0.7280516E-007  0.7298685E+03  0.7818608E-02  0.9890507E-01
          2   -1    0    0  501    0  0.00000000000E+00  0.00000000000E+00  0.68374706383E+03  0.68374706383E+03  0.25500000000E-02 0. -1.
         -2   -1    0    0    0  501 -0.00000000000E+00 -0.00000000000E+00 -0.13095645283E+04  0.13095645283E+04  0.25500000000E-02 0.  1.
    8880023    1    1    2    0    0 -0.17594760361E+03  0.26065359800E+03  0.45314266748E+03  0.85909623484E+03  0.65864270000E+03 0. -1.
    8880022    1    1    2    0    0  0.17594760361E+03 -0.26065359800E+03 -0.10789601319E+04  0.11342153573E+04  0.15294330000E+03 0.  0.
<mgrwt>
<rscale>  0 0.60723546E+03</rscale>
<asrwt>0</asrwt>
<pdfrwt beam="1">  1        2 0.10519186E+00 0.72986852E+03</pdfrwt>
<pdfrwt beam="2">  1       -2 0.20147147E+00 0.72986852E+03</pdfrwt>
<totfact> 0.56202709E+00</totfact>
</mgrwt>
</event>
<event>
 4    1  0.7280516E-007  0.7090677E+03  0.7818608E-02  0.9961479E-01
          2   -1    0    0  501    0  0.00000000000E+00  0.00000000000E+00  0.24041450458E+03  0.24041450459E+03  0.25500000000E-02 0. -1.
         -2   -1    0    0    0  501 -0.00000000000E+00 -0.00000000000E+00 -0.12120139812E+04  0.12120139812E+04  0.25500000000E-02 0.  1.
    8880023    1    1    2    0    0  0.21265878141E+03 -0.15408789297E+03 -0.42404661261E+03  0.82619160731E+03  0.65864270000E+03 0.  0.
    8880022    1    1    2    0    0 -0.21265878141E+03  0.15408789297E+03 -0.54755286403E+03  0.62623687850E+03  0.15294330000E+03 0.  0.
<mgrwt>
<rscale>  0 0.57372053E+03</rscale>
<asrwt>0</asrwt>
<pdfrwt beam="1">  1        2 0.36986848E-01 0.70906773E+03</pdfrwt>
<pdfrwt beam="2">  1       -2 0.18646369E+00 0.70906773E+03</pdfrwt>
<totfact> 0.23439321E+01</totfact>
</mgrwt>
</event>
<event>
 4    1  0.7280516E-007  0.7851252E+03  0.7818608E-02  0.9743933E-01
         -2   -1    0    0    0  501 -0.00000000000E+00  0.00000000000E+00  0.13899567993E+03  0.13899567996E+03  0.25500000000E-02 0.  1.
          2   -1    0    0  501    0  0.00000000000E+00 -0.00000000000E+00 -0.27663028568E+04  0.27663028568E+04  0.25500000000E-02 0. -1.
    8880023    1    1    2    0    0  0.40399015331E+03 -0.13929597175E+03 -0.17249196906E+04  0.18951964429E+04  0.65864270000E+03 0. -1.
    8880022    1    1    2    0    0 -0.40399015331E+03  0.13929597175E+03 -0.90238748624E+03  0.10101020939E+04  0.15294330000E+03 0.  1.
<mgrwt>
<rscale>  0 0.68460239E+03</rscale>
<asrwt>0</asrwt>
<pdfrwt beam="1">  1        2 0.42558501E+00 0.78512522E+03</pdfrwt>
<pdfrwt beam="2">  1       -2 0.21383953E-01 0.78512522E+03</pdfrwt>
<totfact> 0.47944688E+01</totfact>
</mgrwt>
</event>
<event>
 4    1  0.7280516E-007  0.7572977E+03  0.7818608E-02  0.9812154E-01
         -2   -1    0    0    0  501 -0.00000000000E+00  0.00000000000E+00  0.22569646558E+03  0.22569646560E+03  0.25500000000E-02 0.  1.
          2   -1    0    0  501    0  0.00000000000E+00 -0.00000000000E+00 -0.18127222515E+04  0.18127222515E+04  0.25500000000E-02 0. -1.
    8880023    1    1    2    0    0 -0.57135194119E+02  0.36935776971E+03 -0.14036340271E+04  0.15948944419E+04  0.65864270000E+03 0. -1.
    8880022    1    1    2    0    0  0.57135194119E+02 -0.36935776971E+03 -0.18339175874E+03  0.44352427514E+03  0.15294330000E+03 0.  1.
<mgrwt>
<rscale>  0 0.64714333E+03</rscale>
<asrwt>0</asrwt>
<pdfrwt beam="1">  1        2 0.27888034E+00 0.75729769E+03</pdfrwt>
<pdfrwt beam="2">  1       -2 0.34722534E-01 0.75729769E+03</pdfrwt>
<totfact> 0.67625620E+01</totfact>
</mgrwt>
</event>
<event>
 4    1  0.7280516E-007  0.1297073E+04  0.7818608E-02  0.9068092E-01
          2   -1    0    0  501    0  0.00000000000E+00  0.00000000000E+00  0.11413763909E+04  0.11413763909E+04  0.25500000000E-02 0. -1.
         -2   -1    0    0    0  501 -0.00000000000E+00 -0.00000000000E+00 -0.15856928497E+04  0.15856928497E+04  0.25500000000E-02 0.  1.
    8880023    1    1    2    0    0  0.70090409118E+03 -0.87024221115E+03  0.35493441998E+03  0.13447589746E+04  0.65864270000E+03 0.  0.
    8880022    1    1    2    0    0 -0.70090409118E+03  0.87024221115E+03 -0.79925087883E+03  0.13823102660E+04  0.15294330000E+03 0.  0.
<mgrwt>
<rscale>  0 0.12525161E+04</rscale>
<asrwt>0</asrwt>
<pdfrwt beam="1">  1        2 0.17559637E+00 0.12970730E+04</pdfrwt>
<pdfrwt beam="2">  1       -2 0.24395275E+00 0.12970730E+04</pdfrwt>
<totfact> 0.13855487E+00</totfact>
</mgrwt>
</event>
<event>
 4    1  0.7280516E-007  0.7021023E+03  0.7818608E-02  0.9988589E-01
          2   -1    0    0  501    0  0.00000000000E+00  0.00000000000E+00  0.20050968802E+03  0.20050968804E+03  0.25500000000E-02 0. -1.
         -2   -1    0    0    0  501 -0.00000000000E+00 -0.00000000000E+00 -0.14335089938E+04  0.14335089938E+04  0.25500000000E-02 0.  1.
    8880023    1    1    2    0    0 -0.18464479209E+03  0.15825216627E+03 -0.54614438446E+03  0.88950623512E+03  0.65864270000E+03 0. -1.
    8880022    1    1    2    0    0  0.18464479209E+03 -0.15825216627E+03 -0.68685492136E+03  0.74451244677E+03  0.15294330000E+03 0.  0.
<mgrwt>
<rscale>  0 0.56153417E+03</rscale>
<asrwt>0</asrwt>
<pdfrwt beam="1">  1        2 0.30847645E-01 0.70210231E+03</pdfrwt>
<pdfrwt beam="2">  1       -2 0.22053984E+00 0.70210231E+03</pdfrwt>
<totfact> 0.17322478E+01</totfact>
</mgrwt>
</event>
<event>
 4    1  0.7280516E-007  0.6617801E+03  0.7818608E-02  0.1022403E+00
          2   -1    0    0  501    0  0.00000000000E+00  0.00000000000E+00  0.16987288728E+04  0.16987288728E+04  0.25500000000E-02 0. -1.
         -2   -1    0    0    0  501 -0.00000000000E+00 -0.00000000000E+00 -0.23612408064E+03  0.23612408066E+03  0.25500000000E-02 0.  1.
    8880023    1    1    2    0    0  0.34467491064E+02  0.54356709699E+02  0.15922346572E+04  0.17242865393E+04  0.65864270000E+03 0. -1.
    8880022    1    1    2    0    0 -0.34467491064E+02 -0.54356709699E+02 -0.12962986506E+03  0.21056641413E+03  0.15294330000E+03 0.  0.
<mgrwt>
<rscale>  0 0.46829503E+03</rscale>
<asrwt>0</asrwt>
<pdfrwt beam="1">  1        2 0.26134291E+00 0.66178007E+03</pdfrwt>
<pdfrwt beam="2">  1       -2 0.36326781E-01 0.66178007E+03</pdfrwt>
<totfact> 0.72357079E+01</totfact>
</mgrwt>
</event>
<event>
 4    1  0.7280516E-007  0.8879031E+03  0.7818608E-02  0.9545737E-01
          2   -1    0    0  501    0  0.00000000000E+00  0.00000000000E+00  0.14589344574E+04  0.14589344574E+04  0.25500000000E-02 0. -1.
         -2   -1    0    0    0  501 -0.00000000000E+00 -0.00000000000E+00 -0.39826435689E+03  0.39826435690E+03  0.25500000000E-02 0.  1.
    8880023    1    1    2    0    0 -0.24350562568E+02  0.59495273646E+03  0.77806786957E+03  0.11805767762E+04  0.65864270000E+03 0. -1.
    8880022    1    1    2    0    0  0.24350562568E+02 -0.59495273646E+03  0.28260223091E+03  0.67662203810E+03  0.15294330000E+03 0. -1.
<mgrwt>
<rscale>  0 0.80994207E+03</rscale>
<asrwt>0</asrwt>
<pdfrwt beam="1">  1        2 0.22445146E+00 0.88790310E+03</pdfrwt>
<pdfrwt beam="2">  1       -2 0.61271439E-01 0.88790310E+03</pdfrwt>
<totfact> 0.33445194E+01</totfact>
</mgrwt>
</event>
<event>
 4    1  0.7280516E-007  0.6805363E+03  0.7818608E-02  0.1009022E+00
          2   -1    0    0  501    0  0.00000000000E+00  0.00000000000E+00  0.27341062470E+04  0.27341062470E+04  0.25500000000E-02 0. -1.
         -2   -1    0    0    0  501 -0.00000000000E+00 -0.00000000000E+00 -0.15933306751E+03  0.15933306753E+03  0.25500000000E-02 0.  1.
    8880023    1    1    2    0    0  0.13554105228E+03  0.10463319096E+03  0.25754539670E+04  0.26638492495E+04  0.65864270000E+03 0. -1.
    8880022    1    1    2    0    0 -0.13554105228E+03 -0.10463319096E+03 -0.68078747389E+00  0.22959006509E+03  0.15294330000E+03 0.  0.
<mgrwt>
<rscale>  0 0.51865226E+03</rscale>
<asrwt>0</asrwt>
<pdfrwt beam="1">  1        2 0.42063168E+00 0.68053632E+03</pdfrwt>
<pdfrwt beam="2">  1       -2 0.24512782E-01 0.68053632E+03</pdfrwt>
<totfact> 0.39864282E+01</totfact>
</mgrwt>
</event>
<event>
 4    1  0.7280516E-007  0.8336708E+03  0.7818608E-02  0.9642232E-01
         -2   -1    0    0    0  501 -0.00000000000E+00  0.00000000000E+00  0.39156159324E+03  0.39156159325E+03  0.25500000000E-02 0.  1.
          2   -1    0    0  501    0  0.00000000000E+00 -0.00000000000E+00 -0.17809241906E+04  0.17809241906E+04  0.25500000000E-02 0. -1.
    8880023    1    1    2    0    0  0.66494167315E+02  0.50673003738E+03 -0.14106656697E+04  0.16385922748E+04  0.65864270000E+03 0.  0.
    8880022    1    1    2    0    0 -0.66494167315E+02 -0.50673003738E+03  0.21303072386E+02  0.53389350902E+03  0.15294330000E+03 0.  0.
<mgrwt>
<rscale>  0 0.74562954E+03</rscale>
<asrwt>0</asrwt>
<pdfrwt beam="1">  1        2 0.27398833E+00 0.83367081E+03</pdfrwt>
<pdfrwt beam="2">  1       -2 0.60240246E-01 0.83367081E+03</pdfrwt>
<totfact> 0.23128975E+01</totfact>
</mgrwt>
</event>
<event>
 4    1  0.7280516E-007  0.8626592E+03  0.7818608E-02  0.9588851E-01
          2   -1    0    0  501    0  0.00000000000E+00  0.00000000000E+00  0.11854687950E+04  0.11854687950E+04  0.25500000000E-02 0. -1.
         -2   -1    0    0    0  501 -0.00000000000E+00 -0.00000000000E+00 -0.15593703604E+04  0.15593703604E+04  0.25500000000E-02 0.  1.
    8880023    1    1    2    0    0  0.52994124160E+03  0.17185156356E+03  0.96033250797E+03  0.12908986837E+04  0.65864270000E+03 0.  0.
    8880022    1    1    2    0    0 -0.52994124160E+03 -0.17185156356E+03 -0.13342340734E+04  0.14539404717E+04  0.15294330000E+03 0.  0.
<mgrwt>
<rscale>  0 0.78038535E+03</rscale>
<asrwt>0</asrwt>
<pdfrwt beam="1">  1        2 0.18237981E+00 0.86265919E+03</pdfrwt>
<pdfrwt beam="2">  1       -2 0.23990313E+00 0.86265919E+03</pdfrwt>
<totfact> 0.14553976E+00</totfact>
</mgrwt>
</event>
<event>
 4    1  0.7280516E-007  0.6673344E+03  0.7818608E-02  0.1017650E+00
         -2   -1    0    0    0  501 -0.00000000000E+00  0.00000000000E+00  0.10274084105E+03  0.10274084108E+03  0.25500000000E-02 0.  1.
          2   -1    0    0  501    0  0.00000000000E+00 -0.00000000000E+00 -0.26542453801E+04  0.26542453801E+04  0.25500000000E-02 0. -1.
    8880023    1    1    2    0    0 -0.78858255190E+02 -0.72844991715E+02 -0.24600298742E+04  0.25489374660E+04  0.65864270000E+03 0. -1.
    8880022    1    1    2    0    0  0.78858255190E+02  0.72844991715E+02 -0.91474664897E+02  0.20804875525E+03  0.15294330000E+03 0.  0.
<mgrwt>
<rscale>  0 0.48544133E+03</rscale>
<asrwt>0</asrwt>
<pdfrwt beam="1">  1        2 0.40834539E+00 0.66733442E+03</pdfrwt>
<pdfrwt beam="2">  1       -2 0.15806285E-01 0.66733442E+03</pdfrwt>
<totfact> 0.95538279E+01</totfact>
</mgrwt>
</event>
<event>
 4    1  0.7280516E-007  0.7123710E+03  0.7818608E-02  0.9949300E-01
          2   -1    0    0  501    0  0.00000000000E+00  0.00000000000E+00  0.46906286439E+04  0.46906286439E+04  0.25500000000E-02 0. -1.
         -2   -1    0    0    0  501 -0.00000000000E+00 -0.00000000000E+00 -0.67381268995E+02  0.67381269044E+02  0.25500000000E-02 0.  1.
    8880023    1    1    2    0    0  0.17334741710E+03  0.20883697343E+03  0.39805001552E+04  0.40437425611E+04  0.65864270000E+03 0. -1.
    8880022    1    1    2    0    0 -0.17334741710E+03 -0.20883697343E+03  0.64274721972E+03  0.71426735188E+03  0.15294330000E+03 0.  0.
<mgrwt>
<rscale>  0 0.57930365E+03</rscale>
<asrwt>0</asrwt>
<pdfrwt beam="1">  1        2 0.72163515E+00 0.71237098E+03</pdfrwt>
<pdfrwt beam="2">  1       -2 0.10366349E-01 0.71237098E+03</pdfrwt>
<totfact> 0.58739093E+00</totfact>
</mgrwt>
</event>
<event>
 4    1  0.7280516E-007  0.7966192E+03  0.7818608E-02  0.9718154E-01
         -2   -1    0    0    0  501 -0.00000000000E+00  0.00000000000E+00  0.29370479007E+03  0.29370479008E+03  0.25500000000E-02 0.  1.
          2   -1    0    0  501    0  0.00000000000E+00 -0.00000000000E+00 -0.13799165278E+04  0.13799165278E+04  0.25500000000E-02 0. -1.
    8880023    1    1    2    0    0 -0.12744637962E+03  0.42959215433E+03 -0.62374375500E+03  0.10117600886E+04  0.65864270000E+03 0.  0.
    8880022    1    1    2    0    0  0.12744637962E+03 -0.42959215433E+03 -0.46246798269E+03  0.66186122924E+03  0.15294330000E+03 0. -1.
<mgrwt>
<rscale>  0 0.69946113E+03</rscale>
<asrwt>0</asrwt>
<pdfrwt beam="1">  1        2 0.21229485E+00 0.79661923E+03</pdfrwt>
<pdfrwt beam="2">  1       -2 0.45185353E-01 0.79661923E+03</pdfrwt>
<totfact> 0.70012856E+01</totfact>
</mgrwt>
</event>
<event>
 4    1  0.7280516E-007  0.6587944E+03  0.7818608E-02  0.1025427E+00
          2   -1    0    0  501    0  0.00000000000E+00  0.00000000000E+00  0.80253478346E+03  0.80253478346E+03  0.25500000000E-02 0. -1.
         -2   -1    0    0    0  501 -0.00000000000E+00 -0.00000000000E+00 -0.55168249766E+03  0.55168249766E+03  0.25500000000E-02 0.  1.
    8880023    1    1    2    0    0  0.37191025944E+01 -0.13641298758E+02  0.65064712213E+03  0.92593293524E+03  0.65864270000E+03 0. -1.
    8880022    1    1    2    0    0 -0.37191025944E+01  0.13641298758E+02 -0.39979483634E+03  0.42828434589E+03  0.15294330000E+03 0.  0.
<mgrwt>
<rscale>  0 0.45778025E+03</rscale>
<asrwt>0</asrwt>
<pdfrwt beam="1">  1        2 0.12346689E+00 0.65879445E+03</pdfrwt>
<pdfrwt beam="2">  1       -2 0.84874230E-01 0.65879445E+03</pdfrwt>
<totfact> 0.42383184E+01</totfact>
</mgrwt>
</event>
<event>
 4    1  0.7280516E-007  0.6800378E+03  0.7818608E-02  0.1009302E+00
         -2   -1    0    0    0  501 -0.00000000000E+00  0.00000000000E+00  0.35439859087E+03  0.35439859088E+03  0.25500000000E-02 0.  1.
          2   -1    0    0  501    0  0.00000000000E+00 -0.00000000000E+00 -0.11436921456E+04  0.11436921457E+04  0.25500000000E-02 0. -1.
    8880023    1    1    2    0    0 -0.15445522142E+03  0.69172338289E+02 -0.98540022549E+03  0.11972740031E+04  0.65864270000E+03 0. -1.
    8880022    1    1    2    0    0  0.15445522142E+03 -0.69172338289E+02  0.19610667071E+03  0.30081673345E+03  0.15294330000E+03 0.  0.
<mgrwt>
<rscale>  0 0.51752881E+03</rscale>
<asrwt>0</asrwt>
<pdfrwt beam="1">  1        2 0.17595264E+00 0.68003782E+03</pdfrwt>
<pdfrwt beam="2">  1       -2 0.54522861E-01 0.68003782E+03</pdfrwt>
<totfact> 0.66321509E+01</totfact>
</mgrwt>
</event>
<event>
 4    1  0.7280516E-007  0.7154040E+03  0.7818608E-02  0.9938455E-01
          2   -1    0    0  501    0  0.00000000000E+00  0.00000000000E+00  0.41074138539E+04  0.41074138539E+04  0.25500000000E-02 0. -1.
         -2   -1    0    0    0  501 -0.00000000000E+00 -0.00000000000E+00 -0.80300850281E+02  0.80300850321E+02  0.25500000000E-02 0.  1.
    8880023    1    1    2    0    0 -0.23710011389E+03  0.14756767081E+03  0.34961738609E+04  0.35686180173E+04  0.65864270000E+03 0. -1.
    8880022    1    1    2    0    0  0.23710011389E+03 -0.14756767081E+03  0.53093914273E+03  0.61909668693E+03  0.15294330000E+03 0.  1.
<mgrwt>
<rscale>  0 0.58433228E+03</rscale>
<asrwt>0</asrwt>
<pdfrwt beam="1">  1        2 0.63190992E+00 0.71540400E+03</pdfrwt>
<pdfrwt beam="2">  1       -2 0.12353975E-01 0.71540400E+03</pdfrwt>
<totfact> 0.15080801E+01</totfact>
</mgrwt>
</event>
<event>
 4    1  0.7280516E-007  0.8306517E+03  0.7818608E-02  0.9648066E-01
          2   -1    0    0  501    0  0.00000000000E+00  0.00000000000E+00  0.22407380263E+04  0.22407380263E+04  0.25500000000E-02 0. -1.
         -2   -1    0    0    0  501 -0.00000000000E+00 -0.00000000000E+00 -0.32344044338E+03  0.32344044339E+03  0.25500000000E-02 0.  1.
    8880023    1    1    2    0    0  0.50265197455E+03  0.59270549749E+02  0.18541134091E+04  0.20316787998E+04  0.65864270000E+03 0. -1.
    8880022    1    1    2    0    0 -0.50265197455E+03 -0.59270549749E+02  0.63184173832E+02  0.53249966989E+03  0.15294330000E+03 0.  0.
<mgrwt>
<rscale>  0 0.74194942E+03</rscale>
<asrwt>0</asrwt>
<pdfrwt beam="1">  1        2 0.34472891E+00 0.83065168E+03</pdfrwt>
<pdfrwt beam="2">  1       -2 0.49760071E-01 0.83065168E+03</pdfrwt>
<totfact> 0.19242783E+01</totfact>
</mgrwt>
</event>
<event>
 4    1  0.7280516E-007  0.9546352E+03  0.7818608E-02  0.9443476E-01
          2   -1    0    0  501    0  0.00000000000E+00  0.00000000000E+00  0.12722378702E+04  0.12722378702E+04  0.25500000000E-02 0. -1.
         -2   -1    0    0    0  501 -0.00000000000E+00 -0.00000000000E+00 -0.61392955512E+03  0.61392955513E+03  0.25500000000E-02 0.  1.
    8880023    1    1    2    0    0  0.68888396033E+03  0.54378833770E+02  0.68970949035E+03  0.11777213404E+04  0.65864270000E+03 0.  0.
    8880022    1    1    2    0    0 -0.68888396033E+03 -0.54378833770E+02 -0.31401175287E+02  0.70844608489E+03  0.15294330000E+03 0.  0.
<mgrwt>
<rscale>  0 0.88582519E+03</rscale>
<asrwt>0</asrwt>
<pdfrwt beam="1">  1        2 0.19572890E+00 0.95463521E+03</pdfrwt>
<pdfrwt beam="2">  1       -2 0.94450701E-01 0.95463521E+03</pdfrwt>
<totfact> 0.16195077E+01</totfact>
</mgrwt>
</event>
<event>
 4    1  0.7280516E-007  0.8064947E+03  0.7818608E-02  0.9696925E-01
         -2   -1    0    0    0  501 -0.00000000000E+00  0.00000000000E+00  0.88522528334E+03  0.88522528334E+03  0.25500000000E-02 0.  1.
          2   -1    0    0  501    0  0.00000000000E+00 -0.00000000000E+00 -0.84113827633E+03  0.84113827634E+03  0.25500000000E-02 0. -1.
    8880023    1    1    2    0    0  0.36307525588E+03  0.29120409110E+03 -0.53502237767E+03  0.96782364870E+03  0.65864270000E+03 0.  0.
    8880022    1    1    2    0    0 -0.36307525588E+03 -0.29120409110E+03  0.57910938468E+03  0.75853991098E+03  0.15294330000E+03 0.  1.
<mgrwt>
<rscale>  0 0.71200158E+03</rscale>
<asrwt>0</asrwt>
<pdfrwt beam="1">  1        2 0.12940589E+00 0.80649468E+03</pdfrwt>
<pdfrwt beam="2">  1       -2 0.13618850E+00 0.80649468E+03</pdfrwt>
<totfact> 0.12540803E+01</totfact>
</mgrwt>
</event>
<event>
 4    1  0.7280516E-007  0.7848217E+03  0.7818608E-02  0.9744630E-01
          2   -1    0    0  501    0  0.00000000000E+00  0.00000000000E+00  0.22835892077E+04  0.22835892077E+04  0.25500000000E-02 0. -1.
         -2   -1    0    0    0  501 -0.00000000000E+00 -0.00000000000E+00 -0.20170377917E+03  0.20170377919E+03  0.25500000000E-02 0.  1.
    8880023    1    1    2    0    0 -0.21583334414E+03 -0.36817238387E+03  0.17666034013E+04  0.19330889065E+04  0.65864270000E+03 0. -1.
    8880022    1    1    2    0    0  0.21583334414E+03  0.36817238387E+03  0.31528202722E+03  0.55220408038E+03  0.15294330000E+03 0.  0.
<mgrwt>
<rscale>  0 0.68420582E+03</rscale>
<asrwt>0</asrwt>
<pdfrwt beam="1">  1        2 0.35132139E+00 0.78482173E+03</pdfrwt>
<pdfrwt beam="2">  1       -2 0.31031353E-01 0.78482173E+03</pdfrwt>
<totfact> 0.45978900E+01</totfact>
</mgrwt>
</event>
<event>
 4    1  0.7280516E-007  0.6704533E+03  0.7818608E-02  0.1015340E+00
          2   -1    0    0  501    0  0.00000000000E+00  0.00000000000E+00  0.19524874770E+03  0.19524874772E+03  0.25500000000E-02 0. -1.
         -2   -1    0    0    0  501 -0.00000000000E+00 -0.00000000000E+00 -0.17256556854E+04  0.17256556854E+04  0.25500000000E-02 0.  1.
    8880023    1    1    2    0    0 -0.11196758155E+02 -0.12478816413E+03 -0.41585078628E+03  0.78894837348E+03  0.65864270000E+03 0. -1.
    8880022    1    1    2    0    0  0.11196758155E+02  0.12478816413E+03 -0.11145561514E+04  0.11319560597E+04  0.15294330000E+03 0.  0.
<mgrwt>
<rscale>  0 0.49406419E+03</rscale>
<asrwt>0</asrwt>
<pdfrwt beam="1">  1        2 0.30038270E-01 0.67045332E+03</pdfrwt>
<pdfrwt beam="2">  1       -2 0.26548548E+00 0.67045332E+03</pdfrwt>
<totfact> 0.95369085E+00</totfact>
</mgrwt>
</event>
<event>
 4    1  0.7280516E-007  0.7177158E+03  0.7818608E-02  0.9930392E-01
          2   -1    0    0  501    0  0.00000000000E+00  0.00000000000E+00  0.13677182577E+04  0.13677182577E+04  0.25500000000E-02 0. -1.
         -2   -1    0    0    0  501 -0.00000000000E+00 -0.00000000000E+00 -0.65531826386E+03  0.65531826386E+03  0.25500000000E-02 0.  1.
    8880023    1    1    2    0    0  0.28306066275E+03  0.34386598375E+02  0.12232943418E+04  0.14182965239E+04  0.65864270000E+03 0. -1.
    8880022    1    1    2    0    0 -0.28306066275E+03 -0.34386598375E+02 -0.51089434794E+03  0.60473999761E+03  0.15294330000E+03 0.  0.
<mgrwt>
<rscale>  0 0.58810705E+03</rscale>
<asrwt>0</asrwt>
<pdfrwt beam="1">  1        2 0.21041819E+00 0.71771581E+03</pdfrwt>
<pdfrwt beam="2">  1       -2 0.10081820E+00 0.71771581E+03</pdfrwt>
<totfact> 0.12558181E+01</totfact>
</mgrwt>
</event>
<event>
 4    1  0.7280516E-007  0.6624074E+03  0.7818608E-02  0.1021815E+00
         -2   -1    0    0    0  501 -0.00000000000E+00  0.00000000000E+00  0.17660026259E+03  0.17660026261E+03  0.25500000000E-02 0.  1.
          2   -1    0    0  501    0  0.00000000000E+00 -0.00000000000E+00 -0.12987498114E+04  0.12987498114E+04  0.25500000000E-02 0. -1.
    8880023    1    1    2    0    0  0.20252131947E+02 -0.67551266976E+02 -0.11265586333E+04  0.13068733233E+04  0.65864270000E+03 0. -1.
    8880022    1    1    2    0    0 -0.20252131947E+02  0.67551266976E+02  0.44090844507E+01  0.16847675080E+03  0.15294330000E+03 0.  0.
<mgrwt>
<rscale>  0 0.47037223E+03</rscale>
<asrwt>0</asrwt>
<pdfrwt beam="1">  1        2 0.19980766E+00 0.66240737E+03</pdfrwt>
<pdfrwt beam="2">  1       -2 0.27169272E-01 0.66240737E+03</pdfrwt>
<totfact> 0.20773295E+02</totfact>
</mgrwt>
</event>
<event>
 4    1  0.9847542E-007  0.9139721E+03  0.7818608E-02  0.9503964E-01
         -2   -1    0    0    0  501 -0.00000000000E+00  0.00000000000E+00  0.11117448101E+04  0.11117448101E+04  0.25500000000E-02 0.  1.
          2   -1    0    0  501    0  0.00000000000E+00 -0.00000000000E+00 -0.37729576162E+04  0.37729576162E+04  0.25500000000E-02 0. -1.
    8880023    1    1    2    0    0  0.50832442447E+00 -0.63366757916E+03 -0.36153835885E+04  0.37291210167E+04  0.65864270000E+03 0. -1.
    8880022    1    1    2    0    0 -0.50832442447E+00  0.63366757916E+03  0.95417078238E+03  0.11555814096E+04  0.15294330000E+03 0.  0.
<mgrwt>
<rscale>  0 0.83992198E+03</rscale>
<asrwt>0</asrwt>
<pdfrwt beam="1">  1        2 0.58045501E+00 0.91397214E+03</pdfrwt>
<pdfrwt beam="2">  1       -2 0.17103767E+00 0.91397214E+03</pdfrwt>
<totfact> 0.11434449E-01</totfact>
</mgrwt>
</event>
<event>
 4    1  0.7280516E-007  0.9094657E+03  0.7818608E-02  0.9511004E-01
         -2   -1    0    0    0  501 -0.00000000000E+00  0.00000000000E+00  0.57648896977E+03  0.57648896978E+03  0.25500000000E-02 0.  1.
          2   -1    0    0  501    0  0.00000000000E+00 -0.00000000000E+00 -0.26463087873E+04  0.26463087873E+04  0.25500000000E-02 0. -1.
    8880023    1    1    2    0    0  0.22970458523E+03  0.58356950754E+03 -0.23494281983E+04  0.25193135239E+04  0.65864270000E+03 0.  0.
    8880022    1    1    2    0    0 -0.22970458523E+03 -0.58356950754E+03  0.27960838082E+03  0.70348423311E+03  0.15294330000E+03 0.  0.
<mgrwt>
<rscale>  0 0.83477391E+03</rscale>
<asrwt>0</asrwt>
<pdfrwt beam="1">  1        2 0.40712442E+00 0.90946565E+03</pdfrwt>
<pdfrwt beam="2">  1       -2 0.88690612E-01 0.90946565E+03</pdfrwt>
<totfact> 0.32057132E+00</totfact>
</mgrwt>
</event>
<event>
 4    1  0.7280516E-007  0.6592458E+03  0.7818608E-02  0.1024943E+00
         -2   -1    0    0    0  501 -0.00000000000E+00  0.00000000000E+00  0.15916141500E+04  0.15916141500E+04  0.25500000000E-02 0.  1.
          2   -1    0    0  501    0  0.00000000000E+00 -0.00000000000E+00 -0.19376993849E+03  0.19376993850E+03  0.25500000000E-02 0. -1.
    8880023    1    1    2    0    0  0.22948263246E+02  0.16376454526E+02  0.39074223000E+03  0.76634490121E+03  0.65864270000E+03 0. -1.
    8880022    1    1    2    0    0 -0.22948263246E+02 -0.16376454526E+02  0.10071019815E+04  0.10190391873E+04  0.15294330000E+03 0.  0.
<mgrwt>
<rscale>  0 0.45944346E+03</rscale>
<asrwt>0</asrwt>
<pdfrwt beam="1">  1        2 0.29810759E-01 0.65924579E+03</pdfrwt>
<pdfrwt beam="2">  1       -2 0.24486372E+00 0.65924579E+03</pdfrwt>
<totfact> 0.12819044E+01</totfact>
</mgrwt>
</event>
<event>
 4    1  0.7280516E-007  0.7046783E+03  0.7818608E-02  0.9978320E-01
         -2   -1    0    0    0  501 -0.00000000000E+00  0.00000000000E+00  0.12148286541E+04  0.12148286541E+04  0.25500000000E-02 0.  1.
          2   -1    0    0  501    0  0.00000000000E+00 -0.00000000000E+00 -0.46613344483E+03  0.46613344483E+03  0.25500000000E-02 0. -1.
    8880023    1    1    2    0    0  0.11344157546E+03 -0.22336599915E+03 -0.16291355695E+03  0.72326509242E+03  0.65864270000E+03 0. -1.
    8880022    1    1    2    0    0 -0.11344157546E+03  0.22336599915E+03  0.91160876624E+03  0.95769700654E+03  0.15294330000E+03 0.  0.
<mgrwt>
<rscale>  0 0.56611153E+03</rscale>
<asrwt>0</asrwt>
<pdfrwt beam="1">  1        2 0.71712841E-01 0.70467834E+03</pdfrwt>
<pdfrwt beam="2">  1       -2 0.18689671E+00 0.70467834E+03</pdfrwt>
<totfact> 0.11103307E+01</totfact>
</mgrwt>
</event>
<event>
 4    1  0.7280516E-007  0.8286796E+03  0.7818608E-02  0.9651907E-01
         -2   -1    0    0    0  501 -0.00000000000E+00  0.00000000000E+00  0.47098421539E+03  0.47098421540E+03  0.25500000000E-02 0.  1.
          2   -1    0    0  501    0  0.00000000000E+00 -0.00000000000E+00 -0.10584084502E+04  0.10584084502E+04  0.25500000000E-02 0. -1.
    8880023    1    1    2    0    0 -0.31825597395E+03 -0.38937482881E+03 -0.56560858031E+03  0.10033059826E+04  0.65864270000E+03 0. -1.
    8880022    1    1    2    0    0  0.31825597395E+03  0.38937482881E+03 -0.21815654484E+02  0.52608668303E+03  0.15294330000E+03 0.  0.
<mgrwt>
<rscale>  0 0.73953864E+03</rscale>
<asrwt>0</asrwt>
<pdfrwt beam="1">  1        2 0.16283207E+00 0.82867957E+03</pdfrwt>
<pdfrwt beam="2">  1       -2 0.72459110E-01 0.82867957E+03</pdfrwt>
<totfact> 0.40225085E+01</totfact>
</mgrwt>
</event>
<event>
 4    1  0.7280516E-007  0.1367682E+04  0.7818608E-02  0.9009211E-01
         -2   -1    0    0    0  501 -0.00000000000E+00  0.00000000000E+00  0.78784941127E+03  0.78784941127E+03  0.25500000000E-02 0.  1.
          2   -1    0    0  501    0  0.00000000000E+00 -0.00000000000E+00 -0.31670878413E+04  0.31670878413E+04  0.25500000000E-02 0. -1.
    8880023    1    1    2    0    0  0.99193542291E+03 -0.67290917339E+03 -0.95244375796E+02  0.13709939228E+04  0.65864270000E+03 0.  0.
    8880022    1    1    2    0    0 -0.99193542291E+03  0.67290917339E+03 -0.22839940542E+04  0.25839433298E+04  0.15294330000E+03 0.  0.
<mgrwt>
<rscale>  0 0.13259827E+04</rscale>
<asrwt>0</asrwt>
<pdfrwt beam="1">  1        2 0.48724428E+00 0.13676816E+04</pdfrwt>
<pdfrwt beam="2">  1       -2 0.12120760E+00 0.13676816E+04</pdfrwt>
<totfact> 0.68370528E-01</totfact>
</mgrwt>
</event>
<event>
 4    1  0.7280516E-007  0.6693788E+03  0.7818608E-02  0.1016112E+00
         -2   -1    0    0    0  501 -0.00000000000E+00  0.00000000000E+00  0.18463138369E+03  0.18463138371E+03  0.25500000000E-02 0.  1.
          2   -1    0    0  501    0  0.00000000000E+00 -0.00000000000E+00 -0.12493642723E+04  0.12493642723E+04  0.25500000000E-02 0. -1.
    8880023    1    1    2    0    0  0.68279302085E+02 -0.97957443064E+02 -0.10422127413E+04  0.12386586811E+04  0.65864270000E+03 0. -1.
    8880022    1    1    2    0    0 -0.68279302085E+02  0.97957443064E+02 -0.22520147325E+02  0.19533697498E+03  0.15294330000E+03 0.  0.
<mgrwt>
<rscale>  0 0.49116077E+03</rscale>
<asrwt>0</asrwt>
<pdfrwt beam="1">  1        2 0.19220988E+00 0.66937876E+03</pdfrwt>
<pdfrwt beam="2">  1       -2 0.28404829E-01 0.66937876E+03</pdfrwt>
<totfact> 0.20439200E+02</totfact>
</mgrwt>
</event>
<event>
 4    1  0.7280516E-007  0.7861393E+03  0.7818608E-02  0.9741608E-01
         -2   -1    0    0    0  501 -0.00000000000E+00  0.00000000000E+00  0.10281907749E+03  0.10281907752E+03  0.25500000000E-02 0.  1.
          2   -1    0    0  501    0  0.00000000000E+00 -0.00000000000E+00 -0.43220182984E+04  0.43220182984E+04  0.25500000000E-02 0. -1.
    8880023    1    1    2    0    0  0.22320398898E+03 -0.36658530839E+03 -0.33769381464E+04  0.34672361125E+04  0.65864270000E+03 0.  0.
    8880022    1    1    2    0    0 -0.22320398898E+03  0.36658530839E+03 -0.84226107456E+03  0.95760126345E+03  0.15294330000E+03 0.  0.
<mgrwt>
<rscale>  0 0.68592578E+03</rscale>
<asrwt>0</asrwt>
<pdfrwt beam="1">  1        2 0.66492575E+00 0.78613931E+03</pdfrwt>
<pdfrwt beam="2">  1       -2 0.15818323E-01 0.78613931E+03</pdfrwt>
<totfact> 0.64469450E+00</totfact>
</mgrwt>
</event>
<event>
 4    1  0.7280516E-007  0.8316037E+03  0.7818608E-02  0.9646220E-01
          2   -1    0    0  501    0  0.00000000000E+00  0.00000000000E+00  0.70816780198E+03  0.70816780198E+03  0.25500000000E-02 0. -1.
         -2   -1    0    0    0  501 -0.00000000000E+00 -0.00000000000E+00 -0.13257690056E+04  0.13257690056E+04  0.25500000000E-02 0.  1.
    8880023    1    1    2    0    0  0.38325106840E+03  0.33297613528E+03  0.37217132411E+03  0.91108517102E+03  0.65864270000E+03 0. -1.
    8880022    1    1    2    0    0 -0.38325106840E+03 -0.33297613528E+03 -0.98977252777E+03  0.11228516366E+04  0.15294330000E+03 0.  0.
<mgrwt>
<rscale>  0 0.74311122E+03</rscale>
<asrwt>0</asrwt>
<pdfrwt beam="1">  1        2 0.10894889E+00 0.83160369E+03</pdfrwt>
<pdfrwt beam="2">  1       -2 0.20396446E+00 0.83160369E+03</pdfrwt>
<totfact> 0.51165661E+00</totfact>
</mgrwt>
</event>
<event>
 4    1  0.7280516E-007  0.7049927E+03  0.7818608E-02  0.9977088E-01
         -2   -1    0    0    0  501 -0.00000000000E+00  0.00000000000E+00  0.11342823210E+04  0.11342823210E+04  0.25500000000E-02 0.  1.
          2   -1    0    0  501    0  0.00000000000E+00 -0.00000000000E+00 -0.52477162135E+03  0.52477162136E+03  0.25500000000E-02 0. -1.
    8880023    1    1    2    0    0  0.24796959023E+03 -0.41419590091E+02 -0.25199467773E+03  0.74867618100E+03  0.65864270000E+03 0. -1.
    8880022    1    1    2    0    0 -0.24796959023E+03  0.41419590091E+02  0.86150537740E+03  0.91037776139E+03  0.15294330000E+03 0.  0.
<mgrwt>
<rscale>  0 0.56666422E+03</rscale>
<asrwt>0</asrwt>
<pdfrwt beam="1">  1        2 0.80734097E-01 0.70499270E+03</pdfrwt>
<pdfrwt beam="2">  1       -2 0.17450497E+00 0.70499270E+03</pdfrwt>
<totfact> 0.11766271E+01</totfact>
</mgrwt>
</event>
<event>
 4    1  0.7633802E-007  0.7892179E+03  0.7818608E-02  0.9734613E-01
         -2   -1    0    0    0  501 -0.00000000000E+00  0.00000000000E+00  0.88175452673E+03  0.88175452673E+03  0.25500000000E-02 0.  1.
          2   -1    0    0  501    0  0.00000000000E+00 -0.00000000000E+00 -0.16185139291E+04  0.16185139291E+04  0.25500000000E-02 0. -1.
    8880023    1    1    2    0    0 -0.35220911386E+03 -0.25495756072E+03 -0.14501106287E+04  0.16509650691E+04  0.65864270000E+03 0. -1.
    8880022    1    1    2    0    0  0.35220911386E+03  0.25495756072E+03  0.71335122631E+03  0.84930338675E+03  0.15294330000E+03 0.  0.
<mgrwt>
<rscale>  0 0.68992807E+03</rscale>
<asrwt>0</asrwt>
<pdfrwt beam="1">  1        2 0.24900214E+00 0.78921786E+03</pdfrwt>
<pdfrwt beam="2">  1       -2 0.13565454E+00 0.78921786E+03</pdfrwt>
<totfact> 0.43363344E+00</totfact>
</mgrwt>
</event>
<event>
 4    1  0.7280516E-007  0.7872215E+03  0.7818608E-02  0.9739139E-01
          2   -1    0    0  501    0  0.00000000000E+00  0.00000000000E+00  0.16328979543E+04  0.16328979543E+04  0.25500000000E-02 0. -1.
         -2   -1    0    0    0  501 -0.00000000000E+00 -0.00000000000E+00 -0.33235331168E+03  0.33235331169E+03  0.25500000000E-02 0.  1.
    8880023    1    1    2    0    0 -0.34132898190E+03  0.26344271799E+03  0.12856469958E+04  0.15075164821E+04  0.65864270000E+03 0. -1.
    8880022    1    1    2    0    0  0.34132898190E+03 -0.26344271799E+03  0.14897646821E+02  0.45773478396E+03  0.15294330000E+03 0.  0.
<mgrwt>
<rscale>  0 0.68733533E+03</rscale>
<asrwt>0</asrwt>
<pdfrwt beam="1">  1        2 0.25121507E+00 0.78722154E+03</pdfrwt>
<pdfrwt beam="2">  1       -2 0.51131279E-01 0.78722154E+03</pdfrwt>
<totfact> 0.39430403E+01</totfact>
</mgrwt>
</event>
<event>
 4    1  0.7280516E-007  0.1121572E+04  0.7818608E-02  0.9237410E-01
          2   -1    0    0  501    0  0.00000000000E+00  0.00000000000E+00  0.74097161510E+03  0.74097161510E+03  0.25500000000E-02 0. -1.
         -2   -1    0    0    0  501 -0.00000000000E+00 -0.00000000000E+00 -0.14090688925E+04  0.14090688925E+04  0.25500000000E-02 0.  1.
    8880023    1    1    2    0    0  0.41180512544E+03  0.80903035108E+03 -0.32683106910E+03  0.11682218643E+04  0.65864270000E+03 0. -1.
    8880022    1    1    2    0    0 -0.41180512544E+03 -0.80903035108E+03 -0.34126620829E+03  0.98181864325E+03  0.15294330000E+03 0.  1.
<mgrwt>
<rscale>  0 0.10675499E+04</rscale>
<asrwt>0</asrwt>
<pdfrwt beam="1">  1        2 0.11399563E+00 0.11215720E+04</pdfrwt>
<pdfrwt beam="2">  1       -2 0.21677983E+00 0.11215720E+04</pdfrwt>
<totfact> 0.38789853E+00</totfact>
</mgrwt>
</event>
<event>
 4    1  0.7280516E-007  0.6689720E+03  0.7818608E-02  0.1016411E+00
          2   -1    0    0  501    0  0.00000000000E+00  0.00000000000E+00  0.98526722534E+03  0.98526722534E+03  0.25500000000E-02 0. -1.
         -2   -1    0    0    0  501 -0.00000000000E+00 -0.00000000000E+00 -0.28826663507E+03  0.28826663508E+03  0.25500000000E-02 0.  1.
    8880023    1    1    2    0    0  0.40706247392E+01  0.11703290358E+03  0.80974509578E+03  0.10503383250E+04  0.65864270000E+03 0.  0.
    8880022    1    1    2    0    0 -0.40706247392E+01 -0.11703290358E+03 -0.11274450551E+03  0.22319553545E+03  0.15294330000E+03 0.  0.
<mgrwt>
<rscale>  0 0.49004377E+03</rscale>
<asrwt>0</asrwt>
<pdfrwt beam="1">  1        2 0.15157957E+00 0.66897196E+03</pdfrwt>
<pdfrwt beam="2">  1       -2 0.44348714E-01 0.66897196E+03</pdfrwt>
<totfact> 0.12642558E+02</totfact>
</mgrwt>
</event>
<event>
 4    1  0.7280516E-007  0.8645920E+03  0.7818608E-02  0.9585447E-01
          2   -1    0    0  501    0  0.00000000000E+00  0.00000000000E+00  0.18359510507E+04  0.18359510507E+04  0.25500000000E-02 0. -1.
         -2   -1    0    0    0  501 -0.00000000000E+00 -0.00000000000E+00 -0.56588207898E+03  0.56588207898E+03  0.25500000000E-02 0.  1.
    8880023    1    1    2    0    0  0.13369190248E+03 -0.54390768061E+03  0.15364729014E+04  0.17630281543E+04  0.65864270000E+03 0. -1.
    8880022    1    1    2    0    0 -0.13369190248E+03  0.54390768061E+03 -0.26640392968E+03  0.63880497539E+03  0.15294330000E+03 0.  0.
<mgrwt>
<rscale>  0 0.78266942E+03</rscale>
<asrwt>0</asrwt>
<pdfrwt beam="1">  1        2 0.28245400E+00 0.86459198E+03</pdfrwt>
<pdfrwt beam="2">  1       -2 0.87058783E-01 0.86459198E+03</pdfrwt>
<totfact> 0.95475121E+00</totfact>
</mgrwt>
</event>
<event>
 4    1  0.7280516E-007  0.1008307E+04  0.7818608E-02  0.9370769E-01
         -2   -1    0    0    0  501 -0.00000000000E+00  0.00000000000E+00  0.60320330963E+03  0.60320330963E+03  0.25500000000E-02 0.  1.
          2   -1    0    0  501    0  0.00000000000E+00 -0.00000000000E+00 -0.14739899755E+04  0.14739899755E+04  0.25500000000E-02 0. -1.
    8880023    1    1    2    0    0 -0.20747873955E+03  0.73472823447E+03 -0.81512369908E+03  0.12965762056E+04  0.65864270000E+03 0.  0.
    8880022    1    1    2    0    0  0.20747873955E+03 -0.73472823447E+03 -0.55662966752E+02  0.78061707948E+03  0.15294330000E+03 0.  0.
<mgrwt>
<rscale>  0 0.94520803E+03</rscale>
<asrwt>0</asrwt>
<pdfrwt beam="1">  1        2 0.22676769E+00 0.10083071E+04</pdfrwt>
<pdfrwt beam="2">  1       -2 0.92800509E-01 0.10083071E+04</pdfrwt>
<totfact> 0.12862752E+01</totfact>
</mgrwt>
</event>
<event>
 4    1  0.7280516E-007  0.1069595E+04  0.7818608E-02  0.9295689E-01
         -2   -1    0    0    0  501 -0.00000000000E+00  0.00000000000E+00  0.11442223422E+04  0.11442223422E+04  0.25500000000E-02 0.  1.
          2   -1    0    0  501    0  0.00000000000E+00 -0.00000000000E+00 -0.21504061713E+04  0.21504061713E+04  0.25500000000E-02 0. -1.
    8880023    1    1    2    0    0 -0.38946031435E+03 -0.74735739326E+03 -0.18213635868E+04  0.21122021521E+04  0.65864270000E+03 0.  0.
    8880022    1    1    2    0    0  0.38946031435E+03  0.74735739326E+03  0.81517975777E+03  0.11824263614E+04  0.15294330000E+03 0.  0.
<mgrwt>
<rscale>  0 0.10118074E+04</rscale>
<asrwt>0</asrwt>
<pdfrwt beam="1">  1        2 0.33083172E+00 0.10695946E+04</pdfrwt>
<pdfrwt beam="2">  1       -2 0.17603421E+00 0.10695946E+04</pdfrwt>
<totfact> 0.10529548E+00</totfact>
</mgrwt>
</event>
<event>
 4    1  0.7280516E-007  0.1388398E+04  0.7818608E-02  0.8992750E-01
         -2   -1    0    0    0  501 -0.00000000000E+00  0.00000000000E+00  0.17971008047E+04  0.17971008047E+04  0.25500000000E-02 0.  1.
          2   -1    0    0  501    0  0.00000000000E+00 -0.00000000000E+00 -0.17519074167E+04  0.17519074167E+04  0.25500000000E-02 0. -1.
    8880023    1    1    2    0    0  0.90985678157E+03 -0.81608835159E+03 -0.11722794515E+04  0.18171100350E+04  0.65864270000E+03 0.  0.
    8880022    1    1    2    0    0 -0.90985678157E+03  0.81608835159E+03  0.12174728394E+04  0.17318981864E+04  0.15294330000E+03 0.  0.
<mgrwt>
<rscale>  0 0.13474635E+04</rscale>
<asrwt>0</asrwt>
<pdfrwt beam="1">  1        2 0.26952422E+00 0.13883983E+04</pdfrwt>
<pdfrwt beam="2">  1       -2 0.27647705E+00 0.13883983E+04</pdfrwt>
<totfact> 0.38599672E-01</totfact>
</mgrwt>
</event>
<event>
 4    1  0.7280516E-007  0.6990701E+03  0.7818608E-02  0.1000108E+00
         -2   -1    0    0    0  501 -0.00000000000E+00  0.00000000000E+00  0.30075032651E+03  0.30075032652E+03  0.25500000000E-02 0.  1.
          2   -1    0    0  501    0  0.00000000000E+00 -0.00000000000E+00 -0.12007361219E+04  0.12007361219E+04  0.25500000000E-02 0. -1.
    8880023    1    1    2    0    0 -0.52539336643E+02  0.22831646335E+03 -0.98609190766E+03  0.12087498691E+04  0.65864270000E+03 0. -1.
    8880022    1    1    2    0    0  0.52539336643E+02 -0.22831646335E+03  0.86106112250E+02  0.29273657939E+03  0.15294330000E+03 0.  0.
<mgrwt>
<rscale>  0 0.55602869E+03</rscale>
<asrwt>0</asrwt>
<pdfrwt beam="1">  1        2 0.18472863E+00 0.69907009E+03</pdfrwt>
<pdfrwt beam="2">  1       -2 0.46269282E-01 0.69907009E+03</pdfrwt>
<totfact> 0.85506819E+01</totfact>
</mgrwt>
</event>
<event>
 4    1  0.7280516E-007  0.6796779E+03  0.7818608E-02  0.1009506E+00
          2   -1    0    0  501    0  0.00000000000E+00  0.00000000000E+00  0.19104264517E+03  0.19104264519E+03  0.25500000000E-02 0. -1.
         -2   -1    0    0    0  501 -0.00000000000E+00 -0.00000000000E+00 -0.13929903028E+04  0.13929903028E+04  0.25500000000E-02 0.  1.
    8880023    1    1    2    0    0 -0.73700738676E+02  0.15073182822E+03 -0.49307987949E+03  0.83969628840E+03  0.65864270000E+03 0.  0.
    8880022    1    1    2    0    0  0.73700738676E+02 -0.15073182822E+03 -0.70886777809E+03  0.74433665955E+03  0.15294330000E+03 0.  0.
<mgrwt>
<rscale>  0 0.51671272E+03</rscale>
<asrwt>0</asrwt>
<pdfrwt beam="1">  1        2 0.29391177E-01 0.67967793E+03</pdfrwt>
<pdfrwt beam="2">  1       -2 0.21430619E+00 0.67967793E+03</pdfrwt>
<totfact> 0.20060594E+01</totfact>
</mgrwt>
</event>
<event>
 4    1  0.7469587E-007  0.7701756E+03  0.7818608E-02  0.9779442E-01
          2   -1    0    0  501    0  0.00000000000E+00  0.00000000000E+00  0.10570281500E+04  0.10570281500E+04  0.25500000000E-02 0. -1.
         -2   -1    0    0    0  501 -0.00000000000E+00 -0.00000000000E+00 -0.17105291143E+04  0.17105291143E+04  0.25500000000E-02 0.  1.
    8880023    1    1    2    0    0 -0.29872589893E+03 -0.26480770641E+03  0.88358449494E+03  0.11721314133E+04  0.65864270000E+03 0. -1.
    8880022    1    1    2    0    0  0.29872589893E+03  0.26480770641E+03 -0.15370854592E+04  0.15954258510E+04  0.15294330000E+03 0.  0.
<mgrwt>
<rscale>  0 0.66477561E+03</rscale>
<asrwt>0</asrwt>
<pdfrwt beam="1">  1        2 0.16261972E+00 0.77017562E+03</pdfrwt>
<pdfrwt beam="2">  1       -2 0.26315832E+00 0.77017562E+03</pdfrwt>
<totfact> 0.12788222E+00</totfact>
</mgrwt>
</event>
<event>
 4    1  0.7280516E-007  0.7647758E+03  0.7818608E-02  0.9792897E-01
         -2   -1    0    0    0  501 -0.00000000000E+00  0.00000000000E+00  0.70717688720E+03  0.70717688720E+03  0.25500000000E-02 0.  1.
          2   -1    0    0  501    0  0.00000000000E+00 -0.00000000000E+00 -0.10108367918E+04  0.10108367918E+04  0.25500000000E-02 0. -1.
    8880023    1    1    2    0    0  0.25847866224E+03 -0.29027672890E+03 -0.77460418425E+03  0.10885282021E+04  0.65864270000E+03 0. -1.
    8880022    1    1    2    0    0 -0.25847866224E+03  0.29027672890E+03  0.47094427963E+03  0.62948547696E+03  0.15294330000E+03 0.  0.
<mgrwt>
<rscale>  0 0.65745140E+03</rscale>
<asrwt>0</asrwt>
<pdfrwt beam="1">  1        2 0.15551335E+00 0.76477579E+03</pdfrwt>
<pdfrwt beam="2">  1       -2 0.10879644E+00 0.76477579E+03</pdfrwt>
<totfact> 0.16980387E+01</totfact>
</mgrwt>
</event>
<event>
 4    1  0.7280516E-007  0.7318720E+03  0.7818608E-02  0.9884289E-01
          2   -1    0    0  501    0  0.00000000000E+00  0.00000000000E+00  0.16421426919E+04  0.16421426919E+04  0.25500000000E-02 0. -1.
         -2   -1    0    0    0  501 -0.00000000000E+00 -0.00000000000E+00 -0.24228629642E+03  0.24228629644E+03  0.25500000000E-02 0.  1.
    8880023    1    1    2    0    0 -0.15228977194E+03 -0.28041810207E+03  0.13381668865E+04  0.15252302479E+04  0.65864270000E+03 0. -1.
    8880022    1    1    2    0    0  0.15228977194E+03  0.28041810207E+03  0.61689508932E+02  0.35919874044E+03  0.15294330000E+03 0.  0.
<mgrwt>
<rscale>  0 0.61028792E+03</rscale>
<asrwt>0</asrwt>
<pdfrwt beam="1">  1        2 0.25263733E+00 0.73187205E+03</pdfrwt>
<pdfrwt beam="2">  1       -2 0.37274815E-01 0.73187205E+03</pdfrwt>
<totfact> 0.73382287E+01</totfact>
</mgrwt>
</event>
<event>
 4    1  0.7280516E-007  0.1192317E+04  0.7818608E-02  0.9164627E-01
          2   -1    0    0  501    0  0.00000000000E+00  0.00000000000E+00  0.30880437794E+04  0.30880437794E+04  0.25500000000E-02 0. -1.
         -2   -1    0    0    0  501 -0.00000000000E+00 -0.00000000000E+00 -0.57862971489E+03  0.57862971490E+03  0.25500000000E-02 0.  1.
    8880023    1    1    2    0    0  0.21826270958E+03 -0.96962434005E+03  0.23679457012E+04  0.26511859650E+04  0.65864270000E+03 0.  0.
    8880022    1    1    2    0    0 -0.21826270958E+03  0.96962434005E+03  0.14146836331E+03  0.10154875292E+04  0.15294330000E+03 0.  0.
<mgrwt>
<rscale>  0 0.11426114E+04</rscale>
<asrwt>0</asrwt>
<pdfrwt beam="1">  1        2 0.47508366E+00 0.11923171E+04</pdfrwt>
<pdfrwt beam="2">  1       -2 0.89019956E-01 0.11923171E+04</pdfrwt>
<totfact> 0.16511688E+00</totfact>
</mgrwt>
</event>
<event>
 4    1  0.7280516E-007  0.8149841E+03  0.7818608E-02  0.9679287E-01
          2   -1    0    0  501    0  0.00000000000E+00  0.00000000000E+00  0.13846355072E+04  0.13846355072E+04  0.25500000000E-02 0. -1.
         -2   -1    0    0    0  501 -0.00000000000E+00 -0.00000000000E+00 -0.75934092192E+03  0.75934092192E+03  0.25500000000E-02 0.  1.
    8880023    1    1    2    0    0  0.42777943044E+03  0.21770068933E+03  0.11546016295E+04  0.14132600469E+04  0.65864270000E+03 0. -1.
    8880022    1    1    2    0    0 -0.42777943044E+03 -0.21770068933E+03 -0.52930704415E+03  0.73071638222E+03  0.15294330000E+03 0.  0.
<mgrwt>
<rscale>  0 0.72263521E+03</rscale>
<asrwt>0</asrwt>
<pdfrwt beam="1">  1        2 0.21302084E+00 0.81498407E+03</pdfrwt>
<pdfrwt beam="2">  1       -2 0.11682168E+00 0.81498407E+03</pdfrwt>
<totfact> 0.84983783E+00</totfact>
</mgrwt>
</event>
<event>
 4    1  0.7280516E-007  0.8491649E+03  0.7818608E-02  0.9613135E-01
         -2   -1    0    0    0  501 -0.00000000000E+00  0.00000000000E+00  0.25016231826E+03  0.25016231827E+03  0.25500000000E-02 0.  1.
          2   -1    0    0  501    0  0.00000000000E+00 -0.00000000000E+00 -0.27246709833E+04  0.27246709833E+04  0.25500000000E-02 0. -1.
    8880023    1    1    2    0    0  0.53418638531E+03  0.43768117111E+02 -0.21903760071E+04  0.23492185937E+04  0.65864270000E+03 0. -1.
    8880022    1    1    2    0    0 -0.53418638531E+03 -0.43768117111E+02 -0.28413265788E+03  0.62561470780E+03  0.15294330000E+03 0.  0.
<mgrwt>
<rscale>  0 0.76432857E+03</rscale>
<asrwt>0</asrwt>
<pdfrwt beam="1">  1        2 0.41918013E+00 0.84916485E+03</pdfrwt>
<pdfrwt beam="2">  1       -2 0.38486513E-01 0.84916485E+03</pdfrwt>
<totfact> 0.16969850E+01</totfact>
</mgrwt>
</event>
<event>
 4    1  0.1490586E-006  0.1213361E+04  0.7818608E-02  0.9144243E-01
          2   -1    0    0  501    0  0.00000000000E+00  0.00000000000E+00  0.19853782191E+04  0.19853782191E+04  0.25500000000E-02 0. -1.
         -2   -1    0    0    0  501 -0.00000000000E+00 -0.00000000000E+00 -0.23621067652E+04  0.23621067653E+04  0.25500000000E-02 0.  1.
    8880023    1    1    2    0    0  0.61058412179E+02 -0.10172049961E+04  0.16651466554E+04  0.20603295183E+04  0.65864270000E+03 0.  0.
    8880022    1    1    2    0    0 -0.61058412179E+02  0.10172049961E+04 -0.20418752016E+04  0.22871554660E+04  0.15294330000E+03 0.  0.
<mgrwt>
<rscale>  0 0.11647940E+04</rscale>
<asrwt>0</asrwt>
<pdfrwt beam="1">  1        2 0.30544280E+00 0.12133608E+04</pdfrwt>
<pdfrwt beam="2">  1       -2 0.36340104E+00 0.12133608E+04</pdfrwt>
<totfact> 0.85378324E-02</totfact>
</mgrwt>
</event>
<event>
 4    1  0.7280516E-007  0.1100353E+04  0.7818608E-02  0.9260664E-01
         -2   -1    0    0    0  501 -0.00000000000E+00  0.00000000000E+00  0.44038855408E+03  0.44038855409E+03  0.25500000000E-02 0.  1.
          2   -1    0    0  501    0  0.00000000000E+00 -0.00000000000E+00 -0.34571494352E+04  0.34571494352E+04  0.25500000000E-02 0. -1.
    8880023    1    1    2    0    0 -0.75935016031E+03 -0.44760815793E+03 -0.27531269215E+04  0.29648750026E+04  0.65864270000E+03 0.  0.
    8880022    1    1    2    0    0  0.75935016031E+03  0.44760815793E+03 -0.26363395960E+03  0.93266298666E+03  0.15294330000E+03 0.  0.
<mgrwt>
<rscale>  0 0.10448631E+04</rscale>
<asrwt>0</asrwt>
<pdfrwt beam="1">  1        2 0.53186913E+00 0.11003526E+04</pdfrwt>
<pdfrwt beam="2">  1       -2 0.67752087E-01 0.11003526E+04</pdfrwt>
<totfact> 0.17707209E+00</totfact>
</mgrwt>
</event>
<event>
 4    1  0.7280516E-007  0.7716600E+03  0.7818608E-02  0.9775806E-01
          2   -1    0    0  501    0  0.00000000000E+00  0.00000000000E+00  0.23420015172E+04  0.23420015172E+04  0.25500000000E-02 0. -1.
         -2   -1    0    0    0  501 -0.00000000000E+00 -0.00000000000E+00 -0.58271538201E+03  0.58271538201E+03  0.25500000000E-02 0.  1.
    8880023    1    1    2    0    0 -0.34263868059E+03  0.21035118404E+03  0.21863687311E+04  0.23185485375E+04  0.65864270000E+03 0. -1.
    8880022    1    1    2    0    0  0.34263868059E+03 -0.21035118404E+03 -0.42708259589E+03  0.60616836175E+03  0.15294330000E+03 0.  0.
<mgrwt>
<rscale>  0 0.66677274E+03</rscale>
<asrwt>0</asrwt>
<pdfrwt beam="1">  1        2 0.36030792E+00 0.77165996E+03</pdfrwt>
<pdfrwt beam="2">  1       -2 0.89648521E-01 0.77165996E+03</pdfrwt>
<totfact> 0.47649733E+00</totfact>
</mgrwt>
</event>
<event>
 4    1  0.7280516E-007  0.8143992E+03  0.7818608E-02  0.9680485E-01
         -2   -1    0    0    0  501 -0.00000000000E+00  0.00000000000E+00  0.77670746397E+03  0.77670746397E+03  0.25500000000E-02 0.  1.
          2   -1    0    0  501    0  0.00000000000E+00 -0.00000000000E+00 -0.21699819847E+04  0.21699819847E+04  0.25500000000E-02 0. -1.
    8880023    1    1    2    0    0 -0.22136864356E+03  0.42477267512E+03 -0.19995488194E+04  0.21590371903E+04  0.65864270000E+03 0. -1.
    8880022    1    1    2    0    0  0.22136864356E+03 -0.42477267512E+03  0.60627429864E+03  0.78765225835E+03  0.15294330000E+03 0.  0.
<mgrwt>
<rscale>  0 0.72190669E+03</rscale>
<asrwt>0</asrwt>
<pdfrwt beam="1">  1        2 0.33384338E+00 0.81439923E+03</pdfrwt>
<pdfrwt beam="2">  1       -2 0.11949346E+00 0.81439923E+03</pdfrwt>
<totfact> 0.29656882E+00</totfact>
</mgrwt>
</event>
<event>
 4    1  0.7280516E-007  0.7219114E+03  0.7818608E-02  0.9916171E-01
         -2   -1    0    0    0  501 -0.00000000000E+00  0.00000000000E+00  0.10594775571E+03  0.10594775574E+03  0.25500000000E-02 0.  1.
          2   -1    0    0  501    0  0.00000000000E+00 -0.00000000000E+00 -0.27749479991E+04  0.27749479991E+04  0.25500000000E-02 0. -1.
    8880023    1    1    2    0    0  0.14112249801E+03 -0.25967350618E+03 -0.21130060353E+04  0.22329242264E+04  0.65864270000E+03 0. -1.
    8880022    1    1    2    0    0 -0.14112249801E+03  0.25967350618E+03 -0.55599420805E+03  0.64797152842E+03  0.15294330000E+03 0.  1.
<mgrwt>
<rscale>  0 0.59483949E+03</rscale>
<asrwt>0</asrwt>
<pdfrwt beam="1">  1        2 0.42691502E+00 0.72191142E+03</pdfrwt>
<pdfrwt beam="2">  1       -2 0.16299657E-01 0.72191142E+03</pdfrwt>
<totfact> 0.76548579E+01</totfact>
</mgrwt>
</event>
<event>
 4    1  0.7280516E-007  0.6962491E+03  0.7818608E-02  0.1001313E+00
          2   -1    0    0  501    0  0.00000000000E+00  0.00000000000E+00  0.47201561457E+03  0.47201561457E+03  0.25500000000E-02 0. -1.
         -2   -1    0    0    0  501 -0.00000000000E+00 -0.00000000000E+00 -0.54741918854E+03  0.54741918854E+03  0.25500000000E-02 0.  1.
    8880023    1    1    2    0    0  0.22500275848E+03  0.18067141841E+02  0.87640930772E+02  0.70174340178E+03  0.65864270000E+03 0. -1.
    8880022    1    1    2    0    0 -0.22500275848E+03 -0.18067141841E+02 -0.16304450474E+03  0.31769140133E+03  0.15294330000E+03 0.  1.
<mgrwt>
<rscale>  0 0.55078167E+03</rscale>
<asrwt>0</asrwt>
<pdfrwt beam="1">  1        2 0.72617787E-01 0.69624914E+03</pdfrwt>
<pdfrwt beam="2">  1       -2 0.84218337E-01 0.69624914E+03</pdfrwt>
<totfact> 0.82162882E+01</totfact>
</mgrwt>
</event>
<event>
 4    1  0.7280516E-007  0.6872372E+03  0.7818608E-02  0.1005494E+00
         -2   -1    0    0    0  501 -0.00000000000E+00  0.00000000000E+00  0.24114456046E+04  0.24114456046E+04  0.25500000000E-02 0.  1.
          2   -1    0    0  501    0  0.00000000000E+00 -0.00000000000E+00 -0.17502286318E+03  0.17502286320E+03  0.25500000000E-02 0. -1.
    8880023    1    1    2    0    0  0.53456958578E+02 -0.18875162921E+03  0.54569770927E+03  0.87754260302E+03  0.65864270000E+03 0. -1.
    8880022    1    1    2    0    0 -0.53456958578E+02  0.18875162921E+03  0.16907250321E+04  0.17089258647E+04  0.15294330000E+03 0.  0.
<mgrwt>
<rscale>  0 0.53305339E+03</rscale>
<asrwt>0</asrwt>
<pdfrwt beam="1">  1        2 0.26926594E-01 0.68723724E+03</pdfrwt>
<pdfrwt beam="2">  1       -2 0.37099164E+00 0.68723724E+03</pdfrwt>
<totfact> 0.24543982E+00</totfact>
</mgrwt>
</event>
<event>
 4    1  0.7280516E-007  0.9116320E+03  0.7818608E-02  0.9507611E-01
         -2   -1    0    0    0  501 -0.00000000000E+00  0.00000000000E+00  0.39065436010E+03  0.39065436011E+03  0.25500000000E-02 0.  1.
          2   -1    0    0  501    0  0.00000000000E+00 -0.00000000000E+00 -0.30245537401E+04  0.30245537401E+04  0.25500000000E-02 0. -1.
    8880023    1    1    2    0    0  0.59251834896E+03  0.21490616067E+03 -0.26117173169E+04  0.27662502059E+04  0.65864270000E+03 0.  0.
    8880022    1    1    2    0    0 -0.59251834896E+03 -0.21490616067E+03 -0.22182063124E+02  0.64895789438E+03  0.15294330000E+03 0.  0.
<mgrwt>
<rscale>  0 0.83725033E+03</rscale>
<asrwt>0</asrwt>
<pdfrwt beam="1">  1        2 0.46531595E+00 0.91163198E+03</pdfrwt>
<pdfrwt beam="2">  1       -2 0.60100673E-01 0.91163198E+03</pdfrwt>
<totfact> 0.44975707E+00</totfact>
</mgrwt>
</event>
<event>
 4    1  0.7280516E-007  0.6917895E+03  0.7818608E-02  0.1003313E+00
         -2   -1    0    0    0  501 -0.00000000000E+00  0.00000000000E+00  0.11262055193E+04  0.11262055193E+04  0.25500000000E-02 0.  1.
          2   -1    0    0  501    0  0.00000000000E+00 -0.00000000000E+00 -0.32452443853E+03  0.32452443854E+03  0.25500000000E-02 0. -1.
    8880023    1    1    2    0    0  0.16949029247E+03 -0.12663126688E+03  0.96139179685E+02  0.69843781765E+03  0.65864270000E+03 0. -1.
    8880022    1    1    2    0    0 -0.16949029247E+03  0.12663126688E+03  0.70554190106E+03  0.75229214016E+03  0.15294330000E+03 0.  0.
<mgrwt>
<rscale>  0 0.54220927E+03</rscale>
<asrwt>0</asrwt>
<pdfrwt beam="1">  1        2 0.49926835E-01 0.69178945E+03</pdfrwt>
<pdfrwt beam="2">  1       -2 0.17326239E+00 0.69178945E+03</pdfrwt>
<totfact> 0.20714120E+01</totfact>
</mgrwt>
</event>
<event>
 4    1  0.7280516E-007  0.7541125E+03  0.7818608E-02  0.9820595E-01
         -2   -1    0    0    0  501 -0.00000000000E+00  0.00000000000E+00  0.45399496060E+03  0.45399496061E+03  0.25500000000E-02 0.  1.
          2   -1    0    0  501    0  0.00000000000E+00 -0.00000000000E+00 -0.85992168412E+03  0.85992168412E+03  0.25500000000E-02 0. -1.
    8880023    1    1    2    0    0  0.29438778844E+03  0.21957081750E+03 -0.50038900134E+03  0.90502755362E+03  0.65864270000E+03 0.  0.
    8880022    1    1    2    0    0 -0.29438778844E+03 -0.21957081750E+03  0.94462277827E+02  0.40888909111E+03  0.15294330000E+03 0.  0.
<mgrwt>
<rscale>  0 0.64268916E+03</rscale>
<asrwt>0</asrwt>
<pdfrwt beam="1">  1        2 0.13229564E+00 0.75411254E+03</pdfrwt>
<pdfrwt beam="2">  1       -2 0.69845379E-01 0.75411254E+03</pdfrwt>
<totfact> 0.59141855E+01</totfact>
</mgrwt>
</event>
<event>
 4    1  0.7280516E-007  0.6876610E+03  0.7818608E-02  0.1005285E+00
         -2   -1    0    0    0  501 -0.00000000000E+00  0.00000000000E+00  0.42386869567E+03  0.42386869568E+03  0.25500000000E-02 0.  1.
          2   -1    0    0  501    0  0.00000000000E+00 -0.00000000000E+00 -0.69098686184E+03  0.69098686185E+03  0.25500000000E-02 0. -1.
    8880023    1    1    2    0    0  0.18227232328E+03  0.76447864155E+02  0.74385492911E+02  0.69167252626E+03  0.65864270000E+03 0.  1.
    8880022    1    1    2    0    0 -0.18227232328E+03 -0.76447864155E+02 -0.34150365908E+03  0.42318303127E+03  0.15294330000E+03 0.  0.
<mgrwt>
<rscale>  0 0.53392505E+03</rscale>
<asrwt>0</asrwt>
<pdfrwt beam="1">  1        2 0.10630567E+00 0.68766102E+03</pdfrwt>
<pdfrwt beam="2">  1       -2 0.65210569E-01 0.68766102E+03</pdfrwt>
<totfact> 0.91759043E+01</totfact>
</mgrwt>
</event>
<event>
 4    1  0.7280516E-007  0.8431046E+03  0.7818608E-02  0.9624354E-01
         -2   -1    0    0    0  501 -0.00000000000E+00  0.00000000000E+00  0.27867945190E+03  0.27867945191E+03  0.25500000000E-02 0.  1.
          2   -1    0    0  501    0  0.00000000000E+00 -0.00000000000E+00 -0.24840349780E+04  0.24840349780E+04  0.25500000000E-02 0. -1.
    8880023    1    1    2    0    0 -0.48395021129E+03 -0.20689952927E+03 -0.20120142077E+04  0.21815193330E+04  0.65864270000E+03 0.  0.
    8880022    1    1    2    0    0  0.48395021129E+03  0.20689952927E+03 -0.19334131842E+03  0.58119509689E+03  0.15294330000E+03 0.  0.
<mgrwt>
<rscale>  0 0.75705048E+03</rscale>
<asrwt>0</asrwt>
<pdfrwt beam="1">  1        2 0.38215921E+00 0.84310464E+03</pdfrwt>
<pdfrwt beam="2">  1       -2 0.42873763E-01 0.84310464E+03</pdfrwt>
<totfact> 0.18921696E+01</totfact>
</mgrwt>
</event>
<event>
 4    1  0.7280516E-007  0.7666080E+03  0.7818608E-02  0.9788291E-01
         -2   -1    0    0    0  501 -0.00000000000E+00  0.00000000000E+00  0.33019828475E+03  0.33019828476E+03  0.25500000000E-02 0.  1.
          2   -1    0    0  501    0  0.00000000000E+00 -0.00000000000E+00 -0.17586239616E+04  0.17586239616E+04  0.25500000000E-02 0. -1.
    8880023    1    1    2    0    0  0.17890443111E+03  0.34909992206E+03 -0.14778967027E+04  0.16648923152E+04  0.65864270000E+03 0. -1.
    8880022    1    1    2    0    0 -0.17890443111E+03 -0.34909992206E+03  0.49471025946E+02  0.42392993109E+03  0.15294330000E+03 0.  0.
<mgrwt>
<rscale>  0 0.65994714E+03</rscale>
<asrwt>0</asrwt>
<pdfrwt beam="1">  1        2 0.27055753E+00 0.76660796E+03</pdfrwt>
<pdfrwt beam="2">  1       -2 0.50799737E-01 0.76660796E+03</pdfrwt>
<totfact> 0.34173217E+01</totfact>
</mgrwt>
</event>
<event>
 4    1  0.7280516E-007  0.7473894E+03  0.7818608E-02  0.9838923E-01
         -2   -1    0    0    0  501 -0.00000000000E+00  0.00000000000E+00  0.37961643737E+03  0.37961643738E+03  0.25500000000E-02 0.  1.
          2   -1    0    0  501    0  0.00000000000E+00 -0.00000000000E+00 -0.18346959768E+04  0.18346959768E+04  0.25500000000E-02 0. -1.
    8880023    1    1    2    0    0  0.34194293929E+03  0.88632320030E+02 -0.16287301559E+04  0.17920247735E+04  0.65864270000E+03 0. -1.
    8880022    1    1    2    0    0 -0.34194293929E+03 -0.88632320030E+02  0.17365061643E+03  0.42228764070E+03  0.15294330000E+03 0.  0.
<mgrwt>
<rscale>  0 0.63314921E+03</rscale>
<asrwt>0</asrwt>
<pdfrwt beam="1">  1        2 0.28226092E+00 0.74738937E+03</pdfrwt>
<pdfrwt beam="2">  1       -2 0.58402530E-01 0.74738937E+03</pdfrwt>
<totfact> 0.23320988E+01</totfact>
</mgrwt>
</event>
<event>
 4    1  0.7280516E-007  0.8358967E+03  0.7818608E-02  0.9637966E-01
         -2   -1    0    0    0  501 -0.00000000000E+00  0.00000000000E+00  0.61084238280E+03  0.61084238281E+03  0.25500000000E-02 0.  1.
          2   -1    0    0  501    0  0.00000000000E+00 -0.00000000000E+00 -0.11083564887E+04  0.11083564887E+04  0.25500000000E-02 0. -1.
    8880023    1    1    2    0    0  0.34614162302E+03  0.38091876635E+03 -0.75256949584E+03  0.11247596108E+04  0.65864270000E+03 0.  0.
    8880022    1    1    2    0    0 -0.34614162302E+03 -0.38091876635E+03  0.25505538993E+03  0.59443926072E+03  0.15294330000E+03 0.  0.
<mgrwt>
<rscale>  0 0.74833481E+03</rscale>
<asrwt>0</asrwt>
<pdfrwt beam="1">  1        2 0.17051638E+00 0.83589673E+03</pdfrwt>
<pdfrwt beam="2">  1       -2 0.93975751E-01 0.83589673E+03</pdfrwt>
<totfact> 0.20763878E+01</totfact>
</mgrwt>
</event>
<event>
 4    1  0.7280516E-007  0.8391991E+03  0.7818608E-02  0.9631692E-01
         -2   -1    0    0    0  501 -0.00000000000E+00  0.00000000000E+00  0.86968861574E+03  0.86968861574E+03  0.25500000000E-02 0.  1.
          2   -1    0    0  501    0  0.00000000000E+00 -0.00000000000E+00 -0.10570169461E+04  0.10570169462E+04  0.25500000000E-02 0. -1.
    8880023    1    1    2    0    0  0.28168833619E+03  0.43714595130E+03 -0.76427120795E+03  0.11350619309E+04  0.65864270000E+03 0. -1.
    8880022    1    1    2    0    0 -0.28168833619E+03 -0.43714595130E+03  0.57694287755E+03  0.79164363096E+03  0.15294330000E+03 0.  0.
<mgrwt>
<rscale>  0 0.75233624E+03</rscale>
<asrwt>0</asrwt>
<pdfrwt beam="1">  1        2 0.16261799E+00 0.83919909E+03</pdfrwt>
<pdfrwt beam="2">  1       -2 0.13379825E+00 0.83919909E+03</pdfrwt>
<totfact> 0.94257125E+00</totfact>
</mgrwt>
</event>
<event>
 4    1  0.7280516E-007  0.7537064E+03  0.7818608E-02  0.9821682E-01
         -2   -1    0    0    0  501 -0.00000000000E+00  0.00000000000E+00  0.11598714452E+04  0.11598714452E+04  0.25500000000E-02 0.  1.
          2   -1    0    0  501    0  0.00000000000E+00 -0.00000000000E+00 -0.89828066131E+03  0.89828066132E+03  0.25500000000E-02 0. -1.
    8880023    1    1    2    0    0  0.20433077653E+03  0.30415787523E+03 -0.69325035050E+03  0.10240455722E+04  0.65864270000E+03 0. -1.
    8880022    1    1    2    0    0 -0.20433077653E+03 -0.30415787523E+03  0.95484113437E+03  0.10341065343E+04  0.15294330000E+03 0.  0.
<mgrwt>
<rscale>  0 0.64211825E+03</rscale>
<asrwt>0</asrwt>
<pdfrwt beam="1">  1        2 0.13819703E+00 0.75370637E+03</pdfrwt>
<pdfrwt beam="2">  1       -2 0.17844176E+00 0.75370637E+03</pdfrwt>
<totfact> 0.55716984E+00</totfact>
</mgrwt>
</event>
<event>
 4    1  0.7280516E-007  0.8057208E+03  0.7818608E-02  0.9698560E-01
          2   -1    0    0  501    0  0.00000000000E+00  0.00000000000E+00  0.11167114806E+04  0.11167114806E+04  0.25500000000E-02 0. -1.
         -2   -1    0    0    0  501 -0.00000000000E+00 -0.00000000000E+00 -0.97689611776E+03  0.97689611776E+03  0.25500000000E-02 0.  1.
    8880023    1    1    2    0    0 -0.27613537877E+03  0.37299469526E+03  0.88859494099E+03  0.11994944625E+04  0.65864270000E+03 0. -1.
    8880022    1    1    2    0    0  0.27613537877E+03 -0.37299469526E+03 -0.74877957815E+03  0.89411313589E+03  0.15294330000E+03 0.  0.
<mgrwt>
<rscale>  0 0.71102573E+03</rscale>
<asrwt>0</asrwt>
<pdfrwt beam="1">  1        2 0.17180177E+00 0.80572079E+03</pdfrwt>
<pdfrwt beam="2">  1       -2 0.15029171E+00 0.80572079E+03</pdfrwt>
<totfact> 0.64229501E+00</totfact>
</mgrwt>
</event>
<event>
 4    1  0.7280516E-007  0.7465978E+03  0.7818608E-02  0.9841129E-01
          2   -1    0    0  501    0  0.00000000000E+00  0.00000000000E+00  0.13638791353E+04  0.13638791353E+04  0.25500000000E-02 0. -1.
         -2   -1    0    0    0  501 -0.00000000000E+00 -0.00000000000E+00 -0.42708145405E+03  0.42708145406E+03  0.25500000000E-02 0.  1.
    8880023    1    1    2    0    0  0.22358803895E+03  0.27130513862E+03  0.11356369877E+04  0.13590730898E+04  0.65864270000E+03 0. -1.
    8880022    1    1    2    0    0 -0.22358803895E+03 -0.27130513862E+03 -0.19883930648E+03  0.43188749950E+03  0.15294330000E+03 0.  0.
<mgrwt>
<rscale>  0 0.63201286E+03</rscale>
<asrwt>0</asrwt>
<pdfrwt beam="1">  1        2 0.20982756E+00 0.74659781E+03</pdfrwt>
<pdfrwt beam="2">  1       -2 0.65704839E-01 0.74659781E+03</pdfrwt>
<totfact> 0.33065804E+01</totfact>
</mgrwt>
</event>
<event>
 4    1  0.7280516E-007  0.6676651E+03  0.7818608E-02  0.1017395E+00
         -2   -1    0    0    0  501 -0.00000000000E+00  0.00000000000E+00  0.39859857314E+03  0.39859857315E+03  0.25500000000E-02 0.  1.
          2   -1    0    0  501    0  0.00000000000E+00 -0.00000000000E+00 -0.90823891191E+03  0.90823891191E+03  0.25500000000E-02 0. -1.
    8880023    1    1    2    0    0  0.10332287714E+02 -0.10890237676E+03 -0.74839163867E+03  0.10029290777E+04  0.65864270000E+03 0. -1.
    8880022    1    1    2    0    0 -0.10332287714E+02  0.10890237676E+03  0.23875129990E+03  0.30390840734E+03  0.15294330000E+03 0.  0.
<mgrwt>
<rscale>  0 0.48638501E+03</rscale>
<asrwt>0</asrwt>
<pdfrwt beam="1">  1        2 0.13972906E+00 0.66766510E+03</pdfrwt>
<pdfrwt beam="2">  1       -2 0.61322858E-01 0.66766510E+03</pdfrwt>
<totfact> 0.73059438E+01</totfact>
</mgrwt>
</event>
<event>
 4    1  0.7280516E-007  0.7728611E+03  0.7818608E-02  0.9772882E-01
         -2   -1    0    0    0  501 -0.00000000000E+00  0.00000000000E+00  0.29161732014E+03  0.29161732015E+03  0.25500000000E-02 0.  1.
          2   -1    0    0  501    0  0.00000000000E+00 -0.00000000000E+00 -0.17872939914E+04  0.17872939914E+04  0.25500000000E-02 0. -1.
    8880023    1    1    2    0    0  0.13670686282E+03  0.38054602902E+03 -0.14513856182E+04  0.16443340492E+04  0.65864270000E+03 0.  0.
    8880022    1    1    2    0    0 -0.13670686282E+03 -0.38054602902E+03 -0.44291053093E+02  0.43457726234E+03  0.15294330000E+03 0.  0.
<mgrwt>
<rscale>  0 0.66838392E+03</rscale>
<asrwt>0</asrwt>
<pdfrwt beam="1">  1        2 0.27496830E+00 0.77286108E+03</pdfrwt>
<pdfrwt beam="2">  1       -2 0.44864204E-01 0.77286108E+03</pdfrwt>
<totfact> 0.42325471E+01</totfact>
</mgrwt>
</event>
<event>
 4    1  0.7280516E-007  0.7115079E+03  0.7818608E-02  0.9952444E-01
         -2   -1    0    0    0  501 -0.00000000000E+00  0.00000000000E+00  0.47697367573E+03  0.47697367574E+03  0.25500000000E-02 0.  1.
          2   -1    0    0  501    0  0.00000000000E+00 -0.00000000000E+00 -0.61203976459E+03  0.61203976459E+03  0.25500000000E-02 0. -1.
    8880023    1    1    2    0    0  0.20083317726E+03  0.17916285455E+03 -0.25672787682E+03  0.75640776208E+03  0.65864270000E+03 0. -1.
    8880022    1    1    2    0    0 -0.20083317726E+03 -0.17916285455E+03  0.12166178796E+03  0.33260567825E+03  0.15294330000E+03 0. -1.
<mgrwt>
<rscale>  0 0.57785599E+03</rscale>
<asrwt>0</asrwt>
<pdfrwt beam="1">  1        2 0.94159964E-01 0.71150791E+03</pdfrwt>
<pdfrwt beam="2">  1       -2 0.73380566E-01 0.71150791E+03</pdfrwt>
<totfact> 0.82293638E+01</totfact>
</mgrwt>
</event>
<event>
 4    1  0.7280516E-007  0.7825732E+03  0.7818608E-02  0.9749827E-01
         -2   -1    0    0    0  501 -0.00000000000E+00  0.00000000000E+00  0.17974262880E+04  0.17974262880E+04  0.25500000000E-02 0.  1.
          2   -1    0    0  501    0  0.00000000000E+00 -0.00000000000E+00 -0.75677332776E+03  0.75677332776E+03  0.25500000000E-02 0. -1.
    8880023    1    1    2    0    0 -0.41293474097E+03  0.89974961374E+02 -0.51373834391E+03  0.93613454494E+03  0.65864270000E+03 0. -1.
    8880022    1    1    2    0    0  0.41293474097E+03 -0.89974961374E+02  0.15543913041E+04  0.16180650708E+04  0.15294330000E+03 0.  0.
<mgrwt>
<rscale>  0 0.68126056E+03</rscale>
<asrwt>0</asrwt>
<pdfrwt beam="1">  1        2 0.11642667E+00 0.78257319E+03</pdfrwt>
<pdfrwt beam="2">  1       -2 0.27652712E+00 0.78257319E+03</pdfrwt>
<totfact> 0.16916637E+00</totfact>
</mgrwt>
</event>
<event>
 4    1  0.7280516E-007  0.7086762E+03  0.7818608E-02  0.9962950E-01
         -2   -1    0    0    0  501 -0.00000000000E+00  0.00000000000E+00  0.27433310628E+03  0.27433310629E+03  0.25500000000E-02 0.  1.
          2   -1    0    0  501    0  0.00000000000E+00 -0.00000000000E+00 -0.30351994264E+04  0.30351994264E+04  0.25500000000E-02 0. -1.
    8880023    1    1    2    0    0  0.69615735090E+01  0.26146366866E+03 -0.28933269927E+04  0.29788526326E+04  0.65864270000E+03 0. -1.
    8880022    1    1    2    0    0 -0.69615735090E+01 -0.26146366866E+03  0.13246067261E+03  0.33067990011E+03  0.15294330000E+03 0.  0.
<mgrwt>
<rscale>  0 0.57305090E+03</rscale>
<asrwt>0</asrwt>
<pdfrwt beam="1">  1        2 0.46695373E+00 0.70867617E+03</pdfrwt>
<pdfrwt beam="2">  1       -2 0.42205095E-01 0.70867617E+03</pdfrwt>
<totfact> 0.94453162E+00</totfact>
</mgrwt>
</event>
<event>
 4    1  0.7280516E-007  0.7474837E+03  0.7818608E-02  0.9838660E-01
          2   -1    0    0  501    0  0.00000000000E+00  0.00000000000E+00  0.45718997842E+03  0.45718997843E+03  0.25500000000E-02 0. -1.
         -2   -1    0    0    0  501 -0.00000000000E+00 -0.00000000000E+00 -0.79652444348E+03  0.79652444348E+03  0.25500000000E-02 0.  1.
    8880023    1    1    2    0    0  0.75186497247E+02 -0.34535302811E+03 -0.10889902182E+02  0.74756305395E+03  0.65864270000E+03 0. -1.
    8880022    1    1    2    0    0 -0.75186497247E+02  0.34535302811E+03 -0.32844456287E+03  0.50615136796E+03  0.15294330000E+03 0.  0.
<mgrwt>
<rscale>  0 0.63328449E+03</rscale>
<asrwt>0</asrwt>
<pdfrwt beam="1">  1        2 0.70336920E-01 0.74748373E+03</pdfrwt>
<pdfrwt beam="2">  1       -2 0.12254222E+00 0.74748373E+03</pdfrwt>
<totfact> 0.34834218E+01</totfact>
</mgrwt>
</event>
<event>
 4    1  0.7280516E-007  0.7566262E+03  0.7818608E-02  0.9813922E-01
         -2   -1    0    0    0  501 -0.00000000000E+00  0.00000000000E+00  0.60438410448E+03  0.60438410449E+03  0.25500000000E-02 0.  1.
          2   -1    0    0  501    0  0.00000000000E+00 -0.00000000000E+00 -0.77366946760E+03  0.77366946760E+03  0.25500000000E-02 0. -1.
    8880023    1    1    2    0    0  0.16644977246E+03 -0.33311771817E+03 -0.45636797924E+03  0.88360334972E+03  0.65864270000E+03 0.  0.
    8880022    1    1    2    0    0 -0.16644977246E+03  0.33311771817E+03  0.28708261612E+03  0.49445022237E+03  0.15294330000E+03 0.  0.
<mgrwt>
<rscale>  0 0.64620756E+03</rscale>
<asrwt>0</asrwt>
<pdfrwt beam="1">  1        2 0.11902607E+00 0.75662616E+03</pdfrwt>
<pdfrwt beam="2">  1       -2 0.92982170E-01 0.75662616E+03</pdfrwt>
<totfact> 0.35749383E+01</totfact>
</mgrwt>
</event>
<event>
 4    1  0.7280516E-007  0.9909275E+03  0.7818608E-02  0.9393525E-01
         -2   -1    0    0    0  501 -0.00000000000E+00  0.00000000000E+00  0.35836165536E+03  0.35836165536E+03  0.25500000000E-02 0.  1.
          2   -1    0    0  501    0  0.00000000000E+00 -0.00000000000E+00 -0.27382053650E+04  0.27382053650E+04  0.25500000000E-02 0. -1.
    8880023    1    1    2    0    0 -0.67439091562E+03  0.30548977386E+03 -0.20395258754E+04  0.22675103333E+04  0.65864270000E+03 0.  1.
    8880022    1    1    2    0    0  0.67439091562E+03 -0.30548977386E+03 -0.34031783421E+03  0.82905668702E+03  0.15294330000E+03 0.  0.
<mgrwt>
<rscale>  0 0.92610499E+03</rscale>
<asrwt>0</asrwt>
<pdfrwt beam="1">  1        2 0.42126235E+00 0.99092750E+03</pdfrwt>
<pdfrwt beam="2">  1       -2 0.55132564E-01 0.99092750E+03</pdfrwt>
<totfact> 0.79347877E+00</totfact>
</mgrwt>
</event>
<event>
 4    1  0.7280516E-007  0.7643853E+03  0.7818608E-02  0.9793884E-01
          2   -1    0    0  501    0  0.00000000000E+00  0.00000000000E+00  0.14084064851E+04  0.14084064851E+04  0.25500000000E-02 0. -1.
         -2   -1    0    0    0  501 -0.00000000000E+00 -0.00000000000E+00 -0.25842074108E+03  0.25842074109E+03  0.25500000000E-02 0.  1.
    8880023    1    1    2    0    0  0.30829629782E+03 -0.23543173014E+03  0.89943791972E+03  0.11803700625E+04  0.65864270000E+03 0. -1.
    8880022    1    1    2    0    0 -0.30829629782E+03  0.23543173014E+03  0.25054782428E+03  0.48645716366E+03  0.15294330000E+03 0.  0.
<mgrwt>
<rscale>  0 0.65691805E+03</rscale>
<asrwt>0</asrwt>
<pdfrwt beam="1">  1        2 0.21667792E+00 0.76438532E+03</pdfrwt>
<pdfrwt beam="2">  1       -2 0.39757038E-01 0.76438532E+03</pdfrwt>
<totfact> 0.87080968E+01</totfact>
</mgrwt>
</event>
<event>
 4    1  0.7280516E-007  0.6592922E+03  0.7818608E-02  0.1024894E+00
         -2   -1    0    0    0  501 -0.00000000000E+00  0.00000000000E+00  0.20688392255E+04  0.20688392255E+04  0.25500000000E-02 0.  1.
          2   -1    0    0  501    0  0.00000000000E+00 -0.00000000000E+00 -0.12864672488E+03  0.12864672491E+03  0.25500000000E-02 0. -1.
    8880023    1    1    2    0    0 -0.29176655514E+02  0.21676075126E+01  0.75598743826E+03  0.10030868302E+04  0.65864270000E+03 0. -1.
    8880022    1    1    2    0    0  0.29176655514E+02 -0.21676075126E+01  0.11842050623E+04  0.11943991202E+04  0.15294330000E+03 0.  0.
<mgrwt>
<rscale>  0 0.45961279E+03</rscale>
<asrwt>0</asrwt>
<pdfrwt beam="1">  1        2 0.19791807E-01 0.65929218E+03</pdfrwt>
<pdfrwt beam="2">  1       -2 0.31828291E+00 0.65929218E+03</pdfrwt>
<totfact> 0.74489763E+00</totfact>
</mgrwt>
</event>
<event>
 4    1  0.7280516E-007  0.1054436E+04  0.7818608E-02  0.9313567E-01
          2   -1    0    0  501    0  0.00000000000E+00  0.00000000000E+00  0.10572784142E+04  0.10572784142E+04  0.25500000000E-02 0. -1.
         -2   -1    0    0    0  501 -0.00000000000E+00 -0.00000000000E+00 -0.17029030725E+04  0.17029030725E+04  0.25500000000E-02 0.  1.
    8880023    1    1    2    0    0 -0.41049682516E+01 -0.82341317661E+03  0.63435986386E+03  0.12305481516E+04  0.65864270000E+03 0.  1.
    8880022    1    1    2    0    0  0.41049682516E+01  0.82341317661E+03 -0.12799845222E+04  0.15296333352E+04  0.15294330000E+03 0.  0.
<mgrwt>
<rscale>  0 0.99543387E+03</rscale>
<asrwt>0</asrwt>
<pdfrwt beam="1">  1        2 0.16265822E+00 0.10544365E+04</pdfrwt>
<pdfrwt beam="2">  1       -2 0.26198509E+00 0.10544365E+04</pdfrwt>
<totfact> 0.12457066E+00</totfact>
</mgrwt>
</event>
<event>
 4    1  0.7280516E-007  0.1235357E+04  0.7818608E-02  0.9123496E-01
         -2   -1    0    0    0  501 -0.00000000000E+00  0.00000000000E+00  0.10872191159E+04  0.10872191159E+04  0.25500000000E-02 0.  1.
          2   -1    0    0  501    0  0.00000000000E+00 -0.00000000000E+00 -0.22111456065E+04  0.22111456065E+04  0.25500000000E-02 0. -1.
    8880023    1    1    2    0    0  0.10410345033E+04  0.92436201610E+02 -0.16951544389E+04  0.20975357128E+04  0.65864270000E+03 0. -1.
    8880022    1    1    2    0    0 -0.10410345033E+04 -0.92436201610E+02  0.57122794826E+03  0.12008290096E+04  0.15294330000E+03 0.  0.
<mgrwt>
<rscale>  0 0.11879203E+04</rscale>
<asrwt>0</asrwt>
<pdfrwt beam="1">  1        2 0.34017625E+00 0.12353572E+04</pdfrwt>
<pdfrwt beam="2">  1       -2 0.16726448E+00 0.12353572E+04</pdfrwt>
<totfact> 0.11002192E+00</totfact>
</mgrwt>
</event>
<event>
 4    1  0.7280516E-007  0.6901001E+03  0.7818608E-02  0.1004105E+00
         -2   -1    0    0    0  501 -0.00000000000E+00  0.00000000000E+00  0.68678979918E+03  0.68678979919E+03  0.25500000000E-02 0.  1.
          2   -1    0    0  501    0  0.00000000000E+00 -0.00000000000E+00 -0.91054515280E+03  0.91054515280E+03  0.25500000000E-02 0. -1.
    8880023    1    1    2    0    0  0.20275117476E+03  0.36329583565E+02 -0.74552902237E+03  0.10158994079E+04  0.65864270000E+03 0. -1.
    8880022    1    1    2    0    0 -0.20275117476E+03 -0.36329583565E+02  0.52177366876E+03  0.58143554409E+03  0.15294330000E+03 0.  0.
<mgrwt>
<rscale>  0 0.53886304E+03</rscale>
<asrwt>0</asrwt>
<pdfrwt beam="1">  1        2 0.14008387E+00 0.69010005E+03</pdfrwt>
<pdfrwt beam="2">  1       -2 0.10565997E+00 0.69010005E+03</pdfrwt>
<totfact> 0.21343361E+01</totfact>
</mgrwt>
</event>
<event>
 4    1  0.7280516E-007  0.1060049E+04  0.7818608E-02  0.9306898E-01
          2   -1    0    0  501    0  0.00000000000E+00  0.00000000000E+00  0.18048856077E+04  0.18048856077E+04  0.25500000000E-02 0. -1.
         -2   -1    0    0    0  501 -0.00000000000E+00 -0.00000000000E+00 -0.11292368723E+04  0.11292368723E+04  0.25500000000E-02 0.  1.
    8880023    1    1    2    0    0 -0.40719962385E+03 -0.72393518172E+03  0.14446925518E+04  0.17918818199E+04  0.65864270000E+03 0.  0.
    8880022    1    1    2    0    0  0.40719962385E+03  0.72393518172E+03 -0.76904381636E+03  0.11422406601E+04  0.15294330000E+03 0.  0.
<mgrwt>
<rscale>  0 0.10015033E+04</rscale>
<asrwt>0</asrwt>
<pdfrwt beam="1">  1        2 0.27767471E+00 0.10600490E+04</pdfrwt>
<pdfrwt beam="2">  1       -2 0.17372875E+00 0.10600490E+04</pdfrwt>
<totfact> 0.16982486E+00</totfact>
</mgrwt>
</event>
<event>
 4    1  0.7280516E-007  0.9498022E+03  0.7818608E-02  0.9450399E-01
         -2   -1    0    0    0  501 -0.00000000000E+00  0.00000000000E+00  0.50629725782E+03  0.50629725783E+03  0.25500000000E-02 0.  1.
          2   -1    0    0  501    0  0.00000000000E+00 -0.00000000000E+00 -0.13992000460E+04  0.13992000460E+04  0.25500000000E-02 0. -1.
    8880023    1    1    2    0    0 -0.42715382798E+03 -0.53465284604E+03 -0.32733994784E+03  0.10046271479E+04  0.65864270000E+03 0.  0.
    8880022    1    1    2    0    0  0.42715382798E+03  0.53465284604E+03 -0.56556284039E+03  0.90087015600E+03  0.15294330000E+03 0.  0.
<mgrwt>
<rscale>  0 0.88041624E+03</rscale>
<asrwt>0</asrwt>
<pdfrwt beam="1">  1        2 0.21526154E+00 0.94980222E+03</pdfrwt>
<pdfrwt beam="2">  1       -2 0.77891886E-01 0.94980222E+03</pdfrwt>
<totfact> 0.21286091E+01</totfact>
</mgrwt>
</event>
<event>
 4    1  0.7280516E-007  0.6809408E+03  0.7818608E-02  0.1008796E+00
         -2   -1    0    0    0  501 -0.00000000000E+00  0.00000000000E+00  0.45118300843E+03  0.45118300843E+03  0.25500000000E-02 0.  1.
          2   -1    0    0  501    0  0.00000000000E+00 -0.00000000000E+00 -0.21018863179E+04  0.21018863179E+04  0.25500000000E-02 0. -1.
    8880023    1    1    2    0    0 -0.16684398552E+03 -0.45091423357E+02 -0.20121386241E+04  0.21242368514E+04  0.65864270000E+03 0. -1.
    8880022    1    1    2    0    0  0.16684398552E+03  0.45091423357E+02  0.36143531458E+03  0.42883247499E+03  0.15294330000E+03 0.  0.
<mgrwt>
<rscale>  0 0.51955795E+03</rscale>
<asrwt>0</asrwt>
<pdfrwt beam="1">  1        2 0.32336712E+00 0.68094079E+03</pdfrwt>
<pdfrwt beam="2">  1       -2 0.69412772E-01 0.68094079E+03</pdfrwt>
<totfact> 0.11644947E+01</totfact>
</mgrwt>
</event>
<event>
 4    1  0.7280516E-007  0.7934591E+03  0.7818608E-02  0.9725121E-01
         -2   -1    0    0    0  501 -0.00000000000E+00  0.00000000000E+00  0.33298181668E+03  0.33298181669E+03  0.25500000000E-02 0.  1.
          2   -1    0    0  501    0  0.00000000000E+00 -0.00000000000E+00 -0.15455502084E+04  0.15455502084E+04  0.25500000000E-02 0. -1.
    8880023    1    1    2    0    0 -0.43860202296E+03 -0.58269699474E+02 -0.11628390282E+04  0.14077542059E+04  0.65864270000E+03 0.  0.
    8880022    1    1    2    0    0  0.43860202296E+03  0.58269699474E+02 -0.49729363492E+02  0.47077781918E+03  0.15294330000E+03 0.  0.
<mgrwt>
<rscale>  0 0.69540570E+03</rscale>
<asrwt>0</asrwt>
<pdfrwt beam="1">  1        2 0.23777695E+00 0.79345907E+03</pdfrwt>
<pdfrwt beam="2">  1       -2 0.51227973E-01 0.79345907E+03</pdfrwt>
<totfact> 0.43867563E+01</totfact>
</mgrwt>
</event>
<event>
 4    1  0.7280516E-007  0.6693363E+03  0.7818608E-02  0.1016143E+00
         -2   -1    0    0    0  501 -0.00000000000E+00  0.00000000000E+00  0.14967094014E+03  0.14967094016E+03  0.25500000000E-02 0.  1.
          2   -1    0    0  501    0  0.00000000000E+00 -0.00000000000E+00 -0.13100310423E+04  0.13100310423E+04  0.25500000000E-02 0. -1.
    8880023    1    1    2    0    0  0.11590690742E+03 -0.27685604802E+02 -0.10213382150E+04  0.12211236053E+04  0.65864270000E+03 0. -1.
    8880022    1    1    2    0    0 -0.11590690742E+03  0.27685604802E+02 -0.13902188722E+03  0.23857837714E+03  0.15294330000E+03 0.  0.
<mgrwt>
<rscale>  0 0.49104470E+03</rscale>
<asrwt>0</asrwt>
<pdfrwt beam="1">  1        2 0.20154323E+00 0.66933632E+03</pdfrwt>
<pdfrwt beam="2">  1       -2 0.23026299E-01 0.66933632E+03</pdfrwt>
<totfact> 0.27556398E+02</totfact>
</mgrwt>
</event>
<event>
 4    1  0.7280516E-007  0.8183362E+03  0.7818608E-02  0.9672468E-01
          2   -1    0    0  501    0  0.00000000000E+00  0.00000000000E+00  0.25580316461E+04  0.25580316461E+04  0.25500000000E-02 0. -1.
         -2   -1    0    0    0  501 -0.00000000000E+00 -0.00000000000E+00 -0.34643817425E+03  0.34643817426E+03  0.25500000000E-02 0.  1.
    8880023    1    1    2    0    0  0.44676868055E+03  0.19042510153E+03  0.22496609054E+04  0.23938772669E+04  0.65864270000E+03 0.  0.
    8880022    1    1    2    0    0 -0.44676868055E+03 -0.19042510153E+03 -0.38067433523E+02  0.51059255353E+03  0.15294330000E+03 0.  0.
<mgrwt>
<rscale>  0 0.72679990E+03</rscale>
<asrwt>0</asrwt>
<pdfrwt beam="1">  1        2 0.39354334E+00 0.81833623E+03</pdfrwt>
<pdfrwt beam="2">  1       -2 0.53298179E-01 0.81833623E+03</pdfrwt>
<totfact> 0.11099194E+01</totfact>
</mgrwt>
</event>
<event>
 4    1  0.7280516E-007  0.7710657E+03  0.7818608E-02  0.9777258E-01
         -2   -1    0    0    0  501 -0.00000000000E+00  0.00000000000E+00  0.88718473388E+02  0.88718473425E+02  0.25500000000E-02 0.  1.
          2   -1    0    0  501    0  0.00000000000E+00 -0.00000000000E+00 -0.45327398720E+04  0.45327398720E+04  0.25500000000E-02 0. -1.
    8880023    1    1    2    0    0  0.11932297999E+03  0.38274546064E+03 -0.35084104720E+04  0.35921423006E+04  0.65864270000E+03 0. -1.
    8880022    1    1    2    0    0 -0.11932297999E+03 -0.38274546064E+03 -0.93561092660E+03  0.10293160448E+04  0.15294330000E+03 0.  1.
<mgrwt>
<rscale>  0 0.66597395E+03</rscale>
<asrwt>0</asrwt>
<pdfrwt beam="1">  1        2 0.69734442E+00 0.77106567E+03</pdfrwt>
<pdfrwt beam="2">  1       -2 0.13648999E-01 0.77106567E+03</pdfrwt>
<totfact> 0.52960639E+00</totfact>
</mgrwt>
</event>
<event>
 4    1  0.7280516E-007  0.7389842E+03  0.7818608E-02  0.9862916E-01
         -2   -1    0    0    0  501 -0.00000000000E+00  0.00000000000E+00  0.34746661553E+03  0.34746661554E+03  0.25500000000E-02 0.  1.
          2   -1    0    0  501    0  0.00000000000E+00 -0.00000000000E+00 -0.97434596676E+03  0.97434596676E+03  0.25500000000E-02 0. -1.
    8880023    1    1    2    0    0 -0.32333626060E+03  0.87983607577E+02 -0.21580275125E+03  0.76984965177E+03  0.65864270000E+03 0.  0.
    8880022    1    1    2    0    0  0.32333626060E+03 -0.87983607577E+02 -0.41107659998E+03  0.55196293053E+03  0.15294330000E+03 0.  0.
<mgrwt>
<rscale>  0 0.62092692E+03</rscale>
<asrwt>0</asrwt>
<pdfrwt beam="1">  1        2 0.14989938E+00 0.73898421E+03</pdfrwt>
<pdfrwt beam="2">  1       -2 0.53456403E-01 0.73898421E+03</pdfrwt>
<totfact> 0.87583201E+01</totfact>
</mgrwt>
</event>
<event>
 4    1  0.7280516E-007  0.7577900E+03  0.7818608E-02  0.9810863E-01
          2   -1    0    0  501    0  0.00000000000E+00  0.00000000000E+00  0.99676852749E+03  0.99676852749E+03  0.25500000000E-02 0. -1.
         -2   -1    0    0    0  501 -0.00000000000E+00 -0.00000000000E+00 -0.69276541541E+03  0.69276541542E+03  0.25500000000E-02 0.  1.
    8880023    1    1    2    0    0  0.36756207968E+03  0.73031445193E+02  0.76450526580E+03  0.10764357770E+04  0.65864270000E+03 0. -1.
    8880022    1    1    2    0    0 -0.36756207968E+03 -0.73031445193E+02 -0.46050215372E+03  0.61309816587E+03  0.15294330000E+03 0.  0.
<mgrwt>
<rscale>  0 0.64782824E+03</rscale>
<asrwt>0</asrwt>
<pdfrwt beam="1">  1        2 0.15334900E+00 0.75779000E+03</pdfrwt>
<pdfrwt beam="2">  1       -2 0.10657930E+00 0.75779000E+03</pdfrwt>
<totfact> 0.18230794E+01</totfact>
</mgrwt>
</event>
<event>
 4    1  0.7280516E-007  0.8221700E+03  0.7818608E-02  0.9664764E-01
         -2   -1    0    0    0  501 -0.00000000000E+00  0.00000000000E+00  0.26729447535E+03  0.26729447536E+03  0.25500000000E-02 0.  1.
          2   -1    0    0  501    0  0.00000000000E+00 -0.00000000000E+00 -0.34414935361E+04  0.34414935361E+04  0.25500000000E-02 0. -1.
    8880023    1    1    2    0    0 -0.30305952973E+03  0.38769613407E+03 -0.30762856596E+04  0.31842576900E+04  0.65864270000E+03 0. -1.
    8880022    1    1    2    0    0  0.30305952973E+03 -0.38769613407E+03 -0.97913401144E+02  0.52453032140E+03  0.15294330000E+03 0.  0.
<mgrwt>
<rscale>  0 0.73154072E+03</rscale>
<asrwt>0</asrwt>
<pdfrwt beam="1">  1        2 0.52946051E+00 0.82217004E+03</pdfrwt>
<pdfrwt beam="2">  1       -2 0.41122229E-01 0.82217004E+03</pdfrwt>
<totfact> 0.53324334E+00</totfact>
</mgrwt>
</event>
<event>
 4    1  0.7280516E-007  0.1183014E+04  0.7818608E-02  0.9173813E-01
         -2   -1    0    0    0  501 -0.00000000000E+00  0.00000000000E+00  0.27196328834E+03  0.27196328835E+03  0.25500000000E-02 0.  1.
          2   -1    0    0  501    0  0.00000000000E+00 -0.00000000000E+00 -0.44150417253E+04  0.44150417253E+04  0.25500000000E-02 0. -1.
    8880023    1    1    2    0    0 -0.37820742918E+03 -0.90701201108E+03 -0.19850187323E+04  0.23108053189E+04  0.65864270000E+03 0.  0.
    8880022    1    1    2    0    0  0.37820742918E+03  0.90701201108E+03 -0.21580597046E+04  0.23761996948E+04  0.15294330000E+03 0.  0.
<mgrwt>
<rscale>  0 0.11327853E+04</rscale>
<asrwt>0</asrwt>
<pdfrwt beam="1">  1        2 0.67923714E+00 0.11830139E+04</pdfrwt>
<pdfrwt beam="2">  1       -2 0.41840509E-01 0.11830139E+04</pdfrwt>
<totfact> 0.83484844E-01</totfact>
</mgrwt>
</event>
<event>
 4    1  0.7280516E-007  0.6909634E+03  0.7818608E-02  0.1003698E+00
         -2   -1    0    0    0  501 -0.00000000000E+00  0.00000000000E+00  0.55320023964E+03  0.55320023965E+03  0.25500000000E-02 0.  1.
          2   -1    0    0  501    0  0.00000000000E+00 -0.00000000000E+00 -0.76679322995E+03  0.76679322995E+03  0.25500000000E-02 0. -1.
    8880023    1    1    2    0    0 -0.16405782562E+03  0.12924878466E+03 -0.55870489773E+03  0.88858403514E+03  0.65864270000E+03 0.  0.
    8880022    1    1    2    0    0  0.16405782562E+03 -0.12924878466E+03  0.34511190742E+03  0.43140943447E+03  0.15294330000E+03 0.  0.
<mgrwt>
<rscale>  0 0.54058035E+03</rscale>
<asrwt>0</asrwt>
<pdfrwt beam="1">  1        2 0.11796819E+00 0.69096340E+03</pdfrwt>
<pdfrwt beam="2">  1       -2 0.85107729E-01 0.69096340E+03</pdfrwt>
<totfact> 0.44581291E+01</totfact>
</mgrwt>
</event>
<event>
 4    1  0.7280516E-007  0.6675262E+03  0.7818608E-02  0.1017502E+00
         -2   -1    0    0    0  501 -0.00000000000E+00  0.00000000000E+00  0.89507810814E+02  0.89507810851E+02  0.25500000000E-02 0.  1.
          2   -1    0    0  501    0  0.00000000000E+00 -0.00000000000E+00 -0.21217627638E+04  0.21217627638E+04  0.25500000000E-02 0. -1.
    8880023    1    1    2    0    0 -0.29268243509E+02 -0.10451970651E+03 -0.13863140150E+04  0.15386545271E+04  0.65864270000E+03 0.  1.
    8880022    1    1    2    0    0  0.29268243509E+02  0.10451970651E+03 -0.64594093795E+03  0.67261604758E+03  0.15294330000E+03 0. -1.
<mgrwt>
<rscale>  0 0.48598948E+03</rscale>
<asrwt>0</asrwt>
<pdfrwt beam="1">  1        2 0.32642500E+00 0.66752618E+03</pdfrwt>
<pdfrwt beam="2">  1       -2 0.13770434E-01 0.66752618E+03</pdfrwt>
<totfact> 0.23923895E+02</totfact>
</mgrwt>
</event>
<event>
 4    1  0.7280516E-007  0.7752892E+03  0.7818608E-02  0.9767021E-01
         -2   -1    0    0    0  501 -0.00000000000E+00  0.00000000000E+00  0.84554885191E+03  0.84554885192E+03  0.25500000000E-02 0.  1.
          2   -1    0    0  501    0  0.00000000000E+00 -0.00000000000E+00 -0.76153538430E+03  0.76153538431E+03  0.25500000000E-02 0. -1.
    8880023    1    1    2    0    0  0.71698895514E+02 -0.40264429392E+03 -0.46620296389E+03  0.90466489312E+03  0.65864270000E+03 0. -1.
    8880022    1    1    2    0    0 -0.71698895514E+02  0.40264429392E+03  0.55021643150E+03  0.70241934310E+03  0.15294330000E+03 0.  0.
<mgrwt>
<rscale>  0 0.67162798E+03</rscale>
<asrwt>0</asrwt>
<pdfrwt beam="1">  1        2 0.11715929E+00 0.77528921E+03</pdfrwt>
<pdfrwt beam="2">  1       -2 0.13008444E+00 0.77528921E+03</pdfrwt>
<totfact> 0.16132930E+01</totfact>
</mgrwt>
</event>
<event>
 4    1  0.7280516E-007  0.8846546E+03  0.7818608E-02  0.9551129E-01
         -2   -1    0    0    0  501 -0.00000000000E+00  0.00000000000E+00  0.88950922334E+03  0.88950922334E+03  0.25500000000E-02 0.  1.
          2   -1    0    0  501    0  0.00000000000E+00 -0.00000000000E+00 -0.64588972834E+03  0.64588972834E+03  0.25500000000E-02 0. -1.
    8880023    1    1    2    0    0 -0.58837816363E+03 -0.51133407003E+02  0.26943488537E+03  0.92477502803E+03  0.65864270000E+03 0.  0.
    8880022    1    1    2    0    0  0.58837816363E+03  0.51133407003E+02 -0.25815390365E+02  0.61062392366E+03  0.15294330000E+03 0.  0.
<mgrwt>
<rscale>  0 0.80616999E+03</rscale>
<asrwt>0</asrwt>
<pdfrwt beam="1">  1        2 0.99367651E-01 0.88465456E+03</pdfrwt>
<pdfrwt beam="2">  1       -2 0.13684757E+00 0.88465456E+03</pdfrwt>
<totfact> 0.17302822E+01</totfact>
</mgrwt>
</event>
<event>
 4    1  0.7280516E-007  0.7294345E+03  0.7818608E-02  0.9891867E-01
         -2   -1    0    0    0  501 -0.00000000000E+00  0.00000000000E+00  0.23310791475E+03  0.23310791477E+03  0.25500000000E-02 0.  1.
          2   -1    0    0  501    0  0.00000000000E+00 -0.00000000000E+00 -0.30015386232E+04  0.30015386232E+04  0.25500000000E-02 0. -1.
    8880023    1    1    2    0    0 -0.25079814771E+03  0.18805527926E+03 -0.27913673643E+04  0.28851007725E+04  0.65864270000E+03 0. -1.
    8880022    1    1    2    0    0  0.25079814771E+03 -0.18805527926E+03  0.22936655826E+02  0.34954576546E+03  0.15294330000E+03 0.  0.
<mgrwt>
<rscale>  0 0.60657079E+03</rscale>
<asrwt>0</asrwt>
<pdfrwt beam="1">  1        2 0.46177515E+00 0.72943451E+03</pdfrwt>
<pdfrwt beam="2">  1       -2 0.35862758E-01 0.72943451E+03</pdfrwt>
<totfact> 0.13531130E+01</totfact>
</mgrwt>
</event>
<event>
 4    1  0.8059295E-007  0.1137827E+04  0.7818608E-02  0.9220065E-01
         -2   -1    0    0    0  501 -0.00000000000E+00  0.00000000000E+00  0.12472864427E+04  0.12472864427E+04  0.25500000000E-02 0.  1.
          2   -1    0    0  501    0  0.00000000000E+00 -0.00000000000E+00 -0.24062701459E+04  0.24062701459E+04  0.25500000000E-02 0. -1.
    8880023    1    1    2    0    0  0.13910104383E+03 -0.91732772904E+03 -0.20586462398E+04  0.23521636443E+04  0.65864270000E+03 0.  0.
    8880022    1    1    2    0    0 -0.13910104383E+03  0.91732772904E+03  0.89966253656E+03  0.13013929443E+04  0.15294330000E+03 0.  0.
<mgrwt>
<rscale>  0 0.10848702E+04</rscale>
<asrwt>0</asrwt>
<pdfrwt beam="1">  1        2 0.37019541E+00 0.11378266E+04</pdfrwt>
<pdfrwt beam="2">  1       -2 0.19189022E+00 0.11378266E+04</pdfrwt>
<totfact> 0.58369219E-01</totfact>
</mgrwt>
</event>
<event>
 4    1  0.7280516E-007  0.7032286E+03  0.7818608E-02  0.9984062E-01
         -2   -1    0    0    0  501 -0.00000000000E+00  0.00000000000E+00  0.40341039256E+03  0.40341039257E+03  0.25500000000E-02 0.  1.
          2   -1    0    0  501    0  0.00000000000E+00 -0.00000000000E+00 -0.66790214783E+03  0.66790214783E+03  0.25500000000E-02 0. -1.
    8880023    1    1    2    0    0  0.24040428659E+03  0.54092671482E+02 -0.32556038912E+03  0.77493226242E+03  0.65864270000E+03 0.  0.
    8880022    1    1    2    0    0 -0.24040428659E+03 -0.54092671482E+02  0.61068633849E+02  0.29638027798E+03  0.15294330000E+03 0.  0.
<mgrwt>
<rscale>  0 0.56354625E+03</rscale>
<asrwt>0</asrwt>
<pdfrwt beam="1">  1        2 0.10275418E+00 0.70322859E+03</pdfrwt>
<pdfrwt beam="2">  1       -2 0.62063137E-01 0.70322859E+03</pdfrwt>
<totfact> 0.10629351E+02</totfact>
</mgrwt>
</event>
<event>
 4    1  0.7280516E-007  0.1004113E+04  0.7818608E-02  0.9376197E-01
         -2   -1    0    0    0  501 -0.00000000000E+00  0.00000000000E+00  0.64218499691E+03  0.64218499692E+03  0.25500000000E-02 0.  1.
          2   -1    0    0  501    0  0.00000000000E+00 -0.00000000000E+00 -0.19518717922E+04  0.19518717922E+04  0.25500000000E-02 0. -1.
    8880023    1    1    2    0    0  0.44386046623E+03 -0.61434502475E+03 -0.14931748129E+04  0.17993924395E+04  0.65864270000E+03 0.  0.
    8880022    1    1    2    0    0 -0.44386046623E+03  0.61434502475E+03  0.18348801769E+03  0.79466434963E+03  0.15294330000E+03 0.  0.
<mgrwt>
<rscale>  0 0.94060752E+03</rscale>
<asrwt>0</asrwt>
<pdfrwt beam="1">  1        2 0.30028797E+00 0.10041126E+04</pdfrwt>
<pdfrwt beam="2">  1       -2 0.98797693E-01 0.10041126E+04</pdfrwt>
<totfact> 0.60369262E+00</totfact>
</mgrwt>
</event>
<event>
 4    1  0.7280516E-007  0.8785846E+03  0.7818608E-02  0.9561324E-01
         -2   -1    0    0    0  501 -0.00000000000E+00  0.00000000000E+00  0.36558530794E+03  0.36558530795E+03  0.25500000000E-02 0.  1.
          2   -1    0    0  501    0  0.00000000000E+00 -0.00000000000E+00 -0.17742877849E+04  0.17742877849E+04  0.25500000000E-02 0. -1.
    8880023    1    1    2    0    0  0.54967714314E+03  0.18961980112E+03 -0.12320291344E+04  0.15132107008E+04  0.65864270000E+03 0.  0.
    8880022    1    1    2    0    0 -0.54967714314E+03 -0.18961980112E+03 -0.17667334258E+03  0.62666239210E+03  0.15294330000E+03 0. -1.
<mgrwt>
<rscale>  0 0.79909802E+03</rscale>
<asrwt>0</asrwt>
<pdfrwt beam="1">  1        2 0.27296735E+00 0.87858456E+03</pdfrwt>
<pdfrwt beam="2">  1       -2 0.56243895E-01 0.87858456E+03</pdfrwt>
<totfact> 0.26811092E+01</totfact>
</mgrwt>
</event>
<event>
 4    1  0.7280516E-007  0.6689405E+03  0.7818608E-02  0.1016434E+00
          2   -1    0    0  501    0  0.00000000000E+00  0.00000000000E+00  0.10712342481E+04  0.10712342481E+04  0.25500000000E-02 0. -1.
         -2   -1    0    0    0  501 -0.00000000000E+00 -0.00000000000E+00 -0.33952310281E+03  0.33952310282E+03  0.25500000000E-02 0.  1.
    8880023    1    1    2    0    0  0.63946816140E+01 -0.11674905577E+03  0.92263492052E+03  0.11396212690E+04  0.65864270000E+03 0. -1.
    8880022    1    1    2    0    0 -0.63946816140E+01  0.11674905577E+03 -0.19092377520E+03  0.27113608194E+03  0.15294330000E+03 0.  0.
<mgrwt>
<rscale>  0 0.48995708E+03</rscale>
<asrwt>0</asrwt>
<pdfrwt beam="1">  1        2 0.16480527E+00 0.66894054E+03</pdfrwt>
<pdfrwt beam="2">  1       -2 0.52234324E-01 0.66894054E+03</pdfrwt>
<totfact> 0.80262718E+01</totfact>
</mgrwt>
</event>
<event>
 4    1  0.7280516E-007  0.7233140E+03  0.7818608E-02  0.9911528E-01
         -2   -1    0    0    0  501 -0.00000000000E+00  0.00000000000E+00  0.12828645527E+04  0.12828645527E+04  0.25500000000E-02 0.  1.
          2   -1    0    0  501    0  0.00000000000E+00 -0.00000000000E+00 -0.22804619901E+03  0.22804619903E+03  0.25500000000E-02 0. -1.
    8880023    1    1    2    0    0 -0.29816164864E+03  0.21737020342E+02  0.56882519519E+03  0.92018757638E+03  0.65864270000E+03 0.  0.
    8880022    1    1    2    0    0  0.29816164864E+03 -0.21737020342E+02  0.48599315849E+03  0.59072317534E+03  0.15294330000E+03 0.  0.
<mgrwt>
<rscale>  0 0.59705823E+03</rscale>
<asrwt>0</asrwt>
<pdfrwt beam="1">  1        2 0.35084031E-01 0.72331395E+03</pdfrwt>
<pdfrwt beam="2">  1       -2 0.19736378E+00 0.72331395E+03</pdfrwt>
<totfact> 0.21031050E+01</totfact>
</mgrwt>
</event>
<event>
 4    1  0.7280516E-007  0.7681045E+03  0.7818608E-02  0.9784560E-01
          2   -1    0    0  501    0  0.00000000000E+00  0.00000000000E+00  0.12911345423E+04  0.12911345423E+04  0.25500000000E-02 0. -1.
         -2   -1    0    0    0  501 -0.00000000000E+00 -0.00000000000E+00 -0.44644674667E+03  0.44644674667E+03  0.25500000000E-02 0.  1.
    8880023    1    1    2    0    0  0.18594664876E+03  0.34870923945E+03  0.10218013306E+04  0.12783045237E+04  0.65864270000E+03 0. -1.
    8880022    1    1    2    0    0 -0.18594664876E+03 -0.34870923945E+03 -0.17711353493E+03  0.45927676529E+03  0.15294330000E+03 0.  0.
<mgrwt>
<rscale>  0 0.66197749E+03</rscale>
<asrwt>0</asrwt>
<pdfrwt beam="1">  1        2 0.19863608E+00 0.76810448E+03</pdfrwt>
<pdfrwt beam="2">  1       -2 0.68684116E-01 0.76810448E+03</pdfrwt>
<totfact> 0.32994544E+01</totfact>
</mgrwt>
</event>
<event>
 4    1  0.7280516E-007  0.6725217E+03  0.7818608E-02  0.1013916E+00
          2   -1    0    0  501    0  0.00000000000E+00  0.00000000000E+00  0.65926913561E+03  0.65926913561E+03  0.25500000000E-02 0. -1.
         -2   -1    0    0    0  501 -0.00000000000E+00 -0.00000000000E+00 -0.44138075978E+03  0.44138075979E+03  0.25500000000E-02 0.  1.
    8880023    1    1    2    0    0  0.27026683156E+02 -0.13320951443E+03  0.43607729755E+03  0.80152905876E+03  0.65864270000E+03 0. -1.
    8880022    1    1    2    0    0 -0.27026683156E+02  0.13320951443E+03 -0.21818892172E+03  0.29912083664E+03  0.15294330000E+03 0.  0.
<mgrwt>
<rscale>  0 0.49947474E+03</rscale>
<asrwt>0</asrwt>
<pdfrwt beam="1">  1        2 0.10142602E+00 0.67252169E+03</pdfrwt>
<pdfrwt beam="2">  1       -2 0.67904733E-01 0.67252169E+03</pdfrwt>
<totfact> 0.89246351E+01</totfact>
</mgrwt>
</event>
<event>
 4    1  0.7280516E-007  0.6708859E+03  0.7818608E-02  0.1015036E+00
          2   -1    0    0  501    0  0.00000000000E+00  0.00000000000E+00  0.87716407341E+03  0.87716407341E+03  0.25500000000E-02 0. -1.
         -2   -1    0    0    0  501 -0.00000000000E+00 -0.00000000000E+00 -0.24040871241E+03  0.24040871243E+03  0.25500000000E-02 0.  1.
    8880023    1    1    2    0    0 -0.43301041128E+02 -0.12001100341E+03  0.62683291824E+03  0.91815430879E+03  0.65864270000E+03 0.  0.
    8880022    1    1    2    0    0  0.43301041128E+02  0.12001100341E+03  0.99224427553E+01  0.19941847704E+03  0.15294330000E+03 0. -1.
<mgrwt>
<rscale>  0 0.49521439E+03</rscale>
<asrwt>0</asrwt>
<pdfrwt beam="1">  1        2 0.13494832E+00 0.67088585E+03</pdfrwt>
<pdfrwt beam="2">  1       -2 0.36985956E-01 0.67088585E+03</pdfrwt>
<totfact> 0.21226923E+02</totfact>
</mgrwt>
</event>
<event>
 4    1  0.7280516E-007  0.7759865E+03  0.7818608E-02  0.9765351E-01
          2   -1    0    0  501    0  0.00000000000E+00  0.00000000000E+00  0.18316843487E+04  0.18316843487E+04  0.25500000000E-02 0. -1.
         -2   -1    0    0    0  501 -0.00000000000E+00 -0.00000000000E+00 -0.28362429669E+03  0.28362429670E+03  0.25500000000E-02 0.  1.
    8880023    1    1    2    0    0  0.40736374325E+03  0.48985579903E+02  0.14814714106E+04  0.16723972473E+04  0.65864270000E+03 0. -1.
    8880022    1    1    2    0    0 -0.40736374325E+03 -0.48985579903E+02  0.66588641463E+02  0.44291139807E+03  0.15294330000E+03 0.  0.
<mgrwt>
<rscale>  0 0.67255639E+03</rscale>
<asrwt>0</asrwt>
<pdfrwt beam="1">  1        2 0.28179759E+00 0.77598648E+03</pdfrwt>
<pdfrwt beam="2">  1       -2 0.43634507E-01 0.77598648E+03</pdfrwt>
<totfact> 0.42287971E+01</totfact>
</mgrwt>
</event>
<event>
 4    1  0.7280516E-007  0.7417203E+03  0.7818608E-02  0.9854964E-01
          2   -1    0    0  501    0  0.00000000000E+00  0.00000000000E+00  0.18299349577E+04  0.18299349577E+04  0.25500000000E-02 0. -1.
         -2   -1    0    0    0  501 -0.00000000000E+00 -0.00000000000E+00 -0.29275200304E+03  0.29275200305E+03  0.25500000000E-02 0.  1.
    8880023    1    1    2    0    0  0.32660833303E+03 -0.98314832517E+02  0.15809807715E+04  0.17463244875E+04  0.65864270000E+03 0.  0.
    8880022    1    1    2    0    0 -0.32660833303E+03  0.98314832517E+02 -0.43797816856E+02  0.37636247325E+03  0.15294330000E+03 0.  0.
<mgrwt>
<rscale>  0 0.62494459E+03</rscale>
<asrwt>0</asrwt>
<pdfrwt beam="1">  1        2 0.28152846E+00 0.74172031E+03</pdfrwt>
<pdfrwt beam="2">  1       -2 0.45038769E-01 0.74172031E+03</pdfrwt>
<totfact> 0.39953536E+01</totfact>
</mgrwt>
</event>
<event>
 4    1  0.7280516E-007  0.1015496E+04  0.7818608E-02  0.9361559E-01
         -2   -1    0    0    0  501 -0.00000000000E+00  0.00000000000E+00  0.30693807454E+03  0.30693807455E+03  0.25500000000E-02 0.  1.
          2   -1    0    0  501    0  0.00000000000E+00 -0.00000000000E+00 -0.33497199381E+04  0.33497199381E+04  0.25500000000E-02 0. -1.
    8880023    1    1    2    0    0  0.92417958421E+02  0.76738591804E+03 -0.25041664530E+04  0.27022364917E+04  0.65864270000E+03 0.  0.
    8880022    1    1    2    0    0 -0.92417958421E+02 -0.76738591804E+03 -0.53861541058E+03  0.95442152101E+03  0.15294330000E+03 0.  0.
<mgrwt>
<rscale>  0 0.95307897E+03</rscale>
<asrwt>0</asrwt>
<pdfrwt beam="1">  1        2 0.51534150E+00 0.10154962E+04</pdfrwt>
<pdfrwt beam="2">  1       -2 0.47221245E-01 0.10154962E+04</pdfrwt>
<totfact> 0.45166050E+00</totfact>
</mgrwt>
</event>
<event>
 4    1  0.7552190E-007  0.6670052E+03  0.7818608E-02  0.1017907E+00
         -2   -1    0    0    0  501 -0.00000000000E+00  0.00000000000E+00  0.64039925743E+03  0.64039925744E+03  0.25500000000E-02 0.  1.
          2   -1    0    0  501    0  0.00000000000E+00 -0.00000000000E+00 -0.15122968334E+04  0.15122968334E+04  0.25500000000E-02 0. -1.
    8880023    1    1    2    0    0 -0.10199378885E+03 -0.26133105056E+02 -0.14227767766E+04  0.15713655318E+04  0.65864270000E+03 0. -1.
    8880022    1    1    2    0    0  0.10199378885E+03  0.26133105056E+02  0.55087920066E+03  0.58133055904E+03  0.15294330000E+03 0.  0.
<mgrwt>
<rscale>  0 0.48449421E+03</rscale>
<asrwt>0</asrwt>
<pdfrwt beam="1">  1        2 0.23266105E+00 0.66700516E+03</pdfrwt>
<pdfrwt beam="2">  1       -2 0.98522963E-01 0.66700516E+03</pdfrwt>
<totfact> 0.11084272E+01</totfact>
</mgrwt>
</event>
<event>
 4    1  0.7280516E-007  0.6664330E+03  0.7818608E-02  0.1018360E+00
         -2   -1    0    0    0  501 -0.00000000000E+00  0.00000000000E+00  0.71121650514E+02  0.71121650560E+02  0.25500000000E-02 0.  1.
          2   -1    0    0  501    0  0.00000000000E+00 -0.00000000000E+00 -0.25425091205E+04  0.25425091205E+04  0.25500000000E-02 0. -1.
    8880023    1    1    2    0    0 -0.16202483217E+02  0.10030064964E+03 -0.19709903486E+04  0.20806095024E+04  0.65864270000E+03 0.  1.
    8880022    1    1    2    0    0  0.16202483217E+02 -0.10030064964E+03 -0.50039712139E+03  0.53302126870E+03  0.15294330000E+03 0.  0.
<mgrwt>
<rscale>  0 0.48283005E+03</rscale>
<asrwt>0</asrwt>
<pdfrwt beam="1">  1        2 0.39115518E+00 0.66643300E+03</pdfrwt>
<pdfrwt beam="2">  1       -2 0.10941794E-01 0.66643300E+03</pdfrwt>
<totfact> 0.20430815E+02</totfact>
</mgrwt>
</event>
<event>
 4    1  0.7280516E-007  0.6876205E+03  0.7818608E-02  0.1005305E+00
          2   -1    0    0  501    0  0.00000000000E+00  0.00000000000E+00  0.58168882396E+03  0.58168882397E+03  0.25500000000E-02 0. -1.
         -2   -1    0    0    0  501 -0.00000000000E+00 -0.00000000000E+00 -0.59100271123E+03  0.59100271123E+03  0.25500000000E-02 0.  1.
    8880023    1    1    2    0    0  0.13964153847E+03 -0.13968515128E+03  0.32075156052E+03  0.75875125739E+03  0.65864270000E+03 0. -1.
    8880022    1    1    2    0    0 -0.13964153847E+03  0.13968515128E+03 -0.33006544778E+03  0.41394027781E+03  0.15294330000E+03 0.  0.
<mgrwt>
<rscale>  0 0.53384181E+03</rscale>
<asrwt>0</asrwt>
<pdfrwt beam="1">  1        2 0.89490588E-01 0.68762047E+03</pdfrwt>
<pdfrwt beam="2">  1       -2 0.90923495E-01 0.68762047E+03</pdfrwt>
<totfact> 0.54027759E+01</totfact>
</mgrwt>
</event>
<event>
 4    1  0.7280516E-007  0.7820161E+03  0.7818608E-02  0.9751122E-01
         -2   -1    0    0    0  501 -0.00000000000E+00  0.00000000000E+00  0.43401563647E+03  0.43401563648E+03  0.25500000000E-02 0.  1.
          2   -1    0    0  501    0  0.00000000000E+00 -0.00000000000E+00 -0.13085539327E+04  0.13085539327E+04  0.25500000000E-02 0. -1.
    8880023    1    1    2    0    0  0.35241862811E+03 -0.23138725368E+03 -0.10069545984E+04  0.12749536149E+04  0.65864270000E+03 0. -1.
    8880022    1    1    2    0    0 -0.35241862811E+03  0.23138725368E+03  0.13241630218E+03  0.46761595429E+03  0.15294330000E+03 0.  0.
<mgrwt>
<rscale>  0 0.68052884E+03</rscale>
<asrwt>0</asrwt>
<pdfrwt beam="1">  1        2 0.20131599E+00 0.78201608E+03</pdfrwt>
<pdfrwt beam="2">  1       -2 0.66771637E-01 0.78201608E+03</pdfrwt>
<totfact> 0.34226498E+01</totfact>
</mgrwt>
</event>
<event>
 4    1  0.7280516E-007  0.7125184E+03  0.7818608E-02  0.9948765E-01
         -2   -1    0    0    0  501 -0.00000000000E+00  0.00000000000E+00  0.22356401701E+03  0.22356401703E+03  0.25500000000E-02 0.  1.
          2   -1    0    0  501    0  0.00000000000E+00 -0.00000000000E+00 -0.12935565727E+04  0.12935565727E+04  0.25500000000E-02 0. -1.
    8880023    1    1    2    0    0  0.11930993641E+03  0.24420763582E+03 -0.93930847111E+03  0.11789753350E+04  0.65864270000E+03 0. -1.
    8880022    1    1    2    0    0 -0.11930993641E+03 -0.24420763582E+03 -0.13068408454E+03  0.33814525472E+03  0.15294330000E+03 0.  0.
<mgrwt>
<rscale>  0 0.57955012E+03</rscale>
<asrwt>0</asrwt>
<pdfrwt beam="1">  1        2 0.19900870E+00 0.71251838E+03</pdfrwt>
<pdfrwt beam="2">  1       -2 0.34394465E-01 0.71251838E+03</pdfrwt>
<totfact> 0.13437417E+02</totfact>
</mgrwt>
</event>
<event>
 4    1  0.7280516E-007  0.7099402E+03  0.7818608E-02  0.9958223E-01
         -2   -1    0    0    0  501 -0.00000000000E+00  0.00000000000E+00  0.51701579689E+03  0.51701579690E+03  0.25500000000E-02 0.  1.
          2   -1    0    0  501    0  0.00000000000E+00 -0.00000000000E+00 -0.34376567867E+04  0.34376567867E+04  0.25500000000E-02 0. -1.
    8880023    1    1    2    0    0  0.26390731932E+03  0.23617287670E+02 -0.33517103766E+04  0.34260731902E+04  0.65864270000E+03 0. -1.
    8880022    1    1    2    0    0 -0.26390731932E+03 -0.23617287670E+02  0.43106938681E+03  0.52859939342E+03  0.15294330000E+03 0.  0.
<mgrwt>
<rscale>  0 0.57520648E+03</rscale>
<asrwt>0</asrwt>
<pdfrwt beam="1">  1        2 0.52887026E+00 0.70994018E+03</pdfrwt>
<pdfrwt beam="2">  1       -2 0.79540894E-01 0.70994018E+03</pdfrwt>
<totfact> 0.13782372E+00</totfact>
</mgrwt>
</event>
<event>
 4    1  0.7280516E-007  0.8138088E+03  0.7818608E-02  0.9681697E-01
          2   -1    0    0  501    0  0.00000000000E+00  0.00000000000E+00  0.36252318716E+03  0.36252318717E+03  0.25500000000E-02 0. -1.
         -2   -1    0    0    0  501 -0.00000000000E+00 -0.00000000000E+00 -0.14688866813E+04  0.14688866813E+04  0.25500000000E-02 0.  1.
    8880023    1    1    2    0    0 -0.46720895027E+03  0.10094730822E+03 -0.10469497963E+04  0.13260424746E+04  0.65864270000E+03 0.  0.
    8880022    1    1    2    0    0  0.46720895027E+03 -0.10094730822E+03 -0.59413697810E+02  0.50536739384E+03  0.15294330000E+03 0.  0.
<mgrwt>
<rscale>  0 0.72117062E+03</rscale>
<asrwt>0</asrwt>
<pdfrwt beam="1">  1        2 0.55772799E-01 0.81380880E+03</pdfrwt>
<pdfrwt beam="2">  1       -2 0.22598256E+00 0.81380880E+03</pdfrwt>
<totfact> 0.81780276E+00</totfact>
</mgrwt>
</event>
<event>
 4    1  0.7280516E-007  0.7482933E+03  0.7818608E-02  0.9836416E-01
         -2   -1    0    0    0  501 -0.00000000000E+00  0.00000000000E+00  0.75536952664E+03  0.75536952664E+03  0.25500000000E-02 0.  1.
          2   -1    0    0  501    0  0.00000000000E+00 -0.00000000000E+00 -0.15075460119E+04  0.15075460119E+04  0.25500000000E-02 0. -1.
    8880023    1    1    2    0    0 -0.98704919687E+02 -0.34115985495E+03 -0.13543240061E+04  0.15472997213E+04  0.65864270000E+03 0. -1.
    8880022    1    1    2    0    0  0.98704919687E+02  0.34115985495E+03  0.60214752092E+03  0.71561581716E+03  0.15294330000E+03 0.  0.
<mgrwt>
<rscale>  0 0.63444343E+03</rscale>
<asrwt>0</asrwt>
<pdfrwt beam="1">  1        2 0.23193015E+00 0.74829333E+03</pdfrwt>
<pdfrwt beam="2">  1       -2 0.11621070E+00 0.74829333E+03</pdfrwt>
<totfact> 0.74076074E+00</totfact>
</mgrwt>
</event>
<event>
 4    1  0.7280516E-007  0.7885525E+03  0.7818608E-02  0.9736118E-01
          2   -1    0    0  501    0  0.00000000000E+00  0.00000000000E+00  0.24307618795E+04  0.24307618795E+04  0.25500000000E-02 0. -1.
         -2   -1    0    0    0  501 -0.00000000000E+00 -0.00000000000E+00 -0.74725329854E+03  0.74725329855E+03  0.25500000000E-02 0.  1.
    8880023    1    1    2    0    0  0.17943626154E+03  0.39472444633E+03  0.22871174493E+04  0.24192397967E+04  0.65864270000E+03 0.  0.
    8880022    1    1    2    0    0 -0.17943626154E+03 -0.39472444633E+03 -0.60360886834E+03  0.75877538141E+03  0.15294330000E+03 0.  1.
<mgrwt>
<rscale>  0 0.68906492E+03</rscale>
<asrwt>0</asrwt>
<pdfrwt beam="1">  1        2 0.37396337E+00 0.78855245E+03</pdfrwt>
<pdfrwt beam="2">  1       -2 0.11496204E+00 0.78855245E+03</pdfrwt>
<totfact> 0.23448541E+00</totfact>
</mgrwt>
</event>
<event>
 4    1  0.7280516E-007  0.8134107E+03  0.7818608E-02  0.9682516E-01
         -2   -1    0    0    0  501 -0.00000000000E+00  0.00000000000E+00  0.28252856979E+03  0.28252856980E+03  0.25500000000E-02 0.  1.
          2   -1    0    0  501    0  0.00000000000E+00 -0.00000000000E+00 -0.17234492410E+04  0.17234492410E+04  0.25500000000E-02 0. -1.
    8880023    1    1    2    0    0  0.33382131403E+02  0.47614321043E+03 -0.12004125853E+04  0.14500438975E+04  0.65864270000E+03 0.  0.
    8880022    1    1    2    0    0 -0.33382131403E+02 -0.47614321043E+03 -0.24050808592E+03  0.55593391329E+03  0.15294330000E+03 0. -1.
<mgrwt>
<rscale>  0 0.72067396E+03</rscale>
<asrwt>0</asrwt>
<pdfrwt beam="1">  1        2 0.26514603E+00 0.81341068E+03</pdfrwt>
<pdfrwt beam="2">  1       -2 0.43465935E-01 0.81341068E+03</pdfrwt>
<totfact> 0.48637222E+01</totfact>
</mgrwt>
</event>
<event>
 4    1  0.7280516E-007  0.8005511E+03  0.7818608E-02  0.9709606E-01
         -2   -1    0    0    0  501 -0.00000000000E+00  0.00000000000E+00  0.18417141969E+03  0.18417141971E+03  0.25500000000E-02 0.  1.
          2   -1    0    0  501    0  0.00000000000E+00 -0.00000000000E+00 -0.22852646475E+04  0.22852646475E+04  0.25500000000E-02 0. -1.
    8880023    1    1    2    0    0  0.39955111878E+03 -0.21778619870E+03 -0.14990693650E+04  0.16994384638E+04  0.65864270000E+03 0. -1.
    8880022    1    1    2    0    0 -0.39955111878E+03  0.21778619870E+03 -0.60202386274E+03  0.76999760336E+03  0.15294330000E+03 0.  0.
<mgrwt>
<rscale>  0 0.70447745E+03</rscale>
<asrwt>0</asrwt>
<pdfrwt beam="1">  1        2 0.35157916E+00 0.80055114E+03</pdfrwt>
<pdfrwt beam="2">  1       -2 0.28334066E-01 0.80055114E+03</pdfrwt>
<totfact> 0.54205290E+01</totfact>
</mgrwt>
</event>
<event>
 4    1  0.7280516E-007  0.1121519E+04  0.7818608E-02  0.9237467E-01
         -2   -1    0    0    0  501 -0.00000000000E+00  0.00000000000E+00  0.11990923316E+04  0.11990923316E+04  0.25500000000E-02 0.  1.
          2   -1    0    0  501    0  0.00000000000E+00 -0.00000000000E+00 -0.91883324067E+03  0.91883324067E+03  0.25500000000E-02 0. -1.
    8880023    1    1    2    0    0  0.88819316541E+03  0.18737151776E+03 -0.91303098723E+02  0.11252295974E+04  0.65864270000E+03 0. -1.
    8880022    1    1    2    0    0 -0.88819316541E+03 -0.18737151776E+03  0.37156218965E+03  0.99269597488E+03  0.15294330000E+03 0.  1.
<mgrwt>
<rscale>  0 0.10674935E+04</rscale>
<asrwt>0</asrwt>
<pdfrwt beam="1">  1        2 0.14135896E+00 0.11215192E+04</pdfrwt>
<pdfrwt beam="2">  1       -2 0.18447574E+00 0.11215192E+04</pdfrwt>
<totfact> 0.47160685E+00</totfact>
</mgrwt>
</event>
<event>
 4    1  0.7280516E-007  0.6622388E+03  0.7818608E-02  0.1021972E+00
         -2   -1    0    0    0  501 -0.00000000000E+00  0.00000000000E+00  0.76688406124E+02  0.76688406166E+02  0.25500000000E-02 0.  1.
          2   -1    0    0  501    0  0.00000000000E+00 -0.00000000000E+00 -0.39486922775E+04  0.39486922775E+04  0.25500000000E-02 0. -1.
    8880023    1    1    2    0    0  0.49045271310E+02  0.48421304049E+02 -0.37728161569E+04  0.38304963153E+04  0.65864270000E+03 0. -1.
    8880022    1    1    2    0    0 -0.49045271310E+02 -0.48421304049E+02 -0.99187714471E+02  0.19488436838E+03  0.15294330000E+03 0.  0.
<mgrwt>
<rscale>  0 0.46981816E+03</rscale>
<asrwt>0</asrwt>
<pdfrwt beam="1">  1        2 0.60749096E+00 0.66223883E+03</pdfrwt>
<pdfrwt beam="2">  1       -2 0.11798219E-01 0.66223883E+03</pdfrwt>
<totfact> 0.21997617E+01</totfact>
</mgrwt>
</event>
<event>
 4    1  0.7280516E-007  0.6642563E+03  0.7818608E-02  0.1020166E+00
          2   -1    0    0  501    0  0.00000000000E+00  0.00000000000E+00  0.11295851971E+04  0.11295851971E+04  0.25500000000E-02 0. -1.
         -2   -1    0    0    0  501 -0.00000000000E+00 -0.00000000000E+00 -0.21791988008E+03  0.21791988010E+03  0.25500000000E-02 0.  1.
    8880023    1    1    2    0    0  0.37338760954E+02  0.77666465648E+02  0.95816813970E+03  0.11658999327E+04  0.65864270000E+03 0.  0.
    8880022    1    1    2    0    0 -0.37338760954E+02 -0.77666465648E+02 -0.46502822698E+02  0.18160514445E+03  0.15294330000E+03 0.  0.
<mgrwt>
<rscale>  0 0.47626886E+03</rscale>
<asrwt>0</asrwt>
<pdfrwt beam="1">  1        2 0.17378234E+00 0.66425633E+03</pdfrwt>
<pdfrwt beam="2">  1       -2 0.33526135E-01 0.66425633E+03</pdfrwt>
<totfact> 0.17680485E+02</totfact>
</mgrwt>
</event>
<event>
 4    1  0.7280516E-007  0.7595848E+03  0.7818608E-02  0.9806184E-01
          2   -1    0    0  501    0  0.00000000000E+00  0.00000000000E+00  0.14233895865E+04  0.14233895865E+04  0.25500000000E-02 0. -1.
         -2   -1    0    0    0  501 -0.00000000000E+00 -0.00000000000E+00 -0.57763416672E+03  0.57763416673E+03  0.25500000000E-02 0.  1.
    8880023    1    1    2    0    0 -0.14829555863E+03 -0.34809094665E+03  0.12266471544E+04  0.14427863070E+04  0.65864270000E+03 0. -1.
    8880022    1    1    2    0    0  0.14829555863E+03  0.34809094665E+03 -0.38089173465E+03  0.55823744625E+03  0.15294330000E+03 0.  0.
<mgrwt>
<rscale>  0 0.65031752E+03</rscale>
<asrwt>0</asrwt>
<pdfrwt beam="1">  1        2 0.21898302E+00 0.75958481E+03</pdfrwt>
<pdfrwt beam="2">  1       -2 0.88866794E-01 0.75958481E+03</pdfrwt>
<totfact> 0.15599531E+01</totfact>
</mgrwt>
</event>
<event>
 4    1  0.7280516E-007  0.8226492E+03  0.7818608E-02  0.9663808E-01
         -2   -1    0    0    0  501 -0.00000000000E+00  0.00000000000E+00  0.20265653989E+03  0.20265653991E+03  0.25500000000E-02 0.  1.
          2   -1    0    0  501    0  0.00000000000E+00 -0.00000000000E+00 -0.31061370838E+04  0.31061370838E+04  0.25500000000E-02 0. -1.
    8880023    1    1    2    0    0 -0.22733746235E+03 -0.43733179960E+03 -0.25598323877E+04  0.26887717427E+04  0.65864270000E+03 0.  0.
    8880022    1    1    2    0    0  0.22733746235E+03  0.43733179960E+03 -0.34364815626E+03  0.62002188110E+03  0.15294330000E+03 0.  0.
<mgrwt>
<rscale>  0 0.73213156E+03</rscale>
<asrwt>0</asrwt>
<pdfrwt beam="1">  1        2 0.47786721E+00 0.82264915E+03</pdfrwt>
<pdfrwt beam="2">  1       -2 0.31177931E-01 0.82264915E+03</pdfrwt>
<totfact> 0.14955972E+01</totfact>
</mgrwt>
</event>
<event>
 4    1  0.7280516E-007  0.7565740E+03  0.7818608E-02  0.9814059E-01
         -2   -1    0    0    0  501 -0.00000000000E+00  0.00000000000E+00  0.19409705394E+03  0.19409705396E+03  0.25500000000E-02 0.  1.
          2   -1    0    0  501    0  0.00000000000E+00 -0.00000000000E+00 -0.27737336595E+04  0.27737336595E+04  0.25500000000E-02 0. -1.
    8880023    1    1    2    0    0 -0.37172200820E+03 -0.20413159614E+02 -0.65239153699E+03  0.99900894504E+03  0.65864270000E+03 0.  1.
    8880022    1    1    2    0    0  0.37172200820E+03  0.20413159614E+02 -0.19272450686E+04  0.19688217684E+04  0.15294330000E+03 0.  0.
<mgrwt>
<rscale>  0 0.64613474E+03</rscale>
<asrwt>0</asrwt>
<pdfrwt beam="1">  1        2 0.42672823E+00 0.75657396E+03</pdfrwt>
<pdfrwt beam="2">  1       -2 0.29861087E-01 0.75657396E+03</pdfrwt>
<totfact> 0.26048508E+01</totfact>
</mgrwt>
</event>
<event>
 4    1  0.7280516E-007  0.7286557E+03  0.7818608E-02  0.9894317E-01
          2   -1    0    0  501    0  0.00000000000E+00  0.00000000000E+00  0.36206516990E+03  0.36206516991E+03  0.25500000000E-02 0. -1.
         -2   -1    0    0    0  501 -0.00000000000E+00 -0.00000000000E+00 -0.95328566814E+03  0.95328566814E+03  0.25500000000E-02 0.  1.
    8880023    1    1    2    0    0 -0.30012670107E+03  0.83981240135E+02 -0.13336149536E+03  0.74075932670E+03  0.65864270000E+03 0.  0.
    8880022    1    1    2    0    0  0.30012670107E+03 -0.83981240135E+02 -0.45785900287E+03  0.57459151135E+03  0.15294330000E+03 0.  0.
<mgrwt>
<rscale>  0 0.60537488E+03</rscale>
<asrwt>0</asrwt>
<pdfrwt beam="1">  1        2 0.55702334E-01 0.72865567E+03</pdfrwt>
<pdfrwt beam="2">  1       -2 0.14665933E+00 0.72865567E+03</pdfrwt>
<totfact> 0.28683392E+01</totfact>
</mgrwt>
</event>
<event>
 4    1  0.7280516E-007  0.8502517E+03  0.7818608E-02  0.9611145E-01
          2   -1    0    0  501    0  0.00000000000E+00  0.00000000000E+00  0.53999328824E+04  0.53999328824E+04  0.25500000000E-02 0. -1.
         -2   -1    0    0    0  501 -0.00000000000E+00 -0.00000000000E+00 -0.11528698524E+03  0.11528698527E+03  0.25500000000E-02 0.  1.
    8880023    1    1    2    0    0  0.21418930626E+03  0.49319439214E+03  0.42972429006E+04  0.43805507098E+04  0.65864270000E+03 0.  0.
    8880022    1    1    2    0    0 -0.21418930626E+03 -0.49319439214E+03  0.98740299649E+03  0.11346691579E+04  0.15294330000E+03 0.  0.
<mgrwt>
<rscale>  0 0.76562927E+03</rscale>
<asrwt>0</asrwt>
<pdfrwt beam="1">  1        2 0.83075893E+00 0.85025171E+03</pdfrwt>
<pdfrwt beam="2">  1       -2 0.17736459E-01 0.85025171E+03</pdfrwt>
<totfact> 0.27915455E-01</totfact>
</mgrwt>
</event>
<event>
 4    1  0.7280516E-007  0.8023517E+03  0.7818608E-02  0.9705734E-01
          2   -1    0    0  501    0  0.00000000000E+00  0.00000000000E+00  0.18798408597E+04  0.18798408597E+04  0.25500000000E-02 0. -1.
         -2   -1    0    0    0  501 -0.00000000000E+00 -0.00000000000E+00 -0.24033789148E+03  0.24033789150E+03  0.25500000000E-02 0.  1.
    8880023    1    1    2    0    0  0.23099849942E+03 -0.39572428474E+03  0.13073970843E+04  0.15339671960E+04  0.65864270000E+03 0.  0.
    8880022    1    1    2    0    0 -0.23099849942E+03  0.39572428474E+03  0.33210588399E+03  0.58621155521E+03  0.15294330000E+03 0.  0.
<mgrwt>
<rscale>  0 0.70676409E+03</rscale>
<asrwt>0</asrwt>
<pdfrwt beam="1">  1        2 0.28920628E+00 0.80235168E+03</pdfrwt>
<pdfrwt beam="2">  1       -2 0.36975061E-01 0.80235168E+03</pdfrwt>
<totfact> 0.54848768E+01</totfact>
</mgrwt>
</event>
<event>
 4    1  0.7280516E-007  0.7625254E+03  0.7818608E-02  0.9798613E-01
         -2   -1    0    0    0  501 -0.00000000000E+00  0.00000000000E+00  0.15619479018E+04  0.15619479018E+04  0.25500000000E-02 0.  1.
          2   -1    0    0  501    0  0.00000000000E+00 -0.00000000000E+00 -0.60843055890E+03  0.60843055891E+03  0.25500000000E-02 0. -1.
    8880023    1    1    2    0    0 -0.31387084770E+03 -0.22162999711E+03 -0.32331910346E+03  0.82823922485E+03  0.65864270000E+03 0. -1.
    8880022    1    1    2    0    0  0.31387084770E+03  0.22162999711E+03  0.12768364463E+04  0.13421392358E+04  0.15294330000E+03 0.  0.
<mgrwt>
<rscale>  0 0.65437038E+03</rscale>
<asrwt>0</asrwt>
<pdfrwt beam="1">  1        2 0.93604703E-01 0.76252539E+03</pdfrwt>
<pdfrwt beam="2">  1       -2 0.24029967E+00 0.76252539E+03</pdfrwt>
<totfact> 0.36906024E+00</totfact>
</mgrwt>
</event>
<event>
 4    1  0.7280516E-007  0.9454864E+03  0.7818608E-02  0.9456638E-01
         -2   -1    0    0    0  501 -0.00000000000E+00  0.00000000000E+00  0.72206170196E+03  0.72206170197E+03  0.25500000000E-02 0.  1.
          2   -1    0    0  501    0  0.00000000000E+00 -0.00000000000E+00 -0.12922347004E+04  0.12922347004E+04  0.25500000000E-02 0. -1.
    8880023    1    1    2    0    0 -0.67830059288E+03  0.65252344136E+01 -0.84358511121E+03  0.12671149589E+04  0.65864270000E+03 0.  0.
    8880022    1    1    2    0    0  0.67830059288E+03 -0.65252344136E+01  0.27341211278E+03  0.74718144344E+03  0.15294330000E+03 0.  0.
<mgrwt>
<rscale>  0 0.87557615E+03</rscale>
<asrwt>0</asrwt>
<pdfrwt beam="1">  1        2 0.19880534E+00 0.94548637E+03</pdfrwt>
<pdfrwt beam="2">  1       -2 0.11108642E+00 0.94548637E+03</pdfrwt>
<totfact> 0.10704790E+01</totfact>
</mgrwt>
</event>
<event>
 4    1  0.7280516E-007  0.7561611E+03  0.7818608E-02  0.9815149E-01
          2   -1    0    0  501    0  0.00000000000E+00  0.00000000000E+00  0.14259317691E+04  0.14259317691E+04  0.25500000000E-02 0. -1.
         -2   -1    0    0    0  501 -0.00000000000E+00 -0.00000000000E+00 -0.43374406433E+03  0.43374406433E+03  0.25500000000E-02 0.  1.
    8880023    1    1    2    0    0 -0.31970724704E+03 -0.18909434220E+03  0.11915474143E+04  0.14112281321E+04  0.65864270000E+03 0.  0.
    8880022    1    1    2    0    0  0.31970724704E+03  0.18909434220E+03 -0.19935970950E+03  0.44844770135E+03  0.15294330000E+03 0.  0.
<mgrwt>
<rscale>  0 0.64555847E+03</rscale>
<asrwt>0</asrwt>
<pdfrwt beam="1">  1        2 0.21937412E+00 0.75616109E+03</pdfrwt>
<pdfrwt beam="2">  1       -2 0.66729855E-01 0.75616109E+03</pdfrwt>
<totfact> 0.29465212E+01</totfact>
</mgrwt>
</event>
<event>
 4    1  0.7280516E-007  0.6923392E+03  0.7818608E-02  0.1003060E+00
          2   -1    0    0  501    0  0.00000000000E+00  0.00000000000E+00  0.16325980752E+04  0.16325980752E+04  0.25500000000E-02 0. -1.
         -2   -1    0    0    0  501 -0.00000000000E+00 -0.00000000000E+00 -0.23490461815E+03  0.23490461817E+03  0.25500000000E-02 0.  1.
    8880023    1    1    2    0    0  0.17157693205E+03  0.12682542566E+03  0.14435692456E+04  0.16010077156E+04  0.65864270000E+03 0. -1.
    8880022    1    1    2    0    0 -0.17157693205E+03 -0.12682542566E+03 -0.45875788553E+02  0.26649497780E+03  0.15294330000E+03 0.  0.
<mgrwt>
<rscale>  0 0.54328584E+03</rscale>
<asrwt>0</asrwt>
<pdfrwt beam="1">  1        2 0.25116894E+00 0.69233918E+03</pdfrwt>
<pdfrwt beam="2">  1       -2 0.36139171E-01 0.69233918E+03</pdfrwt>
<totfact> 0.79145950E+01</totfact>
</mgrwt>
</event>
<event>
 4    1  0.7280516E-007  0.1059535E+04  0.7818608E-02  0.9307506E-01
         -2   -1    0    0    0  501 -0.00000000000E+00  0.00000000000E+00  0.51577918697E+03  0.51577918698E+03  0.25500000000E-02 0.  1.
          2   -1    0    0  501    0  0.00000000000E+00 -0.00000000000E+00 -0.29474223388E+04  0.29474223388E+04  0.25500000000E-02 0. -1.
    8880023    1    1    2    0    0  0.81872736424E+03 -0.13597894002E+03 -0.23945275054E+04  0.26184684358E+04  0.65864270000E+03 0.  0.
    8880022    1    1    2    0    0 -0.81872736424E+03  0.13597894002E+03 -0.37115646458E+02  0.84473308998E+03  0.15294330000E+03 0.  0.
<mgrwt>
<rscale>  0 0.10009480E+04</rscale>
<asrwt>0</asrwt>
<pdfrwt beam="1">  1        2 0.45344958E+00 0.10595353E+04</pdfrwt>
<pdfrwt beam="2">  1       -2 0.79350646E-01 0.10595353E+04</pdfrwt>
<totfact> 0.26732898E+00</totfact>
</mgrwt>
</event>
<event>
 4    1  0.7280516E-007  0.9191780E+03  0.7818608E-02  0.9495920E-01
          2   -1    0    0  501    0  0.00000000000E+00  0.00000000000E+00  0.14744590847E+04  0.14744590847E+04  0.25500000000E-02 0. -1.
         -2   -1    0    0    0  501 -0.00000000000E+00 -0.00000000000E+00 -0.55905615112E+03  0.55905615112E+03  0.25500000000E-02 0.  1.
    8880023    1    1    2    0    0 -0.46875608279E+03 -0.43743086733E+03  0.10122326883E+04  0.13672977914E+04  0.65864270000E+03 0. -1.
    8880022    1    1    2    0    0  0.46875608279E+03  0.43743086733E+03 -0.96829754697E+02  0.66621744443E+03  0.15294330000E+03 0.  1.
<mgrwt>
<rscale>  0 0.84585254E+03</rscale>
<asrwt>0</asrwt>
<pdfrwt beam="1">  1        2 0.22683985E+00 0.91917802E+03</pdfrwt>
<pdfrwt beam="2">  1       -2 0.86008640E-01 0.91917802E+03</pdfrwt>
<totfact> 0.15459687E+01</totfact>
</mgrwt>
</event>
<event>
 4    1  0.7280516E-007  0.6637111E+03  0.7818608E-02  0.1020640E+00
          2   -1    0    0  501    0  0.00000000000E+00  0.00000000000E+00  0.13706239330E+04  0.13706239330E+04  0.25500000000E-02 0. -1.
         -2   -1    0    0    0  501 -0.00000000000E+00 -0.00000000000E+00 -0.15623904798E+03  0.15623904800E+03  0.25500000000E-02 0.  1.
    8880023    1    1    2    0    0 -0.40050905166E+02  0.71401426567E+02  0.11741919506E+04  0.13487917489E+04  0.65864270000E+03 0. -1.
    8880022    1    1    2    0    0  0.40050905166E+02 -0.71401426567E+02  0.40192934437E+02  0.17807123213E+03  0.15294330000E+03 0. -1.
<mgrwt>
<rscale>  0 0.47456326E+03</rscale>
<asrwt>0</asrwt>
<pdfrwt beam="1">  1        2 0.21086522E+00 0.66371112E+03</pdfrwt>
<pdfrwt beam="2">  1       -2 0.24036777E-01 0.66371112E+03</pdfrwt>
<totfact> 0.23583018E+02</totfact>
</mgrwt>
</event>
<event>
 4    1  0.7280516E-007  0.7830320E+03  0.7818608E-02  0.9748762E-01
         -2   -1    0    0    0  501 -0.00000000000E+00  0.00000000000E+00  0.25822685035E+03  0.25822685037E+03  0.25500000000E-02 0.  1.
          2   -1    0    0  501    0  0.00000000000E+00 -0.00000000000E+00 -0.22252381707E+04  0.22252381707E+04  0.25500000000E-02 0. -1.
    8880023    1    1    2    0    0 -0.20588266929E+03 -0.37005575809E+03 -0.18637083508E+04  0.20215211997E+04  0.65864270000E+03 0. -1.
    8880022    1    1    2    0    0  0.20588266929E+03  0.37005575809E+03 -0.10330296956E+03  0.46194382141E+03  0.15294330000E+03 0.  0.
<mgrwt>
<rscale>  0 0.68186261E+03</rscale>
<asrwt>0</asrwt>
<pdfrwt beam="1">  1        2 0.34234432E+00 0.78303202E+03</pdfrwt>
<pdfrwt beam="2">  1       -2 0.39727209E-01 0.78303202E+03</pdfrwt>
<totfact> 0.30929024E+01</totfact>
</mgrwt>
</event>
<event>
 4    1  0.7280516E-007  0.8964376E+03  0.7818608E-02  0.9531775E-01
         -2   -1    0    0    0  501 -0.00000000000E+00  0.00000000000E+00  0.14098470839E+04  0.14098470839E+04  0.25500000000E-02 0.  1.
          2   -1    0    0  501    0  0.00000000000E+00 -0.00000000000E+00 -0.11025856553E+04  0.11025856553E+04  0.25500000000E-02 0. -1.
    8880023    1    1    2    0    0  0.26179813380E+03 -0.54886417586E+03 -0.82490370813E+03  0.12182226727E+04  0.65864270000E+03 0. -1.
    8880022    1    1    2    0    0 -0.26179813380E+03  0.54886417586E+03  0.11321651367E+04  0.12942100665E+04  0.15294330000E+03 0.  0.
<mgrwt>
<rscale>  0 0.81981190E+03</rscale>
<asrwt>0</asrwt>
<pdfrwt beam="1">  1        2 0.16962856E+00 0.89643759E+03</pdfrwt>
<pdfrwt beam="2">  1       -2 0.21689955E+00 0.89643759E+03</pdfrwt>
<totfact> 0.22595051E+00</totfact>
</mgrwt>
</event>
<event>
 4    1  0.7280516E-007  0.6677244E+03  0.7818608E-02  0.1017350E+00
         -2   -1    0    0    0  501 -0.00000000000E+00  0.00000000000E+00  0.78851752749E+03  0.78851752750E+03  0.25500000000E-02 0.  1.
          2   -1    0    0  501    0  0.00000000000E+00 -0.00000000000E+00 -0.36003879900E+03  0.36003879901E+03  0.25500000000E-02 0. -1.
    8880023    1    1    2    0    0 -0.10959671468E+03 -0.58462844888E+01 -0.13816064397E+02  0.66786728383E+03  0.65864270000E+03 0. -1.
    8880022    1    1    2    0    0  0.10959671468E+03  0.58462844888E+01  0.44229479289E+03  0.48068904267E+03  0.15294330000E+03 0.  0.
<mgrwt>
<rscale>  0 0.48655333E+03</rscale>
<asrwt>0</asrwt>
<pdfrwt beam="1">  1        2 0.55390585E-01 0.66772436E+03</pdfrwt>
<pdfrwt beam="2">  1       -2 0.12131039E+00 0.66772436E+03</pdfrwt>
<totfact> 0.47032441E+01</totfact>
</mgrwt>
</event>
<event>
 4    1  0.7280516E-007  0.6676241E+03  0.7818608E-02  0.1017427E+00
         -2   -1    0    0    0  501 -0.00000000000E+00  0.00000000000E+00  0.24084678682E+03  0.24084678683E+03  0.25500000000E-02 0.  1.
          2   -1    0    0  501    0  0.00000000000E+00 -0.00000000000E+00 -0.18638694180E+04  0.18638694180E+04  0.25500000000E-02 0. -1.
    8880023    1    1    2    0    0  0.10451772236E+03  0.31428528854E+02 -0.17532795981E+04  0.18760893534E+04  0.65864270000E+03 0. -1.
    8880022    1    1    2    0    0 -0.10451772236E+03 -0.31428528854E+02  0.13025696695E+03  0.22862685137E+03  0.15294330000E+03 0.  0.
<mgrwt>
<rscale>  0 0.48626835E+03</rscale>
<asrwt>0</asrwt>
<pdfrwt beam="1">  1        2 0.28674913E+00 0.66762408E+03</pdfrwt>
<pdfrwt beam="2">  1       -2 0.37053353E-01 0.66762408E+03</pdfrwt>
<totfact> 0.56613503E+01</totfact>
</mgrwt>
</event>
<event>
 4    1  0.7280516E-007  0.7243088E+03  0.7818608E-02  0.9908267E-01
         -2   -1    0    0    0  501 -0.00000000000E+00  0.00000000000E+00  0.28085453468E+03  0.28085453469E+03  0.25500000000E-02 0.  1.
          2   -1    0    0  501    0  0.00000000000E+00 -0.00000000000E+00 -0.15905459721E+04  0.15905459721E+04  0.25500000000E-02 0. -1.
    8880023    1    1    2    0    0 -0.42280838952E+02 -0.29837116075E+03 -0.13490290564E+04  0.15311768742E+04  0.65864270000E+03 0. -1.
    8880022    1    1    2    0    0  0.42280838952E+02  0.29837116075E+03  0.39337618930E+02  0.34022363261E+03  0.15294330000E+03 0.  1.
<mgrwt>
<rscale>  0 0.59862287E+03</rscale>
<asrwt>0</asrwt>
<pdfrwt beam="1">  1        2 0.24469938E+00 0.72430879E+03</pdfrwt>
<pdfrwt beam="2">  1       -2 0.43208391E-01 0.72430879E+03</pdfrwt>
<totfact> 0.58770661E+01</totfact>
</mgrwt>
</event>
<event>
 4    1  0.7280516E-007  0.8707985E+03  0.7818608E-02  0.9574636E-01
         -2   -1    0    0    0  501 -0.00000000000E+00  0.00000000000E+00  0.55103193768E+03  0.55103193768E+03  0.25500000000E-02 0.  1.
          2   -1    0    0  501    0  0.00000000000E+00 -0.00000000000E+00 -0.37822586666E+04  0.37822586666E+04  0.25500000000E-02 0. -1.
    8880023    1    1    2    0    0 -0.54401758077E+03 -0.16889245106E+03 -0.35552496547E+04  0.36603401620E+04  0.65864270000E+03 0. -1.
    8880022    1    1    2    0    0  0.54401758077E+03  0.16889245106E+03  0.32402292582E+03  0.67295044222E+03  0.15294330000E+03 0.  0.
<mgrwt>
<rscale>  0 0.78997909E+03</rscale>
<asrwt>0</asrwt>
<pdfrwt beam="1">  1        2 0.58188593E+00 0.87079848E+03</pdfrwt>
<pdfrwt beam="2">  1       -2 0.84774147E-01 0.87079848E+03</pdfrwt>
<totfact> 0.65797569E-01</totfact>
</mgrwt>
</event>
<event>
 4    1  0.7280516E-007  0.6678546E+03  0.7818608E-02  0.1017250E+00
         -2   -1    0    0    0  501 -0.00000000000E+00  0.00000000000E+00  0.83919858900E+03  0.83919858900E+03  0.25500000000E-02 0.  1.
          2   -1    0    0  501    0  0.00000000000E+00 -0.00000000000E+00 -0.50208858573E+03  0.50208858573E+03  0.25500000000E-02 0. -1.
    8880023    1    1    2    0    0  0.10105937323E+03  0.44794070534E+02 -0.25877420681E+03  0.71623585644E+03  0.65864270000E+03 0. -1.
    8880022    1    1    2    0    0 -0.10105937323E+03 -0.44794070534E+02  0.59588421008E+03  0.62505131830E+03  0.15294330000E+03 0.  0.
<mgrwt>
<rscale>  0 0.48692232E+03</rscale>
<asrwt>0</asrwt>
<pdfrwt beam="1">  1        2 0.77244398E-01 0.66785456E+03</pdfrwt>
<pdfrwt beam="2">  1       -2 0.12910747E+00 0.66785456E+03</pdfrwt>
<totfact> 0.27612395E+01</totfact>
</mgrwt>
</event>
<event>
 4    1  0.7280516E-007  0.7925035E+03  0.7818608E-02  0.9727246E-01
          2   -1    0    0  501    0  0.00000000000E+00  0.00000000000E+00  0.20946491932E+04  0.20946491932E+04  0.25500000000E-02 0. -1.
         -2   -1    0    0    0  501 -0.00000000000E+00 -0.00000000000E+00 -0.36382875666E+03  0.36382875667E+03  0.25500000000E-02 0.  1.
    8880023    1    1    2    0    0 -0.42999481670E+03  0.96726992706E+02  0.18185935358E+04  0.19837702257E+04  0.65864270000E+03 0. -1.
    8880022    1    1    2    0    0  0.42999481670E+03 -0.96726992706E+02 -0.87773099218E+02  0.47470772425E+03  0.15294330000E+03 0.  0.
<mgrwt>
<rscale>  0 0.69417517E+03</rscale>
<asrwt>0</asrwt>
<pdfrwt beam="1">  1        2 0.32225373E+00 0.79250354E+03</pdfrwt>
<pdfrwt beam="2">  1       -2 0.55973654E-01 0.79250354E+03</pdfrwt>
<totfact> 0.18271055E+01</totfact>
</mgrwt>
</event>
<event>
 4    1  0.7280516E-007  0.6993313E+03  0.7818608E-02  0.9999986E-01
         -2   -1    0    0    0  501 -0.00000000000E+00  0.00000000000E+00  0.26854241703E+03  0.26854241704E+03  0.25500000000E-02 0.  1.
          2   -1    0    0  501    0  0.00000000000E+00 -0.00000000000E+00 -0.32739553339E+04  0.32739553339E+04  0.25500000000E-02 0. -1.
    8880023    1    1    2    0    0 -0.14779008193E+03  0.18278996977E+03 -0.31501985699E+04  0.32268894182E+04  0.65864270000E+03 0. -1.
    8880022    1    1    2    0    0  0.14779008193E+03 -0.18278996977E+03  0.14478565301E+03  0.31560833274E+03  0.15294330000E+03 0.  0.
<mgrwt>
<rscale>  0 0.55650828E+03</rscale>
<asrwt>0</asrwt>
<pdfrwt beam="1">  1        2 0.50368541E+00 0.69933131E+03</pdfrwt>
<pdfrwt beam="2">  1       -2 0.41314220E-01 0.69933131E+03</pdfrwt>
<totfact> 0.69807165E+00</totfact>
</mgrwt>
</event>
<event>
 4    1  0.7974409E-007  0.1261030E+04  0.7818608E-02  0.9099965E-01
         -2   -1    0    0    0  501 -0.00000000000E+00  0.00000000000E+00  0.13412374131E+04  0.13412374131E+04  0.25500000000E-02 0.  1.
          2   -1    0    0  501    0  0.00000000000E+00 -0.00000000000E+00 -0.23346375785E+04  0.23346375785E+04  0.25500000000E-02 0. -1.
    8880023    1    1    2    0    0  0.50475499856E+03  0.94953113060E+03 -0.18868504852E+04  0.22694496990E+04  0.65864270000E+03 0.  0.
    8880022    1    1    2    0    0 -0.50475499856E+03 -0.94953113060E+03  0.89345031982E+03  0.14064252926E+04  0.15294330000E+03 0.  0.
<mgrwt>
<rscale>  0 0.12148403E+04</rscale>
<asrwt>0</asrwt>
<pdfrwt beam="1">  1        2 0.35917501E+00 0.12610302E+04</pdfrwt>
<pdfrwt beam="2">  1       -2 0.20634422E+00 0.12610302E+04</pdfrwt>
<totfact> 0.50602214E-01</totfact>
</mgrwt>
</event>
<event>
 4    1  0.7280516E-007  0.7615400E+03  0.7818608E-02  0.9801137E-01
          2   -1    0    0  501    0  0.00000000000E+00  0.00000000000E+00  0.90117912678E+03  0.90117912678E+03  0.25500000000E-02 0. -1.
         -2   -1    0    0    0  501 -0.00000000000E+00 -0.00000000000E+00 -0.43042522659E+03  0.43042522660E+03  0.25500000000E-02 0.  1.
    8880023    1    1    2    0    0 -0.75820576254E+02  0.37467888763E+03  0.51223814639E+03  0.91778600638E+03  0.65864270000E+03 0. -1.
    8880022    1    1    2    0    0  0.75820576254E+02 -0.37467888763E+03 -0.41484246200E+02  0.41381834700E+03  0.15294330000E+03 0.  1.
<mgrwt>
<rscale>  0 0.65301578E+03</rscale>
<asrwt>0</asrwt>
<pdfrwt beam="1">  1        2 0.13864294E+00 0.76154004E+03</pdfrwt>
<pdfrwt beam="2">  1       -2 0.66219266E-01 0.76154004E+03</pdfrwt>
<totfact> 0.62197714E+01</totfact>
</mgrwt>
</event>
<event>
 4    1  0.7280516E-007  0.9295244E+03  0.7818608E-02  0.9480207E-01
          2   -1    0    0  501    0  0.00000000000E+00  0.00000000000E+00  0.75971856001E+03  0.75971856001E+03  0.25500000000E-02 0. -1.
         -2   -1    0    0    0  501 -0.00000000000E+00 -0.00000000000E+00 -0.86088893591E+03  0.86088893592E+03  0.25500000000E-02 0.  1.
    8880023    1    1    2    0    0  0.64051854168E+03  0.14121399801E+03  0.48099273656E+02  0.93076803870E+03  0.65864270000E+03 0.  0.
    8880022    1    1    2    0    0 -0.64051854168E+03 -0.14121399801E+03 -0.14926964956E+03  0.68983945724E+03  0.15294330000E+03 0.  0.
<mgrwt>
<rscale>  0 0.85758934E+03</rscale>
<asrwt>0</asrwt>
<pdfrwt beam="1">  1        2 0.11687978E+00 0.92952440E+03</pdfrwt>
<pdfrwt beam="2">  1       -2 0.13244445E+00 0.92952440E+03</pdfrwt>
<totfact> 0.15249929E+01</totfact>
</mgrwt>
</event>
<event>
 4    1  0.7280516E-007  0.7056849E+03  0.7818608E-02  0.9974388E-01
         -2   -1    0    0    0  501 -0.00000000000E+00  0.00000000000E+00  0.56428628368E+03  0.56428628369E+03  0.25500000000E-02 0.  1.
          2   -1    0    0  501    0  0.00000000000E+00 -0.00000000000E+00 -0.12392295105E+04  0.12392295105E+04  0.25500000000E-02 0. -1.
    8880023    1    1    2    0    0 -0.12028132491E+03  0.22296499551E+03 -0.10871376926E+04  0.12960939608E+04  0.65864270000E+03 0. -1.
    8880022    1    1    2    0    0  0.12028132491E+03 -0.22296499551E+03  0.41219446579E+03  0.50742183337E+03  0.15294330000E+03 0.  0.
<mgrwt>
<rscale>  0 0.56787687E+03</rscale>
<asrwt>0</asrwt>
<pdfrwt beam="1">  1        2 0.19065069E+00 0.70568491E+03</pdfrwt>
<pdfrwt beam="2">  1       -2 0.86813275E-01 0.70568491E+03</pdfrwt>
<totfact> 0.21121247E+01</totfact>
</mgrwt>
</event>
<event>
 4    1  0.7280516E-007  0.6845638E+03  0.7818608E-02  0.1006852E+00
          2   -1    0    0  501    0  0.00000000000E+00  0.00000000000E+00  0.26086468833E+04  0.26086468833E+04  0.25500000000E-02 0. -1.
         -2   -1    0    0    0  501 -0.00000000000E+00 -0.00000000000E+00 -0.16288342792E+03  0.16288342794E+03  0.25500000000E-02 0.  1.
    8880023    1    1    2    0    0  0.17985501710E+03  0.49694144115E+02  0.24356821791E+04  0.25300543905E+04  0.65864270000E+03 0. -1.
    8880022    1    1    2    0    0 -0.17985501710E+03 -0.49694144115E+02  0.10081276258E+02  0.24147592071E+03  0.15294330000E+03 0.  0.
<mgrwt>
<rscale>  0 0.52745351E+03</rscale>
<asrwt>0</asrwt>
<pdfrwt beam="1">  1        2 0.40133029E+00 0.68456376E+03</pdfrwt>
<pdfrwt beam="2">  1       -2 0.25058989E-01 0.68456376E+03</pdfrwt>
<totfact> 0.45250536E+01</totfact>
</mgrwt>
</event>
<event>
 4    1  0.7280516E-007  0.6700151E+03  0.7818608E-02  0.1015652E+00
          2   -1    0    0  501    0  0.00000000000E+00  0.00000000000E+00  0.36918410713E+03  0.36918410713E+03  0.25500000000E-02 0. -1.
         -2   -1    0    0    0  501 -0.00000000000E+00 -0.00000000000E+00 -0.14029253092E+04  0.14029253092E+04  0.25500000000E-02 0.  1.
    8880023    1    1    2    0    0 -0.12222738234E+03 -0.13056944344E+02  0.48931564464E+02  0.67179946491E+03  0.65864270000E+03 0. -1.
    8880022    1    1    2    0    0  0.12222738234E+03  0.13056944344E+02 -0.10826727665E+04  0.11003099514E+04  0.15294330000E+03 0.  0.
<mgrwt>
<rscale>  0 0.49288816E+03</rscale>
<asrwt>0</asrwt>
<pdfrwt beam="1">  1        2 0.56797556E-01 0.67001509E+03</pdfrwt>
<pdfrwt beam="2">  1       -2 0.21583466E+00 0.67001509E+03</pdfrwt>
<totfact> 0.94188193E+00</totfact>
</mgrwt>
</event>
<event>
 4    1  0.7280516E-007  0.1203821E+04  0.7818608E-02  0.9153417E-01
          2   -1    0    0  501    0  0.00000000000E+00  0.00000000000E+00  0.20678677789E+04  0.20678677789E+04  0.25500000000E-02 0. -1.
         -2   -1    0    0    0  501 -0.00000000000E+00 -0.00000000000E+00 -0.98069249791E+03  0.98069249792E+03  0.25500000000E-02 0.  1.
    8880023    1    1    2    0    0  0.98338496792E+03  0.21983967322E+03 -0.37977412575E+03  0.12623050621E+04  0.65864270000E+03 0. -1.
    8880022    1    1    2    0    0 -0.98338496792E+03 -0.21983967322E+03  0.14669494068E+04  0.17862552147E+04  0.15294330000E+03 0.  0.
<mgrwt>
<rscale>  0 0.11547455E+04</rscale>
<asrwt>0</asrwt>
<pdfrwt beam="1">  1        2 0.31813350E+00 0.12038213E+04</pdfrwt>
<pdfrwt beam="2">  1       -2 0.15087577E+00 0.12038213E+04</pdfrwt>
<totfact> 0.17583868E+00</totfact>
</mgrwt>
</event>
<event>
 4    1  0.7280516E-007  0.8547307E+03  0.7818608E-02  0.9603006E-01
          2   -1    0    0  501    0  0.00000000000E+00  0.00000000000E+00  0.54891372984E+03  0.54891372985E+03  0.25500000000E-02 0. -1.
         -2   -1    0    0    0  501 -0.00000000000E+00 -0.00000000000E+00 -0.11745837731E+04  0.11745837731E+04  0.25500000000E-02 0.  1.
    8880023    1    1    2    0    0  0.22396317389E+03  0.49658317286E+03  0.32752480104E+02  0.85535798473E+03  0.65864270000E+03 0. -1.
    8880022    1    1    2    0    0 -0.22396317389E+03 -0.49658317286E+03 -0.65842252337E+03  0.86813951823E+03  0.15294330000E+03 0.  1.
<mgrwt>
<rscale>  0 0.77097534E+03</rscale>
<asrwt>0</asrwt>
<pdfrwt beam="1">  1        2 0.84448267E-01 0.85473069E+03</pdfrwt>
<pdfrwt beam="2">  1       -2 0.18070519E+00 0.85473069E+03</pdfrwt>
<totfact> 0.99585082E+00</totfact>
</mgrwt>
</event>
<event>
 4    1  0.7280516E-007  0.7319715E+03  0.7818608E-02  0.9883983E-01
          2   -1    0    0  501    0  0.00000000000E+00  0.00000000000E+00  0.17348813560E+04  0.17348813560E+04  0.25500000000E-02 0. -1.
         -2   -1    0    0    0  501 -0.00000000000E+00 -0.00000000000E+00 -0.27947669873E+03  0.27947669874E+03  0.25500000000E-02 0.  1.
    8880023    1    1    2    0    0  0.12448095227E+03  0.29406895771E+03  0.14885085414E+04  0.16587464977E+04  0.65864270000E+03 0. -1.
    8880022    1    1    2    0    0 -0.12448095227E+03 -0.29406895771E+03 -0.33103884147E+02  0.35561155708E+03  0.15294330000E+03 0.  0.
<mgrwt>
<rscale>  0 0.61043877E+03</rscale>
<asrwt>0</asrwt>
<pdfrwt beam="1">  1        2 0.26690482E+00 0.73197149E+03</pdfrwt>
<pdfrwt beam="2">  1       -2 0.42996416E-01 0.73197149E+03</pdfrwt>
<totfact> 0.49418978E+01</totfact>
</mgrwt>
</event>
<event>
 4    1  0.7280516E-007  0.9612727E+03  0.7818608E-02  0.9434077E-01
         -2   -1    0    0    0  501 -0.00000000000E+00  0.00000000000E+00  0.67121126377E+03  0.67121126378E+03  0.25500000000E-02 0.  1.
          2   -1    0    0  501    0  0.00000000000E+00 -0.00000000000E+00 -0.12581183934E+04  0.12581183934E+04  0.25500000000E-02 0. -1.
    8880023    1    1    2    0    0 -0.24682452732E+03 -0.65521953418E+03 -0.71920686956E+03  0.12005430908E+04  0.65864270000E+03 0.  0.
    8880022    1    1    2    0    0  0.24682452732E+03  0.65521953418E+03  0.13229973990E+03  0.72878656646E+03  0.15294330000E+03 0.  0.
<mgrwt>
<rscale>  0 0.89323534E+03</rscale>
<asrwt>0</asrwt>
<pdfrwt beam="1">  1        2 0.19355668E+00 0.96127269E+03</pdfrwt>
<pdfrwt beam="2">  1       -2 0.10326327E+00 0.96127269E+03</pdfrwt>
<totfact> 0.13352164E+01</totfact>
</mgrwt>
</event>
<event>
 4    1  0.7280516E-007  0.6605840E+03  0.7818608E-02  0.1023566E+00
          2   -1    0    0  501    0  0.00000000000E+00  0.00000000000E+00  0.48578716021E+03  0.48578716021E+03  0.25500000000E-02 0. -1.
         -2   -1    0    0    0  501 -0.00000000000E+00 -0.00000000000E+00 -0.82682286973E+03  0.82682286973E+03  0.25500000000E-02 0.  1.
    8880023    1    1    2    0    0 -0.16884722167E+02 -0.47706217492E+02  0.24521424481E+03  0.70462841920E+03  0.65864270000E+03 0. -1.
    8880022    1    1    2    0    0  0.16884722167E+02  0.47706217492E+02 -0.58624995433E+03  0.60798161074E+03  0.15294330000E+03 0.  0.
<mgrwt>
<rscale>  0 0.46421449E+03</rscale>
<asrwt>0</asrwt>
<pdfrwt beam="1">  1        2 0.74736486E-01 0.66058397E+03</pdfrwt>
<pdfrwt beam="2">  1       -2 0.12720352E+00 0.66058397E+03</pdfrwt>
<totfact> 0.29796940E+01</totfact>
</mgrwt>
</event>
<event>
 4    1  0.7280516E-007  0.7891723E+03  0.7818608E-02  0.9734716E-01
         -2   -1    0    0    0  501 -0.00000000000E+00  0.00000000000E+00  0.77125715897E+03  0.77125715897E+03  0.25500000000E-02 0.  1.
          2   -1    0    0  501    0  0.00000000000E+00 -0.00000000000E+00 -0.90126453426E+03  0.90126453426E+03  0.25500000000E-02 0. -1.
    8880023    1    1    2    0    0 -0.41750373284E+03 -0.12113340346E+03 -0.61722921803E+03  0.10018806227E+04  0.65864270000E+03 0.  0.
    8880022    1    1    2    0    0  0.41750373284E+03  0.12113340346E+03  0.48722184274E+03  0.67064107049E+03  0.15294330000E+03 0.  0.
<mgrwt>
<rscale>  0 0.68986897E+03</rscale>
<asrwt>0</asrwt>
<pdfrwt beam="1">  1        2 0.13865608E+00 0.78917227E+03</pdfrwt>
<pdfrwt beam="2">  1       -2 0.11865495E+00 0.78917227E+03</pdfrwt>
<totfact> 0.16166241E+01</totfact>
</mgrwt>
</event>
<event>
 4    1  0.7280516E-007  0.8173465E+03  0.7818608E-02  0.9674473E-01
          2   -1    0    0  501    0  0.00000000000E+00  0.00000000000E+00  0.91439229226E+03  0.91439229226E+03  0.25500000000E-02 0. -1.
         -2   -1    0    0    0  501 -0.00000000000E+00 -0.00000000000E+00 -0.61222744180E+03  0.61222744180E+03  0.25500000000E-02 0.  1.
    8880023    1    1    2    0    0  0.20235555331E+03  0.43965594904E+03  0.52589898892E+03  0.97191824569E+03  0.65864270000E+03 0.  0.
    8880022    1    1    2    0    0 -0.20235555331E+03 -0.43965594904E+03 -0.22373413846E+03  0.55470148838E+03  0.15294330000E+03 0.  0.
<mgrwt>
<rscale>  0 0.72557222E+03</rscale>
<asrwt>0</asrwt>
<pdfrwt beam="1">  1        2 0.14067574E+00 0.81734652E+03</pdfrwt>
<pdfrwt beam="2">  1       -2 0.94188837E-01 0.81734652E+03</pdfrwt>
<totfact> 0.27512384E+01</totfact>
</mgrwt>
</event>
<event>
 4    1  0.7280516E-007  0.1099932E+04  0.7818608E-02  0.9261132E-01
          2   -1    0    0  501    0  0.00000000000E+00  0.00000000000E+00  0.39956792687E+04  0.39956792687E+04  0.25500000000E-02 0. -1.
         -2   -1    0    0    0  501 -0.00000000000E+00 -0.00000000000E+00 -0.33677468910E+03  0.33677468911E+03  0.25500000000E-02 0.  1.
    8880023    1    1    2    0    0 -0.29590238595E+03 -0.82974789852E+03  0.86602802584E+03  0.13999480508E+04  0.65864270000E+03 0.  1.
    8880022    1    1    2    0    0  0.29590238595E+03  0.82974789852E+03  0.27928765537E+04  0.29325059070E+04  0.15294330000E+03 0.  0.
<mgrwt>
<rscale>  0 0.10444123E+04</rscale>
<asrwt>0</asrwt>
<pdfrwt beam="1">  1        2 0.61471988E+00 0.10999318E+04</pdfrwt>
<pdfrwt beam="2">  1       -2 0.51811492E-01 0.10999318E+04</pdfrwt>
<totfact> 0.12578703E+00</totfact>
</mgrwt>
</event>
<event>
 4    1  0.7280516E-007  0.6928112E+03  0.7818608E-02  0.1002844E+00
          2   -1    0    0  501    0  0.00000000000E+00  0.00000000000E+00  0.64212112423E+03  0.64212112424E+03  0.25500000000E-02 0. -1.
         -2   -1    0    0    0  501 -0.00000000000E+00 -0.00000000000E+00 -0.43833369536E+03  0.43833369537E+03  0.25500000000E-02 0.  1.
    8880023    1    1    2    0    0  0.93011355264E+02 -0.19371622927E+03  0.35284895108E+03  0.77748934284E+03  0.65864270000E+03 0. -1.
    8880022    1    1    2    0    0 -0.93011355264E+02  0.19371622927E+03 -0.14906152221E+03  0.30296547676E+03  0.15294330000E+03 0.  0.
<mgrwt>
<rscale>  0 0.54420550E+03</rscale>
<asrwt>0</asrwt>
<pdfrwt beam="1">  1        2 0.98787865E-01 0.69281115E+03</pdfrwt>
<pdfrwt beam="2">  1       -2 0.67435953E-01 0.69281115E+03</pdfrwt>
<totfact> 0.93453949E+01</totfact>
</mgrwt>
</event>
<event>
 4    1  0.7280516E-007  0.6763415E+03  0.7818608E-02  0.1011474E+00
          2   -1    0    0  501    0  0.00000000000E+00  0.00000000000E+00  0.28285044540E+04  0.28285044540E+04  0.25500000000E-02 0. -1.
         -2   -1    0    0    0  501 -0.00000000000E+00 -0.00000000000E+00 -0.18020058939E+03  0.18020058941E+03  0.25500000000E-02 0.  1.
    8880023    1    1    2    0    0 -0.11939599541E+03 -0.96809878396E+02  0.27019622854E+04  0.27853254665E+04  0.65864270000E+03 0. -1.
    8880022    1    1    2    0    0  0.11939599541E+03  0.96809878396E+02 -0.53658420740E+02  0.22337957697E+03  0.15294330000E+03 0.  0.
<mgrwt>
<rscale>  0 0.50893102E+03</rscale>
<asrwt>0</asrwt>
<pdfrwt beam="1">  1        2 0.43515447E+00 0.67634145E+03</pdfrwt>
<pdfrwt beam="2">  1       -2 0.27723171E-01 0.67634145E+03</pdfrwt>
<totfact> 0.28088738E+01</totfact>
</mgrwt>
</event>
<event>
 4    1  0.7280516E-007  0.6688087E+03  0.7818608E-02  0.1016532E+00
         -2   -1    0    0    0  501 -0.00000000000E+00  0.00000000000E+00  0.26012411346E+03  0.26012411348E+03  0.25500000000E-02 0.  1.
          2   -1    0    0  501    0  0.00000000000E+00 -0.00000000000E+00 -0.11991580556E+04  0.11991580556E+04  0.25500000000E-02 0. -1.
    8880023    1    1    2    0    0  0.42041621953E+02  0.10829323797E+03 -0.10444204711E+04  0.12402093573E+04  0.65864270000E+03 0. -1.
    8880022    1    1    2    0    0 -0.42041621953E+02 -0.10829323797E+03  0.10538652891E+03  0.21907281177E+03  0.15294330000E+03 0.  0.
<mgrwt>
<rscale>  0 0.48959277E+03</rscale>
<asrwt>0</asrwt>
<pdfrwt beam="1">  1        2 0.18448585E+00 0.66880874E+03</pdfrwt>
<pdfrwt beam="2">  1       -2 0.40019095E-01 0.66880874E+03</pdfrwt>
<totfact> 0.11442890E+02</totfact>
</mgrwt>
</event>
<event>
 4    1  0.7280516E-007  0.6638157E+03  0.7818608E-02  0.1020548E+00
         -2   -1    0    0    0  501 -0.00000000000E+00  0.00000000000E+00  0.48724473294E+03  0.48724473295E+03  0.25500000000E-02 0.  1.
          2   -1    0    0  501    0  0.00000000000E+00 -0.00000000000E+00 -0.34576430911E+04  0.34576430911E+04  0.25500000000E-02 0. -1.
    8880023    1    1    2    0    0  0.82531060363E+02  0.54531376494E+01 -0.34090256875E+04  0.34730544851E+04  0.65864270000E+03 0. -1.
    8880022    1    1    2    0    0 -0.82531060363E+02 -0.54531376494E+01  0.43862732934E+03  0.47183333889E+03  0.15294330000E+03 0.  0.
<mgrwt>
<rscale>  0 0.47489258E+03</rscale>
<asrwt>0</asrwt>
<pdfrwt beam="1">  1        2 0.53194508E+00 0.66381573E+03</pdfrwt>
<pdfrwt beam="2">  1       -2 0.74960730E-01 0.66381573E+03</pdfrwt>
<totfact> 0.15430661E+00</totfact>
</mgrwt>
</event>
<event>
 4    1  0.7280516E-007  0.6882861E+03  0.7818608E-02  0.1004978E+00
         -2   -1    0    0    0  501 -0.00000000000E+00  0.00000000000E+00  0.14801959799E+04  0.14801959799E+04  0.25500000000E-02 0.  1.
          2   -1    0    0  501    0  0.00000000000E+00 -0.00000000000E+00 -0.88098717339E+03  0.88098717339E+03  0.25500000000E-02 0. -1.
    8880023    1    1    2    0    0 -0.19812284934E+03  0.25979839849E+02 -0.73295299686E+03  0.10054640309E+04  0.65864270000E+03 0.  0.
    8880022    1    1    2    0    0  0.19812284934E+03 -0.25979839849E+02  0.13321618034E+04  0.13557191225E+04  0.15294330000E+03 0.  1.
<mgrwt>
<rscale>  0 0.53520327E+03</rscale>
<asrwt>0</asrwt>
<pdfrwt beam="1">  1        2 0.13553649E+00 0.68828615E+03</pdfrwt>
<pdfrwt beam="2">  1       -2 0.22772246E+00 0.68828615E+03</pdfrwt>
<totfact> 0.27704809E+00</totfact>
</mgrwt>
</event>
<event>
 4    1  0.7280516E-007  0.1561807E+04  0.7818608E-02  0.8867181E-01
         -2   -1    0    0    0  501 -0.00000000000E+00  0.00000000000E+00  0.18068082643E+04  0.18068082643E+04  0.25500000000E-02 0.  1.
          2   -1    0    0  501    0  0.00000000000E+00 -0.00000000000E+00 -0.13641927059E+04  0.13641927059E+04  0.25500000000E-02 0. -1.
    8880023    1    1    2    0    0 -0.68205523333E+03 -0.12410611558E+04 -0.25911608303E+03  0.15831561782E+04  0.65864270000E+03 0.  0.
    8880022    1    1    2    0    0  0.68205523333E+03  0.12410611558E+04  0.70173164140E+03  0.15878447920E+04  0.15294330000E+03 0.  0.
<mgrwt>
<rscale>  0 0.15262517E+04</rscale>
<asrwt>0</asrwt>
<pdfrwt beam="1">  1        2 0.20987580E+00 0.15618074E+04</pdfrwt>
<pdfrwt beam="2">  1       -2 0.27797050E+00 0.15618074E+04</pdfrwt>
<totfact> 0.61559805E-01</totfact>
</mgrwt>
</event>
<event>
 4    1  0.7280516E-007  0.7955169E+03  0.7818608E-02  0.9720575E-01
         -2   -1    0    0    0  501 -0.00000000000E+00  0.00000000000E+00  0.28733864722E+03  0.28733864723E+03  0.25500000000E-02 0.  1.
          2   -1    0    0  501    0  0.00000000000E+00 -0.00000000000E+00 -0.17114579256E+04  0.17114579256E+04  0.25500000000E-02 0. -1.
    8880023    1    1    2    0    0 -0.35687227080E+02 -0.44470585072E+03 -0.12774369893E+04  0.15048894775E+04  0.65864270000E+03 0.  0.
    8880022    1    1    2    0    0  0.35687227080E+02  0.44470585072E+03 -0.14668228916E+03  0.49390709532E+03  0.15294330000E+03 0. -1.
<mgrwt>
<rscale>  0 0.69804891E+03</rscale>
<asrwt>0</asrwt>
<pdfrwt beam="1">  1        2 0.26330121E+00 0.79551686E+03</pdfrwt>
<pdfrwt beam="2">  1       -2 0.44205947E-01 0.79551686E+03</pdfrwt>
<totfact> 0.47840196E+01</totfact>
</mgrwt>
</event>
<event>
 4    1  0.7280516E-007  0.7747499E+03  0.7818608E-02  0.9768317E-01
         -2   -1    0    0    0  501 -0.00000000000E+00  0.00000000000E+00  0.56852741976E+03  0.56852741977E+03  0.25500000000E-02 0.  1.
          2   -1    0    0  501    0  0.00000000000E+00 -0.00000000000E+00 -0.81071119193E+03  0.81071119193E+03  0.25500000000E-02 0. -1.
    8880023    1    1    2    0    0 -0.26836893491E+03 -0.30725448319E+03 -0.45061599236E+03  0.89626568689E+03  0.65864270000E+03 0.  0.
    8880022    1    1    2    0    0  0.26836893491E+03  0.30725448319E+03  0.20843222020E+03  0.48297292481E+03  0.15294330000E+03 0.  0.
<mgrwt>
<rscale>  0 0.67090892E+03</rscale>
<asrwt>0</asrwt>
<pdfrwt beam="1">  1        2 0.12472480E+00 0.77474990E+03</pdfrwt>
<pdfrwt beam="2">  1       -2 0.87465757E-01 0.77474990E+03</pdfrwt>
<totfact> 0.38647782E+01</totfact>
</mgrwt>
</event>
<event>
 4    1  0.7280516E-007  0.9091461E+03  0.7818608E-02  0.9511506E-01
         -2   -1    0    0    0  501 -0.00000000000E+00  0.00000000000E+00  0.14198194906E+04  0.14198194906E+04  0.25500000000E-02 0.  1.
          2   -1    0    0  501    0  0.00000000000E+00 -0.00000000000E+00 -0.61862160118E+03  0.61862160119E+03  0.25500000000E-02 0. -1.
    8880023    1    1    2    0    0  0.62668219074E+03 -0.24020361726E+01 -0.11662967696E+03  0.91659643561E+03  0.65864270000E+03 0. -1.
    8880022    1    1    2    0    0 -0.62668219074E+03  0.24020361726E+01  0.91782756639E+03  0.11218446562E+04  0.15294330000E+03 0.  0.
<mgrwt>
<rscale>  0 0.83440829E+03</rscale>
<asrwt>0</asrwt>
<pdfrwt beam="1">  1        2 0.95172555E-01 0.90914605E+03</pdfrwt>
<pdfrwt beam="2">  1       -2 0.21843377E+00 0.90914605E+03</pdfrwt>
<totfact> 0.48547324E+00</totfact>
</mgrwt>
</event>
<event>
 4    1  0.7280516E-007  0.6828480E+03  0.7818608E-02  0.1007756E+00
          2   -1    0    0  501    0  0.00000000000E+00  0.00000000000E+00  0.14419383939E+04  0.14419383939E+04  0.25500000000E-02 0. -1.
         -2   -1    0    0    0  501 -0.00000000000E+00 -0.00000000000E+00 -0.30134744590E+03  0.30134744591E+03  0.25500000000E-02 0.  1.
    8880023    1    1    2    0    0  0.13380947093E+03  0.12069079786E+03  0.12928731685E+04  0.14621225938E+04  0.65864270000E+03 0. -1.
    8880022    1    1    2    0    0 -0.13380947093E+03 -0.12069079786E+03 -0.15228222052E+03  0.28116324600E+03  0.15294330000E+03 0.  0.
<mgrwt>
<rscale>  0 0.52376139E+03</rscale>
<asrwt>0</asrwt>
<pdfrwt beam="1">  1        2 0.22183668E+00 0.68284804E+03</pdfrwt>
<pdfrwt beam="2">  1       -2 0.46361146E-01 0.68284804E+03</pdfrwt>
<totfact> 0.62045138E+01</totfact>
</mgrwt>
</event>
<event>
 4    1  0.7280516E-007  0.9009165E+03  0.7818608E-02  0.9524562E-01
         -2   -1    0    0    0  501 -0.00000000000E+00  0.00000000000E+00  0.19732989443E+03  0.19732989445E+03  0.25500000000E-02 0.  1.
          2   -1    0    0  501    0  0.00000000000E+00 -0.00000000000E+00 -0.31210415304E+04  0.31210415304E+04  0.25500000000E-02 0. -1.
    8880023    1    1    2    0    0  0.13915212398E+03 -0.59872954900E+03 -0.13610539246E+04  0.16322127246E+04  0.65864270000E+03 0.  1.
    8880022    1    1    2    0    0 -0.13915212398E+03  0.59872954900E+03 -0.15626577114E+04  0.16861587002E+04  0.15294330000E+03 0. -1.
<mgrwt>
<rscale>  0 0.82496945E+03</rscale>
<asrwt>0</asrwt>
<pdfrwt beam="1">  1        2 0.48016020E+00 0.90091653E+03</pdfrwt>
<pdfrwt beam="2">  1       -2 0.30358448E-01 0.90091653E+03</pdfrwt>
<totfact> 0.15204044E+01</totfact>
</mgrwt>
</event>
<event>
 4    1  0.7280516E-007  0.7382340E+03  0.7818608E-02  0.9865121E-01
         -2   -1    0    0    0  501 -0.00000000000E+00  0.00000000000E+00  0.63721123788E+03  0.63721123789E+03  0.25500000000E-02 0.  1.
          2   -1    0    0  501    0  0.00000000000E+00 -0.00000000000E+00 -0.11922630417E+04  0.11922630417E+04  0.25500000000E-02 0. -1.
    8880023    1    1    2    0    0 -0.29039323067E+03  0.16386276499E+03  0.37620848079E+03  0.82856638929E+03  0.65864270000E+03 0.  1.
    8880022    1    1    2    0    0  0.29039323067E+03 -0.16386276499E+03 -0.93126028460E+03  0.10009078903E+04  0.15294330000E+03 0.  0.
<mgrwt>
<rscale>  0 0.61981834E+03</rscale>
<asrwt>0</asrwt>
<pdfrwt beam="1">  1        2 0.18342508E+00 0.73823400E+03</pdfrwt>
<pdfrwt beam="2">  1       -2 0.98032498E-01 0.73823400E+03</pdfrwt>
<totfact> 0.16913800E+01</totfact>
</mgrwt>
</event>
<event>
 4    1  0.7280516E-007  0.7486912E+03  0.7818608E-02  0.9835317E-01
         -2   -1    0    0    0  501 -0.00000000000E+00  0.00000000000E+00  0.14368386872E+04  0.14368386872E+04  0.25500000000E-02 0.  1.
          2   -1    0    0  501    0  0.00000000000E+00 -0.00000000000E+00 -0.36042919479E+03  0.36042919479E+03  0.25500000000E-02 0. -1.
    8880023    1    1    2    0    0 -0.34409228000E+03  0.91262548182E+02  0.11082648522E+03  0.75684943413E+03  0.65864270000E+03 0.  0.
    8880022    1    1    2    0    0  0.34409228000E+03 -0.91262548182E+02  0.96558300716E+03  0.10404184478E+04  0.15294330000E+03 0.  0.
<mgrwt>
<rscale>  0 0.63501192E+03</rscale>
<asrwt>0</asrwt>
<pdfrwt beam="1">  1        2 0.55450644E-01 0.74869123E+03</pdfrwt>
<pdfrwt beam="2">  1       -2 0.22105211E+00 0.74869123E+03</pdfrwt>
<totfact> 0.88943210E+00</totfact>
</mgrwt>
</event>
<event>
 4    1  0.7280516E-007  0.9342021E+03  0.7818608E-02  0.9473218E-01
         -2   -1    0    0    0  501 -0.00000000000E+00  0.00000000000E+00  0.48445336662E+03  0.48445336662E+03  0.25500000000E-02 0.  1.
          2   -1    0    0  501    0  0.00000000000E+00 -0.00000000000E+00 -0.15062105940E+04  0.15062105940E+04  0.25500000000E-02 0. -1.
    8880023    1    1    2    0    0  0.43483126724E+03 -0.49984517246E+03 -0.90518677449E+03  0.13008061848E+04  0.65864270000E+03 0.  0.
    8880022    1    1    2    0    0 -0.43483126724E+03  0.49984517246E+03 -0.11657045291E+03  0.68985777586E+03  0.15294330000E+03 0.  0.
<mgrwt>
<rscale>  0 0.86287503E+03</rscale>
<asrwt>0</asrwt>
<pdfrwt beam="1">  1        2 0.23172471E+00 0.93420214E+03</pdfrwt>
<pdfrwt beam="2">  1       -2 0.74531287E-01 0.93420214E+03</pdfrwt>
<totfact> 0.20465097E+01</totfact>
</mgrwt>
</event>
<event>
 4    1  0.7280516E-007  0.8700692E+03  0.7818608E-02  0.9575897E-01
         -2   -1    0    0    0  501 -0.00000000000E+00  0.00000000000E+00  0.17116869200E+04  0.17116869200E+04  0.25500000000E-02 0.  1.
          2   -1    0    0  501    0  0.00000000000E+00 -0.00000000000E+00 -0.81823287447E+03  0.81823287448E+03  0.25500000000E-02 0. -1.
    8880023    1    1    2    0    0  0.33098979167E+03 -0.46222938837E+03 -0.50962261798E+03  0.10083331139E+04  0.65864270000E+03 0.  0.
    8880022    1    1    2    0    0 -0.33098979167E+03  0.46222938837E+03  0.14030766635E+04  0.15215866805E+04  0.15294330000E+03 0.  0.
<mgrwt>
<rscale>  0 0.78912213E+03</rscale>
<asrwt>0</asrwt>
<pdfrwt beam="1">  1        2 0.12588198E+00 0.87006922E+03</pdfrwt>
<pdfrwt beam="2">  1       -2 0.26333645E+00 0.87006922E+03</pdfrwt>
<totfact> 0.18080012E+00</totfact>
</mgrwt>
</event>
<event>
 4    1  0.7280516E-007  0.6929547E+03  0.7818608E-02  0.1002779E+00
          2   -1    0    0  501    0  0.00000000000E+00  0.00000000000E+00  0.15417631681E+04  0.15417631681E+04  0.25500000000E-02 0. -1.
         -2   -1    0    0    0  501 -0.00000000000E+00 -0.00000000000E+00 -0.17005663545E+03  0.17005663547E+03  0.25500000000E-02 0.  1.
    8880023    1    1    2    0    0 -0.14986979945E+03  0.15464474174E+03  0.12307649319E+04  0.14124335301E+04  0.65864270000E+03 0. -1.
    8880022    1    1    2    0    0  0.14986979945E+03 -0.15464474174E+03  0.14094160072E+03  0.29938627351E+03  0.15294330000E+03 0.  0.
<mgrwt>
<rscale>  0 0.54448428E+03</rscale>
<asrwt>0</asrwt>
<pdfrwt beam="1">  1        2 0.23719434E+00 0.69295466E+03</pdfrwt>
<pdfrwt beam="2">  1       -2 0.26162558E-01 0.69295466E+03</pdfrwt>
<totfact> 0.16203845E+02</totfact>
</mgrwt>
</event>
<event>
 4    1  0.7280516E-007  0.7302527E+03  0.7818608E-02  0.9889308E-01
         -2   -1    0    0    0  501 -0.00000000000E+00  0.00000000000E+00  0.38255231300E+03  0.38255231301E+03  0.25500000000E-02 0.  1.
          2   -1    0    0  501    0  0.00000000000E+00 -0.00000000000E+00 -0.17673916626E+04  0.17673916626E+04  0.25500000000E-02 0. -1.
    8880023    1    1    2    0    0  0.31519934034E+03 -0.10400267209E+02 -0.15858417466E+04  0.17458989207E+04  0.65864270000E+03 0. -1.
    8880022    1    1    2    0    0 -0.31519934034E+03  0.10400267209E+02  0.20100239708E+03  0.40404505486E+03  0.15294330000E+03 0.  0.
<mgrwt>
<rscale>  0 0.60782277E+03</rscale>
<asrwt>0</asrwt>
<pdfrwt beam="1">  1        2 0.27190641E+00 0.73025269E+03</pdfrwt>
<pdfrwt beam="2">  1       -2 0.58854203E-01 0.73025269E+03</pdfrwt>
<totfact> 0.25024836E+01</totfact>
</mgrwt>
</event>
<event>
 4    1  0.7280516E-007  0.8025620E+03  0.7818608E-02  0.9705284E-01
          2   -1    0    0  501    0  0.00000000000E+00  0.00000000000E+00  0.98131220137E+03  0.98131220137E+03  0.25500000000E-02 0. -1.
         -2   -1    0    0    0  501 -0.00000000000E+00 -0.00000000000E+00 -0.46281473492E+03  0.46281473493E+03  0.25500000000E-02 0.  1.
    8880023    1    1    2    0    0 -0.11693428004E+03  0.44342066582E+03  0.52791223826E+03  0.96062326137E+03  0.65864270000E+03 0. -1.
    8880022    1    1    2    0    0  0.11693428004E+03 -0.44342066582E+03 -0.94147718089E+01  0.48350367493E+03  0.15294330000E+03 0.  1.
<mgrwt>
<rscale>  0 0.70703073E+03</rscale>
<asrwt>0</asrwt>
<pdfrwt beam="1">  1        2 0.15097111E+00 0.80256197E+03</pdfrwt>
<pdfrwt beam="2">  1       -2 0.71202268E-01 0.80256197E+03</pdfrwt>
<totfact> 0.46886250E+01</totfact>
</mgrwt>
</event>
<event>
 4    1  0.7280516E-007  0.6595872E+03  0.7818608E-02  0.1024583E+00
         -2   -1    0    0    0  501 -0.00000000000E+00  0.00000000000E+00  0.13103190496E+04  0.13103190496E+04  0.25500000000E-02 0.  1.
          2   -1    0    0  501    0  0.00000000000E+00 -0.00000000000E+00 -0.10428524891E+04  0.10428524891E+04  0.25500000000E-02 0. -1.
    8880023    1    1    2    0    0 -0.97191131337E+01 -0.33921307074E+02 -0.93293526251E+03  0.11425513234E+04  0.65864270000E+03 0. -1.
    8880022    1    1    2    0    0  0.97191131337E+01  0.33921307074E+02  0.12004018229E+04  0.12106202153E+04  0.15294330000E+03 0.  0.
<mgrwt>
<rscale>  0 0.46068296E+03</rscale>
<asrwt>0</asrwt>
<pdfrwt beam="1">  1        2 0.16043884E+00 0.65958724E+03</pdfrwt>
<pdfrwt beam="2">  1       -2 0.20158755E+00 0.65958724E+03</pdfrwt>
<totfact> 0.31945360E+00</totfact>
</mgrwt>
</event>
<event>
 4    1  0.7280516E-007  0.7284552E+03  0.7818608E-02  0.9894950E-01
          2   -1    0    0  501    0  0.00000000000E+00  0.00000000000E+00  0.20386539762E+04  0.20386539762E+04  0.25500000000E-02 0. -1.
         -2   -1    0    0    0  501 -0.00000000000E+00 -0.00000000000E+00 -0.42310454128E+03  0.42310454129E+03  0.25500000000E-02 0.  1.
    8880023    1    1    2    0    0  0.18557998310E+03  0.24979368723E+03  0.18861457899E+04  0.20219280312E+04  0.65864270000E+03 0. -1.
    8880022    1    1    2    0    0 -0.18557998310E+03 -0.24979368723E+03 -0.27059635500E+03  0.43983048628E+03  0.15294330000E+03 0.  0.
<mgrwt>
<rscale>  0 0.60506644E+03</rscale>
<asrwt>0</asrwt>
<pdfrwt beam="1">  1        2 0.31363907E+00 0.72845523E+03</pdfrwt>
<pdfrwt beam="2">  1       -2 0.65093006E-01 0.72845523E+03</pdfrwt>
<totfact> 0.14377941E+01</totfact>
</mgrwt>
</event>
<event>
 4    1  0.7280516E-007  0.9527937E+03  0.7818608E-02  0.9446106E-01
         -2   -1    0    0    0  501 -0.00000000000E+00  0.00000000000E+00  0.63163439232E+03  0.63163439232E+03  0.25500000000E-02 0.  1.
          2   -1    0    0  501    0  0.00000000000E+00 -0.00000000000E+00 -0.11690596319E+04  0.11690596319E+04  0.25500000000E-02 0. -1.
    8880023    1    1    2    0    0  0.53129746170E+03  0.43786830210E+03 -0.54049649368E+03  0.10954233468E+04  0.65864270000E+03 0.  0.
    8880022    1    1    2    0    0 -0.53129746170E+03 -0.43786830210E+03  0.30712541087E+01  0.70527067740E+03  0.15294330000E+03 0.  0.
<mgrwt>
<rscale>  0 0.88376559E+03</rscale>
<asrwt>0</asrwt>
<pdfrwt beam="1">  1        2 0.17985533E+00 0.95279371E+03</pdfrwt>
<pdfrwt beam="2">  1       -2 0.97174522E-01 0.95279371E+03</pdfrwt>
<totfact> 0.17444646E+01</totfact>
</mgrwt>
</event>
<event>
 4    1  0.7280516E-007  0.1556206E+04  0.7818608E-02  0.8870934E-01
         -2   -1    0    0    0  501 -0.00000000000E+00  0.00000000000E+00  0.73812270614E+03  0.73812270614E+03  0.25500000000E-02 0.  1.
          2   -1    0    0  501    0  0.00000000000E+00 -0.00000000000E+00 -0.32415375115E+04  0.32415375115E+04  0.25500000000E-02 0. -1.
    8880023    1    1    2    0    0  0.16804721210E+03 -0.13999025356E+04 -0.18518922488E+04  0.24189423478E+04  0.65864270000E+03 0.  0.
    8880022    1    1    2    0    0 -0.16804721210E+03  0.13999025356E+04 -0.65152255659E+03  0.15607178699E+04  0.15294330000E+03 0.  0.
<mgrwt>
<rscale>  0 0.15205003E+04</rscale>
<asrwt>0</asrwt>
<pdfrwt beam="1">  1        2 0.49869807E+00 0.15562060E+04</pdfrwt>
<pdfrwt beam="2">  1       -2 0.11355734E+00 0.15562060E+04</pdfrwt>
<totfact> 0.70375270E-01</totfact>
</mgrwt>
</event>
<event>
 4    1  0.7280516E-007  0.1122954E+04  0.7818608E-02  0.9235920E-01
          2   -1    0    0  501    0  0.00000000000E+00  0.00000000000E+00  0.19489659423E+04  0.19489659423E+04  0.25500000000E-02 0. -1.
         -2   -1    0    0    0  501 -0.00000000000E+00 -0.00000000000E+00 -0.69651425933E+03  0.69651425934E+03  0.25500000000E-02 0.  1.
    8880023    1    1    2    0    0  0.84065471758E+03 -0.34715346383E+03  0.13050718679E+04  0.17216964507E+04  0.65864270000E+03 0.  0.
    8880022    1    1    2    0    0 -0.84065471758E+03  0.34715346383E+03 -0.52620184954E+02  0.92378375095E+03  0.15294330000E+03 0.  0.
<mgrwt>
<rscale>  0 0.10690246E+04</rscale>
<asrwt>0</asrwt>
<pdfrwt beam="1">  1        2 0.29984092E+00 0.11229542E+04</pdfrwt>
<pdfrwt beam="2">  1       -2 0.10715604E+00 0.11229542E+04</pdfrwt>
<totfact> 0.49200820E+00</totfact>
</mgrwt>
</event>
<event>
 4    1  0.7280516E-007  0.8265713E+03  0.7818608E-02  0.9656041E-01
         -2   -1    0    0    0  501 -0.00000000000E+00  0.00000000000E+00  0.10834505514E+03  0.10834505517E+03  0.25500000000E-02 0.  1.
          2   -1    0    0  501    0  0.00000000000E+00 -0.00000000000E+00 -0.42001577333E+04  0.42001577333E+04  0.25500000000E-02 0. -1.
    8880023    1    1    2    0    0  0.27393572149E+03 -0.41757521613E+03 -0.24631812177E+04  0.25981689241E+04  0.65864270000E+03 0.  1.
    8880022    1    1    2    0    0 -0.27393572149E+03  0.41757521613E+03 -0.16286314604E+04  0.17103338643E+04  0.15294330000E+03 0. -1.
<mgrwt>
<rscale>  0 0.73695517E+03</rscale>
<asrwt>0</asrwt>
<pdfrwt beam="1">  1        2 0.64617799E+00 0.82657126E+03</pdfrwt>
<pdfrwt beam="2">  1       -2 0.16668473E-01 0.82657126E+03</pdfrwt>
<totfact> 0.74568080E+00</totfact>
</mgrwt>
</event>
<event>
 4    1  0.7280516E-007  0.8897298E+03  0.7818608E-02  0.9542724E-01
         -2   -1    0    0    0  501 -0.00000000000E+00  0.00000000000E+00  0.71218707865E+03  0.71218707865E+03  0.25500000000E-02 0.  1.
          2   -1    0    0  501    0  0.00000000000E+00 -0.00000000000E+00 -0.15217153097E+04  0.15217153097E+04  0.25500000000E-02 0. -1.
    8880023    1    1    2    0    0 -0.22853567866E+03  0.55279321299E+03 -0.12070901537E+04  0.14995618487E+04  0.65864270000E+03 0.  0.
    8880022    1    1    2    0    0  0.22853567866E+03 -0.55279321299E+03  0.39756192266E+03  0.73434053961E+03  0.15294330000E+03 0.  0.
<mgrwt>
<rscale>  0 0.81205938E+03</rscale>
<asrwt>0</asrwt>
<pdfrwt beam="1">  1        2 0.23411005E+00 0.88972979E+03</pdfrwt>
<pdfrwt beam="2">  1       -2 0.10956724E+00 0.88972979E+03</pdfrwt>
<totfact> 0.82436295E+00</totfact>
</mgrwt>
</event>
<event>
 4    1  0.7280516E-007  0.7881875E+03  0.7818608E-02  0.9736944E-01
         -2   -1    0    0    0  501 -0.00000000000E+00  0.00000000000E+00  0.59424340744E+03  0.59424340744E+03  0.25500000000E-02 0.  1.
          2   -1    0    0  501    0  0.00000000000E+00 -0.00000000000E+00 -0.85939870468E+03  0.85939870469E+03  0.25500000000E-02 0. -1.
    8880023    1    1    2    0    0 -0.30924517945E+03  0.30297977332E+03 -0.50453132409E+03  0.93583726540E+03  0.65864270000E+03 0.  0.
    8880022    1    1    2    0    0  0.30924517945E+03 -0.30297977332E+03  0.23937602685E+03  0.51780484673E+03  0.15294330000E+03 0.  0.
<mgrwt>
<rscale>  0 0.68859107E+03</rscale>
<asrwt>0</asrwt>
<pdfrwt beam="1">  1        2 0.13221519E+00 0.78818750E+03</pdfrwt>
<pdfrwt beam="2">  1       -2 0.91422063E-01 0.78818750E+03</pdfrwt>
<totfact> 0.32220732E+01</totfact>
</mgrwt>
</event>
<event>
 4    1  0.8786457E-007  0.7529550E+03  0.7818608E-02  0.9823700E-01
          2   -1    0    0  501    0  0.00000000000E+00  0.00000000000E+00  0.19990232828E+04  0.19990232828E+04  0.25500000000E-02 0. -1.
         -2   -1    0    0    0  501 -0.00000000000E+00 -0.00000000000E+00 -0.93351840022E+03  0.93351840022E+03  0.25500000000E-02 0.  1.
    8880023    1    1    2    0    0 -0.25596823927E+03 -0.26002180839E+03  0.18810217486E+04  0.20261253923E+04  0.65864270000E+03 0. -1.
    8880022    1    1    2    0    0  0.25596823927E+03  0.26002180839E+03 -0.81551686601E+03  0.90641629074E+03  0.15294330000E+03 0.  0.
<mgrwt>
<rscale>  0 0.64106041E+03</rscale>
<asrwt>0</asrwt>
<pdfrwt beam="1">  1        2 0.30754204E+00 0.75295504E+03</pdfrwt>
<pdfrwt beam="2">  1       -2 0.14361822E+00 0.75295504E+03</pdfrwt>
<totfact> 0.23308963E+00</totfact>
</mgrwt>
</event>
<event>
 4    1  0.7280516E-007  0.1032797E+04  0.7818608E-02  0.9339853E-01
         -2   -1    0    0    0  501 -0.00000000000E+00  0.00000000000E+00  0.55705610956E+03  0.55705610957E+03  0.25500000000E-02 0.  1.
          2   -1    0    0  501    0  0.00000000000E+00 -0.00000000000E+00 -0.18167230426E+04  0.18167230426E+04  0.25500000000E-02 0. -1.
    8880023    1    1    2    0    0 -0.74130814409E+03 -0.28865514594E+03 -0.11670307859E+04  0.15584064359E+04  0.65864270000E+03 0. -1.
    8880022    1    1    2    0    0  0.74130814409E+03  0.28865514594E+03 -0.92636147131E+02  0.81537271633E+03  0.15294330000E+03 0.  0.
<mgrwt>
<rscale>  0 0.97195243E+03</rscale>
<asrwt>0</asrwt>
<pdfrwt beam="1">  1        2 0.27949585E+00 0.10327971E+04</pdfrwt>
<pdfrwt beam="2">  1       -2 0.85700941E-01 0.10327971E+04</pdfrwt>
<totfact> 0.99478517E+00</totfact>
</mgrwt>
</event>
<event>
 4    1  0.7280516E-007  0.7595115E+03  0.7818608E-02  0.9806374E-01
         -2   -1    0    0    0  501 -0.00000000000E+00  0.00000000000E+00  0.34904489899E+03  0.34904489900E+03  0.25500000000E-02 0.  1.
          2   -1    0    0  501    0  0.00000000000E+00 -0.00000000000E+00 -0.18528939351E+04  0.18528939351E+04  0.25500000000E-02 0. -1.
    8880023    1    1    2    0    0  0.17799755997E+03 -0.33371294572E+03 -0.16101979706E+04  0.17803356909E+04  0.65864270000E+03 0. -1.
    8880022    1    1    2    0    0 -0.17799755997E+03  0.33371294572E+03  0.10634893447E+03  0.42160314322E+03  0.15294330000E+03 0.  0.
<mgrwt>
<rscale>  0 0.65021604E+03</rscale>
<asrwt>0</asrwt>
<pdfrwt beam="1">  1        2 0.28506060E+00 0.75951147E+03</pdfrwt>
<pdfrwt beam="2">  1       -2 0.53699216E-01 0.75951147E+03</pdfrwt>
<totfact> 0.27108386E+01</totfact>
</mgrwt>
</event>
<event>
 4    1  0.7280516E-007  0.7362283E+03  0.7818608E-02  0.9871073E-01
          2   -1    0    0  501    0  0.00000000000E+00  0.00000000000E+00  0.13168453448E+04  0.13168453448E+04  0.25500000000E-02 0. -1.
         -2   -1    0    0    0  501 -0.00000000000E+00 -0.00000000000E+00 -0.42420699450E+03  0.42420699451E+03  0.25500000000E-02 0.  1.
    8880023    1    1    2    0    0 -0.30962459567E+03 -0.11115076103E+03  0.10996551259E+04  0.13233568997E+04  0.65864270000E+03 0.  0.
    8880022    1    1    2    0    0  0.30962459567E+03  0.11115076103E+03 -0.20701677553E+03  0.41769543963E+03  0.15294330000E+03 0.  0.
<mgrwt>
<rscale>  0 0.61683917E+03</rscale>
<asrwt>0</asrwt>
<pdfrwt beam="1">  1        2 0.20259159E+00 0.73622829E+03</pdfrwt>
<pdfrwt beam="2">  1       -2 0.65262615E-01 0.73622829E+03</pdfrwt>
<totfact> 0.35731583E+01</totfact>
</mgrwt>
</event>
<event>
 4    1  0.7280516E-007  0.6935230E+03  0.7818608E-02  0.1002521E+00
         -2   -1    0    0    0  501 -0.00000000000E+00  0.00000000000E+00  0.16881979086E+03  0.16881979088E+03  0.25500000000E-02 0.  1.
          2   -1    0    0  501    0  0.00000000000E+00 -0.00000000000E+00 -0.18011137051E+04  0.18011137051E+04  0.25500000000E-02 0. -1.
    8880023    1    1    2    0    0  0.15893735007E+03  0.14799598443E+03 -0.15396166147E+04  0.16886069463E+04  0.65864270000E+03 0. -1.
    8880022    1    1    2    0    0 -0.15893735007E+03 -0.14799598443E+03 -0.92677299476E+02  0.28132654960E+03  0.15294330000E+03 0.  0.
<mgrwt>
<rscale>  0 0.54558451E+03</rscale>
<asrwt>0</asrwt>
<pdfrwt beam="1">  1        2 0.27709440E+00 0.69352296E+03</pdfrwt>
<pdfrwt beam="2">  1       -2 0.25972277E-01 0.69352296E+03</pdfrwt>
<totfact> 0.11841283E+02</totfact>
</mgrwt>
</event>
<event>
 4    1  0.7280516E-007  0.8397607E+03  0.7818608E-02  0.9630632E-01
         -2   -1    0    0    0  501 -0.00000000000E+00  0.00000000000E+00  0.71571573717E+03  0.71571573717E+03  0.25500000000E-02 0.  1.
          2   -1    0    0  501    0  0.00000000000E+00 -0.00000000000E+00 -0.93912261732E+03  0.93912261732E+03  0.25500000000E-02 0. -1.
    8880023    1    1    2    0    0 -0.40504237047E+03 -0.32761021400E+03 -0.56614027746E+03  0.10127747994E+04  0.65864270000E+03 0.  1.
    8880022    1    1    2    0    0  0.40504237047E+03  0.32761021400E+03  0.34273339730E+03  0.64206355514E+03  0.15294330000E+03 0.  0.
<mgrwt>
<rscale>  0 0.75301529E+03</rscale>
<asrwt>0</asrwt>
<pdfrwt beam="1">  1        2 0.14448040E+00 0.83976067E+03</pdfrwt>
<pdfrwt beam="2">  1       -2 0.11011011E+00 0.83976067E+03</pdfrwt>
<totfact> 0.18219092E+01</totfact>
</mgrwt>
</event>
<event>
 4    1  0.7280516E-007  0.1039232E+04  0.7818608E-02  0.9331939E-01
          2   -1    0    0  501    0  0.00000000000E+00  0.00000000000E+00  0.17252863515E+04  0.17252863515E+04  0.25500000000E-02 0. -1.
         -2   -1    0    0    0  501 -0.00000000000E+00 -0.00000000000E+00 -0.83740371184E+03  0.83740371184E+03  0.25500000000E-02 0.  1.
    8880023    1    1    2    0    0  0.58219459292E+03  0.55429429807E+03 -0.33446847827E+03  0.10917289417E+04  0.65864270000E+03 0.  0.
    8880022    1    1    2    0    0 -0.58219459292E+03 -0.55429429807E+03  0.12223511179E+04  0.14709611217E+04  0.15294330000E+03 0.  0.
<mgrwt>
<rscale>  0 0.97894887E+03</rscale>
<asrwt>0</asrwt>
<pdfrwt beam="1">  1        2 0.26542867E+00 0.10392319E+04</pdfrwt>
<pdfrwt beam="2">  1       -2 0.12883134E+00 0.10392319E+04</pdfrwt>
<totfact> 0.41799768E+00</totfact>
</mgrwt>
</event>
<event>
 4    1  0.7280516E-007  0.8657841E+03  0.7818608E-02  0.9583356E-01
          2   -1    0    0  501    0  0.00000000000E+00  0.00000000000E+00  0.14309916935E+04  0.14309916935E+04  0.25500000000E-02 0. -1.
         -2   -1    0    0    0  501 -0.00000000000E+00 -0.00000000000E+00 -0.48491613292E+03  0.48491613293E+03  0.25500000000E-02 0.  1.
    8880023    1    1    2    0    0 -0.23793940326E+02  0.56143185787E+03  0.76267543909E+02  0.86913682878E+03  0.65864270000E+03 0.  0.
    8880022    1    1    2    0    0  0.23793940326E+02 -0.56143185787E+03  0.86980801663E+03  0.10467709976E+04  0.15294330000E+03 0.  0.
<mgrwt>
<rscale>  0 0.78407633E+03</rscale>
<asrwt>0</asrwt>
<pdfrwt beam="1">  1        2 0.22015257E+00 0.86578409E+03</pdfrwt>
<pdfrwt beam="2">  1       -2 0.74602482E-01 0.86578409E+03</pdfrwt>
<totfact> 0.22665125E+01</totfact>
</mgrwt>
</event>
<event>
 4    1  0.1459994E-006  0.8014507E+03  0.7818608E-02  0.9707668E-01
         -2   -1    0    0    0  501 -0.00000000000E+00  0.00000000000E+00  0.98680344725E+03  0.98680344725E+03  0.25500000000E-02 0.  1.
          2   -1    0    0  501    0  0.00000000000E+00 -0.00000000000E+00 -0.19971075353E+04  0.19971075353E+04  0.25500000000E-02 0. -1.
    8880023    1    1    2    0    0  0.17290416133E+03  0.42263129382E+03 -0.18498800169E+04  0.20160305907E+04  0.65864270000E+03 0.  0.
    8880022    1    1    2    0    0 -0.17290416133E+03 -0.42263129382E+03  0.83957592886E+03  0.96788039182E+03  0.15294330000E+03 0.  0.
<mgrwt>
<rscale>  0 0.70562071E+03</rscale>
<asrwt>0</asrwt>
<pdfrwt beam="1">  1        2 0.30724731E+00 0.80145073E+03</pdfrwt>
<pdfrwt beam="2">  1       -2 0.15181592E+00 0.80145073E+03</pdfrwt>
<totfact> 0.20015371E+00</totfact>
</mgrwt>
</event>
<event>
 4    1  0.7280516E-007  0.9946767E+03  0.7818608E-02  0.9388556E-01
          2   -1    0    0  501    0  0.00000000000E+00  0.00000000000E+00  0.29879670087E+04  0.29879670087E+04  0.25500000000E-02 0. -1.
         -2   -1    0    0    0  501 -0.00000000000E+00 -0.00000000000E+00 -0.43467857022E+03  0.43467857022E+03  0.25500000000E-02 0.  1.
    8880023    1    1    2    0    0  0.53662474318E+03  0.51730584860E+03  0.24631790019E+04  0.26564322799E+04  0.65864270000E+03 0.  0.
    8880022    1    1    2    0    0 -0.53662474318E+03 -0.51730584860E+03  0.90109436551E+02  0.76621329900E+03  0.15294330000E+03 0.  0.
<mgrwt>
<rscale>  0 0.93023528E+03</rscale>
<asrwt>0</asrwt>
<pdfrwt beam="1">  1        2 0.45968722E+00 0.99467666E+03</pdfrwt>
<pdfrwt beam="2">  1       -2 0.66873628E-01 0.99467666E+03</pdfrwt>
<totfact> 0.37205233E+00</totfact>
</mgrwt>
</event>
<event>
 4    1  0.7280516E-007  0.9720587E+03  0.7818608E-02  0.9419062E-01
         -2   -1    0    0    0  501 -0.00000000000E+00  0.00000000000E+00  0.48876552299E+03  0.48876552300E+03  0.25500000000E-02 0.  1.
          2   -1    0    0  501    0  0.00000000000E+00 -0.00000000000E+00 -0.20238789450E+04  0.20238789450E+04  0.25500000000E-02 0. -1.
    8880023    1    1    2    0    0 -0.57041996979E+03 -0.43093971047E+03 -0.14914523588E+04  0.17802607452E+04  0.65864270000E+03 0.  0.
    8880022    1    1    2    0    0  0.57041996979E+03  0.43093971047E+03 -0.43661063197E+02  0.73238372282E+03  0.15294330000E+03 0.  0.
<mgrwt>
<rscale>  0 0.90523383E+03</rscale>
<asrwt>0</asrwt>
<pdfrwt beam="1">  1        2 0.31136599E+00 0.97205873E+03</pdfrwt>
<pdfrwt beam="2">  1       -2 0.75194697E-01 0.97205873E+03</pdfrwt>
<totfact> 0.10349991E+01</totfact>
</mgrwt>
</event>
<event>
 4    1  0.7280516E-007  0.7210677E+03  0.7818608E-02  0.9918990E-01
         -2   -1    0    0    0  501 -0.00000000000E+00  0.00000000000E+00  0.17739490103E+03  0.17739490104E+03  0.25500000000E-02 0.  1.
          2   -1    0    0  501    0  0.00000000000E+00 -0.00000000000E+00 -0.16179800957E+04  0.16179800957E+04  0.25500000000E-02 0. -1.
    8880023    1    1    2    0    0  0.22815968550E+03 -0.18458496803E+03 -0.11364895267E+04  0.13459372583E+04  0.65864270000E+03 0. -1.
    8880022    1    1    2    0    0 -0.22815968550E+03  0.18458496803E+03 -0.30409566794E+03  0.44943773849E+03  0.15294330000E+03 0.  1.
<mgrwt>
<rscale>  0 0.59349733E+03</rscale>
<asrwt>0</asrwt>
<pdfrwt beam="1">  1        2 0.24892001E+00 0.72106772E+03</pdfrwt>
<pdfrwt beam="2">  1       -2 0.27291524E-01 0.72106772E+03</pdfrwt>
<totfact> 0.13586862E+02</totfact>
</mgrwt>
</event>
<event>
 4    1  0.7280516E-007  0.1267746E+04  0.7818608E-02  0.9093926E-01
          2   -1    0    0  501    0  0.00000000000E+00  0.00000000000E+00  0.14784271866E+04  0.14784271866E+04  0.25500000000E-02 0. -1.
         -2   -1    0    0    0  501 -0.00000000000E+00 -0.00000000000E+00 -0.13225050061E+04  0.13225050061E+04  0.25500000000E-02 0.  1.
    8880023    1    1    2    0    0 -0.98860919670E+03  0.44274426927E+03  0.83063542326E+03  0.15156305765E+04  0.65864270000E+03 0. -1.
    8880022    1    1    2    0    0  0.98860919670E+03 -0.44274426927E+03 -0.67471324272E+03  0.12853016162E+04  0.15294330000E+03 0.  0.
<mgrwt>
<rscale>  0 0.12218707E+04</rscale>
<asrwt>0</asrwt>
<pdfrwt beam="1">  1        2 0.22745034E+00 0.12677464E+04</pdfrwt>
<pdfrwt beam="2">  1       -2 0.20346231E+00 0.12677464E+04</pdfrwt>
<totfact> 0.15873278E+00</totfact>
</mgrwt>
</event>
<event>
 4    1  0.7280516E-007  0.6608228E+03  0.7818608E-02  0.1023329E+00
         -2   -1    0    0    0  501 -0.00000000000E+00  0.00000000000E+00  0.19430507512E+03  0.19430507514E+03  0.25500000000E-02 0.  1.
          2   -1    0    0  501    0  0.00000000000E+00 -0.00000000000E+00 -0.17110969607E+04  0.17110969607E+04  0.25500000000E-02 0. -1.
    8880023    1    1    2    0    0  0.48601196964E+02  0.22682993615E+02 -0.15942412279E+04  0.17257728395E+04  0.65864270000E+03 0. -1.
    8880022    1    1    2    0    0 -0.48601196964E+02 -0.22682993615E+02  0.77449342308E+02  0.17962919636E+03  0.15294330000E+03 0.  0.
<mgrwt>
<rscale>  0 0.46504252E+03</rscale>
<asrwt>0</asrwt>
<pdfrwt beam="1">  1        2 0.26324568E+00 0.66082282E+03</pdfrwt>
<pdfrwt beam="2">  1       -2 0.29893090E-01 0.66082282E+03</pdfrwt>
<totfact> 0.10281806E+02</totfact>
</mgrwt>
</event>
<event>
 4    1  0.7280516E-007  0.6659120E+03  0.7818608E-02  0.1018780E+00
         -2   -1    0    0    0  501 -0.00000000000E+00  0.00000000000E+00  0.51262124817E+03  0.51262124817E+03  0.25500000000E-02 0.  1.
          2   -1    0    0  501    0  0.00000000000E+00 -0.00000000000E+00 -0.36253507566E+03  0.36253507566E+03  0.25500000000E-02 0. -1.
    8880023    1    1    2    0    0  0.56879792509E+02  0.79957773248E+02  0.50208429621E+02  0.66780210315E+03  0.65864270000E+03 0. -1.
    8880022    1    1    2    0    0 -0.56879792509E+02 -0.79957773248E+02  0.99877742891E+02  0.20735422069E+03  0.15294330000E+03 0.  1.
<mgrwt>
<rscale>  0 0.48129361E+03</rscale>
<asrwt>0</asrwt>
<pdfrwt beam="1">  1        2 0.55774627E-01 0.66591198E+03</pdfrwt>
<pdfrwt beam="2">  1       -2 0.78864807E-01 0.66591198E+03</pdfrwt>
<totfact> 0.12854757E+02</totfact>
</mgrwt>
</event>
<event>
 4    1  0.7280516E-007  0.6878927E+03  0.7818608E-02  0.1005171E+00
          2   -1    0    0  501    0  0.00000000000E+00  0.00000000000E+00  0.18804632731E+04  0.18804632731E+04  0.25500000000E-02 0. -1.
         -2   -1    0    0    0  501 -0.00000000000E+00 -0.00000000000E+00 -0.35964252929E+03  0.35964252930E+03  0.25500000000E-02 0.  1.
    8880023    1    1    2    0    0 -0.14448195685E+03 -0.13605563798E+03  0.17625019905E+04  0.18919856356E+04  0.65864270000E+03 0. -1.
    8880022    1    1    2    0    0  0.14448195685E+03  0.13605563798E+03 -0.24168124673E+03  0.34812016677E+03  0.15294330000E+03 0.  0.
<mgrwt>
<rscale>  0 0.53439983E+03</rscale>
<asrwt>0</asrwt>
<pdfrwt beam="1">  1        2 0.28930203E+00 0.68789271E+03</pdfrwt>
<pdfrwt beam="2">  1       -2 0.55329621E-01 0.68789271E+03</pdfrwt>
<totfact> 0.24853092E+01</totfact>
</mgrwt>
</event>
<event>
 4    1  0.7280516E-007  0.9240023E+03  0.7818608E-02  0.9488549E-01
          2   -1    0    0  501    0  0.00000000000E+00  0.00000000000E+00  0.38539341071E+03  0.38539341072E+03  0.25500000000E-02 0. -1.
         -2   -1    0    0    0  501 -0.00000000000E+00 -0.00000000000E+00 -0.22422331193E+04  0.22422331193E+04  0.25500000000E-02 0.  1.
    8880023    1    1    2    0    0 -0.64495606174E+03 -0.63259246445E+02 -0.17131440469E+04  0.19464436251E+04  0.65864270000E+03 0.  0.
    8880022    1    1    2    0    0  0.64495606174E+03  0.63259246445E+02 -0.14369566171E+03  0.68118290499E+03  0.15294330000E+03 0.  0.
<mgrwt>
<rscale>  0 0.85133319E+03</rscale>
<asrwt>0</asrwt>
<pdfrwt beam="1">  1        2 0.59291295E-01 0.92400231E+03</pdfrwt>
<pdfrwt beam="2">  1       -2 0.34495893E+00 0.92400231E+03</pdfrwt>
<totfact> 0.14230042E+00</totfact>
</mgrwt>
</event>
<event>
 4    1  0.7280516E-007  0.1231689E+04  0.7818608E-02  0.9126917E-01
         -2   -1    0    0    0  501 -0.00000000000E+00  0.00000000000E+00  0.12991111739E+04  0.12991111739E+04  0.25500000000E-02 0.  1.
          2   -1    0    0  501    0  0.00000000000E+00 -0.00000000000E+00 -0.22398556375E+04  0.22398556375E+04  0.25500000000E-02 0. -1.
    8880023    1    1    2    0    0  0.10264143665E+04  0.17240146138E+03 -0.17997292521E+04  0.21808448598E+04  0.65864270000E+03 0.  0.
    8880022    1    1    2    0    0 -0.10264143665E+04 -0.17240146138E+03  0.85898478840E+03  0.13581219516E+04  0.15294330000E+03 0.  0.
<mgrwt>
<rscale>  0 0.11840682E+04</rscale>
<asrwt>0</asrwt>
<pdfrwt beam="1">  1        2 0.34459317E+00 0.12316895E+04</pdfrwt>
<pdfrwt beam="2">  1       -2 0.19986326E+00 0.12316895E+04</pdfrwt>
<totfact> 0.63328308E-01</totfact>
</mgrwt>
</event>
<event>
 4    1  0.7578219E-007  0.6639081E+03  0.7818608E-02  0.1020468E+00
         -2   -1    0    0    0  501 -0.00000000000E+00  0.00000000000E+00  0.35240950406E+03  0.35240950406E+03  0.25500000000E-02 0.  1.
          2   -1    0    0  501    0  0.00000000000E+00 -0.00000000000E+00 -0.16310586978E+04  0.16310586978E+04  0.25500000000E-02 0. -1.
    8880023    1    1    2    0    0 -0.80435673764E+02  0.22222836365E+02 -0.15356255141E+04  0.16729972140E+04  0.65864270000E+03 0. -1.
    8880022    1    1    2    0    0  0.80435673764E+02 -0.22222836365E+02  0.25697632038E+03  0.31047098789E+03  0.15294330000E+03 0.  0.
<mgrwt>
<rscale>  0 0.47518254E+03</rscale>
<asrwt>0</asrwt>
<pdfrwt beam="1">  1        2 0.25093210E+00 0.66390809E+03</pdfrwt>
<pdfrwt beam="2">  1       -2 0.54216848E-01 0.66390809E+03</pdfrwt>
<totfact> 0.35554491E+01</totfact>
</mgrwt>
</event>
<event>
 4    1  0.7280516E-007  0.1248484E+04  0.7818608E-02  0.9111376E-01
          2   -1    0    0  501    0  0.00000000000E+00  0.00000000000E+00  0.10236994127E+04  0.10236994127E+04  0.25500000000E-02 0. -1.
         -2   -1    0    0    0  501 -0.00000000000E+00 -0.00000000000E+00 -0.18016606479E+04  0.18016606479E+04  0.25500000000E-02 0.  1.
    8880023    1    1    2    0    0 -0.85814815791E+03  0.62328393662E+03  0.32238844249E+03  0.12894361716E+04  0.65864270000E+03 0.  0.
    8880022    1    1    2    0    0  0.85814815791E+03 -0.62328393662E+03 -0.11003496777E+04  0.15359238890E+04  0.15294330000E+03 0.  0.
<mgrwt>
<rscale>  0 0.12016935E+04</rscale>
<asrwt>0</asrwt>
<pdfrwt beam="1">  1        2 0.15749222E+00 0.12484836E+04</pdfrwt>
<pdfrwt beam="2">  1       -2 0.27717856E+00 0.12484836E+04</pdfrwt>
<totfact> 0.10345340E+00</totfact>
</mgrwt>
</event>
<event>
 4    1  0.7280516E-007  0.9656301E+03  0.7818608E-02  0.9427974E-01
          2   -1    0    0  501    0  0.00000000000E+00  0.00000000000E+00  0.21706256487E+04  0.21706256487E+04  0.25500000000E-02 0. -1.
         -2   -1    0    0    0  501 -0.00000000000E+00 -0.00000000000E+00 -0.74043733673E+03  0.74043733674E+03  0.25500000000E-02 0.  1.
    8880023    1    1    2    0    0 -0.66898112988E+03 -0.22604333283E+03  0.18417610015E+04  0.20795492620E+04  0.65864270000E+03 0.  0.
    8880022    1    1    2    0    0  0.66898112988E+03  0.22604333283E+03 -0.41157268949E+03  0.83151372340E+03  0.15294330000E+03 0.  0.
<mgrwt>
<rscale>  0 0.89808886E+03</rscale>
<asrwt>0</asrwt>
<pdfrwt beam="1">  1        2 0.33394241E+00 0.96563013E+03</pdfrwt>
<pdfrwt beam="2">  1       -2 0.11391344E+00 0.96563013E+03</pdfrwt>
<totfact> 0.32582056E+00</totfact>
</mgrwt>
</event>
<event>
 4    1  0.7280516E-007  0.6642550E+03  0.7818608E-02  0.1020167E+00
         -2   -1    0    0    0  501 -0.00000000000E+00  0.00000000000E+00  0.89522923247E+03  0.89522923247E+03  0.25500000000E-02 0.  1.
          2   -1    0    0  501    0  0.00000000000E+00 -0.00000000000E+00 -0.73682174344E+03  0.73682174344E+03  0.25500000000E-02 0. -1.
    8880023    1    1    2    0    0 -0.60571339455E+02 -0.61282864031E+02 -0.57461382622E+03  0.87830275653E+03  0.65864270000E+03 0. -1.
    8880022    1    1    2    0    0  0.60571339455E+02  0.61282864031E+02  0.73302131525E+03  0.75374821938E+03  0.15294330000E+03 0.  0.
<mgrwt>
<rscale>  0 0.47626468E+03</rscale>
<asrwt>0</asrwt>
<pdfrwt beam="1">  1        2 0.11335719E+00 0.66425498E+03</pdfrwt>
<pdfrwt beam="2">  1       -2 0.13772757E+00 0.66425498E+03</pdfrwt>
<totfact> 0.14728527E+01</totfact>
</mgrwt>
</event>
<event>
 4    1  0.7280516E-007  0.1124615E+04  0.7818608E-02  0.9234132E-01
          2   -1    0    0  501    0  0.00000000000E+00  0.00000000000E+00  0.32468082002E+04  0.32468082002E+04  0.25500000000E-02 0. -1.
         -2   -1    0    0    0  501 -0.00000000000E+00 -0.00000000000E+00 -0.36947505377E+03  0.36947505378E+03  0.25500000000E-02 0.  1.
    8880023    1    1    2    0    0  0.88133829396E+03  0.23279276653E+03  0.92481751909E+03  0.14560382242E+04  0.65864270000E+03 0.  0.
    8880022    1    1    2    0    0 -0.88133829396E+03 -0.23279276653E+03  0.19525156274E+04  0.21602450298E+04  0.15294330000E+03 0.  0.
<mgrwt>
<rscale>  0 0.10707965E+04</rscale>
<asrwt>0</asrwt>
<pdfrwt beam="1">  1        2 0.49950895E+00 0.11246154E+04</pdfrwt>
<pdfrwt beam="2">  1       -2 0.56842317E-01 0.11246154E+04</pdfrwt>
<totfact> 0.35463164E+00</totfact>
</mgrwt>
</event>
<event>
 4    1  0.7280516E-007  0.6763895E+03  0.7818608E-02  0.1011444E+00
          2   -1    0    0  501    0  0.00000000000E+00  0.00000000000E+00  0.73802834661E+03  0.73802834661E+03  0.25500000000E-02 0. -1.
         -2   -1    0    0    0  501 -0.00000000000E+00 -0.00000000000E+00 -0.30096804280E+03  0.30096804281E+03  0.25500000000E-02 0.  1.
    8880023    1    1    2    0    0  0.46845301965E+02  0.14662235399E+03  0.46414258462E+03  0.82032380322E+03  0.65864270000E+03 0. -1.
    8880022    1    1    2    0    0 -0.46845301965E+02 -0.14662235399E+03 -0.27082280806E+02  0.21867258620E+03  0.15294330000E+03 0.  1.
<mgrwt>
<rscale>  0 0.50904610E+03</rscale>
<asrwt>0</asrwt>
<pdfrwt beam="1">  1        2 0.11354282E+00 0.67638954E+03</pdfrwt>
<pdfrwt beam="2">  1       -2 0.46302776E-01 0.67638954E+03</pdfrwt>
<totfact> 0.17175345E+02</totfact>
</mgrwt>
</event>
<event>
 4    1  0.7280516E-007  0.6816004E+03  0.7818608E-02  0.1008432E+00
         -2   -1    0    0    0  501 -0.00000000000E+00  0.00000000000E+00  0.28119882920E+03  0.28119882922E+03  0.25500000000E-02 0.  1.
          2   -1    0    0  501    0  0.00000000000E+00 -0.00000000000E+00 -0.10915264359E+04  0.10915264359E+04  0.25500000000E-02 0. -1.
    8880023    1    1    2    0    0 -0.14030741712E+03 -0.10527439201E+03 -0.89507537617E+03  0.11250506674E+04  0.65864270000E+03 0. -1.
    8880022    1    1    2    0    0  0.14030741712E+03  0.10527439201E+03  0.84747769474E+02  0.24767459773E+03  0.15294330000E+03 0.  0.
<mgrwt>
<rscale>  0 0.52102399E+03</rscale>
<asrwt>0</asrwt>
<pdfrwt beam="1">  1        2 0.16792714E+00 0.68160038E+03</pdfrwt>
<pdfrwt beam="2">  1       -2 0.43261359E-01 0.68160038E+03</pdfrwt>
<totfact> 0.11384370E+02</totfact>
</mgrwt>
</event>
<event>
 4    1  0.7280516E-007  0.1107890E+04  0.7818608E-02  0.9252322E-01
          2   -1    0    0  501    0  0.00000000000E+00  0.00000000000E+00  0.34797997940E+04  0.34797997940E+04  0.25500000000E-02 0. -1.
         -2   -1    0    0    0  501 -0.00000000000E+00 -0.00000000000E+00 -0.51376465242E+03  0.51376465242E+03  0.25500000000E-02 0.  1.
    8880023    1    1    2    0    0 -0.89011144909E+03  0.36206219620E+02  0.28798252627E+04  0.30855814739E+04  0.65864270000E+03 0.  0.
    8880022    1    1    2    0    0  0.89011144909E+03 -0.36206219620E+02  0.86209878860E+02  0.90798297251E+03  0.15294330000E+03 0.  0.
<mgrwt>
<rscale>  0 0.10529317E+04</rscale>
<asrwt>0</asrwt>
<pdfrwt beam="1">  1        2 0.53535381E+00 0.11078897E+04</pdfrwt>
<pdfrwt beam="2">  1       -2 0.79040716E-01 0.11078897E+04</pdfrwt>
<totfact> 0.12128623E+00</totfact>
</mgrwt>
</event>
<event>
 4    1  0.7280516E-007  0.6960968E+03  0.7818608E-02  0.1001379E+00
          2   -1    0    0  501    0  0.00000000000E+00  0.00000000000E+00  0.19981166844E+04  0.19981166844E+04  0.25500000000E-02 0. -1.
         -2   -1    0    0    0  501 -0.00000000000E+00 -0.00000000000E+00 -0.15970913159E+03  0.15970913161E+03  0.25500000000E-02 0.  1.
    8880023    1    1    2    0    0 -0.10457554384E+03 -0.19951075073E+03  0.17299514606E+04  0.18647473948E+04  0.65864270000E+03 0.  0.
    8880022    1    1    2    0    0  0.10457554384E+03  0.19951075073E+03  0.10845609216E+03  0.29307842119E+03  0.15294330000E+03 0.  0.
<mgrwt>
<rscale>  0 0.55049468E+03</rscale>
<asrwt>0</asrwt>
<pdfrwt beam="1">  1        2 0.30740256E+00 0.69609683E+03</pdfrwt>
<pdfrwt beam="2">  1       -2 0.24570636E-01 0.69609683E+03</pdfrwt>
<totfact> 0.10224357E+02</totfact>
</mgrwt>
</event>
<event>
 4    1  0.7280516E-007  0.7665171E+03  0.7818608E-02  0.9788518E-01
          2   -1    0    0  501    0  0.00000000000E+00  0.00000000000E+00  0.14044556164E+04  0.14044556164E+04  0.25500000000E-02 0. -1.
         -2   -1    0    0    0  501 -0.00000000000E+00 -0.00000000000E+00 -0.44871269539E+03  0.44871269540E+03  0.25500000000E-02 0.  1.
    8880023    1    1    2    0    0  0.35409090821E+03  0.16839817309E+03  0.11560349927E+04  0.13870708080E+04  0.65864270000E+03 0. -1.
    8880022    1    1    2    0    0 -0.35409090821E+03 -0.16839817309E+03 -0.20029207170E+03  0.46609750372E+03  0.15294330000E+03 0.  0.
<mgrwt>
<rscale>  0 0.65982370E+03</rscale>
<asrwt>0</asrwt>
<pdfrwt beam="1">  1        2 0.21607009E+00 0.76651714E+03</pdfrwt>
<pdfrwt beam="2">  1       -2 0.69032723E-01 0.76651714E+03</pdfrwt>
<totfact> 0.28117196E+01</totfact>
</mgrwt>
</event>
<event>
 4    1  0.7280516E-007  0.6728531E+03  0.7818608E-02  0.1013695E+00
          2   -1    0    0  501    0  0.00000000000E+00  0.00000000000E+00  0.27890603196E+04  0.27890603196E+04  0.25500000000E-02 0. -1.
         -2   -1    0    0    0  501 -0.00000000000E+00 -0.00000000000E+00 -0.15785132092E+03  0.15785132094E+03  0.25500000000E-02 0.  1.
    8880023    1    1    2    0    0 -0.13742636060E+03  0.59223517316E+01  0.26558344231E+04  0.27397422814E+04  0.65864270000E+03 0. -1.
    8880022    1    1    2    0    0  0.13742636060E+03 -0.59223517316E+01 -0.24625424472E+02  0.20716935918E+03  0.15294330000E+03 0.  0.
<mgrwt>
<rscale>  0 0.50032139E+03</rscale>
<asrwt>0</asrwt>
<pdfrwt beam="1">  1        2 0.42908621E+00 0.67285309E+03</pdfrwt>
<pdfrwt beam="2">  1       -2 0.24284818E-01 0.67285309E+03</pdfrwt>
<totfact> 0.37689491E+01</totfact>
</mgrwt>
</event>
<event>
 4    1  0.7280516E-007  0.7407973E+03  0.7818608E-02  0.9857631E-01
         -2   -1    0    0    0  501 -0.00000000000E+00  0.00000000000E+00  0.62241504492E+03  0.62241504492E+03  0.25500000000E-02 0.  1.
          2   -1    0    0  501    0  0.00000000000E+00 -0.00000000000E+00 -0.10664955040E+04  0.10664955040E+04  0.25500000000E-02 0. -1.
    8880023    1    1    2    0    0  0.26778921883E+03  0.20798892798E+03 -0.85723827902E+03  0.11329775519E+04  0.65864270000E+03 0. -1.
    8880022    1    1    2    0    0 -0.26778921883E+03 -0.20798892798E+03  0.41315781998E+03  0.55593299696E+03  0.15294330000E+03 0.  0.
<mgrwt>
<rscale>  0 0.62359367E+03</rscale>
<asrwt>0</asrwt>
<pdfrwt beam="1">  1        2 0.16407623E+00 0.74079732E+03</pdfrwt>
<pdfrwt beam="2">  1       -2 0.95756161E-01 0.74079732E+03</pdfrwt>
<totfact> 0.21292553E+01</totfact>
</mgrwt>
</event>
<event>
 4    1  0.7280516E-007  0.7626147E+03  0.7818608E-02  0.9798385E-01
         -2   -1    0    0    0  501 -0.00000000000E+00  0.00000000000E+00  0.11421957016E+04  0.11421957016E+04  0.25500000000E-02 0.  1.
          2   -1    0    0  501    0  0.00000000000E+00 -0.00000000000E+00 -0.37879444817E+03  0.37879444818E+03  0.25500000000E-02 0. -1.
    8880023    1    1    2    0    0  0.40653237778E+02 -0.38225427705E+03  0.14394371352E+03  0.77608054800E+03  0.65864270000E+03 0.  0.
    8880022    1    1    2    0    0 -0.40653237778E+02  0.38225427705E+03  0.61945753988E+03  0.74490960176E+03  0.15294330000E+03 0.  0.
<mgrwt>
<rscale>  0 0.65449303E+03</rscale>
<asrwt>0</asrwt>
<pdfrwt beam="1">  1        2 0.58276069E-01 0.76261473E+03</pdfrwt>
<pdfrwt beam="2">  1       -2 0.17572242E+00 0.76261473E+03</pdfrwt>
<totfact> 0.16649629E+01</totfact>
</mgrwt>
</event>
<event>
 4    1  0.7280516E-007  0.1138958E+04  0.7818608E-02  0.9218872E-01
         -2   -1    0    0    0  501 -0.00000000000E+00  0.00000000000E+00  0.54310110782E+03  0.54310110783E+03  0.25500000000E-02 0.  1.
          2   -1    0    0  501    0  0.00000000000E+00 -0.00000000000E+00 -0.29134811894E+04  0.29134811895E+04  0.25500000000E-02 0. -1.
    8880023    1    1    2    0    0  0.43186881200E+03 -0.82274256276E+03 -0.22306051300E+04  0.25045609291E+04  0.65864270000E+03 0.  0.
    8880022    1    1    2    0    0 -0.43186881200E+03  0.82274256276E+03 -0.13977495164E+03  0.95202136818E+03  0.15294330000E+03 0.  0.
<mgrwt>
<rscale>  0 0.10860744E+04</rscale>
<asrwt>0</asrwt>
<pdfrwt beam="1">  1        2 0.44822787E+00 0.11389584E+04</pdfrwt>
<pdfrwt beam="2">  1       -2 0.83554018E-01 0.11389584E+04</pdfrwt>
<totfact> 0.24675458E+00</totfact>
</mgrwt>
</event>
<event>
 4    1  0.7280516E-007  0.1026756E+04  0.7818608E-02  0.9347361E-01
         -2   -1    0    0    0  501 -0.00000000000E+00  0.00000000000E+00  0.38585787216E+03  0.38585787217E+03  0.25500000000E-02 0.  1.
          2   -1    0    0  501    0  0.00000000000E+00 -0.00000000000E+00 -0.24327617567E+04  0.24327617567E+04  0.25500000000E-02 0. -1.
    8880023    1    1    2    0    0  0.75950776740E+03 -0.20872178942E+03 -0.67327601389E+03  0.12278141681E+04  0.65864270000E+03 0.  0.
    8880022    1    1    2    0    0 -0.75950776740E+03  0.20872178942E+03 -0.13736278706E+04  0.15908054608E+04  0.15294330000E+03 0.  0.
<mgrwt>
<rscale>  0 0.96537244E+03</rscale>
<asrwt>0</asrwt>
<pdfrwt beam="1">  1        2 0.37427103E+00 0.10267556E+04</pdfrwt>
<pdfrwt beam="2">  1       -2 0.59362751E-01 0.10267556E+04</pdfrwt>
<totfact> 0.10158323E+01</totfact>
</mgrwt>
</event>
<event>
 4    1  0.7280516E-007  0.7841766E+03  0.7818608E-02  0.9746116E-01
         -2   -1    0    0    0  501 -0.00000000000E+00  0.00000000000E+00  0.49939038935E+03  0.49939038936E+03  0.25500000000E-02 0.  1.
          2   -1    0    0  501    0  0.00000000000E+00 -0.00000000000E+00 -0.10093986971E+04  0.10093986971E+04  0.25500000000E-02 0. -1.
    8880023    1    1    2    0    0 -0.37708496869E+03 -0.19730618882E+03 -0.66761953111E+03  0.10298780755E+04  0.65864270000E+03 0.  0.
    8880022    1    1    2    0    0  0.37708496869E+03  0.19730618882E+03  0.15761122331E+03  0.47891101103E+03  0.15294330000E+03 0.  0.
<mgrwt>
<rscale>  0 0.68336217E+03</rscale>
<asrwt>0</asrwt>
<pdfrwt beam="1">  1        2 0.15529211E+00 0.78417665E+03</pdfrwt>
<pdfrwt beam="2">  1       -2 0.76829291E-01 0.78417665E+03</pdfrwt>
<totfact> 0.38077923E+01</totfact>
</mgrwt>
</event>
<event>
 4    1  0.7280516E-007  0.7104570E+03  0.7818608E-02  0.9956308E-01
          2   -1    0    0  501    0  0.00000000000E+00  0.00000000000E+00  0.17749634647E+04  0.17749634647E+04  0.25500000000E-02 0. -1.
         -2   -1    0    0    0  501 -0.00000000000E+00 -0.00000000000E+00 -0.26244456311E+03  0.26244456313E+03  0.25500000000E-02 0.  1.
    8880023    1    1    2    0    0  0.20003858981E+03  0.17585095944E+03  0.15715266725E+04  0.17246580200E+04  0.65864270000E+03 0. -1.
    8880022    1    1    2    0    0 -0.20003858981E+03 -0.17585095944E+03 -0.59007770905E+02  0.31275000782E+03  0.15294330000E+03 0.  0.
<mgrwt>
<rscale>  0 0.57608288E+03</rscale>
<asrwt>0</asrwt>
<pdfrwt beam="1">  1        2 0.27307130E+00 0.71045704E+03</pdfrwt>
<pdfrwt beam="2">  1       -2 0.40376087E-01 0.71045704E+03</pdfrwt>
<totfact> 0.53303619E+01</totfact>
</mgrwt>
</event>
<event>
 4    1  0.7280516E-007  0.1061864E+04  0.7818608E-02  0.9304753E-01
          2   -1    0    0  501    0  0.00000000000E+00  0.00000000000E+00  0.31061878461E+04  0.31061878461E+04  0.25500000000E-02 0. -1.
         -2   -1    0    0    0  501 -0.00000000000E+00 -0.00000000000E+00 -0.62843174793E+03  0.62843174794E+03  0.25500000000E-02 0.  1.
    8880023    1    1    2    0    0  0.74432063869E+03  0.37380687920E+03  0.26637479975E+04  0.28675962751E+04  0.65864270000E+03 0.  0.
    8880022    1    1    2    0    0 -0.74432063869E+03 -0.37380687920E+03 -0.18599189931E+03  0.86702331903E+03  0.15294330000E+03 0.  0.
<mgrwt>
<rscale>  0 0.10034642E+04</rscale>
<asrwt>0</asrwt>
<pdfrwt beam="1">  1        2 0.47787505E+00 0.10618639E+04</pdfrwt>
<pdfrwt beam="2">  1       -2 0.96681808E-01 0.10618639E+04</pdfrwt>
<totfact> 0.13505556E+00</totfact>
</mgrwt>
</event>
<event>
 4    1  0.7280516E-007  0.7153801E+03  0.7818608E-02  0.9938540E-01
         -2   -1    0    0    0  501 -0.00000000000E+00  0.00000000000E+00  0.52914863708E+03  0.52914863709E+03  0.25500000000E-02 0.  1.
          2   -1    0    0  501    0  0.00000000000E+00 -0.00000000000E+00 -0.10094093710E+04  0.10094093710E+04  0.25500000000E-02 0. -1.
    8880023    1    1    2    0    0 -0.19826632471E+03  0.19659344713E+03 -0.80968368264E+03  0.10804426830E+04  0.65864270000E+03 0. -1.
    8880022    1    1    2    0    0  0.19826632471E+03 -0.19659344713E+03  0.32942294871E+03  0.45811532514E+03  0.15294330000E+03 0.  0.
<mgrwt>
<rscale>  0 0.58429304E+03</rscale>
<asrwt>0</asrwt>
<pdfrwt beam="1">  1        2 0.15529375E+00 0.71538013E+03</pdfrwt>
<pdfrwt beam="2">  1       -2 0.81407483E-01 0.71538013E+03</pdfrwt>
<totfact> 0.33657454E+01</totfact>
</mgrwt>
</event>
<event>
 4    1  0.7280516E-007  0.7479603E+03  0.7818608E-02  0.9837338E-01
          2   -1    0    0  501    0  0.00000000000E+00  0.00000000000E+00  0.13665015064E+04  0.13665015064E+04  0.25500000000E-02 0. -1.
         -2   -1    0    0    0  501 -0.00000000000E+00 -0.00000000000E+00 -0.50191060849E+03  0.50191060849E+03  0.25500000000E-02 0.  1.
    8880023    1    1    2    0    0 -0.35420177879E+03 -0.13248125008E+02  0.11614346911E+04  0.13814395248E+04  0.65864270000E+03 0.  0.
    8880022    1    1    2    0    0  0.35420177879E+03  0.13248125008E+02 -0.29684379315E+03  0.48697259005E+03  0.15294330000E+03 0.  0.
<mgrwt>
<rscale>  0 0.63396706E+03</rscale>
<asrwt>0</asrwt>
<pdfrwt beam="1">  1        2 0.21023099E+00 0.74796031E+03</pdfrwt>
<pdfrwt beam="2">  1       -2 0.77217019E-01 0.74796031E+03</pdfrwt>
<totfact> 0.23129326E+01</totfact>
</mgrwt>
</event>
<event>
 4    1  0.7280516E-007  0.8611060E+03  0.7818608E-02  0.9591599E-01
         -2   -1    0    0    0  501 -0.00000000000E+00  0.00000000000E+00  0.50465723722E+03  0.50465723723E+03  0.25500000000E-02 0.  1.
          2   -1    0    0  501    0  0.00000000000E+00 -0.00000000000E+00 -0.11312704332E+04  0.11312704332E+04  0.25500000000E-02 0. -1.
    8880023    1    1    2    0    0 -0.14943183629E+03 -0.53419416063E+03 -0.61895707209E+03  0.10604769391E+04  0.65864270000E+03 0.  0.
    8880022    1    1    2    0    0  0.14943183629E+03  0.53419416063E+03 -0.76561238704E+01  0.57545073134E+03  0.15294330000E+03 0.  0.
<mgrwt>
<rscale>  0 0.77854707E+03</rscale>
<asrwt>0</asrwt>
<pdfrwt beam="1">  1        2 0.17404160E+00 0.86110596E+03</pdfrwt>
<pdfrwt beam="2">  1       -2 0.77639575E-01 0.86110596E+03</pdfrwt>
<totfact> 0.31033660E+01</totfact>
</mgrwt>
</event>
<event>
 4    1  0.7280516E-007  0.6715006E+03  0.7818608E-02  0.1014609E+00
         -2   -1    0    0    0  501 -0.00000000000E+00  0.00000000000E+00  0.81023469595E+03  0.81023469596E+03  0.25500000000E-02 0.  1.
          2   -1    0    0  501    0  0.00000000000E+00 -0.00000000000E+00 -0.36030742128E+03  0.36030742129E+03  0.25500000000E-02 0. -1.
    8880023    1    1    2    0    0 -0.20901246894E+02 -0.12909700474E+03 -0.67065211799E+01  0.67153412605E+03  0.65864270000E+03 0. -1.
    8880022    1    1    2    0    0  0.20901246894E+02  0.12909700474E+03  0.45663379585E+03  0.49900799120E+03  0.15294330000E+03 0.  0.
<mgrwt>
<rscale>  0 0.49683181E+03</rscale>
<asrwt>0</asrwt>
<pdfrwt beam="1">  1        2 0.55431911E-01 0.67150064E+03</pdfrwt>
<pdfrwt beam="2">  1       -2 0.12465149E+00 0.67150064E+03</pdfrwt>
<totfact> 0.43903588E+01</totfact>
</mgrwt>
</event>
<event>
 4    1  0.8419088E-007  0.1377694E+04  0.7818608E-02  0.9001212E-01
         -2   -1    0    0    0  501 -0.00000000000E+00  0.00000000000E+00  0.15903891329E+04  0.15903891329E+04  0.25500000000E-02 0.  1.
          2   -1    0    0  501    0  0.00000000000E+00 -0.00000000000E+00 -0.25559485555E+04  0.25559485555E+04  0.25500000000E-02 0. -1.
    8880023    1    1    2    0    0 -0.98587574404E+03 -0.70162578234E+03 -0.20795392183E+04  0.24944986045E+04  0.65864270000E+03 0.  0.
    8880022    1    1    2    0    0  0.98587574404E+03  0.70162578234E+03  0.11139797956E+04  0.16518390839E+04  0.15294330000E+03 0.  0.
<mgrwt>
<rscale>  0 0.13363680E+04</rscale>
<asrwt>0</asrwt>
<pdfrwt beam="1">  1        2 0.39322285E+00 0.13776937E+04</pdfrwt>
<pdfrwt beam="2">  1       -2 0.24467525E+00 0.13776937E+04</pdfrwt>
<totfact> 0.21330952E-01</totfact>
</mgrwt>
</event>
<event>
 4    1  0.7280516E-007  0.6712978E+03  0.7818608E-02  0.1014749E+00
         -2   -1    0    0    0  501 -0.00000000000E+00  0.00000000000E+00  0.81731566977E+02  0.81731567016E+02  0.25500000000E-02 0.  1.
          2   -1    0    0  501    0  0.00000000000E+00 -0.00000000000E+00 -0.26326032319E+04  0.26326032319E+04  0.25500000000E-02 0. -1.
    8880023    1    1    2    0    0 -0.12310369874E+03  0.40938353706E+02 -0.22833492770E+04  0.23799841588E+04  0.65864270000E+03 0.  0.
    8880022    1    1    2    0    0  0.12310369874E+03 -0.40938353706E+02 -0.26752238796E+03  0.33435064008E+03  0.15294330000E+03 0.  0.
<mgrwt>
<rscale>  0 0.49630028E+03</rscale>
<asrwt>0</asrwt>
<pdfrwt beam="1">  1        2 0.40501582E+00 0.67129775E+03</pdfrwt>
<pdfrwt beam="2">  1       -2 0.12574089E-01 0.67129775E+03</pdfrwt>
<totfact> 0.14423972E+02</totfact>
</mgrwt>
</event>
<event>
 4    1  0.1057808E-006  0.7914268E+03  0.7818608E-02  0.9729649E-01
          2   -1    0    0  501    0  0.00000000000E+00  0.00000000000E+00  0.20309002107E+04  0.20309002107E+04  0.25500000000E-02 0. -1.
         -2   -1    0    0    0  501 -0.00000000000E+00 -0.00000000000E+00 -0.10847448503E+04  0.10847448503E+04  0.25500000000E-02 0.  1.
    8880023    1    1    2    0    0 -0.16161063962E+02 -0.43850311709E+03  0.18980167583E+04  0.20564104611E+04  0.65864270000E+03 0. -1.
    8880022    1    1    2    0    0  0.16161063962E+02  0.43850311709E+03 -0.95186139792E+03  0.10592345999E+04  0.15294330000E+03 0.  0.
<mgrwt>
<rscale>  0 0.69278608E+03</rscale>
<asrwt>0</asrwt>
<pdfrwt beam="1">  1        2 0.31244618E+00 0.79142679E+03</pdfrwt>
<pdfrwt beam="2">  1       -2 0.16688383E+00 0.79142679E+03</pdfrwt>
<totfact> 0.14872408E+00</totfact>
</mgrwt>
</event>
<event>
 4    1  0.7280516E-007  0.1238078E+04  0.7818608E-02  0.9120968E-01
         -2   -1    0    0    0  501 -0.00000000000E+00  0.00000000000E+00  0.15456485887E+04  0.15456485887E+04  0.25500000000E-02 0.  1.
          2   -1    0    0  501    0  0.00000000000E+00 -0.00000000000E+00 -0.21393402946E+04  0.21393402946E+04  0.25500000000E-02 0. -1.
    8880023    1    1    2    0    0 -0.61816500205E+03  0.84669878786E+03 -0.17326077699E+04  0.21294991659E+04  0.65864270000E+03 0. -1.
    8880022    1    1    2    0    0  0.61816500205E+03 -0.84669878786E+03  0.11389160640E+04  0.15554897174E+04  0.15294330000E+03 0.  0.
<mgrwt>
<rscale>  0 0.11907767E+04</rscale>
<asrwt>0</asrwt>
<pdfrwt beam="1">  1        2 0.32912927E+00 0.12380780E+04</pdfrwt>
<pdfrwt beam="2">  1       -2 0.23779209E+00 0.12380780E+04</pdfrwt>
<totfact> 0.41336954E-01</totfact>
</mgrwt>
</event>
<event>
 4    1  0.7280516E-007  0.8462256E+03  0.7818608E-02  0.9618551E-01
          2   -1    0    0  501    0  0.00000000000E+00  0.00000000000E+00  0.21516385214E+04  0.21516385214E+04  0.25500000000E-02 0. -1.
         -2   -1    0    0    0  501 -0.00000000000E+00 -0.00000000000E+00 -0.37492974375E+03  0.37492974376E+03  0.25500000000E-02 0.  1.
    8880023    1    1    2    0    0  0.13814135962E+03  0.51303468477E+03  0.17830295231E+04  0.19736494394E+04  0.65864270000E+03 0. -1.
    8880022    1    1    2    0    0 -0.13814135962E+03 -0.51303468477E+03 -0.63207455064E+01  0.55291882574E+03  0.15294330000E+03 0.  0.
<mgrwt>
<rscale>  0 0.76080417E+03</rscale>
<asrwt>0</asrwt>
<pdfrwt beam="1">  1        2 0.33102129E+00 0.84622564E+03</pdfrwt>
<pdfrwt beam="2">  1       -2 0.57681502E-01 0.84622564E+03</pdfrwt>
<totfact> 0.15849242E+01</totfact>
</mgrwt>
</event>
<event>
 4    1  0.7280516E-007  0.7261896E+03  0.7818608E-02  0.9902173E-01
          2   -1    0    0  501    0  0.00000000000E+00  0.00000000000E+00  0.10350943564E+04  0.10350943564E+04  0.25500000000E-02 0. -1.
         -2   -1    0    0    0  501 -0.00000000000E+00 -0.00000000000E+00 -0.65949586234E+03  0.65949586235E+03  0.25500000000E-02 0.  1.
    8880023    1    1    2    0    0 -0.20002225945E+03 -0.23137017473E+03  0.84478910591E+03  0.11140107278E+04  0.65864270000E+03 0. -1.
    8880022    1    1    2    0    0  0.20002225945E+03  0.23137017473E+03 -0.46919061184E+03  0.58057949092E+03  0.15294330000E+03 0.  0.
<mgrwt>
<rscale>  0 0.60156076E+03</rscale>
<asrwt>0</asrwt>
<pdfrwt beam="1">  1        2 0.15924528E+00 0.72618955E+03</pdfrwt>
<pdfrwt beam="2">  1       -2 0.10146090E+00 0.72618955E+03</pdfrwt>
<totfact> 0.19462378E+01</totfact>
</mgrwt>
</event>
<event>
 4    1  0.7280516E-007  0.7433599E+03  0.7818608E-02  0.9850266E-01
          2   -1    0    0  501    0  0.00000000000E+00  0.00000000000E+00  0.15498392573E+04  0.15498392573E+04  0.25500000000E-02 0. -1.
         -2   -1    0    0    0  501 -0.00000000000E+00 -0.00000000000E+00 -0.32794023567E+03  0.32794023568E+03  0.25500000000E-02 0.  1.
    8880023    1    1    2    0    0  0.34456043774E+03  0.72006815053E+01  0.17307764776E+03  0.76324296491E+03  0.65864270000E+03 0.  0.
    8880022    1    1    2    0    0 -0.34456043774E+03 -0.72006815053E+01  0.10488213738E+04  0.11145365280E+04  0.15294330000E+03 0.  0.
<mgrwt>
<rscale>  0 0.62733366E+03</rscale>
<asrwt>0</asrwt>
<pdfrwt beam="1">  1        2 0.23843681E+00 0.74335991E+03</pdfrwt>
<pdfrwt beam="2">  1       -2 0.50452343E-01 0.74335991E+03</pdfrwt>
<totfact> 0.45247800E+01</totfact>
</mgrwt>
</event>
<event>
 4    1  0.7280516E-007  0.7358965E+03  0.7818608E-02  0.9872066E-01
         -2   -1    0    0    0  501 -0.00000000000E+00  0.00000000000E+00  0.14148192309E+04  0.14148192309E+04  0.25500000000E-02 0.  1.
          2   -1    0    0  501    0  0.00000000000E+00 -0.00000000000E+00 -0.11770315781E+04  0.11770315781E+04  0.25500000000E-02 0. -1.
    8880023    1    1    2    0    0  0.37692410568E+02  0.32605632735E+03 -0.10342154362E+04  0.12693089542E+04  0.65864270000E+03 0. -1.
    8880022    1    1    2    0    0 -0.37692410568E+02 -0.32605632735E+03  0.12720030889E+04  0.13225418548E+04  0.15294330000E+03 0.  0.
<mgrwt>
<rscale>  0 0.61634415E+03</rscale>
<asrwt>0</asrwt>
<pdfrwt beam="1">  1        2 0.18108178E+00 0.73589650E+03</pdfrwt>
<pdfrwt beam="2">  1       -2 0.21766450E+00 0.73589650E+03</pdfrwt>
<totfact> 0.20639878E+00</totfact>
</mgrwt>
</event>
<event>
 4    1  0.7280516E-007  0.7338668E+03  0.7818608E-02  0.9878187E-01
          2   -1    0    0  501    0  0.00000000000E+00  0.00000000000E+00  0.81342878938E+03  0.81342878939E+03  0.25500000000E-02 0. -1.
         -2   -1    0    0    0  501 -0.00000000000E+00 -0.00000000000E+00 -0.40309807826E+03  0.40309807827E+03  0.25500000000E-02 0.  1.
    8880023    1    1    2    0    0 -0.21737891358E+03  0.23978454870E+03  0.44276921877E+03  0.85709101572E+03  0.65864270000E+03 0.  0.
    8880022    1    1    2    0    0  0.21737891358E+03 -0.23978454870E+03 -0.32438507650E+02  0.35943585194E+03  0.15294330000E+03 0.  0.
<mgrwt>
<rscale>  0 0.61330188E+03</rscale>
<asrwt>0</asrwt>
<pdfrwt beam="1">  1        2 0.12514289E+00 0.73386676E+03</pdfrwt>
<pdfrwt beam="2">  1       -2 0.62015090E-01 0.73386676E+03</pdfrwt>
<totfact> 0.82480263E+01</totfact>
</mgrwt>
</event>
<event>
 4    1  0.7280516E-007  0.1061278E+04  0.7818608E-02  0.9305445E-01
         -2   -1    0    0    0  501 -0.00000000000E+00  0.00000000000E+00  0.28024304928E+03  0.28024304929E+03  0.25500000000E-02 0.  1.
          2   -1    0    0  501    0  0.00000000000E+00 -0.00000000000E+00 -0.41658315652E+04  0.41658315652E+04  0.25500000000E-02 0. -1.
    8880023    1    1    2    0    0  0.49470720998E+03  0.66915267184E+03 -0.10738470992E+04  0.15097875084E+04  0.65864270000E+03 0.  1.
    8880022    1    1    2    0    0 -0.49470720998E+03 -0.66915267184E+03 -0.28117414167E+04  0.29362871061E+04  0.15294330000E+03 0.  0.
<mgrwt>
<rscale>  0 0.10028311E+04</rscale>
<asrwt>0</asrwt>
<pdfrwt beam="1">  1        2 0.64089712E+00 0.10612779E+04</pdfrwt>
<pdfrwt beam="2">  1       -2 0.43114318E-01 0.10612779E+04</pdfrwt>
<totfact> 0.13328218E+00</totfact>
</mgrwt>
</event>
<event>
 4    1  0.7280516E-007  0.6765373E+03  0.7818608E-02  0.1011354E+00
         -2   -1    0    0    0  501 -0.00000000000E+00  0.00000000000E+00  0.88704274641E+03  0.88704274641E+03  0.25500000000E-02 0.  1.
          2   -1    0    0  501    0  0.00000000000E+00 -0.00000000000E+00 -0.47484517866E+03  0.47484517866E+03  0.25500000000E-02 0. -1.
    8880023    1    1    2    0    0 -0.14267406243E+03 -0.59469216568E+02 -0.20547898612E+03  0.70705324821E+03  0.65864270000E+03 0.  0.
    8880022    1    1    2    0    0  0.14267406243E+03  0.59469216568E+02  0.61767655387E+03  0.65483467686E+03  0.15294330000E+03 0.  0.
<mgrwt>
<rscale>  0 0.50939916E+03</rscale>
<asrwt>0</asrwt>
<pdfrwt beam="1">  1        2 0.73053105E-01 0.67653727E+03</pdfrwt>
<pdfrwt beam="2">  1       -2 0.13646811E+00 0.67653727E+03</pdfrwt>
<totfact> 0.25563338E+01</totfact>
</mgrwt>
</event>
<event>
 4    1  0.7280516E-007  0.8238518E+03  0.7818608E-02  0.9661415E-01
         -2   -1    0    0    0  501 -0.00000000000E+00  0.00000000000E+00  0.54633633314E+03  0.54633633315E+03  0.25500000000E-02 0.  1.
          2   -1    0    0  501    0  0.00000000000E+00 -0.00000000000E+00 -0.21769160892E+04  0.21769160892E+04  0.25500000000E-02 0. -1.
    8880023    1    1    2    0    0  0.21987014360E+03  0.44337196262E+03 -0.19484794440E+04  0.21154914151E+04  0.65864270000E+03 0.  0.
    8880022    1    1    2    0    0 -0.21987014360E+03 -0.44337196262E+03  0.31789968798E+03  0.60776100724E+03  0.15294330000E+03 0.  0.
<mgrwt>
<rscale>  0 0.73361311E+03</rscale>
<asrwt>0</asrwt>
<pdfrwt beam="1">  1        2 0.33491016E+00 0.82385180E+03</pdfrwt>
<pdfrwt beam="2">  1       -2 0.84051744E-01 0.82385180E+03</pdfrwt>
<totfact> 0.67632334E+00</totfact>
</mgrwt>
</event>
<event>
 4    1  0.7280516E-007  0.9484230E+03  0.7818608E-02  0.9452387E-01
          2   -1    0    0  501    0  0.00000000000E+00  0.00000000000E+00  0.71539976202E+03  0.71539976202E+03  0.25500000000E-02 0. -1.
         -2   -1    0    0    0  501 -0.00000000000E+00 -0.00000000000E+00 -0.20690977891E+04  0.20690977891E+04  0.25500000000E-02 0.  1.
    8880023    1    1    2    0    0  0.59162860228E+03  0.34010511400E+03  0.29529827830E+03  0.99333135007E+03  0.65864270000E+03 0.  0.
    8880022    1    1    2    0    0 -0.59162860228E+03 -0.34010511400E+03 -0.16489963053E+04  0.17911662010E+04  0.15294330000E+03 0.  0.
<mgrwt>
<rscale>  0 0.87887046E+03</rscale>
<asrwt>0</asrwt>
<pdfrwt beam="1">  1        2 0.11006150E+00 0.94842295E+03</pdfrwt>
<pdfrwt beam="2">  1       -2 0.31832273E+00 0.94842295E+03</pdfrwt>
<totfact> 0.99208712E-01</totfact>
</mgrwt>
</event>
<event>
 4    1  0.7280516E-007  0.7612230E+03  0.7818608E-02  0.9801952E-01
          2   -1    0    0  501    0  0.00000000000E+00  0.00000000000E+00  0.42636950020E+03  0.42636950021E+03  0.25500000000E-02 0. -1.
         -2   -1    0    0    0  501 -0.00000000000E+00 -0.00000000000E+00 -0.11134472667E+04  0.11134472667E+04  0.25500000000E-02 0.  1.
    8880023    1    1    2    0    0 -0.27171624451E+03 -0.26799350313E+03 -0.26432486433E+02  0.76168176941E+03  0.65864270000E+03 0. -1.
    8880022    1    1    2    0    0  0.27171624451E+03  0.26799350313E+03 -0.66064528008E+03  0.77813499751E+03  0.15294330000E+03 0.  0.
<mgrwt>
<rscale>  0 0.65257918E+03</rscale>
<asrwt>0</asrwt>
<pdfrwt beam="1">  1        2 0.65595308E-01 0.76122299E+03</pdfrwt>
<pdfrwt beam="2">  1       -2 0.17129958E+00 0.76122299E+03</pdfrwt>
<totfact> 0.15648620E+01</totfact>
</mgrwt>
</event>
<event>
 4    1  0.7280516E-007  0.7058043E+03  0.7818608E-02  0.9973924E-01
         -2   -1    0    0    0  501 -0.00000000000E+00  0.00000000000E+00  0.35073724518E+03  0.35073724519E+03  0.25500000000E-02 0.  1.
          2   -1    0    0  501    0  0.00000000000E+00 -0.00000000000E+00 -0.10594904817E+04  0.10594904817E+04  0.25500000000E-02 0. -1.
    8880023    1    1    2    0    0  0.52859292902E+02 -0.24810362227E+03 -0.83056023533E+03  0.10899495507E+04  0.65864270000E+03 0. -1.
    8880022    1    1    2    0    0 -0.52859292902E+02  0.24810362227E+03  0.12180699877E+03  0.32027817627E+03  0.15294330000E+03 0.  0.
<mgrwt>
<rscale>  0 0.56808543E+03</rscale>
<asrwt>0</asrwt>
<pdfrwt beam="1">  1        2 0.16299854E+00 0.70580431E+03</pdfrwt>
<pdfrwt beam="2">  1       -2 0.53959576E-01 0.70580431E+03</pdfrwt>
<totfact> 0.76089671E+01</totfact>
</mgrwt>
</event>
<event>
 4    1  0.7280516E-007  0.1103558E+04  0.7818608E-02  0.9257105E-01
          2   -1    0    0  501    0  0.00000000000E+00  0.00000000000E+00  0.14442365728E+04  0.14442365728E+04  0.25500000000E-02 0. -1.
         -2   -1    0    0    0  501 -0.00000000000E+00 -0.00000000000E+00 -0.10516929452E+04  0.10516929452E+04  0.25500000000E-02 0.  1.
    8880023    1    1    2    0    0 -0.84403137438E+03 -0.26766058022E+03  0.93493254304E+03  0.14463541107E+04  0.65864270000E+03 0.  0.
    8880022    1    1    2    0    0  0.84403137438E+03  0.26766058022E+03 -0.54238891541E+03  0.10495754073E+04  0.15294330000E+03 0.  0.
<mgrwt>
<rscale>  0 0.10482965E+04</rscale>
<asrwt>0</asrwt>
<pdfrwt beam="1">  1        2 0.22219024E+00 0.11035585E+04</pdfrwt>
<pdfrwt beam="2">  1       -2 0.16179891E+00 0.11035585E+04</pdfrwt>
<totfact> 0.32716994E+00</totfact>
</mgrwt>
</event>
<event>
 4    1  0.7280516E-007  0.7108616E+03  0.7818608E-02  0.9954815E-01
          2   -1    0    0  501    0  0.00000000000E+00  0.00000000000E+00  0.13035817613E+04  0.13035817613E+04  0.25500000000E-02 0. -1.
         -2   -1    0    0    0  501 -0.00000000000E+00 -0.00000000000E+00 -0.23203534011E+03  0.23203534012E+03  0.25500000000E-02 0.  1.
    8880023    1    1    2    0    0 -0.15286159285E+03  0.21942513899E+03  0.98665997687E+03  0.12160683264E+04  0.65864270000E+03 0. -1.
    8880022    1    1    2    0    0  0.15286159285E+03 -0.21942513899E+03  0.84886444307E+02  0.31954877504E+03  0.15294330000E+03 0.  0.
<mgrwt>
<rscale>  0 0.57676693E+03</rscale>
<asrwt>0</asrwt>
<pdfrwt beam="1">  1        2 0.20055104E+00 0.71086164E+03</pdfrwt>
<pdfrwt beam="2">  1       -2 0.35697745E-01 0.71086164E+03</pdfrwt>
<totfact> 0.12355527E+02</totfact>
</mgrwt>
</event>
<event>
 4    1  0.7280516E-007  0.6953806E+03  0.7818608E-02  0.1001693E+00
         -2   -1    0    0    0  501 -0.00000000000E+00  0.00000000000E+00  0.47131557625E+03  0.47131557625E+03  0.25500000000E-02 0.  1.
          2   -1    0    0  501    0  0.00000000000E+00 -0.00000000000E+00 -0.10118127388E+04  0.10118127388E+04  0.25500000000E-02 0. -1.
    8880023    1    1    2    0    0  0.18981859355E+03  0.11710196895E+03 -0.83277640205E+03  0.10849288971E+04  0.65864270000E+03 0.  0.
    8880022    1    1    2    0    0 -0.18981859355E+03 -0.11710196895E+03  0.29227923953E+03  0.39819941796E+03  0.15294330000E+03 0.  0.
<mgrwt>
<rscale>  0 0.54913996E+03</rscale>
<asrwt>0</asrwt>
<pdfrwt beam="1">  1        2 0.15566350E+00 0.69538060E+03</pdfrwt>
<pdfrwt beam="2">  1       -2 0.72510089E-01 0.69538060E+03</pdfrwt>
<totfact> 0.43484778E+01</totfact>
</mgrwt>
</event>
<event>
 4    1  0.7280516E-007  0.6733895E+03  0.7818608E-02  0.1013341E+00
         -2   -1    0    0    0  501 -0.00000000000E+00  0.00000000000E+00  0.70145021384E+03  0.70145021384E+03  0.25500000000E-02 0.  1.
          2   -1    0    0  501    0  0.00000000000E+00 -0.00000000000E+00 -0.58784608438E+03  0.58784608438E+03  0.25500000000E-02 0. -1.
    8880023    1    1    2    0    0  0.13271001591E+03 -0.45069339413E+02 -0.36623166953E+03  0.76653704132E+03  0.65864270000E+03 0. -1.
    8880022    1    1    2    0    0 -0.13271001591E+03  0.45069339413E+02  0.47983579899E+03  0.52275925691E+03  0.15294330000E+03 0.  0.
<mgrwt>
<rscale>  0 0.50168057E+03</rscale>
<asrwt>0</asrwt>
<pdfrwt beam="1">  1        2 0.90437860E-01 0.67338949E+03</pdfrwt>
<pdfrwt beam="2">  1       -2 0.10791542E+00 0.67338949E+03</pdfrwt>
<totfact> 0.35645805E+01</totfact>
</mgrwt>
</event>
<event>
 4    1  0.7280516E-007  0.1476923E+04  0.7818608E-02  0.8926106E-01
         -2   -1    0    0    0  501 -0.00000000000E+00  0.00000000000E+00  0.16629409117E+04  0.16629409117E+04  0.25500000000E-02 0.  1.
          2   -1    0    0  501    0  0.00000000000E+00 -0.00000000000E+00 -0.13224297297E+04  0.13224297297E+04  0.25500000000E-02 0. -1.
    8880023    1    1    2    0    0 -0.95573579042E+03  0.91326873145E+03  0.65863759479E+03  0.16171284317E+04  0.65864270000E+03 0.  1.
    8880022    1    1    2    0    0  0.95573579042E+03 -0.91326873145E+03 -0.31812641278E+03  0.13682422097E+04  0.15294330000E+03 0. -1.
<mgrwt>
<rscale>  0 0.14389379E+04</rscale>
<asrwt>0</asrwt>
<pdfrwt beam="1">  1        2 0.20345073E+00 0.14769228E+04</pdfrwt>
<pdfrwt beam="2">  1       -2 0.25583706E+00 0.14769228E+04</pdfrwt>
<totfact> 0.89641054E-01</totfact>
</mgrwt>
</event>
<event>
 4    1  0.7280516E-007  0.8793237E+03  0.7818608E-02  0.9560074E-01
         -2   -1    0    0    0  501 -0.00000000000E+00  0.00000000000E+00  0.44672799301E+03  0.44672799302E+03  0.25500000000E-02 0.  1.
          2   -1    0    0  501    0  0.00000000000E+00 -0.00000000000E+00 -0.13763455998E+04  0.13763455998E+04  0.25500000000E-02 0. -1.
    8880023    1    1    2    0    0  0.36565379748E+03 -0.45353850893E+03 -0.83640317360E+03  0.12135816222E+04  0.65864270000E+03 0. -1.
    8880022    1    1    2    0    0 -0.36565379748E+03  0.45353850893E+03 -0.93214433201E+02  0.60949197063E+03  0.15294330000E+03 0.  0.
<mgrwt>
<rscale>  0 0.79996081E+03</rscale>
<asrwt>0</asrwt>
<pdfrwt beam="1">  1        2 0.21174547E+00 0.87932365E+03</pdfrwt>
<pdfrwt beam="2">  1       -2 0.68727384E-01 0.87932365E+03</pdfrwt>
<totfact> 0.29117005E+01</totfact>
</mgrwt>
</event>
<event>
 4    1  0.7280516E-007  0.8070566E+03  0.7818608E-02  0.9695741E-01
          2   -1    0    0  501    0  0.00000000000E+00  0.00000000000E+00  0.16238018030E+04  0.16238018030E+04  0.25500000000E-02 0. -1.
         -2   -1    0    0    0  501 -0.00000000000E+00 -0.00000000000E+00 -0.56380905001E+03  0.56380905002E+03  0.25500000000E-02 0.  1.
    8880023    1    1    2    0    0  0.46527465497E+03  0.32398219643E+02  0.13821277967E+04  0.16005054208E+04  0.65864270000E+03 0.  0.
    8880022    1    1    2    0    0 -0.46527465497E+03 -0.32398219643E+02 -0.32213504371E+03  0.58710543227E+03  0.15294330000E+03 0.  0.
<mgrwt>
<rscale>  0 0.71270943E+03</rscale>
<asrwt>0</asrwt>
<pdfrwt beam="1">  1        2 0.24981566E+00 0.80705660E+03</pdfrwt>
<pdfrwt beam="2">  1       -2 0.86739854E-01 0.80705660E+03</pdfrwt>
<totfact> 0.12681178E+01</totfact>
</mgrwt>
</event>
<event>
 4    1  0.7280516E-007  0.8449647E+03  0.7818608E-02  0.9620889E-01
         -2   -1    0    0    0  501 -0.00000000000E+00  0.00000000000E+00  0.53275513001E+03  0.53275513002E+03  0.25500000000E-02 0.  1.
          2   -1    0    0  501    0  0.00000000000E+00 -0.00000000000E+00 -0.11542272367E+04  0.11542272367E+04  0.25500000000E-02 0. -1.
    8880023    1    1    2    0    0  0.41222586178E+02  0.52768915333E+03 -0.74026665618E+03  0.11233699625E+04  0.65864270000E+03 0. -1.
    8880022    1    1    2    0    0 -0.41222586178E+02 -0.52768915333E+03  0.11879454951E+03  0.56361240419E+03  0.15294330000E+03 0.  0.
<mgrwt>
<rscale>  0 0.75928904E+03</rscale>
<asrwt>0</asrwt>
<pdfrwt beam="1">  1        2 0.17757342E+00 0.84496470E+03</pdfrwt>
<pdfrwt beam="2">  1       -2 0.81962328E-01 0.84496470E+03</pdfrwt>
<totfact> 0.26643648E+01</totfact>
</mgrwt>
</event>
<event>
 4    1  0.7280516E-007  0.7644712E+03  0.7818608E-02  0.9793667E-01
          2   -1    0    0  501    0  0.00000000000E+00  0.00000000000E+00  0.21822933409E+04  0.21822933409E+04  0.25500000000E-02 0. -1.
         -2   -1    0    0    0  501 -0.00000000000E+00 -0.00000000000E+00 -0.29778819609E+03  0.29778819610E+03  0.25500000000E-02 0.  1.
    8880023    1    1    2    0    0 -0.11564299185E+03  0.37044925387E+03  0.19148874943E+04  0.20618463263E+04  0.65864270000E+03 0. -1.
    8880022    1    1    2    0    0  0.11564299185E+03 -0.37044925387E+03 -0.30382349506E+02  0.41823521066E+03  0.15294330000E+03 0.  0.
<mgrwt>
<rscale>  0 0.65703535E+03</rscale>
<asrwt>0</asrwt>
<pdfrwt beam="1">  1        2 0.33573744E+00 0.76447116E+03</pdfrwt>
<pdfrwt beam="2">  1       -2 0.45813568E-01 0.76447116E+03</pdfrwt>
<totfact> 0.24710315E+01</totfact>
</mgrwt>
</event>
<event>
 4    1  0.7280516E-007  0.7760742E+03  0.7818608E-02  0.9765141E-01
          2   -1    0    0  501    0  0.00000000000E+00  0.00000000000E+00  0.14980578281E+04  0.14980578281E+04  0.25500000000E-02 0. -1.
         -2   -1    0    0    0  501 -0.00000000000E+00 -0.00000000000E+00 -0.55189845400E+03  0.55189845401E+03  0.25500000000E-02 0.  1.
    8880023    1    1    2    0    0 -0.33352662425E+03  0.23925091230E+03  0.12815834203E+04  0.14982480694E+04  0.65864270000E+03 0. -1.
    8880022    1    1    2    0    0  0.33352662425E+03 -0.23925091230E+03 -0.33542404622E+03  0.55170821266E+03  0.15294330000E+03 0.  0.
<mgrwt>
<rscale>  0 0.67267314E+03</rscale>
<asrwt>0</asrwt>
<pdfrwt beam="1">  1        2 0.23047043E+00 0.77607423E+03</pdfrwt>
<pdfrwt beam="2">  1       -2 0.84907455E-01 0.77607423E+03</pdfrwt>
<totfact> 0.15692911E+01</totfact>
</mgrwt>
</event>
<event>
 4    1  0.7280516E-007  0.6740087E+03  0.7818608E-02  0.1012938E+00
         -2   -1    0    0    0  501 -0.00000000000E+00  0.00000000000E+00  0.33070553386E+03  0.33070553387E+03  0.25500000000E-02 0.  1.
          2   -1    0    0  501    0  0.00000000000E+00 -0.00000000000E+00 -0.22888059577E+04  0.22888059577E+04  0.25500000000E-02 0. -1.
    8880023    1    1    2    0    0  0.12474551961E+03  0.70115097011E+02 -0.21991841221E+04  0.23001518604E+04  0.65864270000E+03 0. -1.
    8880022    1    1    2    0    0 -0.12474551961E+03 -0.70115097011E+02  0.24108369824E+03  0.31935963124E+03  0.15294330000E+03 0.  0.
<mgrwt>
<rscale>  0 0.50323303E+03</rscale>
<asrwt>0</asrwt>
<pdfrwt beam="1">  1        2 0.35212398E+00 0.67400874E+03</pdfrwt>
<pdfrwt beam="2">  1       -2 0.50877776E-01 0.67400874E+03</pdfrwt>
<totfact> 0.17702955E+01</totfact>
</mgrwt>
</event>
<event>
 4    1  0.8434924E-007  0.7099389E+03  0.7818608E-02  0.9958228E-01
         -2   -1    0    0    0  501 -0.00000000000E+00  0.00000000000E+00  0.81826803444E+03  0.81826803445E+03  0.25500000000E-02 0.  1.
          2   -1    0    0  501    0  0.00000000000E+00 -0.00000000000E+00 -0.22211047297E+04  0.22211047297E+04  0.25500000000E-02 0. -1.
    8880023    1    1    2    0    0 -0.20189569305E+03  0.17158438352E+03 -0.21328203483E+04  0.22478736432E+04  0.65864270000E+03 0. -1.
    8880022    1    1    2    0    0  0.20189569305E+03 -0.17158438352E+03  0.72998365309E+03  0.79149912087E+03  0.15294330000E+03 0.  0.
<mgrwt>
<rscale>  0 0.57520435E+03</rscale>
<asrwt>0</asrwt>
<pdfrwt beam="1">  1        2 0.34170842E+00 0.70993893E+03</pdfrwt>
<pdfrwt beam="2">  1       -2 0.12588739E+00 0.70993893E+03</pdfrwt>
<totfact> 0.24864993E+00</totfact>
</mgrwt>
</event>
<event>
 4    1  0.7280516E-007  0.7796997E+03  0.7818608E-02  0.9756543E-01
         -2   -1    0    0    0  501 -0.00000000000E+00  0.00000000000E+00  0.37724138780E+03  0.37724138781E+03  0.25500000000E-02 0.  1.
          2   -1    0    0  501    0  0.00000000000E+00 -0.00000000000E+00 -0.11139486108E+04  0.11139486108E+04  0.25500000000E-02 0. -1.
    8880023    1    1    2    0    0 -0.35672276842E+03 -0.21649527739E+03 -0.69556619084E+03  0.10448654797E+04  0.65864270000E+03 0.  0.
    8880022    1    1    2    0    0  0.35672276842E+03  0.21649527739E+03 -0.41141032183E+02  0.44632451891E+03  0.15294330000E+03 0.  0.
<mgrwt>
<rscale>  0 0.67747764E+03</rscale>
<asrwt>0</asrwt>
<pdfrwt beam="1">  1        2 0.17137671E+00 0.77969965E+03</pdfrwt>
<pdfrwt beam="2">  1       -2 0.58037137E-01 0.77969965E+03</pdfrwt>
<totfact> 0.60150629E+01</totfact>
</mgrwt>
</event>
<event>
 4    1  0.7280516E-007  0.7680407E+03  0.7818608E-02  0.9784719E-01
         -2   -1    0    0    0  501 -0.00000000000E+00  0.00000000000E+00  0.21531152954E+03  0.21531152955E+03  0.25500000000E-02 0.  1.
          2   -1    0    0  501    0  0.00000000000E+00 -0.00000000000E+00 -0.18671492262E+04  0.18671492262E+04  0.25500000000E-02 0. -1.
    8880023    1    1    2    0    0 -0.53394864404E+02  0.39143998900E+03 -0.69409383030E+03  0.10352066113E+04  0.65864270000E+03 0.  1.
    8880022    1    1    2    0    0  0.53394864404E+02 -0.39143998900E+03 -0.95774386635E+03  0.10472541445E+04  0.15294330000E+03 0. -1.
<mgrwt>
<rscale>  0 0.66189107E+03</rscale>
<asrwt>0</asrwt>
<pdfrwt beam="1">  1        2 0.28725372E+00 0.76804068E+03</pdfrwt>
<pdfrwt beam="2">  1       -2 0.33124852E-01 0.76804068E+03</pdfrwt>
<totfact> 0.68975362E+01</totfact>
</mgrwt>
</event>
<event>
 4    1  0.7280516E-007  0.1377283E+04  0.7818608E-02  0.9001538E-01
         -2   -1    0    0    0  501 -0.00000000000E+00  0.00000000000E+00  0.21701133889E+04  0.21701133889E+04  0.25500000000E-02 0.  1.
          2   -1    0    0  501    0  0.00000000000E+00 -0.00000000000E+00 -0.79608059483E+03  0.79608059483E+03  0.25500000000E-02 0. -1.
    8880023    1    1    2    0    0 -0.47976590554E+03 -0.11103711727E+04  0.95900698324E+03  0.16782741330E+04  0.65864270000E+03 0.  0.
    8880022    1    1    2    0    0  0.47976590554E+03  0.11103711727E+04  0.41502581084E+03  0.12879198508E+04  0.15294330000E+03 0.  0.
<mgrwt>
<rscale>  0 0.13359426E+04</rscale>
<asrwt>0</asrwt>
<pdfrwt beam="1">  1        2 0.12247394E+00 0.13772834E+04</pdfrwt>
<pdfrwt beam="2">  1       -2 0.33386359E+00 0.13772834E+04</pdfrwt>
<totfact> 0.65705374E-01</totfact>
</mgrwt>
</event>
<event>
 4    1  0.7280516E-007  0.8154644E+03  0.7818608E-02  0.9678305E-01
          2   -1    0    0  501    0  0.00000000000E+00  0.00000000000E+00  0.19479604217E+04  0.19479604217E+04  0.25500000000E-02 0. -1.
         -2   -1    0    0    0  501 -0.00000000000E+00 -0.00000000000E+00 -0.31402713734E+03  0.31402713735E+03  0.25500000000E-02 0.  1.
    8880023    1    1    2    0    0 -0.87010449690E+02  0.47286488371E+03  0.15487325032E+04  0.17503012853E+04  0.65864270000E+03 0.  0.
    8880022    1    1    2    0    0  0.87010449690E+02 -0.47286488371E+03  0.85200781136E+02  0.51168627373E+03  0.15294330000E+03 0.  0.
<mgrwt>
<rscale>  0 0.72323314E+03</rscale>
<asrwt>0</asrwt>
<pdfrwt beam="1">  1        2 0.29968622E+00 0.81546442E+03</pdfrwt>
<pdfrwt beam="2">  1       -2 0.48311868E-01 0.81546442E+03</pdfrwt>
<totfact> 0.29656893E+01</totfact>
</mgrwt>
</event>
<event>
 4    1  0.7280516E-007  0.7233597E+03  0.7818608E-02  0.9911377E-01
          2   -1    0    0  501    0  0.00000000000E+00  0.00000000000E+00  0.22694108707E+04  0.22694108707E+04  0.25500000000E-02 0. -1.
         -2   -1    0    0    0  501 -0.00000000000E+00 -0.00000000000E+00 -0.23759887195E+03  0.23759887196E+03  0.25500000000E-02 0.  1.
    8880023    1    1    2    0    0 -0.15750685755E+03 -0.25422566971E+03  0.20467100126E+04  0.21707766313E+04  0.65864270000E+03 0.  0.
    8880022    1    1    2    0    0  0.15750685755E+03  0.25422566971E+03 -0.14898013830E+02  0.33623311132E+03  0.15294330000E+03 0.  0.
<mgrwt>
<rscale>  0 0.59713040E+03</rscale>
<asrwt>0</asrwt>
<pdfrwt beam="1">  1        2 0.34914014E+00 0.72335974E+03</pdfrwt>
<pdfrwt beam="2">  1       -2 0.36553672E-01 0.72335974E+03</pdfrwt>
<totfact> 0.34618406E+01</totfact>
</mgrwt>
</event>
<event>
 4    1  0.7303104E-007  0.9829423E+03  0.7818608E-02  0.9404223E-01
         -2   -1    0    0    0  501 -0.00000000000E+00  0.00000000000E+00  0.12572513603E+04  0.12572513603E+04  0.25500000000E-02 0.  1.
          2   -1    0    0  501    0  0.00000000000E+00 -0.00000000000E+00 -0.16692980500E+04  0.16692980500E+04  0.25500000000E-02 0. -1.
    8880023    1    1    2    0    0  0.19983843397E+03 -0.70173357361E+03 -0.13865374480E+04  0.16996063395E+04  0.65864270000E+03 0. -1.
    8880022    1    1    2    0    0 -0.19983843397E+03  0.70173357361E+03  0.97449075832E+03  0.12269430708E+04  0.15294330000E+03 0.  0.
<mgrwt>
<rscale>  0 0.91728998E+03</rscale>
<asrwt>0</asrwt>
<pdfrwt beam="1">  1        2 0.25681509E+00 0.98294233E+03</pdfrwt>
<pdfrwt beam="2">  1       -2 0.19342329E+00 0.98294233E+03</pdfrwt>
<totfact> 0.14952823E+00</totfact>
</mgrwt>
</event>
<event>
 4    1  0.7280516E-007  0.6672543E+03  0.7818608E-02  0.1017713E+00
         -2   -1    0    0    0  501 -0.00000000000E+00  0.00000000000E+00  0.41059706132E+03  0.41059706133E+03  0.25500000000E-02 0.  1.
          2   -1    0    0  501    0  0.00000000000E+00 -0.00000000000E+00 -0.16896099738E+04  0.16896099738E+04  0.25500000000E-02 0. -1.
    8880023    1    1    2    0    0 -0.10253154116E+03  0.30090558298E+02 -0.15974117820E+04  0.17311709234E+04  0.65864270000E+03 0. -1.
    8880022    1    1    2    0    0  0.10253154116E+03 -0.30090558298E+02  0.31839886950E+03  0.36903611171E+03  0.15294330000E+03 0.  0.
<mgrwt>
<rscale>  0 0.48521170E+03</rscale>
<asrwt>0</asrwt>
<pdfrwt beam="1">  1        2 0.25993999E+00 0.66725435E+03</pdfrwt>
<pdfrwt beam="2">  1       -2 0.63168780E-01 0.66725435E+03</pdfrwt>
<totfact> 0.23959413E+01</totfact>
</mgrwt>
</event>
<event>
 4    1  0.7280516E-007  0.6729443E+03  0.7818608E-02  0.1013635E+00
          2   -1    0    0  501    0  0.00000000000E+00  0.00000000000E+00  0.15346089227E+04  0.15346089228E+04  0.25500000000E-02 0. -1.
         -2   -1    0    0    0  501 -0.00000000000E+00 -0.00000000000E+00 -0.12600835393E+03  0.12600835395E+03  0.25500000000E-02 0.  1.
    8880023    1    1    2    0    0  0.91439826595E+02 -0.10335676670E+03  0.10533053712E+04  0.12499225074E+04  0.65864270000E+03 0.  0.
    8880022    1    1    2    0    0 -0.91439826595E+02  0.10335676670E+03  0.35529519760E+03  0.41069476934E+03  0.15294330000E+03 0. -1.
<mgrwt>
<rscale>  0 0.50055354E+03</rscale>
<asrwt>0</asrwt>
<pdfrwt beam="1">  1        2 0.23609369E+00 0.67294433E+03</pdfrwt>
<pdfrwt beam="2">  1       -2 0.19385900E-01 0.67294433E+03</pdfrwt>
<totfact> 0.27892465E+02</totfact>
</mgrwt>
</event>
<event>
 4    1  0.7280516E-007  0.8278858E+03  0.7818608E-02  0.9653460E-01
         -2   -1    0    0    0  501 -0.00000000000E+00  0.00000000000E+00  0.45861979285E+03  0.45861979286E+03  0.25500000000E-02 0.  1.
          2   -1    0    0  501    0  0.00000000000E+00 -0.00000000000E+00 -0.16045323103E+04  0.16045323104E+04  0.25500000000E-02 0. -1.
    8880023    1    1    2    0    0  0.50129450862E+03  0.16984219267E+02 -0.12776947690E+04  0.15224647047E+04  0.65864270000E+03 0. -1.
    8880022    1    1    2    0    0 -0.50129450862E+03 -0.16984219267E+02  0.13178225151E+03  0.54068739850E+03  0.15294330000E+03 0.  0.
<mgrwt>
<rscale>  0 0.73856670E+03</rscale>
<asrwt>0</asrwt>
<pdfrwt beam="1">  1        2 0.24685112E+00 0.82788577E+03</pdfrwt>
<pdfrwt beam="2">  1       -2 0.70556892E-01 0.82788577E+03</pdfrwt>
<totfact> 0.20587392E+01</totfact>
</mgrwt>
</event>
<event>
 4    1  0.7280516E-007  0.7228839E+03  0.7818608E-02  0.9912946E-01
         -2   -1    0    0    0  501 -0.00000000000E+00  0.00000000000E+00  0.89302310938E+03  0.89302310939E+03  0.25500000000E-02 0.  1.
          2   -1    0    0  501    0  0.00000000000E+00 -0.00000000000E+00 -0.35973017226E+03  0.35973017227E+03  0.25500000000E-02 0. -1.
    8880023    1    1    2    0    0  0.28318116157E+03 -0.92516411235E+02  0.14019367539E+03  0.73635272085E+03  0.65864270000E+03 0. -1.
    8880022    1    1    2    0    0 -0.28318116157E+03  0.92516411235E+02  0.39309926174E+03  0.51640056081E+03  0.15294330000E+03 0.  0.
<mgrwt>
<rscale>  0 0.59637946E+03</rscale>
<asrwt>0</asrwt>
<pdfrwt beam="1">  1        2 0.55343105E-01 0.72288385E+03</pdfrwt>
<pdfrwt beam="2">  1       -2 0.13738817E+00 0.72288385E+03</pdfrwt>
<totfact> 0.34255923E+01</totfact>
</mgrwt>
</event>
<event>
 4    1  0.7280516E-007  0.6705274E+03  0.7818608E-02  0.1015288E+00
         -2   -1    0    0    0  501 -0.00000000000E+00  0.00000000000E+00  0.21848407792E+03  0.21848407794E+03  0.25500000000E-02 0.  1.
          2   -1    0    0  501    0  0.00000000000E+00 -0.00000000000E+00 -0.12992123594E+04  0.12992123594E+04  0.25500000000E-02 0. -1.
    8880023    1    1    2    0    0 -0.77419874549E+02 -0.99009702844E+02 -0.11297547881E+04  0.13137552458E+04  0.65864270000E+03 0. -1.
    8880022    1    1    2    0    0  0.77419874549E+02  0.99009702844E+02  0.49026506680E+02  0.20394119153E+03  0.15294330000E+03 0.  0.
<mgrwt>
<rscale>  0 0.49426185E+03</rscale>
<asrwt>0</asrwt>
<pdfrwt beam="1">  1        2 0.19987882E+00 0.67052738E+03</pdfrwt>
<pdfrwt beam="2">  1       -2 0.33612936E-01 0.67052738E+03</pdfrwt>
<totfact> 0.13979162E+02</totfact>
</mgrwt>
</event>
<event>
 4    1  0.7280516E-007  0.1123950E+04  0.7818608E-02  0.9234848E-01
          2   -1    0    0  501    0  0.00000000000E+00  0.00000000000E+00  0.17297699265E+04  0.17297699265E+04  0.25500000000E-02 0. -1.
         -2   -1    0    0    0  501 -0.00000000000E+00 -0.00000000000E+00 -0.75197883127E+03  0.75197883128E+03  0.25500000000E-02 0.  1.
    8880023    1    1    2    0    0 -0.84576923018E+03  0.33782662339E+03 -0.17401746008E+02  0.11240842696E+04  0.65864270000E+03 0.  1.
    8880022    1    1    2    0    0  0.84576923018E+03 -0.33782662339E+03  0.99519284128E+03  0.13576644882E+04  0.15294330000E+03 0.  0.
<mgrwt>
<rscale>  0 0.10700863E+04</rscale>
<asrwt>0</asrwt>
<pdfrwt beam="1">  1        2 0.26611845E+00 0.11239496E+04</pdfrwt>
<pdfrwt beam="2">  1       -2 0.11568905E+00 0.11239496E+04</pdfrwt>
<totfact> 0.53923594E+00</totfact>
</mgrwt>
</event>
<event>
 4    1  0.7280516E-007  0.1085479E+04  0.7818608E-02  0.9277398E-01
          2   -1    0    0  501    0  0.00000000000E+00  0.00000000000E+00  0.10905656089E+04  0.10905656089E+04  0.25500000000E-02 0. -1.
         -2   -1    0    0    0  501 -0.00000000000E+00 -0.00000000000E+00 -0.12154728136E+04  0.12154728136E+04  0.25500000000E-02 0.  1.
    8880023    1    1    2    0    0  0.71442593109E+03 -0.48378679639E+03  0.53396134190E+03  0.12097020279E+04  0.65864270000E+03 0.  0.
    8880022    1    1    2    0    0 -0.71442593109E+03  0.48378679639E+03 -0.65886854658E+03  0.10963363946E+04  0.15294330000E+03 0.  0.
<mgrwt>
<rscale>  0 0.10289050E+04</rscale>
<asrwt>0</asrwt>
<pdfrwt beam="1">  1        2 0.16777932E+00 0.10854788E+04</pdfrwt>
<pdfrwt beam="2">  1       -2 0.18699582E+00 0.10854788E+04</pdfrwt>
<totfact> 0.35238401E+00</totfact>
</mgrwt>
</event>
<event>
 4    1  0.7280516E-007  0.7956025E+03  0.7818608E-02  0.9720386E-01
         -2   -1    0    0    0  501 -0.00000000000E+00  0.00000000000E+00  0.21238886305E+03  0.21238886306E+03  0.25500000000E-02 0.  1.
          2   -1    0    0  501    0  0.00000000000E+00 -0.00000000000E+00 -0.24796146299E+04  0.24796146299E+04  0.25500000000E-02 0. -1.
    8880023    1    1    2    0    0 -0.37462219320E+03 -0.24255177240E+03 -0.19939171702E+04  0.21467857457E+04  0.65864270000E+03 0. -1.
    8880022    1    1    2    0    0  0.37462219320E+03  0.24255177240E+03 -0.27330859662E+03  0.54521774726E+03  0.15294330000E+03 0.  0.
<mgrwt>
<rscale>  0 0.69815872E+03</rscale>
<asrwt>0</asrwt>
<pdfrwt beam="1">  1        2 0.38147915E+00 0.79560251E+03</pdfrwt>
<pdfrwt beam="2">  1       -2 0.32675212E-01 0.79560251E+03</pdfrwt>
<totfact> 0.32357559E+01</totfact>
</mgrwt>
</event>
<event>
 4    1  0.7280516E-007  0.6903277E+03  0.7818608E-02  0.1003997E+00
         -2   -1    0    0    0  501 -0.00000000000E+00  0.00000000000E+00  0.14490242361E+04  0.14490242361E+04  0.25500000000E-02 0.  1.
          2   -1    0    0  501    0  0.00000000000E+00 -0.00000000000E+00 -0.58636523804E+03  0.58636523805E+03  0.25500000000E-02 0. -1.
    8880023    1    1    2    0    0  0.20328886659E+03 -0.37626709937E+02 -0.36513988994E+03  0.78094780752E+03  0.65864270000E+03 0. -1.
    8880022    1    1    2    0    0 -0.20328886659E+03  0.37626709937E+02  0.12277988880E+04  0.12544416667E+04  0.15294330000E+03 0.  0.
<mgrwt>
<rscale>  0 0.53931736E+03</rscale>
<asrwt>0</asrwt>
<pdfrwt beam="1">  1        2 0.90210037E-01 0.69032770E+03</pdfrwt>
<pdfrwt beam="2">  1       -2 0.22292680E+00 0.69032770E+03</pdfrwt>
<totfact> 0.49857030E+00</totfact>
</mgrwt>
</event>
<event>
 4    1  0.7280516E-007  0.7738765E+03  0.7818608E-02  0.9770423E-01
         -2   -1    0    0    0  501 -0.00000000000E+00  0.00000000000E+00  0.49076499682E+03  0.49076499683E+03  0.25500000000E-02 0.  1.
          2   -1    0    0  501    0  0.00000000000E+00 -0.00000000000E+00 -0.29178217824E+04  0.29178217824E+04  0.25500000000E-02 0. -1.
    8880023    1    1    2    0    0 -0.24036544830E+03  0.32756537633E+03 -0.27568440311E+04  0.28634024940E+04  0.65864270000E+03 0. -1.
    8880022    1    1    2    0    0  0.24036544830E+03 -0.32756537633E+03  0.32978724555E+03  0.54518428522E+03  0.15294330000E+03 0.  0.
<mgrwt>
<rscale>  0 0.66974264E+03</rscale>
<asrwt>0</asrwt>
<pdfrwt beam="1">  1        2 0.44889565E+00 0.77387650E+03</pdfrwt>
<pdfrwt beam="2">  1       -2 0.75502309E-01 0.77387650E+03</pdfrwt>
<totfact> 0.32639229E+00</totfact>
</mgrwt>
</event>
<event>
 4    1  0.7280516E-007  0.1038825E+04  0.7818608E-02  0.9332438E-01
          2   -1    0    0  501    0  0.00000000000E+00  0.00000000000E+00  0.14857019669E+04  0.14857019669E+04  0.25500000000E-02 0. -1.
         -2   -1    0    0    0  501 -0.00000000000E+00 -0.00000000000E+00 -0.83785439040E+03  0.83785439040E+03  0.25500000000E-02 0.  1.
    8880023    1    1    2    0    0  0.59347129955E+03 -0.54142236826E+03  0.99193862901E+03  0.14363491269E+04  0.65864270000E+03 0. -1.
    8880022    1    1    2    0    0 -0.59347129955E+03  0.54142236826E+03 -0.34409105254E+03  0.88720723041E+03  0.15294330000E+03 0.  0.
<mgrwt>
<rscale>  0 0.97850641E+03</rscale>
<asrwt>0</asrwt>
<pdfrwt beam="1">  1        2 0.22856953E+00 0.10388246E+04</pdfrwt>
<pdfrwt beam="2">  1       -2 0.12890067E+00 0.10388246E+04</pdfrwt>
<totfact> 0.56772242E+00</totfact>
</mgrwt>
</event>
<event>
 4    1  0.7280516E-007  0.7863585E+03  0.7818608E-02  0.9741107E-01
          2   -1    0    0  501    0  0.00000000000E+00  0.00000000000E+00  0.73926762019E+03  0.73926762019E+03  0.25500000000E-02 0. -1.
         -2   -1    0    0    0  501 -0.00000000000E+00 -0.00000000000E+00 -0.14905839338E+04  0.14905839338E+04  0.25500000000E-02 0.  1.
    8880023    1    1    2    0    0 -0.42951873727E+03  0.79457936658E+01  0.47693111254E+03  0.91968634527E+03  0.65864270000E+03 0. -1.
    8880022    1    1    2    0    0  0.42951873727E+03 -0.79457936658E+01 -0.12282474261E+04  0.13101652087E+04  0.15294330000E+03 0.  0.
<mgrwt>
<rscale>  0 0.68621150E+03</rscale>
<asrwt>0</asrwt>
<pdfrwt beam="1">  1        2 0.11373348E+00 0.78635850E+03</pdfrwt>
<pdfrwt beam="2">  1       -2 0.22932060E+00 0.78635850E+03</pdfrwt>
<totfact> 0.33696417E+00</totfact>
</mgrwt>
</event>
<event>
 4    1  0.7280516E-007  0.6810598E+03  0.7818608E-02  0.1008730E+00
         -2   -1    0    0    0  501 -0.00000000000E+00  0.00000000000E+00  0.55256602492E+03  0.55256602493E+03  0.25500000000E-02 0.  1.
          2   -1    0    0  501    0  0.00000000000E+00 -0.00000000000E+00 -0.92507277790E+03  0.92507277790E+03  0.25500000000E-02 0. -1.
    8880023    1    1    2    0    0  0.54378838619E+01  0.17321262626E+03 -0.76369701633E+03  0.10232670832E+04  0.65864270000E+03 0. -1.
    8880022    1    1    2    0    0 -0.54378838619E+01 -0.17321262626E+03  0.39119026335E+03  0.45437171967E+03  0.15294330000E+03 0.  0.
<mgrwt>
<rscale>  0 0.51982337E+03</rscale>
<asrwt>0</asrwt>
<pdfrwt beam="1">  1        2 0.14231889E+00 0.68105976E+03</pdfrwt>
<pdfrwt beam="2">  1       -2 0.85010158E-01 0.68105976E+03</pdfrwt>
<totfact> 0.34718659E+01</totfact>
</mgrwt>
</event>
<event>
 4    1  0.7280516E-007  0.7453477E+03  0.7818608E-02  0.9844635E-01
         -2   -1    0    0    0  501 -0.00000000000E+00  0.00000000000E+00  0.17282316739E+04  0.17282316739E+04  0.25500000000E-02 0.  1.
          2   -1    0    0  501    0  0.00000000000E+00 -0.00000000000E+00 -0.47994631171E+03  0.47994631171E+03  0.25500000000E-02 0. -1.
    8880023    1    1    2    0    0 -0.27860072241E+03  0.21003467414E+03 -0.14882565827E+03  0.76006066185E+03  0.65864270000E+03 0. -1.
    8880022    1    1    2    0    0  0.27860072241E+03 -0.21003467414E+03  0.13971110205E+04  0.14481173238E+04  0.15294330000E+03 0.  0.
<mgrwt>
<rscale>  0 0.63021218E+03</rscale>
<asrwt>0</asrwt>
<pdfrwt beam="1">  1        2 0.73837894E-01 0.74534766E+03</pdfrwt>
<pdfrwt beam="2">  1       -2 0.26588180E+00 0.74534766E+03</pdfrwt>
<totfact> 0.34274553E+00</totfact>
</mgrwt>
</event>
<event>
 4    1  0.7280516E-007  0.8343476E+03  0.7818608E-02  0.9640932E-01
         -2   -1    0    0    0  501 -0.00000000000E+00  0.00000000000E+00  0.30590681599E+03  0.30590681600E+03  0.25500000000E-02 0.  1.
          2   -1    0    0  501    0  0.00000000000E+00 -0.00000000000E+00 -0.25984322185E+04  0.25984322185E+04  0.25500000000E-02 0. -1.
    8880023    1    1    2    0    0  0.49252522266E+03  0.14051532075E+03 -0.22115660056E+04  0.23637174226E+04  0.65864270000E+03 0.  0.
    8880022    1    1    2    0    0 -0.49252522266E+03 -0.14051532075E+03 -0.80959396886E+02  0.54062161192E+03  0.15294330000E+03 0.  0.
<mgrwt>
<rscale>  0 0.74645274E+03</rscale>
<asrwt>0</asrwt>
<pdfrwt beam="1">  1        2 0.39975879E+00 0.83434756E+03</pdfrwt>
<pdfrwt beam="2">  1       -2 0.47062589E-01 0.83434756E+03</pdfrwt>
<totfact> 0.13528597E+01</totfact>
</mgrwt>
</event>
<event>
 4    1  0.7280516E-007  0.7630791E+03  0.7818608E-02  0.9797200E-01
          2   -1    0    0  501    0  0.00000000000E+00  0.00000000000E+00  0.14856855994E+04  0.14856855994E+04  0.25500000000E-02 0. -1.
         -2   -1    0    0    0  501 -0.00000000000E+00 -0.00000000000E+00 -0.38988497648E+03  0.38988497649E+03  0.25500000000E-02 0.  1.
    8880023    1    1    2    0    0  0.35796196774E+03  0.14262791139E+03  0.12233404621E+04  0.14418223136E+04  0.65864270000E+03 0. -1.
    8880022    1    1    2    0    0 -0.35796196774E+03 -0.14262791139E+03 -0.12753983919E+03  0.43374826230E+03  0.15294330000E+03 0.  0.
<mgrwt>
<rscale>  0 0.65513007E+03</rscale>
<asrwt>0</asrwt>
<pdfrwt beam="1">  1        2 0.22856702E+00 0.76307909E+03</pdfrwt>
<pdfrwt beam="2">  1       -2 0.59982304E-01 0.76307909E+03</pdfrwt>
<totfact> 0.34227841E+01</totfact>
</mgrwt>
</event>
<event>
 4    1  0.7280516E-007  0.7399381E+03  0.7818608E-02  0.9860128E-01
         -2   -1    0    0    0  501 -0.00000000000E+00  0.00000000000E+00  0.21017189148E+03  0.21017189150E+03  0.25500000000E-02 0.  1.
          2   -1    0    0  501    0  0.00000000000E+00 -0.00000000000E+00 -0.18097388790E+04  0.18097388790E+04  0.25500000000E-02 0. -1.
    8880023    1    1    2    0    0 -0.32827511162E+03  0.77029770485E+02 -0.14353956102E+04  0.16148897481E+04  0.65864270000E+03 0.  0.
    8880022    1    1    2    0    0  0.32827511162E+03 -0.77029770485E+02 -0.16417137733E+03  0.40502102242E+03  0.15294330000E+03 0.  0.
<mgrwt>
<rscale>  0 0.62233205E+03</rscale>
<asrwt>0</asrwt>
<pdfrwt beam="1">  1        2 0.27842136E+00 0.73993807E+03</pdfrwt>
<pdfrwt beam="2">  1       -2 0.32334138E-01 0.73993807E+03</pdfrwt>
<totfact> 0.77811291E+01</totfact>
</mgrwt>
</event>
<event>
 4    1  0.7280516E-007  0.1166040E+04  0.7818608E-02  0.9190862E-01
         -2   -1    0    0    0  501 -0.00000000000E+00  0.00000000000E+00  0.30723478759E+04  0.30723478759E+04  0.25500000000E-02 0.  1.
          2   -1    0    0  501    0  0.00000000000E+00 -0.00000000000E+00 -0.48760538102E+03  0.48760538103E+03  0.25500000000E-02 0. -1.
    8880023    1    1    2    0    0 -0.85109652058E+03 -0.44885873126E+03  0.22420791614E+04  0.25271661244E+04  0.65864270000E+03 0. -1.
    8880022    1    1    2    0    0  0.85109652058E+03  0.44885873126E+03  0.34266333345E+03  0.10327871325E+04  0.15294330000E+03 0.  1.
<mgrwt>
<rscale>  0 0.11148248E+04</rscale>
<asrwt>0</asrwt>
<pdfrwt beam="1">  1        2 0.75016212E-01 0.11660402E+04</pdfrwt>
<pdfrwt beam="2">  1       -2 0.47266891E+00 0.11660402E+04</pdfrwt>
<totfact> 0.15546201E-01</totfact>
</mgrwt>
</event>
<event>
 4    1  0.7280516E-007  0.6954160E+03  0.7818608E-02  0.1001678E+00
          2   -1    0    0  501    0  0.00000000000E+00  0.00000000000E+00  0.39893220810E+04  0.39893220810E+04  0.25500000000E-02 0. -1.
         -2   -1    0    0    0  501 -0.00000000000E+00 -0.00000000000E+00 -0.12926575451E+03  0.12926575454E+03  0.25500000000E-02 0.  1.
    8880023    1    1    2    0    0  0.22113551448E+03 -0.29871842866E+02  0.37697948232E+04  0.38334001171E+04  0.65864270000E+03 0. -1.
    8880022    1    1    2    0    0 -0.22113551448E+03  0.29871842866E+02  0.90261503354E+02  0.28518771847E+03  0.15294330000E+03 0.  0.
<mgrwt>
<rscale>  0 0.54920718E+03</rscale>
<asrwt>0</asrwt>
<pdfrwt beam="1">  1        2 0.61374188E+00 0.69541603E+03</pdfrwt>
<pdfrwt beam="2">  1       -2 0.19887038E-01 0.69541603E+03</pdfrwt>
<totfact> 0.83843273E+00</totfact>
</mgrwt>
</event>
<event>
 4    1  0.7280516E-007  0.8022826E+03  0.7818608E-02  0.9705882E-01
         -2   -1    0    0    0  501 -0.00000000000E+00  0.00000000000E+00  0.11182265108E+04  0.11182265108E+04  0.25500000000E-02 0.  1.
          2   -1    0    0  501    0  0.00000000000E+00 -0.00000000000E+00 -0.40194404186E+03  0.40194404187E+03  0.25500000000E-02 0. -1.
    8880023    1    1    2    0    0  0.38506448392E+03  0.24813794438E+03  0.65029634623E+03  0.10327355133E+04  0.65864270000E+03 0.  1.
    8880022    1    1    2    0    0 -0.38506448392E+03 -0.24813794438E+03  0.65986122706E+02  0.48743503938E+03  0.15294330000E+03 0.  1.
<mgrwt>
<rscale>  0 0.70667642E+03</rscale>
<asrwt>0</asrwt>
<pdfrwt beam="1">  1        2 0.61837545E-01 0.80228256E+03</pdfrwt>
<pdfrwt beam="2">  1       -2 0.17203485E+00 0.80228256E+03</pdfrwt>
<totfact> 0.16472550E+01</totfact>
</mgrwt>
</event>
<event>
 4    1  0.7280516E-007  0.6826577E+03  0.7818608E-02  0.1007859E+00
         -2   -1    0    0    0  501 -0.00000000000E+00  0.00000000000E+00  0.33554473088E+03  0.33554473089E+03  0.25500000000E-02 0.  1.
          2   -1    0    0  501    0  0.00000000000E+00 -0.00000000000E+00 -0.63016207707E+03  0.63016207708E+03  0.25500000000E-02 0. -1.
    8880023    1    1    2    0    0 -0.17084789668E+03 -0.54975404012E+02 -0.19716553159E+03  0.71056016772E+03  0.65864270000E+03 0. -1.
    8880022    1    1    2    0    0  0.17084789668E+03  0.54975404012E+02 -0.97451814598E+02  0.25514664025E+03  0.15294330000E+03 0. -1.
<mgrwt>
<rscale>  0 0.52334667E+03</rscale>
<asrwt>0</asrwt>
<pdfrwt beam="1">  1        2 0.96948011E-01 0.68265768E+03</pdfrwt>
<pdfrwt beam="2">  1       -2 0.51622267E-01 0.68265768E+03</pdfrwt>
<totfact> 0.16783923E+02</totfact>
</mgrwt>
</event>
<event>
 4    1  0.7280516E-007  0.6610925E+03  0.7818608E-02  0.1023064E+00
         -2   -1    0    0    0  501 -0.00000000000E+00  0.00000000000E+00  0.62499940072E+03  0.62499940072E+03  0.25500000000E-02 0.  1.
          2   -1    0    0  501    0  0.00000000000E+00 -0.00000000000E+00 -0.76734795511E+03  0.76734795511E+03  0.25500000000E-02 0. -1.
    8880023    1    1    2    0    0  0.48216636142E+01 -0.56655937233E+02 -0.60847246167E+03  0.89848877930E+03  0.65864270000E+03 0. -1.
    8880022    1    1    2    0    0 -0.48216636142E+01  0.56655937233E+02  0.46612390728E+03  0.49385857653E+03  0.15294330000E+03 0.  0.
<mgrwt>
<rscale>  0 0.46596949E+03</rscale>
<asrwt>0</asrwt>
<pdfrwt beam="1">  1        2 0.11805353E+00 0.66109254E+03</pdfrwt>
<pdfrwt beam="2">  1       -2 0.96153754E-01 0.66109254E+03</pdfrwt>
<totfact> 0.33703717E+01</totfact>
</mgrwt>
</event>
<event>
 4    1  0.7280516E-007  0.6745367E+03  0.7818608E-02  0.1012600E+00
          2   -1    0    0  501    0  0.00000000000E+00  0.00000000000E+00  0.11034579297E+04  0.11034579297E+04  0.25500000000E-02 0. -1.
         -2   -1    0    0    0  501 -0.00000000000E+00 -0.00000000000E+00 -0.25041520896E+03  0.25041520897E+03  0.25500000000E-02 0.  1.
    8880023    1    1    2    0    0 -0.13835234613E+03 -0.45256898825E+02  0.91228539296E+03  0.11345767506E+04  0.65864270000E+03 0. -1.
    8880022    1    1    2    0    0  0.13835234613E+03  0.45256898825E+02 -0.59242672248E+02  0.21929638802E+03  0.15294330000E+03 0.  0.
<mgrwt>
<rscale>  0 0.50454299E+03</rscale>
<asrwt>0</asrwt>
<pdfrwt beam="1">  1        2 0.16976276E+00 0.67453670E+03</pdfrwt>
<pdfrwt beam="2">  1       -2 0.38525417E-01 0.67453670E+03</pdfrwt>
<totfact> 0.14050636E+02</totfact>
</mgrwt>
</event>
<event>
 4    1  0.7280516E-007  0.1027427E+04  0.7818608E-02  0.9346523E-01
         -2   -1    0    0    0  501 -0.00000000000E+00  0.00000000000E+00  0.92608687037E+03  0.92608687037E+03  0.25500000000E-02 0.  1.
          2   -1    0    0  501    0  0.00000000000E+00 -0.00000000000E+00 -0.11316197132E+04  0.11316197132E+04  0.25500000000E-02 0. -1.
    8880023    1    1    2    0    0  0.53419687004E+03 -0.58002560755E+03  0.34512321419E+03  0.10838432731E+04  0.65864270000E+03 0.  1.
    8880022    1    1    2    0    0 -0.53419687004E+03  0.58002560755E+03 -0.55065605703E+03  0.97386331050E+03  0.15294330000E+03 0.  0.
<mgrwt>
<rscale>  0 0.96610423E+03</rscale>
<asrwt>0</asrwt>
<pdfrwt beam="1">  1        2 0.17409534E+00 0.10274270E+04</pdfrwt>
<pdfrwt beam="2">  1       -2 0.14247490E+00 0.10274270E+04</pdfrwt>
<totfact> 0.70685036E+00</totfact>
</mgrwt>
</event>
<event>
 4    1  0.7280516E-007  0.7405785E+03  0.7818608E-02  0.9858265E-01
          2   -1    0    0  501    0  0.00000000000E+00  0.00000000000E+00  0.59772213930E+03  0.59772213930E+03  0.25500000000E-02 0. -1.
         -2   -1    0    0    0  501 -0.00000000000E+00 -0.00000000000E+00 -0.64713337245E+03  0.64713337245E+03  0.25500000000E-02 0.  1.
    8880023    1    1    2    0    0 -0.28269487728E+03 -0.18635979527E+03  0.23498775469E+03  0.77696577663E+03  0.65864270000E+03 0.  0.
    8880022    1    1    2    0    0  0.28269487728E+03  0.18635979527E+03 -0.28439898784E+03  0.46788973512E+03  0.15294330000E+03 0.  0.
<mgrwt>
<rscale>  0 0.62327281E+03</rscale>
<asrwt>0</asrwt>
<pdfrwt beam="1">  1        2 0.91957252E-01 0.74057854E+03</pdfrwt>
<pdfrwt beam="2">  1       -2 0.99558980E-01 0.74057854E+03</pdfrwt>
<totfact> 0.42135815E+01</totfact>
</mgrwt>
</event>
<event>
 4    1  0.7280516E-007  0.6784666E+03  0.7818608E-02  0.1010205E+00
          2   -1    0    0  501    0  0.00000000000E+00  0.00000000000E+00  0.25299059632E+04  0.25299059632E+04  0.25500000000E-02 0. -1.
         -2   -1    0    0    0  501 -0.00000000000E+00 -0.00000000000E+00 -0.43989151756E+03  0.43989151757E+03  0.25500000000E-02 0.  1.
    8880023    1    1    2    0    0  0.80989369027E+02  0.14123559564E+03  0.24521663362E+04  0.25442949353E+04  0.65864270000E+03 0. -1.
    8880022    1    1    2    0    0 -0.80989369027E+02 -0.14123559564E+03 -0.36215189053E+03  0.42550254546E+03  0.15294330000E+03 0.  0.
<mgrwt>
<rscale>  0 0.51393385E+03</rscale>
<asrwt>0</asrwt>
<pdfrwt beam="1">  1        2 0.38921629E+00 0.67846664E+03</pdfrwt>
<pdfrwt beam="2">  1       -2 0.67675619E-01 0.67846664E+03</pdfrwt>
<totfact> 0.71210261E+00</totfact>
</mgrwt>
</event>
<event>
 4    1  0.7280516E-007  0.9331908E+03  0.7818608E-02  0.9474723E-01
          2   -1    0    0  501    0  0.00000000000E+00  0.00000000000E+00  0.91022998797E+03  0.91022998797E+03  0.25500000000E-02 0. -1.
         -2   -1    0    0    0  501 -0.00000000000E+00 -0.00000000000E+00 -0.14944899330E+04  0.14944899330E+04  0.25500000000E-02 0.  1.
    8880023    1    1    2    0    0  0.37627624675E+03 -0.54355406330E+03  0.54983795453E+03  0.10831282547E+04  0.65864270000E+03 0. -1.
    8880022    1    1    2    0    0 -0.37627624675E+03  0.54355406330E+03 -0.11340978996E+04  0.13215916663E+04  0.15294330000E+03 0.  0.
<mgrwt>
<rscale>  0 0.86173329E+03</rscale>
<asrwt>0</asrwt>
<pdfrwt beam="1">  1        2 0.14003538E+00 0.93319078E+03</pdfrwt>
<pdfrwt beam="2">  1       -2 0.22992153E+00 0.93319078E+03</pdfrwt>
<totfact> 0.24770083E+00</totfact>
</mgrwt>
</event>
<event>
 4    1  0.7280516E-007  0.2278582E+04  0.7818608E-02  0.8495779E-01
          2   -1    0    0  501    0  0.00000000000E+00  0.00000000000E+00  0.28501777026E+04  0.28501777026E+04  0.25500000000E-02 0. -1.
         -2   -1    0    0    0  501 -0.00000000000E+00 -0.00000000000E+00 -0.19745408398E+04  0.19745408398E+04  0.25500000000E-02 0.  1.
    8880023    1    1    2    0    0 -0.21396441723E+04  0.42431904683E+03 -0.36957468463E+03  0.23083586141E+04  0.65864270000E+03 0.  0.
    8880022    1    1    2    0    0  0.21396441723E+04 -0.42431904683E+03  0.12452115475E+04  0.25163599283E+04  0.15294330000E+03 0.  0.
<mgrwt>
<rscale>  0 0.22552471E+04</rscale>
<asrwt>0</asrwt>
<pdfrwt beam="1">  1        2 0.43848888E+00 0.22785816E+04</pdfrwt>
<pdfrwt beam="2">  1       -2 0.30377551E+00 0.22785816E+04</pdfrwt>
<totfact> 0.55928970E-02</totfact>
</mgrwt>
</event>
<event>
 4    1  0.7280516E-007  0.7993466E+03  0.7818608E-02  0.9712211E-01
          2   -1    0    0  501    0  0.00000000000E+00  0.00000000000E+00  0.11911719100E+04  0.11911719100E+04  0.25500000000E-02 0. -1.
         -2   -1    0    0    0  501 -0.00000000000E+00 -0.00000000000E+00 -0.48795199466E+03  0.48795199467E+03  0.25500000000E-02 0.  1.
    8880023    1    1    2    0    0  0.28883472768E+03 -0.34888289737E+03  0.86181471354E+03  0.11754486729E+04  0.65864270000E+03 0. -1.
    8880022    1    1    2    0    0 -0.28883472768E+03  0.34888289737E+03 -0.15859479822E+03  0.50367523170E+03  0.15294330000E+03 0.  0.
<mgrwt>
<rscale>  0 0.70294408E+03</rscale>
<asrwt>0</asrwt>
<pdfrwt beam="1">  1        2 0.18325722E+00 0.79934660E+03</pdfrwt>
<pdfrwt beam="2">  1       -2 0.75069538E-01 0.79934660E+03</pdfrwt>
<totfact> 0.30965387E+01</totfact>
</mgrwt>
</event>
<event>
 4    1  0.7280516E-007  0.7681133E+03  0.7818608E-02  0.9784538E-01
          2   -1    0    0  501    0  0.00000000000E+00  0.00000000000E+00  0.22548705940E+04  0.22548705940E+04  0.25500000000E-02 0. -1.
         -2   -1    0    0    0  501 -0.00000000000E+00 -0.00000000000E+00 -0.30344223670E+03  0.30344223671E+03  0.25500000000E-02 0.  1.
    8880023    1    1    2    0    0  0.34950141816E+03 -0.18449006525E+03  0.19897038480E+04  0.21328195973E+04  0.65864270000E+03 0. -1.
    8880022    1    1    2    0    0 -0.34950141816E+03  0.18449006525E+03 -0.38275490738E+02  0.42549323341E+03  0.15294330000E+03 0.  0.
<mgrwt>
<rscale>  0 0.66198942E+03</rscale>
<asrwt>0</asrwt>
<pdfrwt beam="1">  1        2 0.34690316E+00 0.76811329E+03</pdfrwt>
<pdfrwt beam="2">  1       -2 0.46683422E-01 0.76811329E+03</pdfrwt>
<totfact> 0.21686712E+01</totfact>
</mgrwt>
</event>
<event>
 4    1  0.7280516E-007  0.8314348E+03  0.7818608E-02  0.9646547E-01
         -2   -1    0    0    0  501 -0.00000000000E+00  0.00000000000E+00  0.33055903754E+03  0.33055903755E+03  0.25500000000E-02 0.  1.
          2   -1    0    0  501    0  0.00000000000E+00 -0.00000000000E+00 -0.16775125294E+04  0.16775125294E+04  0.25500000000E-02 0. -1.
    8880023    1    1    2    0    0 -0.48231853967E+03  0.15761498648E+03 -0.11967655936E+04  0.14572342811E+04  0.65864270000E+03 0. -1.
    8880022    1    1    2    0    0  0.48231853967E+03 -0.15761498648E+03 -0.15018789821E+03  0.55083728583E+03  0.15294330000E+03 0.  0.
<mgrwt>
<rscale>  0 0.74290524E+03</rscale>
<asrwt>0</asrwt>
<pdfrwt beam="1">  1        2 0.25807885E+00 0.83143482E+03</pdfrwt>
<pdfrwt beam="2">  1       -2 0.50855237E-01 0.83143482E+03</pdfrwt>
<totfact> 0.37501826E+01</totfact>
</mgrwt>
</event>
<event>
 4    1  0.7280516E-007  0.6716598E+03  0.7818608E-02  0.1014500E+00
          2   -1    0    0  501    0  0.00000000000E+00  0.00000000000E+00  0.40639074465E+04  0.40639074465E+04  0.25500000000E-02 0. -1.
         -2   -1    0    0    0  501 -0.00000000000E+00 -0.00000000000E+00 -0.70858775859E+02  0.70858775905E+02  0.25500000000E-02 0.  1.
    8880023    1    1    2    0    0 -0.12973929585E+03  0.22009343700E+02  0.37880421163E+04  0.38471274968E+04  0.65864270000E+03 0. -1.
    8880022    1    1    2    0    0  0.12973929585E+03 -0.22009343700E+02  0.20500655441E+03  0.28763872560E+03  0.15294330000E+03 0.  0.
<mgrwt>
<rscale>  0 0.49724733E+03</rscale>
<asrwt>0</asrwt>
<pdfrwt beam="1">  1        2 0.62521670E+00 0.67165981E+03</pdfrwt>
<pdfrwt beam="2">  1       -2 0.10901347E-01 0.67165981E+03</pdfrwt>
<totfact> 0.20283480E+01</totfact>
</mgrwt>
</event>
<event>
 4    1  0.7280516E-007  0.1141391E+04  0.7818608E-02  0.9216314E-01
         -2   -1    0    0    0  501 -0.00000000000E+00  0.00000000000E+00  0.15647102611E+04  0.15647102611E+04  0.25500000000E-02 0.  1.
          2   -1    0    0  501    0  0.00000000000E+00 -0.00000000000E+00 -0.14016732326E+04  0.14016732326E+04  0.25500000000E-02 0. -1.
    8880023    1    1    2    0    0  0.93179101402E+03  0.26981598882E+02 -0.96527881948E+03  0.14948364145E+04  0.65864270000E+03 0.  0.
    8880022    1    1    2    0    0 -0.93179101402E+03 -0.26981598882E+02  0.11283158480E+04  0.14715470792E+04  0.15294330000E+03 0.  0.
<mgrwt>
<rscale>  0 0.10886616E+04</rscale>
<asrwt>0</asrwt>
<pdfrwt beam="1">  1        2 0.21564204E+00 0.11413907E+04</pdfrwt>
<pdfrwt beam="2">  1       -2 0.24072465E+00 0.11413907E+04</pdfrwt>
<totfact> 0.10354714E+00</totfact>
</mgrwt>
</event>
<event>
 4    1  0.7743122E-007  0.7242467E+03  0.7818608E-02  0.9908470E-01
          2   -1    0    0  501    0  0.00000000000E+00  0.00000000000E+00  0.20751187976E+04  0.20751187976E+04  0.25500000000E-02 0. -1.
         -2   -1    0    0    0  501 -0.00000000000E+00 -0.00000000000E+00 -0.86328823073E+03  0.86328823073E+03  0.25500000000E-02 0.  1.
    8880023    1    1    2    0    0 -0.21460906587E+03 -0.21134329540E+03  0.19751132761E+04  0.21037123614E+04  0.65864270000E+03 0. -1.
    8880022    1    1    2    0    0  0.21460906587E+03  0.21134329540E+03 -0.76328270929E+03  0.83469466691E+03  0.15294330000E+03 0.  0.
<mgrwt>
<rscale>  0 0.59852539E+03</rscale>
<asrwt>0</asrwt>
<pdfrwt beam="1">  1        2 0.31924904E+00 0.72424667E+03</pdfrwt>
<pdfrwt beam="2">  1       -2 0.13281358E+00 0.72424667E+03</pdfrwt>
<totfact> 0.26047730E+00</totfact>
</mgrwt>
</event>
<event>
 4    1  0.7280516E-007  0.8674969E+03  0.7818608E-02  0.9580364E-01
         -2   -1    0    0    0  501 -0.00000000000E+00  0.00000000000E+00  0.36700264345E+03  0.36700264346E+03  0.25500000000E-02 0.  1.
          2   -1    0    0  501    0  0.00000000000E+00 -0.00000000000E+00 -0.21007585445E+04  0.21007585445E+04  0.25500000000E-02 0. -1.
    8880023    1    1    2    0    0  0.28233988770E+03  0.48890172794E+03 -0.16667811876E+04  0.18790184793E+04  0.65864270000E+03 0.  0.
    8880022    1    1    2    0    0 -0.28233988770E+03 -0.48890172794E+03 -0.66974713418E+02  0.58874270868E+03  0.15294330000E+03 0.  0.
<mgrwt>
<rscale>  0 0.78609535E+03</rscale>
<asrwt>0</asrwt>
<pdfrwt beam="1">  1        2 0.32319362E+00 0.86749693E+03</pdfrwt>
<pdfrwt beam="2">  1       -2 0.56461946E-01 0.86749693E+03</pdfrwt>
<totfact> 0.17632223E+01</totfact>
</mgrwt>
</event>
<event>
 4    1  0.7280516E-007  0.6838612E+03  0.7818608E-02  0.1007219E+00
          2   -1    0    0  501    0  0.00000000000E+00  0.00000000000E+00  0.71917505521E+03  0.71917505521E+03  0.25500000000E-02 0. -1.
         -2   -1    0    0    0  501 -0.00000000000E+00 -0.00000000000E+00 -0.65237997006E+03  0.65237997006E+03  0.25500000000E-02 0.  1.
    8880023    1    1    2    0    0 -0.76513119853E+02  0.16733715368E+03  0.51997369895E+03  0.85909186608E+03  0.65864270000E+03 0. -1.
    8880022    1    1    2    0    0  0.76513119853E+02 -0.16733715368E+03 -0.45317861380E+03  0.51246315919E+03  0.15294330000E+03 0.  0.
<mgrwt>
<rscale>  0 0.52595148E+03</rscale>
<asrwt>0</asrwt>
<pdfrwt beam="1">  1        2 0.11064232E+00 0.68386123E+03</pdfrwt>
<pdfrwt beam="2">  1       -2 0.10036615E+00 0.68386123E+03</pdfrwt>
<totfact> 0.33043402E+01</totfact>
</mgrwt>
</event>
<event>
 4    1  0.7280516E-007  0.8781736E+03  0.7818608E-02  0.9562019E-01
          2   -1    0    0  501    0  0.00000000000E+00  0.00000000000E+00  0.31516685307E+04  0.31516685307E+04  0.25500000000E-02 0. -1.
         -2   -1    0    0    0  501 -0.00000000000E+00 -0.00000000000E+00 -0.24143033554E+03  0.24143033555E+03  0.25500000000E-02 0.  1.
    8880023    1    1    2    0    0 -0.56391630139E+03 -0.13920184030E+03  0.25399801051E+04  0.26875058861E+04  0.65864270000E+03 0. -1.
    8880022    1    1    2    0    0  0.56391630139E+03  0.13920184030E+03  0.37025809000E+03  0.70559298008E+03  0.15294330000E+03 0.  0.
<mgrwt>
<rscale>  0 0.79861812E+03</rscale>
<asrwt>0</asrwt>
<pdfrwt beam="1">  1        2 0.48487207E+00 0.87817365E+03</pdfrwt>
<pdfrwt beam="2">  1       -2 0.37143129E-01 0.87817365E+03</pdfrwt>
<totfact> 0.99529644E+00</totfact>
</mgrwt>
</event>
<event>
 4    1  0.7280516E-007  0.6851163E+03  0.7818608E-02  0.1006566E+00
         -2   -1    0    0    0  501 -0.00000000000E+00  0.00000000000E+00  0.80101774509E+03  0.80101774509E+03  0.25500000000E-02 0.  1.
          2   -1    0    0  501    0  0.00000000000E+00 -0.00000000000E+00 -0.75942149713E+03  0.75942149714E+03  0.25500000000E-02 0. -1.
    8880023    1    1    2    0    0  0.17802535250E+03 -0.62298259390E+02 -0.57710763388E+03  0.89578877343E+03  0.65864270000E+03 0. -1.
    8880022    1    1    2    0    0 -0.17802535250E+03  0.62298259390E+02  0.61870388184E+03  0.66465046880E+03  0.15294330000E+03 0.  0.
<mgrwt>
<rscale>  0 0.52862560E+03</rscale>
<asrwt>0</asrwt>
<pdfrwt beam="1">  1        2 0.11683408E+00 0.68511627E+03</pdfrwt>
<pdfrwt beam="2">  1       -2 0.12323350E+00 0.68511627E+03</pdfrwt>
<totfact> 0.18720732E+01</totfact>
</mgrwt>
</event>
<event>
 4    1  0.7280516E-007  0.8238442E+03  0.7818608E-02  0.9661430E-01
         -2   -1    0    0    0  501 -0.00000000000E+00  0.00000000000E+00  0.57147282708E+03  0.57147282709E+03  0.25500000000E-02 0.  1.
          2   -1    0    0  501    0  0.00000000000E+00 -0.00000000000E+00 -0.95706053909E+03  0.95706053909E+03  0.25500000000E-02 0. -1.
    8880023    1    1    2    0    0  0.46456011155E+03  0.17056656654E+03 -0.54355802440E+03  0.98700282828E+03  0.65864270000E+03 0.  0.
    8880022    1    1    2    0    0 -0.46456011155E+03 -0.17056656654E+03  0.15797031239E+03  0.54153053790E+03  0.15294330000E+03 0.  0.
<mgrwt>
<rscale>  0 0.73360375E+03</rscale>
<asrwt>0</asrwt>
<pdfrwt beam="1">  1        2 0.14724008E+00 0.82384419E+03</pdfrwt>
<pdfrwt beam="2">  1       -2 0.87918897E-01 0.82384419E+03</pdfrwt>
<totfact> 0.30225176E+01</totfact>
</mgrwt>
</event>
<event>
 4    1  0.7280516E-007  0.7963627E+03  0.7818608E-02  0.9718717E-01
          2   -1    0    0  501    0  0.00000000000E+00  0.00000000000E+00  0.12064564245E+04  0.12064564245E+04  0.25500000000E-02 0. -1.
         -2   -1    0    0    0  501 -0.00000000000E+00 -0.00000000000E+00 -0.56949104366E+03  0.56949104367E+03  0.25500000000E-02 0.  1.
    8880023    1    1    2    0    0  0.38392681891E+03  0.23018150137E+03  0.92619328078E+03  0.12214857860E+04  0.65864270000E+03 0.  1.
    8880022    1    1    2    0    0 -0.38392681891E+03 -0.23018150137E+03 -0.28922789994E+03  0.55446168214E+03  0.15294330000E+03 0.  0.
<mgrwt>
<rscale>  0 0.69913271E+03</rscale>
<asrwt>0</asrwt>
<pdfrwt beam="1">  1        2 0.18560868E+00 0.79636269E+03</pdfrwt>
<pdfrwt beam="2">  1       -2 0.87614007E-01 0.79636269E+03</pdfrwt>
<totfact> 0.21403057E+01</totfact>
</mgrwt>
</event>
<event>
 4    1  0.7280516E-007  0.1132985E+04  0.7818608E-02  0.9225190E-01
         -2   -1    0    0    0  501 -0.00000000000E+00  0.00000000000E+00  0.34399847080E+03  0.34399847081E+03  0.25500000000E-02 0.  1.
          2   -1    0    0  501    0  0.00000000000E+00 -0.00000000000E+00 -0.32837564748E+04  0.32837564748E+04  0.25500000000E-02 0. -1.
    8880023    1    1    2    0    0 -0.21680455826E+03  0.89601426614E+03 -0.20231030408E+04  0.23187500731E+04  0.65864270000E+03 0.  0.
    8880022    1    1    2    0    0  0.21680455826E+03 -0.89601426614E+03 -0.91665496316E+03  0.13090048725E+04  0.15294330000E+03 0.  0.
<mgrwt>
<rscale>  0 0.10797166E+04</rscale>
<asrwt>0</asrwt>
<pdfrwt beam="1">  1        2 0.50519328E+00 0.11329854E+04</pdfrwt>
<pdfrwt beam="2">  1       -2 0.52922844E-01 0.11329854E+04</pdfrwt>
<totfact> 0.38896721E+00</totfact>
</mgrwt>
</event>
<event>
 4    1  0.7280516E-007  0.7319794E+03  0.7818608E-02  0.9883958E-01
          2   -1    0    0  501    0  0.00000000000E+00  0.00000000000E+00  0.19845826433E+04  0.19845826433E+04  0.25500000000E-02 0. -1.
         -2   -1    0    0    0  501 -0.00000000000E+00 -0.00000000000E+00 -0.22933504938E+03  0.22933504939E+03  0.25500000000E-02 0.  1.
    8880023    1    1    2    0    0 -0.14259685543E+03 -0.28574434348E+03  0.17060295510E+04  0.18564295646E+04  0.65864270000E+03 0. -1.
    8880022    1    1    2    0    0  0.14259685543E+03  0.28574434348E+03  0.49218042947E+02  0.35748812816E+03  0.15294330000E+03 0.  0.
<mgrwt>
<rscale>  0 0.61045082E+03</rscale>
<asrwt>0</asrwt>
<pdfrwt beam="1">  1        2 0.30532041E+00 0.73197944E+03</pdfrwt>
<pdfrwt beam="2">  1       -2 0.35282315E-01 0.73197944E+03</pdfrwt>
<totfact> 0.53023956E+01</totfact>
</mgrwt>
</event>
<event>
 4    1  0.7280516E-007  0.8850480E+03  0.7818608E-02  0.9550474E-01
          2   -1    0    0  501    0  0.00000000000E+00  0.00000000000E+00  0.10500633215E+04  0.10500633215E+04  0.25500000000E-02 0. -1.
         -2   -1    0    0    0  501 -0.00000000000E+00 -0.00000000000E+00 -0.12959986100E+04  0.12959986101E+04  0.25500000000E-02 0.  1.
    8880023    1    1    2    0    0  0.17791284973E+03 -0.56377908604E+03  0.76179656499E+03  0.11677517085E+04  0.65864270000E+03 0. -1.
    8880022    1    1    2    0    0 -0.17791284973E+03  0.56377908604E+03 -0.10077318536E+04  0.11783102230E+04  0.15294330000E+03 0.  0.
<mgrwt>
<rscale>  0 0.80662735E+03</rscale>
<asrwt>0</asrwt>
<pdfrwt beam="1">  1        2 0.16154820E+00 0.88504805E+03</pdfrwt>
<pdfrwt beam="2">  1       -2 0.19938440E+00 0.88504805E+03</pdfrwt>
<totfact> 0.31603190E+00</totfact>
</mgrwt>
</event>
<event>
 4    1  0.7280516E-007  0.1160510E+04  0.7818608E-02  0.9196499E-01
         -2   -1    0    0    0  501 -0.00000000000E+00  0.00000000000E+00  0.69411423131E+03  0.69411423132E+03  0.25500000000E-02 0.  1.
          2   -1    0    0  501    0  0.00000000000E+00 -0.00000000000E+00 -0.17503125753E+04  0.17503125753E+04  0.25500000000E-02 0. -1.
    8880023    1    1    2    0    0  0.17579323179E+03  0.93918576379E+03 -0.89024208982E+03  0.14626395127E+04  0.65864270000E+03 0.  0.
    8880022    1    1    2    0    0 -0.17579323179E+03 -0.93918576379E+03 -0.16595625416E+03  0.98178729395E+03  0.15294330000E+03 0.  0.
<mgrwt>
<rscale>  0 0.11089636E+04</rscale>
<asrwt>0</asrwt>
<pdfrwt beam="1">  1        2 0.26927886E+00 0.11605100E+04</pdfrwt>
<pdfrwt beam="2">  1       -2 0.10678681E+00 0.11605100E+04</pdfrwt>
<totfact> 0.63641309E+00</totfact>
</mgrwt>
</event>
<event>
 4    1  0.7280516E-007  0.6915463E+03  0.7818608E-02  0.1003426E+00
         -2   -1    0    0    0  501 -0.00000000000E+00  0.00000000000E+00  0.10141559719E+04  0.10141559719E+04  0.25500000000E-02 0.  1.
          2   -1    0    0  501    0  0.00000000000E+00 -0.00000000000E+00 -0.10896411553E+04  0.10896411553E+04  0.25500000000E-02 0. -1.
    8880023    1    1    2    0    0  0.16544789134E+03  0.13058736637E+03 -0.95920703876E+03  0.11825034522E+04  0.65864270000E+03 0. -1.
    8880022    1    1    2    0    0 -0.16544789134E+03 -0.13058736637E+03  0.88372185534E+03  0.92129367502E+03  0.15294330000E+03 0.  0.
<mgrwt>
<rscale>  0 0.54173119E+03</rscale>
<asrwt>0</asrwt>
<pdfrwt beam="1">  1        2 0.16763710E+00 0.69154629E+03</pdfrwt>
<pdfrwt beam="2">  1       -2 0.15602399E+00 0.69154629E+03</pdfrwt>
<totfact> 0.61329013E+00</totfact>
</mgrwt>
</event>
<event>
 4    1  0.7280516E-007  0.1344269E+04  0.7818608E-02  0.9028243E-01
         -2   -1    0    0    0  501 -0.00000000000E+00  0.00000000000E+00  0.10454075351E+04  0.10454075351E+04  0.25500000000E-02 0.  1.
          2   -1    0    0  501    0  0.00000000000E+00 -0.00000000000E+00 -0.19489312650E+04  0.19489312650E+04  0.25500000000E-02 0. -1.
    8880023    1    1    2    0    0 -0.71080307120E+03  0.93166995621E+03 -0.11708551182E+04  0.17826838832E+04  0.65864270000E+03 0. -1.
    8880022    1    1    2    0    0  0.71080307120E+03 -0.93166995621E+03  0.26733138832E+03  0.12116549169E+04  0.15294330000E+03 0.  1.
<mgrwt>
<rscale>  0 0.13016684E+04</rscale>
<asrwt>0</asrwt>
<pdfrwt beam="1">  1        2 0.29983558E+00 0.13442694E+04</pdfrwt>
<pdfrwt beam="2">  1       -2 0.16083193E+00 0.13442694E+04</pdfrwt>
<totfact> 0.16960250E+00</totfact>
</mgrwt>
</event>
<event>
 4    1  0.7280516E-007  0.6588638E+03  0.7818608E-02  0.1025352E+00
         -2   -1    0    0    0  501 -0.00000000000E+00  0.00000000000E+00  0.23332774523E+03  0.23332774524E+03  0.25500000000E-02 0.  1.
          2   -1    0    0  501    0  0.00000000000E+00 -0.00000000000E+00 -0.14895160132E+04  0.14895160132E+04  0.25500000000E-02 0. -1.
    8880023    1    1    2    0    0 -0.15939641232E+02 -0.60997464822E+01 -0.13774511165E+04  0.15269161941E+04  0.65864270000E+03 0. -1.
    8880022    1    1    2    0    0  0.15939641232E+02  0.60997464822E+01  0.12126284847E+03  0.19592756443E+03  0.15294330000E+03 0.  0.
<mgrwt>
<rscale>  0 0.45803763E+03</rscale>
<asrwt>0</asrwt>
<pdfrwt beam="1">  1        2 0.22915630E+00 0.65886378E+03</pdfrwt>
<pdfrwt beam="2">  1       -2 0.35896577E-01 0.65886378E+03</pdfrwt>
<totfact> 0.96481717E+01</totfact>
</mgrwt>
</event>
<event>
 4    1  0.9121242E-007  0.7491620E+03  0.7818608E-02  0.9834020E-01
          2   -1    0    0  501    0  0.00000000000E+00  0.00000000000E+00  0.25025338983E+04  0.25025338983E+04  0.25500000000E-02 0. -1.
         -2   -1    0    0    0  501 -0.00000000000E+00 -0.00000000000E+00 -0.64425575712E+03  0.64425575713E+03  0.25500000000E-02 0.  1.
    8880023    1    1    2    0    0  0.13126166327E+03 -0.33196969819E+03  0.23807212453E+04  0.24958119639E+04  0.65864270000E+03 0. -1.
    8880022    1    1    2    0    0 -0.13126166327E+03  0.33196969819E+03 -0.52244310418E+03  0.65097769153E+03  0.15294330000E+03 0.  0.
<mgrwt>
<rscale>  0 0.63568364E+03</rscale>
<asrwt>0</asrwt>
<pdfrwt beam="1">  1        2 0.38500521E+00 0.74916201E+03</pdfrwt>
<pdfrwt beam="2">  1       -2 0.99116271E-01 0.74916201E+03</pdfrwt>
<totfact> 0.30745604E+00</totfact>
</mgrwt>
</event>
<event>
 4    1  0.7280516E-007  0.9304316E+03  0.7818608E-02  0.9478846E-01
          2   -1    0    0  501    0  0.00000000000E+00  0.00000000000E+00  0.12750734383E+04  0.12750734383E+04  0.25500000000E-02 0. -1.
         -2   -1    0    0    0  501 -0.00000000000E+00 -0.00000000000E+00 -0.87306458359E+03  0.87306458360E+03  0.25500000000E-02 0.  1.
    8880023    1    1    2    0    0  0.64012871620E+03  0.14875477933E+03  0.91159952821E+03  0.13025807705E+04  0.65864270000E+03 0. -1.
    8880022    1    1    2    0    0 -0.64012871620E+03 -0.14875477933E+03 -0.50959067354E+03  0.84555725132E+03  0.15294330000E+03 0.  0.
<mgrwt>
<rscale>  0 0.85861543E+03</rscale>
<asrwt>0</asrwt>
<pdfrwt beam="1">  1        2 0.19616514E+00 0.93043160E+03</pdfrwt>
<pdfrwt beam="2">  1       -2 0.13431763E+00 0.93043160E+03</pdfrwt>
<totfact> 0.68285563E+00</totfact>
</mgrwt>
</event>
<event>
 4    1  0.7280516E-007  0.6779320E+03  0.7818608E-02  0.1010518E+00
          2   -1    0    0  501    0  0.00000000000E+00  0.00000000000E+00  0.19309834905E+04  0.19309834905E+04  0.25500000000E-02 0. -1.
         -2   -1    0    0    0  501 -0.00000000000E+00 -0.00000000000E+00 -0.28452829518E+03  0.28452829519E+03  0.25500000000E-02 0.  1.
    8880023    1    1    2    0    0 -0.15988378891E+03  0.14791473163E+02  0.18146768716E+04  0.19371742225E+04  0.65864270000E+03 0.  0.
    8880022    1    1    2    0    0  0.15988378891E+03 -0.14791473163E+02 -0.16822167637E+03  0.27833756313E+03  0.15294330000E+03 0.  0.
<mgrwt>
<rscale>  0 0.51269106E+03</rscale>
<asrwt>0</asrwt>
<pdfrwt beam="1">  1        2 0.29707438E+00 0.67793202E+03</pdfrwt>
<pdfrwt beam="2">  1       -2 0.43773584E-01 0.67793202E+03</pdfrwt>
<totfact> 0.37562779E+01</totfact>
</mgrwt>
</event>
<event>
 4    1  0.7280516E-007  0.9677971E+03  0.7818608E-02  0.9424957E-01
         -2   -1    0    0    0  501 -0.00000000000E+00  0.00000000000E+00  0.86766612553E+03  0.86766612553E+03  0.25500000000E-02 0.  1.
          2   -1    0    0  501    0  0.00000000000E+00 -0.00000000000E+00 -0.13857243238E+04  0.13857243238E+04  0.25500000000E-02 0. -1.
    8880023    1    1    2    0    0 -0.70628258325E+03  0.63134028038E+02 -0.99278569583E+03  0.13864539794E+04  0.65864270000E+03 0. -1.
    8880022    1    1    2    0    0  0.70628258325E+03 -0.63134028038E+02  0.47472749758E+03  0.86693646991E+03  0.15294330000E+03 0.  0.
<mgrwt>
<rscale>  0 0.90049933E+03</rscale>
<asrwt>0</asrwt>
<pdfrwt beam="1">  1        2 0.21318836E+00 0.96779709E+03</pdfrwt>
<pdfrwt beam="2">  1       -2 0.13348710E+00 0.96779709E+03</pdfrwt>
<totfact> 0.59638856E+00</totfact>
</mgrwt>
</event>
<event>
 4    1  0.7280516E-007  0.9721913E+03  0.7818608E-02  0.9418880E-01
          2   -1    0    0  501    0  0.00000000000E+00  0.00000000000E+00  0.23256855540E+04  0.23256855540E+04  0.25500000000E-02 0. -1.
         -2   -1    0    0    0  501 -0.00000000000E+00 -0.00000000000E+00 -0.40758950243E+03  0.40758950244E+03  0.25500000000E-02 0.  1.
    8880023    1    1    2    0    0  0.71455192332E+03  0.27589693282E+02  0.17198669381E+04  0.19756260105E+04  0.65864270000E+03 0. -1.
    8880022    1    1    2    0    0 -0.71455192332E+03 -0.27589693282E+02  0.19822911339E+03  0.75764904587E+03  0.15294330000E+03 0.  0.
<mgrwt>
<rscale>  0 0.90538093E+03</rscale>
<asrwt>0</asrwt>
<pdfrwt beam="1">  1        2 0.35779779E+00 0.97219126E+03</pdfrwt>
<pdfrwt beam="2">  1       -2 0.62706074E-01 0.97219126E+03</pdfrwt>
<totfact> 0.10458979E+01</totfact>
</mgrwt>
</event>
<event>
 4    1  0.7280516E-007  0.7742817E+03  0.7818608E-02  0.9769445E-01
         -2   -1    0    0    0  501 -0.00000000000E+00  0.00000000000E+00  0.30748837523E+03  0.30748837525E+03  0.25500000000E-02 0.  1.
          2   -1    0    0  501    0  0.00000000000E+00 -0.00000000000E+00 -0.18830383805E+04  0.18830383805E+04  0.25500000000E-02 0. -1.
    8880023    1    1    2    0    0  0.39825259272E+03  0.84242295365E+02 -0.15757197095E+04  0.17556778466E+04  0.65864270000E+03 0.  0.
    8880022    1    1    2    0    0 -0.39825259272E+03 -0.84242295365E+02  0.16970426102E+00  0.43484890910E+03  0.15294330000E+03 0.  0.
<mgrwt>
<rscale>  0 0.67028395E+03</rscale>
<asrwt>0</asrwt>
<pdfrwt beam="1">  1        2 0.28969820E+00 0.77428167E+03</pdfrwt>
<pdfrwt beam="2">  1       -2 0.47305905E-01 0.77428167E+03</pdfrwt>
<totfact> 0.33741414E+01</totfact>
</mgrwt>
</event>
<event>
 4    1  0.7280516E-007  0.1079798E+04  0.7818608E-02  0.9283888E-01
          2   -1    0    0  501    0  0.00000000000E+00  0.00000000000E+00  0.34385983255E+04  0.34385983255E+04  0.25500000000E-02 0. -1.
         -2   -1    0    0    0  501 -0.00000000000E+00 -0.00000000000E+00 -0.49954534465E+03  0.49954534466E+03  0.25500000000E-02 0.  1.
    8880023    1    1    2    0    0 -0.27007306959E+03  0.81192061625E+03  0.28697366497E+04  0.30661626172E+04  0.65864270000E+03 0.  0.
    8880022    1    1    2    0    0  0.27007306959E+03 -0.81192061625E+03  0.69316331147E+02  0.87198105299E+03  0.15294330000E+03 0.  0.
<mgrwt>
<rscale>  0 0.10227975E+04</rscale>
<asrwt>0</asrwt>
<pdfrwt beam="1">  1        2 0.52901514E+00 0.10797985E+04</pdfrwt>
<pdfrwt beam="2">  1       -2 0.76853128E-01 0.10797985E+04</pdfrwt>
<totfact> 0.13841182E+00</totfact>
</mgrwt>
</event>
<event>
 4    1  0.7280516E-007  0.7090527E+03  0.7818608E-02  0.9961535E-01
         -2   -1    0    0    0  501 -0.00000000000E+00  0.00000000000E+00  0.79545605722E+02  0.79545605763E+02  0.25500000000E-02 0.  1.
          2   -1    0    0  501    0  0.00000000000E+00 -0.00000000000E+00 -0.44029080060E+04  0.44029080060E+04  0.25500000000E-02 0. -1.
    8880023    1    1    2    0    0 -0.22742915129E+03 -0.13123087312E+03 -0.38843482960E+04  0.39485335825E+04  0.65864270000E+03 0. -1.
    8880022    1    1    2    0    0  0.22742915129E+03  0.13123087312E+03 -0.43901410424E+03  0.53392002926E+03  0.15294330000E+03 0.  0.
<mgrwt>
<rscale>  0 0.57369491E+03</rscale>
<asrwt>0</asrwt>
<pdfrwt beam="1">  1        2 0.67737027E+00 0.70905273E+03</pdfrwt>
<pdfrwt beam="2">  1       -2 0.12237789E-01 0.70905273E+03</pdfrwt>
<totfact> 0.85291211E+00</totfact>
</mgrwt>
</event>
<event>
 4    1  0.1493097E-006  0.6792066E+03  0.7818608E-02  0.1009776E+00
          2   -1    0    0  501    0  0.00000000000E+00  0.00000000000E+00  0.11475293965E+04  0.11475293965E+04  0.25500000000E-02 0. -1.
         -2   -1    0    0    0  501 -0.00000000000E+00 -0.00000000000E+00 -0.19497304083E+04  0.19497304083E+04  0.25500000000E-02 0.  1.
    8880023    1    1    2    0    0  0.13255324301E+03  0.99704913724E+02  0.10395356910E+04  0.12417552461E+04  0.65864270000E+03 0. -1.
    8880022    1    1    2    0    0 -0.13255324301E+03 -0.99704913724E+02 -0.18417367028E+04  0.18555045587E+04  0.15294330000E+03 0.  0.
<mgrwt>
<rscale>  0 0.51563744E+03</rscale>
<asrwt>0</asrwt>
<pdfrwt beam="1">  1        2 0.17654298E+00 0.67920662E+03</pdfrwt>
<pdfrwt beam="2">  1       -2 0.29995852E+00 0.67920662E+03</pdfrwt>
<totfact> 0.68974118E-01</totfact>
</mgrwt>
</event>
<event>
 4    1  0.7280516E-007  0.8108299E+03  0.7818608E-02  0.9687851E-01
          2   -1    0    0  501    0  0.00000000000E+00  0.00000000000E+00  0.53979787107E+03  0.53979787108E+03  0.25500000000E-02 0. -1.
         -2   -1    0    0    0  501 -0.00000000000E+00 -0.00000000000E+00 -0.95202893664E+03  0.95202893664E+03  0.25500000000E-02 0.  1.
    8880023    1    1    2    0    0 -0.45503894005E+03 -0.12874220066E+03  0.50967648655E+02  0.81243024234E+03  0.65864270000E+03 0. -1.
    8880022    1    1    2    0    0  0.45503894005E+03  0.12874220066E+03 -0.46319871422E+03  0.67939656539E+03  0.15294330000E+03 0.  0.
<mgrwt>
<rscale>  0 0.71744780E+03</rscale>
<asrwt>0</asrwt>
<pdfrwt beam="1">  1        2 0.83045827E-01 0.81082994E+03</pdfrwt>
<pdfrwt beam="2">  1       -2 0.14646599E+00 0.81082994E+03</pdfrwt>
<totfact> 0.18112510E+01</totfact>
</mgrwt>
</event>
<event>
 4    1  0.7280516E-007  0.7603928E+03  0.7818608E-02  0.9804092E-01
          2   -1    0    0  501    0  0.00000000000E+00  0.00000000000E+00  0.10657164723E+04  0.10657164723E+04  0.25500000000E-02 0. -1.
         -2   -1    0    0    0  501 -0.00000000000E+00 -0.00000000000E+00 -0.65914977036E+03  0.65914977036E+03  0.25500000000E-02 0.  1.
    8880023    1    1    2    0    0 -0.46798489142E+01 -0.37995403461E+03  0.83690404948E+03  0.11307544224E+04  0.65864270000E+03 0. -1.
    8880022    1    1    2    0    0  0.46798489142E+01  0.37995403461E+03 -0.43033734750E+03  0.59411182034E+03  0.15294330000E+03 0.  0.
<mgrwt>
<rscale>  0 0.65143422E+03</rscale>
<asrwt>0</asrwt>
<pdfrwt beam="1">  1        2 0.16395638E+00 0.76039278E+03</pdfrwt>
<pdfrwt beam="2">  1       -2 0.10140766E+00 0.76039278E+03</pdfrwt>
<totfact> 0.18579297E+01</totfact>
</mgrwt>
</event>
<event>
 4    1  0.7280516E-007  0.6611522E+03  0.7818608E-02  0.1023006E+00
         -2   -1    0    0    0  501 -0.00000000000E+00  0.00000000000E+00  0.11219093995E+03  0.11219093998E+03  0.25500000000E-02 0.  1.
          2   -1    0    0  501    0  0.00000000000E+00 -0.00000000000E+00 -0.18376002029E+04  0.18376002029E+04  0.25500000000E-02 0. -1.
    8880023    1    1    2    0    0  0.34441335939E+02 -0.46107266091E+02 -0.16336781118E+04  0.17623922563E+04  0.65864270000E+03 0. -1.
    8880022    1    1    2    0    0 -0.34441335939E+02  0.46107266091E+02 -0.91731151146E+02  0.18739888664E+03  0.15294330000E+03 0.  0.
<mgrwt>
<rscale>  0 0.46617354E+03</rscale>
<asrwt>0</asrwt>
<pdfrwt beam="1">  1        2 0.28270770E+00 0.66115225E+03</pdfrwt>
<pdfrwt beam="2">  1       -2 0.17260146E-01 0.66115225E+03</pdfrwt>
<totfact> 0.23308141E+02</totfact>
</mgrwt>
</event>
<event>
 4    1  0.7280516E-007  0.8761568E+03  0.7818608E-02  0.9565446E-01
          2   -1    0    0  501    0  0.00000000000E+00  0.00000000000E+00  0.11882954238E+04  0.11882954238E+04  0.25500000000E-02 0. -1.
         -2   -1    0    0    0  501 -0.00000000000E+00 -0.00000000000E+00 -0.12342770881E+04  0.12342770881E+04  0.25500000000E-02 0.  1.
    8880023    1    1    2    0    0  0.41595447925E+03  0.40102665749E+03  0.93025719833E+03  0.12779002974E+04  0.65864270000E+03 0. -1.
    8880022    1    1    2    0    0 -0.41595447925E+03 -0.40102665749E+03 -0.97623886264E+03  0.11446722146E+04  0.15294330000E+03 0.  0.
<mgrwt>
<rscale>  0 0.79626053E+03</rscale>
<asrwt>0</asrwt>
<pdfrwt beam="1">  1        2 0.18281468E+00 0.87615679E+03</pdfrwt>
<pdfrwt beam="2">  1       -2 0.18988878E+00 0.87615679E+03</pdfrwt>
<totfact> 0.30096436E+00</totfact>
</mgrwt>
</event>
<event>
 4    1  0.7280516E-007  0.6741243E+03  0.7818608E-02  0.1012864E+00
          2   -1    0    0  501    0  0.00000000000E+00  0.00000000000E+00  0.15465074709E+03  0.15465074712E+03  0.25500000000E-02 0. -1.
         -2   -1    0    0    0  501 -0.00000000000E+00 -0.00000000000E+00 -0.22310445567E+04  0.22310445567E+04  0.25500000000E-02 0.  1.
    8880023    1    1    2    0    0 -0.10977336905E+03  0.92645178882E+02 -0.62520214433E+03  0.91941353550E+03  0.65864270000E+03 0. -1.
    8880022    1    1    2    0    0  0.10977336905E+03 -0.92645178882E+02 -0.14511916653E+04  0.14662817684E+04  0.15294330000E+03 0.  0.
<mgrwt>
<rscale>  0 0.50352074E+03</rscale>
<asrwt>0</asrwt>
<pdfrwt beam="1">  1        2 0.23792424E-01 0.67412427E+03</pdfrwt>
<pdfrwt beam="2">  1       -2 0.34323760E+00 0.67412427E+03</pdfrwt>
<totfact> 0.42233776E+00</totfact>
</mgrwt>
</event>
<event>
 4    1  0.7280516E-007  0.1547833E+04  0.7818608E-02  0.8876577E-01
          2   -1    0    0  501    0  0.00000000000E+00  0.00000000000E+00  0.35920198029E+04  0.35920198029E+04  0.25500000000E-02 0. -1.
         -2   -1    0    0    0  501 -0.00000000000E+00 -0.00000000000E+00 -0.63600751347E+03  0.63600751347E+03  0.25500000000E-02 0.  1.
    8880023    1    1    2    0    0 -0.13600423919E+04 -0.33505549299E+03  0.19835286855E+04  0.25159836533E+04  0.65864270000E+03 0.  0.
    8880022    1    1    2    0    0  0.13600423919E+04  0.33505549299E+03  0.97248360393E+03  0.17120436631E+04  0.15294330000E+03 0.  0.
<mgrwt>
<rscale>  0 0.15119007E+04</rscale>
<asrwt>0</asrwt>
<pdfrwt beam="1">  1        2 0.55261842E+00 0.15478332E+04</pdfrwt>
<pdfrwt beam="2">  1       -2 0.97847312E-01 0.15478332E+04</pdfrwt>
<totfact> 0.58299563E-01</totfact>
</mgrwt>
</event>
<event>
 4    1  0.7280516E-007  0.1143441E+04  0.7818608E-02  0.9214164E-01
          2   -1    0    0  501    0  0.00000000000E+00  0.00000000000E+00  0.13345998291E+04  0.13345998291E+04  0.25500000000E-02 0. -1.
         -2   -1    0    0    0  501 -0.00000000000E+00 -0.00000000000E+00 -0.92412722822E+03  0.92412722822E+03  0.25500000000E-02 0.  1.
    8880023    1    1    2    0    0  0.57835513660E+03 -0.73427027711E+03  0.60230542910E+03  0.12923736070E+04  0.65864270000E+03 0.  0.
    8880022    1    1    2    0    0 -0.57835513660E+03  0.73427027711E+03 -0.19183282826E+03  0.96635345029E+03  0.15294330000E+03 0.  0.
<mgrwt>
<rscale>  0 0.10908419E+04</rscale>
<asrwt>0</asrwt>
<pdfrwt beam="1">  1        2 0.20532305E+00 0.11434412E+04</pdfrwt>
<pdfrwt beam="2">  1       -2 0.14217342E+00 0.11434412E+04</pdfrwt>
<totfact> 0.53257812E+00</totfact>
</mgrwt>
</event>
<event>
 4    1  0.7280516E-007  0.8762631E+03  0.7818608E-02  0.9565265E-01
         -2   -1    0    0    0  501 -0.00000000000E+00  0.00000000000E+00  0.33571904418E+03  0.33571904419E+03  0.25500000000E-02 0.  1.
          2   -1    0    0  501    0  0.00000000000E+00 -0.00000000000E+00 -0.26346402936E+04  0.26346402936E+04  0.25500000000E-02 0. -1.
    8880023    1    1    2    0    0 -0.21885584330E+03 -0.53491019365E+03 -0.21951409185E+04  0.23635737039E+04  0.65864270000E+03 0. -1.
    8880022    1    1    2    0    0  0.21885584330E+03  0.53491019365E+03 -0.10378033093E+03  0.60678563391E+03  0.15294330000E+03 0.  0.
<mgrwt>
<rscale>  0 0.79638489E+03</rscale>
<asrwt>0</asrwt>
<pdfrwt beam="1">  1        2 0.40532926E+00 0.87626309E+03</pdfrwt>
<pdfrwt beam="2">  1       -2 0.51649085E-01 0.87626309E+03</pdfrwt>
<totfact> 0.10605952E+01</totfact>
</mgrwt>
</event>
<event>
 4    1  0.7280516E-007  0.1012814E+04  0.7818608E-02  0.9364981E-01
         -2   -1    0    0    0  501 -0.00000000000E+00  0.00000000000E+00  0.54956854594E+03  0.54956854594E+03  0.25500000000E-02 0.  1.
          2   -1    0    0  501    0  0.00000000000E+00 -0.00000000000E+00 -0.31172484937E+04  0.31172484937E+04  0.25500000000E-02 0. -1.
    8880023    1    1    2    0    0  0.70401281477E+03 -0.31040116513E+03 -0.26886489586E+04  0.28730865556E+04  0.65864270000E+03 0.  0.
    8880022    1    1    2    0    0 -0.70401281477E+03  0.31040116513E+03  0.12096901092E+03  0.79373048404E+03  0.15294330000E+03 0.  0.
<mgrwt>
<rscale>  0 0.95014495E+03</rscale>
<asrwt>0</asrwt>
<pdfrwt beam="1">  1        2 0.47957668E+00 0.10128145E+04</pdfrwt>
<pdfrwt beam="2">  1       -2 0.84549009E-01 0.10128145E+04</pdfrwt>
<totfact> 0.18281255E+00</totfact>
</mgrwt>
</event>
<event>
 4    1  0.7280516E-007  0.1499944E+04  0.7818608E-02  0.8909676E-01
         -2   -1    0    0    0  501 -0.00000000000E+00  0.00000000000E+00  0.11266409079E+04  0.11266409079E+04  0.25500000000E-02 0.  1.
          2   -1    0    0  501    0  0.00000000000E+00 -0.00000000000E+00 -0.24233887794E+04  0.24233887794E+04  0.25500000000E-02 0. -1.
    8880023    1    1    2    0    0 -0.12736037863E+04  0.44040300105E+03 -0.15647543977E+04  0.21675534455E+04  0.65864270000E+03 0.  0.
    8880022    1    1    2    0    0  0.12736037863E+04 -0.44040300105E+03  0.26800652615E+03  0.13824762417E+04  0.15294330000E+03 0.  0.
<mgrwt>
<rscale>  0 0.14626525E+04</rscale>
<asrwt>0</asrwt>
<pdfrwt beam="1">  1        2 0.37282904E+00 0.14999439E+04</pdfrwt>
<pdfrwt beam="2">  1       -2 0.17332937E+00 0.14999439E+04</pdfrwt>
<totfact> 0.73280362E-01</totfact>
</mgrwt>
</event>
<event>
 4    1  0.7280516E-007  0.7259719E+03  0.7818608E-02  0.9902874E-01
         -2   -1    0    0    0  501 -0.00000000000E+00  0.00000000000E+00  0.70699563153E+03  0.70699563153E+03  0.25500000000E-02 0.  1.
          2   -1    0    0  501    0  0.00000000000E+00 -0.00000000000E+00 -0.76331834255E+03  0.76331834255E+03  0.25500000000E-02 0. -1.
    8880023    1    1    2    0    0  0.25135951236E+03 -0.17333046568E+03 -0.52105378831E+03  0.89360635146E+03  0.65864270000E+03 0.  0.
    8880022    1    1    2    0    0 -0.25135951236E+03  0.17333046568E+03  0.46473107729E+03  0.57670762263E+03  0.15294330000E+03 0.  0.
<mgrwt>
<rscale>  0 0.60122215E+03</rscale>
<asrwt>0</asrwt>
<pdfrwt beam="1">  1        2 0.11743359E+00 0.72597194E+03</pdfrwt>
<pdfrwt beam="2">  1       -2 0.10876856E+00 0.72597194E+03</pdfrwt>
<totfact> 0.25148245E+01</totfact>
</mgrwt>
</event>
<event>
 4    1  0.7280516E-007  0.7608095E+03  0.7818608E-02  0.9803016E-01
         -2   -1    0    0    0  501 -0.00000000000E+00  0.00000000000E+00  0.78527707113E+03  0.78527707113E+03  0.25500000000E-02 0.  1.
          2   -1    0    0  501    0  0.00000000000E+00 -0.00000000000E+00 -0.68259849153E+03  0.68259849154E+03  0.25500000000E-02 0. -1.
    8880023    1    1    2    0    0 -0.16618157326E+03  0.34264359979E+03 -0.36655120693E+03  0.84450633232E+03  0.65864270000E+03 0. -1.
    8880022    1    1    2    0    0  0.16618157326E+03 -0.34264359979E+03  0.46922978653E+03  0.62336923035E+03  0.15294330000E+03 0.  1.
<mgrwt>
<rscale>  0 0.65200929E+03</rscale>
<asrwt>0</asrwt>
<pdfrwt beam="1">  1        2 0.10501515E+00 0.76080954E+03</pdfrwt>
<pdfrwt beam="2">  1       -2 0.12081186E+00 0.76080954E+03</pdfrwt>
<totfact> 0.22365113E+01</totfact>
</mgrwt>
</event>
<event>
 4    1  0.7280516E-007  0.8075905E+03  0.7818608E-02  0.9694618E-01
         -2   -1    0    0    0  501 -0.00000000000E+00  0.00000000000E+00  0.94830664571E+02  0.94830664605E+02  0.25500000000E-02 0.  1.
          2   -1    0    0  501    0  0.00000000000E+00 -0.00000000000E+00 -0.45816707352E+04  0.45816707352E+04  0.25500000000E-02 0. -1.
    8880023    1    1    2    0    0  0.43231368719E+03  0.17747438855E+03 -0.31572462443E+04  0.32588964906E+04  0.65864270000E+03 0.  0.
    8880022    1    1    2    0    0 -0.43231368719E+03 -0.17747438855E+03 -0.13295938263E+04  0.14176049093E+04  0.15294330000E+03 0.  0.
<mgrwt>
<rscale>  0 0.71338151E+03</rscale>
<asrwt>0</asrwt>
<pdfrwt beam="1">  1        2 0.70487225E+00 0.80759055E+03</pdfrwt>
<pdfrwt beam="2">  1       -2 0.14589337E-01 0.80759055E+03</pdfrwt>
<totfact> 0.42064082E+00</totfact>
</mgrwt>
</event>
<event>
 4    1  0.7280516E-007  0.7742728E+03  0.7818608E-02  0.9769466E-01
         -2   -1    0    0    0  501 -0.00000000000E+00  0.00000000000E+00  0.22935842656E+03  0.22935842657E+03  0.25500000000E-02 0.  1.
          2   -1    0    0  501    0  0.00000000000E+00 -0.00000000000E+00 -0.16393218999E+04  0.16393218999E+04  0.25500000000E-02 0. -1.
    8880023    1    1    2    0    0 -0.16418584135E+03 -0.37246635811E+03 -0.10474601327E+04  0.13025632861E+04  0.65864270000E+03 0. -1.
    8880022    1    1    2    0    0  0.16418584135E+03  0.37246635811E+03 -0.36250334071E+03  0.56611704044E+03  0.15294330000E+03 0.  1.
<mgrwt>
<rscale>  0 0.67027212E+03</rscale>
<asrwt>0</asrwt>
<pdfrwt beam="1">  1        2 0.25220336E+00 0.77427281E+03</pdfrwt>
<pdfrwt beam="2">  1       -2 0.35285913E-01 0.77427281E+03</pdfrwt>
<totfact> 0.81460854E+01</totfact>
</mgrwt>
</event>
<event>
 4    1  0.7280516E-007  0.6790684E+03  0.7818608E-02  0.1009856E+00
         -2   -1    0    0    0  501 -0.00000000000E+00  0.00000000000E+00  0.35836158125E+03  0.35836158126E+03  0.25500000000E-02 0.  1.
          2   -1    0    0  501    0  0.00000000000E+00 -0.00000000000E+00 -0.16573873478E+04  0.16573873478E+04  0.25500000000E-02 0. -1.
    8880023    1    1    2    0    0  0.15978421856E+03 -0.42340692094E+02 -0.15417317399E+04  0.16846574414E+04  0.65864270000E+03 0. -1.
    8880022    1    1    2    0    0 -0.15978421856E+03  0.42340692094E+02  0.24270597335E+03  0.33109148769E+03  0.15294330000E+03 0.  0.
<mgrwt>
<rscale>  0 0.51532074E+03</rscale>
<asrwt>0</asrwt>
<pdfrwt beam="1">  1        2 0.25498266E+00 0.67906843E+03</pdfrwt>
<pdfrwt beam="2">  1       -2 0.55132552E-01 0.67906843E+03</pdfrwt>
<totfact> 0.33156847E+01</totfact>
</mgrwt>
</event>
<event>
 4    1  0.7280516E-007  0.6882215E+03  0.7818608E-02  0.1005010E+00
         -2   -1    0    0    0  501 -0.00000000000E+00  0.00000000000E+00  0.12884600158E+04  0.12884600158E+04  0.25500000000E-02 0.  1.
          2   -1    0    0  501    0  0.00000000000E+00 -0.00000000000E+00 -0.40531694597E+03  0.40531694597E+03  0.25500000000E-02 0. -1.
    8880023    1    1    2    0    0 -0.16408851785E+03  0.11363767011E+03 -0.85055720857E+02  0.69345745628E+03  0.65864270000E+03 0. -1.
    8880022    1    1    2    0    0  0.16408851785E+03 -0.11363767011E+03  0.96819879065E+03  0.10003195055E+04  0.15294330000E+03 0.  0.
<mgrwt>
<rscale>  0 0.53507140E+03</rscale>
<asrwt>0</asrwt>
<pdfrwt beam="1">  1        2 0.62356453E-01 0.68822145E+03</pdfrwt>
<pdfrwt beam="2">  1       -2 0.19822462E+00 0.68822145E+03</pdfrwt>
<totfact> 0.10971154E+01</totfact>
</mgrwt>
</event>
<event>
 4    1  0.7280516E-007  0.6851400E+03  0.7818608E-02  0.1006554E+00
          2   -1    0    0  501    0  0.00000000000E+00  0.00000000000E+00  0.15795703612E+04  0.15795703612E+04  0.25500000000E-02 0. -1.
         -2   -1    0    0    0  501 -0.00000000000E+00 -0.00000000000E+00 -0.17178251696E+03  0.17178251698E+03  0.25500000000E-02 0.  1.
    8880023    1    1    2    0    0 -0.91242540939E+02  0.16517076224E+03  0.13303505386E+04  0.14964121571E+04  0.65864270000E+03 0. -1.
    8880022    1    1    2    0    0  0.91242540939E+02 -0.16517076224E+03  0.77437305650E+02  0.25494072114E+03  0.15294330000E+03 0.  0.
<mgrwt>
<rscale>  0 0.52867571E+03</rscale>
<asrwt>0</asrwt>
<pdfrwt beam="1">  1        2 0.24301081E+00 0.68513998E+03</pdfrwt>
<pdfrwt beam="2">  1       -2 0.26428081E-01 0.68513998E+03</pdfrwt>
<totfact> 0.15174358E+02</totfact>
</mgrwt>
</event>
<event>
 4    1  0.7280516E-007  0.7353873E+03  0.7818608E-02  0.9873593E-01
          2   -1    0    0  501    0  0.00000000000E+00  0.00000000000E+00  0.52755356092E+03  0.52755356093E+03  0.25500000000E-02 0. -1.
         -2   -1    0    0    0  501 -0.00000000000E+00 -0.00000000000E+00 -0.94094270256E+03  0.94094270256E+03  0.25500000000E-02 0.  1.
    8880023    1    1    2    0    0  0.29956197416E+03 -0.13132758769E+03  0.19520128393E+03  0.76085350703E+03  0.65864270000E+03 0. -1.
    8880022    1    1    2    0    0 -0.29956197416E+03  0.13132758769E+03 -0.60859042557E+03  0.70764275646E+03  0.15294330000E+03 0.  0.
<mgrwt>
<rscale>  0 0.61558325E+03</rscale>
<asrwt>0</asrwt>
<pdfrwt beam="1">  1        2 0.81162086E-01 0.73538733E+03</pdfrwt>
<pdfrwt beam="2">  1       -2 0.14476042E+00 0.73538733E+03</pdfrwt>
<totfact> 0.19314864E+01</totfact>
</mgrwt>
</event>
<event>
 4    1  0.7280516E-007  0.2202002E+04  0.7818608E-02  0.8527728E-01
          2   -1    0    0  501    0  0.00000000000E+00  0.00000000000E+00  0.40337464435E+04  0.40337464435E+04  0.25500000000E-02 0. -1.
         -2   -1    0    0    0  501 -0.00000000000E+00 -0.00000000000E+00 -0.11979402877E+04  0.11979402877E+04  0.25500000000E-02 0.  1.
    8880023    1    1    2    0    0 -0.83835674247E+03  0.19266970026E+04  0.19677494579E+04  0.29531087862E+04  0.65864270000E+03 0.  0.
    8880022    1    1    2    0    0  0.83835674247E+03 -0.19266970026E+04  0.86805669787E+03  0.22785779450E+04  0.15294330000E+03 0.  0.
<mgrwt>
<rscale>  0 0.21777928E+04</rscale>
<asrwt>0</asrwt>
<pdfrwt beam="1">  1        2 0.62057638E+00 0.22020022E+04</pdfrwt>
<pdfrwt beam="2">  1       -2 0.18429851E+00 0.22020022E+04</pdfrwt>
<totfact> 0.47888096E-02</totfact>
</mgrwt>
</event>
<event>
 4    1  0.7280516E-007  0.7399444E+03  0.7818608E-02  0.9860109E-01
          2   -1    0    0  501    0  0.00000000000E+00  0.00000000000E+00  0.19473318208E+04  0.19473318208E+04  0.25500000000E-02 0. -1.
         -2   -1    0    0    0  501 -0.00000000000E+00 -0.00000000000E+00 -0.16781060401E+03  0.16781060403E+03  0.25500000000E-02 0.  1.
    8880023    1    1    2    0    0 -0.19183945079E+03  0.27731785470E+03  0.14081415865E+04  0.15907169771E+04  0.65864270000E+03 0.  0.
    8880022    1    1    2    0    0  0.19183945079E+03 -0.27731785470E+03  0.37137963035E+03  0.52442544777E+03  0.15294330000E+03 0.  0.
<mgrwt>
<rscale>  0 0.62234142E+03</rscale>
<asrwt>0</asrwt>
<pdfrwt beam="1">  1        2 0.29958951E+00 0.73994444E+03</pdfrwt>
<pdfrwt beam="2">  1       -2 0.25817016E-01 0.73994444E+03</pdfrwt>
<totfact> 0.99183174E+01</totfact>
</mgrwt>
</event>
<event>
 4    1  0.7280516E-007  0.6726076E+03  0.7818608E-02  0.1013859E+00
         -2   -1    0    0    0  501 -0.00000000000E+00  0.00000000000E+00  0.11075445319E+03  0.11075445322E+03  0.25500000000E-02 0.  1.
          2   -1    0    0  501    0  0.00000000000E+00 -0.00000000000E+00 -0.20159849832E+04  0.20159849832E+04  0.25500000000E-02 0. -1.
    8880023    1    1    2    0    0  0.13275999526E+03  0.31074514463E+02 -0.17334264767E+04  0.18593462287E+04  0.65864270000E+03 0. -1.
    8880022    1    1    2    0    0 -0.13275999526E+03 -0.31074514463E+02 -0.17180405335E+03  0.26739320775E+03  0.15294330000E+03 0.  1.
<mgrwt>
<rscale>  0 0.49969486E+03</rscale>
<asrwt>0</asrwt>
<pdfrwt beam="1">  1        2 0.31015151E+00 0.67260765E+03</pdfrwt>
<pdfrwt beam="2">  1       -2 0.17039148E-01 0.67260765E+03</pdfrwt>
<totfact> 0.19043045E+02</totfact>
</mgrwt>
</event>
<event>
 4    1  0.7280516E-007  0.6961638E+03  0.7818608E-02  0.1001350E+00
          2   -1    0    0  501    0  0.00000000000E+00  0.00000000000E+00  0.70129538157E+03  0.70129538158E+03  0.25500000000E-02 0. -1.
         -2   -1    0    0    0  501 -0.00000000000E+00 -0.00000000000E+00 -0.10301932159E+04  0.10301932159E+04  0.25500000000E-02 0.  1.
    8880023    1    1    2    0    0  0.10194919668E+03  0.20109734262E+03  0.50120704056E+03  0.85781844448E+03  0.65864270000E+03 0. -1.
    8880022    1    1    2    0    0 -0.10194919668E+03 -0.20109734262E+03 -0.83010487490E+03  0.87367015301E+03  0.15294330000E+03 0.  0.
<mgrwt>
<rscale>  0 0.55062085E+03</rscale>
<asrwt>0</asrwt>
<pdfrwt beam="1">  1        2 0.10789160E+00 0.69616376E+03</pdfrwt>
<pdfrwt beam="2">  1       -2 0.15849126E+00 0.69616376E+03</pdfrwt>
<totfact> 0.10799118E+01</totfact>
</mgrwt>
</event>
<event>
 4    1  0.7280516E-007  0.1311528E+04  0.7818608E-02  0.9055668E-01
          2   -1    0    0  501    0  0.00000000000E+00  0.00000000000E+00  0.37438925462E+04  0.37438925462E+04  0.25500000000E-02 0. -1.
         -2   -1    0    0    0  501 -0.00000000000E+00 -0.00000000000E+00 -0.55860223077E+03  0.55860223078E+03  0.25500000000E-02 0.  1.
    8880023    1    1    2    0    0  0.10868891263E+04 -0.32398651938E+03  0.28051309952E+04  0.30965893083E+04  0.65864270000E+03 0. -1.
    8880022    1    1    2    0    0 -0.10868891263E+04  0.32398651938E+03  0.38015932017E+03  0.12059054686E+04  0.15294330000E+03 0.  0.
<mgrwt>
<rscale>  0 0.12675908E+04</rscale>
<asrwt>0</asrwt>
<pdfrwt beam="1">  1        2 0.57598346E+00 0.13115279E+04</pdfrwt>
<pdfrwt beam="2">  1       -2 0.85938806E-01 0.13115279E+04</pdfrwt>
<totfact> 0.63135825E-01</totfact>
</mgrwt>
</event>
<event>
 4    1  0.7280516E-007  0.7660695E+03  0.7818608E-02  0.9789640E-01
         -2   -1    0    0    0  501 -0.00000000000E+00  0.00000000000E+00  0.41398949298E+03  0.41398949299E+03  0.25500000000E-02 0.  1.
          2   -1    0    0  501    0  0.00000000000E+00 -0.00000000000E+00 -0.11046011182E+04  0.11046011182E+04  0.25500000000E-02 0. -1.
    8880023    1    1    2    0    0 -0.38141073397E+03  0.87052854531E+02 -0.77546904063E+03  0.10900526532E+04  0.65864270000E+03 0. -1.
    8880022    1    1    2    0    0  0.38141073397E+03 -0.87052854531E+02  0.84857415433E+02  0.42853795799E+03  0.15294330000E+03 0.  1.
<mgrwt>
<rscale>  0 0.65921489E+03</rscale>
<asrwt>0</asrwt>
<pdfrwt beam="1">  1        2 0.16993863E+00 0.76606955E+03</pdfrwt>
<pdfrwt beam="2">  1       -2 0.63690692E-01 0.76606955E+03</pdfrwt>
<totfact> 0.50109998E+01</totfact>
</mgrwt>
</event>
<event>
 4    1  0.7280516E-007  0.7473528E+03  0.7818608E-02  0.9839024E-01
         -2   -1    0    0    0  501 -0.00000000000E+00  0.00000000000E+00  0.40120601424E+03  0.40120601425E+03  0.25500000000E-02 0.  1.
          2   -1    0    0  501    0  0.00000000000E+00 -0.00000000000E+00 -0.15479604544E+04  0.15479604544E+04  0.25500000000E-02 0. -1.
    8880023    1    1    2    0    0 -0.19293211190E+03 -0.29580941155E+03 -0.13279330447E+04  0.15237921070E+04  0.65864270000E+03 0. -1.
    8880022    1    1    2    0    0  0.19293211190E+03  0.29580941155E+03  0.18117860459E+03  0.42537436164E+03  0.15294330000E+03 0.  0.
<mgrwt>
<rscale>  0 0.63309678E+03</rscale>
<asrwt>0</asrwt>
<pdfrwt beam="1">  1        2 0.23814776E+00 0.74735280E+03</pdfrwt>
<pdfrwt beam="2">  1       -2 0.61724003E-01 0.74735280E+03</pdfrwt>
<totfact> 0.29798374E+01</totfact>
</mgrwt>
</event>
<event>
 4    1  0.7280516E-007  0.9121743E+03  0.7818608E-02  0.9506764E-01
          2   -1    0    0  501    0  0.00000000000E+00  0.00000000000E+00  0.10184314381E+04  0.10184314381E+04  0.25500000000E-02 0. -1.
         -2   -1    0    0    0  501 -0.00000000000E+00 -0.00000000000E+00 -0.11291801699E+04  0.11291801699E+04  0.25500000000E-02 0.  1.
    8880023    1    1    2    0    0  0.62818700089E+03 -0.60273103053E+02  0.67024220126E+03  0.11319392959E+04  0.65864270000E+03 0. -1.
    8880022    1    1    2    0    0 -0.62818700089E+03  0.60273103053E+02 -0.78099093303E+03  0.10156723121E+04  0.15294330000E+03 0.  0.
<mgrwt>
<rscale>  0 0.83786981E+03</rscale>
<asrwt>0</asrwt>
<pdfrwt beam="1">  1        2 0.15668176E+00 0.91217430E+03</pdfrwt>
<pdfrwt beam="2">  1       -2 0.17372003E+00 0.91217430E+03</pdfrwt>
<totfact> 0.49198700E+00</totfact>
</mgrwt>
</event>
<event>
 4    1  0.7280516E-007  0.7511332E+03  0.7818608E-02  0.9828628E-01
         -2   -1    0    0    0  501 -0.00000000000E+00  0.00000000000E+00  0.96205344660E+03  0.96205344660E+03  0.25500000000E-02 0.  1.
          2   -1    0    0  501    0  0.00000000000E+00 -0.00000000000E+00 -0.96487419265E+03  0.96487419266E+03  0.25500000000E-02 0. -1.
    8880023    1    1    2    0    0 -0.29110014911E+03 -0.21366241756E+03 -0.76354478735E+03  0.10710750553E+04  0.65864270000E+03 0. -1.
    8880022    1    1    2    0    0  0.29110014911E+03  0.21366241756E+03  0.76072404129E+03  0.85585258398E+03  0.15294330000E+03 0.  0.
<mgrwt>
<rscale>  0 0.63848563E+03</rscale>
<asrwt>0</asrwt>
<pdfrwt beam="1">  1        2 0.14844218E+00 0.75113323E+03</pdfrwt>
<pdfrwt beam="2">  1       -2 0.14800822E+00 0.75113323E+03</pdfrwt>
<totfact> 0.83863580E+00</totfact>
</mgrwt>
</event>
<event>
 4    1  0.7280516E-007  0.7913031E+03  0.7818608E-02  0.9729926E-01
         -2   -1    0    0    0  501 -0.00000000000E+00  0.00000000000E+00  0.15678787010E+04  0.15678787010E+04  0.25500000000E-02 0.  1.
          2   -1    0    0  501    0  0.00000000000E+00 -0.00000000000E+00 -0.56209034628E+03  0.56209034628E+03  0.25500000000E-02 0. -1.
    8880023    1    1    2    0    0  0.75931443078E+02 -0.43195462681E+03 -0.21818080784E+03  0.82083095388E+03  0.65864270000E+03 0. -1.
    8880022    1    1    2    0    0 -0.75931443078E+02  0.43195462681E+03  0.12239691625E+04  0.13091380934E+04  0.15294330000E+03 0.  0.
<mgrwt>
<rscale>  0 0.69262633E+03</rscale>
<asrwt>0</asrwt>
<pdfrwt beam="1">  1        2 0.86475439E-01 0.79130310E+03</pdfrwt>
<pdfrwt beam="2">  1       -2 0.24121210E+00 0.79130310E+03</pdfrwt>
<totfact> 0.39922004E+00</totfact>
</mgrwt>
</event>
<event>
 4    1  0.7280516E-007  0.1300322E+04  0.7818608E-02  0.9065282E-01
          2   -1    0    0  501    0  0.00000000000E+00  0.00000000000E+00  0.13720623042E+04  0.13720623042E+04  0.25500000000E-02 0. -1.
         -2   -1    0    0    0  501 -0.00000000000E+00 -0.00000000000E+00 -0.14834181436E+04  0.14834181436E+04  0.25500000000E-02 0.  1.
    8880023    1    1    2    0    0  0.11297505026E+03  0.11154652714E+04 -0.80395951217E+03  0.15287861973E+04  0.65864270000E+03 0.  0.
    8880022    1    1    2    0    0 -0.11297505026E+03 -0.11154652714E+04  0.69260367276E+03  0.13266942505E+04  0.15294330000E+03 0.  0.
<mgrwt>
<rscale>  0 0.12559058E+04</rscale>
<asrwt>0</asrwt>
<pdfrwt beam="1">  1        2 0.21108651E+00 0.13003216E+04</pdfrwt>
<pdfrwt beam="2">  1       -2 0.22821818E+00 0.13003216E+04</pdfrwt>
<totfact> 0.12650953E+00</totfact>
</mgrwt>
</event>
<event>
 4    1  0.7280516E-007  0.1277225E+04  0.7818608E-02  0.9085482E-01
         -2   -1    0    0    0  501 -0.00000000000E+00  0.00000000000E+00  0.78998190759E+03  0.78998190760E+03  0.25500000000E-02 0.  1.
          2   -1    0    0  501    0  0.00000000000E+00 -0.00000000000E+00 -0.18763532152E+04  0.18763532152E+04  0.25500000000E-02 0. -1.
    8880023    1    1    2    0    0  0.70545281407E+03 -0.83655774686E+03 -0.30529894351E+03  0.13132060721E+04  0.65864270000E+03 0.  0.
    8880022    1    1    2    0    0 -0.70545281407E+03  0.83655774686E+03 -0.78107236405E+03  0.13531290506E+04  0.15294330000E+03 0.  0.
<mgrwt>
<rscale>  0 0.12317846E+04</rscale>
<asrwt>0</asrwt>
<pdfrwt beam="1">  1        2 0.28866972E+00 0.12772246E+04</pdfrwt>
<pdfrwt beam="2">  1       -2 0.12153568E+00 0.12772246E+04</pdfrwt>
<totfact> 0.38979494E+00</totfact>
</mgrwt>
</event>
<event>
 4    1  0.7280516E-007  0.7216097E+03  0.7818608E-02  0.9917176E-01
         -2   -1    0    0    0  501 -0.00000000000E+00  0.00000000000E+00  0.17822346704E+03  0.17822346706E+03  0.25500000000E-02 0.  1.
          2   -1    0    0  501    0  0.00000000000E+00 -0.00000000000E+00 -0.17633118817E+04  0.17633118817E+04  0.25500000000E-02 0. -1.
    8880023    1    1    2    0    0  0.24910630965E+03  0.15765915813E+03 -0.13622934175E+04  0.15416108216E+04  0.65864270000E+03 0. -1.
    8880022    1    1    2    0    0 -0.24910630965E+03 -0.15765915813E+03 -0.22279499717E+03  0.39992452717E+03  0.15294330000E+03 0.  1.
<mgrwt>
<rscale>  0 0.59436018E+03</rscale>
<asrwt>0</asrwt>
<pdfrwt beam="1">  1        2 0.27127874E+00 0.72160971E+03</pdfrwt>
<pdfrwt beam="2">  1       -2 0.27418996E-01 0.72160971E+03</pdfrwt>
<totfact> 0.11217285E+02</totfact>
</mgrwt>
</event>
<event>
 4    1  0.7280516E-007  0.7600985E+03  0.7818608E-02  0.9804853E-01
         -2   -1    0    0    0  501 -0.00000000000E+00  0.00000000000E+00  0.38130195769E+03  0.38130195770E+03  0.25500000000E-02 0.  1.
          2   -1    0    0  501    0  0.00000000000E+00 -0.00000000000E+00 -0.98488937721E+03  0.98488937722E+03  0.25500000000E-02 0. -1.
    8880023    1    1    2    0    0  0.24259950305E+03  0.29169326748E+03 -0.58061600336E+03  0.95648556226E+03  0.65864270000E+03 0. -1.
    8880022    1    1    2    0    0 -0.24259950305E+03 -0.29169326748E+03 -0.22971416159E+02  0.40970577266E+03  0.15294330000E+03 0.  0.
<mgrwt>
<rscale>  0 0.65102773E+03</rscale>
<asrwt>0</asrwt>
<pdfrwt beam="1">  1        2 0.15152144E+00 0.76009847E+03</pdfrwt>
<pdfrwt beam="2">  1       -2 0.58661840E-01 0.76009847E+03</pdfrwt>
<totfact> 0.70936501E+01</totfact>
</mgrwt>
</event>
<event>
 4    1  0.7280516E-007  0.9776984E+03  0.7818608E-02  0.9411335E-01
         -2   -1    0    0    0  501 -0.00000000000E+00  0.00000000000E+00  0.57752545030E+03  0.57752545031E+03  0.25500000000E-02 0.  1.
          2   -1    0    0  501    0  0.00000000000E+00 -0.00000000000E+00 -0.19647765928E+04  0.19647765928E+04  0.25500000000E-02 0. -1.
    8880023    1    1    2    0    0  0.47982934470E+03 -0.54022929280E+03 -0.15047183528E+04  0.17944557438E+04  0.65864270000E+03 0. -1.
    8880022    1    1    2    0    0 -0.47982934470E+03  0.54022929280E+03  0.11746721036E+03  0.74784629929E+03  0.15294330000E+03 0.  0.
<mgrwt>
<rscale>  0 0.91148721E+03</rscale>
<asrwt>0</asrwt>
<pdfrwt beam="1">  1        2 0.30227332E+00 0.97769837E+03</pdfrwt>
<pdfrwt beam="2">  1       -2 0.88850070E-01 0.97769837E+03</pdfrwt>
<totfact> 0.76361252E+00</totfact>
</mgrwt>
</event>
<event>
 4    1  0.7280516E-007  0.6624355E+03  0.7818608E-02  0.1021789E+00
         -2   -1    0    0    0  501 -0.00000000000E+00  0.00000000000E+00  0.24671781227E+03  0.24671781229E+03  0.25500000000E-02 0.  1.
          2   -1    0    0  501    0  0.00000000000E+00 -0.00000000000E+00 -0.11355867264E+04  0.11355867264E+04  0.25500000000E-02 0. -1.
    8880023    1    1    2    0    0 -0.69797195816E+02 -0.11785734531E+02 -0.98594419247E+03  0.11878159407E+04  0.65864270000E+03 0. -1.
    8880022    1    1    2    0    0  0.69797195816E+02  0.11785734531E+02  0.97075278310E+02  0.19448859801E+03  0.15294330000E+03 0.  0.
<mgrwt>
<rscale>  0 0.47046432E+03</rscale>
<asrwt>0</asrwt>
<pdfrwt beam="1">  1        2 0.17470565E+00 0.66243547E+03</pdfrwt>
<pdfrwt beam="2">  1       -2 0.37956587E-01 0.66243547E+03</pdfrwt>
<totfact> 0.13840212E+02</totfact>
</mgrwt>
</event>
<event>
 4    1  0.7280516E-007  0.6653522E+03  0.7818608E-02  0.1019240E+00
         -2   -1    0    0    0  501 -0.00000000000E+00  0.00000000000E+00  0.31437302996E+03  0.31437302997E+03  0.25500000000E-02 0.  1.
          2   -1    0    0  501    0  0.00000000000E+00 -0.00000000000E+00 -0.29894074372E+04  0.29894074372E+04  0.25500000000E-02 0. -1.
    8880023    1    1    2    0    0 -0.91243514673E+02  0.23621446731E+02 -0.29228908306E+04  0.29976631508E+04  0.65864270000E+03 0. -1.
    8880022    1    1    2    0    0  0.91243514673E+02 -0.23621446731E+02  0.24785642342E+03  0.30611731633E+03  0.15294330000E+03 0.  0.
<mgrwt>
<rscale>  0 0.47961967E+03</rscale>
<asrwt>0</asrwt>
<pdfrwt beam="1">  1        2 0.45990882E+00 0.66535221E+03</pdfrwt>
<pdfrwt beam="2">  1       -2 0.48365084E-01 0.66535221E+03</pdfrwt>
<totfact> 0.77469125E+00</totfact>
</mgrwt>
</event>
<event>
 4    1  0.7280516E-007  0.7909059E+03  0.7818608E-02  0.9730816E-01
         -2   -1    0    0    0  501 -0.00000000000E+00  0.00000000000E+00  0.56551354981E+03  0.56551354982E+03  0.25500000000E-02 0.  1.
          2   -1    0    0  501    0  0.00000000000E+00 -0.00000000000E+00 -0.99669047987E+03  0.99669047988E+03  0.25500000000E-02 0. -1.
    8880023    1    1    2    0    0  0.18476483302E+03  0.39696828919E+03 -0.67358873793E+03  0.10388714359E+04  0.65864270000E+03 0. -1.
    8880022    1    1    2    0    0 -0.18476483302E+03 -0.39696828919E+03  0.24241180787E+03  0.52333259382E+03  0.15294330000E+03 0.  0.
<mgrwt>
<rscale>  0 0.69211308E+03</rscale>
<asrwt>0</asrwt>
<pdfrwt beam="1">  1        2 0.15333700E+00 0.79090586E+03</pdfrwt>
<pdfrwt beam="2">  1       -2 0.87002085E-01 0.79090586E+03</pdfrwt>
<totfact> 0.29271858E+01</totfact>
</mgrwt>
</event>
<event>
 4    1  0.7280516E-007  0.8597704E+03  0.7818608E-02  0.9593972E-01
          2   -1    0    0  501    0  0.00000000000E+00  0.00000000000E+00  0.69056877028E+03  0.69056877029E+03  0.25500000000E-02 0. -1.
         -2   -1    0    0    0  501 -0.00000000000E+00 -0.00000000000E+00 -0.95511418467E+03  0.95511418467E+03  0.25500000000E-02 0.  1.
    8880023    1    1    2    0    0 -0.59012335576E+02 -0.54946564688E+03  0.22832257738E+03  0.88957088445E+03  0.65864270000E+03 0. -1.
    8880022    1    1    2    0    0  0.59012335576E+02  0.54946564688E+03 -0.49286799176E+03  0.75611207051E+03  0.15294330000E+03 0.  0.
<mgrwt>
<rscale>  0 0.77696443E+03</rscale>
<asrwt>0</asrwt>
<pdfrwt beam="1">  1        2 0.10624135E+00 0.85977041E+03</pdfrwt>
<pdfrwt beam="2">  1       -2 0.14694064E+00 0.85977041E+03</pdfrwt>
<totfact> 0.13245890E+01</totfact>
</mgrwt>
</event>
<event>
 4    1  0.7280516E-007  0.8874838E+03  0.7818608E-02  0.9546430E-01
          2   -1    0    0  501    0  0.00000000000E+00  0.00000000000E+00  0.99838367762E+03  0.99838367762E+03  0.25500000000E-02 0. -1.
         -2   -1    0    0    0  501 -0.00000000000E+00 -0.00000000000E+00 -0.56895211335E+03  0.56895211336E+03  0.25500000000E-02 0.  1.
    8880023    1    1    2    0    0  0.13128845610E+03  0.58015572480E+03  0.32046699832E+03  0.94357120929E+03  0.65864270000E+03 0.  0.
    8880022    1    1    2    0    0 -0.13128845610E+03 -0.58015572480E+03  0.10896456594E+03  0.62376458169E+03  0.15294330000E+03 0.  0.
<mgrwt>
<rscale>  0 0.80945570E+03</rscale>
<asrwt>0</asrwt>
<pdfrwt beam="1">  1        2 0.15359749E+00 0.88748382E+03</pdfrwt>
<pdfrwt beam="2">  1       -2 0.87531094E-01 0.88748382E+03</pdfrwt>
<totfact> 0.28554735E+01</totfact>
</mgrwt>
</event>
<event>
 4    1  0.7280516E-007  0.6635138E+03  0.7818608E-02  0.1020814E+00
         -2   -1    0    0    0  501 -0.00000000000E+00  0.00000000000E+00  0.20420670142E+04  0.20420670142E+04  0.25500000000E-02 0.  1.
          2   -1    0    0  501    0  0.00000000000E+00 -0.00000000000E+00 -0.39173615918E+03  0.39173615919E+03  0.25500000000E-02 0. -1.
    8880023    1    1    2    0    0 -0.33892295136E+02  0.72743504706E+02 -0.10345686953E+03  0.67153096374E+03  0.65864270000E+03 0. -1.
    8880022    1    1    2    0    0  0.33892295136E+02 -0.72743504706E+02  0.17537877246E+04  0.17622722097E+04  0.15294330000E+03 0.  0.
<mgrwt>
<rscale>  0 0.47393924E+03</rscale>
<asrwt>0</asrwt>
<pdfrwt beam="1">  1        2 0.60267102E-01 0.66351376E+03</pdfrwt>
<pdfrwt beam="2">  1       -2 0.31416415E+00 0.66351376E+03</pdfrwt>
<totfact> 0.22430794E+00</totfact>
</mgrwt>
</event>
<event>
 4    1  0.7280516E-007  0.7457238E+03  0.7818608E-02  0.9843577E-01
          2   -1    0    0  501    0  0.00000000000E+00  0.00000000000E+00  0.93583584540E+03  0.93583584541E+03  0.25500000000E-02 0. -1.
         -2   -1    0    0    0  501 -0.00000000000E+00 -0.00000000000E+00 -0.45220880362E+03  0.45220880363E+03  0.25500000000E-02 0.  1.
    8880023    1    1    2    0    0  0.14792396340E+03  0.31687895684E+03  0.63301133391E+03  0.97816528632E+03  0.65864270000E+03 0.  0.
    8880022    1    1    2    0    0 -0.14792396340E+03 -0.31687895684E+03 -0.14938429212E+03  0.40987936272E+03  0.15294330000E+03 0.  0.
<mgrwt>
<rscale>  0 0.63075473E+03</rscale>
<asrwt>0</asrwt>
<pdfrwt beam="1">  1        2 0.14397474E+00 0.74572380E+03</pdfrwt>
<pdfrwt beam="2">  1       -2 0.69570585E-01 0.74572380E+03</pdfrwt>
<totfact> 0.53058625E+01</totfact>
</mgrwt>
</event>
<event>
 4    1  0.7280516E-007  0.7042148E+03  0.7818608E-02  0.9980146E-01
          2   -1    0    0  501    0  0.00000000000E+00  0.00000000000E+00  0.14623074926E+04  0.14623074926E+04  0.25500000000E-02 0. -1.
         -2   -1    0    0    0  501 -0.00000000000E+00 -0.00000000000E+00 -0.55224723700E+03  0.55224723700E+03  0.25500000000E-02 0.  1.
    8880023    1    1    2    0    0 -0.22589728718E+03  0.10525523112E+03  0.13287741529E+04  0.15038481319E+04  0.65864270000E+03 0. -1.
    8880022    1    1    2    0    0  0.22589728718E+03 -0.10525523112E+03 -0.41871389737E+03  0.51070659767E+03  0.15294330000E+03 0.  0.
<mgrwt>
<rscale>  0 0.56529423E+03</rscale>
<asrwt>0</asrwt>
<pdfrwt beam="1">  1        2 0.22497038E+00 0.70421478E+03</pdfrwt>
<pdfrwt beam="2">  1       -2 0.84961115E-01 0.70421478E+03</pdfrwt>
<totfact> 0.16557972E+01</totfact>
</mgrwt>
</event>
<event>
 4    1  0.7280516E-007  0.7289452E+03  0.7818608E-02  0.9893405E-01
          2   -1    0    0  501    0  0.00000000000E+00  0.00000000000E+00  0.16786759845E+04  0.16786759845E+04  0.25500000000E-02 0. -1.
         -2   -1    0    0    0  501 -0.00000000000E+00 -0.00000000000E+00 -0.31558017654E+03  0.31558017656E+03  0.25500000000E-02 0.  1.
    8880023    1    1    2    0    0  0.27971433109E+03 -0.13896339653E+03  0.14611860071E+04  0.16329193753E+04  0.65864270000E+03 0.  0.
    8880022    1    1    2    0    0 -0.27971433109E+03  0.13896339653E+03 -0.98090199113E+02  0.36133678580E+03  0.15294330000E+03 0.  0.
<mgrwt>
<rscale>  0 0.60581996E+03</rscale>
<asrwt>0</asrwt>
<pdfrwt beam="1">  1        2 0.25825784E+00 0.72894522E+03</pdfrwt>
<pdfrwt beam="2">  1       -2 0.48550797E-01 0.72894522E+03</pdfrwt>
<totfact> 0.41618992E+01</totfact>
</mgrwt>
</event>
<event>
 4    1  0.7280516E-007  0.8240282E+03  0.7818608E-02  0.9661065E-01
          2   -1    0    0  501    0  0.00000000000E+00  0.00000000000E+00  0.14506710897E+04  0.14506710897E+04  0.25500000000E-02 0. -1.
         -2   -1    0    0    0  501 -0.00000000000E+00 -0.00000000000E+00 -0.45884908239E+03  0.45884908240E+03  0.25500000000E-02 0.  1.
    8880023    1    1    2    0    0 -0.48981695241E+03 -0.72743524455E+02  0.11056047260E+04  0.13789069162E+04  0.65864270000E+03 0.  0.
    8880022    1    1    2    0    0  0.48981695241E+03  0.72743524455E+02 -0.11378271869E+03  0.53061325587E+03  0.15294330000E+03 0.  1.
<mgrwt>
<rscale>  0 0.73383023E+03</rscale>
<asrwt>0</asrwt>
<pdfrwt beam="1">  1        2 0.22318016E+00 0.82402820E+03</pdfrwt>
<pdfrwt beam="2">  1       -2 0.70592168E-01 0.82402820E+03</pdfrwt>
<totfact> 0.25063301E+01</totfact>
</mgrwt>
</event>
<event>
 4    1  0.7280516E-007  0.8892574E+03  0.7818608E-02  0.9543502E-01
         -2   -1    0    0    0  501 -0.00000000000E+00  0.00000000000E+00  0.37808846418E+03  0.37808846418E+03  0.25500000000E-02 0.  1.
          2   -1    0    0  501    0  0.00000000000E+00 -0.00000000000E+00 -0.28158154648E+04  0.28158154648E+04  0.25500000000E-02 0. -1.
    8880023    1    1    2    0    0 -0.32152638660E+03 -0.50357650613E+03 -0.24185731919E+04  0.25768731062E+04  0.65864270000E+03 0.  0.
    8880022    1    1    2    0    0  0.32152638660E+03  0.50357650613E+03 -0.19153808720E+02  0.61703082274E+03  0.15294330000E+03 0.  0.
<mgrwt>
<rscale>  0 0.81151209E+03</rscale>
<asrwt>0</asrwt>
<pdfrwt beam="1">  1        2 0.43320237E+00 0.88925740E+03</pdfrwt>
<pdfrwt beam="2">  1       -2 0.58167458E-01 0.88925740E+03</pdfrwt>
<totfact> 0.64719467E+00</totfact>
</mgrwt>
</event>
<event>
 4    1  0.7280516E-007  0.7383029E+03  0.7818608E-02  0.9864918E-01
         -2   -1    0    0    0  501 -0.00000000000E+00  0.00000000000E+00  0.26393256498E+03  0.26393256499E+03  0.25500000000E-02 0.  1.
          2   -1    0    0  501    0  0.00000000000E+00 -0.00000000000E+00 -0.19131401931E+04  0.19131401931E+04  0.25500000000E-02 0. -1.
    8880023    1    1    2    0    0 -0.12988685978E+03  0.30726279693E+03 -0.16526626391E+04  0.18100787352E+04  0.65864270000E+03 0. -1.
    8880022    1    1    2    0    0  0.12988685978E+03 -0.30726279693E+03  0.34550109633E+01  0.36699402289E+03  0.15294330000E+03 0.  0.
<mgrwt>
<rscale>  0 0.61992034E+03</rscale>
<asrwt>0</asrwt>
<pdfrwt beam="1">  1        2 0.29432925E+00 0.73830294E+03</pdfrwt>
<pdfrwt beam="2">  1       -2 0.40605011E-01 0.73830294E+03</pdfrwt>
<totfact> 0.44184928E+01</totfact>
</mgrwt>
</event>
<event>
 4    1  0.7280516E-007  0.9828449E+03  0.7818608E-02  0.9404354E-01
         -2   -1    0    0    0  501 -0.00000000000E+00  0.00000000000E+00  0.23236835507E+04  0.23236835507E+04  0.25500000000E-02 0.  1.
          2   -1    0    0  501    0  0.00000000000E+00 -0.00000000000E+00 -0.86455150559E+03  0.86455150559E+03  0.25500000000E-02 0. -1.
    8880023    1    1    2    0    0 -0.50438835502E+02 -0.72775676384E+03 -0.49233799094E+03  0.10992637932E+04  0.65864270000E+03 0.  0.
    8880022    1    1    2    0    0  0.50438835502E+02  0.72775676384E+03  0.19514700360E+04  0.20889712631E+04  0.15294330000E+03 0.  1.
<mgrwt>
<rscale>  0 0.91718233E+03</rscale>
<asrwt>0</asrwt>
<pdfrwt beam="1">  1        2 0.13300793E+00 0.98284495E+03</pdfrwt>
<pdfrwt beam="2">  1       -2 0.35748977E+00 0.98284495E+03</pdfrwt>
<totfact> 0.43927222E-01</totfact>
</mgrwt>
</event>
<event>
 4    1  0.7280516E-007  0.1339999E+04  0.7818608E-02  0.9031766E-01
         -2   -1    0    0    0  501 -0.00000000000E+00  0.00000000000E+00  0.98656713279E+03  0.98656713279E+03  0.25500000000E-02 0.  1.
          2   -1    0    0  501    0  0.00000000000E+00 -0.00000000000E+00 -0.21370415640E+04  0.21370415640E+04  0.25500000000E-02 0. -1.
    8880023    1    1    2    0    0 -0.11655877166E+04  0.56493220551E+02 -0.13810592509E+04  0.19242975523E+04  0.65864270000E+03 0.  0.
    8880022    1    1    2    0    0  0.11655877166E+04 -0.56493220551E+02  0.23058481970E+03  0.11993111445E+04  0.15294330000E+03 0.  0.
<mgrwt>
<rscale>  0 0.12972285E+04</rscale>
<asrwt>0</asrwt>
<pdfrwt beam="1">  1        2 0.32877562E+00 0.13399987E+04</pdfrwt>
<pdfrwt beam="2">  1       -2 0.15177956E+00 0.13399987E+04</pdfrwt>
<totfact> 0.15601697E+00</totfact>
</mgrwt>
</event>
<event>
 4    1  0.7280516E-007  0.7090066E+03  0.7818608E-02  0.9961708E-01
         -2   -1    0    0    0  501 -0.00000000000E+00  0.00000000000E+00  0.14014008424E+03  0.14014008426E+03  0.25500000000E-02 0.  1.
          2   -1    0    0  501    0  0.00000000000E+00 -0.00000000000E+00 -0.20224141172E+04  0.20224141172E+04  0.25500000000E-02 0. -1.
    8880023    1    1    2    0    0  0.26243261470E+03 -0.30465529831E+01 -0.97325425874E+03  0.12041238380E+04  0.65864270000E+03 0.  0.
    8880022    1    1    2    0    0 -0.26243261470E+03  0.30465529831E+01 -0.90901977420E+03  0.95843036348E+03  0.15294330000E+03 0.  1.
<mgrwt>
<rscale>  0 0.57361611E+03</rscale>
<asrwt>0</asrwt>
<pdfrwt beam="1">  1        2 0.31114061E+00 0.70900660E+03</pdfrwt>
<pdfrwt beam="2">  1       -2 0.21560014E-01 0.70900660E+03</pdfrwt>
<totfact> 0.12499931E+02</totfact>
</mgrwt>
</event>
<event>
 4    1  0.7280516E-007  0.1366359E+04  0.7818608E-02  0.9010273E-01
          2   -1    0    0  501    0  0.00000000000E+00  0.00000000000E+00  0.46140576166E+04  0.46140576166E+04  0.25500000000E-02 0. -1.
         -2   -1    0    0    0  501 -0.00000000000E+00 -0.00000000000E+00 -0.73168428132E+03  0.73168428133E+03  0.25500000000E-02 0.  1.
    8880023    1    1    2    0    0 -0.48189084933E+02  0.11961627618E+04  0.93786545394E+02  0.13695742634E+04  0.65864270000E+03 0.  0.
    8880022    1    1    2    0    0  0.48189084933E+02 -0.11961627618E+04  0.37885867899E+04  0.39761676346E+04  0.15294330000E+03 0.  0.
<mgrwt>
<rscale>  0 0.13246106E+04</rscale>
<asrwt>0</asrwt>
<pdfrwt beam="1">  1        2 0.70985504E+00 0.13663593E+04</pdfrwt>
<pdfrwt beam="2">  1       -2 0.11256681E+00 0.13663593E+04</pdfrwt>
<totfact> 0.58840734E-02</totfact>
</mgrwt>
</event>
<event>
 4    1  0.7280516E-007  0.8493604E+03  0.7818608E-02  0.9612777E-01
         -2   -1    0    0    0  501 -0.00000000000E+00  0.00000000000E+00  0.12503557794E+04  0.12503557794E+04  0.25500000000E-02 0.  1.
          2   -1    0    0  501    0  0.00000000000E+00 -0.00000000000E+00 -0.63254633083E+03  0.63254633084E+03  0.25500000000E-02 0. -1.
    8880023    1    1    2    0    0 -0.48574923412E+03  0.22726742002E+03 -0.21914409778E+03  0.87717566115E+03  0.65864270000E+03 0. -1.
    8880022    1    1    2    0    0  0.48574923412E+03 -0.22726742002E+03  0.83695354634E+03  0.10057264491E+04  0.15294330000E+03 0.  1.
<mgrwt>
<rscale>  0 0.76456263E+03</rscale>
<asrwt>0</asrwt>
<pdfrwt beam="1">  1        2 0.97314821E-01 0.84936035E+03</pdfrwt>
<pdfrwt beam="2">  1       -2 0.19236243E+00 0.84936035E+03</pdfrwt>
<totfact> 0.70054990E+00</totfact>
</mgrwt>
</event>
<event>
 4    1  0.7280516E-007  0.9449681E+03  0.7818608E-02  0.9457391E-01
         -2   -1    0    0    0  501 -0.00000000000E+00  0.00000000000E+00  0.95714859677E+03  0.95714859677E+03  0.25500000000E-02 0.  1.
          2   -1    0    0  501    0  0.00000000000E+00 -0.00000000000E+00 -0.14028476473E+04  0.14028476473E+04  0.25500000000E-02 0. -1.
    8880023    1    1    2    0    0 -0.65253249339E+03  0.18263585194E+03 -0.10689343148E+04  0.14267393893E+04  0.65864270000E+03 0. -1.
    8880022    1    1    2    0    0  0.65253249339E+03 -0.18263585194E+03  0.62323526427E+03  0.93325685477E+03  0.15294330000E+03 0.  0.
<mgrwt>
<rscale>  0 0.87499429E+03</rscale>
<asrwt>0</asrwt>
<pdfrwt beam="1">  1        2 0.21582271E+00 0.94496810E+03</pdfrwt>
<pdfrwt beam="2">  1       -2 0.14725363E+00 0.94496810E+03</pdfrwt>
<totfact> 0.45289546E+00</totfact>
</mgrwt>
</event>
<event>
 4    1  0.7280516E-007  0.7918148E+03  0.7818608E-02  0.9728782E-01
         -2   -1    0    0    0  501 -0.00000000000E+00  0.00000000000E+00  0.23081400272E+03  0.23081400273E+03  0.25500000000E-02 0.  1.
          2   -1    0    0  501    0  0.00000000000E+00 -0.00000000000E+00 -0.48832580471E+04  0.48832580471E+04  0.25500000000E-02 0. -1.
    8880023    1    1    2    0    0  0.50326917828E+02 -0.43660927100E+03 -0.45741521929E+04  0.46421804084E+04  0.65864270000E+03 0. -1.
    8880022    1    1    2    0    0 -0.50326917828E+02  0.43660927100E+03 -0.78291851442E+02  0.47189164138E+03  0.15294330000E+03 0.  0.
<mgrwt>
<rscale>  0 0.69328692E+03</rscale>
<asrwt>0</asrwt>
<pdfrwt beam="1">  1        2 0.75127039E+00 0.79181479E+03</pdfrwt>
<pdfrwt beam="2">  1       -2 0.35509850E-01 0.79181479E+03</pdfrwt>
<totfact> 0.41015146E-01</totfact>
</mgrwt>
</event>
<event>
 4    1  0.7280516E-007  0.7256795E+03  0.7818608E-02  0.9903817E-01
         -2   -1    0    0    0  501 -0.00000000000E+00  0.00000000000E+00  0.81871489346E+03  0.81871489347E+03  0.25500000000E-02 0.  1.
          2   -1    0    0  501    0  0.00000000000E+00 -0.00000000000E+00 -0.75827587140E+03  0.75827587141E+03  0.25500000000E-02 0. -1.
    8880023    1    1    2    0    0  0.30387172158E+03 -0.21505672710E+02 -0.52766575255E+03  0.89724125508E+03  0.65864270000E+03 0. -1.
    8880022    1    1    2    0    0 -0.30387172158E+03  0.21505672710E+02  0.58810477461E+03  0.67974950980E+03  0.15294330000E+03 0.  0.
<mgrwt>
<rscale>  0 0.60076655E+03</rscale>
<asrwt>0</asrwt>
<pdfrwt beam="1">  1        2 0.11665783E+00 0.72567949E+03</pdfrwt>
<pdfrwt beam="2">  1       -2 0.12595614E+00 0.72567949E+03</pdfrwt>
<totfact> 0.17683869E+01</totfact>
</mgrwt>
</event>
<event>
 4    1  0.7280516E-007  0.7092158E+03  0.7818608E-02  0.9960925E-01
         -2   -1    0    0    0  501 -0.00000000000E+00  0.00000000000E+00  0.77957672847E+03  0.77957672847E+03  0.25500000000E-02 0.  1.
          2   -1    0    0  501    0  0.00000000000E+00 -0.00000000000E+00 -0.11328284814E+04  0.11328284814E+04  0.25500000000E-02 0. -1.
    8880023    1    1    2    0    0  0.22333417881E+03  0.13891977847E+03 -0.98351103801E+03  0.12125514539E+04  0.65864270000E+03 0. -1.
    8880022    1    1    2    0    0 -0.22333417881E+03 -0.13891977847E+03  0.63025928507E+03  0.69985375595E+03  0.15294330000E+03 0.  0.
<mgrwt>
<rscale>  0 0.57397334E+03</rscale>
<asrwt>0</asrwt>
<pdfrwt beam="1">  1        2 0.17428131E+00 0.70921581E+03</pdfrwt>
<pdfrwt beam="2">  1       -2 0.11993488E+00 0.70921581E+03</pdfrwt>
<totfact> 0.11323247E+01</totfact>
</mgrwt>
</event>
<event>
 4    1  0.7280516E-007  0.7437195E+03  0.7818608E-02  0.9849242E-01
          2   -1    0    0  501    0  0.00000000000E+00  0.00000000000E+00  0.24946730727E+04  0.24946730727E+04  0.25500000000E-02 0. -1.
         -2   -1    0    0    0  501 -0.00000000000E+00 -0.00000000000E+00 -0.29891706886E+03  0.29891706887E+03  0.25500000000E-02 0.  1.
    8880023    1    1    2    0    0 -0.33761123775E+03 -0.72986768774E+02  0.22870690002E+04  0.24049538944E+04  0.65864270000E+03 0. -1.
    8880022    1    1    2    0    0  0.33761123775E+03  0.72986768774E+02 -0.91312996387E+02  0.38863624714E+03  0.15294330000E+03 0.  0.
<mgrwt>
<rscale>  0 0.62785575E+03</rscale>
<asrwt>0</asrwt>
<pdfrwt beam="1">  1        2 0.38379585E+00 0.74371945E+03</pdfrwt>
<pdfrwt beam="2">  1       -2 0.45987242E-01 0.74371945E+03</pdfrwt>
<totfact> 0.16467477E+01</totfact>
</mgrwt>
</event>
<event>
 4    1  0.7280516E-007  0.6592841E+03  0.7818608E-02  0.1024902E+00
          2   -1    0    0  501    0  0.00000000000E+00  0.00000000000E+00  0.80058385066E+03  0.80058385066E+03  0.25500000000E-02 0. -1.
         -2   -1    0    0    0  501 -0.00000000000E+00 -0.00000000000E+00 -0.24325399859E+03  0.24325399860E+03  0.25500000000E-02 0.  1.
    8880023    1    1    2    0    0 -0.82248441095E+01 -0.27886557878E+02  0.59003425464E+03  0.88475755780E+03  0.65864270000E+03 0. -1.
    8880022    1    1    2    0    0  0.82248441095E+01  0.27886557878E+02 -0.32704402571E+02  0.15908029147E+03  0.15294330000E+03 0.  0.
<mgrwt>
<rscale>  0 0.45958328E+03</rscale>
<asrwt>0</asrwt>
<pdfrwt beam="1">  1        2 0.12316675E+00 0.65928409E+03</pdfrwt>
<pdfrwt beam="2">  1       -2 0.37423692E-01 0.65928409E+03</pdfrwt>
<totfact> 0.23482971E+02</totfact>
</mgrwt>
</event>
<event>
 4    1  0.7280516E-007  0.7609514E+03  0.7818608E-02  0.9802651E-01
          2   -1    0    0  501    0  0.00000000000E+00  0.00000000000E+00  0.63547571633E+03  0.63547571633E+03  0.25500000000E-02 0. -1.
         -2   -1    0    0    0  501 -0.00000000000E+00 -0.00000000000E+00 -0.63931333327E+03  0.63931333327E+03  0.25500000000E-02 0.  1.
    8880023    1    1    2    0    0  0.26437957370E+03 -0.27448174028E+03  0.23914187617E+03  0.79764392302E+03  0.65864270000E+03 0.  0.
    8880022    1    1    2    0    0 -0.26437957370E+03  0.27448174028E+03 -0.24297949311E+03  0.47714512658E+03  0.15294330000E+03 0.  0.
<mgrwt>
<rscale>  0 0.65220486E+03</rscale>
<asrwt>0</asrwt>
<pdfrwt beam="1">  1        2 0.97765495E-01 0.76095137E+03</pdfrwt>
<pdfrwt beam="2">  1       -2 0.98355897E-01 0.76095137E+03</pdfrwt>
<totfact> 0.40188087E+01</totfact>
</mgrwt>
</event>
<event>
 4    1  0.7280516E-007  0.7220888E+03  0.7818608E-02  0.9915580E-01
          2   -1    0    0  501    0  0.00000000000E+00  0.00000000000E+00  0.77267958967E+03  0.77267958967E+03  0.25500000000E-02 0. -1.
         -2   -1    0    0    0  501 -0.00000000000E+00 -0.00000000000E+00 -0.55805870472E+03  0.55805870473E+03  0.25500000000E-02 0.  1.
    8880023    1    1    2    0    0  0.10186441442E+03 -0.27789516687E+03  0.51117767580E+03  0.88471176390E+03  0.65864270000E+03 0. -1.
    8880022    1    1    2    0    0 -0.10186441442E+03  0.27789516687E+03 -0.29655679085E+03  0.44602653050E+03  0.15294330000E+03 0.  0.
<mgrwt>
<rscale>  0 0.59512101E+03</rscale>
<asrwt>0</asrwt>
<pdfrwt beam="1">  1        2 0.11887378E+00 0.72208884E+03</pdfrwt>
<pdfrwt beam="2">  1       -2 0.85855186E-01 0.72208884E+03</pdfrwt>
<totfact> 0.43153702E+01</totfact>
</mgrwt>
</event>
<event>
 4    1  0.7280516E-007  0.7170317E+03  0.7818608E-02  0.9932761E-01
         -2   -1    0    0    0  501 -0.00000000000E+00  0.00000000000E+00  0.24719106650E+03  0.24719106652E+03  0.25500000000E-02 0.  1.
          2   -1    0    0  501    0  0.00000000000E+00 -0.00000000000E+00 -0.14628515065E+04  0.14628515065E+04  0.25500000000E-02 0. -1.
    8880023    1    1    2    0    0 -0.41217973180E+02 -0.28040209329E+03 -0.11869481037E+04  0.13867156386E+04  0.65864270000E+03 0. -1.
    8880022    1    1    2    0    0  0.41217973180E+02  0.28040209329E+03 -0.28712336289E+02  0.32332693440E+03  0.15294330000E+03 0.  0.
<mgrwt>
<rscale>  0 0.58699505E+03</rscale>
<asrwt>0</asrwt>
<pdfrwt beam="1">  1        2 0.22505407E+00 0.71703170E+03</pdfrwt>
<pdfrwt beam="2">  1       -2 0.38029396E-01 0.71703170E+03</pdfrwt>
<totfact> 0.88848507E+01</totfact>
</mgrwt>
</event>
<event>
 4    1  0.7280516E-007  0.7264666E+03  0.7818608E-02  0.9901283E-01
          2   -1    0    0  501    0  0.00000000000E+00  0.00000000000E+00  0.27080220483E+04  0.27080220483E+04  0.25500000000E-02 0. -1.
         -2   -1    0    0    0  501 -0.00000000000E+00 -0.00000000000E+00 -0.29160795437E+03  0.29160795438E+03  0.25500000000E-02 0.  1.
    8880023    1    1    2    0    0 -0.25252537943E+03 -0.17370805120E+03  0.25350790441E+04  0.26371157578E+04  0.65864270000E+03 0.  0.
    8880022    1    1    2    0    0  0.25252537943E+03  0.17370805120E+03 -0.11866495014E+03  0.36251424484E+03  0.15294330000E+03 0.  0.
<mgrwt>
<rscale>  0 0.60199141E+03</rscale>
<asrwt>0</asrwt>
<pdfrwt beam="1">  1        2 0.41661877E+00 0.72646663E+03</pdfrwt>
<pdfrwt beam="2">  1       -2 0.44862763E-01 0.72646663E+03</pdfrwt>
<totfact> 0.13087307E+01</totfact>
</mgrwt>
</event>
<event>
 4    1  0.7280516E-007  0.7697327E+03  0.7818608E-02  0.9780532E-01
          2   -1    0    0  501    0  0.00000000000E+00  0.00000000000E+00  0.14214978344E+04  0.14214978344E+04  0.25500000000E-02 0. -1.
         -2   -1    0    0    0  501 -0.00000000000E+00 -0.00000000000E+00 -0.37450395128E+03  0.37450395129E+03  0.25500000000E-02 0.  1.
    8880023    1    1    2    0    0 -0.19850549998E+03 -0.34536037641E+03  0.12467715087E+03  0.77976459353E+03  0.65864270000E+03 0.  0.
    8880022    1    1    2    0    0  0.19850549998E+03  0.34536037641E+03  0.92231673226E+03  0.10162371922E+04  0.15294330000E+03 0. -1.
<mgrwt>
<rscale>  0 0.66417835E+03</rscale>
<asrwt>0</asrwt>
<pdfrwt beam="1">  1        2 0.21869198E+00 0.76973270E+03</pdfrwt>
<pdfrwt beam="2">  1       -2 0.57615992E-01 0.76973270E+03</pdfrwt>
<totfact> 0.40443615E+01</totfact>
</mgrwt>
</event>
<event>
 4    1  0.7280516E-007  0.6957399E+03  0.7818608E-02  0.1001535E+00
          2   -1    0    0  501    0  0.00000000000E+00  0.00000000000E+00  0.12119860768E+04  0.12119860768E+04  0.25500000000E-02 0. -1.
         -2   -1    0    0    0  501 -0.00000000000E+00 -0.00000000000E+00 -0.43128503339E+03  0.43128503340E+03  0.25500000000E-02 0.  1.
    8880023    1    1    2    0    0  0.14642996551E+03  0.16971188808E+03  0.10508973743E+04  0.12603330343E+04  0.65864270000E+03 0.  0.
    8880022    1    1    2    0    0 -0.14642996551E+03 -0.16971188808E+03 -0.27019633088E+03  0.38293807592E+03  0.15294330000E+03 0.  1.
<mgrwt>
<rscale>  0 0.54982074E+03</rscale>
<asrwt>0</asrwt>
<pdfrwt beam="1">  1        2 0.18645940E+00 0.69573994E+03</pdfrwt>
<pdfrwt beam="2">  1       -2 0.66351544E-01 0.69573994E+03</pdfrwt>
<totfact> 0.39845391E+01</totfact>
</mgrwt>
</event>
<event>
 4    1  0.7280516E-007  0.6824789E+03  0.7818608E-02  0.1007955E+00
          2   -1    0    0  501    0  0.00000000000E+00  0.00000000000E+00  0.31434203907E+04  0.31434203907E+04  0.25500000000E-02 0. -1.
         -2   -1    0    0    0  501 -0.00000000000E+00 -0.00000000000E+00 -0.11423132481E+03  0.11423132484E+03  0.25500000000E-02 0.  1.
    8880023    1    1    2    0    0 -0.17814130841E+03  0.15260559034E+02  0.29192199013E+04  0.29979363317E+04  0.65864270000E+03 0. -1.
    8880022    1    1    2    0    0  0.17814130841E+03 -0.15260559034E+02  0.10996916453E+03  0.25971538381E+03  0.15294330000E+03 0.  0.
<mgrwt>
<rscale>  0 0.52295619E+03</rscale>
<asrwt>0</asrwt>
<pdfrwt beam="1">  1        2 0.48360319E+00 0.68247888E+03</pdfrwt>
<pdfrwt beam="2">  1       -2 0.17574048E-01 0.68247888E+03</pdfrwt>
<totfact> 0.40461319E+01</totfact>
</mgrwt>
</event>
<event>
 4    1  0.7280516E-007  0.8483906E+03  0.7818608E-02  0.9614558E-01
          2   -1    0    0  501    0  0.00000000000E+00  0.00000000000E+00  0.22017142496E+04  0.22017142496E+04  0.25500000000E-02 0. -1.
         -2   -1    0    0    0  501 -0.00000000000E+00 -0.00000000000E+00 -0.78976262977E+03  0.78976262978E+03  0.25500000000E-02 0.  1.
    8880023    1    1    2    0    0 -0.53474462411E+03  0.21304316417E+01  0.20057985713E+04  0.21778416991E+04  0.65864270000E+03 0. -1.
    8880022    1    1    2    0    0  0.53474462411E+03 -0.21304316417E+01 -0.59384695145E+03  0.81363518023E+03  0.15294330000E+03 0.  0.
<mgrwt>
<rscale>  0 0.76340111E+03</rscale>
<asrwt>0</asrwt>
<pdfrwt beam="1">  1        2 0.33872526E+00 0.84839057E+03</pdfrwt>
<pdfrwt beam="2">  1       -2 0.12150194E+00 0.84839057E+03</pdfrwt>
<totfact> 0.27172995E+00</totfact>
</mgrwt>
</event>
<event>
 4    1  0.7280516E-007  0.7171193E+03  0.7818608E-02  0.9932457E-01
         -2   -1    0    0    0  501 -0.00000000000E+00  0.00000000000E+00  0.37093500291E+03  0.37093500292E+03  0.25500000000E-02 0.  1.
          2   -1    0    0  501    0  0.00000000000E+00 -0.00000000000E+00 -0.10902469731E+04  0.10902469731E+04  0.25500000000E-02 0. -1.
    8880023    1    1    2    0    0  0.20671920364E+02 -0.28288246540E+03 -0.85118067318E+03  0.11129998033E+04  0.65864270000E+03 0.  1.
    8880022    1    1    2    0    0 -0.20671920364E+02  0.28288246540E+03  0.13186870302E+03  0.34818217268E+03  0.15294330000E+03 0.  0.
<mgrwt>
<rscale>  0 0.58713760E+03</rscale>
<asrwt>0</asrwt>
<pdfrwt beam="1">  1        2 0.16773030E+00 0.71711925E+03</pdfrwt>
<pdfrwt beam="2">  1       -2 0.57066924E-01 0.71711925E+03</pdfrwt>
<totfact> 0.64775280E+01</totfact>
</mgrwt>
</event>
<event>
 4    1  0.7280516E-007  0.6764777E+03  0.7818608E-02  0.1011391E+00
         -2   -1    0    0    0  501 -0.00000000000E+00  0.00000000000E+00  0.53786305959E+03  0.53786305960E+03  0.25500000000E-02 0.  1.
          2   -1    0    0  501    0  0.00000000000E+00 -0.00000000000E+00 -0.11896342493E+04  0.11896342493E+04  0.25500000000E-02 0. -1.
    8880023    1    1    2    0    0  0.12164451733E+03 -0.94944830318E+02 -0.10643924179E+04  0.12611714138E+04  0.65864270000E+03 0. -1.
    8880022    1    1    2    0    0 -0.12164451733E+03  0.94944830318E+02  0.41262122824E+03  0.46632589507E+03  0.15294330000E+03 0.  0.
<mgrwt>
<rscale>  0 0.50925696E+03</rscale>
<asrwt>0</asrwt>
<pdfrwt beam="1">  1        2 0.18302065E+00 0.67647773E+03</pdfrwt>
<pdfrwt beam="2">  1       -2 0.82748163E-01 0.67647773E+03</pdfrwt>
<totfact> 0.25277630E+01</totfact>
</mgrwt>
</event>
<event>
 4    1  0.7280516E-007  0.6953292E+03  0.7818608E-02  0.1001716E+00
         -2   -1    0    0    0  501 -0.00000000000E+00  0.00000000000E+00  0.11018564478E+04  0.11018564478E+04  0.25500000000E-02 0.  1.
          2   -1    0    0  501    0  0.00000000000E+00 -0.00000000000E+00 -0.92979880386E+03  0.92979880386E+03  0.25500000000E-02 0. -1.
    8880023    1    1    2    0    0 -0.11300844811E+03  0.19209766077E+03 -0.77826561061E+03  0.10436378623E+04  0.65864270000E+03 0.  0.
    8880022    1    1    2    0    0  0.11300844811E+03 -0.19209766077E+03  0.95032325456E+03  0.98801738942E+03  0.15294330000E+03 0.  0.
<mgrwt>
<rscale>  0 0.54904231E+03</rscale>
<asrwt>0</asrwt>
<pdfrwt beam="1">  1        2 0.14304597E+00 0.69532915E+03</pdfrwt>
<pdfrwt beam="2">  1       -2 0.16951638E+00 0.69532915E+03</pdfrwt>
<totfact> 0.61768083E+00</totfact>
</mgrwt>
</event>
<event>
 4    1  0.7280516E-007  0.1134273E+04  0.7818608E-02  0.9223823E-01
          2   -1    0    0  501    0  0.00000000000E+00  0.00000000000E+00  0.14975349973E+04  0.14975349973E+04  0.25500000000E-02 0. -1.
         -2   -1    0    0    0  501 -0.00000000000E+00 -0.00000000000E+00 -0.14303166895E+04  0.14303166895E+04  0.25500000000E-02 0.  1.
    8880023    1    1    2    0    0  0.76878387712E+03 -0.51160242962E+03  0.10677207315E+04  0.15577559059E+04  0.65864270000E+03 0. -1.
    8880022    1    1    2    0    0 -0.76878387712E+03  0.51160242962E+03 -0.10005024238E+04  0.13700957809E+04  0.15294330000E+03 0.  0.
<mgrwt>
<rscale>  0 0.10810880E+04</rscale>
<asrwt>0</asrwt>
<pdfrwt beam="1">  1        2 0.23039000E+00 0.11342733E+04</pdfrwt>
<pdfrwt beam="2">  1       -2 0.22004872E+00 0.11342733E+04</pdfrwt>
<totfact> 0.12299438E+00</totfact>
</mgrwt>
</event>
<event>
 4    1  0.7280516E-007  0.8148068E+03  0.7818608E-02  0.9679650E-01
          2   -1    0    0  501    0  0.00000000000E+00  0.00000000000E+00  0.72845577869E+03  0.72845577870E+03  0.25500000000E-02 0. -1.
         -2   -1    0    0    0  501 -0.00000000000E+00 -0.00000000000E+00 -0.13673988457E+04  0.13673988457E+04  0.25500000000E-02 0.  1.
    8880023    1    1    2    0    0  0.46066975955E+03 -0.13372829258E+03  0.42486120132E+03  0.91892172150E+03  0.65864270000E+03 0. -1.
    8880022    1    1    2    0    0 -0.46066975955E+03  0.13372829258E+03 -0.10638042684E+04  0.11769329029E+04  0.15294330000E+03 0.  0.
<mgrwt>
<rscale>  0 0.72241442E+03</rscale>
<asrwt>0</asrwt>
<pdfrwt beam="1">  1        2 0.11207012E+00 0.81480678E+03</pdfrwt>
<pdfrwt beam="2">  1       -2 0.21036905E+00 0.81480678E+03</pdfrwt>
<totfact> 0.44989473E+00</totfact>
</mgrwt>
</event>
<event>
 4    1  0.7280516E-007  0.7750956E+03  0.7818608E-02  0.9767486E-01
         -2   -1    0    0    0  501 -0.00000000000E+00  0.00000000000E+00  0.79607038057E+03  0.79607038057E+03  0.25500000000E-02 0.  1.
          2   -1    0    0  501    0  0.00000000000E+00 -0.00000000000E+00 -0.16164297410E+04  0.16164297410E+04  0.25500000000E-02 0. -1.
    8880023    1    1    2    0    0  0.17580678998E+03  0.36885628449E+03 -0.14513535325E+04  0.16453571857E+04  0.65864270000E+03 0. -1.
    8880022    1    1    2    0    0 -0.17580678998E+03 -0.36885628449E+03  0.63099417201E+03  0.76714293592E+03  0.15294330000E+03 0.  0.
<mgrwt>
<rscale>  0 0.67136993E+03</rscale>
<asrwt>0</asrwt>
<pdfrwt beam="1">  1        2 0.24868150E+00 0.77509560E+03</pdfrwt>
<pdfrwt beam="2">  1       -2 0.12247237E+00 0.77509560E+03</pdfrwt>
<totfact> 0.56408435E+00</totfact>
</mgrwt>
</event>
<event>
 4    1  0.7280516E-007  0.7729392E+03  0.7818608E-02  0.9772692E-01
         -2   -1    0    0    0  501 -0.00000000000E+00  0.00000000000E+00  0.57708425986E+03  0.57708425986E+03  0.25500000000E-02 0.  1.
          2   -1    0    0  501    0  0.00000000000E+00 -0.00000000000E+00 -0.11458051847E+04  0.11458051847E+04  0.25500000000E-02 0. -1.
    8880023    1    1    2    0    0  0.32226355023E+03 -0.24448103122E+03 -0.89396314241E+03  0.11817804689E+04  0.65864270000E+03 0.  0.
    8880022    1    1    2    0    0 -0.32226355023E+03  0.24448103122E+03  0.32524221757E+03  0.54110897566E+03  0.15294330000E+03 0.  0.
<mgrwt>
<rscale>  0 0.66848853E+03</rscale>
<asrwt>0</asrwt>
<pdfrwt beam="1">  1        2 0.17627772E+00 0.77293918E+03</pdfrwt>
<pdfrwt beam="2">  1       -2 0.88782194E-01 0.77293918E+03</pdfrwt>
<totfact> 0.22622176E+01</totfact>
</mgrwt>
</event>
<event>
 4    1  0.7280516E-007  0.8545143E+03  0.7818608E-02  0.9603397E-01
         -2   -1    0    0    0  501 -0.00000000000E+00  0.00000000000E+00  0.10916667701E+04  0.10916667701E+04  0.25500000000E-02 0.  1.
          2   -1    0    0  501    0  0.00000000000E+00 -0.00000000000E+00 -0.77375461240E+03  0.77375461240E+03  0.25500000000E-02 0. -1.
    8880023    1    1    2    0    0  0.64995604968E+01  0.54437318196E+03 -0.40662532510E+03  0.94632910068E+03  0.65864270000E+03 0.  0.
    8880022    1    1    2    0    0 -0.64995604968E+01 -0.54437318196E+03  0.72453748283E+03  0.91909228186E+03  0.15294330000E+03 0.  0.
<mgrwt>
<rscale>  0 0.77071751E+03</rscale>
<asrwt>0</asrwt>
<pdfrwt beam="1">  1        2 0.11903917E+00 0.85451425E+03</pdfrwt>
<pdfrwt beam="2">  1       -2 0.16794873E+00 0.85451425E+03</pdfrwt>
<totfact> 0.79827395E+00</totfact>
</mgrwt>
</event>
<event>
 4    1  0.7280516E-007  0.8817998E+03  0.7818608E-02  0.9555904E-01
         -2   -1    0    0    0  501 -0.00000000000E+00  0.00000000000E+00  0.54132466945E+03  0.54132466945E+03  0.25500000000E-02 0.  1.
          2   -1    0    0  501    0  0.00000000000E+00 -0.00000000000E+00 -0.17526937361E+04  0.17526937361E+04  0.25500000000E-02 0. -1.
    8880023    1    1    2    0    0 -0.46480213056E+03  0.35737899825E+03 -0.14042244061E+04  0.16581366524E+04  0.65864270000E+03 0. -1.
    8880022    1    1    2    0    0  0.46480213056E+03 -0.35737899825E+03  0.19285533951E+03  0.63588175313E+03  0.15294330000E+03 0.  0.
<mgrwt>
<rscale>  0 0.80284797E+03</rscale>
<asrwt>0</asrwt>
<pdfrwt beam="1">  1        2 0.26964519E+00 0.88179985E+03</pdfrwt>
<pdfrwt beam="2">  1       -2 0.83280719E-01 0.88179985E+03</pdfrwt>
<totfact> 0.11711574E+01</totfact>
</mgrwt>
</event>
<event>
 4    1  0.7280516E-007  0.8044002E+03  0.7818608E-02  0.9701361E-01
         -2   -1    0    0    0  501 -0.00000000000E+00  0.00000000000E+00  0.11492804835E+04  0.11492804835E+04  0.25500000000E-02 0.  1.
          2   -1    0    0  501    0  0.00000000000E+00 -0.00000000000E+00 -0.44781228245E+03  0.44781228245E+03  0.25500000000E-02 0. -1.
    8880023    1    1    2    0    0 -0.18682456198E+03  0.42231047097E+03  0.80716848479E+02  0.80843983495E+03  0.65864270000E+03 0.  0.
    8880022    1    1    2    0    0  0.18682456198E+03 -0.42231047097E+03  0.62075135258E+03  0.78865293101E+03  0.15294330000E+03 0.  0.
<mgrwt>
<rscale>  0 0.70935795E+03</rscale>
<asrwt>0</asrwt>
<pdfrwt beam="1">  1        2 0.68894198E-01 0.80440025E+03</pdfrwt>
<pdfrwt beam="2">  1       -2 0.17681238E+00 0.80440025E+03</pdfrwt>
<totfact> 0.13488292E+01</totfact>
</mgrwt>
</event>
<event>
 4    1  0.7280516E-007  0.7185879E+03  0.7818608E-02  0.9927393E-01
          2   -1    0    0  501    0  0.00000000000E+00  0.00000000000E+00  0.28531460035E+04  0.28531460035E+04  0.25500000000E-02 0. -1.
         -2   -1    0    0    0  501 -0.00000000000E+00 -0.00000000000E+00 -0.36611797837E+03  0.36611797837E+03  0.25500000000E-02 0.  1.
    8880023    1    1    2    0    0 -0.22444368579E+03 -0.17939717322E+03  0.27236483663E+04  0.28168473411E+04  0.65864270000E+03 0. -1.
    8880022    1    1    2    0    0  0.22444368579E+03  0.17939717322E+03 -0.23662034118E+03  0.40241664071E+03  0.15294330000E+03 0.  0.
<mgrwt>
<rscale>  0 0.58951860E+03</rscale>
<asrwt>0</asrwt>
<pdfrwt beam="1">  1        2 0.43894555E+00 0.71858787E+03</pdfrwt>
<pdfrwt beam="2">  1       -2 0.56325841E-01 0.71858787E+03</pdfrwt>
<totfact> 0.67721442E+00</totfact>
</mgrwt>
</event>
<event>
 4    1  0.7280516E-007  0.7887102E+03  0.7818608E-02  0.9735761E-01
          2   -1    0    0  501    0  0.00000000000E+00  0.00000000000E+00  0.10960849918E+04  0.10960849918E+04  0.25500000000E-02 0. -1.
         -2   -1    0    0    0  501 -0.00000000000E+00 -0.00000000000E+00 -0.61849729033E+03  0.61849729033E+03  0.25500000000E-02 0.  1.
    8880023    1    1    2    0    0 -0.31018314890E+03 -0.30338096051E+03  0.82253584445E+03  0.11395740497E+04  0.65864270000E+03 0.  0.
    8880022    1    1    2    0    0  0.31018314890E+03  0.30338096051E+03 -0.34494814295E+03  0.57500823247E+03  0.15294330000E+03 0.  0.
<mgrwt>
<rscale>  0 0.68926966E+03</rscale>
<asrwt>0</asrwt>
<pdfrwt beam="1">  1        2 0.16862846E+00 0.78871021E+03</pdfrwt>
<pdfrwt beam="2">  1       -2 0.95153430E-01 0.78871021E+03</pdfrwt>
<totfact> 0.20617025E+01</totfact>
</mgrwt>
</event>
<event>
 4    1  0.7280516E-007  0.6605779E+03  0.7818608E-02  0.1023572E+00
          2   -1    0    0  501    0  0.00000000000E+00  0.00000000000E+00  0.31269599115E+04  0.31269599115E+04  0.25500000000E-02 0. -1.
         -2   -1    0    0    0  501 -0.00000000000E+00 -0.00000000000E+00 -0.18993350348E+03  0.18993350350E+03  0.25500000000E-02 0.  1.
    8880023    1    1    2    0    0  0.44466536992E+02 -0.23992377287E+02  0.30496362214E+04  0.31203596261E+04  0.65864270000E+03 0. -1.
    8880022    1    1    2    0    0 -0.44466536992E+02  0.23992377287E+02 -0.11260981341E+03  0.19653378888E+03  0.15294330000E+03 0.  0.
<mgrwt>
<rscale>  0 0.46419323E+03</rscale>
<asrwt>0</asrwt>
<pdfrwt beam="1">  1        2 0.48107075E+00 0.66057786E+03</pdfrwt>
<pdfrwt beam="2">  1       -2 0.29220539E-01 0.66057786E+03</pdfrwt>
<totfact> 0.16845042E+01</totfact>
</mgrwt>
</event>
<event>
 4    1  0.7280516E-007  0.1023813E+04  0.7818608E-02  0.9351045E-01
          2   -1    0    0  501    0  0.00000000000E+00  0.00000000000E+00  0.18048663047E+04  0.18048663047E+04  0.25500000000E-02 0. -1.
         -2   -1    0    0    0  501 -0.00000000000E+00 -0.00000000000E+00 -0.64477636803E+03  0.64477636804E+03  0.25500000000E-02 0.  1.
    8880023    1    1    2    0    0  0.11590314449E+03 -0.77520908130E+03 -0.20846596876E+02  0.10240251196E+04  0.65864270000E+03 0.  1.
    8880022    1    1    2    0    0 -0.11590314449E+03  0.77520908130E+03  0.11809365335E+04  0.14256175532E+04  0.15294330000E+03 0.  0.
<mgrwt>
<rscale>  0 0.96216339E+03</rscale>
<asrwt>0</asrwt>
<pdfrwt beam="1">  1        2 0.27767173E+00 0.10238129E+04</pdfrwt>
<pdfrwt beam="2">  1       -2 0.99196367E-01 0.10238129E+04</pdfrwt>
<totfact> 0.71879314E+00</totfact>
</mgrwt>
</event>
<event>
 4    1  0.7280516E-007  0.6980153E+03  0.7818608E-02  0.1000554E+00
          2   -1    0    0  501    0  0.00000000000E+00  0.00000000000E+00  0.26753528254E+04  0.26753528254E+04  0.25500000000E-02 0. -1.
         -2   -1    0    0    0  501 -0.00000000000E+00 -0.00000000000E+00 -0.95424216087E+02  0.95424216121E+02  0.25500000000E-02 0.  1.
    8880023    1    1    2    0    0 -0.16547294024E+03  0.16135030072E+03  0.21387513200E+04  0.22497739061E+04  0.65864270000E+03 0.  0.
    8880022    1    1    2    0    0  0.16547294024E+03 -0.16135030072E+03  0.44117728925E+03  0.52100313537E+03  0.15294330000E+03 0. -1.
<mgrwt>
<rscale>  0 0.55408161E+03</rscale>
<asrwt>0</asrwt>
<pdfrwt beam="1">  1        2 0.41159274E+00 0.69801534E+03</pdfrwt>
<pdfrwt beam="2">  1       -2 0.14680649E-01 0.69801534E+03</pdfrwt>
<totfact> 0.10482646E+02</totfact>
</mgrwt>
</event>
<event>
 4    1  0.7280516E-007  0.7073476E+03  0.7818608E-02  0.9967985E-01
          2   -1    0    0  501    0  0.00000000000E+00  0.00000000000E+00  0.14185933033E+04  0.14185933033E+04  0.25500000000E-02 0. -1.
         -2   -1    0    0    0  501 -0.00000000000E+00 -0.00000000000E+00 -0.17958777390E+03  0.17958777392E+03  0.25500000000E-02 0.  1.
    8880023    1    1    2    0    0 -0.66577530220E+02 -0.24919437349E+03  0.82009629585E+03  0.10830044063E+04  0.65864270000E+03 0.  0.
    8880022    1    1    2    0    0  0.66577530220E+02  0.24919437349E+03  0.41890923357E+03  0.51517667095E+03  0.15294330000E+03 0. -1.
<mgrwt>
<rscale>  0 0.57076579E+03</rscale>
<asrwt>0</asrwt>
<pdfrwt beam="1">  1        2 0.21824513E+00 0.70734759E+03</pdfrwt>
<pdfrwt beam="2">  1       -2 0.27628888E-01 0.70734759E+03</pdfrwt>
<totfact> 0.17162285E+02</totfact>
</mgrwt>
</event>
<event>
 4    1  0.7280516E-007  0.6641552E+03  0.7818608E-02  0.1020253E+00
          2   -1    0    0  501    0  0.00000000000E+00  0.00000000000E+00  0.97928377901E+03  0.97928377902E+03  0.25500000000E-02 0. -1.
         -2   -1    0    0    0  501 -0.00000000000E+00 -0.00000000000E+00 -0.27362540176E+03  0.27362540177E+03  0.25500000000E-02 0.  1.
    8880023    1    1    2    0    0  0.70335591813E+02  0.48423168817E+02  0.81120084676E+03  0.10484030326E+04  0.65864270000E+03 0. -1.
    8880022    1    1    2    0    0 -0.70335591813E+02 -0.48423168817E+02 -0.10554246951E+03  0.20450614817E+03  0.15294330000E+03 0.  0.
<mgrwt>
<rscale>  0 0.47595443E+03</rscale>
<asrwt>0</asrwt>
<pdfrwt beam="1">  1        2 0.15065904E+00 0.66415518E+03</pdfrwt>
<pdfrwt beam="2">  1       -2 0.42096216E-01 0.66415518E+03</pdfrwt>
<totfact> 0.14142871E+02</totfact>
</mgrwt>
</event>
<event>
 4    1  0.7280516E-007  0.7303564E+03  0.7818608E-02  0.9888985E-01
          2   -1    0    0  501    0  0.00000000000E+00  0.00000000000E+00  0.15607050103E+04  0.15607050103E+04  0.25500000000E-02 0. -1.
         -2   -1    0    0    0  501 -0.00000000000E+00 -0.00000000000E+00 -0.46672859948E+03  0.46672859949E+03  0.25500000000E-02 0.  1.
    8880023    1    1    2    0    0 -0.31530414600E+03  0.13912663036E+02  0.13888816446E+04  0.15692076649E+04  0.65864270000E+03 0.  0.
    8880022    1    1    2    0    0  0.31530414600E+03 -0.13912663036E+02 -0.29490523374E+03  0.45822594490E+03  0.15294330000E+03 0.  0.
<mgrwt>
<rscale>  0 0.60798115E+03</rscale>
<asrwt>0</asrwt>
<pdfrwt beam="1">  1        2 0.24010847E+00 0.73035640E+03</pdfrwt>
<pdfrwt beam="2">  1       -2 0.71804399E-01 0.73035640E+03</pdfrwt>
<totfact> 0.21193075E+01</totfact>
</mgrwt>
</event>
<event>
 4    1  0.7280516E-007  0.9397071E+03  0.7818608E-02  0.9465081E-01
         -2   -1    0    0    0  501 -0.00000000000E+00  0.00000000000E+00  0.55296941018E+03  0.55296941018E+03  0.25500000000E-02 0.  1.
          2   -1    0    0  501    0  0.00000000000E+00 -0.00000000000E+00 -0.17714990398E+04  0.17714990398E+04  0.25500000000E-02 0. -1.
    8880023    1    1    2    0    0 -0.86727151178E+02  0.66461834516E+03 -0.13295164044E+04  0.16280857530E+04  0.65864270000E+03 0.  0.
    8880022    1    1    2    0    0  0.86727151178E+02 -0.66461834516E+03  0.11098677471E+03  0.69638269698E+03  0.15294330000E+03 0.  0.
<mgrwt>
<rscale>  0 0.86907972E+03</rscale>
<asrwt>0</asrwt>
<pdfrwt beam="1">  1        2 0.27253831E+00 0.93970706E+03</pdfrwt>
<pdfrwt beam="2">  1       -2 0.85072218E-01 0.93970706E+03</pdfrwt>
<totfact> 0.10822543E+01</totfact>
</mgrwt>
</event>
<event>
 4    1  0.7280516E-007  0.7788728E+03  0.7818608E-02  0.9758491E-01
          2   -1    0    0  501    0  0.00000000000E+00  0.00000000000E+00  0.35249259930E+04  0.35249259930E+04  0.25500000000E-02 0. -1.
         -2   -1    0    0    0  501 -0.00000000000E+00 -0.00000000000E+00 -0.12955216799E+03  0.12955216801E+03  0.25500000000E-02 0.  1.
    8880023    1    1    2    0    0  0.15936964879E+03  0.38397131364E+03  0.28356643437E+04  0.29406861667E+04  0.65864270000E+03 0. -1.
    8880022    1    1    2    0    0 -0.15936964879E+03 -0.38397131364E+03  0.55970948132E+03  0.71379199431E+03  0.15294330000E+03 0.  1.
<mgrwt>
<rscale>  0 0.67638507E+03</rscale>
<asrwt>0</asrwt>
<pdfrwt beam="1">  1        2 0.54229632E+00 0.77887281E+03</pdfrwt>
<pdfrwt beam="2">  1       -2 0.19931102E-01 0.77887281E+03</pdfrwt>
<totfact> 0.17983864E+01</totfact>
</mgrwt>
</event>
<event>
 4    1  0.7280516E-007  0.9192064E+03  0.7818608E-02  0.9495877E-01
         -2   -1    0    0    0  501 -0.00000000000E+00  0.00000000000E+00  0.92410841487E+03  0.92410841487E+03  0.25500000000E-02 0.  1.
          2   -1    0    0  501    0  0.00000000000E+00 -0.00000000000E+00 -0.12115239794E+04  0.12115239794E+04  0.25500000000E-02 0. -1.
    8880023    1    1    2    0    0  0.61361457750E+03  0.18603055620E+03 -0.86276496728E+03  0.12606759348E+04  0.65864270000E+03 0. -1.
    8880022    1    1    2    0    0 -0.61361457750E+03 -0.18603055620E+03  0.57534940280E+03  0.87495645942E+03  0.15294330000E+03 0.  1.
<mgrwt>
<rscale>  0 0.84588483E+03</rscale>
<asrwt>0</asrwt>
<pdfrwt beam="1">  1        2 0.18638831E+00 0.91920641E+03</pdfrwt>
<pdfrwt beam="2">  1       -2 0.14217052E+00 0.91920641E+03</pdfrwt>
<totfact> 0.64331968E+00</totfact>
</mgrwt>
</event>
<event>
 4    1  0.7280516E-007  0.9065514E+03  0.7818608E-02  0.9515595E-01
         -2   -1    0    0    0  501 -0.00000000000E+00  0.00000000000E+00  0.18240872116E+03  0.18240872118E+03  0.25500000000E-02 0.  1.
          2   -1    0    0  501    0  0.00000000000E+00 -0.00000000000E+00 -0.34454317962E+04  0.34454317962E+04  0.25500000000E-02 0. -1.
    8880023    1    1    2    0    0 -0.15218951007E+03 -0.60403934760E+03 -0.22848349185E+04  0.24581102481E+04  0.65864270000E+03 0.  0.
    8880022    1    1    2    0    0  0.15218951007E+03  0.60403934760E+03 -0.97818815648E+03  0.11697302693E+04  0.15294330000E+03 0.  0.
<mgrwt>
<rscale>  0 0.83143743E+03</rscale>
<asrwt>0</asrwt>
<pdfrwt beam="1">  1        2 0.53006638E+00 0.90655137E+03</pdfrwt>
<pdfrwt beam="2">  1       -2 0.28062883E-01 0.90655137E+03</pdfrwt>
<totfact> 0.10799547E+01</totfact>
</mgrwt>
</event>
<event>
 4    1  0.7280516E-007  0.6996126E+03  0.7818608E-02  0.9998812E-01
          2   -1    0    0  501    0  0.00000000000E+00  0.00000000000E+00  0.14640246102E+04  0.14640246102E+04  0.25500000000E-02 0. -1.
         -2   -1    0    0    0  501 -0.00000000000E+00 -0.00000000000E+00 -0.16660495382E+03  0.16660495384E+03  0.25500000000E-02 0.  1.
    8880023    1    1    2    0    0 -0.19557009032E+03 -0.13190869618E+03  0.10093686872E+04  0.12281217030E+04  0.65864270000E+03 0.  0.
    8880022    1    1    2    0    0  0.19557009032E+03  0.13190869618E+03  0.28805096912E+03  0.40250786101E+03  0.15294330000E+03 0.  1.
<mgrwt>
<rscale>  0 0.55702353E+03</rscale>
<asrwt>0</asrwt>
<pdfrwt beam="1">  1        2 0.22523456E+00 0.69961259E+03</pdfrwt>
<pdfrwt beam="2">  1       -2 0.25631531E-01 0.69961259E+03</pdfrwt>
<totfact> 0.18564397E+02</totfact>
</mgrwt>
</event>
<event>
 4    1  0.7280516E-007  0.7378536E+03  0.7818608E-02  0.9866244E-01
         -2   -1    0    0    0  501 -0.00000000000E+00  0.00000000000E+00  0.11913327536E+03  0.11913327539E+03  0.25500000000E-02 0.  1.
          2   -1    0    0  501    0  0.00000000000E+00 -0.00000000000E+00 -0.29911267508E+04  0.29911267508E+04  0.25500000000E-02 0. -1.
    8880023    1    1    2    0    0 -0.11909543979E+03 -0.31053834230E+03 -0.24122584115E+04  0.25225817402E+04  0.65864270000E+03 0. -1.
    8880022    1    1    2    0    0  0.11909543979E+03  0.31053834230E+03 -0.45973506396E+03  0.58767828603E+03  0.15294330000E+03 0.  0.
<mgrwt>
<rscale>  0 0.61925510E+03</rscale>
<asrwt>0</asrwt>
<pdfrwt beam="1">  1        2 0.46017329E+00 0.73785364E+03</pdfrwt>
<pdfrwt beam="2">  1       -2 0.18328198E-01 0.73785364E+03</pdfrwt>
<totfact> 0.46343291E+01</totfact>
</mgrwt>
</event>
<event>
 4    1  0.7280516E-007  0.6923884E+03  0.7818608E-02  0.1003037E+00
          2   -1    0    0  501    0  0.00000000000E+00  0.00000000000E+00  0.16578825742E+04  0.16578825742E+04  0.25500000000E-02 0. -1.
         -2   -1    0    0    0  501 -0.00000000000E+00 -0.00000000000E+00 -0.21154533888E+03  0.21154533890E+03  0.25500000000E-02 0.  1.
    8880023    1    1    2    0    0 -0.19679630773E+03 -0.82841485138E+02  0.41955312729E+03  0.80958417183E+03  0.65864270000E+03 0.  1.
    8880022    1    1    2    0    0  0.19679630773E+03  0.82841485138E+02  0.10267841080E+04  0.10598437413E+04  0.15294330000E+03 0.  0.
<mgrwt>
<rscale>  0 0.54338196E+03</rscale>
<asrwt>0</asrwt>
<pdfrwt beam="1">  1        2 0.25505886E+00 0.69238841E+03</pdfrwt>
<pdfrwt beam="2">  1       -2 0.32545437E-01 0.69238841E+03</pdfrwt>
<totfact> 0.93497192E+01</totfact>
</mgrwt>
</event>
<event>
 4    1  0.7280516E-007  0.6780447E+03  0.7818608E-02  0.1010452E+00
         -2   -1    0    0    0  501 -0.00000000000E+00  0.00000000000E+00  0.33909588395E+03  0.33909588396E+03  0.25500000000E-02 0.  1.
          2   -1    0    0  501    0  0.00000000000E+00 -0.00000000000E+00 -0.25344339848E+04  0.25344339848E+04  0.25500000000E-02 0. -1.
    8880023    1    1    2    0    0  0.28797944635E+02 -0.15844591602E+03 -0.24462283509E+04  0.25384597261E+04  0.65864270000E+03 0. -1.
    8880022    1    1    2    0    0 -0.28797944635E+02  0.15844591602E+03  0.25089025006E+03  0.33507014267E+03  0.15294330000E+03 0.  0.
<mgrwt>
<rscale>  0 0.51295389E+03</rscale>
<asrwt>0</asrwt>
<pdfrwt beam="1">  1        2 0.38991291E+00 0.67804472E+03</pdfrwt>
<pdfrwt beam="2">  1       -2 0.52168599E-01 0.67804472E+03</pdfrwt>
<totfact> 0.12245438E+01</totfact>
</mgrwt>
</event>
<event>
 4    1  0.7280516E-007  0.6753814E+03  0.7818608E-02  0.1012067E+00
         -2   -1    0    0    0  501 -0.00000000000E+00  0.00000000000E+00  0.28474608654E+03  0.28474608655E+03  0.25500000000E-02 0.  1.
          2   -1    0    0  501    0  0.00000000000E+00 -0.00000000000E+00 -0.84663102158E+03  0.84663102158E+03  0.25500000000E-02 0. -1.
    8880023    1    1    2    0    0  0.14081272236E+03 -0.50016727209E+02 -0.61237541389E+03  0.91167085595E+03  0.65864270000E+03 0. -1.
    8880022    1    1    2    0    0 -0.14081272236E+03  0.50016727209E+02  0.50490478854E+02  0.21970625218E+03  0.15294330000E+03 0.  0.
<mgrwt>
<rscale>  0 0.50661374E+03</rscale>
<asrwt>0</asrwt>
<pdfrwt beam="1">  1        2 0.13025093E+00 0.67538145E+03</pdfrwt>
<pdfrwt beam="2">  1       -2 0.43807091E-01 0.67538145E+03</pdfrwt>
<totfact> 0.16011297E+02</totfact>
</mgrwt>
</event>
<event>
 4    1  0.7280516E-007  0.6655316E+03  0.7818608E-02  0.1019092E+00
         -2   -1    0    0    0  501 -0.00000000000E+00  0.00000000000E+00  0.20293297000E+04  0.20293297000E+04  0.25500000000E-02 0.  1.
          2   -1    0    0  501    0  0.00000000000E+00 -0.00000000000E+00 -0.14139263280E+03  0.14139263282E+03  0.25500000000E-02 0. -1.
    8880023    1    1    2    0    0 -0.75564579882E+02 -0.58413075156E+02  0.68766855291E+03  0.95698502496E+03  0.65864270000E+03 0. -1.
    8880022    1    1    2    0    0  0.75564579882E+02  0.58413075156E+02  0.12002685142E+04  0.12137373078E+04  0.15294330000E+03 0.  0.
<mgrwt>
<rscale>  0 0.48015879E+03</rscale>
<asrwt>0</asrwt>
<pdfrwt beam="1">  1        2 0.21752714E-01 0.66553159E+03</pdfrwt>
<pdfrwt beam="2">  1       -2 0.31220456E+00 0.66553159E+03</pdfrwt>
<totfact> 0.72507083E+00</totfact>
</mgrwt>
</event>
<event>
 4    1  0.7280516E-007  0.7771019E+03  0.7818608E-02  0.9762689E-01
         -2   -1    0    0    0  501 -0.00000000000E+00  0.00000000000E+00  0.63129637317E+03  0.63129637317E+03  0.25500000000E-02 0.  1.
          2   -1    0    0  501    0  0.00000000000E+00 -0.00000000000E+00 -0.59985919724E+03  0.59985919725E+03  0.25500000000E-02 0. -1.
    8880023    1    1    2    0    0 -0.19026461328E+03 -0.36589146594E+03  0.10838753381E+03  0.78462427420E+03  0.65864270000E+03 0.  0.
    8880022    1    1    2    0    0  0.19026461328E+03  0.36589146594E+03 -0.76950357884E+02  0.44653129622E+03  0.15294330000E+03 0.  0.
<mgrwt>
<rscale>  0 0.67403875E+03</rscale>
<asrwt>0</asrwt>
<pdfrwt beam="1">  1        2 0.92286031E-01 0.77710192E+03</pdfrwt>
<pdfrwt beam="2">  1       -2 0.97122519E-01 0.77710192E+03</pdfrwt>
<totfact> 0.44359352E+01</totfact>
</mgrwt>
</event>
<event>
 4    1  0.7280516E-007  0.6735111E+03  0.7818608E-02  0.1013262E+00
         -2   -1    0    0    0  501 -0.00000000000E+00  0.00000000000E+00  0.31030018186E+03  0.31030018187E+03  0.25500000000E-02 0.  1.
          2   -1    0    0  501    0  0.00000000000E+00 -0.00000000000E+00 -0.95812822741E+03  0.95812822741E+03  0.25500000000E-02 0. -1.
    8880023    1    1    2    0    0 -0.14073445523E+03 -0.91022009636E+00 -0.77343255289E+03  0.10255803896E+04  0.65864270000E+03 0.  0.
    8880022    1    1    2    0    0  0.14073445523E+03  0.91022009636E+00  0.12560450733E+03  0.24284801969E+03  0.15294330000E+03 0.  0.
<mgrwt>
<rscale>  0 0.50198688E+03</rscale>
<asrwt>0</asrwt>
<pdfrwt beam="1">  1        2 0.14740434E+00 0.67351111E+03</pdfrwt>
<pdfrwt beam="2">  1       -2 0.47738490E-01 0.67351111E+03</pdfrwt>
<totfact> 0.11356078E+02</totfact>
</mgrwt>
</event>
<event>
 4    1  0.7280516E-007  0.7276678E+03  0.7818608E-02  0.9897446E-01
          2   -1    0    0  501    0  0.00000000000E+00  0.00000000000E+00  0.19451982143E+04  0.19451982144E+04  0.25500000000E-02 0. -1.
         -2   -1    0    0    0  501 -0.00000000000E+00 -0.00000000000E+00 -0.18485328265E+03  0.18485328267E+03  0.25500000000E-02 0.  1.
    8880023    1    1    2    0    0 -0.30683155807E+03  0.39301323742E+02  0.15826202134E+04  0.17418918294E+04  0.65864270000E+03 0. -1.
    8880022    1    1    2    0    0  0.30683155807E+03 -0.39301323742E+02  0.17772471827E+03  0.38815966763E+03  0.15294330000E+03 0.  1.
<mgrwt>
<rscale>  0 0.60385207E+03</rscale>
<asrwt>0</asrwt>
<pdfrwt beam="1">  1        2 0.29926125E+00 0.72766779E+03</pdfrwt>
<pdfrwt beam="2">  1       -2 0.28438968E-01 0.72766779E+03</pdfrwt>
<totfact> 0.83458683E+01</totfact>
</mgrwt>
</event>
<event>
 4    1  0.7280516E-007  0.9279920E+03  0.7818608E-02  0.9482512E-01
          2   -1    0    0  501    0  0.00000000000E+00  0.00000000000E+00  0.30433113347E+04  0.30433113347E+04  0.25500000000E-02 0. -1.
         -2   -1    0    0    0  501 -0.00000000000E+00 -0.00000000000E+00 -0.77248566446E+03  0.77248566447E+03  0.25500000000E-02 0.  1.
    8880023    1    1    2    0    0  0.24246281730E+03  0.60710027316E+03  0.28071093123E+04  0.29565236101E+04  0.65864270000E+03 0.  0.
    8880022    1    1    2    0    0 -0.24246281730E+03 -0.60710027316E+03 -0.53628364206E+03  0.85927338909E+03  0.15294330000E+03 0.  0.
<mgrwt>
<rscale>  0 0.85585505E+03</rscale>
<asrwt>0</asrwt>
<pdfrwt beam="1">  1        2 0.46820175E+00 0.92799201E+03</pdfrwt>
<pdfrwt beam="2">  1       -2 0.11884395E+00 0.92799201E+03</pdfrwt>
<totfact> 0.91792810E-01</totfact>
</mgrwt>
</event>
<event>
 4    1  0.7280516E-007  0.6813805E+03  0.7818608E-02  0.1008553E+00
         -2   -1    0    0    0  501 -0.00000000000E+00  0.00000000000E+00  0.15701117257E+03  0.15701117259E+03  0.25500000000E-02 0.  1.
          2   -1    0    0  501    0  0.00000000000E+00 -0.00000000000E+00 -0.16649430726E+04  0.16649430726E+04  0.25500000000E-02 0. -1.
    8880023    1    1    2    0    0 -0.16718186318E+03  0.50194203957E+02 -0.14177127990E+04  0.15729555049E+04  0.65864270000E+03 0. -1.
    8880022    1    1    2    0    0  0.16718186318E+03 -0.50194203957E+02 -0.90219101007E+02  0.24899874033E+03  0.15294330000E+03 0.  0.
<mgrwt>
<rscale>  0 0.52053685E+03</rscale>
<asrwt>0</asrwt>
<pdfrwt beam="1">  1        2 0.25614508E+00 0.68138054E+03</pdfrwt>
<pdfrwt beam="2">  1       -2 0.24155566E-01 0.68138054E+03</pdfrwt>
<totfact> 0.16028641E+02</totfact>
</mgrwt>
</event>
<event>
 4    1  0.9371465E-007  0.7722253E+03  0.7818608E-02  0.9774427E-01
         -2   -1    0    0    0  501 -0.00000000000E+00  0.00000000000E+00  0.20644165139E+04  0.20644165139E+04  0.25500000000E-02 0.  1.
          2   -1    0    0  501    0  0.00000000000E+00 -0.00000000000E+00 -0.11064711952E+04  0.11064711952E+04  0.25500000000E-02 0. -1.
    8880023    1    1    2    0    0 -0.29205748286E+03 -0.27789227701E+03 -0.94460722693E+03  0.12200879929E+04  0.65864270000E+03 0.  0.
    8880022    1    1    2    0    0  0.29205748286E+03  0.27789227701E+03  0.19025525456E+04  0.19507997162E+04  0.15294330000E+03 0.  1.
<mgrwt>
<rscale>  0 0.66753161E+03</rscale>
<asrwt>0</asrwt>
<pdfrwt beam="1">  1        2 0.17022634E+00 0.77222529E+03</pdfrwt>
<pdfrwt beam="2">  1       -2 0.31760254E+00 0.77222529E+03</pdfrwt>
<totfact> 0.56030614E-01</totfact>
</mgrwt>
</event>
<event>
 4    1  0.7280516E-007  0.7221831E+03  0.7818608E-02  0.9915267E-01
         -2   -1    0    0    0  501 -0.00000000000E+00  0.00000000000E+00  0.37176922480E+03  0.37176922481E+03  0.25500000000E-02 0.  1.
          2   -1    0    0  501    0  0.00000000000E+00 -0.00000000000E+00 -0.14786836315E+04  0.14786836315E+04  0.25500000000E-02 0. -1.
    8880023    1    1    2    0    0  0.18604769090E+03  0.23048740936E+03 -0.12838613616E+04  0.14730405260E+04  0.65864270000E+03 0. -1.
    8880022    1    1    2    0    0 -0.18604769090E+03 -0.23048740936E+03  0.17694695494E+03  0.37741233027E+03  0.15294330000E+03 0.  0.
<mgrwt>
<rscale>  0 0.59527044E+03</rscale>
<asrwt>0</asrwt>
<pdfrwt beam="1">  1        2 0.22748979E+00 0.72218308E+03</pdfrwt>
<pdfrwt beam="2">  1       -2 0.57195266E-01 0.72218308E+03</pdfrwt>
<totfact> 0.38341438E+01</totfact>
</mgrwt>
</event>
<event>
 4    1  0.7280516E-007  0.1245365E+04  0.7818608E-02  0.9114238E-01
          2   -1    0    0  501    0  0.00000000000E+00  0.00000000000E+00  0.20596339859E+04  0.20596339859E+04  0.25500000000E-02 0. -1.
         -2   -1    0    0    0  501 -0.00000000000E+00 -0.00000000000E+00 -0.94070569926E+03  0.94070569927E+03  0.25500000000E-02 0.  1.
    8880023    1    1    2    0    0  0.50931566358E+03 -0.92613220801E+03  0.14219770934E+04  0.18902254819E+04  0.65864270000E+03 0.  0.
    8880022    1    1    2    0    0 -0.50931566358E+03  0.92613220801E+03 -0.30304880684E+03  0.11101142032E+04  0.15294330000E+03 0.  0.
<mgrwt>
<rscale>  0 0.11984228E+04</rscale>
<asrwt>0</asrwt>
<pdfrwt beam="1">  1        2 0.31686676E+00 0.12453648E+04</pdfrwt>
<pdfrwt beam="2">  1       -2 0.14472396E+00 0.12453648E+04</pdfrwt>
<totfact> 0.19754485E+00</totfact>
</mgrwt>
</event>
<event>
 4    1  0.7280516E-007  0.7486099E+03  0.7818608E-02  0.9835541E-01
          2   -1    0    0  501    0  0.00000000000E+00  0.00000000000E+00  0.36150897985E+04  0.36150897985E+04  0.25500000000E-02 0. -1.
         -2   -1    0    0    0  501 -0.00000000000E+00 -0.00000000000E+00 -0.98857701417E+02  0.98857701450E+02  0.25500000000E-02 0.  1.
    8880023    1    1    2    0    0  0.12477462141E+03  0.33322343169E+03  0.28153234451E+04  0.29131534234E+04  0.65864270000E+03 0. -1.
    8880022    1    1    2    0    0 -0.12477462141E+03 -0.33322343169E+03  0.70090865201E+03  0.80079407655E+03  0.15294330000E+03 0.  0.
<mgrwt>
<rscale>  0 0.63489577E+03</rscale>
<asrwt>0</asrwt>
<pdfrwt beam="1">  1        2 0.55616761E+00 0.74860989E+03</pdfrwt>
<pdfrwt beam="2">  1       -2 0.15208878E-01 0.74860989E+03</pdfrwt>
<totfact> 0.24922788E+01</totfact>
</mgrwt>
</event>
<event>
 4    1  0.7280516E-007  0.6637396E+03  0.7818608E-02  0.1020615E+00
         -2   -1    0    0    0  501 -0.00000000000E+00  0.00000000000E+00  0.11451510276E+04  0.11451510276E+04  0.25500000000E-02 0.  1.
          2   -1    0    0  501    0  0.00000000000E+00 -0.00000000000E+00 -0.28013553326E+03  0.28013553327E+03  0.25500000000E-02 0. -1.
    8880023    1    1    2    0    0  0.35204289166E+02 -0.74166805827E+02  0.13812798371E+03  0.67795988319E+03  0.65864270000E+03 0. -1.
    8880022    1    1    2    0    0 -0.35204289166E+02  0.74166805827E+02  0.72688751063E+03  0.74732667769E+03  0.15294330000E+03 0.  0.
<mgrwt>
<rscale>  0 0.47465305E+03</rscale>
<asrwt>0</asrwt>
<pdfrwt beam="1">  1        2 0.43097774E-01 0.66373961E+03</pdfrwt>
<pdfrwt beam="2">  1       -2 0.17617708E+00 0.66373961E+03</pdfrwt>
<totfact> 0.23329945E+01</totfact>
</mgrwt>
</event>
<event>
 4    1  0.7280516E-007  0.1329944E+04  0.7818608E-02  0.9040124E-01
         -2   -1    0    0    0  501 -0.00000000000E+00  0.00000000000E+00  0.86096604485E+03  0.86096604485E+03  0.25500000000E-02 0.  1.
          2   -1    0    0  501    0  0.00000000000E+00 -0.00000000000E+00 -0.25944391756E+04  0.25944391756E+04  0.25500000000E-02 0. -1.
    8880023    1    1    2    0    0 -0.11253542988E+04  0.26175894917E+03  0.43120425638E+02  0.13306425601E+04  0.65864270000E+03 0.  0.
    8880022    1    1    2    0    0  0.11253542988E+04 -0.26175894917E+03 -0.17765935564E+04  0.21247626604E+04  0.15294330000E+03 0.  0.
<mgrwt>
<rscale>  0 0.12867692E+04</rscale>
<asrwt>0</asrwt>
<pdfrwt beam="1">  1        2 0.39914448E+00 0.13299437E+04</pdfrwt>
<pdfrwt beam="2">  1       -2 0.13245632E+00 0.13299437E+04</pdfrwt>
<totfact> 0.12257855E+00</totfact>
</mgrwt>
</event>
<event>
 4    1  0.7280516E-007  0.9144837E+03  0.7818608E-02  0.9503169E-01
          2   -1    0    0  501    0  0.00000000000E+00  0.00000000000E+00  0.65396315163E+03  0.65396315164E+03  0.25500000000E-02 0. -1.
         -2   -1    0    0    0  501 -0.00000000000E+00 -0.00000000000E+00 -0.13276146101E+04  0.13276146101E+04  0.25500000000E-02 0.  1.
    8880023    1    1    2    0    0  0.63191858783E+03 -0.56117652548E+02  0.15425239153E+03  0.92740190809E+03  0.65864270000E+03 0. -1.
    8880022    1    1    2    0    0 -0.63191858783E+03  0.56117652548E+02 -0.82790385004E+03  0.10541758537E+04  0.15294330000E+03 0.  0.
<mgrwt>
<rscale>  0 0.84050556E+03</rscale>
<asrwt>0</asrwt>
<pdfrwt beam="1">  1        2 0.10060972E+00 0.91448373E+03</pdfrwt>
<pdfrwt beam="2">  1       -2 0.20424840E+00 0.91448373E+03</pdfrwt>
<totfact> 0.55809323E+00</totfact>
</mgrwt>
</event>
<event>
 4    1  0.8124468E-007  0.1040144E+04  0.7818608E-02  0.9330824E-01
          2   -1    0    0  501    0  0.00000000000E+00  0.00000000000E+00  0.17811650067E+04  0.17811650067E+04  0.25500000000E-02 0. -1.
         -2   -1    0    0    0  501 -0.00000000000E+00 -0.00000000000E+00 -0.15188740445E+04  0.15188740445E+04  0.25500000000E-02 0.  1.
    8880023    1    1    2    0    0  0.43476476594E+03  0.67754626373E+03  0.14941388047E+04  0.18205357220E+04  0.65864270000E+03 0.  0.
    8880022    1    1    2    0    0 -0.43476476594E+03 -0.67754626373E+03 -0.12318478425E+04  0.14795033292E+04  0.15294330000E+03 0.  0.
<mgrwt>
<rscale>  0 0.97993962E+03</rscale>
<asrwt>0</asrwt>
<pdfrwt beam="1">  1        2 0.27402538E+00 0.10401440E+04</pdfrwt>
<pdfrwt beam="2">  1       -2 0.23367293E+00 0.10401440E+04</pdfrwt>
<totfact> 0.71158984E-01</totfact>
</mgrwt>
</event>
<event>
 4    1  0.7280516E-007  0.7604650E+03  0.7818608E-02  0.9803905E-01
          2   -1    0    0  501    0  0.00000000000E+00  0.00000000000E+00  0.13922433025E+04  0.13922433025E+04  0.25500000000E-02 0. -1.
         -2   -1    0    0    0  501 -0.00000000000E+00 -0.00000000000E+00 -0.26201554338E+03  0.26201554340E+03  0.25500000000E-02 0.  1.
    8880023    1    1    2    0    0 -0.10987021932E+03 -0.36390299982E+03  0.92038733075E+03  0.11939095038E+04  0.65864270000E+03 0.  0.
    8880022    1    1    2    0    0  0.10987021932E+03  0.36390299982E+03  0.20984042834E+03  0.46034934208E+03  0.15294330000E+03 0.  0.
<mgrwt>
<rscale>  0 0.65153396E+03</rscale>
<asrwt>0</asrwt>
<pdfrwt beam="1">  1        2 0.21419127E+00 0.76046503E+03</pdfrwt>
<pdfrwt beam="2">  1       -2 0.40310085E-01 0.76046503E+03</pdfrwt>
<totfact> 0.86598245E+01</totfact>
</mgrwt>
</event>
<event>
 4    1  0.7280516E-007  0.9204844E+03  0.7818608E-02  0.9493917E-01
         -2   -1    0    0    0  501 -0.00000000000E+00  0.00000000000E+00  0.97209112060E+03  0.97209112060E+03  0.25500000000E-02 0.  1.
          2   -1    0    0  501    0  0.00000000000E+00 -0.00000000000E+00 -0.85769466746E+03  0.85769466746E+03  0.25500000000E-02 0. -1.
    8880023    1    1    2    0    0  0.51716603666E+03 -0.38212633003E+03 -0.38864655425E+03  0.99916845025E+03  0.65864270000E+03 0.  0.
    8880022    1    1    2    0    0 -0.51716603666E+03  0.38212633003E+03  0.50304300739E+03  0.83061733782E+03  0.15294330000E+03 0.  0.
<mgrwt>
<rscale>  0 0.84733802E+03</rscale>
<asrwt>0</asrwt>
<pdfrwt beam="1">  1        2 0.13195303E+00 0.92048436E+03</pdfrwt>
<pdfrwt beam="2">  1       -2 0.14955248E+00 0.92048436E+03</pdfrwt>
<totfact> 0.94564976E+00</totfact>
</mgrwt>
</event>
<event>
 4    1  0.7280516E-007  0.7298690E+03  0.7818608E-02  0.9890506E-01
          2   -1    0    0  501    0  0.00000000000E+00  0.00000000000E+00  0.11697136357E+04  0.11697136357E+04  0.25500000000E-02 0. -1.
         -2   -1    0    0    0  501 -0.00000000000E+00 -0.00000000000E+00 -0.40568579526E+03  0.40568579527E+03  0.25500000000E-02 0.  1.
    8880023    1    1    2    0    0 -0.22322413664E+03  0.22151646829E+03  0.93499932123E+03  0.11861418540E+04  0.65864270000E+03 0. -1.
    8880022    1    1    2    0    0  0.22322413664E+03 -0.22151646829E+03 -0.17097148083E+03  0.38925757690E+03  0.15294330000E+03 0.  0.
<mgrwt>
<rscale>  0 0.60723620E+03</rscale>
<asrwt>0</asrwt>
<pdfrwt beam="1">  1        2 0.17995594E+00 0.72986901E+03</pdfrwt>
<pdfrwt beam="2">  1       -2 0.62413200E-01 0.72986901E+03</pdfrwt>
<totfact> 0.47955314E+01</totfact>
</mgrwt>
</event>
<event>
 4    1  0.7280516E-007  0.7017951E+03  0.7818608E-02  0.9989834E-01
          2   -1    0    0  501    0  0.00000000000E+00  0.00000000000E+00  0.13940409041E+04  0.13940409041E+04  0.25500000000E-02 0. -1.
         -2   -1    0    0    0  501 -0.00000000000E+00 -0.00000000000E+00 -0.17549637798E+03  0.17549637800E+03  0.25500000000E-02 0.  1.
    8880023    1    1    2    0    0 -0.21445077225E+03 -0.11276976987E+03  0.89547849270E+03  0.11377161737E+04  0.65864270000E+03 0.  0.
    8880022    1    1    2    0    0  0.21445077225E+03  0.11276976987E+03  0.32306603347E+03  0.43182110846E+03  0.15294330000E+03 0. -1.
<mgrwt>
<rscale>  0 0.56098234E+03</rscale>
<asrwt>0</asrwt>
<pdfrwt beam="1">  1        2 0.21446783E+00 0.70179510E+03</pdfrwt>
<pdfrwt beam="2">  1       -2 0.26999442E-01 0.70179510E+03</pdfrwt>
<totfact> 0.18487943E+02</totfact>
</mgrwt>
</event>
<event>
 4    1  0.7280516E-007  0.1064950E+04  0.7818608E-02  0.9301122E-01
         -2   -1    0    0    0  501 -0.00000000000E+00  0.00000000000E+00  0.85890626969E+03  0.85890626969E+03  0.25500000000E-02 0.  1.
          2   -1    0    0  501    0  0.00000000000E+00 -0.00000000000E+00 -0.12157668761E+04  0.12157668761E+04  0.25500000000E-02 0. -1.
    8880023    1    1    2    0    0 -0.39940914432E+03  0.73537739243E+03  0.16351822139E+03  0.10774302710E+04  0.65864270000E+03 0.  0.
    8880022    1    1    2    0    0  0.39940914432E+03 -0.73537739243E+03 -0.52037882776E+03  0.99724287476E+03  0.15294330000E+03 0.  0.
<mgrwt>
<rscale>  0 0.10067962E+04</rscale>
<asrwt>0</asrwt>
<pdfrwt beam="1">  1        2 0.18704106E+00 0.10649497E+04</pdfrwt>
<pdfrwt beam="2">  1       -2 0.13213943E+00 0.10649497E+04</pdfrwt>
<totfact> 0.76142409E+00</totfact>
</mgrwt>
</event>
<event>
 4    1  0.7280516E-007  0.7935981E+03  0.7818608E-02  0.9724813E-01
          2   -1    0    0  501    0  0.00000000000E+00  0.00000000000E+00  0.14573507560E+04  0.14573507560E+04  0.25500000000E-02 0. -1.
         -2   -1    0    0    0  501 -0.00000000000E+00 -0.00000000000E+00 -0.39612817897E+03  0.39612817898E+03  0.25500000000E-02 0.  1.
    8880023    1    1    2    0    0 -0.19698833474E+03 -0.39646359243E+03  0.11292149836E+04  0.13801900121E+04  0.65864270000E+03 0.  0.
    8880022    1    1    2    0    0  0.19698833474E+03  0.39646359243E+03 -0.67992406547E+02  0.47328892287E+03  0.15294330000E+03 0.  0.
<mgrwt>
<rscale>  0 0.69558461E+03</rscale>
<asrwt>0</asrwt>
<pdfrwt beam="1">  1        2 0.22420781E+00 0.79359813E+03</pdfrwt>
<pdfrwt beam="2">  1       -2 0.60942796E-01 0.79359813E+03</pdfrwt>
<totfact> 0.34215730E+01</totfact>
</mgrwt>
</event>
<event>
 4    1  0.7280516E-007  0.6598083E+03  0.7818608E-02  0.1024354E+00
         -2   -1    0    0    0  501 -0.00000000000E+00  0.00000000000E+00  0.21703872692E+03  0.21703872694E+03  0.25500000000E-02 0.  1.
          2   -1    0    0  501    0  0.00000000000E+00 -0.00000000000E+00 -0.19856009746E+04  0.19856009746E+04  0.25500000000E-02 0. -1.
    8880023    1    1    2    0    0 -0.24502030358E+02 -0.30601583955E+02 -0.18910231919E+04  0.20028269334E+04  0.65864270000E+03 0. -1.
    8880022    1    1    2    0    0  0.24502030358E+02  0.30601583955E+02  0.12246094425E+03  0.19981276815E+03  0.15294330000E+03 0.  0.
<mgrwt>
<rscale>  0 0.46147722E+03</rscale>
<asrwt>0</asrwt>
<pdfrwt beam="1">  1        2 0.30547706E+00 0.65980832E+03</pdfrwt>
<pdfrwt beam="2">  1       -2 0.33390575E-01 0.65980832E+03</pdfrwt>
<totfact> 0.59329480E+01</totfact>
</mgrwt>
</event>
<event>
 4    1  0.7280516E-007  0.9544940E+03  0.7818608E-02  0.9443677E-01
          2   -1    0    0  501    0  0.00000000000E+00  0.00000000000E+00  0.13377078405E+04  0.13377078405E+04  0.25500000000E-02 0. -1.
         -2   -1    0    0    0  501 -0.00000000000E+00 -0.00000000000E+00 -0.11351641429E+04  0.11351641429E+04  0.25500000000E-02 0.  1.
    8880023    1    1    2    0    0  0.69006105958E+03  0.32624793085E+02  0.10164851049E+04  0.13943818766E+04  0.65864270000E+03 0. -1.
    8880022    1    1    2    0    0 -0.69006105958E+03 -0.32624793085E+02 -0.81394140724E+03  0.10784901068E+04  0.15294330000E+03 0.  0.
<mgrwt>
<rscale>  0 0.88566735E+03</rscale>
<asrwt>0</asrwt>
<pdfrwt beam="1">  1        2 0.20580121E+00 0.95449403E+03</pdfrwt>
<pdfrwt beam="2">  1       -2 0.17464064E+00 0.95449403E+03</pdfrwt>
<totfact> 0.30974031E+00</totfact>
</mgrwt>
</event>
<event>
 4    1  0.7280516E-007  0.7005494E+03  0.7818608E-02  0.9994930E-01
         -2   -1    0    0    0  501 -0.00000000000E+00  0.00000000000E+00  0.37762691069E+03  0.37762691070E+03  0.25500000000E-02 0.  1.
          2   -1    0    0  501    0  0.00000000000E+00 -0.00000000000E+00 -0.80887317591E+03  0.80887317591E+03  0.25500000000E-02 0. -1.
    8880023    1    1    2    0    0 -0.23152939132E+03 -0.57907940864E+02 -0.53831721625E+03  0.88349013590E+03  0.65864270000E+03 0. -1.
    8880022    1    1    2    0    0  0.23152939132E+03  0.57907940864E+02  0.10707095103E+03  0.30300995071E+03  0.15294330000E+03 0.  0.
<mgrwt>
<rscale>  0 0.55873111E+03</rscale>
<asrwt>0</asrwt>
<pdfrwt beam="1">  1        2 0.12444203E+00 0.70054935E+03</pdfrwt>
<pdfrwt beam="2">  1       -2 0.58096448E-01 0.70054935E+03</pdfrwt>
<totfact> 0.95601635E+01</totfact>
</mgrwt>
</event>
<event>
 4    1  0.7280516E-007  0.6861957E+03  0.7818608E-02  0.1006016E+00
         -2   -1    0    0    0  501 -0.00000000000E+00  0.00000000000E+00  0.27139863347E+03  0.27139863349E+03  0.25500000000E-02 0.  1.
          2   -1    0    0  501    0  0.00000000000E+00 -0.00000000000E+00 -0.27353603189E+04  0.27353603189E+04  0.25500000000E-02 0. -1.
    8880023    1    1    2    0    0  0.25756399716E+02 -0.19076391911E+03 -0.26247683237E+04  0.27129823487E+04  0.65864270000E+03 0.  0.
    8880022    1    1    2    0    0 -0.25756399716E+02  0.19076391911E+03  0.16080663826E+03  0.29377660370E+03  0.15294330000E+03 0.  0.
<mgrwt>
<rscale>  0 0.53089281E+03</rscale>
<asrwt>0</asrwt>
<pdfrwt beam="1">  1        2 0.42082465E+00 0.68619565E+03</pdfrwt>
<pdfrwt beam="2">  1       -2 0.41753638E-01 0.68619565E+03</pdfrwt>
<totfact> 0.14645727E+01</totfact>
</mgrwt>
</event>
<event>
 4    1  0.7280516E-007  0.8760419E+03  0.7818608E-02  0.9565641E-01
         -2   -1    0    0    0  501 -0.00000000000E+00  0.00000000000E+00  0.41952257848E+03  0.41952257849E+03  0.25500000000E-02 0.  1.
          2   -1    0    0  501    0  0.00000000000E+00 -0.00000000000E+00 -0.15994249363E+04  0.15994249363E+04  0.25500000000E-02 0. -1.
    8880023    1    1    2    0    0 -0.21489778361E+03  0.53615122680E+03 -0.24542948883E+03  0.90977196904E+03  0.65864270000E+03 0.  1.
    8880022    1    1    2    0    0  0.21489778361E+03 -0.53615122680E+03 -0.93447286900E+03  0.11091755458E+04  0.15294330000E+03 0.  0.
<mgrwt>
<rscale>  0 0.79612612E+03</rscale>
<asrwt>0</asrwt>
<pdfrwt beam="1">  1        2 0.24606537E+00 0.87604189E+03</pdfrwt>
<pdfrwt beam="2">  1       -2 0.64541936E-01 0.87604189E+03</pdfrwt>
<totfact> 0.25010381E+01</totfact>
</mgrwt>
</event>
<event>
 4    1  0.7280516E-007  0.6615685E+03  0.7818608E-02  0.1022604E+00
          2   -1    0    0  501    0  0.00000000000E+00  0.00000000000E+00  0.23996325236E+03  0.23996325237E+03  0.25500000000E-02 0. -1.
         -2   -1    0    0    0  501 -0.00000000000E+00 -0.00000000000E+00 -0.77226569130E+03  0.77226569131E+03  0.25500000000E-02 0.  1.
    8880023    1    1    2    0    0 -0.33484288656E+02  0.52359462456E+02 -0.29795094565E+03  0.72556714588E+03  0.65864270000E+03 0.  0.
    8880022    1    1    2    0    0  0.33484288656E+02 -0.52359462456E+02 -0.23435149329E+03  0.28666179780E+03  0.15294330000E+03 0.  0.
<mgrwt>
<rscale>  0 0.46758507E+03</rscale>
<asrwt>0</asrwt>
<pdfrwt beam="1">  1        2 0.36917424E-01 0.66156853E+03</pdfrwt>
<pdfrwt beam="2">  1       -2 0.11881011E+00 0.66156853E+03</pdfrwt>
<totfact> 0.77756931E+01</totfact>
</mgrwt>
</event>
<event>
 4    1  0.7280516E-007  0.1671055E+04  0.7818608E-02  0.8797431E-01
          2   -1    0    0  501    0  0.00000000000E+00  0.00000000000E+00  0.38545964366E+04  0.38545964366E+04  0.25500000000E-02 0. -1.
         -2   -1    0    0    0  501 -0.00000000000E+00 -0.00000000000E+00 -0.78711328345E+03  0.78711328346E+03  0.25500000000E-02 0.  1.
    8880023    1    1    2    0    0  0.15355148812E+04 -0.28462368646E+02  0.24796771291E+04  0.29901881090E+04  0.65864270000E+03 0.  0.
    8880022    1    1    2    0    0 -0.15355148812E+04  0.28462368646E+02  0.58780602405E+03  0.16515216110E+04  0.15294330000E+03 0.  0.
<mgrwt>
<rscale>  0 0.16381778E+04</rscale>
<asrwt>0</asrwt>
<pdfrwt beam="1">  1        2 0.59301484E+00 0.16710554E+04</pdfrwt>
<pdfrwt beam="2">  1       -2 0.12109435E+00 0.16710554E+04</pdfrwt>
<totfact> 0.21837944E-01</totfact>
</mgrwt>
</event>
<event>
 4    1  0.7280516E-007  0.1213983E+04  0.7818608E-02  0.9143648E-01
          2   -1    0    0  501    0  0.00000000000E+00  0.00000000000E+00  0.16225063556E+04  0.16225063556E+04  0.25500000000E-02 0. -1.
         -2   -1    0    0    0  501 -0.00000000000E+00 -0.00000000000E+00 -0.92307664013E+03  0.92307664014E+03  0.25500000000E-02 0.  1.
    8880023    1    1    2    0    0  0.90636895713E+03  0.46737643248E+03  0.87911054818E+03  0.14988632287E+04  0.65864270000E+03 0.  0.
    8880022    1    1    2    0    0 -0.90636895713E+03 -0.46737643248E+03 -0.17968083271E+03  0.10467197671E+04  0.15294330000E+03 0.  0.
<mgrwt>
<rscale>  0 0.11654494E+04</rscale>
<asrwt>0</asrwt>
<pdfrwt beam="1">  1        2 0.24961636E+00 0.12139834E+04</pdfrwt>
<pdfrwt beam="2">  1       -2 0.14201179E+00 0.12139834E+04</pdfrwt>
<totfact> 0.36415257E+00</totfact>
</mgrwt>
</event>
<event>
 4    1  0.7280516E-007  0.6951714E+03  0.7818608E-02  0.1001785E+00
          2   -1    0    0  501    0  0.00000000000E+00  0.00000000000E+00  0.16359048276E+04  0.16359048276E+04  0.25500000000E-02 0. -1.
         -2   -1    0    0    0  501 -0.00000000000E+00 -0.00000000000E+00 -0.24719520631E+03  0.24719520632E+03  0.25500000000E-02 0.  1.
    8880023    1    1    2    0    0  0.21572843816E+03  0.53984355146E+02  0.14484826858E+04  0.16066628043E+04  0.65864270000E+03 0. -1.
    8880022    1    1    2    0    0 -0.21572843816E+03 -0.53984355146E+02 -0.59773064498E+02  0.27643722956E+03  0.15294330000E+03 0.  0.
<mgrwt>
<rscale>  0 0.54874261E+03</rscale>
<asrwt>0</asrwt>
<pdfrwt beam="1">  1        2 0.25167765E+00 0.69517140E+03</pdfrwt>
<pdfrwt beam="2">  1       -2 0.38030034E-01 0.69517140E+03</pdfrwt>
<totfact> 0.71437800E+01</totfact>
</mgrwt>
</event>
<event>
 4    1  0.7280516E-007  0.6788231E+03  0.7818608E-02  0.1009997E+00
          2   -1    0    0  501    0  0.00000000000E+00  0.00000000000E+00  0.45194937321E+03  0.45194937322E+03  0.25500000000E-02 0. -1.
         -2   -1    0    0    0  501 -0.00000000000E+00 -0.00000000000E+00 -0.12777747071E+04  0.12777747071E+04  0.25500000000E-02 0.  1.
    8880023    1    1    2    0    0 -0.15400809012E+03 -0.57201916930E+02  0.17746072331E+03  0.70163599231E+03  0.65864270000E+03 0. -1.
    8880022    1    1    2    0    0  0.15400809012E+03  0.57201916930E+02 -0.10032860572E+04  0.10280880881E+04  0.15294330000E+03 0.  0.
<mgrwt>
<rscale>  0 0.51475680E+03</rscale>
<asrwt>0</asrwt>
<pdfrwt beam="1">  1        2 0.69530673E-01 0.67882307E+03</pdfrwt>
<pdfrwt beam="2">  1       -2 0.19658072E+00 0.67882307E+03</pdfrwt>
<totfact> 0.99519090E+00</totfact>
</mgrwt>
</event>
<event>
 4    1  0.7280516E-007  0.6621942E+03  0.7818608E-02  0.1022013E+00
         -2   -1    0    0    0  501 -0.00000000000E+00  0.00000000000E+00  0.24664941090E+03  0.24664941091E+03  0.25500000000E-02 0.  1.
          2   -1    0    0  501    0  0.00000000000E+00 -0.00000000000E+00 -0.20448652761E+04  0.20448652761E+04  0.25500000000E-02 0. -1.
    8880023    1    1    2    0    0  0.95723997472E+01  0.67817855161E+02 -0.19537257838E+04  0.20628973646E+04  0.65864270000E+03 0. -1.
    8880022    1    1    2    0    0 -0.95723997472E+01 -0.67817855161E+02  0.15550991859E+03  0.22861732242E+03  0.15294330000E+03 0.  0.
<mgrwt>
<rscale>  0 0.46967081E+03</rscale>
<asrwt>0</asrwt>
<pdfrwt beam="1">  1        2 0.31459465E+00 0.66219415E+03</pdfrwt>
<pdfrwt beam="2">  1       -2 0.37946065E-01 0.66219415E+03</pdfrwt>
<totfact> 0.43153850E+01</totfact>
</mgrwt>
</event>
<event>
 4    1  0.7280516E-007  0.6744792E+03  0.7818608E-02  0.1012637E+00
          2   -1    0    0  501    0  0.00000000000E+00  0.00000000000E+00  0.12700822296E+03  0.12700822298E+03  0.25500000000E-02 0. -1.
         -2   -1    0    0    0  501 -0.00000000000E+00 -0.00000000000E+00 -0.15439077304E+04  0.15439077304E+04  0.25500000000E-02 0.  1.
    8880023    1    1    2    0    0  0.13370961090E+03  0.56865784088E+02 -0.10943037719E+04  0.12854660357E+04  0.65864270000E+03 0.  1.
    8880022    1    1    2    0    0 -0.13370961090E+03 -0.56865784088E+02 -0.32259573553E+03  0.38544991768E+03  0.15294330000E+03 0.  1.
<mgrwt>
<rscale>  0 0.50440089E+03</rscale>
<asrwt>0</asrwt>
<pdfrwt beam="1">  1        2 0.19539728E-01 0.67447919E+03</pdfrwt>
<pdfrwt beam="2">  1       -2 0.23752425E+00 0.67447919E+03</pdfrwt>
<totfact> 0.23090825E+01</totfact>
</mgrwt>
</event>
<event>
 4    1  0.7280516E-007  0.7494410E+03  0.7818608E-02  0.9833253E-01
          2   -1    0    0  501    0  0.00000000000E+00  0.00000000000E+00  0.32979617723E+04  0.32979617723E+04  0.25500000000E-02 0. -1.
         -2   -1    0    0    0  501 -0.00000000000E+00 -0.00000000000E+00 -0.18795845540E+03  0.18795845542E+03  0.25500000000E-02 0.  1.
    8880023    1    1    2    0    0  0.44054111050E+02 -0.35483927276E+03  0.29846698547E+04  0.30773228661E+04  0.65864270000E+03 0. -1.
    8880022    1    1    2    0    0 -0.44054111050E+02  0.35483927276E+03  0.12533346222E+03  0.40859736167E+03  0.15294330000E+03 0.  0.
<mgrwt>
<rscale>  0 0.63608131E+03</rscale>
<asrwt>0</asrwt>
<pdfrwt beam="1">  1        2 0.50737871E+00 0.74944105E+03</pdfrwt>
<pdfrwt beam="2">  1       -2 0.28916687E-01 0.74944105E+03</pdfrwt>
<totfact> 0.13139567E+01</totfact>
</mgrwt>
</event>
<event>
 4    1  0.7280516E-007  0.7395247E+03  0.7818608E-02  0.9861334E-01
          2   -1    0    0  501    0  0.00000000000E+00  0.00000000000E+00  0.86491490455E+03  0.86491490455E+03  0.25500000000E-02 0. -1.
         -2   -1    0    0    0  501 -0.00000000000E+00 -0.00000000000E+00 -0.52474437363E+03  0.52474437364E+03  0.25500000000E-02 0.  1.
    8880023    1    1    2    0    0 -0.32236904015E+03  0.95732538107E+02  0.58800489430E+03  0.94479970305E+03  0.65864270000E+03 0.  0.
    8880022    1    1    2    0    0  0.32236904015E+03 -0.95732538107E+02 -0.24783436339E+03  0.44485957514E+03  0.15294330000E+03 0.  0.
<mgrwt>
<rscale>  0 0.62172366E+03</rscale>
<asrwt>0</asrwt>
<pdfrwt beam="1">  1        2 0.13306383E+00 0.73952466E+03</pdfrwt>
<pdfrwt beam="2">  1       -2 0.80729906E-01 0.73952466E+03</pdfrwt>
<totfact> 0.42611019E+01</totfact>
</mgrwt>
</event>
<event>
 4    1  0.7280516E-007  0.6811314E+03  0.7818608E-02  0.1008691E+00
         -2   -1    0    0    0  501 -0.00000000000E+00  0.00000000000E+00  0.44823092456E+03  0.44823092457E+03  0.25500000000E-02 0.  1.
          2   -1    0    0  501    0  0.00000000000E+00 -0.00000000000E+00 -0.15658353952E+04  0.15658353952E+04  0.25500000000E-02 0. -1.
    8880023    1    1    2    0    0  0.13506979164E+03 -0.10902251385E+03 -0.14540954043E+04  0.16057189693E+04  0.65864270000E+03 0. -1.
    8880022    1    1    2    0    0 -0.13506979164E+03  0.10902251385E+03  0.33649093372E+03  0.40834735047E+03  0.15294330000E+03 0.  0.
<mgrwt>
<rscale>  0 0.51998296E+03</rscale>
<asrwt>0</asrwt>
<pdfrwt beam="1">  1        2 0.24089775E+00 0.68113138E+03</pdfrwt>
<pdfrwt beam="2">  1       -2 0.68958604E-01 0.68113138E+03</pdfrwt>
<totfact> 0.23147981E+01</totfact>
</mgrwt>
</event>
<event>
 4    1  0.7280516E-007  0.7135387E+03  0.7818608E-02  0.9945088E-01
         -2   -1    0    0    0  501 -0.00000000000E+00  0.00000000000E+00  0.72350541441E+03  0.72350541442E+03  0.25500000000E-02 0.  1.
          2   -1    0    0  501    0  0.00000000000E+00 -0.00000000000E+00 -0.44832316502E+03  0.44832316503E+03  0.25500000000E-02 0. -1.
    8880023    1    1    2    0    0  0.12361689158E+03  0.24504310987E+03 -0.55485257242E+02  0.71569272849E+03  0.65864270000E+03 0.  0.
    8880022    1    1    2    0    0 -0.12361689158E+03 -0.24504310987E+03  0.33066750663E+03  0.45613585096E+03  0.15294330000E+03 0.  0.
<mgrwt>
<rscale>  0 0.58125030E+03</rscale>
<asrwt>0</asrwt>
<pdfrwt beam="1">  1        2 0.68972795E-01 0.71353869E+03</pdfrwt>
<pdfrwt beam="2">  1       -2 0.11130853E+00 0.71353869E+03</pdfrwt>
<totfact> 0.45220704E+01</totfact>
</mgrwt>
</event>
<event>
 4    1  0.7280516E-007  0.6588858E+03  0.7818608E-02  0.1025328E+00
         -2   -1    0    0    0  501 -0.00000000000E+00  0.00000000000E+00  0.15631045851E+03  0.15631045853E+03  0.25500000000E-02 0.  1.
          2   -1    0    0  501    0  0.00000000000E+00 -0.00000000000E+00 -0.36795815083E+04  0.36795815083E+04  0.25500000000E-02 0. -1.
    8880023    1    1    2    0    0 -0.12154761797E+02 -0.13135782150E+02 -0.36028188391E+04  0.36625720580E+04  0.65864270000E+03 0. -1.
    8880022    1    1    2    0    0  0.12154761797E+02  0.13135782150E+02  0.79547789235E+02  0.17331990882E+03  0.15294330000E+03 0.  0.
<mgrwt>
<rscale>  0 0.45811920E+03</rscale>
<asrwt>0</asrwt>
<pdfrwt beam="1">  1        2 0.56608940E+00 0.65888580E+03</pdfrwt>
<pdfrwt beam="2">  1       -2 0.24047766E-01 0.65888580E+03</pdfrwt>
<totfact> 0.10293030E+01</totfact>
</mgrwt>
</event>
<event>
 4    1  0.7280516E-007  0.6998138E+03  0.7818608E-02  0.9997975E-01
          2   -1    0    0  501    0  0.00000000000E+00  0.00000000000E+00  0.85829207877E+02  0.85829207915E+02  0.25500000000E-02 0. -1.
         -2   -1    0    0    0  501 -0.00000000000E+00 -0.00000000000E+00 -0.28383359741E+04  0.28383359741E+04  0.25500000000E-02 0.  1.
    8880023    1    1    2    0    0 -0.23649300464E+03  0.38424590724E+00 -0.20978814586E+04  0.22115256973E+04  0.65864270000E+03 0. -1.
    8880022    1    1    2    0    0  0.23649300464E+03 -0.38424590724E+00 -0.65462530758E+03  0.71263948475E+03  0.15294330000E+03 0. -1.
<mgrwt>
<rscale>  0 0.55739132E+03</rscale>
<asrwt>0</asrwt>
<pdfrwt beam="1">  1        2 0.13204496E-01 0.69981376E+03</pdfrwt>
<pdfrwt beam="2">  1       -2 0.43666700E+00 0.69981376E+03</pdfrwt>
<totfact> 0.21403779E+00</totfact>
</mgrwt>
</event>
<event>
 4    1  0.7280516E-007  0.7196521E+03  0.7818608E-02  0.9923765E-01
          2   -1    0    0  501    0  0.00000000000E+00  0.00000000000E+00  0.22648929733E+04  0.22648929733E+04  0.25500000000E-02 0. -1.
         -2   -1    0    0    0  501 -0.00000000000E+00 -0.00000000000E+00 -0.13781599701E+03  0.13781599703E+03  0.25500000000E-02 0.  1.
    8880023    1    1    2    0    0  0.72331478803E+01 -0.28989062989E+03  0.18048020328E+04  0.19429898301E+04  0.65864270000E+03 0.  0.
    8880022    1    1    2    0    0 -0.72331478803E+01  0.28989062989E+03  0.32227494341E+03  0.45971914022E+03  0.15294330000E+03 0.  0.
<mgrwt>
<rscale>  0 0.59123232E+03</rscale>
<asrwt>0</asrwt>
<pdfrwt beam="1">  1        2 0.34844504E+00 0.71965207E+03</pdfrwt>
<pdfrwt beam="2">  1       -2 0.21202463E-01 0.71965207E+03</pdfrwt>
<totfact> 0.94657137E+01</totfact>
</mgrwt>
</event>
<event>
 4    1  0.7280516E-007  0.7219426E+03  0.7818608E-02  0.9916067E-01
         -2   -1    0    0    0  501 -0.00000000000E+00  0.00000000000E+00  0.35395845902E+03  0.35395845903E+03  0.25500000000E-02 0.  1.
          2   -1    0    0  501    0  0.00000000000E+00 -0.00000000000E+00 -0.90768698691E+03  0.90768698691E+03  0.25500000000E-02 0. -1.
    8880023    1    1    2    0    0 -0.43231675234E+02 -0.29244131633E+03 -0.58240016927E+03  0.92757267352E+03  0.65864270000E+03 0. -1.
    8880022    1    1    2    0    0  0.43231675234E+02  0.29244131633E+03  0.28671641379E+02  0.33407277242E+03  0.15294330000E+03 0.  0.
<mgrwt>
<rscale>  0 0.59488898E+03</rscale>
<asrwt>0</asrwt>
<pdfrwt beam="1">  1        2 0.13964415E+00 0.72194259E+03</pdfrwt>
<pdfrwt beam="2">  1       -2 0.54455148E-01 0.72194259E+03</pdfrwt>
<totfact> 0.93360487E+01</totfact>
</mgrwt>
</event>
<event>
 4    1  0.7280516E-007  0.7819766E+03  0.7818608E-02  0.9751214E-01
         -2   -1    0    0    0  501 -0.00000000000E+00  0.00000000000E+00  0.96359238034E+03  0.96359238034E+03  0.25500000000E-02 0.  1.
          2   -1    0    0  501    0  0.00000000000E+00 -0.00000000000E+00 -0.72006902314E+03  0.72006902314E+03  0.25500000000E-02 0. -1.
    8880023    1    1    2    0    0  0.41374677389E+03 -0.80565754473E+02 -0.41630513809E+03  0.88588792065E+03  0.65864270000E+03 0.  0.
    8880022    1    1    2    0    0 -0.41374677389E+03  0.80565754473E+02  0.65982849529E+03  0.79777348283E+03  0.15294330000E+03 0.  0.
<mgrwt>
<rscale>  0 0.68047698E+03</rscale>
<asrwt>0</asrwt>
<pdfrwt beam="1">  1        2 0.11077985E+00 0.78197662E+03</pdfrwt>
<pdfrwt beam="2">  1       -2 0.14824498E+00 0.78197662E+03</pdfrwt>
<totfact> 0.12363025E+01</totfact>
</mgrwt>
</event>
<event>
 4    1  0.7280516E-007  0.8366236E+03  0.7818608E-02  0.9636580E-01
         -2   -1    0    0    0  501 -0.00000000000E+00  0.00000000000E+00  0.84703883674E+03  0.84703883674E+03  0.25500000000E-02 0.  1.
          2   -1    0    0  501    0  0.00000000000E+00 -0.00000000000E+00 -0.73733260594E+03  0.73733260595E+03  0.25500000000E-02 0. -1.
    8880023    1    1    2    0    0 -0.15600141142E+03 -0.49172389507E+03 -0.32003986632E+03  0.89574804027E+03  0.65864270000E+03 0. -1.
    8880022    1    1    2    0    0  0.15600141142E+03  0.49172389507E+03  0.42974609712E+03  0.68862340242E+03  0.15294330000E+03 0.  0.
<mgrwt>
<rscale>  0 0.74921677E+03</rscale>
<asrwt>0</asrwt>
<pdfrwt beam="1">  1        2 0.11343579E+00 0.83662359E+03</pdfrwt>
<pdfrwt beam="2">  1       -2 0.13031367E+00 0.83662359E+03</pdfrwt>
<totfact> 0.16652194E+01</totfact>
</mgrwt>
</event>
<event>
 4    1  0.7280516E-007  0.6844818E+03  0.7818608E-02  0.1006894E+00
          2   -1    0    0  501    0  0.00000000000E+00  0.00000000000E+00  0.68939405231E+03  0.68939405232E+03  0.25500000000E-02 0. -1.
         -2   -1    0    0    0  501 -0.00000000000E+00 -0.00000000000E+00 -0.49669216270E+03  0.49669216271E+03  0.25500000000E-02 0.  1.
    8880023    1    1    2    0    0 -0.11842237204E+03 -0.14380985216E+03  0.46113049586E+03  0.82532216271E+03  0.65864270000E+03 0. -1.
    8880022    1    1    2    0    0  0.11842237204E+03  0.14380985216E+03 -0.26842860625E+03  0.36076405232E+03  0.15294330000E+03 0.  0.
<mgrwt>
<rscale>  0 0.52727896E+03</rscale>
<asrwt>0</asrwt>
<pdfrwt beam="1">  1        2 0.10606062E+00 0.68448180E+03</pdfrwt>
<pdfrwt beam="2">  1       -2 0.76414179E-01 0.68448180E+03</pdfrwt>
<totfact> 0.65101629E+01</totfact>
</mgrwt>
</event>
<event>
 4    1  0.7280516E-007  0.1039278E+04  0.7818608E-02  0.9331884E-01
          2   -1    0    0  501    0  0.00000000000E+00  0.00000000000E+00  0.83724264337E+03  0.83724264337E+03  0.25500000000E-02 0. -1.
         -2   -1    0    0    0  501 -0.00000000000E+00 -0.00000000000E+00 -0.11972331437E+04  0.11972331437E+04  0.25500000000E-02 0.  1.
    8880023    1    1    2    0    0  0.71676386327E+03  0.36405674966E+03  0.17900397313E+03  0.10545806661E+04  0.65864270000E+03 0.  0.
    8880022    1    1    2    0    0 -0.71676386327E+03 -0.36405674966E+03 -0.53899447347E+03  0.97989512098E+03  0.15294330000E+03 0.  0.
<mgrwt>
<rscale>  0 0.97899855E+03</rscale>
<asrwt>0</asrwt>
<pdfrwt beam="1">  1        2 0.12880656E+00 0.10392776E+04</pdfrwt>
<pdfrwt beam="2">  1       -2 0.18418972E+00 0.10392776E+04</pdfrwt>
<totfact> 0.54336799E+00</totfact>
</mgrwt>
</event>
<event>
 4    1  0.7280516E-007  0.8685163E+03  0.7818608E-02  0.9578590E-01
         -2   -1    0    0    0  501 -0.00000000000E+00  0.00000000000E+00  0.57534865198E+03  0.57534865199E+03  0.25500000000E-02 0.  1.
          2   -1    0    0  501    0  0.00000000000E+00 -0.00000000000E+00 -0.15906893014E+04  0.15906893014E+04  0.25500000000E-02 0. -1.
    8880023    1    1    2    0    0 -0.64371509723E+02  0.56246488722E+03 -0.12602342407E+04  0.15305263762E+04  0.65864270000E+03 0.  0.
    8880022    1    1    2    0    0  0.64371509723E+02 -0.56246488722E+03  0.24489359130E+03  0.63551157715E+03  0.15294330000E+03 0.  0.
<mgrwt>
<rscale>  0 0.78729565E+03</rscale>
<asrwt>0</asrwt>
<pdfrwt beam="1">  1        2 0.24472143E+00 0.86851635E+03</pdfrwt>
<pdfrwt beam="2">  1       -2 0.88515178E-01 0.86851635E+03</pdfrwt>
<totfact> 0.12532421E+01</totfact>
</mgrwt>
</event>
<event>
 4    1  0.7280516E-007  0.6899736E+03  0.7818608E-02  0.1004165E+00
         -2   -1    0    0    0  501 -0.00000000000E+00  0.00000000000E+00  0.23987470678E+03  0.23987470680E+03  0.25500000000E-02 0.  1.
          2   -1    0    0  501    0  0.00000000000E+00 -0.00000000000E+00 -0.14615118327E+04  0.14615118327E+04  0.25500000000E-02 0. -1.
    8880023    1    1    2    0    0 -0.17707289378E+03 -0.10439640571E+03 -0.12655705881E+04  0.14414341951E+04  0.65864270000E+03 0.  0.
    8880022    1    1    2    0    0  0.17707289378E+03  0.10439640571E+03  0.43933462141E+02  0.25995234438E+03  0.15294330000E+03 0.  1.
<mgrwt>
<rscale>  0 0.53861028E+03</rscale>
<asrwt>0</asrwt>
<pdfrwt beam="1">  1        2 0.22484797E+00 0.68997364E+03</pdfrwt>
<pdfrwt beam="2">  1       -2 0.36903802E-01 0.68997364E+03</pdfrwt>
<totfact> 0.94551005E+01</totfact>
</mgrwt>
</event>
<event>
 4    1  0.7280516E-007  0.8233473E+03  0.7818608E-02  0.9662418E-01
          2   -1    0    0  501    0  0.00000000000E+00  0.00000000000E+00  0.80484562162E+03  0.80484562163E+03  0.25500000000E-02 0. -1.
         -2   -1    0    0    0  501 -0.00000000000E+00 -0.00000000000E+00 -0.93652494055E+03  0.93652494056E+03  0.25500000000E-02 0.  1.
    8880023    1    1    2    0    0 -0.41479064198E+03 -0.26840125512E+03  0.46992750493E+03  0.94801507191E+03  0.65864270000E+03 0. -1.
    8880022    1    1    2    0    0  0.41479064198E+03  0.26840125512E+03 -0.60160682386E+03  0.79335549027E+03  0.15294330000E+03 0.  0.
<mgrwt>
<rscale>  0 0.73299184E+03</rscale>
<asrwt>0</asrwt>
<pdfrwt beam="1">  1        2 0.12382240E+00 0.82334726E+03</pdfrwt>
<pdfrwt beam="2">  1       -2 0.14408076E+00 0.82334726E+03</pdfrwt>
<totfact> 0.11476868E+01</totfact>
</mgrwt>
</event>
<event>
 4    1  0.7280516E-007  0.7783075E+03  0.7818608E-02  0.9759828E-01
         -2   -1    0    0    0  501 -0.00000000000E+00  0.00000000000E+00  0.23327469943E+03  0.23327469945E+03  0.25500000000E-02 0.  1.
          2   -1    0    0  501    0  0.00000000000E+00 -0.00000000000E+00 -0.41644875163E+04  0.41644875163E+04  0.25500000000E-02 0. -1.
    8880023    1    1    2    0    0  0.20228957076E+03  0.36198246843E+03 -0.38748060120E+04  0.39521999209E+04  0.65864270000E+03 0. -1.
    8880022    1    1    2    0    0 -0.20228957076E+03 -0.36198246843E+03 -0.56406804807E+02  0.44556229479E+03  0.15294330000E+03 0.  0.
<mgrwt>
<rscale>  0 0.67563702E+03</rscale>
<asrwt>0</asrwt>
<pdfrwt beam="1">  1        2 0.64069033E+00 0.77830751E+03</pdfrwt>
<pdfrwt beam="2">  1       -2 0.35888418E-01 0.77830751E+03</pdfrwt>
<totfact> 0.20217737E+00</totfact>
</mgrwt>
</event>
<event>
 4    1  0.7280516E-007  0.8429820E+03  0.7818608E-02  0.9624583E-01
         -2   -1    0    0    0  501 -0.00000000000E+00  0.00000000000E+00  0.19794191163E+03  0.19794191165E+03  0.25500000000E-02 0.  1.
          2   -1    0    0  501    0  0.00000000000E+00 -0.00000000000E+00 -0.25926607166E+04  0.25926607166E+04  0.25500000000E-02 0. -1.
    8880023    1    1    2    0    0 -0.62619074218E+02  0.52238622585E+03 -0.17644120963E+04  0.19554459259E+04  0.65864270000E+03 0.  0.
    8880022    1    1    2    0    0  0.62619074218E+02 -0.52238622585E+03 -0.63030670866E+03  0.83515670231E+03  0.15294330000E+03 0.  0.
<mgrwt>
<rscale>  0 0.75690280E+03</rscale>
<asrwt>0</asrwt>
<pdfrwt beam="1">  1        2 0.39887085E+00 0.84298204E+03</pdfrwt>
<pdfrwt beam="2">  1       -2 0.30452604E-01 0.84298204E+03</pdfrwt>
<totfact> 0.31626607E+01</totfact>
</mgrwt>
</event>
<event>
 4    1  0.7280516E-007  0.6652568E+03  0.7818608E-02  0.1019319E+00
          2   -1    0    0  501    0  0.00000000000E+00  0.00000000000E+00  0.94344695163E+03  0.94344695163E+03  0.25500000000E-02 0. -1.
         -2   -1    0    0    0  501 -0.00000000000E+00 -0.00000000000E+00 -0.35461940246E+03  0.35461940247E+03  0.25500000000E-02 0.  1.
    8880023    1    1    2    0    0 -0.91777131180E+02  0.18256785135E+02  0.78721120707E+03  0.10306638845E+04  0.65864270000E+03 0. -1.
    8880022    1    1    2    0    0  0.91777131180E+02 -0.18256785135E+02 -0.19838365791E+03  0.26740246960E+03  0.15294330000E+03 0.  0.
<mgrwt>
<rscale>  0 0.47933178E+03</rscale>
<asrwt>0</asrwt>
<pdfrwt beam="1">  1        2 0.14514568E+00 0.66525676E+03</pdfrwt>
<pdfrwt beam="2">  1       -2 0.54556831E-01 0.66525676E+03</pdfrwt>
<totfact> 0.88464131E+01</totfact>
</mgrwt>
</event>
<event>
 4    1  0.7280516E-007  0.7972455E+03  0.7818608E-02  0.9716784E-01
          2   -1    0    0  501    0  0.00000000000E+00  0.00000000000E+00  0.89712841997E+03  0.89712841997E+03  0.25500000000E-02 0. -1.
         -2   -1    0    0    0  501 -0.00000000000E+00 -0.00000000000E+00 -0.48605527501E+03  0.48605527502E+03  0.25500000000E-02 0.  1.
    8880023    1    1    2    0    0 -0.44710189678E+03  0.43475042653E+02  0.43471373398E+03  0.90806190439E+03  0.65864270000E+03 0.  1.
    8880022    1    1    2    0    0  0.44710189678E+03 -0.43475042653E+02 -0.23640589021E+02  0.47512179060E+03  0.15294330000E+03 0.  0.
<mgrwt>
<rscale>  0 0.70026227E+03</rscale>
<asrwt>0</asrwt>
<pdfrwt beam="1">  1        2 0.13801975E+00 0.79724550E+03</pdfrwt>
<pdfrwt beam="2">  1       -2 0.74777736E-01 0.79724550E+03</pdfrwt>
<totfact> 0.47846657E+01</totfact>
</mgrwt>
</event>
<event>
 4    1  0.7280516E-007  0.1186657E+04  0.7818608E-02  0.9170203E-01
         -2   -1    0    0    0  501 -0.00000000000E+00  0.00000000000E+00  0.13479796725E+04  0.13479796725E+04  0.25500000000E-02 0.  1.
          2   -1    0    0  501    0  0.00000000000E+00 -0.00000000000E+00 -0.13552290994E+04  0.13552290994E+04  0.25500000000E-02 0. -1.
    8880023    1    1    2    0    0 -0.65802791691E+03 -0.73576117056E+03 -0.79732845217E+03  0.14296461473E+04  0.65864270000E+03 0.  0.
    8880022    1    1    2    0    0  0.65802791691E+03  0.73576117056E+03  0.79007902533E+03  0.12735626246E+04  0.15294330000E+03 0.  0.
<mgrwt>
<rscale>  0 0.11366349E+04</rscale>
<asrwt>0</asrwt>
<pdfrwt beam="1">  1        2 0.20849678E+00 0.11866573E+04</pdfrwt>
<pdfrwt beam="2">  1       -2 0.20738149E+00 0.11866573E+04</pdfrwt>
<totfact> 0.17764391E+00</totfact>
</mgrwt>
</event>
<event>
 4    1  0.7280516E-007  0.7420603E+03  0.7818608E-02  0.9853986E-01
         -2   -1    0    0    0  501 -0.00000000000E+00  0.00000000000E+00  0.98532826569E+03  0.98532826569E+03  0.25500000000E-02 0.  1.
          2   -1    0    0  501    0  0.00000000000E+00 -0.00000000000E+00 -0.12218496482E+04  0.12218496482E+04  0.25500000000E-02 0. -1.
    8880023    1    1    2    0    0  0.32104759534E+03  0.11735321676E+03 -0.10649810910E+04  0.12980131996E+04  0.65864270000E+03 0. -1.
    8880022    1    1    2    0    0 -0.32104759534E+03 -0.11735321676E+03  0.82845970852E+03  0.90916471424E+03  0.15294330000E+03 0.  0.
<mgrwt>
<rscale>  0 0.62544117E+03</rscale>
<asrwt>0</asrwt>
<pdfrwt beam="1">  1        2 0.18797687E+00 0.74206034E+03</pdfrwt>
<pdfrwt beam="2">  1       -2 0.15158896E+00 0.74206034E+03</pdfrwt>
<totfact> 0.54777301E+00</totfact>
</mgrwt>
</event>
<event>
 4    1  0.7280516E-007  0.7559239E+03  0.7818608E-02  0.9815777E-01
         -2   -1    0    0    0  501 -0.00000000000E+00  0.00000000000E+00  0.34239265167E+03  0.34239265167E+03  0.25500000000E-02 0.  1.
          2   -1    0    0  501    0  0.00000000000E+00 -0.00000000000E+00 -0.33241004322E+04  0.33241004322E+04  0.25500000000E-02 0. -1.
    8880023    1    1    2    0    0  0.32035080199E+03  0.18704589827E+03 -0.31440486972E+04  0.32336455002E+04  0.65864270000E+03 0.  0.
    8880022    1    1    2    0    0 -0.32035080199E+03 -0.18704589827E+03  0.16234091671E+03  0.43284758362E+03  0.15294330000E+03 0.  0.
<mgrwt>
<rscale>  0 0.64522716E+03</rscale>
<asrwt>0</asrwt>
<pdfrwt beam="1">  1        2 0.51140005E+00 0.75592395E+03</pdfrwt>
<pdfrwt beam="2">  1       -2 0.52675795E-01 0.75592395E+03</pdfrwt>
<totfact> 0.39302827E+00</totfact>
</mgrwt>
</event>
<event>
 4    1  0.7280516E-007  0.9107128E+03  0.7818608E-02  0.9509048E-01
          2   -1    0    0  501    0  0.00000000000E+00  0.00000000000E+00  0.70947354357E+03  0.70947354358E+03  0.25500000000E-02 0. -1.
         -2   -1    0    0    0  501 -0.00000000000E+00 -0.00000000000E+00 -0.11418635577E+04  0.11418635577E+04  0.25500000000E-02 0.  1.
    8880023    1    1    2    0    0 -0.62746244214E+03 -0.43342121044E+02  0.21512338015E+03  0.93577557710E+03  0.65864270000E+03 0. -1.
    8880022    1    1    2    0    0  0.62746244214E+03  0.43342121044E+02 -0.64751339425E+03  0.91556152415E+03  0.15294330000E+03 0.  0.
<mgrwt>
<rscale>  0 0.83620000E+03</rscale>
<asrwt>0</asrwt>
<pdfrwt beam="1">  1        2 0.10914978E+00 0.91071283E+03</pdfrwt>
<pdfrwt beam="2">  1       -2 0.17567132E+00 0.91071283E+03</pdfrwt>
<totfact> 0.78333170E+00</totfact>
</mgrwt>
</event>
<event>
 4    1  0.7280516E-007  0.9874513E+03  0.7818608E-02  0.9398162E-01
          2   -1    0    0  501    0  0.00000000000E+00  0.00000000000E+00  0.21189745547E+04  0.21189745547E+04  0.25500000000E-02 0. -1.
         -2   -1    0    0    0  501 -0.00000000000E+00 -0.00000000000E+00 -0.61366554322E+03  0.61366554322E+03  0.25500000000E-02 0.  1.
    8880023    1    1    2    0    0  0.10767795183E+03 -0.72777417077E+03  0.16913729295E+04  0.19585204563E+04  0.65864270000E+03 0. -1.
    8880022    1    1    2    0    0 -0.10767795183E+03  0.72777417077E+03 -0.18606391800E+03  0.77411964162E+03  0.15294330000E+03 0.  0.
<mgrwt>
<rscale>  0 0.92227056E+03</rscale>
<asrwt>0</asrwt>
<pdfrwt beam="1">  1        2 0.32599608E+00 0.98745126E+03</pdfrwt>
<pdfrwt beam="2">  1       -2 0.94410084E-01 0.98745126E+03</pdfrwt>
<totfact> 0.54451660E+00</totfact>
</mgrwt>
</event>
<event>
 4    1  0.7280516E-007  0.7445372E+03  0.7818608E-02  0.9846922E-01
         -2   -1    0    0    0  501 -0.00000000000E+00  0.00000000000E+00  0.14549556791E+03  0.14549556794E+03  0.25500000000E-02 0.  1.
          2   -1    0    0  501    0  0.00000000000E+00 -0.00000000000E+00 -0.37244603035E+04  0.37244603035E+04  0.25500000000E-02 0. -1.
    8880023    1    1    2    0    0  0.34072795538E+03  0.66557548483E+02 -0.33391491845E+04  0.34211478965E+04  0.65864270000E+03 0. -1.
    8880022    1    1    2    0    0 -0.34072795538E+03 -0.66557548483E+02 -0.23981555105E+03  0.44880797495E+03  0.15294330000E+03 0.  0.
<mgrwt>
<rscale>  0 0.62904086E+03</rscale>
<asrwt>0</asrwt>
<pdfrwt beam="1">  1        2 0.57299382E+00 0.74453721E+03</pdfrwt>
<pdfrwt beam="2">  1       -2 0.22383936E-01 0.74453721E+03</pdfrwt>
<totfact> 0.10665679E+01</totfact>
</mgrwt>
</event>
<event>
 4    1  0.7280516E-007  0.1237801E+04  0.7818608E-02  0.9121225E-01
          2   -1    0    0  501    0  0.00000000000E+00  0.00000000000E+00  0.95158664838E+03  0.95158664839E+03  0.25500000000E-02 0. -1.
         -2   -1    0    0    0  501 -0.00000000000E+00 -0.00000000000E+00 -0.16909893735E+04  0.16909893735E+04  0.25500000000E-02 0.  1.
    8880023    1    1    2    0    0  0.54204242241E+03  0.89695627528E+03  0.16641068076E+03  0.12489368552E+04  0.65864270000E+03 0.  0.
    8880022    1    1    2    0    0 -0.54204242241E+03 -0.89695627528E+03 -0.90581340583E+03  0.13936391666E+04  0.15294330000E+03 0.  0.
<mgrwt>
<rscale>  0 0.11904858E+04</rscale>
<asrwt>0</asrwt>
<pdfrwt beam="1">  1        2 0.14639795E+00 0.12378008E+04</pdfrwt>
<pdfrwt beam="2">  1       -2 0.26015221E+00 0.12378008E+04</pdfrwt>
<totfact> 0.14650086E+00</totfact>
</mgrwt>
</event>
<event>
 4    1  0.7280516E-007  0.1747205E+04  0.7818608E-02  0.8752317E-01
          2   -1    0    0  501    0  0.00000000000E+00  0.00000000000E+00  0.14508356305E+04  0.14508356305E+04  0.25500000000E-02 0. -1.
         -2   -1    0    0    0  501 -0.00000000000E+00 -0.00000000000E+00 -0.22240324797E+04  0.22240324797E+04  0.25500000000E-02 0.  1.
    8880023    1    1    2    0    0 -0.11733576092E+04  0.11145167949E+04  0.23369535911E+03  0.17627647297E+04  0.65864270000E+03 0.  0.
    8880022    1    1    2    0    0  0.11733576092E+04 -0.11145167949E+04 -0.10068922083E+04  0.19121033804E+04  0.15294330000E+03 0.  0.
<mgrwt>
<rscale>  0 0.17159548E+04</rscale>
<asrwt>0</asrwt>
<pdfrwt beam="1">  1        2 0.22320548E+00 0.17472052E+04</pdfrwt>
<pdfrwt beam="2">  1       -2 0.34215884E+00 0.17472052E+04</pdfrwt>
<totfact> 0.21664974E-01</totfact>
</mgrwt>
</event>
<event>
 4    1  0.7280516E-007  0.1240353E+04  0.7818608E-02  0.9118860E-01
          2   -1    0    0  501    0  0.00000000000E+00  0.00000000000E+00  0.14034108867E+04  0.14034108867E+04  0.25500000000E-02 0. -1.
         -2   -1    0    0    0  501 -0.00000000000E+00 -0.00000000000E+00 -0.15841976762E+04  0.15841976762E+04  0.25500000000E-02 0.  1.
    8880023    1    1    2    0    0  0.97645001637E+03  0.38885964584E+03  0.85308279495E+03  0.15053992560E+04  0.65864270000E+03 0. -1.
    8880022    1    1    2    0    0 -0.97645001637E+03 -0.38885964584E+03 -0.10338695844E+04  0.14822093068E+04  0.15294330000E+03 0.  0.
<mgrwt>
<rscale>  0 0.11931651E+04</rscale>
<asrwt>0</asrwt>
<pdfrwt beam="1">  1        2 0.21590937E+00 0.12403534E+04</pdfrwt>
<pdfrwt beam="2">  1       -2 0.24372272E+00 0.12403534E+04</pdfrwt>
<totfact> 0.97854191E-01</totfact>
</mgrwt>
</event>
<event>
 4    1  0.7280516E-007  0.7345835E+03  0.7818608E-02  0.9876015E-01
         -2   -1    0    0    0  501 -0.00000000000E+00  0.00000000000E+00  0.20813172371E+03  0.20813172373E+03  0.25500000000E-02 0.  1.
          2   -1    0    0  501    0  0.00000000000E+00 -0.00000000000E+00 -0.25008069781E+04  0.25008069781E+04  0.25500000000E-02 0. -1.
    8880023    1    1    2    0    0  0.31513830463E+03  0.80564141366E+02 -0.22250801647E+04  0.23432018004E+04  0.65864270000E+03 0. -1.
    8880022    1    1    2    0    0 -0.31513830463E+03 -0.80564141366E+02 -0.67595089750E+02  0.36573690146E+03  0.15294330000E+03 0.  0.
<mgrwt>
<rscale>  0 0.61437896E+03</rscale>
<asrwt>0</asrwt>
<pdfrwt beam="1">  1        2 0.38473951E+00 0.73458351E+03</pdfrwt>
<pdfrwt beam="2">  1       -2 0.32020267E-01 0.73458351E+03</pdfrwt>
<totfact> 0.32973508E+01</totfact>
</mgrwt>
</event>
<event>
 4    1  0.7280516E-007  0.7131451E+03  0.7818608E-02  0.9946502E-01
          2   -1    0    0  501    0  0.00000000000E+00  0.00000000000E+00  0.20676765765E+04  0.20676765765E+04  0.25500000000E-02 0. -1.
         -2   -1    0    0    0  501 -0.00000000000E+00 -0.00000000000E+00 -0.19298366807E+03  0.19298366809E+03  0.25500000000E-02 0.  1.
    8880023    1    1    2    0    0  0.79334038962E+02  0.26167113473E+03  0.18034919642E+04  0.19393708113E+04  0.65864270000E+03 0. -1.
    8880022    1    1    2    0    0 -0.79334038962E+02 -0.26167113473E+03  0.71200944261E+02  0.32128943333E+03  0.15294330000E+03 0.  0.
<mgrwt>
<rscale>  0 0.58059561E+03</rscale>
<asrwt>0</asrwt>
<pdfrwt beam="1">  1        2 0.31810410E+00 0.71314506E+03</pdfrwt>
<pdfrwt beam="2">  1       -2 0.29689794E-01 0.71314506E+03</pdfrwt>
<totfact> 0.66208626E+01</totfact>
</mgrwt>
</event>
<event>
 4    1  0.7280516E-007  0.6707303E+03  0.7818608E-02  0.1015145E+00
          2   -1    0    0  501    0  0.00000000000E+00  0.00000000000E+00  0.10851355035E+04  0.10851355035E+04  0.25500000000E-02 0. -1.
         -2   -1    0    0    0  501 -0.00000000000E+00 -0.00000000000E+00 -0.40231244502E+03  0.40231244502E+03  0.25500000000E-02 0.  1.
    8880023    1    1    2    0    0 -0.12506494053E+03  0.20680291076E+02  0.94479964134E+03  0.11586740190E+04  0.65864270000E+03 0. -1.
    8880022    1    1    2    0    0  0.12506494053E+03 -0.20680291076E+02 -0.26197658283E+03  0.32877392955E+03  0.15294330000E+03 0.  0.
<mgrwt>
<rscale>  0 0.49480189E+03</rscale>
<asrwt>0</asrwt>
<pdfrwt beam="1">  1        2 0.16694392E+00 0.67073029E+03</pdfrwt>
<pdfrwt beam="2">  1       -2 0.61894223E-01 0.67073029E+03</pdfrwt>
<totfact> 0.55232176E+01</totfact>
</mgrwt>
</event>
<event>
 4    1  0.7280516E-007  0.6722674E+03  0.7818608E-02  0.1014087E+00
         -2   -1    0    0    0  501 -0.00000000000E+00  0.00000000000E+00  0.28902081849E+03  0.28902081850E+03  0.25500000000E-02 0.  1.
          2   -1    0    0  501    0  0.00000000000E+00 -0.00000000000E+00 -0.18056418047E+04  0.18056418047E+04  0.25500000000E-02 0. -1.
    8880023    1    1    2    0    0  0.81362867510E+02 -0.10730040955E+03 -0.16952467745E+04  0.18236790087E+04  0.65864270000E+03 0. -1.
    8880022    1    1    2    0    0 -0.81362867510E+02  0.10730040955E+03  0.17862578825E+03  0.27098361453E+03  0.15294330000E+03 0.  0.
<mgrwt>
<rscale>  0 0.49882153E+03</rscale>
<asrwt>0</asrwt>
<pdfrwt beam="1">  1        2 0.27779104E+00 0.67226743E+03</pdfrwt>
<pdfrwt beam="2">  1       -2 0.44464742E-01 0.67226743E+03</pdfrwt>
<totfact> 0.42625420E+01</totfact>
</mgrwt>
</event>
<event>
 4    1  0.7280516E-007  0.6613032E+03  0.7818608E-02  0.1022859E+00
         -2   -1    0    0    0  501 -0.00000000000E+00  0.00000000000E+00  0.15300340671E+04  0.15300340671E+04  0.25500000000E-02 0.  1.
          2   -1    0    0  501    0  0.00000000000E+00 -0.00000000000E+00 -0.19335946157E+03  0.19335946159E+03  0.25500000000E-02 0. -1.
    8880023    1    1    2    0    0  0.17565916739E+02  0.56596710901E+02  0.40085609776E+03  0.77330948946E+03  0.65864270000E+03 0. -1.
    8880022    1    1    2    0    0 -0.17565916739E+02 -0.56596710901E+02  0.93581850773E+03  0.95008403920E+03  0.15294330000E+03 0.  0.
<mgrwt>
<rscale>  0 0.46668773E+03</rscale>
<asrwt>0</asrwt>
<pdfrwt beam="1">  1        2 0.29747611E-01 0.66130322E+03</pdfrwt>
<pdfrwt beam="2">  1       -2 0.23538985E+00 0.66130322E+03</pdfrwt>
<totfact> 0.14670485E+01</totfact>
</mgrwt>
</event>
<event>
 4    1  0.7280516E-007  0.6992309E+03  0.7818608E-02  0.1000041E+00
         -2   -1    0    0    0  501 -0.00000000000E+00  0.00000000000E+00  0.15123946661E+03  0.15123946663E+03  0.25500000000E-02 0.  1.
          2   -1    0    0  501    0  0.00000000000E+00 -0.00000000000E+00 -0.21670530411E+04  0.21670530411E+04  0.25500000000E-02 0. -1.
    8880023    1    1    2    0    0  0.17999261151E+03  0.15071952019E+03 -0.18821843833E+04  0.20078700090E+04  0.65864270000E+03 0.  0.
    8880022    1    1    2    0    0 -0.17999261151E+03 -0.15071952019E+03 -0.13362919117E+03  0.31042249872E+03  0.15294330000E+03 0.  0.
<mgrwt>
<rscale>  0 0.55632413E+03</rscale>
<asrwt>0</asrwt>
<pdfrwt beam="1">  1        2 0.33339275E+00 0.69923095E+03</pdfrwt>
<pdfrwt beam="2">  1       -2 0.23267612E-01 0.69923095E+03</pdfrwt>
<totfact> 0.91106701E+01</totfact>
</mgrwt>
</event>
<event>
 4    1  0.7280516E-007  0.7773282E+03  0.7818608E-02  0.9762151E-01
          2   -1    0    0  501    0  0.00000000000E+00  0.00000000000E+00  0.20841162989E+04  0.20841162989E+04  0.25500000000E-02 0. -1.
         -2   -1    0    0    0  501 -0.00000000000E+00 -0.00000000000E+00 -0.41869191198E+03  0.41869191199E+03  0.25500000000E-02 0.  1.
    8880023    1    1    2    0    0 -0.37644497278E+03  0.16946417919E+03  0.18641931881E+04  0.20197661683E+04  0.65864270000E+03 0. -1.
    8880022    1    1    2    0    0  0.37644497278E+03 -0.16946417919E+03 -0.19876880123E+03  0.48304204260E+03  0.15294330000E+03 0.  0.
<mgrwt>
<rscale>  0 0.67433904E+03</rscale>
<asrwt>0</asrwt>
<pdfrwt beam="1">  1        2 0.32063328E+00 0.77732820E+03</pdfrwt>
<pdfrwt beam="2">  1       -2 0.64414140E-01 0.77732820E+03</pdfrwt>
<totfact> 0.13788209E+01</totfact>
</mgrwt>
</event>
<event>
 4    1  0.7280516E-007  0.8969519E+03  0.7818608E-02  0.9530943E-01
         -2   -1    0    0    0  501 -0.00000000000E+00  0.00000000000E+00  0.44427132165E+03  0.44427132166E+03  0.25500000000E-02 0.  1.
          2   -1    0    0  501    0  0.00000000000E+00 -0.00000000000E+00 -0.15053697161E+04  0.15053697161E+04  0.25500000000E-02 0. -1.
    8880023    1    1    2    0    0  0.27811462129E+03 -0.54163151868E+03 -0.26396731810E+03  0.93498737740E+03  0.65864270000E+03 0.  0.
    8880022    1    1    2    0    0 -0.27811462129E+03  0.54163151868E+03 -0.79713107635E+03  0.10146536604E+04  0.15294330000E+03 0.  0.
<mgrwt>
<rscale>  0 0.82040486E+03</rscale>
<asrwt>0</asrwt>
<pdfrwt beam="1">  1        2 0.23159534E+00 0.89695187E+03</pdfrwt>
<pdfrwt beam="2">  1       -2 0.68349435E-01 0.89695187E+03</pdfrwt>
<totfact> 0.24873366E+01</totfact>
</mgrwt>
</event>
<event>
 4    1  0.7280516E-007  0.1078352E+04  0.7818608E-02  0.9285550E-01
          2   -1    0    0  501    0  0.00000000000E+00  0.00000000000E+00  0.14175869466E+04  0.14175869466E+04  0.25500000000E-02 0. -1.
         -2   -1    0    0    0  501 -0.00000000000E+00 -0.00000000000E+00 -0.13275558037E+04  0.13275558037E+04  0.25500000000E-02 0.  1.
    8880023    1    1    2    0    0 -0.67199389732E+03  0.52674147380E+03  0.10122951701E+04  0.14790483751E+04  0.65864270000E+03 0.  0.
    8880022    1    1    2    0    0  0.67199389732E+03 -0.52674147380E+03 -0.92226402709E+03  0.12660943752E+04  0.15294330000E+03 0.  0.
<mgrwt>
<rscale>  0 0.10212409E+04</rscale>
<asrwt>0</asrwt>
<pdfrwt beam="1">  1        2 0.21809030E+00 0.10783518E+04</pdfrwt>
<pdfrwt beam="2">  1       -2 0.20423935E+00 0.10783518E+04</pdfrwt>
<totfact> 0.17353969E+00</totfact>
</mgrwt>
</event>
<event>
 4    1  0.7280516E-007  0.1024637E+04  0.7818608E-02  0.9350012E-01
          2   -1    0    0  501    0  0.00000000000E+00  0.00000000000E+00  0.27096362566E+04  0.27096362566E+04  0.25500000000E-02 0. -1.
         -2   -1    0    0    0  501 -0.00000000000E+00 -0.00000000000E+00 -0.48208980709E+03  0.48208980709E+03  0.25500000000E-02 0.  1.
    8880023    1    1    2    0    0  0.40225495045E+03 -0.67398895723E+03  0.21581759780E+04  0.23890592119E+04  0.65864270000E+03 0.  0.
    8880022    1    1    2    0    0 -0.40225495045E+03  0.67398895723E+03  0.69370471496E+02  0.80266685179E+03  0.15294330000E+03 0.  0.
<mgrwt>
<rscale>  0 0.96306202E+03</rscale>
<asrwt>0</asrwt>
<pdfrwt beam="1">  1        2 0.41686712E+00 0.10246367E+04</pdfrwt>
<pdfrwt beam="2">  1       -2 0.74167662E-01 0.10246367E+04</pdfrwt>
<totfact> 0.43390287E+00</totfact>
</mgrwt>
</event>
<event>
 4    1  0.7280516E-007  0.1165412E+04  0.7818608E-02  0.9191500E-01
         -2   -1    0    0    0  501 -0.00000000000E+00  0.00000000000E+00  0.10087975585E+04  0.10087975585E+04  0.25500000000E-02 0.  1.
          2   -1    0    0  501    0  0.00000000000E+00 -0.00000000000E+00 -0.13040825727E+04  0.13040825727E+04  0.25500000000E-02 0. -1.
    8880023    1    1    2    0    0 -0.96138045677E+03  0.11041274988E+02 -0.57558180108E+03  0.12997995647E+04  0.65864270000E+03 0.  0.
    8880022    1    1    2    0    0  0.96138045677E+03 -0.11041274988E+02  0.28029678690E+03  0.10130805665E+04  0.15294330000E+03 0.  0.
<mgrwt>
<rscale>  0 0.11141590E+04</rscale>
<asrwt>0</asrwt>
<pdfrwt beam="1">  1        2 0.20062809E+00 0.11654117E+04</pdfrwt>
<pdfrwt beam="2">  1       -2 0.15519962E+00 0.11654117E+04</pdfrwt>
<totfact> 0.43864382E+00</totfact>
</mgrwt>
</event>
<event>
 4    1  0.7280516E-007  0.1044594E+04  0.7818608E-02  0.9325408E-01
         -2   -1    0    0    0  501 -0.00000000000E+00  0.00000000000E+00  0.40535770523E+03  0.40535770524E+03  0.25500000000E-02 0.  1.
          2   -1    0    0  501    0  0.00000000000E+00 -0.00000000000E+00 -0.22023047491E+04  0.22023047491E+04  0.25500000000E-02 0. -1.
    8880023    1    1    2    0    0 -0.80334725120E+03  0.10954305572E+03 -0.11896691602E+04  0.15831896299E+04  0.65864270000E+03 0. -1.
    8880022    1    1    2    0    0  0.80334725120E+03 -0.10954305572E+03 -0.60727788358E+03  0.10244728244E+04  0.15294330000E+03 0.  0.
<mgrwt>
<rscale>  0 0.98476989E+03</rscale>
<asrwt>0</asrwt>
<pdfrwt beam="1">  1        2 0.33881611E+00 0.10445940E+04</pdfrwt>
<pdfrwt beam="2">  1       -2 0.62362725E-01 0.10445940E+04</pdfrwt>
<totfact> 0.12300620E+01</totfact>
</mgrwt>
</event>
<event>
 4    1  0.7280516E-007  0.6838342E+03  0.7818608E-02  0.1007233E+00
          2   -1    0    0  501    0  0.00000000000E+00  0.00000000000E+00  0.28506868694E+04  0.28506868694E+04  0.25500000000E-02 0. -1.
         -2   -1    0    0    0  501 -0.00000000000E+00 -0.00000000000E+00 -0.19144899172E+03  0.19144899174E+03  0.25500000000E-02 0.  1.
    8880023    1    1    2    0    0  0.99090238159E+02 -0.15491955189E+03  0.27122630881E+04  0.27971414351E+04  0.65864270000E+03 0. -1.
    8880022    1    1    2    0    0 -0.99090238159E+02  0.15491955189E+03 -0.53025210348E+02  0.24499442606E+03  0.15294330000E+03 0.  0.
<mgrwt>
<rscale>  0 0.52589331E+03</rscale>
<asrwt>0</asrwt>
<pdfrwt beam="1">  1        2 0.43856716E+00 0.68383415E+03</pdfrwt>
<pdfrwt beam="2">  1       -2 0.29453695E-01 0.68383415E+03</pdfrwt>
<totfact> 0.24347186E+01</totfact>
</mgrwt>
</event>
<event>
 4    1  0.7280516E-007  0.7095760E+03  0.7818608E-02  0.9959579E-01
          2   -1    0    0  501    0  0.00000000000E+00  0.00000000000E+00  0.50895018015E+03  0.50895018016E+03  0.25500000000E-02 0. -1.
         -2   -1    0    0    0  501 -0.00000000000E+00 -0.00000000000E+00 -0.50582941070E+03  0.50582941071E+03  0.25500000000E-02 0.  1.
    8880023    1    1    2    0    0 -0.32679490555E+02 -0.26195422339E+03 -0.46448481128E+01  0.70959125215E+03  0.65864270000E+03 0.  1.
    8880022    1    1    2    0    0  0.32679490555E+02  0.26195422339E+03  0.77656175598E+01  0.30518833871E+03  0.15294330000E+03 0.  1.
<mgrwt>
<rscale>  0 0.57458732E+03</rscale>
<asrwt>0</asrwt>
<pdfrwt beam="1">  1        2 0.78300028E-01 0.70957605E+03</pdfrwt>
<pdfrwt beam="2">  1       -2 0.77819909E-01 0.70957605E+03</pdfrwt>
<totfact> 0.89911712E+01</totfact>
</mgrwt>
</event>
<event>
 4    1  0.7280516E-007  0.8346757E+03  0.7818608E-02  0.9640303E-01
         -2   -1    0    0    0  501 -0.00000000000E+00  0.00000000000E+00  0.63581948644E+03  0.63581948645E+03  0.25500000000E-02 0.  1.
          2   -1    0    0  501    0  0.00000000000E+00 -0.00000000000E+00 -0.16390381126E+04  0.16390381126E+04  0.25500000000E-02 0. -1.
    8880023    1    1    2    0    0  0.71081886697E+02  0.50776047739E+03 -0.13853519230E+04  0.16173693128E+04  0.65864270000E+03 0. -1.
    8880022    1    1    2    0    0 -0.71081886697E+02 -0.50776047739E+03  0.38213329686E+03  0.65748828628E+03  0.15294330000E+03 0.  0.
<mgrwt>
<rscale>  0 0.74685168E+03</rscale>
<asrwt>0</asrwt>
<pdfrwt beam="1">  1        2 0.25215971E+00 0.83467571E+03</pdfrwt>
<pdfrwt beam="2">  1       -2 0.97818383E-01 0.83467571E+03</pdfrwt>
<totfact> 0.93747600E+00</totfact>
</mgrwt>
</event>
<event>
 4    1  0.7280516E-007  0.6903029E+03  0.7818608E-02  0.1004009E+00
         -2   -1    0    0    0  501 -0.00000000000E+00  0.00000000000E+00  0.26436127985E+03  0.26436127986E+03  0.25500000000E-02 0.  1.
          2   -1    0    0  501    0  0.00000000000E+00 -0.00000000000E+00 -0.16513337477E+04  0.16513337477E+04  0.25500000000E-02 0. -1.
    8880023    1    1    2    0    0  0.20499812357E+03 -0.26147634678E+02 -0.14873202897E+04  0.16397072238E+04  0.65864270000E+03 0. -1.
    8880022    1    1    2    0    0 -0.20499812357E+03  0.26147634678E+02  0.10034782182E+03  0.27598780376E+03  0.15294330000E+03 0.  0.
<mgrwt>
<rscale>  0 0.53926797E+03</rscale>
<asrwt>0</asrwt>
<pdfrwt beam="1">  1        2 0.25405134E+00 0.69030293E+03</pdfrwt>
<pdfrwt beam="2">  1       -2 0.40670967E-01 0.69030293E+03</pdfrwt>
<totfact> 0.61531165E+01</totfact>
</mgrwt>
</event>
<event>
 4    1  0.7280516E-007  0.7069159E+03  0.7818608E-02  0.9969637E-01
          2   -1    0    0  501    0  0.00000000000E+00  0.00000000000E+00  0.24877002931E+04  0.24877002931E+04  0.25500000000E-02 0. -1.
         -2   -1    0    0    0  501 -0.00000000000E+00 -0.00000000000E+00 -0.22578928069E+03  0.22578928071E+03  0.25500000000E-02 0.  1.
    8880023    1    1    2    0    0  0.22938085584E+03 -0.11534408513E+03  0.23055305017E+04  0.24114727731E+04  0.65864270000E+03 0. -1.
    8880022    1    1    2    0    0 -0.22938085584E+03  0.11534408513E+03 -0.43619489340E+02  0.30201680064E+03  0.15294330000E+03 0.  0.
<mgrwt>
<rscale>  0 0.57001884E+03</rscale>
<asrwt>0</asrwt>
<pdfrwt beam="1">  1        2 0.38272313E+00 0.70691587E+03</pdfrwt>
<pdfrwt beam="2">  1       -2 0.34736812E-01 0.70691587E+03</pdfrwt>
<totfact> 0.28881564E+01</totfact>
</mgrwt>
</event>
<event>
 4    1  0.7280516E-007  0.8589491E+03  0.7818608E-02  0.9595436E-01
         -2   -1    0    0    0  501 -0.00000000000E+00  0.00000000000E+00  0.38896888644E+03  0.38896888645E+03  0.25500000000E-02 0.  1.
          2   -1    0    0  501    0  0.00000000000E+00 -0.00000000000E+00 -0.16432925168E+04  0.16432925168E+04  0.25500000000E-02 0. -1.
    8880023    1    1    2    0    0  0.17968463036E+03  0.52124540928E+03 -0.11737188175E+04  0.14544447091E+04  0.65864270000E+03 0.  0.
    8880022    1    1    2    0    0 -0.17968463036E+03 -0.52124540928E+03 -0.80604812801E+02  0.57781669407E+03  0.15294330000E+03 0.  0.
<mgrwt>
<rscale>  0 0.77599024E+03</rscale>
<asrwt>0</asrwt>
<pdfrwt beam="1">  1        2 0.25281423E+00 0.85894910E+03</pdfrwt>
<pdfrwt beam="2">  1       -2 0.59841368E-01 0.85894910E+03</pdfrwt>
<totfact> 0.27839357E+01</totfact>
</mgrwt>
</event>
<event>
 4    1  0.7280516E-007  0.8519975E+03  0.7818608E-02  0.9607960E-01
          2   -1    0    0  501    0  0.00000000000E+00  0.00000000000E+00  0.16164399409E+04  0.16164399409E+04  0.25500000000E-02 0. -1.
         -2   -1    0    0    0  501 -0.00000000000E+00 -0.00000000000E+00 -0.38567363677E+03  0.38567363678E+03  0.25500000000E-02 0.  1.
    8880023    1    1    2    0    0  0.50685020625E+03 -0.18759618866E+03  0.27817331921E+03  0.89625892651E+03  0.65864270000E+03 0.  0.
    8880022    1    1    2    0    0 -0.50685020625E+03  0.18759618866E+03  0.95259298497E+03  0.11058546512E+04  0.15294330000E+03 0.  0.
<mgrwt>
<rscale>  0 0.76771565E+03</rscale>
<asrwt>0</asrwt>
<pdfrwt beam="1">  1        2 0.24868307E+00 0.85199746E+03</pdfrwt>
<pdfrwt beam="2">  1       -2 0.59334404E-01 0.85199746E+03</pdfrwt>
<totfact> 0.29350274E+01</totfact>
</mgrwt>
</event>
<event>
 4    1  0.7280516E-007  0.6907561E+03  0.7818608E-02  0.1003795E+00
         -2   -1    0    0    0  501 -0.00000000000E+00  0.00000000000E+00  0.86992391960E+03  0.86992391960E+03  0.25500000000E-02 0.  1.
          2   -1    0    0  501    0  0.00000000000E+00 -0.00000000000E+00 -0.34329472478E+03  0.34329472479E+03  0.25500000000E-02 0. -1.
    8880023    1    1    2    0    0  0.10689364554E+03 -0.17862685690E+03  0.77481238621E+02  0.69508801893E+03  0.65864270000E+03 0. -1.
    8880022    1    1    2    0    0 -0.10689364554E+03  0.17862685690E+03  0.44914795620E+03  0.51813062545E+03  0.15294330000E+03 0.  0.
<mgrwt>
<rscale>  0 0.54016943E+03</rscale>
<asrwt>0</asrwt>
<pdfrwt beam="1">  1        2 0.52814573E-01 0.69075612E+03</pdfrwt>
<pdfrwt beam="2">  1       -2 0.13383445E+00 0.69075612E+03</pdfrwt>
<totfact> 0.38679523E+01</totfact>
</mgrwt>
</event>
<event>
 4    1  0.7280516E-007  0.7667980E+03  0.7818608E-02  0.9787816E-01
         -2   -1    0    0    0  501 -0.00000000000E+00  0.00000000000E+00  0.18040354318E+03  0.18040354320E+03  0.25500000000E-02 0.  1.
          2   -1    0    0  501    0  0.00000000000E+00 -0.00000000000E+00 -0.21990352518E+04  0.21990352518E+04  0.25500000000E-02 0. -1.
    8880023    1    1    2    0    0 -0.22630751494E+02  0.39199085289E+03 -0.89031911963E+03  0.11750094981E+04  0.65864270000E+03 0.  1.
    8880022    1    1    2    0    0  0.22630751494E+02 -0.39199085289E+03 -0.11283125890E+04  0.12044292968E+04  0.15294330000E+03 0.  0.
<mgrwt>
<rscale>  0 0.66020539E+03</rscale>
<asrwt>0</asrwt>
<pdfrwt beam="1">  1        2 0.33831310E+00 0.76679801E+03</pdfrwt>
<pdfrwt beam="2">  1       -2 0.27754393E-01 0.76679801E+03</pdfrwt>
<totfact> 0.63096629E+01</totfact>
</mgrwt>
</event>
<event>
 4    1  0.7280516E-007  0.7806094E+03  0.7818608E-02  0.9754407E-01
          2   -1    0    0  501    0  0.00000000000E+00  0.00000000000E+00  0.10080524166E+04  0.10080524166E+04  0.25500000000E-02 0. -1.
         -2   -1    0    0    0  501 -0.00000000000E+00 -0.00000000000E+00 -0.48079695177E+03  0.48079695178E+03  0.25500000000E-02 0.  1.
    8880023    1    1    2    0    0  0.36554438913E+03 -0.20473909336E+03  0.66135933741E+03  0.10231066299E+04  0.65864270000E+03 0. -1.
    8880022    1    1    2    0    0 -0.36554438913E+03  0.20473909336E+03 -0.13410387257E+03  0.46574273846E+03  0.15294330000E+03 0.  0.
<mgrwt>
<rscale>  0 0.67867762E+03</rscale>
<asrwt>0</asrwt>
<pdfrwt beam="1">  1        2 0.15508499E+00 0.78060938E+03</pdfrwt>
<pdfrwt beam="2">  1       -2 0.73968762E-01 0.78060938E+03</pdfrwt>
<totfact> 0.41519789E+01</totfact>
</mgrwt>
</event>
<event>
 4    1  0.7280516E-007  0.7079550E+03  0.7818608E-02  0.9965675E-01
          2   -1    0    0  501    0  0.00000000000E+00  0.00000000000E+00  0.53719983260E+04  0.53719983260E+04  0.25500000000E-02 0. -1.
         -2   -1    0    0    0  501 -0.00000000000E+00 -0.00000000000E+00 -0.12252882226E+03  0.12252882229E+03  0.25500000000E-02 0.  1.
    8880023    1    1    2    0    0  0.17826226279E+03  0.18871300700E+03  0.51164045068E+04  0.51651520130E+04  0.65864270000E+03 0. -1.
    8880022    1    1    2    0    0 -0.17826226279E+03 -0.18871300700E+03  0.13306499690E+03  0.32937513531E+03  0.15294330000E+03 0.  0.
<mgrwt>
<rscale>  0 0.57181298E+03</rscale>
<asrwt>0</asrwt>
<pdfrwt beam="1">  1        2 0.82646114E+00 0.70795497E+03</pdfrwt>
<pdfrwt beam="2">  1       -2 0.18850591E-01 0.70795497E+03</pdfrwt>
<totfact> 0.29113270E-01</totfact>
</mgrwt>
</event>
<event>
 4    1  0.7280516E-007  0.6618572E+03  0.7818608E-02  0.1022330E+00
          2   -1    0    0  501    0  0.00000000000E+00  0.00000000000E+00  0.34005299032E+03  0.34005299033E+03  0.25500000000E-02 0. -1.
         -2   -1    0    0    0  501 -0.00000000000E+00 -0.00000000000E+00 -0.53873624006E+03  0.53873624006E+03  0.25500000000E-02 0.  1.
    8880023    1    1    2    0    0 -0.52806861742E+02 -0.38159150291E+02 -0.64202916957E+02  0.66496383827E+03  0.65864270000E+03 0.  0.
    8880022    1    1    2    0    0  0.52806861742E+02  0.38159150291E+02 -0.13448033278E+03  0.21382539212E+03  0.15294330000E+03 0. -1.
<mgrwt>
<rscale>  0 0.46855250E+03</rscale>
<asrwt>0</asrwt>
<pdfrwt beam="1">  1        2 0.52315844E-01 0.66185715E+03</pdfrwt>
<pdfrwt beam="2">  1       -2 0.82882499E-01 0.66185715E+03</pdfrwt>
<totfact> 0.12347266E+02</totfact>
</mgrwt>
</event>
<event>
 4    1  0.7280516E-007  0.9652431E+03  0.7818608E-02  0.9428514E-01
          2   -1    0    0  501    0  0.00000000000E+00  0.00000000000E+00  0.21852404146E+04  0.21852404146E+04  0.25500000000E-02 0. -1.
         -2   -1    0    0    0  501 -0.00000000000E+00 -0.00000000000E+00 -0.56434991754E+03  0.56434991754E+03  0.25500000000E-02 0.  1.
    8880023    1    1    2    0    0 -0.52450758731E+03 -0.47199126823E+03 -0.10796992497E+02  0.96530344853E+03  0.65864270000E+03 0.  0.
    8880022    1    1    2    0    0  0.52450758731E+03  0.47199126823E+03  0.16316874896E+04  0.17842868836E+04  0.15294330000E+03 0.  0.
<mgrwt>
<rscale>  0 0.89765808E+03</rscale>
<asrwt>0</asrwt>
<pdfrwt beam="1">  1        2 0.33619084E+00 0.96524306E+03</pdfrwt>
<pdfrwt beam="2">  1       -2 0.86823063E-01 0.96524306E+03</pdfrwt>
<totfact> 0.60940311E+00</totfact>
</mgrwt>
</event>
<event>
 4    1  0.7280516E-007  0.1013242E+04  0.7818608E-02  0.9364434E-01
         -2   -1    0    0    0  501 -0.00000000000E+00  0.00000000000E+00  0.53868420970E+03  0.53868420970E+03  0.25500000000E-02 0.  1.
          2   -1    0    0  501    0  0.00000000000E+00 -0.00000000000E+00 -0.21241416735E+04  0.21241416735E+04  0.25500000000E-02 0. -1.
    8880023    1    1    2    0    0  0.73039859506E+03 -0.24365445286E+03 -0.15809754295E+04  0.18778027359E+04  0.65864270000E+03 0.  0.
    8880022    1    1    2    0    0 -0.73039859506E+03  0.24365445286E+03 -0.44820342504E+01  0.78502314724E+03  0.15294330000E+03 0.  0.
<mgrwt>
<rscale>  0 0.95061312E+03</rscale>
<asrwt>0</asrwt>
<pdfrwt beam="1">  1        2 0.32679102E+00 0.10132422E+04</pdfrwt>
<pdfrwt beam="2">  1       -2 0.82874495E-01 0.10132422E+04</pdfrwt>
<totfact> 0.72847639E+00</totfact>
</mgrwt>
</event>
<event>
 4    1  0.7280516E-007  0.8489637E+03  0.7818608E-02  0.9613505E-01
          2   -1    0    0  501    0  0.00000000000E+00  0.00000000000E+00  0.13612452276E+04  0.13612452276E+04  0.25500000000E-02 0. -1.
         -2   -1    0    0    0  501 -0.00000000000E+00 -0.00000000000E+00 -0.13074485103E+04  0.13074485103E+04  0.25500000000E-02 0.  1.
    8880023    1    1    2    0    0 -0.20697729829E+02  0.53525758522E+03  0.11556844675E+04  0.14339964691E+04  0.65864270000E+03 0. -1.
    8880022    1    1    2    0    0  0.20697729829E+02 -0.53525758522E+03 -0.11018877502E+04  0.12346972688E+04  0.15294330000E+03 0.  0.
<mgrwt>
<rscale>  0 0.76408764E+03</rscale>
<asrwt>0</asrwt>
<pdfrwt beam="1">  1        2 0.20942234E+00 0.84896365E+03</pdfrwt>
<pdfrwt beam="2">  1       -2 0.20114593E+00 0.84896365E+03</pdfrwt>
<totfact> 0.20184783E+00</totfact>
</mgrwt>
</event>
<event>
 4    1  0.7280516E-007  0.6935419E+03  0.7818608E-02  0.1002513E+00
          2   -1    0    0  501    0  0.00000000000E+00  0.00000000000E+00  0.24626230206E+04  0.24626230206E+04  0.25500000000E-02 0. -1.
         -2   -1    0    0    0  501 -0.00000000000E+00 -0.00000000000E+00 -0.97559768823E+02  0.97559768856E+02  0.25500000000E-02 0.  1.
    8880023    1    1    2    0    0 -0.14257312580E+03 -0.16389963530E+03  0.19252115554E+04  0.20463235145E+04  0.65864270000E+03 0.  1.
    8880022    1    1    2    0    0  0.14257312580E+03  0.16389963530E+03  0.43985169640E+03  0.51385927499E+03  0.15294330000E+03 0. -1.
<mgrwt>
<rscale>  0 0.54562110E+03</rscale>
<asrwt>0</asrwt>
<pdfrwt beam="1">  1        2 0.37886508E+00 0.69354192E+03</pdfrwt>
<pdfrwt beam="2">  1       -2 0.15009195E-01 0.69354192E+03</pdfrwt>
<totfact> 0.13362538E+02</totfact>
</mgrwt>
</event>
<event>
 4    1  0.7280516E-007  0.8903314E+03  0.7818608E-02  0.9541735E-01
          2   -1    0    0  501    0  0.00000000000E+00  0.00000000000E+00  0.35500343928E+04  0.35500343928E+04  0.25500000000E-02 0. -1.
         -2   -1    0    0    0  501 -0.00000000000E+00 -0.00000000000E+00 -0.23595314574E+03  0.23595314576E+03  0.25500000000E-02 0.  1.
    8880023    1    1    2    0    0  0.50911370537E+03 -0.31572613006E+03  0.29201824064E+04  0.30528929308E+04  0.65864270000E+03 0.  0.
    8880022    1    1    2    0    0 -0.50911370537E+03  0.31572613006E+03  0.39389884068E+03  0.73309460774E+03  0.15294330000E+03 0.  0.
<mgrwt>
<rscale>  0 0.81275610E+03</rscale>
<asrwt>0</asrwt>
<pdfrwt beam="1">  1        2 0.54615912E+00 0.89033138E+03</pdfrwt>
<pdfrwt beam="2">  1       -2 0.36300485E-01 0.89033138E+03</pdfrwt>
<totfact> 0.56572071E+00</totfact>
</mgrwt>
</event>
<event>
 4    1  0.7280516E-007  0.6614816E+03  0.7818608E-02  0.1022687E+00
         -2   -1    0    0    0  501 -0.00000000000E+00  0.00000000000E+00  0.20512454858E+03  0.20512454859E+03  0.25500000000E-02 0.  1.
          2   -1    0    0  501    0  0.00000000000E+00 -0.00000000000E+00 -0.18823095369E+04  0.18823095369E+04  0.25500000000E-02 0. -1.
    8880023    1    1    2    0    0 -0.38452431450E+02 -0.47635512789E+02 -0.17760988127E+04  0.18952796444E+04  0.65864270000E+03 0. -1.
    8880022    1    1    2    0    0  0.38452431450E+02  0.47635512789E+02  0.98913824413E+02  0.19215444111E+03  0.15294330000E+03 0.  0.
<mgrwt>
<rscale>  0 0.46729199E+03</rscale>
<asrwt>0</asrwt>
<pdfrwt beam="1">  1        2 0.28958607E+00 0.66148162E+03</pdfrwt>
<pdfrwt beam="2">  1       -2 0.31557624E-01 0.66148162E+03</pdfrwt>
<totfact> 0.75034266E+01</totfact>
</mgrwt>
</event>
<event>
 4    1  0.7280516E-007  0.7700203E+03  0.7818608E-02  0.9779824E-01
          2   -1    0    0  501    0  0.00000000000E+00  0.00000000000E+00  0.22363391210E+04  0.22363391210E+04  0.25500000000E-02 0. -1.
         -2   -1    0    0    0  501 -0.00000000000E+00 -0.00000000000E+00 -0.19675920233E+03  0.19675920235E+03  0.25500000000E-02 0.  1.
    8880023    1    1    2    0    0  0.35831615781E+03 -0.17530143221E+03  0.17639220612E+04  0.19246694016E+04  0.65864270000E+03 0. -1.
    8880022    1    1    2    0    0 -0.35831615781E+03  0.17530143221E+03  0.27565785742E+03  0.50842892173E+03  0.15294330000E+03 0.  0.
<mgrwt>
<rscale>  0 0.66456624E+03</rscale>
<asrwt>0</asrwt>
<pdfrwt beam="1">  1        2 0.34405216E+00 0.77002030E+03</pdfrwt>
<pdfrwt beam="2">  1       -2 0.30270647E-01 0.77002030E+03</pdfrwt>
<totfact> 0.51242028E+01</totfact>
</mgrwt>
</event>
<event>
 4    1  0.7280516E-007  0.7493010E+03  0.7818608E-02  0.9833638E-01
          2   -1    0    0  501    0  0.00000000000E+00  0.00000000000E+00  0.43333662543E+04  0.43333662543E+04  0.25500000000E-02 0. -1.
         -2   -1    0    0    0  501 -0.00000000000E+00 -0.00000000000E+00 -0.28437873253E+03  0.28437873254E+03  0.25500000000E-02 0.  1.
    8880023    1    1    2    0    0  0.32161284307E+03 -0.15558590322E+03  0.41492706734E+04  0.42163846032E+04  0.65864270000E+03 0. -1.
    8880022    1    1    2    0    0 -0.32161284307E+03  0.15558590322E+03 -0.10028315163E+03  0.40136038372E+03  0.15294330000E+03 0.  0.
<mgrwt>
<rscale>  0 0.63588178E+03</rscale>
<asrwt>0</asrwt>
<pdfrwt beam="1">  1        2 0.66667168E+00 0.74930101E+03</pdfrwt>
<pdfrwt beam="2">  1       -2 0.43750577E-01 0.74930101E+03</pdfrwt>
<totfact> 0.99029788E-01</totfact>
</mgrwt>
</event>
<event>
 4    1  0.7280516E-007  0.7083150E+03  0.7818608E-02  0.9964312E-01
          2   -1    0    0  501    0  0.00000000000E+00  0.00000000000E+00  0.19901404386E+04  0.19901404386E+04  0.25500000000E-02 0. -1.
         -2   -1    0    0    0  501 -0.00000000000E+00 -0.00000000000E+00 -0.61438828813E+03  0.61438828813E+03  0.25500000000E-02 0.  1.
    8880023    1    1    2    0    0 -0.18277343860E+03 -0.18572497291E+03  0.18842794199E+04  0.20130124276E+04  0.65864270000E+03 0. -1.
    8880022    1    1    2    0    0  0.18277343860E+03  0.18572497291E+03 -0.50852726937E+03  0.59151629912E+03  0.15294330000E+03 0.  0.
<mgrwt>
<rscale>  0 0.57243165E+03</rscale>
<asrwt>0</asrwt>
<pdfrwt beam="1">  1        2 0.30617545E+00 0.70831497E+03</pdfrwt>
<pdfrwt beam="2">  1       -2 0.94521275E-01 0.70831497E+03</pdfrwt>
<totfact> 0.66533503E+00</totfact>
</mgrwt>
</event>
<event>
 4    1  0.7280516E-007  0.8269826E+03  0.7818608E-02  0.9655232E-01
         -2   -1    0    0    0  501 -0.00000000000E+00  0.00000000000E+00  0.10011365654E+04  0.10011365654E+04  0.25500000000E-02 0.  1.
          2   -1    0    0  501    0  0.00000000000E+00 -0.00000000000E+00 -0.80621705764E+03  0.80621705764E+03  0.25500000000E-02 0. -1.
    8880023    1    1    2    0    0  0.45039173587E+03 -0.21734142621E+03 -0.47794716299E+03  0.95516161363E+03  0.65864270000E+03 0.  0.
    8880022    1    1    2    0    0 -0.45039173587E+03  0.21734142621E+03  0.67286667074E+03  0.85219200941E+03  0.15294330000E+03 0.  0.
<mgrwt>
<rscale>  0 0.73745972E+03</rscale>
<asrwt>0</asrwt>
<pdfrwt beam="1">  1        2 0.12403339E+00 0.82698260E+03</pdfrwt>
<pdfrwt beam="2">  1       -2 0.15402101E+00 0.82698260E+03</pdfrwt>
<totfact> 0.95960961E+00</totfact>
</mgrwt>
</event>
<event>
 4    1  0.7280516E-007  0.9846669E+03  0.7818608E-02  0.9401899E-01
         -2   -1    0    0    0  501 -0.00000000000E+00  0.00000000000E+00  0.45428172377E+03  0.45428172378E+03  0.25500000000E-02 0.  1.
          2   -1    0    0  501    0  0.00000000000E+00 -0.00000000000E+00 -0.35406391061E+04  0.35406391061E+04  0.25500000000E-02 0. -1.
    8880023    1    1    2    0    0  0.72143124994E+03  0.12367543163E+03 -0.30942193182E+04  0.32471159597E+04  0.65864270000E+03 0.  0.
    8880022    1    1    2    0    0 -0.72143124994E+03 -0.12367543163E+03  0.78619358265E+01  0.74780487016E+03  0.15294330000E+03 0.  0.
<mgrwt>
<rscale>  0 0.91919588E+03</rscale>
<asrwt>0</asrwt>
<pdfrwt beam="1">  1        2 0.54471369E+00 0.98466688E+03</pdfrwt>
<pdfrwt beam="2">  1       -2 0.69889498E-01 0.98466688E+03</pdfrwt>
<totfact> 0.14766813E+00</totfact>
</mgrwt>
</event>
<event>
 4    1  0.7280516E-007  0.8890109E+03  0.7818608E-02  0.9543908E-01
          2   -1    0    0  501    0  0.00000000000E+00  0.00000000000E+00  0.87961140082E+03  0.87961140082E+03  0.25500000000E-02 0. -1.
         -2   -1    0    0    0  501 -0.00000000000E+00 -0.00000000000E+00 -0.65884582155E+03  0.65884582155E+03  0.25500000000E-02 0.  1.
    8880023    1    1    2    0    0  0.59129318334E+03 -0.83081343856E+02  0.24318386543E+03  0.92167170784E+03  0.65864270000E+03 0.  1.
    8880022    1    1    2    0    0 -0.59129318334E+03  0.83081343856E+02 -0.22418286161E+02  0.61678551453E+03  0.15294330000E+03 0. -1.
<mgrwt>
<rscale>  0 0.81122641E+03</rscale>
<asrwt>0</asrwt>
<pdfrwt beam="1">  1        2 0.13532483E+00 0.88901088E+03</pdfrwt>
<pdfrwt beam="2">  1       -2 0.10136090E+00 0.88901088E+03</pdfrwt>
<totfact> 0.24281267E+01</totfact>
</mgrwt>
</event>
<event>
 4    1  0.7280516E-007  0.9101730E+03  0.7818608E-02  0.9509894E-01
          2   -1    0    0  501    0  0.00000000000E+00  0.00000000000E+00  0.14973041484E+04  0.14973041484E+04  0.25500000000E-02 0. -1.
         -2   -1    0    0    0  501 -0.00000000000E+00 -0.00000000000E+00 -0.53526428947E+03  0.53526428948E+03  0.25500000000E-02 0.  1.
    8880023    1    1    2    0    0 -0.53213391806E+03  0.33382351962E+03  0.10392264788E+04  0.13814508784E+04  0.65864270000E+03 0.  0.
    8880022    1    1    2    0    0  0.53213391806E+03 -0.33382351962E+03 -0.77186619814E+02  0.65111755951E+03  0.15294330000E+03 0.  0.
<mgrwt>
<rscale>  0 0.83558283E+03</rscale>
<asrwt>0</asrwt>
<pdfrwt beam="1">  1        2 0.23035448E+00 0.91017298E+03</pdfrwt>
<pdfrwt beam="2">  1       -2 0.82348353E-01 0.91017298E+03</pdfrwt>
<totfact> 0.16588604E+01</totfact>
</mgrwt>
</event>
<event>
 4    1  0.7280516E-007  0.7262896E+03  0.7818608E-02  0.9901852E-01
          2   -1    0    0  501    0  0.00000000000E+00  0.00000000000E+00  0.98859728448E+03  0.98859728448E+03  0.25500000000E-02 0. -1.
         -2   -1    0    0    0  501 -0.00000000000E+00 -0.00000000000E+00 -0.57225392750E+03  0.57225392751E+03  0.25500000000E-02 0.  1.
    8880023    1    1    2    0    0 -0.18550260401E+02 -0.30551959543E+03  0.77708056017E+03  0.10636497255E+04  0.65864270000E+03 0. -1.
    8880022    1    1    2    0    0  0.18550260401E+02  0.30551959543E+03 -0.36073720319E+03  0.49720148646E+03  0.15294330000E+03 0.  0.
<mgrwt>
<rscale>  0 0.60171628E+03</rscale>
<asrwt>0</asrwt>
<pdfrwt beam="1">  1        2 0.15209189E+00 0.72628957E+03</pdfrwt>
<pdfrwt beam="2">  1       -2 0.88039067E-01 0.72628957E+03</pdfrwt>
<totfact> 0.29008286E+01</totfact>
</mgrwt>
</event>
<event>
 4    1  0.7280516E-007  0.6628803E+03  0.7818608E-02  0.1021382E+00
         -2   -1    0    0    0  501 -0.00000000000E+00  0.00000000000E+00  0.37066157655E+03  0.37066157655E+03  0.25500000000E-02 0.  1.
          2   -1    0    0  501    0  0.00000000000E+00 -0.00000000000E+00 -0.48648637530E+03  0.48648637530E+03  0.25500000000E-02 0. -1.
    8880023    1    1    2    0    0 -0.62338614518E+02 -0.41399539798E+02 -0.15859634494E+03  0.68158860880E+03  0.65864270000E+03 0. -1.
    8880022    1    1    2    0    0  0.62338614518E+02  0.41399539798E+02  0.42771546190E+02  0.17555934306E+03  0.15294330000E+03 0.  1.
<mgrwt>
<rscale>  0 0.47191141E+03</rscale>
<asrwt>0</asrwt>
<pdfrwt beam="1">  1        2 0.74844057E-01 0.66288025E+03</pdfrwt>
<pdfrwt beam="2">  1       -2 0.57024858E-01 0.66288025E+03</pdfrwt>
<totfact> 0.18574070E+02</totfact>
</mgrwt>
</event>
<event>
 4    1  0.7280516E-007  0.8025773E+03  0.7818608E-02  0.9705251E-01
          2   -1    0    0  501    0  0.00000000000E+00  0.00000000000E+00  0.31330787341E+04  0.31330787341E+04  0.25500000000E-02 0. -1.
         -2   -1    0    0    0  501 -0.00000000000E+00 -0.00000000000E+00 -0.17789819644E+03  0.17789819646E+03  0.25500000000E-02 0.  1.
    8880023    1    1    2    0    0 -0.12895564926E+03 -0.44010292874E+03  0.25713603308E+04  0.26937008566E+04  0.65864270000E+03 0.  0.
    8880022    1    1    2    0    0  0.12895564926E+03  0.44010292874E+03  0.38382020686E+03  0.61727607403E+03  0.15294330000E+03 0.  0.
<mgrwt>
<rscale>  0 0.70705019E+03</rscale>
<asrwt>0</asrwt>
<pdfrwt beam="1">  1        2 0.48201213E+00 0.80257732E+03</pdfrwt>
<pdfrwt beam="2">  1       -2 0.27368952E-01 0.80257732E+03</pdfrwt>
<totfact> 0.18366706E+01</totfact>
</mgrwt>
</event>
<event>
 4    1  0.7280516E-007  0.1554411E+04  0.7818608E-02  0.8872140E-01
          2   -1    0    0  501    0  0.00000000000E+00  0.00000000000E+00  0.25692363038E+04  0.25692363038E+04  0.25500000000E-02 0. -1.
         -2   -1    0    0    0  501 -0.00000000000E+00 -0.00000000000E+00 -0.10493247824E+04  0.10493247824E+04  0.25500000000E-02 0.  1.
    8880023    1    1    2    0    0 -0.13793255445E+04 -0.28256650132E+03  0.18415068882E+02  0.15545198958E+04  0.65864270000E+03 0.  0.
    8880022    1    1    2    0    0  0.13793255445E+04  0.28256650132E+03  0.15014964526E+04  0.20640411904E+04  0.15294330000E+03 0.  0.
<mgrwt>
<rscale>  0 0.15186567E+04</rscale>
<asrwt>0</asrwt>
<pdfrwt beam="1">  1        2 0.39526712E+00 0.15544108E+04</pdfrwt>
<pdfrwt beam="2">  1       -2 0.16143458E+00 0.15544108E+04</pdfrwt>
<totfact> 0.73173874E-01</totfact>
</mgrwt>
</event>
<event>
 4    1  0.7280516E-007  0.7472949E+03  0.7818608E-02  0.9839185E-01
          2   -1    0    0  501    0  0.00000000000E+00  0.00000000000E+00  0.16093706955E+04  0.16093706955E+04  0.25500000000E-02 0. -1.
         -2   -1    0    0    0  501 -0.00000000000E+00 -0.00000000000E+00 -0.41894399229E+03  0.41894399230E+03  0.25500000000E-02 0.  1.
    8880023    1    1    2    0    0  0.35294287937E+03 -0.84133365925E+01  0.14023693709E+04  0.15890530258E+04  0.65864270000E+03 0.  0.
    8880022    1    1    2    0    0 -0.35294287937E+03  0.84133365925E+01 -0.21194266761E+03  0.43926166200E+03  0.15294330000E+03 0.  0.
<mgrwt>
<rscale>  0 0.63301374E+03</rscale>
<asrwt>0</asrwt>
<pdfrwt beam="1">  1        2 0.24759549E+00 0.74729490E+03</pdfrwt>
<pdfrwt beam="2">  1       -2 0.64452922E-01 0.74729490E+03</pdfrwt>
<totfact> 0.25129743E+01</totfact>
</mgrwt>
</event>
<event>
 4    1  0.7280516E-007  0.8978443E+03  0.7818608E-02  0.9529501E-01
         -2   -1    0    0    0  501 -0.00000000000E+00  0.00000000000E+00  0.57944201327E+03  0.57944201328E+03  0.25500000000E-02 0.  1.
          2   -1    0    0  501    0  0.00000000000E+00 -0.00000000000E+00 -0.21204859137E+04  0.21204859137E+04  0.25500000000E-02 0. -1.
    8880023    1    1    2    0    0  0.22580982351E+03 -0.56685464939E+03 -0.18063774995E+04  0.20172070164E+04  0.65864270000E+03 0. -1.
    8880022    1    1    2    0    0 -0.22580982351E+03  0.56685464939E+03  0.26533359909E+03  0.68272091059E+03  0.15294330000E+03 0.  0.
<mgrwt>
<rscale>  0 0.82143340E+03</rscale>
<asrwt>0</asrwt>
<pdfrwt beam="1">  1        2 0.32622860E+00 0.89784435E+03</pdfrwt>
<pdfrwt beam="2">  1       -2 0.89144926E-01 0.89784435E+03</pdfrwt>
<totfact> 0.62832038E+00</totfact>
</mgrwt>
</event>
<event>
 4    1  0.7280516E-007  0.8816356E+03  0.7818608E-02  0.9556180E-01
          2   -1    0    0  501    0  0.00000000000E+00  0.00000000000E+00  0.57768039214E+03  0.57768039214E+03  0.25500000000E-02 0. -1.
         -2   -1    0    0    0  501 -0.00000000000E+00 -0.00000000000E+00 -0.19117187405E+04  0.19117187405E+04  0.25500000000E-02 0.  1.
    8880023    1    1    2    0    0  0.54867790948E+03  0.20597010051E+03  0.14285056974E+03  0.89313359706E+03  0.65864270000E+03 0. -1.
    8880022    1    1    2    0    0 -0.54867790948E+03 -0.20597010051E+03 -0.14768889181E+04  0.15962655356E+04  0.15294330000E+03 0.  0.
<mgrwt>
<rscale>  0 0.80265663E+03</rscale>
<asrwt>0</asrwt>
<pdfrwt beam="1">  1        2 0.88873907E-01 0.88163560E+03</pdfrwt>
<pdfrwt beam="2">  1       -2 0.29411057E+00 0.88163560E+03</pdfrwt>
<totfact> 0.18297251E+00</totfact>
</mgrwt>
</event>
<event>
 4    1  0.7280516E-007  0.6858539E+03  0.7818608E-02  0.1006189E+00
         -2   -1    0    0    0  501 -0.00000000000E+00  0.00000000000E+00  0.96175245228E+02  0.96175245262E+02  0.25500000000E-02 0.  1.
          2   -1    0    0  501    0  0.00000000000E+00 -0.00000000000E+00 -0.30626888950E+04  0.30626888950E+04  0.25500000000E-02 0. -1.
    8880023    1    1    2    0    0  0.19122154562E+03 -0.44300724558E+01 -0.27425072050E+04  0.28269667986E+04  0.65864270000E+03 0.  0.
    8880022    1    1    2    0    0 -0.19122154562E+03  0.44300724558E+01 -0.22400644482E+03  0.33189734164E+03  0.15294330000E+03 0.  0.
<mgrwt>
<rscale>  0 0.53017805E+03</rscale>
<asrwt>0</asrwt>
<pdfrwt beam="1">  1        2 0.47118283E+00 0.68585386E+03</pdfrwt>
<pdfrwt beam="2">  1       -2 0.14796194E-01 0.68585386E+03</pdfrwt>
<totfact> 0.60849919E+01</totfact>
</mgrwt>
</event>
<event>
 4    1  0.7280516E-007  0.7463507E+03  0.7818608E-02  0.9841820E-01
         -2   -1    0    0    0  501 -0.00000000000E+00  0.00000000000E+00  0.56192487828E+03  0.56192487828E+03  0.25500000000E-02 0.  1.
          2   -1    0    0  501    0  0.00000000000E+00 -0.00000000000E+00 -0.98060194968E+03  0.98060194968E+03  0.25500000000E-02 0. -1.
    8880023    1    1    2    0    0 -0.35103672772E+03  0.15264541862E+01 -0.73376869282E+03  0.10466402510E+04  0.65864270000E+03 0. -1.
    8880022    1    1    2    0    0  0.35103672772E+03 -0.15264541862E+01  0.31509162142E+03  0.49588657693E+03  0.15294330000E+03 0. -1.
<mgrwt>
<rscale>  0 0.63165746E+03</rscale>
<asrwt>0</asrwt>
<pdfrwt beam="1">  1        2 0.15086184E+00 0.74635067E+03</pdfrwt>
<pdfrwt beam="2">  1       -2 0.86449981E-01 0.74635067E+03</pdfrwt>
<totfact> 0.30543874E+01</totfact>
</mgrwt>
</event>
<event>
 4    1  0.7280516E-007  0.8716187E+03  0.7818608E-02  0.9573221E-01
          2   -1    0    0  501    0  0.00000000000E+00  0.00000000000E+00  0.28188572850E+04  0.28188572850E+04  0.25500000000E-02 0. -1.
         -2   -1    0    0    0  501 -0.00000000000E+00 -0.00000000000E+00 -0.56311950793E+03  0.56311950794E+03  0.25500000000E-02 0.  1.
    8880023    1    1    2    0    0 -0.54199120831E+03  0.17931690899E+03  0.25691664530E+04  0.27129938248E+04  0.65864270000E+03 0. -1.
    8880022    1    1    2    0    0  0.54199120831E+03 -0.17931690899E+03 -0.31342867596E+03  0.66898296814E+03  0.15294330000E+03 0.  0.
<mgrwt>
<rscale>  0 0.79094238E+03</rscale>
<asrwt>0</asrwt>
<pdfrwt beam="1">  1        2 0.43367034E+00 0.87161874E+03</pdfrwt>
<pdfrwt beam="2">  1       -2 0.86633773E-01 0.87161874E+03</pdfrwt>
<totfact> 0.26949130E+00</totfact>
</mgrwt>
</event>
<event>
 4    1  0.7280516E-007  0.7191448E+03  0.7818608E-02  0.9925490E-01
          2   -1    0    0  501    0  0.00000000000E+00  0.00000000000E+00  0.13374547650E+04  0.13374547650E+04  0.25500000000E-02 0. -1.
         -2   -1    0    0    0  501 -0.00000000000E+00 -0.00000000000E+00 -0.27818287642E+03  0.27818287643E+03  0.25500000000E-02 0.  1.
    8880023    1    1    2    0    0 -0.28574804935E+03 -0.41317402130E+02  0.10694449259E+04  0.12887520053E+04  0.65864270000E+03 0.  1.
    8880022    1    1    2    0    0  0.28574804935E+03  0.41317402130E+02 -0.10173037263E+02  0.32688563616E+03  0.15294330000E+03 0.  0.
<mgrwt>
<rscale>  0 0.59041669E+03</rscale>
<asrwt>0</asrwt>
<pdfrwt beam="1">  1        2 0.20576227E+00 0.71914483E+03</pdfrwt>
<pdfrwt beam="2">  1       -2 0.42797366E-01 0.71914483E+03</pdfrwt>
<totfact> 0.83028828E+01</totfact>
</mgrwt>
</event>
<event>
 4    1  0.7280516E-007  0.7031522E+03  0.7818608E-02  0.9984367E-01
          2   -1    0    0  501    0  0.00000000000E+00  0.00000000000E+00  0.57901774177E+03  0.57901774177E+03  0.25500000000E-02 0. -1.
         -2   -1    0    0    0  501 -0.00000000000E+00 -0.00000000000E+00 -0.52835218184E+03  0.52835218185E+03  0.25500000000E-02 0.  1.
    8880023    1    1    2    0    0 -0.26320755988E+02 -0.24478578059E+03  0.26017278327E+03  0.74974191826E+03  0.65864270000E+03 0. -1.
    8880022    1    1    2    0    0  0.26320755988E+02  0.24478578059E+03 -0.20950722334E+03  0.35762800536E+03  0.15294330000E+03 0.  0.
<mgrwt>
<rscale>  0 0.56341039E+03</rscale>
<asrwt>0</asrwt>
<pdfrwt beam="1">  1        2 0.89079652E-01 0.70315224E+03</pdfrwt>
<pdfrwt beam="2">  1       -2 0.81284951E-01 0.70315224E+03</pdfrwt>
<totfact> 0.70071679E+01</totfact>
</mgrwt>
</event>
<event>
 4    1  0.7280516E-007  0.7214678E+03  0.7818608E-02  0.9917650E-01
         -2   -1    0    0    0  501 -0.00000000000E+00  0.00000000000E+00  0.62129289481E+03  0.62129289481E+03  0.25500000000E-02 0.  1.
          2   -1    0    0  501    0  0.00000000000E+00 -0.00000000000E+00 -0.98066930361E+03  0.98066930361E+03  0.25500000000E-02 0. -1.
    8880023    1    1    2    0    0 -0.28107081499E+03  0.87776880362E+02 -0.78244232587E+03  0.10642987284E+04  0.65864270000E+03 0. -1.
    8880022    1    1    2    0    0  0.28107081499E+03 -0.87776880362E+02  0.42306591707E+03  0.53766346999E+03  0.15294330000E+03 0.  0.
<mgrwt>
<rscale>  0 0.59413450E+03</rscale>
<asrwt>0</asrwt>
<pdfrwt beam="1">  1        2 0.15087220E+00 0.72146780E+03</pdfrwt>
<pdfrwt beam="2">  1       -2 0.95583523E-01 0.72146780E+03</pdfrwt>
<totfact> 0.24271733E+01</totfact>
</mgrwt>
</event>
<event>
 4    1  0.7280516E-007  0.8538928E+03  0.7818608E-02  0.9604521E-01
         -2   -1    0    0    0  501 -0.00000000000E+00  0.00000000000E+00  0.10474187257E+04  0.10474187257E+04  0.25500000000E-02 0.  1.
          2   -1    0    0  501    0  0.00000000000E+00 -0.00000000000E+00 -0.48214108821E+03  0.48214108821E+03  0.25500000000E-02 0. -1.
    8880023    1    1    2    0    0  0.49863122983E+03  0.21607792688E+03  0.38730285155E+03  0.93762278072E+03  0.65864270000E+03 0. -1.
    8880022    1    1    2    0    0 -0.49863122983E+03 -0.21607792688E+03  0.17797478598E+03  0.59193703323E+03  0.15294330000E+03 0.  0.
<mgrwt>
<rscale>  0 0.76997698E+03</rscale>
<asrwt>0</asrwt>
<pdfrwt beam="1">  1        2 0.74175552E-01 0.85389284E+03</pdfrwt>
<pdfrwt beam="2">  1       -2 0.16114134E+00 0.85389284E+03</pdfrwt>
<totfact> 0.15955749E+01</totfact>
</mgrwt>
</event>
<event>
 4    1  0.7280516E-007  0.7876009E+03  0.7818608E-02  0.9738276E-01
          2   -1    0    0  501    0  0.00000000000E+00  0.00000000000E+00  0.25172142601E+04  0.25172142601E+04  0.25500000000E-02 0. -1.
         -2   -1    0    0    0  501 -0.00000000000E+00 -0.00000000000E+00 -0.34005182483E+03  0.34005182484E+03  0.25500000000E-02 0.  1.
    8880023    1    1    2    0    0  0.37522764489E+03 -0.21379699620E+03  0.22585600846E+04  0.23919466556E+04  0.65864270000E+03 0.  0.
    8880022    1    1    2    0    0 -0.37522764489E+03  0.21379699620E+03 -0.81397649275E+02  0.46531942942E+03  0.15294330000E+03 0.  0.
<mgrwt>
<rscale>  0 0.68782874E+03</rscale>
<asrwt>0</asrwt>
<pdfrwt beam="1">  1        2 0.38726374E+00 0.78760088E+03</pdfrwt>
<pdfrwt beam="2">  1       -2 0.52315665E-01 0.78760088E+03</pdfrwt>
<totfact> 0.12225891E+01</totfact>
</mgrwt>
</event>
<event>
 4    1  0.7280516E-007  0.6994733E+03  0.7818608E-02  0.9999393E-01
         -2   -1    0    0    0  501 -0.00000000000E+00  0.00000000000E+00  0.34501907133E+04  0.34501907133E+04  0.25500000000E-02 0.  1.
          2   -1    0    0  501    0  0.00000000000E+00 -0.00000000000E+00 -0.20661718134E+03  0.20661718135E+03  0.25500000000E-02 0. -1.
    8880023    1    1    2    0    0  0.20162893869E+02  0.23461902711E+03  0.41291605248E+03  0.81225765791E+03  0.65864270000E+03 0. -1.
    8880022    1    1    2    0    0 -0.20162893869E+02 -0.23461902711E+03  0.28306574795E+04  0.28445502368E+04  0.15294330000E+03 0.  0.
<mgrwt>
<rscale>  0 0.55676844E+03</rscale>
<asrwt>0</asrwt>
<pdfrwt beam="1">  1        2 0.31787259E-01 0.69947326E+03</pdfrwt>
<pdfrwt beam="2">  1       -2 0.53079856E+00 0.69947326E+03</pdfrwt>
<totfact> 0.19005825E-01</totfact>
</mgrwt>
</event>
<event>
 4    1  0.7280516E-007  0.8126547E+03  0.7818608E-02  0.9684074E-01
          2   -1    0    0  501    0  0.00000000000E+00  0.00000000000E+00  0.25892012768E+03  0.25892012769E+03  0.25500000000E-02 0. -1.
         -2   -1    0    0    0  501 -0.00000000000E+00 -0.00000000000E+00 -0.19148524080E+04  0.19148524080E+04  0.25500000000E-02 0.  1.
    8880023    1    1    2    0    0 -0.55379170625E+02 -0.47279014831E+03 -0.61549030900E+03  0.10194292048E+04  0.65864270000E+03 0.  0.
    8880022    1    1    2    0    0  0.55379170625E+02  0.47279014831E+03 -0.10404419713E+04  0.11543433309E+04  0.15294330000E+03 0.  0.
<mgrwt>
<rscale>  0 0.71973005E+03</rscale>
<asrwt>0</asrwt>
<pdfrwt beam="1">  1        2 0.39833867E-01 0.81265465E+03</pdfrwt>
<pdfrwt beam="2">  1       -2 0.29459267E+00 0.81265465E+03</pdfrwt>
<totfact> 0.45700098E+00</totfact>
</mgrwt>
</event>
<event>
 4    1  0.7280516E-007  0.8392432E+03  0.7818608E-02  0.9631609E-01
         -2   -1    0    0    0  501 -0.00000000000E+00  0.00000000000E+00  0.18264258128E+03  0.18264258130E+03  0.25500000000E-02 0.  1.
          2   -1    0    0  501    0  0.00000000000E+00 -0.00000000000E+00 -0.48941054907E+04  0.48941054907E+04  0.25500000000E-02 0. -1.
    8880023    1    1    2    0    0 -0.35499526090E+03  0.38012797142E+03 -0.43379820577E+04  0.44184179804E+04  0.65864270000E+03 0.  1.
    8880022    1    1    2    0    0  0.35499526090E+03 -0.38012797142E+03 -0.37348085166E+03  0.65833009159E+03  0.15294330000E+03 0.  0.
<mgrwt>
<rscale>  0 0.75238957E+03</rscale>
<asrwt>0</asrwt>
<pdfrwt beam="1">  1        2 0.75293921E+00 0.83924318E+03</pdfrwt>
<pdfrwt beam="2">  1       -2 0.28098862E-01 0.83924318E+03</pdfrwt>
<totfact> 0.61024548E-01</totfact>
</mgrwt>
</event>
<event>
 4    1  0.7280516E-007  0.7042490E+03  0.7818608E-02  0.9980011E-01
          2   -1    0    0  501    0  0.00000000000E+00  0.00000000000E+00  0.10972343793E+04  0.10972343793E+04  0.25500000000E-02 0. -1.
         -2   -1    0    0    0  501 -0.00000000000E+00 -0.00000000000E+00 -0.31848610975E+03  0.31848610976E+03  0.25500000000E-02 0.  1.
    8880023    1    1    2    0    0 -0.24860745786E+03 -0.18728978278E+02  0.86057366499E+03  0.11120043534E+04  0.65864270000E+03 0. -1.
    8880022    1    1    2    0    0  0.24860745786E+03  0.18728978278E+02 -0.81825395449E+02  0.30371613570E+03  0.15294330000E+03 0.  0.
<mgrwt>
<rscale>  0 0.56535465E+03</rscale>
<asrwt>0</asrwt>
<pdfrwt beam="1">  1        2 0.16880529E+00 0.70424900E+03</pdfrwt>
<pdfrwt beam="2">  1       -2 0.48997862E-01 0.70424900E+03</pdfrwt>
<totfact> 0.87865668E+01</totfact>
</mgrwt>
</event>
<event>
 4    1  0.7280516E-007  0.7702731E+03  0.7818608E-02  0.9779203E-01
          2   -1    0    0  501    0  0.00000000000E+00  0.00000000000E+00  0.52302810303E+03  0.52302810303E+03  0.25500000000E-02 0. -1.
         -2   -1    0    0    0  501 -0.00000000000E+00 -0.00000000000E+00 -0.13122016219E+04  0.13122016219E+04  0.25500000000E-02 0.  1.
    8880023    1    1    2    0    0 -0.23931515319E+03 -0.31974782155E+03  0.16664645286E+03  0.78809368634E+03  0.65864270000E+03 0.  0.
    8880022    1    1    2    0    0  0.23931515319E+03  0.31974782155E+03 -0.95581997169E+03  0.10471360386E+04  0.15294330000E+03 0.  0.
<mgrwt>
<rscale>  0 0.66490694E+03</rscale>
<asrwt>0</asrwt>
<pdfrwt beam="1">  1        2 0.80465862E-01 0.77027308E+03</pdfrwt>
<pdfrwt beam="2">  1       -2 0.20187717E+00 0.77027308E+03</pdfrwt>
<totfact> 0.76851795E+00</totfact>
</mgrwt>
</event>
<event>
 4    1  0.7280516E-007  0.1078058E+04  0.7818608E-02  0.9285888E-01
         -2   -1    0    0    0  501 -0.00000000000E+00  0.00000000000E+00  0.45006021312E+03  0.45006021313E+03  0.25500000000E-02 0.  1.
          2   -1    0    0  501    0  0.00000000000E+00 -0.00000000000E+00 -0.29869526604E+04  0.29869526604E+04  0.25500000000E-02 0. -1.
    8880023    1    1    2    0    0  0.85278252047E+03  0.34070229203E+02 -0.22969631396E+04  0.25373704260E+04  0.65864270000E+03 0.  0.
    8880022    1    1    2    0    0 -0.85278252047E+03 -0.34070229203E+02 -0.23992930768E+03  0.89964244755E+03  0.15294330000E+03 0.  0.
<mgrwt>
<rscale>  0 0.10209247E+04</rscale>
<asrwt>0</asrwt>
<pdfrwt beam="1">  1        2 0.45953117E+00 0.10780580E+04</pdfrwt>
<pdfrwt beam="2">  1       -2 0.69240034E-01 0.10780580E+04</pdfrwt>
<totfact> 0.34134324E+00</totfact>
</mgrwt>
</event>
<event>
 4    1  0.7280516E-007  0.8431701E+03  0.7818608E-02  0.9624231E-01
         -2   -1    0    0    0  501 -0.00000000000E+00  0.00000000000E+00  0.10465503506E+04  0.10465503506E+04  0.25500000000E-02 0.  1.
          2   -1    0    0  501    0  0.00000000000E+00 -0.00000000000E+00 -0.66286439212E+03  0.66286439212E+03  0.25500000000E-02 0. -1.
    8880023    1    1    2    0    0 -0.17484895525E+03  0.49654149510E+03 -0.24232857691E+03  0.87730209105E+03  0.65864270000E+03 0. -1.
    8880022    1    1    2    0    0  0.17484895525E+03 -0.49654149510E+03  0.62601453537E+03  0.83211265164E+03  0.15294330000E+03 0.  1.
<mgrwt>
<rscale>  0 0.75712934E+03</rscale>
<asrwt>0</asrwt>
<pdfrwt beam="1">  1        2 0.10197914E+00 0.84317010E+03</pdfrwt>
<pdfrwt beam="2">  1       -2 0.16100775E+00 0.84317010E+03</pdfrwt>
<totfact> 0.10934388E+01</totfact>
</mgrwt>
</event>
<event>
 4    1  0.7280516E-007  0.1062786E+04  0.7818608E-02  0.9303667E-01
          2   -1    0    0  501    0  0.00000000000E+00  0.00000000000E+00  0.25704569603E+04  0.25704569603E+04  0.25500000000E-02 0. -1.
         -2   -1    0    0    0  501 -0.00000000000E+00 -0.00000000000E+00 -0.45837584749E+03  0.45837584750E+03  0.25500000000E-02 0.  1.
    8880023    1    1    2    0    0  0.77678830360E+03  0.30381413830E+03  0.18633183587E+04  0.21451034034E+04  0.65864270000E+03 0. -1.
    8880022    1    1    2    0    0 -0.77678830360E+03 -0.30381413830E+03  0.24876275406E+03  0.88372940432E+03  0.15294330000E+03 0.  0.
<mgrwt>
<rscale>  0 0.10044597E+04</rscale>
<asrwt>0</asrwt>
<pdfrwt beam="1">  1        2 0.39545493E+00 0.10627856E+04</pdfrwt>
<pdfrwt beam="2">  1       -2 0.70519359E-01 0.10627856E+04</pdfrwt>
<totfact> 0.58180145E+00</totfact>
</mgrwt>
</event>
<event>
 4    1  0.7280516E-007  0.6766623E+03  0.7818608E-02  0.1011278E+00
          2   -1    0    0  501    0  0.00000000000E+00  0.00000000000E+00  0.66658330925E+03  0.66658330926E+03  0.25500000000E-02 0. -1.
         -2   -1    0    0    0  501 -0.00000000000E+00 -0.00000000000E+00 -0.21359120517E+04  0.21359120517E+04  0.25500000000E-02 0.  1.
    8880023    1    1    2    0    0  0.10702379264E+03  0.11228330212E+03  0.48724379967E+03  0.83383353177E+03  0.65864270000E+03 0. -1.
    8880022    1    1    2    0    0 -0.10702379264E+03 -0.11228330212E+03 -0.19565725421E+04  0.19686618292E+04  0.15294330000E+03 0.  0.
<mgrwt>
<rscale>  0 0.50969721E+03</rscale>
<asrwt>0</asrwt>
<pdfrwt beam="1">  1        2 0.10255128E+00 0.67666228E+03</pdfrwt>
<pdfrwt beam="2">  1       -2 0.32860185E+00 0.67666228E+03</pdfrwt>
<totfact> 0.98299972E-01</totfact>
</mgrwt>
</event>
<event>
 4    1  0.7280516E-007  0.7037481E+03  0.7818608E-02  0.9981994E-01
         -2   -1    0    0    0  501 -0.00000000000E+00  0.00000000000E+00  0.30908588577E+03  0.30908588578E+03  0.25500000000E-02 0.  1.
          2   -1    0    0  501    0  0.00000000000E+00 -0.00000000000E+00 -0.10597469342E+04  0.10597469342E+04  0.25500000000E-02 0. -1.
    8880023    1    1    2    0    0 -0.24455759860E+03  0.40531790021E+02 -0.80848368595E+03  0.10718709445E+04  0.65864270000E+03 0. -1.
    8880022    1    1    2    0    0  0.24455759860E+03 -0.40531790021E+02  0.57822637539E+02  0.29696187543E+03  0.15294330000E+03 0.  0.
<mgrwt>
<rscale>  0 0.56446872E+03</rscale>
<asrwt>0</asrwt>
<pdfrwt beam="1">  1        2 0.16303799E+00 0.70374814E+03</pdfrwt>
<pdfrwt beam="2">  1       -2 0.47551675E-01 0.70374814E+03</pdfrwt>
<totfact> 0.98444765E+01</totfact>
</mgrwt>
</event>
<event>
 4    1  0.7280516E-007  0.8204545E+03  0.7818608E-02  0.9668199E-01
          2   -1    0    0  501    0  0.00000000000E+00  0.00000000000E+00  0.24135735789E+04  0.24135735789E+04  0.25500000000E-02 0. -1.
         -2   -1    0    0    0  501 -0.00000000000E+00 -0.00000000000E+00 -0.28239617856E+03  0.28239617857E+03  0.25500000000E-02 0.  1.
    8880023    1    1    2    0    0  0.26195890607E+02 -0.48851725275E+03  0.20075060259E+04  0.21686922283E+04  0.65864270000E+03 0. -1.
    8880022    1    1    2    0    0 -0.26195890607E+02  0.48851725275E+03  0.12367137451E+03  0.52727752920E+03  0.15294330000E+03 0.  0.
<mgrwt>
<rscale>  0 0.72942215E+03</rscale>
<asrwt>0</asrwt>
<pdfrwt beam="1">  1        2 0.37131902E+00 0.82045447E+03</pdfrwt>
<pdfrwt beam="2">  1       -2 0.43445565E-01 0.82045447E+03</pdfrwt>
<totfact> 0.20265251E+01</totfact>
</mgrwt>
</event>
<event>
 4    1  0.7280516E-007  0.7417372E+03  0.7818608E-02  0.9854915E-01
         -2   -1    0    0    0  501 -0.00000000000E+00  0.00000000000E+00  0.22738002423E+03  0.22738002424E+03  0.25500000000E-02 0.  1.
          2   -1    0    0  501    0  0.00000000000E+00 -0.00000000000E+00 -0.14194345886E+04  0.14194345886E+04  0.25500000000E-02 0. -1.
    8880023    1    1    2    0    0  0.33707835481E+03 -0.52364197305E+02 -0.93335149188E+03  0.11921908572E+04  0.65864270000E+03 0. -1.
    8880022    1    1    2    0    0 -0.33707835481E+03  0.52364197305E+02 -0.25870307253E+03  0.45462375564E+03  0.15294330000E+03 0.  1.
<mgrwt>
<rscale>  0 0.62496923E+03</rscale>
<asrwt>0</asrwt>
<pdfrwt beam="1">  1        2 0.21837455E+00 0.74173717E+03</pdfrwt>
<pdfrwt beam="2">  1       -2 0.34981543E-01 0.74173717E+03</pdfrwt>
<totfact> 0.11005138E+02</totfact>
</mgrwt>
</event>
<event>
 4    1  0.7280516E-007  0.1007373E+04  0.7818608E-02  0.9371975E-01
          2   -1    0    0  501    0  0.00000000000E+00  0.00000000000E+00  0.17686331722E+04  0.17686331722E+04  0.25500000000E-02 0. -1.
         -2   -1    0    0    0  501 -0.00000000000E+00 -0.00000000000E+00 -0.58317114073E+03  0.58317114074E+03  0.25500000000E-02 0.  1.
    8880023    1    1    2    0    0 -0.20635620452E+03  0.73376189570E+03  0.93959467984E+02  0.10117450225E+04  0.65864270000E+03 0.  0.
    8880022    1    1    2    0    0  0.20635620452E+03 -0.73376189570E+03  0.10915025635E+04  0.13400592904E+04  0.15294330000E+03 0.  0.
<mgrwt>
<rscale>  0 0.94418363E+03</rscale>
<asrwt>0</asrwt>
<pdfrwt beam="1">  1        2 0.27209741E+00 0.10073726E+04</pdfrwt>
<pdfrwt beam="2">  1       -2 0.89718638E-01 0.10073726E+04</pdfrwt>
<totfact> 0.95402591E+00</totfact>
</mgrwt>
</event>
<event>
 4    1  0.7280516E-007  0.6866250E+03  0.7818608E-02  0.1005800E+00
          2   -1    0    0  501    0  0.00000000000E+00  0.00000000000E+00  0.28020365021E+04  0.28020365021E+04  0.25500000000E-02 0. -1.
         -2   -1    0    0    0  501 -0.00000000000E+00 -0.00000000000E+00 -0.11867342594E+03  0.11867342597E+03  0.25500000000E-02 0.  1.
    8880023    1    1    2    0    0  0.58262901978E+02 -0.18506511911E+03  0.25482271580E+04  0.26391126386E+04  0.65864270000E+03 0.  0.
    8880022    1    1    2    0    0 -0.58262901978E+02  0.18506511911E+03  0.13513591815E+03  0.28159728949E+03  0.15294330000E+03 0.  0.
<mgrwt>
<rscale>  0 0.53178655E+03</rscale>
<asrwt>0</asrwt>
<pdfrwt beam="1">  1        2 0.43108244E+00 0.68662499E+03</pdfrwt>
<pdfrwt beam="2">  1       -2 0.18257454E-01 0.68662499E+03</pdfrwt>
<totfact> 0.61042772E+01</totfact>
</mgrwt>
</event>
<event>
 4    1  0.7280516E-007  0.8438888E+03  0.7818608E-02  0.9622891E-01
          2   -1    0    0  501    0  0.00000000000E+00  0.00000000000E+00  0.20133592280E+04  0.20133592280E+04  0.25500000000E-02 0. -1.
         -2   -1    0    0    0  501 -0.00000000000E+00 -0.00000000000E+00 -0.40615156543E+03  0.40615156544E+03  0.25500000000E-02 0.  1.
    8880023    1    1    2    0    0 -0.30765409114E+03  0.42858735231E+03  0.16655334958E+04  0.18671235070E+04  0.65864270000E+03 0.  0.
    8880022    1    1    2    0    0  0.30765409114E+03 -0.42858735231E+03 -0.58325833289E+02  0.55238728642E+03  0.15294330000E+03 0.  0.
<mgrwt>
<rscale>  0 0.75799477E+03</rscale>
<asrwt>0</asrwt>
<pdfrwt beam="1">  1        2 0.30974758E+00 0.84388883E+03</pdfrwt>
<pdfrwt beam="2">  1       -2 0.62484855E-01 0.84388883E+03</pdfrwt>
<totfact> 0.15946084E+01</totfact>
</mgrwt>
</event>
<event>
 4    1  0.9915859E-007  0.9799445E+03  0.7818608E-02  0.9408280E-01
         -2   -1    0    0    0  501 -0.00000000000E+00  0.00000000000E+00  0.19489602125E+04  0.19489602125E+04  0.25500000000E-02 0.  1.
          2   -1    0    0  501    0  0.00000000000E+00 -0.00000000000E+00 -0.15395953276E+04  0.15395953276E+04  0.25500000000E-02 0. -1.
    8880023    1    1    2    0    0 -0.53142415959E+03 -0.49403368525E+03 -0.12984304579E+04  0.16267184083E+04  0.65864270000E+03 0.  0.
    8880022    1    1    2    0    0  0.53142415959E+03  0.49403368525E+03  0.17077953428E+04  0.18618371319E+04  0.15294330000E+03 0.  0.
<mgrwt>
<rscale>  0 0.91397402E+03</rscale>
<asrwt>0</asrwt>
<pdfrwt beam="1">  1        2 0.23686082E+00 0.97994445E+03</pdfrwt>
<pdfrwt beam="2">  1       -2 0.29984003E+00 0.97994445E+03</pdfrwt>
<totfact> 0.38755320E-01</totfact>
</mgrwt>
</event>
<event>
 4    1  0.7280516E-007  0.6749190E+03  0.7818608E-02  0.1012357E+00
          2   -1    0    0  501    0  0.00000000000E+00  0.00000000000E+00  0.33300036998E+04  0.33300036998E+04  0.25500000000E-02 0. -1.
         -2   -1    0    0    0  501 -0.00000000000E+00 -0.00000000000E+00 -0.45980156248E+03  0.45980156249E+03  0.25500000000E-02 0.  1.
    8880023    1    1    2    0    0 -0.83090033103E+01 -0.14709308204E+03  0.32690243196E+04  0.33379687869E+04  0.65864270000E+03 0. -1.
    8880022    1    1    2    0    0  0.83090033103E+01  0.14709308204E+03 -0.39882218230E+03  0.45183647531E+03  0.15294330000E+03 0.  0.
<mgrwt>
<rscale>  0 0.50548383E+03</rscale>
<asrwt>0</asrwt>
<pdfrwt beam="1">  1        2 0.51230827E+00 0.67491897E+03</pdfrwt>
<pdfrwt beam="2">  1       -2 0.70738700E-01 0.67491897E+03</pdfrwt>
<totfact> 0.21237777E+00</totfact>
</mgrwt>
</event>
<event>
 4    1  0.7280516E-007  0.9139716E+03  0.7818608E-02  0.9503965E-01
         -2   -1    0    0    0  501 -0.00000000000E+00  0.00000000000E+00  0.13539443961E+04  0.13539443961E+04  0.25500000000E-02 0.  1.
          2   -1    0    0  501    0  0.00000000000E+00 -0.00000000000E+00 -0.64543701829E+03  0.64543701829E+03  0.25500000000E-02 0. -1.
    8880023    1    1    2    0    0  0.50018012325E+03  0.38904211891E+03  0.93670980085E+03  0.13087281548E+04  0.65864270000E+03 0.  0.
    8880022    1    1    2    0    0 -0.50018012325E+03 -0.38904211891E+03 -0.22820242307E+03  0.69065325952E+03  0.15294330000E+03 0.  0.
<mgrwt>
<rscale>  0 0.83992140E+03</rscale>
<asrwt>0</asrwt>
<pdfrwt beam="1">  1        2 0.99298004E-01 0.91397163E+03</pdfrwt>
<pdfrwt beam="2">  1       -2 0.20829914E+00 0.91397163E+03</pdfrwt>
<totfact> 0.53421625E+00</totfact>
</mgrwt>
</event>
<event>
 4    1  0.7280516E-007  0.8369079E+03  0.7818608E-02  0.9636039E-01
         -2   -1    0    0    0  501 -0.00000000000E+00  0.00000000000E+00  0.70170358283E+03  0.70170358283E+03  0.25500000000E-02 0.  1.
          2   -1    0    0  501    0  0.00000000000E+00 -0.00000000000E+00 -0.14461464467E+04  0.14461464467E+04  0.25500000000E-02 0. -1.
    8880023    1    1    2    0    0 -0.24889287269E+03 -0.45239022097E+03 -0.11859299235E+04  0.14514973524E+04  0.65864270000E+03 0.  0.
    8880022    1    1    2    0    0  0.24889287269E+03  0.45239022097E+03  0.44148705968E+03  0.69635267716E+03  0.15294330000E+03 0.  0.
<mgrwt>
<rscale>  0 0.74956152E+03</rscale>
<asrwt>0</asrwt>
<pdfrwt beam="1">  1        2 0.22248407E+00 0.83690787E+03</pdfrwt>
<pdfrwt beam="2">  1       -2 0.10795440E+00 0.83690787E+03</pdfrwt>
<totfact> 0.94804226E+00</totfact>
</mgrwt>
</event>
<event>
 4    1  0.7280516E-007  0.7042353E+03  0.7818608E-02  0.9980065E-01
          2   -1    0    0  501    0  0.00000000000E+00  0.00000000000E+00  0.11233258263E+04  0.11233258263E+04  0.25500000000E-02 0. -1.
         -2   -1    0    0    0  501 -0.00000000000E+00 -0.00000000000E+00 -0.44624939972E+03  0.44624939973E+03  0.25500000000E-02 0.  1.
    8880023    1    1    2    0    0  0.10930806084E+03 -0.22402863973E+03  0.94120326341E+03  0.11755045185E+04  0.65864270000E+03 0. -1.
    8880022    1    1    2    0    0 -0.10930806084E+03  0.22402863973E+03 -0.26412683686E+03  0.39407070755E+03  0.15294330000E+03 0.  0.
<mgrwt>
<rscale>  0 0.56533038E+03</rscale>
<asrwt>0</asrwt>
<pdfrwt beam="1">  1        2 0.17281935E+00 0.70423525E+03</pdfrwt>
<pdfrwt beam="2">  1       -2 0.68653756E-01 0.70423525E+03</pdfrwt>
<totfact> 0.41766849E+01</totfact>
</mgrwt>
</event>
<event>
 4    1  0.7280516E-007  0.9226977E+03  0.7818608E-02  0.9490535E-01
         -2   -1    0    0    0  501 -0.00000000000E+00  0.00000000000E+00  0.38687982421E+03  0.38687982422E+03  0.25500000000E-02 0.  1.
          2   -1    0    0  501    0  0.00000000000E+00 -0.00000000000E+00 -0.24978994788E+04  0.24978994788E+04  0.25500000000E-02 0. -1.
    8880023    1    1    2    0    0 -0.27960929135E+03 -0.58256286820E+03 -0.20118815273E+04  0.22133771340E+04  0.65864270000E+03 0. -1.
    8880022    1    1    2    0    0  0.27960929135E+03  0.58256286820E+03 -0.99138127265E+02  0.67140216898E+03  0.15294330000E+03 0.  0.
<mgrwt>
<rscale>  0 0.84985250E+03</rscale>
<asrwt>0</asrwt>
<pdfrwt beam="1">  1        2 0.38429222E+00 0.92269771E+03</pdfrwt>
<pdfrwt beam="2">  1       -2 0.59519974E-01 0.92269771E+03</pdfrwt>
<totfact> 0.93973201E+00</totfact>
</mgrwt>
</event>
<event>
 4    1  0.7280516E-007  0.8443230E+03  0.7818608E-02  0.9622082E-01
          2   -1    0    0  501    0  0.00000000000E+00  0.00000000000E+00  0.31094390845E+04  0.31094390845E+04  0.25500000000E-02 0. -1.
         -2   -1    0    0    0  501 -0.00000000000E+00 -0.00000000000E+00 -0.22886230393E+03  0.22886230394E+03  0.25500000000E-02 0.  1.
    8880023    1    1    2    0    0 -0.52660378632E+03  0.41946878456E+02  0.25733880778E+04  0.27083588192E+04  0.65864270000E+03 0.  0.
    8880022    1    1    2    0    0  0.52660378632E+03 -0.41946878456E+02  0.30718870274E+03  0.62994256920E+03  0.15294330000E+03 0.  0.
<mgrwt>
<rscale>  0 0.75851722E+03</rscale>
<asrwt>0</asrwt>
<pdfrwt beam="1">  1        2 0.47837523E+00 0.84432298E+03</pdfrwt>
<pdfrwt beam="2">  1       -2 0.35209586E-01 0.84432298E+03</pdfrwt>
<totfact> 0.11787730E+01</totfact>
</mgrwt>
</event>
<event>
 4    1  0.7280516E-007  0.8151985E+03  0.7818608E-02  0.9678849E-01
         -2   -1    0    0    0  501 -0.00000000000E+00  0.00000000000E+00  0.11429417752E+04  0.11429417752E+04  0.25500000000E-02 0.  1.
          2   -1    0    0  501    0  0.00000000000E+00 -0.00000000000E+00 -0.88865661781E+03  0.88865661781E+03  0.25500000000E-02 0. -1.
    8880023    1    1    2    0    0 -0.12897489154E+03 -0.46271350307E+03 -0.61878099865E+03  0.10234443996E+04  0.65864270000E+03 0.  0.
    8880022    1    1    2    0    0  0.12897489154E+03  0.46271350307E+03  0.87306615609E+03  0.10081539934E+04  0.15294330000E+03 0.  0.
<mgrwt>
<rscale>  0 0.72290211E+03</rscale>
<asrwt>0</asrwt>
<pdfrwt beam="1">  1        2 0.13671640E+00 0.81519845E+03</pdfrwt>
<pdfrwt beam="2">  1       -2 0.17583720E+00 0.81519845E+03</pdfrwt>
<totfact> 0.58509893E+00</totfact>
</mgrwt>
</event>
<event>
 4    1  0.7280516E-007  0.6639747E+03  0.7818608E-02  0.1020410E+00
         -2   -1    0    0    0  501 -0.00000000000E+00  0.00000000000E+00  0.34578977402E+03  0.34578977403E+03  0.25500000000E-02 0.  1.
          2   -1    0    0  501    0  0.00000000000E+00 -0.00000000000E+00 -0.27382584558E+04  0.27382584558E+04  0.25500000000E-02 0. -1.
    8880023    1    1    2    0    0  0.32389844063E+02  0.77479300971E+02 -0.26726981692E+04  0.27539386075E+04  0.65864270000E+03 0. -1.
    8880022    1    1    2    0    0 -0.32389844063E+02 -0.77479300971E+02  0.28022948744E+03  0.33010962229E+03  0.15294330000E+03 0.  0.
<mgrwt>
<rscale>  0 0.47539103E+03</rscale>
<asrwt>0</asrwt>
<pdfrwt beam="1">  1        2 0.42127052E+00 0.66397466E+03</pdfrwt>
<pdfrwt beam="2">  1       -2 0.53198428E-01 0.66397466E+03</pdfrwt>
<totfact> 0.90050629E+00</totfact>
</mgrwt>
</event>
<event>
 4    1  0.7280516E-007  0.7599823E+03  0.7818608E-02  0.9805153E-01
         -2   -1    0    0    0  501 -0.00000000000E+00  0.00000000000E+00  0.86356553937E+03  0.86356553938E+03  0.25500000000E-02 0.  1.
          2   -1    0    0  501    0  0.00000000000E+00 -0.00000000000E+00 -0.13527345472E+04  0.13527345472E+04  0.25500000000E-02 0. -1.
    8880023    1    1    2    0    0  0.70116914289E+02 -0.37262108387E+03 -0.11858702959E+04  0.14084961551E+04  0.65864270000E+03 0.  0.
    8880022    1    1    2    0    0 -0.70116914289E+02  0.37262108387E+03  0.69670128813E+03  0.80780393148E+03  0.15294330000E+03 0.  0.
<mgrwt>
<rscale>  0 0.65086716E+03</rscale>
<asrwt>0</asrwt>
<pdfrwt beam="1">  1        2 0.20811301E+00 0.75998228E+03</pdfrwt>
<pdfrwt beam="2">  1       -2 0.13285624E+00 0.75998228E+03</pdfrwt>
<totfact> 0.64668977E+00</totfact>
</mgrwt>
</event>
<event>
 4    1  0.7280516E-007  0.7182083E+03  0.7818608E-02  0.9928696E-01
         -2   -1    0    0    0  501 -0.00000000000E+00  0.00000000000E+00  0.11741665792E+04  0.11741665792E+04  0.25500000000E-02 0.  1.
          2   -1    0    0  501    0  0.00000000000E+00 -0.00000000000E+00 -0.10751786066E+04  0.10751786066E+04  0.25500000000E-02 0. -1.
    8880023    1    1    2    0    0  0.25188986280E+03  0.13625133704E+03 -0.92731326066E+03  0.11729164589E+04  0.65864270000E+03 0. -1.
    8880022    1    1    2    0    0 -0.25188986280E+03 -0.13625133704E+03  0.10263012332E+04  0.10764287269E+04  0.15294330000E+03 0.  0.
<mgrwt>
<rscale>  0 0.58890500E+03</rscale>
<asrwt>0</asrwt>
<pdfrwt beam="1">  1        2 0.16541209E+00 0.71820828E+03</pdfrwt>
<pdfrwt beam="2">  1       -2 0.18064101E+00 0.71820828E+03</pdfrwt>
<totfact> 0.41619474E+00</totfact>
</mgrwt>
</event>
<event>
 4    1  0.7280516E-007  0.7171870E+03  0.7818608E-02  0.9932222E-01
          2   -1    0    0  501    0  0.00000000000E+00  0.00000000000E+00  0.76237992749E+03  0.76237992750E+03  0.25500000000E-02 0. -1.
         -2   -1    0    0    0  501 -0.00000000000E+00 -0.00000000000E+00 -0.48641595885E+03  0.48641595885E+03  0.25500000000E-02 0.  1.
    8880023    1    1    2    0    0 -0.57855799101E+02  0.27784824833E+03  0.48389297067E+03  0.86516446755E+03  0.65864270000E+03 0.  0.
    8880022    1    1    2    0    0  0.57855799101E+02 -0.27784824833E+03 -0.20792900203E+03  0.38363141880E+03  0.15294330000E+03 0.  0.
<mgrwt>
<rscale>  0 0.58724780E+03</rscale>
<asrwt>0</asrwt>
<pdfrwt beam="1">  1        2 0.11728922E+00 0.71718697E+03</pdfrwt>
<pdfrwt beam="2">  1       -2 0.74833225E-01 0.71718697E+03</pdfrwt>
<totfact> 0.59829416E+01</totfact>
</mgrwt>
</event>
<event>
 4    1  0.7280516E-007  0.1084481E+04  0.7818608E-02  0.9278535E-01
         -2   -1    0    0    0  501 -0.00000000000E+00  0.00000000000E+00  0.10494897466E+04  0.10494897466E+04  0.25500000000E-02 0.  1.
          2   -1    0    0  501    0  0.00000000000E+00 -0.00000000000E+00 -0.15808068683E+04  0.15808068683E+04  0.25500000000E-02 0. -1.
    8880023    1    1    2    0    0  0.76251432511E+03  0.40107393429E+03 -0.11329940347E+04  0.15683666937E+04  0.65864270000E+03 0.  0.
    8880022    1    1    2    0    0 -0.76251432511E+03 -0.40107393429E+03  0.60167691310E+03  0.10619299212E+04  0.15294330000E+03 0.  0.
<mgrwt>
<rscale>  0 0.10278324E+04</rscale>
<asrwt>0</asrwt>
<pdfrwt beam="1">  1        2 0.24320106E+00 0.10844808E+04</pdfrwt>
<pdfrwt beam="2">  1       -2 0.16145996E+00 0.10844808E+04</pdfrwt>
<totfact> 0.27620860E+00</totfact>
</mgrwt>
</event>
<event>
 4    1  0.7280516E-007  0.9890086E+03  0.7818608E-02  0.9396081E-01
         -2   -1    0    0    0  501 -0.00000000000E+00  0.00000000000E+00  0.45957452109E+03  0.45957452110E+03  0.25500000000E-02 0.  1.
          2   -1    0    0  501    0  0.00000000000E+00 -0.00000000000E+00 -0.32730392718E+04  0.32730392718E+04  0.25500000000E-02 0. -1.
    8880023    1    1    2    0    0 -0.48639760509E+03 -0.55474777407E+03 -0.28101793356E+04  0.29791350805E+04  0.65864270000E+03 0. -1.
    8880022    1    1    2    0    0  0.48639760509E+03  0.55474777407E+03 -0.32854150573E+01  0.75347871240E+03  0.15294330000E+03 0.  0.
<mgrwt>
<rscale>  0 0.92398890E+03</rscale>
<asrwt>0</asrwt>
<pdfrwt beam="1">  1        2 0.50354449E+00 0.98900856E+03</pdfrwt>
<pdfrwt beam="2">  1       -2 0.70703774E-01 0.98900856E+03</pdfrwt>
<totfact> 0.21767590E+00</totfact>
</mgrwt>
</event>
<event>
 4    1  0.7280516E-007  0.8825935E+03  0.7818608E-02  0.9554573E-01
          2   -1    0    0  501    0  0.00000000000E+00  0.00000000000E+00  0.19692258385E+04  0.19692258386E+04  0.25500000000E-02 0. -1.
         -2   -1    0    0    0  501 -0.00000000000E+00 -0.00000000000E+00 -0.59112949320E+03  0.59112949321E+03  0.25500000000E-02 0.  1.
    8880023    1    1    2    0    0  0.50697028026E+03 -0.29688744284E+03  0.16683720353E+04  0.18874417801E+04  0.65864270000E+03 0.  0.
    8880022    1    1    2    0    0 -0.50697028026E+03  0.29688744284E+03 -0.29027568998E+03  0.67291355165E+03  0.15294330000E+03 0.  0.
<mgrwt>
<rscale>  0 0.80377219E+03</rscale>
<asrwt>0</asrwt>
<pdfrwt beam="1">  1        2 0.30295782E+00 0.88259347E+03</pdfrwt>
<pdfrwt beam="2">  1       -2 0.90943000E-01 0.88259347E+03</pdfrwt>
<totfact> 0.72804188E+00</totfact>
</mgrwt>
</event>
<event>
 4    1  0.7280516E-007  0.8737455E+03  0.7818608E-02  0.9569566E-01
         -2   -1    0    0    0  501 -0.00000000000E+00  0.00000000000E+00  0.30468295689E+03  0.30468295690E+03  0.25500000000E-02 0.  1.
          2   -1    0    0  501    0  0.00000000000E+00 -0.00000000000E+00 -0.24168795222E+04  0.24168795222E+04  0.25500000000E-02 0. -1.
    8880023    1    1    2    0    0 -0.34729465498E+03 -0.45717324612E+03 -0.18989208290E+04  0.20902945906E+04  0.65864270000E+03 0. -1.
    8880022    1    1    2    0    0  0.34729465498E+03  0.45717324612E+03 -0.21327573630E+03  0.63126788851E+03  0.15294330000E+03 0.  0.
<mgrwt>
<rscale>  0 0.79343706E+03</rscale>
<asrwt>0</asrwt>
<pdfrwt beam="1">  1        2 0.37182761E+00 0.87374548E+03</pdfrwt>
<pdfrwt beam="2">  1       -2 0.46874303E-01 0.87374548E+03</pdfrwt>
<totfact> 0.17212452E+01</totfact>
</mgrwt>
</event>
<event>
 4    1  0.7280516E-007  0.7293329E+03  0.7818608E-02  0.9892186E-01
          2   -1    0    0  501    0  0.00000000000E+00  0.00000000000E+00  0.12245004477E+04  0.12245004477E+04  0.25500000000E-02 0. -1.
         -2   -1    0    0    0  501 -0.00000000000E+00 -0.00000000000E+00 -0.30820784027E+03  0.30820784028E+03  0.25500000000E-02 0.  1.
    8880023    1    1    2    0    0  0.23541658438E+01 -0.31322622824E+03  0.93239159014E+03  0.11837569412E+04  0.65864270000E+03 0. -1.
    8880022    1    1    2    0    0 -0.23541658438E+01  0.31322622824E+03 -0.16098982756E+02  0.34895134677E+03  0.15294330000E+03 0.  0.
<mgrwt>
<rscale>  0 0.60641493E+03</rscale>
<asrwt>0</asrwt>
<pdfrwt beam="1">  1        2 0.18838469E+00 0.72933286E+03</pdfrwt>
<pdfrwt beam="2">  1       -2 0.47416590E-01 0.72933286E+03</pdfrwt>
<totfact> 0.78609400E+01</totfact>
</mgrwt>
</event>
<event>
 4    1  0.7280516E-007  0.9828002E+03  0.7818608E-02  0.9404414E-01
         -2   -1    0    0    0  501 -0.00000000000E+00  0.00000000000E+00  0.36943243163E+03  0.36943243164E+03  0.25500000000E-02 0.  1.
          2   -1    0    0  501    0  0.00000000000E+00 -0.00000000000E+00 -0.21110899801E+04  0.21110899801E+04  0.25500000000E-02 0. -1.
    8880023    1    1    2    0    0 -0.50687852071E+03  0.52455711664E+03 -0.12394213984E+04  0.15817906348E+04  0.65864270000E+03 0. -1.
    8880022    1    1    2    0    0  0.50687852071E+03 -0.52455711664E+03 -0.50223615008E+03  0.89873177691E+03  0.15294330000E+03 0.  1.
<mgrwt>
<rscale>  0 0.91713285E+03</rscale>
<asrwt>0</asrwt>
<pdfrwt beam="1">  1        2 0.32478307E+00 0.98280019E+03</pdfrwt>
<pdfrwt beam="2">  1       -2 0.56835760E-01 0.98280019E+03</pdfrwt>
<totfact> 0.16936787E+01</totfact>
</mgrwt>
</event>
<event>
 4    1  0.7280516E-007  0.7166800E+03  0.7818608E-02  0.9933984E-01
          2   -1    0    0  501    0  0.00000000000E+00  0.00000000000E+00  0.23567756633E+04  0.23567756633E+04  0.25500000000E-02 0. -1.
         -2   -1    0    0    0  501 -0.00000000000E+00 -0.00000000000E+00 -0.24673619207E+03  0.24673619209E+03  0.25500000000E-02 0.  1.
    8880023    1    1    2    0    0 -0.63648845682E+01 -0.28245268758E+03  0.21623431697E+04  0.22780162911E+04  0.65864270000E+03 0. -1.
    8880022    1    1    2    0    0  0.63648845682E+01  0.28245268758E+03 -0.52303698526E+02  0.32549556429E+03  0.15294330000E+03 0.  0.
<mgrwt>
<rscale>  0 0.58642176E+03</rscale>
<asrwt>0</asrwt>
<pdfrwt beam="1">  1        2 0.36258088E+00 0.71668001E+03</pdfrwt>
<pdfrwt beam="2">  1       -2 0.37959414E-01 0.71668001E+03</pdfrwt>
<totfact> 0.28817986E+01</totfact>
</mgrwt>
</event>
<event>
 4    1  0.7280516E-007  0.8431407E+03  0.7818608E-02  0.9624286E-01
         -2   -1    0    0    0  501 -0.00000000000E+00  0.00000000000E+00  0.55569846932E+03  0.55569846933E+03  0.25500000000E-02 0.  1.
          2   -1    0    0  501    0  0.00000000000E+00 -0.00000000000E+00 -0.20505749472E+04  0.20505749472E+04  0.25500000000E-02 0. -1.
    8880023    1    1    2    0    0 -0.93820792883E+02 -0.51795138484E+03  0.16420739657E+03  0.85898210318E+03  0.65864270000E+03 0.  1.
    8880022    1    1    2    0    0  0.93820792883E+02  0.51795138484E+03 -0.16590838745E+04  0.17472913134E+04  0.15294330000E+03 0.  0.
<mgrwt>
<rscale>  0 0.75709389E+03</rscale>
<asrwt>0</asrwt>
<pdfrwt beam="1">  1        2 0.31547306E+00 0.84314067E+03</pdfrwt>
<pdfrwt beam="2">  1       -2 0.85492073E-01 0.84314067E+03</pdfrwt>
<totfact> 0.76145142E+00</totfact>
</mgrwt>
</event>
<event>
 4    1  0.7280516E-007  0.8138976E+03  0.7818608E-02  0.9681515E-01
          2   -1    0    0  501    0  0.00000000000E+00  0.00000000000E+00  0.23706189872E+04  0.23706189872E+04  0.25500000000E-02 0. -1.
         -2   -1    0    0    0  501 -0.00000000000E+00 -0.00000000000E+00 -0.20794515623E+03  0.20794515624E+03  0.25500000000E-02 0.  1.
    8880023    1    1    2    0    0 -0.84600808828E+02  0.47059728213E+03  0.17451811952E+04  0.19256392988E+04  0.65864270000E+03 0.  0.
    8880022    1    1    2    0    0  0.84600808828E+02 -0.47059728213E+03  0.41749263580E+03  0.65292484465E+03  0.15294330000E+03 0.  0.
<mgrwt>
<rscale>  0 0.72128136E+03</rscale>
<asrwt>0</asrwt>
<pdfrwt beam="1">  1        2 0.36471063E+00 0.81389760E+03</pdfrwt>
<pdfrwt beam="2">  1       -2 0.31991561E-01 0.81389760E+03</pdfrwt>
<totfact> 0.38694093E+01</totfact>
</mgrwt>
</event>
<event>
 4    1  0.7280516E-007  0.1092874E+04  0.7818608E-02  0.9269032E-01
          2   -1    0    0  501    0  0.00000000000E+00  0.00000000000E+00  0.61445061157E+03  0.61445061158E+03  0.25500000000E-02 0. -1.
         -2   -1    0    0    0  501 -0.00000000000E+00 -0.00000000000E+00 -0.16910878269E+04  0.16910878269E+04  0.25500000000E-02 0.  1.
    8880023    1    1    2    0    0 -0.47885576803E+03 -0.72887641214E+03 -0.31433570853E+03  0.11371810826E+04  0.65864270000E+03 0. -1.
    8880022    1    1    2    0    0  0.47885576803E+03  0.72887641214E+03 -0.76230150684E+03  0.11683573559E+04  0.15294330000E+03 0.  0.
<mgrwt>
<rscale>  0 0.10368454E+04</rscale>
<asrwt>0</asrwt>
<pdfrwt beam="1">  1        2 0.94530864E-01 0.10928741E+04</pdfrwt>
<pdfrwt beam="2">  1       -2 0.26016736E+00 0.10928741E+04</pdfrwt>
<totfact> 0.26563381E+00</totfact>
</mgrwt>
</event>
<event>
 4    1  0.7280516E-007  0.8406317E+03  0.7818608E-02  0.9628990E-01
          2   -1    0    0  501    0  0.00000000000E+00  0.00000000000E+00  0.48288912374E+03  0.48288912375E+03  0.25500000000E-02 0. -1.
         -2   -1    0    0    0  501 -0.00000000000E+00 -0.00000000000E+00 -0.14691961577E+04  0.14691961577E+04  0.25500000000E-02 0.  1.
    8880023    1    1    2    0    0  0.38840170928E+03  0.34927852276E+03 -0.17450181614E+02  0.84081275521E+03  0.65864270000E+03 0.  0.
    8880022    1    1    2    0    0 -0.38840170928E+03 -0.34927852276E+03 -0.96885685234E+03  0.11112725262E+04  0.15294330000E+03 0.  0.
<mgrwt>
<rscale>  0 0.75406767E+03</rscale>
<asrwt>0</asrwt>
<pdfrwt beam="1">  1        2 0.74290635E-01 0.84063166E+03</pdfrwt>
<pdfrwt beam="2">  1       -2 0.22603018E+00 0.84063166E+03</pdfrwt>
<totfact> 0.58833627E+00</totfact>
</mgrwt>
</event>
<event>
 4    1  0.7280516E-007  0.7562955E+03  0.7818608E-02  0.9814794E-01
         -2   -1    0    0    0  501 -0.00000000000E+00  0.00000000000E+00  0.18817937478E+04  0.18817937478E+04  0.25500000000E-02 0.  1.
          2   -1    0    0  501    0  0.00000000000E+00 -0.00000000000E+00 -0.51123058387E+03  0.51123058388E+03  0.25500000000E-02 0. -1.
    8880023    1    1    2    0    0 -0.34955173147E+03  0.12643664008E+03 -0.19142707088E+03  0.78014560606E+03  0.65864270000E+03 0. -1.
    8880022    1    1    2    0    0  0.34955173147E+03 -0.12643664008E+03  0.15619902348E+04  0.16128787256E+04  0.15294330000E+03 0.  0.
<mgrwt>
<rscale>  0 0.64574611E+03</rscale>
<asrwt>0</asrwt>
<pdfrwt beam="1">  1        2 0.78650859E-01 0.75629547E+03</pdfrwt>
<pdfrwt beam="2">  1       -2 0.28950673E+00 0.75629547E+03</pdfrwt>
<totfact> 0.22946211E+00</totfact>
</mgrwt>
</event>
<event>
 4    1  0.7280516E-007  0.9289240E+03  0.7818608E-02  0.9481109E-01
         -2   -1    0    0    0  501 -0.00000000000E+00  0.00000000000E+00  0.14208812968E+04  0.14208812968E+04  0.25500000000E-02 0.  1.
          2   -1    0    0  501    0  0.00000000000E+00 -0.00000000000E+00 -0.10487646575E+04  0.10487646575E+04  0.25500000000E-02 0. -1.
    8880023    1    1    2    0    0  0.28465961948E+03 -0.58996485334E+03  0.11257173944E+04  0.14594997381E+04  0.65864270000E+03 0.  1.
    8880022    1    1    2    0    0 -0.28465961948E+03  0.58996485334E+03 -0.75360075510E+03  0.10101462163E+04  0.15294330000E+03 0.  0.
<mgrwt>
<rscale>  0 0.85691002E+03</rscale>
<asrwt>0</asrwt>
<pdfrwt beam="1">  1        2 0.16134841E+00 0.92892402E+03</pdfrwt>
<pdfrwt beam="2">  1       -2 0.21859712E+00 0.92892402E+03</pdfrwt>
<totfact> 0.23709432E+00</totfact>
</mgrwt>
</event>
<event>
 4    1  0.7280516E-007  0.7418253E+03  0.7818608E-02  0.9854662E-01
          2   -1    0    0  501    0  0.00000000000E+00  0.00000000000E+00  0.94215843410E+03  0.94215843410E+03  0.25500000000E-02 0. -1.
         -2   -1    0    0    0  501 -0.00000000000E+00 -0.00000000000E+00 -0.75834966374E+03  0.75834966375E+03  0.25500000000E-02 0.  1.
    8880023    1    1    2    0    0  0.29262753675E+03 -0.17568079227E+03  0.72853299137E+03  0.10397428248E+04  0.65864270000E+03 0. -1.
    8880022    1    1    2    0    0 -0.29262753675E+03  0.17568079227E+03 -0.54472422102E+03  0.66076527301E+03  0.15294330000E+03 0.  0.
<mgrwt>
<rscale>  0 0.62509803E+03</rscale>
<asrwt>0</asrwt>
<pdfrwt beam="1">  1        2 0.14494745E+00 0.74182533E+03</pdfrwt>
<pdfrwt beam="2">  1       -2 0.11666918E+00 0.74182533E+03</pdfrwt>
<totfact> 0.15905921E+01</totfact>
</mgrwt>
</event>
<event>
 4    1  0.7280516E-007  0.7667254E+03  0.7818608E-02  0.9787997E-01
         -2   -1    0    0    0  501 -0.00000000000E+00  0.00000000000E+00  0.18061501867E+04  0.18061501867E+04  0.25500000000E-02 0.  1.
          2   -1    0    0  501    0  0.00000000000E+00 -0.00000000000E+00 -0.20832491226E+03  0.20832491228E+03  0.25500000000E-02 0. -1.
    8880023    1    1    2    0    0  0.24808344137E+03 -0.30415836920E+03  0.12580261228E+04  0.14732608864E+04  0.65864270000E+03 0.  0.
    8880022    1    1    2    0    0 -0.24808344137E+03  0.30415836920E+03  0.33979915162E+03  0.54121421257E+03  0.15294330000E+03 0.  0.
<mgrwt>
<rscale>  0 0.66010681E+03</rscale>
<asrwt>0</asrwt>
<pdfrwt beam="1">  1        2 0.32049988E-01 0.76672545E+03</pdfrwt>
<pdfrwt beam="2">  1       -2 0.27786925E+00 0.76672545E+03</pdfrwt>
<totfact> 0.73889348E+00</totfact>
</mgrwt>
</event>
<event>
 4    1  0.7280516E-007  0.7113561E+03  0.7818608E-02  0.9952999E-01
          2   -1    0    0  501    0  0.00000000000E+00  0.00000000000E+00  0.39722747598E+03  0.39722747599E+03  0.25500000000E-02 0. -1.
         -2   -1    0    0    0  501 -0.00000000000E+00 -0.00000000000E+00 -0.81315339925E+03  0.81315339926E+03  0.25500000000E-02 0.  1.
    8880023    1    1    2    0    0 -0.71896558360E+02 -0.25893654902E+03 -0.24791673687E+02  0.71178794937E+03  0.65864270000E+03 0.  0.
    8880022    1    1    2    0    0  0.71896558360E+02  0.25893654902E+03 -0.39113424958E+03  0.49859292588E+03  0.15294330000E+03 0.  0.
<mgrwt>
<rscale>  0 0.57760052E+03</rscale>
<asrwt>0</asrwt>
<pdfrwt beam="1">  1        2 0.61111920E-01 0.71135607E+03</pdfrwt>
<pdfrwt beam="2">  1       -2 0.12510052E+00 0.71135607E+03</pdfrwt>
<totfact> 0.38897735E+01</totfact>
</mgrwt>
</event>
<event>
 4    1  0.7280516E-007  0.7348727E+03  0.7818608E-02  0.9875142E-01
         -2   -1    0    0    0  501 -0.00000000000E+00  0.00000000000E+00  0.61440896658E+03  0.61440896659E+03  0.25500000000E-02 0.  1.
          2   -1    0    0  501    0  0.00000000000E+00 -0.00000000000E+00 -0.87625759920E+03  0.87625759920E+03  0.25500000000E-02 0. -1.
    8880023    1    1    2    0    0  0.97336784989E+02  0.31105180371E+03 -0.63567759857E+03  0.97166037786E+03  0.65864270000E+03 0. -1.
    8880022    1    1    2    0    0 -0.97336784989E+02 -0.31105180371E+03  0.37382896596E+03  0.51900618793E+03  0.15294330000E+03 0.  0.
<mgrwt>
<rscale>  0 0.61481266E+03</rscale>
<asrwt>0</asrwt>
<pdfrwt beam="1">  1        2 0.13480886E+00 0.73487270E+03</pdfrwt>
<pdfrwt beam="2">  1       -2 0.94524456E-01 0.73487270E+03</pdfrwt>
<totfact> 0.29169628E+01</totfact>
</mgrwt>
</event>
<event>
 4    1  0.7280516E-007  0.7619102E+03  0.7818608E-02  0.9800187E-01
         -2   -1    0    0    0  501 -0.00000000000E+00  0.00000000000E+00  0.13779935903E+04  0.13779935903E+04  0.25500000000E-02 0.  1.
          2   -1    0    0  501    0  0.00000000000E+00 -0.00000000000E+00 -0.43300057149E+03  0.43300057150E+03  0.25500000000E-02 0. -1.
    8880023    1    1    2    0    0  0.37537713408E+03 -0.76084907539E+02 -0.19357969009E+02  0.76215604909E+03  0.65864270000E+03 0.  0.
    8880022    1    1    2    0    0 -0.37537713408E+03  0.76084907539E+02  0.96435098784E+03  0.10488381127E+04  0.15294330000E+03 0.  0.
<mgrwt>
<rscale>  0 0.65352502E+03</rscale>
<asrwt>0</asrwt>
<pdfrwt beam="1">  1        2 0.66615473E-01 0.76191017E+03</pdfrwt>
<pdfrwt beam="2">  1       -2 0.21199901E+00 0.76191017E+03</pdfrwt>
<totfact> 0.82371971E+00</totfact>
</mgrwt>
</event>
<event>
 4    1  0.7280516E-007  0.7383926E+03  0.7818608E-02  0.9864654E-01
         -2   -1    0    0    0  501 -0.00000000000E+00  0.00000000000E+00  0.27671796747E+03  0.27671796748E+03  0.25500000000E-02 0.  1.
          2   -1    0    0  501    0  0.00000000000E+00 -0.00000000000E+00 -0.25221935893E+04  0.25221935893E+04  0.25500000000E-02 0. -1.
    8880023    1    1    2    0    0 -0.21387524513E+03  0.25626327710E+03 -0.23108721133E+04  0.24259747769E+04  0.65864270000E+03 0. -1.
    8880022    1    1    2    0    0  0.21387524513E+03 -0.25626327710E+03  0.65396491507E+02  0.37293677988E+03  0.15294330000E+03 0.  0.
<mgrwt>
<rscale>  0 0.62005302E+03</rscale>
<asrwt>0</asrwt>
<pdfrwt beam="1">  1        2 0.38802977E+00 0.73839264E+03</pdfrwt>
<pdfrwt beam="2">  1       -2 0.42571997E-01 0.73839264E+03</pdfrwt>
<totfact> 0.18534148E+01</totfact>
</mgrwt>
</event>
<event>
 4    1  0.7280516E-007  0.7178520E+03  0.7818608E-02  0.9929922E-01
         -2   -1    0    0    0  501 -0.00000000000E+00  0.00000000000E+00  0.42895389610E+03  0.42895389611E+03  0.25500000000E-02 0.  1.
          2   -1    0    0  501    0  0.00000000000E+00 -0.00000000000E+00 -0.10351823291E+04  0.10351823291E+04  0.25500000000E-02 0. -1.
    8880023    1    1    2    0    0  0.13401666165E+03  0.25207296735E+03 -0.80935594504E+03  0.10818357077E+04  0.65864270000E+03 0. -1.
    8880022    1    1    2    0    0 -0.13401666165E+03 -0.25207296735E+03  0.20312751207E+03  0.38230051745E+03  0.15294330000E+03 0.  0.
<mgrwt>
<rscale>  0 0.58832789E+03</rscale>
<asrwt>0</asrwt>
<pdfrwt beam="1">  1        2 0.15925882E+00 0.71785197E+03</pdfrwt>
<pdfrwt beam="2">  1       -2 0.65992908E-01 0.71785197E+03</pdfrwt>
<totfact> 0.51484078E+01</totfact>
</mgrwt>
</event>
<event>
 4    1  0.7280516E-007  0.6823864E+03  0.7818608E-02  0.1008005E+00
          2   -1    0    0  501    0  0.00000000000E+00  0.00000000000E+00  0.62137299389E+03  0.62137299389E+03  0.25500000000E-02 0. -1.
         -2   -1    0    0    0  501 -0.00000000000E+00 -0.00000000000E+00 -0.46562160744E+03  0.46562160744E+03  0.25500000000E-02 0.  1.
    8880023    1    1    2    0    0 -0.11140830286E+03  0.13938860687E+03  0.36363669782E+03  0.77322884577E+03  0.65864270000E+03 0. -1.
    8880022    1    1    2    0    0  0.11140830286E+03 -0.13938860687E+03 -0.20788531136E+03  0.31376575557E+03  0.15294330000E+03 0.  0.
<mgrwt>
<rscale>  0 0.52275387E+03</rscale>
<asrwt>0</asrwt>
<pdfrwt beam="1">  1        2 0.95595845E-01 0.68238640E+03</pdfrwt>
<pdfrwt beam="2">  1       -2 0.71634093E-01 0.68238640E+03</pdfrwt>
<totfact> 0.85352721E+01</totfact>
</mgrwt>
</event>
<event>
 4    1  0.7280516E-007  0.8541742E+03  0.7818608E-02  0.9604012E-01
         -2   -1    0    0    0  501 -0.00000000000E+00  0.00000000000E+00  0.39245303426E+03  0.39245303427E+03  0.25500000000E-02 0.  1.
          2   -1    0    0  501    0  0.00000000000E+00 -0.00000000000E+00 -0.13161820135E+04  0.13161820135E+04  0.25500000000E-02 0. -1.
    8880023    1    1    2    0    0  0.17796833428E+03 -0.51393633211E+03 -0.68659622070E+03  0.10959141654E+04  0.65864270000E+03 0.  1.
    8880022    1    1    2    0    0 -0.17796833428E+03  0.51393633211E+03 -0.23713275856E+03  0.61272088235E+03  0.15294330000E+03 0. -1.
<mgrwt>
<rscale>  0 0.77031228E+03</rscale>
<asrwt>0</asrwt>
<pdfrwt beam="1">  1        2 0.20248954E+00 0.85417416E+03</pdfrwt>
<pdfrwt beam="2">  1       -2 0.60377390E-01 0.85417416E+03</pdfrwt>
<totfact> 0.41739241E+01</totfact>
</mgrwt>
</event>
<event>
 4    1  0.7280516E-007  0.8067507E+03  0.7818608E-02  0.9696385E-01
          2   -1    0    0  501    0  0.00000000000E+00  0.00000000000E+00  0.15707538015E+04  0.15707538015E+04  0.25500000000E-02 0. -1.
         -2   -1    0    0    0  501 -0.00000000000E+00 -0.00000000000E+00 -0.30983552166E+03  0.30983552167E+03  0.25500000000E-02 0.  1.
    8880023    1    1    2    0    0  0.43167169956E+03 -0.17520291941E+03  0.11007993720E+04  0.13647732350E+04  0.65864270000E+03 0.  1.
    8880022    1    1    2    0    0 -0.43167169956E+03  0.17520291941E+03  0.16011890778E+03  0.51581608817E+03  0.15294330000E+03 0.  0.
<mgrwt>
<rscale>  0 0.71232419E+03</rscale>
<asrwt>0</asrwt>
<pdfrwt beam="1">  1        2 0.24165443E+00 0.80675072E+03</pdfrwt>
<pdfrwt beam="2">  1       -2 0.47667003E-01 0.80675072E+03</pdfrwt>
<totfact> 0.49112096E+01</totfact>
</mgrwt>
</event>
<event>
 4    1  0.7280516E-007  0.7900678E+03  0.7818608E-02  0.9732698E-01
          2   -1    0    0  501    0  0.00000000000E+00  0.00000000000E+00  0.98630513284E+03  0.98630513285E+03  0.25500000000E-02 0. -1.
         -2   -1    0    0    0  501 -0.00000000000E+00 -0.00000000000E+00 -0.16058393848E+04  0.16058393848E+04  0.25500000000E-02 0.  1.
    8880023    1    1    2    0    0  0.12981928007E+03  0.41658594795E+03  0.78482721313E+03  0.11136250977E+04  0.65864270000E+03 0. -1.
    8880022    1    1    2    0    0 -0.12981928007E+03 -0.41658594795E+03 -0.14043614651E+04  0.14785194199E+04  0.15294330000E+03 0.  0.
<mgrwt>
<rscale>  0 0.69102907E+03</rscale>
<asrwt>0</asrwt>
<pdfrwt beam="1">  1        2 0.15173925E+00 0.79006778E+03</pdfrwt>
<pdfrwt beam="2">  1       -2 0.24705221E+00 0.79006778E+03</pdfrwt>
<totfact> 0.17680226E+00</totfact>
</mgrwt>
</event>
<event>
 4    1  0.7280516E-007  0.7350243E+03  0.7818608E-02  0.9874685E-01
         -2   -1    0    0    0  501 -0.00000000000E+00  0.00000000000E+00  0.10976673062E+04  0.10976673062E+04  0.25500000000E-02 0.  1.
          2   -1    0    0  501    0  0.00000000000E+00 -0.00000000000E+00 -0.15154303019E+04  0.15154303019E+04  0.25500000000E-02 0. -1.
    8880023    1    1    2    0    0 -0.24183949340E+02 -0.32536997905E+03 -0.13921182733E+04  0.15742471152E+04  0.65864270000E+03 0. -1.
    8880022    1    1    2    0    0  0.24183949340E+02  0.32536997905E+03  0.97435527753E+03  0.10388504929E+04  0.15294330000E+03 0.  0.
<mgrwt>
<rscale>  0 0.61503980E+03</rscale>
<asrwt>0</asrwt>
<pdfrwt beam="1">  1        2 0.23314312E+00 0.73502428E+03</pdfrwt>
<pdfrwt beam="2">  1       -2 0.16887189E+00 0.73502428E+03</pdfrwt>
<totfact> 0.27854746E+00</totfact>
</mgrwt>
</event>
<event>
 4    1  0.7280516E-007  0.8282715E+03  0.7818608E-02  0.9652705E-01
          2   -1    0    0  501    0  0.00000000000E+00  0.00000000000E+00  0.77452113668E+03  0.77452113668E+03  0.25500000000E-02 0. -1.
         -2   -1    0    0    0  501 -0.00000000000E+00 -0.00000000000E+00 -0.10939504791E+04  0.10939504791E+04  0.25500000000E-02 0.  1.
    8880023    1    1    2    0    0 -0.28266720991E+03 -0.41511763309E+03 -0.80379218001E+03  0.11541730701E+04  0.65864270000E+03 0.  1.
    8880022    1    1    2    0    0  0.28266720991E+03  0.41511763309E+03  0.48436283760E+03  0.71429854566E+03  0.15294330000E+03 0.  0.
<mgrwt>
<rscale>  0 0.73903905E+03</rscale>
<asrwt>0</asrwt>
<pdfrwt beam="1">  1        2 0.11915710E+00 0.82827146E+03</pdfrwt>
<pdfrwt beam="2">  1       -2 0.16830007E+00 0.82827146E+03</pdfrwt>
<totfact> 0.79484104E+00</totfact>
</mgrwt>
</event>
<event>
 4    1  0.7280516E-007  0.7410419E+03  0.7818608E-02  0.9856922E-01
          2   -1    0    0  501    0  0.00000000000E+00  0.00000000000E+00  0.23301475816E+04  0.23301475816E+04  0.25500000000E-02 0. -1.
         -2   -1    0    0    0  501 -0.00000000000E+00 -0.00000000000E+00 -0.44371631742E+03  0.44371631743E+03  0.25500000000E-02 0.  1.
    8880023    1    1    2    0    0 -0.27302619521E+03 -0.20196446376E+03  0.21781541696E+04  0.23007604701E+04  0.65864270000E+03 0. -1.
    8880022    1    1    2    0    0  0.27302619521E+03  0.20196446376E+03 -0.29172290543E+03  0.47310342893E+03  0.15294330000E+03 0.  0.
<mgrwt>
<rscale>  0 0.62395214E+03</rscale>
<asrwt>0</asrwt>
<pdfrwt beam="1">  1        2 0.35848424E+00 0.74104194E+03</pdfrwt>
<pdfrwt beam="2">  1       -2 0.68264049E-01 0.74104194E+03</pdfrwt>
<totfact> 0.89478707E+00</totfact>
</mgrwt>
</event>
<event>
 4    1  0.7280516E-007  0.1267135E+04  0.7818608E-02  0.9094473E-01
          2   -1    0    0  501    0  0.00000000000E+00  0.00000000000E+00  0.22659378983E+04  0.22659378983E+04  0.25500000000E-02 0. -1.
         -2   -1    0    0    0  501 -0.00000000000E+00 -0.00000000000E+00 -0.76520376650E+03  0.76520376650E+03  0.25500000000E-02 0.  1.
    8880023    1    1    2    0    0 -0.15424050208E+03 -0.10714621759E+04  0.14654543083E+04  0.19373146009E+04  0.65864270000E+03 0.  0.
    8880022    1    1    2    0    0  0.15424050208E+03  0.10714621759E+04  0.35279823497E+02  0.10938270639E+04  0.15294330000E+03 0.  0.
<mgrwt>
<rscale>  0 0.12212311E+04</rscale>
<asrwt>0</asrwt>
<pdfrwt beam="1">  1        2 0.34860583E+00 0.12671352E+04</pdfrwt>
<pdfrwt beam="2">  1       -2 0.11772366E+00 0.12671352E+04</pdfrwt>
<totfact> 0.25634493E+00</totfact>
</mgrwt>
</event>
<event>
 4    1  0.7280516E-007  0.1083342E+04  0.7818608E-02  0.9279833E-01
          2   -1    0    0  501    0  0.00000000000E+00  0.00000000000E+00  0.16323364902E+04  0.16323364902E+04  0.25500000000E-02 0. -1.
         -2   -1    0    0    0  501 -0.00000000000E+00 -0.00000000000E+00 -0.21486385362E+04  0.21486385362E+04  0.25500000000E-02 0.  1.
    8880023    1    1    2    0    0 -0.46195744514E+03  0.72554485767E+03  0.13437004570E+04  0.17260246655E+04  0.65864270000E+03 0.  0.
    8880022    1    1    2    0    0  0.46195744514E+03 -0.72554485767E+03 -0.18600025029E+04  0.20549503609E+04  0.15294330000E+03 0.  0.
<mgrwt>
<rscale>  0 0.10266085E+04</rscale>
<asrwt>0</asrwt>
<pdfrwt beam="1">  1        2 0.25112869E+00 0.10833422E+04</pdfrwt>
<pdfrwt beam="2">  1       -2 0.33055977E+00 0.10833422E+04</pdfrwt>
<totfact> 0.21951602E-01</totfact>
</mgrwt>
</event>
<event>
 4    1  0.7280516E-007  0.6596573E+03  0.7818608E-02  0.1024510E+00
          2   -1    0    0  501    0  0.00000000000E+00  0.00000000000E+00  0.32709455292E+04  0.32709455292E+04  0.25500000000E-02 0. -1.
         -2   -1    0    0    0  501 -0.00000000000E+00 -0.00000000000E+00 -0.16296500676E+03  0.16296500678E+03  0.25500000000E-02 0.  1.
    8880023    1    1    2    0    0 -0.32371830274E+01  0.36428358390E+02  0.31893474403E+04  0.32568519779E+04  0.65864270000E+03 0. -1.
    8880022    1    1    2    0    0  0.32371830274E+01 -0.36428358390E+02 -0.81366917877E+02  0.17705855808E+03  0.15294330000E+03 0.  0.
<mgrwt>
<rscale>  0 0.46093526E+03</rscale>
<asrwt>0</asrwt>
<pdfrwt beam="1">  1        2 0.50322240E+00 0.65965727E+03</pdfrwt>
<pdfrwt beam="2">  1       -2 0.25071539E-01 0.65965727E+03</pdfrwt>
<totfact> 0.18048542E+01</totfact>
</mgrwt>
</event>
<event>
 4    1  0.7280516E-007  0.7101202E+03  0.7818608E-02  0.9957555E-01
         -2   -1    0    0    0  501 -0.00000000000E+00  0.00000000000E+00  0.89681957615E+03  0.89681957615E+03  0.25500000000E-02 0.  1.
          2   -1    0    0  501    0  0.00000000000E+00 -0.00000000000E+00 -0.43030968307E+03  0.43030968308E+03  0.25500000000E-02 0. -1.
    8880023    1    1    2    0    0  0.24904327039E+03 -0.91858011374E+02 -0.65587399247E+02  0.71314259302E+03  0.65864270000E+03 0. -1.
    8880022    1    1    2    0    0 -0.24904327039E+03  0.91858011374E+02  0.53209729232E+03  0.61398666622E+03  0.15294330000E+03 0.  0.
<mgrwt>
<rscale>  0 0.57551200E+03</rscale>
<asrwt>0</asrwt>
<pdfrwt beam="1">  1        2 0.66201489E-01 0.71012017E+03</pdfrwt>
<pdfrwt beam="2">  1       -2 0.13797224E+00 0.71012017E+03</pdfrwt>
<totfact> 0.27728152E+01</totfact>
</mgrwt>
</event>
<event>
 4    1  0.7280516E-007  0.7291779E+03  0.7818608E-02  0.9892673E-01
         -2   -1    0    0    0  501 -0.00000000000E+00  0.00000000000E+00  0.30334422088E+03  0.30334422089E+03  0.25500000000E-02 0.  1.
          2   -1    0    0  501    0  0.00000000000E+00 -0.00000000000E+00 -0.97189019190E+03  0.97189019190E+03  0.25500000000E-02 0. -1.
    8880023    1    1    2    0    0  0.10270714385E+03  0.29553581934E+03 -0.52520765433E+03  0.89863422166E+03  0.65864270000E+03 0.  0.
    8880022    1    1    2    0    0 -0.10270714385E+03 -0.29553581934E+03 -0.14333831669E+03  0.37660019113E+03  0.15294330000E+03 0. -1.
<mgrwt>
<rscale>  0 0.60617718E+03</rscale>
<asrwt>0</asrwt>
<pdfrwt beam="1">  1        2 0.14952157E+00 0.72917788E+03</pdfrwt>
<pdfrwt beam="2">  1       -2 0.46668342E-01 0.72917788E+03</pdfrwt>
<totfact> 0.11596262E+02</totfact>
</mgrwt>
</event>
<event>
 4    1  0.7280516E-007  0.1375313E+04  0.7818608E-02  0.9003106E-01
         -2   -1    0    0    0  501 -0.00000000000E+00  0.00000000000E+00  0.22743913434E+04  0.22743913434E+04  0.25500000000E-02 0.  1.
          2   -1    0    0  501    0  0.00000000000E+00 -0.00000000000E+00 -0.12164996194E+04  0.12164996194E+04  0.25500000000E-02 0. -1.
    8880023    1    1    2    0    0  0.95135551366E+03 -0.74337049988E+03 -0.54412887747E+03  0.14790413973E+04  0.65864270000E+03 0. -1.
    8880022    1    1    2    0    0 -0.95135551366E+03  0.74337049988E+03  0.16020206015E+04  0.20118495655E+04  0.15294330000E+03 0.  0.
<mgrwt>
<rscale>  0 0.13338997E+04</rscale>
<asrwt>0</asrwt>
<pdfrwt beam="1">  1        2 0.18715379E+00 0.13753135E+04</pdfrwt>
<pdfrwt beam="2">  1       -2 0.34990636E+00 0.13753135E+04</pdfrwt>
<totfact> 0.27670812E-01</totfact>
</mgrwt>
</event>
<event>
 4    1  0.7280516E-007  0.7071015E+03  0.7818608E-02  0.9968926E-01
         -2   -1    0    0    0  501 -0.00000000000E+00  0.00000000000E+00  0.10648313776E+04  0.10648313776E+04  0.25500000000E-02 0.  1.
          2   -1    0    0  501    0  0.00000000000E+00 -0.00000000000E+00 -0.25420524930E+03  0.25420524932E+03  0.25500000000E-02 0. -1.
    8880023    1    1    2    0    0 -0.25718976418E+03  0.59771796393E+01  0.40475914494E+03  0.81475301359E+03  0.65864270000E+03 0.  0.
    8880022    1    1    2    0    0  0.25718976418E+03 -0.59771796393E+01  0.40586698334E+03  0.50428361331E+03  0.15294330000E+03 0.  0.
<mgrwt>
<rscale>  0 0.57034026E+03</rscale>
<asrwt>0</asrwt>
<pdfrwt beam="1">  1        2 0.39108500E-01 0.70710148E+03</pdfrwt>
<pdfrwt beam="2">  1       -2 0.16382021E+00 0.70710148E+03</pdfrwt>
<totfact> 0.31670822E+01</totfact>
</mgrwt>
</event>
<event>
 4    1  0.7280516E-007  0.9634938E+03  0.7818608E-02  0.9430960E-01
         -2   -1    0    0    0  501 -0.00000000000E+00  0.00000000000E+00  0.77306521260E+03  0.77306521261E+03  0.25500000000E-02 0.  1.
          2   -1    0    0  501    0  0.00000000000E+00 -0.00000000000E+00 -0.13084994713E+04  0.13084994713E+04  0.25500000000E-02 0. -1.
    8880023    1    1    2    0    0 -0.69256930023E+03  0.12189311874E+03 -0.86058123462E+03  0.12918670348E+04  0.65864270000E+03 0. -1.
    8880022    1    1    2    0    0  0.69256930023E+03 -0.12189311874E+03  0.32514697592E+03  0.78969764909E+03  0.15294330000E+03 0.  0.
<mgrwt>
<rscale>  0 0.89571044E+03</rscale>
<asrwt>0</asrwt>
<pdfrwt beam="1">  1        2 0.20130761E+00 0.96349384E+03</pdfrwt>
<pdfrwt beam="2">  1       -2 0.11893311E+00 0.96349384E+03</pdfrwt>
<totfact> 0.88440344E+00</totfact>
</mgrwt>
</event>
<event>
 4    1  0.7280516E-007  0.7416641E+03  0.7818608E-02  0.9855126E-01
          2   -1    0    0  501    0  0.00000000000E+00  0.00000000000E+00  0.22142662555E+04  0.22142662555E+04  0.25500000000E-02 0. -1.
         -2   -1    0    0    0  501 -0.00000000000E+00 -0.00000000000E+00 -0.16716656734E+03  0.16716656736E+03  0.25500000000E-02 0.  1.
    8880023    1    1    2    0    0  0.17464724073E+03 -0.29283752264E+03  0.17609583310E+04  0.19107694584E+04  0.65864270000E+03 0.  1.
    8880022    1    1    2    0    0 -0.17464724073E+03  0.29283752264E+03  0.28614135718E+03  0.47066336448E+03  0.15294330000E+03 0. -1.
<mgrwt>
<rscale>  0 0.62486249E+03</rscale>
<asrwt>0</asrwt>
<pdfrwt beam="1">  1        2 0.34065634E+00 0.74166413E+03</pdfrwt>
<pdfrwt beam="2">  1       -2 0.25717934E-01 0.74166413E+03</pdfrwt>
<totfact> 0.71319457E+01</totfact>
</mgrwt>
</event>
<event>
 4    1  0.7280516E-007  0.8921996E+03  0.7818608E-02  0.9538672E-01
         -2   -1    0    0    0  501 -0.00000000000E+00  0.00000000000E+00  0.63819414011E+03  0.63819414011E+03  0.25500000000E-02 0.  1.
          2   -1    0    0  501    0  0.00000000000E+00 -0.00000000000E+00 -0.12223518858E+04  0.12223518858E+04  0.25500000000E-02 0. -1.
    8880023    1    1    2    0    0 -0.34529814294E+03  0.49292914374E+03 -0.80479299293E+03  0.12015456363E+04  0.65864270000E+03 0.  0.
    8880022    1    1    2    0    0  0.34529814294E+03 -0.49292914374E+03  0.22063524723E+03  0.65900038968E+03  0.15294330000E+03 0.  0.
<mgrwt>
<rscale>  0 0.81491794E+03</rscale>
<asrwt>0</asrwt>
<pdfrwt beam="1">  1        2 0.18805414E+00 0.89219962E+03</pdfrwt>
<pdfrwt beam="2">  1       -2 0.98183714E-01 0.89219962E+03</pdfrwt>
<totfact> 0.15911345E+01</totfact>
</mgrwt>
</event>
<event>
 4    1  0.7280516E-007  0.6678471E+03  0.7818608E-02  0.1017256E+00
         -2   -1    0    0    0  501 -0.00000000000E+00  0.00000000000E+00  0.12019434171E+03  0.12019434174E+03  0.25500000000E-02 0.  1.
          2   -1    0    0  501    0  0.00000000000E+00 -0.00000000000E+00 -0.30186953085E+04  0.30186953085E+04  0.25500000000E-02 0. -1.
    8880023    1    1    2    0    0 -0.49175010115E+02  0.98951552230E+02 -0.28716730701E+04  0.29483090101E+04  0.65864270000E+03 0. -1.
    8880022    1    1    2    0    0  0.49175010115E+02 -0.98951552230E+02 -0.26827896610E+02  0.19058064004E+03  0.15294330000E+03 0.  0.
<mgrwt>
<rscale>  0 0.48690132E+03</rscale>
<asrwt>0</asrwt>
<pdfrwt beam="1">  1        2 0.46441460E+00 0.66784714E+03</pdfrwt>
<pdfrwt beam="2">  1       -2 0.18491440E-01 0.66784714E+03</pdfrwt>
<totfact> 0.44390130E+01</totfact>
</mgrwt>
</event>
<event>
 4    1  0.7280516E-007  0.6594894E+03  0.7818608E-02  0.1024686E+00
         -2   -1    0    0    0  501 -0.00000000000E+00  0.00000000000E+00  0.23972990224E+03  0.23972990226E+03  0.25500000000E-02 0.  1.
          2   -1    0    0  501    0  0.00000000000E+00 -0.00000000000E+00 -0.92458292698E+03  0.92458292699E+03  0.25500000000E-02 0. -1.
    8880023    1    1    2    0    0 -0.32316795352E+02  0.84675375180E+01 -0.74647864983E+03  0.99607060762E+03  0.65864270000E+03 0. -1.
    8880022    1    1    2    0    0  0.32316795352E+02 -0.84675375180E+01  0.61625625088E+02  0.16824222162E+03  0.15294330000E+03 0.  0.
<mgrwt>
<rscale>  0 0.46032944E+03</rscale>
<asrwt>0</asrwt>
<pdfrwt beam="1">  1        2 0.14224353E+00 0.65948941E+03</pdfrwt>
<pdfrwt beam="2">  1       -2 0.36881524E-01 0.65948941E+03</pdfrwt>
<totfact> 0.19850906E+02</totfact>
</mgrwt>
</event>
<event>
 4    1  0.7280516E-007  0.7076683E+03  0.7818608E-02  0.9966764E-01
         -2   -1    0    0    0  501 -0.00000000000E+00  0.00000000000E+00  0.47656639059E+03  0.47656639060E+03  0.25500000000E-02 0.  1.
          2   -1    0    0  501    0  0.00000000000E+00 -0.00000000000E+00 -0.11502959601E+04  0.11502959601E+04  0.25500000000E-02 0. -1.
    8880023    1    1    2    0    0 -0.21206535335E+03 -0.14836602039E+03 -0.97269613377E+03  0.12028849342E+04  0.65864270000E+03 0. -1.
    8880022    1    1    2    0    0  0.21206535335E+03  0.14836602039E+03  0.29896656427E+03  0.42397741645E+03  0.15294330000E+03 0.  0.
<mgrwt>
<rscale>  0 0.57131923E+03</rscale>
<asrwt>0</asrwt>
<pdfrwt beam="1">  1        2 0.17696861E+00 0.70766828E+03</pdfrwt>
<pdfrwt beam="2">  1       -2 0.73317907E-01 0.70766828E+03</pdfrwt>
<totfact> 0.34831815E+01</totfact>
</mgrwt>
</event>
<event>
 4    1  0.7280516E-007  0.6918416E+03  0.7818608E-02  0.1003289E+00
          2   -1    0    0  501    0  0.00000000000E+00  0.00000000000E+00  0.12990636944E+04  0.12990636944E+04  0.25500000000E-02 0. -1.
         -2   -1    0    0    0  501 -0.00000000000E+00 -0.00000000000E+00 -0.26675292487E+03  0.26675292489E+03  0.25500000000E-02 0.  1.
    8880023    1    1    2    0    0 -0.12161436123E+03 -0.17333345969E+03  0.10968008533E+04  0.12967717066E+04  0.65864270000E+03 0. -1.
    8880022    1    1    2    0    0  0.12161436123E+03  0.17333345969E+03 -0.64490083758E+02  0.26904491265E+03  0.15294330000E+03 0.  0.
<mgrwt>
<rscale>  0 0.54231158E+03</rscale>
<asrwt>0</asrwt>
<pdfrwt beam="1">  1        2 0.19985595E+00 0.69184156E+03</pdfrwt>
<pdfrwt beam="2">  1       -2 0.41038912E-01 0.69184156E+03</pdfrwt>
<totfact> 0.95092739E+01</totfact>
</mgrwt>
</event>
<event>
 4    1  0.7280516E-007  0.7761297E+03  0.7818608E-02  0.9765008E-01
         -2   -1    0    0    0  501 -0.00000000000E+00  0.00000000000E+00  0.48902479769E+03  0.48902479769E+03  0.25500000000E-02 0.  1.
          2   -1    0    0  501    0  0.00000000000E+00 -0.00000000000E+00 -0.21580638394E+04  0.21580638394E+04  0.25500000000E-02 0. -1.
    8880023    1    1    2    0    0  0.40941177290E+03  0.30806507853E+02 -0.19687780406E+04  0.21162382239E+04  0.65864270000E+03 0.  0.
    8880022    1    1    2    0    0 -0.40941177290E+03 -0.30806507853E+02  0.29973899891E+03  0.53085041321E+03  0.15294330000E+03 0.  0.
<mgrwt>
<rscale>  0 0.67274687E+03</rscale>
<asrwt>0</asrwt>
<pdfrwt beam="1">  1        2 0.33200982E+00 0.77612966E+03</pdfrwt>
<pdfrwt beam="2">  1       -2 0.75234585E-01 0.77612966E+03</pdfrwt>
<totfact> 0.89505164E+00</totfact>
</mgrwt>
</event>
<event>
 4    1  0.7280516E-007  0.1043573E+04  0.7818608E-02  0.9326648E-01
          2   -1    0    0  501    0  0.00000000000E+00  0.00000000000E+00  0.16446264845E+04  0.16446264845E+04  0.25500000000E-02 0. -1.
         -2   -1    0    0    0  501 -0.00000000000E+00 -0.00000000000E+00 -0.63563445566E+03  0.63563445566E+03  0.25500000000E-02 0.  1.
    8880023    1    1    2    0    0  0.80437176108E+03 -0.90668160336E+02  0.92060833075E+02  0.10476259106E+04  0.65864270000E+03 0.  1.
    8880022    1    1    2    0    0 -0.80437176108E+03  0.90668160336E+02  0.91693119578E+03  0.12326350296E+04  0.15294330000E+03 0.  0.
<mgrwt>
<rscale>  0 0.98366223E+03</rscale>
<asrwt>0</asrwt>
<pdfrwt beam="1">  1        2 0.25301945E+00 0.10435731E+04</pdfrwt>
<pdfrwt beam="2">  1       -2 0.97789919E-01 0.10435731E+04</pdfrwt>
<totfact> 0.90981160E+00</totfact>
</mgrwt>
</event>
<event>
 4    1  0.7280516E-007  0.6934487E+03  0.7818608E-02  0.1002555E+00
          2   -1    0    0  501    0  0.00000000000E+00  0.00000000000E+00  0.23978023991E+04  0.23978023991E+04  0.25500000000E-02 0. -1.
         -2   -1    0    0    0  501 -0.00000000000E+00 -0.00000000000E+00 -0.13707604362E+03  0.13707604365E+03  0.25500000000E-02 0.  1.
    8880023    1    1    2    0    0 -0.12998975206E+03  0.17367659607E+03  0.83850246035E+03  0.10880981012E+04  0.65864270000E+03 0.  1.
    8880022    1    1    2    0    0  0.12998975206E+03 -0.17367659607E+03  0.14222238951E+04  0.14467803415E+04  0.15294330000E+03 0.  0.
<mgrwt>
<rscale>  0 0.54544108E+03</rscale>
<asrwt>0</asrwt>
<pdfrwt beam="1">  1        2 0.36889266E+00 0.69344870E+03</pdfrwt>
<pdfrwt beam="2">  1       -2 0.21088623E-01 0.69344870E+03</pdfrwt>
<totfact> 0.80869918E+01</totfact>
</mgrwt>
</event>
<event>
 4    1  0.7280516E-007  0.8332104E+03  0.7818608E-02  0.9643118E-01
          2   -1    0    0  501    0  0.00000000000E+00  0.00000000000E+00  0.65074819992E+03  0.65074819993E+03  0.25500000000E-02 0. -1.
         -2   -1    0    0    0  501 -0.00000000000E+00 -0.00000000000E+00 -0.10457751721E+04  0.10457751721E+04  0.25500000000E-02 0.  1.
    8880023    1    1    2    0    0  0.48890706440E+03 -0.14628460796E+03  0.24051141802E+03  0.86722848927E+03  0.65864270000E+03 0.  0.
    8880022    1    1    2    0    0 -0.48890706440E+03  0.14628460796E+03 -0.63553839023E+03  0.82929488279E+03  0.15294330000E+03 0.  0.
<mgrwt>
<rscale>  0 0.74506910E+03</rscale>
<asrwt>0</asrwt>
<pdfrwt beam="1">  1        2 0.10011511E+00 0.83321036E+03</pdfrwt>
<pdfrwt beam="2">  1       -2 0.16088849E+00 0.83321036E+03</pdfrwt>
<totfact> 0.11221101E+01</totfact>
</mgrwt>
</event>
<event>
 4    1  0.7280516E-007  0.8704971E+03  0.7818608E-02  0.9575157E-01
          2   -1    0    0  501    0  0.00000000000E+00  0.00000000000E+00  0.66522997911E+03  0.66522997911E+03  0.25500000000E-02 0. -1.
         -2   -1    0    0    0  501 -0.00000000000E+00 -0.00000000000E+00 -0.10355146682E+04  0.10355146682E+04  0.25500000000E-02 0.  1.
    8880023    1    1    2    0    0 -0.52646990608E+03 -0.21629711698E+03  0.18618575993E+03  0.89018556958E+03  0.65864270000E+03 0. -1.
    8880022    1    1    2    0    0  0.52646990608E+03  0.21629711698E+03 -0.55647044899E+03  0.81055907770E+03  0.15294330000E+03 0.  0.
<mgrwt>
<rscale>  0 0.78962500E+03</rscale>
<asrwt>0</asrwt>
<pdfrwt beam="1">  1        2 0.10234307E+00 0.87049711E+03</pdfrwt>
<pdfrwt beam="2">  1       -2 0.15930995E+00 0.87049711E+03</pdfrwt>
<totfact> 0.11175765E+01</totfact>
</mgrwt>
</event>
<event>
 4    1  0.7280516E-007  0.7030057E+03  0.7818608E-02  0.9984954E-01
          2   -1    0    0  501    0  0.00000000000E+00  0.00000000000E+00  0.11880410374E+04  0.11880410374E+04  0.25500000000E-02 0. -1.
         -2   -1    0    0    0  501 -0.00000000000E+00 -0.00000000000E+00 -0.31377359673E+03  0.31377359674E+03  0.25500000000E-02 0.  1.
    8880023    1    1    2    0    0  0.44392821178E+00  0.24577763064E+03  0.96906629952E+03  0.11972078098E+04  0.65864270000E+03 0.  0.
    8880022    1    1    2    0    0 -0.44392821178E+00 -0.24577763064E+03 -0.94798858815E+02  0.30460682435E+03  0.15294330000E+03 0.  0.
<mgrwt>
<rscale>  0 0.56314946E+03</rscale>
<asrwt>0</asrwt>
<pdfrwt beam="1">  1        2 0.18277554E+00 0.70300572E+03</pdfrwt>
<pdfrwt beam="2">  1       -2 0.48272861E-01 0.70300572E+03</pdfrwt>
<totfact> 0.79860756E+01</totfact>
</mgrwt>
</event>
<event>
 4    1  0.7280516E-007  0.7310680E+03  0.7818608E-02  0.9886774E-01
         -2   -1    0    0    0  501 -0.00000000000E+00  0.00000000000E+00  0.15755451761E+04  0.15755451761E+04  0.25500000000E-02 0.  1.
          2   -1    0    0  501    0  0.00000000000E+00 -0.00000000000E+00 -0.48657988362E+03  0.48657988363E+03  0.25500000000E-02 0. -1.
    8880023    1    1    2    0    0  0.74233755566E+02  0.30844690441E+03 -0.17356658258E+03  0.75138918555E+03  0.65864270000E+03 0. -1.
    8880022    1    1    2    0    0 -0.74233755566E+02 -0.30844690441E+03  0.12625318750E+04  0.13107358742E+04  0.15294330000E+03 0.  0.
<mgrwt>
<rscale>  0 0.60906594E+03</rscale>
<asrwt>0</asrwt>
<pdfrwt beam="1">  1        2 0.74858444E-01 0.73106795E+03</pdfrwt>
<pdfrwt beam="2">  1       -2 0.24239156E+00 0.73106795E+03</pdfrwt>
<totfact> 0.46864037E+00</totfact>
</mgrwt>
</event>
<event>
 4    1  0.7280516E-007  0.9807703E+03  0.7818608E-02  0.9407160E-01
         -2   -1    0    0    0  501 -0.00000000000E+00  0.00000000000E+00  0.49356602507E+03  0.49356602508E+03  0.25500000000E-02 0.  1.
          2   -1    0    0  501    0  0.00000000000E+00 -0.00000000000E+00 -0.20398404520E+04  0.20398404520E+04  0.25500000000E-02 0. -1.
    8880023    1    1    2    0    0  0.41867758078E+03 -0.59397746181E+03 -0.14963224266E+04  0.17891034493E+04  0.65864270000E+03 0. -1.
    8880022    1    1    2    0    0 -0.41867758078E+03  0.59397746181E+03 -0.49952000334E+02  0.74430302776E+03  0.15294330000E+03 0.  0.
<mgrwt>
<rscale>  0 0.91488784E+03</rscale>
<asrwt>0</asrwt>
<pdfrwt beam="1">  1        2 0.31382160E+00 0.98077028E+03</pdfrwt>
<pdfrwt beam="2">  1       -2 0.75933236E-01 0.98077028E+03</pdfrwt>
<totfact> 0.99139911E+00</totfact>
</mgrwt>
</event>
<event>
 4    1  0.7280516E-007  0.7180566E+03  0.7818608E-02  0.9929218E-01
         -2   -1    0    0    0  501 -0.00000000000E+00  0.00000000000E+00  0.16460990161E+03  0.16460990163E+03  0.25500000000E-02 0.  1.
          2   -1    0    0  501    0  0.00000000000E+00 -0.00000000000E+00 -0.26998851929E+04  0.26998851929E+04  0.25500000000E-02 0. -1.
    8880023    1    1    2    0    0 -0.23742855967E+03 -0.15944492829E+03 -0.24135159751E+04  0.25180676271E+04  0.65864270000E+03 0.  0.
    8880022    1    1    2    0    0  0.23742855967E+03  0.15944492829E+03 -0.12175931613E+03  0.34642746743E+03  0.15294330000E+03 0.  0.
<mgrwt>
<rscale>  0 0.58865938E+03</rscale>
<asrwt>0</asrwt>
<pdfrwt beam="1">  1        2 0.41536692E+00 0.71805655E+03</pdfrwt>
<pdfrwt beam="2">  1       -2 0.25324602E-01 0.71805655E+03</pdfrwt>
<totfact> 0.39127067E+01</totfact>
</mgrwt>
</event>
<event>
 4    1  0.7280516E-007  0.6853762E+03  0.7818608E-02  0.1006433E+00
         -2   -1    0    0    0  501 -0.00000000000E+00  0.00000000000E+00  0.58971378241E+03  0.58971378241E+03  0.25500000000E-02 0.  1.
          2   -1    0    0  501    0  0.00000000000E+00 -0.00000000000E+00 -0.50799488788E+03  0.50799488789E+03  0.25500000000E-02 0. -1.
    8880023    1    1    2    0    0  0.18021513155E+03  0.58760956321E+02 -0.21080367259E+03  0.71706257626E+03  0.65864270000E+03 0.  0.
    8880022    1    1    2    0    0 -0.18021513155E+03 -0.58760956321E+02  0.29252256712E+03  0.38064609405E+03  0.15294330000E+03 0. -1.
<mgrwt>
<rscale>  0 0.52917429E+03</rscale>
<asrwt>0</asrwt>
<pdfrwt beam="1">  1        2 0.78153060E-01 0.68537621E+03</pdfrwt>
<pdfrwt beam="2">  1       -2 0.90725197E-01 0.68537621E+03</pdfrwt>
<totfact> 0.63702055E+01</totfact>
</mgrwt>
</event>
<event>
 4    1  0.8584165E-007  0.7546735E+03  0.7818608E-02  0.9819097E-01
          2   -1    0    0  501    0  0.00000000000E+00  0.00000000000E+00  0.25599863134E+04  0.25599863134E+04  0.25500000000E-02 0. -1.
         -2   -1    0    0    0  501 -0.00000000000E+00 -0.00000000000E+00 -0.72064788356E+03  0.72064788356E+03  0.25500000000E-02 0.  1.
    8880023    1    1    2    0    0 -0.22440779379E+03  0.29216960765E+03  0.24430995960E+04  0.25570036723E+04  0.65864270000E+03 0.  0.
    8880022    1    1    2    0    0  0.22440779379E+03 -0.29216960765E+03 -0.60376116616E+03  0.72363052474E+03  0.15294330000E+03 0.  0.
<mgrwt>
<rscale>  0 0.64347659E+03</rscale>
<asrwt>0</asrwt>
<pdfrwt beam="1">  1        2 0.39384405E+00 0.75467353E+03</pdfrwt>
<pdfrwt beam="2">  1       -2 0.11086890E+00 0.75467353E+03</pdfrwt>
<totfact> 0.21773096E+00</totfact>
</mgrwt>
</event>
<event>
 4    1  0.7280516E-007  0.7365269E+03  0.7818608E-02  0.9870182E-01
         -2   -1    0    0    0  501 -0.00000000000E+00  0.00000000000E+00  0.20281795274E+03  0.20281795276E+03  0.25500000000E-02 0.  1.
          2   -1    0    0  501    0  0.00000000000E+00 -0.00000000000E+00 -0.17243854723E+04  0.17243854723E+04  0.25500000000E-02 0. -1.
    8880023    1    1    2    0    0  0.15149429209E+03  0.29276478330E+03 -0.13201876177E+04  0.15117431300E+04  0.65864270000E+03 0.  0.
    8880022    1    1    2    0    0 -0.15149429209E+03 -0.29276478330E+03 -0.20137990183E+03  0.41546029504E+03  0.15294330000E+03 0.  0.
<mgrwt>
<rscale>  0 0.61728422E+03</rscale>
<asrwt>0</asrwt>
<pdfrwt beam="1">  1        2 0.26529006E+00 0.73652695E+03</pdfrwt>
<pdfrwt beam="2">  1       -2 0.31202763E-01 0.73652695E+03</pdfrwt>
<totfact> 0.92626999E+01</totfact>
</mgrwt>
</event>
<event>
 4    1  0.7280516E-007  0.1008102E+04  0.7818608E-02  0.9371033E-01
         -2   -1    0    0    0  501 -0.00000000000E+00  0.00000000000E+00  0.80421830930E+03  0.80421830930E+03  0.25500000000E-02 0.  1.
          2   -1    0    0  501    0  0.00000000000E+00 -0.00000000000E+00 -0.17552770271E+04  0.17552770271E+04  0.25500000000E-02 0. -1.
    8880023    1    1    2    0    0 -0.57732443678E+03 -0.49915600862E+03 -0.13499872743E+04  0.16848549117E+04  0.65864270000E+03 0. -1.
    8880022    1    1    2    0    0  0.57732443678E+03  0.49915600862E+03  0.39892855657E+03  0.87464042470E+03  0.15294330000E+03 0.  0.
<mgrwt>
<rscale>  0 0.94498364E+03</rscale>
<asrwt>0</asrwt>
<pdfrwt beam="1">  1        2 0.27004262E+00 0.10081024E+04</pdfrwt>
<pdfrwt beam="2">  1       -2 0.12372589E+00 0.10081024E+04</pdfrwt>
<totfact> 0.44724792E+00</totfact>
</mgrwt>
</event>
<event>
 4    1  0.7280516E-007  0.9515912E+03  0.7818608E-02  0.9447828E-01
          2   -1    0    0  501    0  0.00000000000E+00  0.00000000000E+00  0.12535671299E+04  0.12535671299E+04  0.25500000000E-02 0. -1.
         -2   -1    0    0    0  501 -0.00000000000E+00 -0.00000000000E+00 -0.10420997535E+04  0.10420997535E+04  0.25500000000E-02 0.  1.
    8880023    1    1    2    0    0  0.50161381485E+03 -0.46914736242E+03  0.90101971954E+03  0.13104817466E+04  0.65864270000E+03 0.  0.
    8880022    1    1    2    0    0 -0.50161381485E+03  0.46914736242E+03 -0.68955234308E+03  0.98518513680E+03  0.15294330000E+03 0.  0.
<mgrwt>
<rscale>  0 0.88241980E+03</rscale>
<asrwt>0</asrwt>
<pdfrwt beam="1">  1        2 0.19285648E+00 0.95159123E+03</pdfrwt>
<pdfrwt beam="2">  1       -2 0.16032304E+00 0.95159123E+03</pdfrwt>
<totfact> 0.43951650E+00</totfact>
</mgrwt>
</event>
<event>
 4    1  0.7280516E-007  0.8449013E+03  0.7818608E-02  0.9621007E-01
         -2   -1    0    0    0  501 -0.00000000000E+00  0.00000000000E+00  0.57019742451E+03  0.57019742451E+03  0.25500000000E-02 0.  1.
          2   -1    0    0  501    0  0.00000000000E+00 -0.00000000000E+00 -0.18849920235E+04  0.18849920235E+04  0.25500000000E-02 0. -1.
    8880023    1    1    2    0    0 -0.52896252129E+03  0.15707048093E+02 -0.16187926821E+04  0.18260197190E+04  0.65864270000E+03 0. -1.
    8880022    1    1    2    0    0  0.52896252129E+03 -0.15707048093E+02  0.30399808315E+03  0.62916972898E+03  0.15294330000E+03 0.  0.
<mgrwt>
<rscale>  0 0.75921285E+03</rscale>
<asrwt>0</asrwt>
<pdfrwt beam="1">  1        2 0.28999877E+00 0.84490134E+03</pdfrwt>
<pdfrwt beam="2">  1       -2 0.87722682E-01 0.84490134E+03</pdfrwt>
<totfact> 0.88428880E+00</totfact>
</mgrwt>
</event>
<event>
 4    1  0.7280516E-007  0.6883536E+03  0.7818608E-02  0.1004945E+00
          2   -1    0    0  501    0  0.00000000000E+00  0.00000000000E+00  0.12071071469E+04  0.12071071469E+04  0.25500000000E-02 0. -1.
         -2   -1    0    0    0  501 -0.00000000000E+00 -0.00000000000E+00 -0.65208725439E+03  0.65208725439E+03  0.25500000000E-02 0.  1.
    8880023    1    1    2    0    0 -0.45914231808E+02  0.19471109184E+03  0.10778377970E+04  0.12788921178E+04  0.65864270000E+03 0. -1.
    8880022    1    1    2    0    0  0.45914231808E+02 -0.19471109184E+03 -0.52281790450E+03  0.58030228351E+03  0.15294330000E+03 0.  0.
<mgrwt>
<rscale>  0 0.53534074E+03</rscale>
<asrwt>0</asrwt>
<pdfrwt beam="1">  1        2 0.18570879E+00 0.68835364E+03</pdfrwt>
<pdfrwt beam="2">  1       -2 0.10032112E+00 0.68835364E+03</pdfrwt>
<totfact> 0.15792701E+01</totfact>
</mgrwt>
</event>
<event>
 4    1  0.7280516E-007  0.8479218E+03  0.7818608E-02  0.9615420E-01
          2   -1    0    0  501    0  0.00000000000E+00  0.00000000000E+00  0.12147783533E+04  0.12147783533E+04  0.25500000000E-02 0. -1.
         -2   -1    0    0    0  501 -0.00000000000E+00 -0.00000000000E+00 -0.11603715745E+04  0.11603715745E+04  0.25500000000E-02 0.  1.
    8880023    1    1    2    0    0 -0.10263197487E+03  0.52404955118E+03  0.97985430449E+03  0.12957954772E+04  0.65864270000E+03 0. -1.
    8880022    1    1    2    0    0  0.10263197487E+03 -0.52404955118E+03 -0.92544752567E+03  0.10793544507E+04  0.15294330000E+03 0.  0.
<mgrwt>
<rscale>  0 0.76283933E+03</rscale>
<asrwt>0</asrwt>
<pdfrwt beam="1">  1        2 0.18688898E+00 0.84792185E+03</pdfrwt>
<pdfrwt beam="2">  1       -2 0.17851870E+00 0.84792185E+03</pdfrwt>
<totfact> 0.34806380E+00</totfact>
</mgrwt>
</event>
<event>
 4    1  0.7280516E-007  0.7543325E+03  0.7818608E-02  0.9820007E-01
         -2   -1    0    0    0  501 -0.00000000000E+00  0.00000000000E+00  0.22191772292E+03  0.22191772293E+03  0.25500000000E-02 0.  1.
          2   -1    0    0  501    0  0.00000000000E+00 -0.00000000000E+00 -0.21027830621E+04  0.21027830621E+04  0.25500000000E-02 0. -1.
    8880023    1    1    2    0    0 -0.36745960769E+03 -0.13444409124E+02 -0.17497547057E+04  0.19054288368E+04  0.65864270000E+03 0.  0.
    8880022    1    1    2    0    0  0.36745960769E+03  0.13444409124E+02 -0.13111063349E+03  0.41927194832E+03  0.15294330000E+03 0.  0.
<mgrwt>
<rscale>  0 0.64299806E+03</rscale>
<asrwt>0</asrwt>
<pdfrwt beam="1">  1        2 0.32350507E+00 0.75433250E+03</pdfrwt>
<pdfrwt beam="2">  1       -2 0.34141190E-01 0.75433250E+03</pdfrwt>
<totfact> 0.48511593E+01</totfact>
</mgrwt>
</event>
<event>
 4    1  0.7280516E-007  0.6676926E+03  0.7818608E-02  0.1017374E+00
          2   -1    0    0  501    0  0.00000000000E+00  0.00000000000E+00  0.92893116395E+03  0.92893116395E+03  0.25500000000E-02 0. -1.
         -2   -1    0    0    0  501 -0.00000000000E+00 -0.00000000000E+00 -0.19745518746E+03  0.19745518748E+03  0.25500000000E-02 0.  1.
    8880023    1    1    2    0    0 -0.74357739788E+02  0.80462102513E+02  0.58957254003E+03  0.89073520736E+03  0.65864270000E+03 0.  0.
    8880022    1    1    2    0    0  0.74357739788E+02 -0.80462102513E+02  0.14190343646E+03  0.23565114407E+03  0.15294330000E+03 0. -1.
<mgrwt>
<rscale>  0 0.48646319E+03</rscale>
<asrwt>0</asrwt>
<pdfrwt beam="1">  1        2 0.14291248E+00 0.66769262E+03</pdfrwt>
<pdfrwt beam="2">  1       -2 0.30377722E-01 0.66769262E+03</pdfrwt>
<totfact> 0.28421668E+02</totfact>
</mgrwt>
</event>
<event>
 4    1  0.7280516E-007  0.7599878E+03  0.7818608E-02  0.9805139E-01
          2   -1    0    0  501    0  0.00000000000E+00  0.00000000000E+00  0.21289240816E+04  0.21289240816E+04  0.25500000000E-02 0. -1.
         -2   -1    0    0    0  501 -0.00000000000E+00 -0.00000000000E+00 -0.19554227512E+03  0.19554227513E+03  0.25500000000E-02 0.  1.
    8880023    1    1    2    0    0  0.49103979123E+02 -0.37597871419E+03  0.16788476137E+04  0.18428539580E+04  0.65864270000E+03 0.  1.
    8880022    1    1    2    0    0 -0.49103979123E+02  0.37597871419E+03  0.25453419279E+03  0.48161239872E+03  0.15294330000E+03 0.  0.
<mgrwt>
<rscale>  0 0.65087474E+03</rscale>
<asrwt>0</asrwt>
<pdfrwt beam="1">  1        2 0.32752679E+00 0.75998776E+03</pdfrwt>
<pdfrwt beam="2">  1       -2 0.30083426E-01 0.75998776E+03</pdfrwt>
<totfact> 0.59475622E+01</totfact>
</mgrwt>
</event>
<event>
 4    1  0.7280516E-007  0.7692929E+03  0.7818608E-02  0.9781617E-01
         -2   -1    0    0    0  501 -0.00000000000E+00  0.00000000000E+00  0.30441612772E+03  0.30441612773E+03  0.25500000000E-02 0.  1.
          2   -1    0    0  501    0  0.00000000000E+00 -0.00000000000E+00 -0.25025390967E+04  0.25025390967E+04  0.25500000000E-02 0. -1.
    8880023    1    1    2    0    0  0.90275278377E+02 -0.38710687768E+03 -0.22500236088E+04  0.23779019759E+04  0.65864270000E+03 0. -1.
    8880022    1    1    2    0    0 -0.90275278377E+02  0.38710687768E+03  0.51900639826E+02  0.42905324852E+03  0.15294330000E+03 0.  0.
<mgrwt>
<rscale>  0 0.66358470E+03</rscale>
<asrwt>0</asrwt>
<pdfrwt beam="1">  1        2 0.38500600E+00 0.76929290E+03</pdfrwt>
<pdfrwt beam="2">  1       -2 0.46833252E-01 0.76929290E+03</pdfrwt>
<totfact> 0.15651943E+01</totfact>
</mgrwt>
</event>
<event>
 4    1  0.7280516E-007  0.7267389E+03  0.7818608E-02  0.9900410E-01
         -2   -1    0    0    0  501 -0.00000000000E+00  0.00000000000E+00  0.37351342278E+03  0.37351342279E+03  0.25500000000E-02 0.  1.
          2   -1    0    0  501    0  0.00000000000E+00 -0.00000000000E+00 -0.22583246041E+04  0.22583246041E+04  0.25500000000E-02 0. -1.
    8880023    1    1    2    0    0 -0.29750922302E+03  0.76337546459E+02 -0.21031291063E+04  0.22251519954E+04  0.65864270000E+03 0. -1.
    8880022    1    1    2    0    0  0.29750922302E+03 -0.76337546459E+02  0.21831792499E+03  0.40668603144E+03  0.15294330000E+03 0.  0.
<mgrwt>
<rscale>  0 0.60241400E+03</rscale>
<asrwt>0</asrwt>
<pdfrwt beam="1">  1        2 0.34743455E+00 0.72673886E+03</pdfrwt>
<pdfrwt beam="2">  1       -2 0.57463605E-01 0.72673886E+03</pdfrwt>
<totfact> 0.14188819E+01</totfact>
</mgrwt>
</event>
<event>
 4    1  0.7280516E-007  0.9185159E+03  0.7818608E-02  0.9496938E-01
         -2   -1    0    0    0  501 -0.00000000000E+00  0.00000000000E+00  0.12251837678E+04  0.12251837678E+04  0.25500000000E-02 0.  1.
          2   -1    0    0  501    0  0.00000000000E+00 -0.00000000000E+00 -0.88275586275E+03  0.88275586275E+03  0.25500000000E-02 0. -1.
    8880023    1    1    2    0    0  0.63005339490E+03  0.11355173414E+03 -0.49451307083E+03  0.10431752778E+04  0.65864270000E+03 0.  0.
    8880022    1    1    2    0    0 -0.63005339490E+03 -0.11355173414E+03  0.83694097585E+03  0.10647643527E+04  0.15294330000E+03 0.  0.
<mgrwt>
<rscale>  0 0.84509922E+03</rscale>
<asrwt>0</asrwt>
<pdfrwt beam="1">  1        2 0.13580860E+00 0.91851591E+03</pdfrwt>
<pdfrwt beam="2">  1       -2 0.18848981E+00 0.91851591E+03</pdfrwt>
<totfact> 0.47820619E+00</totfact>
</mgrwt>
</event>
<event>
 4    1  0.7280516E-007  0.6694285E+03  0.7818608E-02  0.1016076E+00
          2   -1    0    0  501    0  0.00000000000E+00  0.00000000000E+00  0.25045011153E+04  0.25045011153E+04  0.25500000000E-02 0. -1.
         -2   -1    0    0    0  501 -0.00000000000E+00 -0.00000000000E+00 -0.14457330064E+03  0.14457330067E+03  0.25500000000E-02 0.  1.
    8880023    1    1    2    0    0  0.10222365400E+03  0.62246828903E+02  0.23618210680E+04  0.24548591216E+04  0.65864270000E+03 0. -1.
    8880022    1    1    2    0    0 -0.10222365400E+03 -0.62246828903E+02 -0.18932533892E+01  0.19421529438E+03  0.15294330000E+03 0.  0.
<mgrwt>
<rscale>  0 0.49129671E+03</rscale>
<asrwt>0</asrwt>
<pdfrwt beam="1">  1        2 0.38530788E+00 0.66942852E+03</pdfrwt>
<pdfrwt beam="2">  1       -2 0.22242045E-01 0.66942852E+03</pdfrwt>
<totfact> 0.64328159E+01</totfact>
</mgrwt>
</event>
<event>
 4    1  0.7280516E-007  0.6989713E+03  0.7818608E-02  0.1000150E+00
         -2   -1    0    0    0  501 -0.00000000000E+00  0.00000000000E+00  0.47478182112E+03  0.47478182113E+03  0.25500000000E-02 0.  1.
          2   -1    0    0  501    0  0.00000000000E+00 -0.00000000000E+00 -0.12532377195E+04  0.12532377195E+04  0.25500000000E-02 0. -1.
    8880023    1    1    2    0    0 -0.38116005520E+02  0.23086339912E+03 -0.10991641330E+04  0.13025831015E+04  0.65864270000E+03 0. -1.
    8880022    1    1    2    0    0  0.38116005520E+02 -0.23086339912E+03  0.32070823461E+03  0.42543643908E+03  0.15294330000E+03 0.  0.
<mgrwt>
<rscale>  0 0.55584713E+03</rscale>
<asrwt>0</asrwt>
<pdfrwt beam="1">  1        2 0.19280580E+00 0.69897135E+03</pdfrwt>
<pdfrwt beam="2">  1       -2 0.73043358E-01 0.69897135E+03</pdfrwt>
<totfact> 0.30562774E+01</totfact>
</mgrwt>
</event>
<event>
 4    1  0.7280516E-007  0.6783697E+03  0.7818608E-02  0.1010261E+00
          2   -1    0    0  501    0  0.00000000000E+00  0.00000000000E+00  0.24188005847E+04  0.24188005847E+04  0.25500000000E-02 0. -1.
         -2   -1    0    0    0  501 -0.00000000000E+00 -0.00000000000E+00 -0.12650600897E+03  0.12650600899E+03  0.25500000000E-02 0.  1.
    8880023    1    1    2    0    0 -0.13708056226E+03  0.87087331178E+02  0.22028869719E+04  0.23049721258E+04  0.65864270000E+03 0. -1.
    8880022    1    1    2    0    0  0.13708056226E+03 -0.87087331178E+02  0.89407603889E+02  0.24033446788E+03  0.15294330000E+03 0.  0.
<mgrwt>
<rscale>  0 0.51370934E+03</rscale>
<asrwt>0</asrwt>
<pdfrwt beam="1">  1        2 0.37212313E+00 0.67836973E+03</pdfrwt>
<pdfrwt beam="2">  1       -2 0.19462465E-01 0.67836973E+03</pdfrwt>
<totfact> 0.90761611E+01</totfact>
</mgrwt>
</event>
<event>
 4    1  0.7280516E-007  0.8892495E+03  0.7818608E-02  0.9543515E-01
          2   -1    0    0  501    0  0.00000000000E+00  0.00000000000E+00  0.15771945825E+04  0.15771945825E+04  0.25500000000E-02 0. -1.
         -2   -1    0    0    0  501 -0.00000000000E+00 -0.00000000000E+00 -0.91372567144E+03  0.91372567145E+03  0.25500000000E-02 0.  1.
    8880023    1    1    2    0    0  0.36213841261E+03 -0.47519494638E+03  0.13190772722E+04  0.15908266792E+04  0.65864270000E+03 0. -1.
    8880022    1    1    2    0    0 -0.36213841261E+03  0.47519494638E+03 -0.65560836119E+03  0.90009357471E+03  0.15294330000E+03 0.  0.
<mgrwt>
<rscale>  0 0.81150294E+03</rscale>
<asrwt>0</asrwt>
<pdfrwt beam="1">  1        2 0.24264532E+00 0.88924950E+03</pdfrwt>
<pdfrwt beam="2">  1       -2 0.14057318E+00 0.88924950E+03</pdfrwt>
<totfact> 0.41107236E+00</totfact>
</mgrwt>
</event>
<event>
 4    1  0.7280516E-007  0.9597751E+03  0.7818608E-02  0.9436187E-01
          2   -1    0    0  501    0  0.00000000000E+00  0.00000000000E+00  0.14159637787E+04  0.14159637787E+04  0.25500000000E-02 0. -1.
         -2   -1    0    0    0  501 -0.00000000000E+00 -0.00000000000E+00 -0.49684392008E+03  0.49684392009E+03  0.25500000000E-02 0.  1.
    8880023    1    1    2    0    0  0.46799854476E+03  0.51801100527E+03  0.46936106865E+03  0.10683950854E+04  0.65864270000E+03 0.  1.
    8880022    1    1    2    0    0 -0.46799854476E+03 -0.51801100527E+03  0.44975878996E+03  0.84441261338E+03  0.15294330000E+03 0. -1.
<mgrwt>
<rscale>  0 0.89156523E+03</rscale>
<asrwt>0</asrwt>
<pdfrwt beam="1">  1        2 0.21784058E+00 0.95977510E+03</pdfrwt>
<pdfrwt beam="2">  1       -2 0.76437527E-01 0.95977510E+03</pdfrwt>
<totfact> 0.21700968E+01</totfact>
</mgrwt>
</event>
<event>
 4    1  0.7280516E-007  0.9931815E+03  0.7818608E-02  0.9390533E-01
         -2   -1    0    0    0  501 -0.00000000000E+00  0.00000000000E+00  0.51395901923E+03  0.51395901924E+03  0.25500000000E-02 0.  1.
          2   -1    0    0  501    0  0.00000000000E+00 -0.00000000000E+00 -0.19391862474E+04  0.19391862474E+04  0.25500000000E-02 0. -1.
    8880023    1    1    2    0    0 -0.63413446647E+03 -0.38790828755E+03 -0.20186217079E+03  0.10134879888E+04  0.65864270000E+03 0.  1.
    8880022    1    1    2    0    0  0.63413446647E+03  0.38790828755E+03 -0.12233650574E+04  0.14396572779E+04  0.15294330000E+03 0.  0.
<mgrwt>
<rscale>  0 0.92858880E+03</rscale>
<asrwt>0</asrwt>
<pdfrwt beam="1">  1        2 0.29833634E+00 0.99318154E+03</pdfrwt>
<pdfrwt beam="2">  1       -2 0.79070619E-01 0.99318154E+03</pdfrwt>
<totfact> 0.10271721E+01</totfact>
</mgrwt>
</event>
<event>
 4    1  0.7280516E-007  0.9065604E+03  0.7818608E-02  0.9515581E-01
         -2   -1    0    0    0  501 -0.00000000000E+00  0.00000000000E+00  0.76862100291E+03  0.76862100291E+03  0.25500000000E-02 0.  1.
          2   -1    0    0  501    0  0.00000000000E+00 -0.00000000000E+00 -0.11451904326E+04  0.11451904326E+04  0.25500000000E-02 0. -1.
    8880023    1    1    2    0    0  0.29652008902E+03 -0.54782969669E+03 -0.74561337516E+03  0.11737934449E+04  0.65864270000E+03 0.  1.
    8880022    1    1    2    0    0 -0.29652008902E+03  0.54782969669E+03  0.36904394547E+03  0.74001799064E+03  0.15294330000E+03 0.  0.
<mgrwt>
<rscale>  0 0.83144777E+03</rscale>
<asrwt>0</asrwt>
<pdfrwt beam="1">  1        2 0.17618315E+00 0.90656039E+03</pdfrwt>
<pdfrwt beam="2">  1       -2 0.11824938E+00 0.90656039E+03</pdfrwt>
<totfact> 0.11273869E+01</totfact>
</mgrwt>
</event>
<event>
 4    1  0.7280516E-007  0.8049221E+03  0.7818608E-02  0.9700253E-01
          2   -1    0    0  501    0  0.00000000000E+00  0.00000000000E+00  0.14458124542E+04  0.14458124542E+04  0.25500000000E-02 0. -1.
         -2   -1    0    0    0  501 -0.00000000000E+00 -0.00000000000E+00 -0.29988461664E+03  0.29988461665E+03  0.25500000000E-02 0.  1.
    8880023    1    1    2    0    0 -0.22498945288E+02  0.46215068764E+03  0.54529993642E+03  0.97224055025E+03  0.65864270000E+03 0.  0.
    8880022    1    1    2    0    0  0.22498945288E+02 -0.46215068764E+03  0.60062790112E+03  0.77345652059E+03  0.15294330000E+03 0.  0.
<mgrwt>
<rscale>  0 0.71001748E+03</rscale>
<asrwt>0</asrwt>
<pdfrwt beam="1">  1        2 0.22243268E+00 0.80492215E+03</pdfrwt>
<pdfrwt beam="2">  1       -2 0.46136095E-01 0.80492215E+03</pdfrwt>
<totfact> 0.61588068E+01</totfact>
</mgrwt>
</event>
<event>
 4    1  0.7280516E-007  0.7022906E+03  0.7818608E-02  0.9987829E-01
         -2   -1    0    0    0  501 -0.00000000000E+00  0.00000000000E+00  0.10441858149E+04  0.10441858149E+04  0.25500000000E-02 0.  1.
          2   -1    0    0  501    0  0.00000000000E+00 -0.00000000000E+00 -0.10682364156E+04  0.10682364156E+04  0.25500000000E-02 0. -1.
    8880023    1    1    2    0    0 -0.52786436541E+02  0.23793993370E+03 -0.92799825286E+03  0.11637838216E+04  0.65864270000E+03 0.  0.
    8880022    1    1    2    0    0  0.52786436541E+02 -0.23793993370E+03  0.90394765213E+03  0.94863840885E+03  0.15294330000E+03 0.  0.
<mgrwt>
<rscale>  0 0.56187167E+03</rscale>
<asrwt>0</asrwt>
<pdfrwt beam="1">  1        2 0.16434406E+00 0.70229056E+03</pdfrwt>
<pdfrwt beam="2">  1       -2 0.16064397E+00 0.70229056E+03</pdfrwt>
<totfact> 0.58339667E+00</totfact>
</mgrwt>
</event>
<event>
 4    1  0.7280516E-007  0.7030169E+03  0.7818608E-02  0.9984909E-01
          2   -1    0    0  501    0  0.00000000000E+00  0.00000000000E+00  0.14675414433E+04  0.14675414433E+04  0.25500000000E-02 0. -1.
         -2   -1    0    0    0  501 -0.00000000000E+00 -0.00000000000E+00 -0.18511464316E+03  0.18511464318E+03  0.25500000000E-02 0.  1.
    8880023    1    1    2    0    0  0.10084154310E+03 -0.22417305513E+03  0.11152768301E+04  0.13183607964E+04  0.65864270000E+03 0.  0.
    8880022    1    1    2    0    0 -0.10084154310E+03  0.22417305513E+03  0.16714997002E+03  0.33429529005E+03  0.15294330000E+03 0.  0.
<mgrwt>
<rscale>  0 0.56316940E+03</rscale>
<asrwt>0</asrwt>
<pdfrwt beam="1">  1        2 0.22577561E+00 0.70301691E+03</pdfrwt>
<pdfrwt beam="2">  1       -2 0.28479176E-01 0.70301691E+03</pdfrwt>
<totfact> 0.15246012E+02</totfact>
</mgrwt>
</event>
<event>
 4    1  0.7299859E-007  0.7136755E+03  0.7818608E-02  0.9944597E-01
          2   -1    0    0  501    0  0.00000000000E+00  0.00000000000E+00  0.21026407014E+04  0.21026407014E+04  0.25500000000E-02 0. -1.
         -2   -1    0    0    0  501 -0.00000000000E+00 -0.00000000000E+00 -0.46649136965E+03  0.46649136965E+03  0.25500000000E-02 0.  1.
    8880023    1    1    2    0    0 -0.27407859767E+03  0.20085197394E+02  0.19790753317E+04  0.21038231550E+04  0.65864270000E+03 0. -1.
    8880022    1    1    2    0    0  0.27407859767E+03 -0.20085197394E+02 -0.34292599996E+03  0.46530891601E+03  0.15294330000E+03 0.  0.
<mgrwt>
<rscale>  0 0.58147746E+03</rscale>
<asrwt>0</asrwt>
<pdfrwt beam="1">  1        2 0.32348319E+00 0.71367549E+03</pdfrwt>
<pdfrwt beam="2">  1       -2 0.71767902E-01 0.71367549E+03</pdfrwt>
<totfact> 0.10757284E+01</totfact>
</mgrwt>
</event>
<event>
 4    1  0.7280516E-007  0.8328813E+03  0.7818608E-02  0.9643752E-01
          2   -1    0    0  501    0  0.00000000000E+00  0.00000000000E+00  0.88432002419E+03  0.88432002419E+03  0.25500000000E-02 0. -1.
         -2   -1    0    0    0  501 -0.00000000000E+00 -0.00000000000E+00 -0.62714439661E+03  0.62714439661E+03  0.25500000000E-02 0.  1.
    8880023    1    1    2    0    0 -0.32594783163E+03  0.39196828975E+03  0.44840803034E+03  0.94591812386E+03  0.65864270000E+03 0. -1.
    8880022    1    1    2    0    0  0.32594783163E+03 -0.39196828975E+03 -0.19123240276E+03  0.56554629695E+03  0.15294330000E+03 0.  0.
<mgrwt>
<rscale>  0 0.74466846E+03</rscale>
<asrwt>0</asrwt>
<pdfrwt beam="1">  1        2 0.13604923E+00 0.83288135E+03</pdfrwt>
<pdfrwt beam="2">  1       -2 0.96483754E-01 0.83288135E+03</pdfrwt>
<totfact> 0.27212388E+01</totfact>
</mgrwt>
</event>
<event>
 4    1  0.7280516E-007  0.7046004E+03  0.7818608E-02  0.9978627E-01
          2   -1    0    0  501    0  0.00000000000E+00  0.00000000000E+00  0.10975626858E+04  0.10975626858E+04  0.25500000000E-02 0. -1.
         -2   -1    0    0    0  501 -0.00000000000E+00 -0.00000000000E+00 -0.32478678276E+03  0.32478678277E+03  0.25500000000E-02 0.  1.
    8880023    1    1    2    0    0  0.19793986543E+03  0.15320358818E+03  0.86426150202E+03  0.11150828130E+04  0.65864270000E+03 0. -1.
    8880022    1    1    2    0    0 -0.19793986543E+03 -0.15320358818E+03 -0.91485599002E+02  0.30726665552E+03  0.15294330000E+03 0.  0.
<mgrwt>
<rscale>  0 0.56597432E+03</rscale>
<asrwt>0</asrwt>
<pdfrwt beam="1">  1        2 0.16885580E+00 0.70460041E+03</pdfrwt>
<pdfrwt beam="2">  1       -2 0.49967197E-01 0.70460041E+03</pdfrwt>
<totfact> 0.84399473E+01</totfact>
</mgrwt>
</event>
<event>
 4    1  0.7280516E-007  0.9755521E+03  0.7818608E-02  0.9414266E-01
         -2   -1    0    0    0  501 -0.00000000000E+00  0.00000000000E+00  0.19889842943E+03  0.19889842945E+03  0.25500000000E-02 0.  1.
          2   -1    0    0  501    0  0.00000000000E+00 -0.00000000000E+00 -0.44304150116E+04  0.44304150116E+04  0.25500000000E-02 0. -1.
    8880023    1    1    2    0    0  0.24771143238E+02 -0.71922040909E+03 -0.33063895887E+04  0.34473053136E+04  0.65864270000E+03 0.  1.
    8880022    1    1    2    0    0 -0.24771143238E+02  0.71922040909E+03 -0.92512699346E+03  0.11820081275E+04  0.15294330000E+03 0.  0.
<mgrwt>
<rscale>  0 0.90910890E+03</rscale>
<asrwt>0</asrwt>
<pdfrwt beam="1">  1        2 0.68160224E+00 0.97555206E+03</pdfrwt>
<pdfrwt beam="2">  1       -2 0.30599762E-01 0.97555206E+03</pdfrwt>
<totfact> 0.15291155E+00</totfact>
</mgrwt>
</event>
<event>
 4    1  0.7280516E-007  0.9510602E+03  0.7818608E-02  0.9448590E-01
         -2   -1    0    0    0  501 -0.00000000000E+00  0.00000000000E+00  0.74348678403E+03  0.74348678403E+03  0.25500000000E-02 0.  1.
          2   -1    0    0  501    0  0.00000000000E+00 -0.00000000000E+00 -0.12016951329E+04  0.12016951329E+04  0.25500000000E-02 0. -1.
    8880023    1    1    2    0    0  0.34168543681E+03 -0.59494228899E+03  0.21151035240E+03  0.97429569454E+03  0.65864270000E+03 0.  1.
    8880022    1    1    2    0    0 -0.34168543681E+03  0.59494228899E+03 -0.66971870126E+03  0.97088622237E+03  0.15294330000E+03 0.  0.
<mgrwt>
<rscale>  0 0.88182523E+03</rscale>
<asrwt>0</asrwt>
<pdfrwt beam="1">  1        2 0.18487617E+00 0.95106018E+03</pdfrwt>
<pdfrwt beam="2">  1       -2 0.11438258E+00 0.95106018E+03</pdfrwt>
<totfact> 0.11263413E+01</totfact>
</mgrwt>
</event>
<event>
 4    1  0.7280516E-007  0.8468628E+03  0.7818608E-02  0.9617373E-01
          2   -1    0    0  501    0  0.00000000000E+00  0.00000000000E+00  0.54547510332E+03  0.54547510333E+03  0.25500000000E-02 0. -1.
         -2   -1    0    0    0  501 -0.00000000000E+00 -0.00000000000E+00 -0.12934588677E+04  0.12934588677E+04  0.25500000000E-02 0.  1.
    8880023    1    1    2    0    0  0.56274944298E+02  0.52933873139E+03  0.71458166065E+02  0.84987224785E+03  0.65864270000E+03 0.  0.
    8880022    1    1    2    0    0 -0.56274944298E+02 -0.52933873139E+03 -0.81944193049E+03  0.98906172323E+03  0.15294330000E+03 0.  0.
<mgrwt>
<rscale>  0 0.76156903E+03</rscale>
<asrwt>0</asrwt>
<pdfrwt beam="1">  1        2 0.83919247E-01 0.84686278E+03</pdfrwt>
<pdfrwt beam="2">  1       -2 0.19899367E+00 0.84686278E+03</pdfrwt>
<totfact> 0.75752906E+00</totfact>
</mgrwt>
</event>
<event>
 4    1  0.7280516E-007  0.9013525E+03  0.7818608E-02  0.9523864E-01
          2   -1    0    0  501    0  0.00000000000E+00  0.00000000000E+00  0.21341972702E+04  0.21341972702E+04  0.25500000000E-02 0. -1.
         -2   -1    0    0    0  501 -0.00000000000E+00 -0.00000000000E+00 -0.34133623748E+03  0.34133623749E+03  0.25500000000E-02 0.  1.
    8880023    1    1    2    0    0 -0.13465492659E+03 -0.60041164297E+03  0.48846377540E+03  0.10251990814E+04  0.65864270000E+03 0.  1.
    8880022    1    1    2    0    0  0.13465492659E+03  0.60041164297E+03  0.13043972573E+04  0.14503344263E+04  0.15294330000E+03 0.  1.
<mgrwt>
<rscale>  0 0.82547067E+03</rscale>
<asrwt>0</asrwt>
<pdfrwt beam="1">  1        2 0.32833804E+00 0.90135248E+03</pdfrwt>
<pdfrwt beam="2">  1       -2 0.52513268E-01 0.90135248E+03</pdfrwt>
<totfact> 0.19565142E+01</totfact>
</mgrwt>
</event>
<event>
 4    1  0.7280516E-007  0.1157255E+04  0.7818608E-02  0.9199836E-01
         -2   -1    0    0    0  501 -0.00000000000E+00  0.00000000000E+00  0.15978163498E+04  0.15978163498E+04  0.25500000000E-02 0.  1.
          2   -1    0    0  501    0  0.00000000000E+00 -0.00000000000E+00 -0.10159054530E+04  0.10159054530E+04  0.25500000000E-02 0. -1.
    8880023    1    1    2    0    0  0.92729037527E+03 -0.21345326599E+03 -0.41282800065E+03  0.12286850293E+04  0.65864270000E+03 0.  0.
    8880022    1    1    2    0    0 -0.92729037527E+03  0.21345326599E+03  0.99473889744E+03  0.13850367735E+04  0.15294330000E+03 0.  0.
<mgrwt>
<rscale>  0 0.11055119E+04</rscale>
<asrwt>0</asrwt>
<pdfrwt beam="1">  1        2 0.15629315E+00 0.11572553E+04</pdfrwt>
<pdfrwt beam="2">  1       -2 0.24581790E+00 0.11572553E+04</pdfrwt>
<totfact> 0.16412620E+00</totfact>
</mgrwt>
</event>
<event>
 4    1  0.7280516E-007  0.8324272E+03  0.7818608E-02  0.9644628E-01
         -2   -1    0    0    0  501 -0.00000000000E+00  0.00000000000E+00  0.48867424715E+03  0.48867424716E+03  0.25500000000E-02 0.  1.
          2   -1    0    0  501    0  0.00000000000E+00 -0.00000000000E+00 -0.13945831085E+04  0.13945831085E+04  0.25500000000E-02 0. -1.
    8880023    1    1    2    0    0  0.34920647297E+03  0.37037771038E+03 -0.10428832846E+04  0.13343689747E+04  0.65864270000E+03 0. -1.
    8880022    1    1    2    0    0 -0.34920647297E+03 -0.37037771038E+03  0.13697442325E+03  0.54888838096E+03  0.15294330000E+03 0.  0.
<mgrwt>
<rscale>  0 0.74411517E+03</rscale>
<asrwt>0</asrwt>
<pdfrwt beam="1">  1        2 0.21455125E+00 0.83242718E+03</pdfrwt>
<pdfrwt beam="2">  1       -2 0.75180654E-01 0.83242718E+03</pdfrwt>
<totfact> 0.23444099E+01</totfact>
</mgrwt>
</event>
<event>
 4    1  0.7280516E-007  0.1126155E+04  0.7818608E-02  0.9232480E-01
         -2   -1    0    0    0  501 -0.00000000000E+00  0.00000000000E+00  0.63521125718E+03  0.63521125718E+03  0.25500000000E-02 0.  1.
          2   -1    0    0  501    0  0.00000000000E+00 -0.00000000000E+00 -0.26899194975E+04  0.26899194975E+04  0.25500000000E-02 0. -1.
    8880023    1    1    2    0    0  0.48510141504E+03  0.77400975419E+03 -0.21159069508E+04  0.23969328137E+04  0.65864270000E+03 0. -1.
    8880022    1    1    2    0    0 -0.48510141504E+03 -0.77400975419E+03  0.61198710525E+02  0.92819794098E+03  0.15294330000E+03 0.  0.
<mgrwt>
<rscale>  0 0.10724381E+04</rscale>
<asrwt>0</asrwt>
<pdfrwt beam="1">  1        2 0.41383376E+00 0.11261548E+04</pdfrwt>
<pdfrwt beam="2">  1       -2 0.97724811E-01 0.11261548E+04</pdfrwt>
<totfact> 0.23371057E+00</totfact>
</mgrwt>
</event>
<event>
 4    1  0.7280516E-007  0.6590066E+03  0.7818608E-02  0.1025198E+00
          2   -1    0    0  501    0  0.00000000000E+00  0.00000000000E+00  0.50835582662E+03  0.50835582663E+03  0.25500000000E-02 0. -1.
         -2   -1    0    0    0  501 -0.00000000000E+00 -0.00000000000E+00 -0.34707727203E+03  0.34707727204E+03  0.25500000000E-02 0.  1.
    8880023    1    1    2    0    0 -0.17874147364E+02  0.12650372811E+02  0.21288605420E+03  0.69253894866E+03  0.65864270000E+03 0. -1.
    8880022    1    1    2    0    0  0.17874147364E+02 -0.12650372811E+02 -0.51607499612E+02  0.16289415001E+03  0.15294330000E+03 0.  0.
<mgrwt>
<rscale>  0 0.45856568E+03</rscale>
<asrwt>0</asrwt>
<pdfrwt beam="1">  1        2 0.78208589E-01 0.65900662E+03</pdfrwt>
<pdfrwt beam="2">  1       -2 0.53396503E-01 0.65900662E+03</pdfrwt>
<totfact> 0.20234173E+02</totfact>
</mgrwt>
</event>
<event>
 4    1  0.7280516E-007  0.7250294E+03  0.7818608E-02  0.9905921E-01
         -2   -1    0    0    0  501 -0.00000000000E+00  0.00000000000E+00  0.19379767927E+03  0.19379767929E+03  0.25500000000E-02 0.  1.
          2   -1    0    0  501    0  0.00000000000E+00 -0.00000000000E+00 -0.28513056574E+04  0.28513056574E+04  0.25500000000E-02 0. -1.
    8880023    1    1    2    0    0  0.28889029575E+03  0.91650917771E+02 -0.26019844029E+04  0.27011091302E+04  0.65864270000E+03 0. -1.
    8880022    1    1    2    0    0 -0.28889029575E+03 -0.91650917771E+02 -0.55523575190E+02  0.34399420652E+03  0.15294330000E+03 0.  0.
<mgrwt>
<rscale>  0 0.59975165E+03</rscale>
<asrwt>0</asrwt>
<pdfrwt beam="1">  1        2 0.43866238E+00 0.72502945E+03</pdfrwt>
<pdfrwt beam="2">  1       -2 0.29815030E-01 0.72502945E+03</pdfrwt>
<totfact> 0.23617739E+01</totfact>
</mgrwt>
</event>
<event>
 4    1  0.7280516E-007  0.6708901E+03  0.7818608E-02  0.1015033E+00
         -2   -1    0    0    0  501 -0.00000000000E+00  0.00000000000E+00  0.25406379179E+03  0.25406379180E+03  0.25500000000E-02 0.  1.
          2   -1    0    0  501    0  0.00000000000E+00 -0.00000000000E+00 -0.14436109037E+04  0.14436109037E+04  0.25500000000E-02 0. -1.
    8880023    1    1    2    0    0 -0.91049592379E+02 -0.89405392451E+02 -0.13050697661E+04  0.14674129116E+04  0.65864270000E+03 0. -1.
    8880022    1    1    2    0    0  0.91049592379E+02  0.89405392451E+02  0.11552265420E+03  0.23026178389E+03  0.15294330000E+03 0.  0.
<mgrwt>
<rscale>  0 0.49522570E+03</rscale>
<asrwt>0</asrwt>
<pdfrwt beam="1">  1        2 0.22209398E+00 0.67089012E+03</pdfrwt>
<pdfrwt beam="2">  1       -2 0.39086738E-01 0.67089012E+03</pdfrwt>
<totfact> 0.86767603E+01</totfact>
</mgrwt>
</event>
<event>
 4    1  0.7280516E-007  0.7120380E+03  0.7818608E-02  0.9950510E-01
          2   -1    0    0  501    0  0.00000000000E+00  0.00000000000E+00  0.31190651933E+04  0.31190651933E+04  0.25500000000E-02 0. -1.
         -2   -1    0    0    0  501 -0.00000000000E+00 -0.00000000000E+00 -0.27519469319E+03  0.27519469320E+03  0.25500000000E-02 0.  1.
    8880023    1    1    2    0    0 -0.76553742641E+02 -0.25947521190E+03  0.29734786694E+04  0.30575436979E+04  0.65864270000E+03 0. -1.
    8880022    1    1    2    0    0  0.76553742641E+02  0.25947521190E+03 -0.12960816927E+03  0.33671618859E+03  0.15294330000E+03 0.  0.
<mgrwt>
<rscale>  0 0.57874598E+03</rscale>
<asrwt>0</asrwt>
<pdfrwt beam="1">  1        2 0.47985621E+00 0.71203797E+03</pdfrwt>
<pdfrwt beam="2">  1       -2 0.42337643E-01 0.71203797E+03</pdfrwt>
<totfact> 0.83225361E+00</totfact>
</mgrwt>
</event>
<event>
 4    1  0.7280516E-007  0.1227590E+04  0.7818608E-02  0.9130759E-01
         -2   -1    0    0    0  501 -0.00000000000E+00  0.00000000000E+00  0.57033633265E+03  0.57033633265E+03  0.25500000000E-02 0.  1.
          2   -1    0    0  501    0  0.00000000000E+00 -0.00000000000E+00 -0.25348390046E+04  0.25348390046E+04  0.25500000000E-02 0. -1.
    8880023    1    1    2    0    0 -0.91148703604E+03  0.49229872114E+03 -0.15541066098E+04  0.19804606052E+04  0.65864270000E+03 0.  1.
    8880022    1    1    2    0    0  0.91148703604E+03 -0.49229872114E+03 -0.41039606212E+03  0.11247147321E+04  0.15294330000E+03 0.  0.
<mgrwt>
<rscale>  0 0.11797607E+04</rscale>
<asrwt>0</asrwt>
<pdfrwt beam="1">  1        2 0.38997523E+00 0.12275899E+04</pdfrwt>
<pdfrwt beam="2">  1       -2 0.87744052E-01 0.12275899E+04</pdfrwt>
<totfact> 0.36575060E+00</totfact>
</mgrwt>
</event>
<event>
 4    1  0.8766554E-007  0.6598017E+03  0.7818608E-02  0.1024360E+00
          2   -1    0    0  501    0  0.00000000000E+00  0.00000000000E+00  0.14001512055E+04  0.14001512055E+04  0.25500000000E-02 0. -1.
         -2   -1    0    0    0  501 -0.00000000000E+00 -0.00000000000E+00 -0.12766147734E+04  0.12766147734E+04  0.25500000000E-02 0.  1.
    8880023    1    1    2    0    0 -0.24374728085E+02 -0.30560706811E+02  0.13169332909E+04  0.14729737211E+04  0.65864270000E+03 0. -1.
    8880022    1    1    2    0    0  0.24374728085E+02  0.30560706811E+02 -0.11933968589E+04  0.12037922578E+04  0.15294330000E+03 0.  0.
<mgrwt>
<rscale>  0 0.46145357E+03</rscale>
<asrwt>0</asrwt>
<pdfrwt beam="1">  1        2 0.21540788E+00 0.65980171E+03</pdfrwt>
<pdfrwt beam="2">  1       -2 0.19640227E+00 0.65980171E+03</pdfrwt>
<totfact> 0.21280505E+00</totfact>
</mgrwt>
</event>
<event>
 4    1  0.7280516E-007  0.8374256E+03  0.7818608E-02  0.9635054E-01
         -2   -1    0    0    0  501 -0.00000000000E+00  0.00000000000E+00  0.68982318079E+03  0.68982318079E+03  0.25500000000E-02 0.  1.
          2   -1    0    0  501    0  0.00000000000E+00 -0.00000000000E+00 -0.88357952897E+03  0.88357952897E+03  0.25500000000E-02 0. -1.
    8880023    1    1    2    0    0 -0.21734782012E+03 -0.46928817076E+03 -0.47750272921E+03  0.96399716016E+03  0.65864270000E+03 0. -1.
    8880022    1    1    2    0    0  0.21734782012E+03  0.46928817076E+03  0.28374638103E+03  0.60940554961E+03  0.15294330000E+03 0.  0.
<mgrwt>
<rscale>  0 0.75018912E+03</rscale>
<asrwt>0</asrwt>
<pdfrwt beam="1">  1        2 0.13593531E+00 0.83742562E+03</pdfrwt>
<pdfrwt beam="2">  1       -2 0.10612664E+00 0.83742562E+03</pdfrwt>
<totfact> 0.21706046E+01</totfact>
</mgrwt>
</event>
<event>
 4    1  0.7280516E-007  0.9713513E+03  0.7818608E-02  0.9420038E-01
          2   -1    0    0  501    0  0.00000000000E+00  0.00000000000E+00  0.15951214301E+04  0.15951214301E+04  0.25500000000E-02 0. -1.
         -2   -1    0    0    0  501 -0.00000000000E+00 -0.00000000000E+00 -0.91700438728E+03  0.91700438728E+03  0.25500000000E-02 0.  1.
    8880023    1    1    2    0    0 -0.30410058231E+03 -0.64593808494E+03  0.12511643626E+04  0.15839620078E+04  0.65864270000E+03 0. -1.
    8880022    1    1    2    0    0  0.30410058231E+03  0.64593808494E+03 -0.57304731975E+03  0.92816380958E+03  0.15294330000E+03 0.  0.
<mgrwt>
<rscale>  0 0.90444847E+03</rscale>
<asrwt>0</asrwt>
<pdfrwt beam="1">  1        2 0.24540330E+00 0.97135132E+03</pdfrwt>
<pdfrwt beam="2">  1       -2 0.14107760E+00 0.97135132E+03</pdfrwt>
<totfact> 0.39393381E+00</totfact>
</mgrwt>
</event>
<event>
 4    1  0.7280516E-007  0.7196023E+03  0.7818608E-02  0.9923934E-01
          2   -1    0    0  501    0  0.00000000000E+00  0.00000000000E+00  0.43986769681E+04  0.43986769681E+04  0.25500000000E-02 0. -1.
         -2   -1    0    0    0  501 -0.00000000000E+00 -0.00000000000E+00 -0.68527660374E+02  0.68527660421E+02  0.25500000000E-02 0.  1.
    8880023    1    1    2    0    0 -0.27618627454E+03 -0.87968539182E+02  0.22752336512E+04  0.23863184398E+04  0.65864270000E+03 0.  0.
    8880022    1    1    2    0    0  0.27618627454E+03  0.87968539182E+02  0.20549156565E+04  0.20808861887E+04  0.15294330000E+03 0.  0.
<mgrwt>
<rscale>  0 0.59115245E+03</rscale>
<asrwt>0</asrwt>
<pdfrwt beam="1">  1        2 0.67671969E+00 0.71960234E+03</pdfrwt>
<pdfrwt beam="2">  1       -2 0.10542715E-01 0.71960234E+03</pdfrwt>
<totfact> 0.10970258E+01</totfact>
</mgrwt>
</event>
<event>
 4    1  0.7280516E-007  0.7601300E+03  0.7818608E-02  0.9804771E-01
         -2   -1    0    0    0  501 -0.00000000000E+00  0.00000000000E+00  0.20775596299E+03  0.20775596301E+03  0.25500000000E-02 0.  1.
          2   -1    0    0  501    0  0.00000000000E+00 -0.00000000000E+00 -0.16455627621E+04  0.16455627621E+04  0.25500000000E-02 0. -1.
    8880023    1    1    2    0    0  0.14446132573E+03 -0.35088215450E+03 -0.94894223709E+03  0.12158490599E+04  0.65864270000E+03 0.  0.
    8880022    1    1    2    0    0 -0.14446132573E+03  0.35088215450E+03 -0.48886456197E+03  0.63746966512E+03  0.15294330000E+03 0. -1.
<mgrwt>
<rscale>  0 0.65107125E+03</rscale>
<asrwt>0</asrwt>
<pdfrwt beam="1">  1        2 0.25316349E+00 0.76012997E+03</pdfrwt>
<pdfrwt beam="2">  1       -2 0.31962457E-01 0.76012997E+03</pdfrwt>
<totfact> 0.97582717E+01</totfact>
</mgrwt>
</event>
<event>
 4    1  0.7280516E-007  0.7177491E+03  0.7818608E-02  0.9930277E-01
          2   -1    0    0  501    0  0.00000000000E+00  0.00000000000E+00  0.28000481653E+04  0.28000481653E+04  0.25500000000E-02 0. -1.
         -2   -1    0    0    0  501 -0.00000000000E+00 -0.00000000000E+00 -0.13053194760E+03  0.13053194762E+03  0.25500000000E-02 0.  1.
    8880023    1    1    2    0    0 -0.80094600648E+01  0.28511308804E+03  0.24133634958E+04  0.25178338296E+04  0.65864270000E+03 0. -1.
    8880022    1    1    2    0    0  0.80094600648E+01 -0.28511308804E+03  0.25615272186E+03  0.41274628327E+03  0.15294330000E+03 0.  0.
<mgrwt>
<rscale>  0 0.58816113E+03</rscale>
<asrwt>0</asrwt>
<pdfrwt beam="1">  1        2 0.43077662E+00 0.71774914E+03</pdfrwt>
<pdfrwt beam="2">  1       -2 0.20081839E-01 0.71774914E+03</pdfrwt>
<totfact> 0.51626954E+01</totfact>
</mgrwt>
</event>
<event>
 4    1  0.7280516E-007  0.7224716E+03  0.7818608E-02  0.9914310E-01
          2   -1    0    0  501    0  0.00000000000E+00  0.00000000000E+00  0.10973245531E+04  0.10973245531E+04  0.25500000000E-02 0. -1.
         -2   -1    0    0    0  501 -0.00000000000E+00 -0.00000000000E+00 -0.60271224695E+03  0.60271224696E+03  0.25500000000E-02 0.  1.
    8880023    1    1    2    0    0  0.28552345161E+03 -0.81433386790E+02  0.91326633056E+03  0.11644829903E+04  0.65864270000E+03 0. -1.
    8880022    1    1    2    0    0 -0.28552345161E+03  0.81433386790E+02 -0.41865402445E+03  0.53555380972E+03  0.15294330000E+03 0.  0.
<mgrwt>
<rscale>  0 0.59572754E+03</rscale>
<asrwt>0</asrwt>
<pdfrwt beam="1">  1        2 0.16881916E+00 0.72247162E+03</pdfrwt>
<pdfrwt beam="2">  1       -2 0.92724962E-01 0.72247162E+03</pdfrwt>
<totfact> 0.22013304E+01</totfact>
</mgrwt>
</event>
<event>
 4    1  0.7280516E-007  0.7656609E+03  0.7818608E-02  0.9790667E-01
          2   -1    0    0  501    0  0.00000000000E+00  0.00000000000E+00  0.21764935265E+04  0.21764935265E+04  0.25500000000E-02 0. -1.
         -2   -1    0    0    0  501 -0.00000000000E+00 -0.00000000000E+00 -0.74674440227E+03  0.74674440227E+03  0.25500000000E-02 0.  1.
    8880023    1    1    2    0    0 -0.63499524982E+02  0.38521962539E+03  0.20421938326E+04  0.21810071539E+04  0.65864270000E+03 0. -1.
    8880022    1    1    2    0    0  0.63499524982E+02 -0.38521962539E+03 -0.61244470829E+03  0.74223077488E+03  0.15294330000E+03 0.  0.
<mgrwt>
<rscale>  0 0.65865843E+03</rscale>
<asrwt>0</asrwt>
<pdfrwt beam="1">  1        2 0.33484516E+00 0.76566086E+03</pdfrwt>
<pdfrwt beam="2">  1       -2 0.11488375E+00 0.76566086E+03</pdfrwt>
<totfact> 0.32668585E+00</totfact>
</mgrwt>
</event>
<event>
 4    1  0.7280516E-007  0.7072080E+03  0.7818608E-02  0.9968519E-01
          2   -1    0    0  501    0  0.00000000000E+00  0.00000000000E+00  0.51104679360E+03  0.51104679361E+03  0.25500000000E-02 0. -1.
         -2   -1    0    0    0  501 -0.00000000000E+00 -0.00000000000E+00 -0.49605475105E+03  0.49605475105E+03  0.25500000000E-02 0.  1.
    8880023    1    1    2    0    0 -0.20928936139E+03 -0.15010295195E+03  0.44992822748E+00  0.70720813179E+03  0.65864270000E+03 0.  0.
    8880022    1    1    2    0    0  0.20928936139E+03  0.15010295195E+03  0.14542114327E+02  0.29989341287E+03  0.15294330000E+03 0.  1.
<mgrwt>
<rscale>  0 0.57052450E+03</rscale>
<asrwt>0</asrwt>
<pdfrwt beam="1">  1        2 0.78622583E-01 0.70720799E+03</pdfrwt>
<pdfrwt beam="2">  1       -2 0.76316116E-01 0.70720799E+03</pdfrwt>
<totfact> 0.93471899E+01</totfact>
</mgrwt>
</event>
<event>
 4    1  0.7280516E-007  0.6764625E+03  0.7818608E-02  0.1011400E+00
          2   -1    0    0  501    0  0.00000000000E+00  0.00000000000E+00  0.13176682566E+04  0.13176682566E+04  0.25500000000E-02 0. -1.
         -2   -1    0    0    0  501 -0.00000000000E+00 -0.00000000000E+00 -0.32758158017E+03  0.32758158018E+03  0.25500000000E-02 0.  1.
    8880023    1    1    2    0    0 -0.12096140110E+03 -0.95706231552E+02  0.11777492391E+04  0.13581954277E+04  0.65864270000E+03 0. -1.
    8880022    1    1    2    0    0  0.12096140110E+03  0.95706231552E+02 -0.18766256270E+03  0.28705440907E+03  0.15294330000E+03 0.  0.
<mgrwt>
<rscale>  0 0.50922064E+03</rscale>
<asrwt>0</asrwt>
<pdfrwt beam="1">  1        2 0.20271819E+00 0.67646253E+03</pdfrwt>
<pdfrwt beam="2">  1       -2 0.50397166E-01 0.67646253E+03</pdfrwt>
<totfact> 0.61674008E+01</totfact>
</mgrwt>
</event>
<event>
 4    1  0.7280516E-007  0.7111911E+03  0.7818608E-02  0.9953604E-01
         -2   -1    0    0    0  501 -0.00000000000E+00  0.00000000000E+00  0.19657180989E+04  0.19657180989E+04  0.25500000000E-02 0.  1.
          2   -1    0    0  501    0  0.00000000000E+00 -0.00000000000E+00 -0.26431725801E+03  0.26431725802E+03  0.25500000000E-02 0. -1.
    8880023    1    1    2    0    0 -0.24934178177E+03 -0.99052078702E+02  0.26206127474E+03  0.75793730375E+03  0.65864270000E+03 0. -1.
    8880022    1    1    2    0    0  0.24934178177E+03  0.99052078702E+02  0.14393395661E+04  0.14720980531E+04  0.15294330000E+03 0.  0.
<mgrwt>
<rscale>  0 0.57732275E+03</rscale>
<asrwt>0</asrwt>
<pdfrwt beam="1">  1        2 0.40664192E-01 0.71119114E+03</pdfrwt>
<pdfrwt beam="2">  1       -2 0.30241818E+00 0.71119114E+03</pdfrwt>
<totfact> 0.40600419E+00</totfact>
</mgrwt>
</event>
<event>
 4    1  0.7280516E-007  0.1118507E+04  0.7818608E-02  0.9240726E-01
          2   -1    0    0  501    0  0.00000000000E+00  0.00000000000E+00  0.14946085766E+04  0.14946085766E+04  0.25500000000E-02 0. -1.
         -2   -1    0    0    0  501 -0.00000000000E+00 -0.00000000000E+00 -0.12633222890E+04  0.12633222890E+04  0.25500000000E-02 0.  1.
    8880023    1    1    2    0    0 -0.85784976676E+03  0.28520388377E+03  0.10459970446E+04  0.15313939732E+04  0.65864270000E+03 0. -1.
    8880022    1    1    2    0    0  0.85784976676E+03 -0.28520388377E+03 -0.81471075702E+03  0.12265368923E+04  0.15294330000E+03 0.  0.
<mgrwt>
<rscale>  0 0.10642783E+04</rscale>
<asrwt>0</asrwt>
<pdfrwt beam="1">  1        2 0.22993978E+00 0.11185069E+04</pdfrwt>
<pdfrwt beam="2">  1       -2 0.19435728E+00 0.11185069E+04</pdfrwt>
<totfact> 0.18138143E+00</totfact>
</mgrwt>
</event>
<event>
 4    1  0.7280516E-007  0.7912246E+03  0.7818608E-02  0.9730102E-01
         -2   -1    0    0    0  501 -0.00000000000E+00  0.00000000000E+00  0.22172842212E+03  0.22172842214E+03  0.25500000000E-02 0.  1.
          2   -1    0    0  501    0  0.00000000000E+00 -0.00000000000E+00 -0.30502346969E+04  0.30502346969E+04  0.25500000000E-02 0. -1.
    8880023    1    1    2    0    0 -0.41746869621E+03 -0.13396284271E+03 -0.26645133811E+04  0.27795085752E+04  0.65864270000E+03 0.  0.
    8880022    1    1    2    0    0  0.41746869621E+03  0.13396284271E+03 -0.16399289374E+03  0.49245454385E+03  0.15294330000E+03 0.  0.
<mgrwt>
<rscale>  0 0.69252493E+03</rscale>
<asrwt>0</asrwt>
<pdfrwt beam="1">  1        2 0.46926685E+00 0.79122460E+03</pdfrwt>
<pdfrwt beam="2">  1       -2 0.34112067E-01 0.79122460E+03</pdfrwt>
<totfact> 0.13747252E+01</totfact>
</mgrwt>
</event>
<event>
 4    1  0.7280516E-007  0.6933798E+03  0.7818608E-02  0.1002586E+00
          2   -1    0    0  501    0  0.00000000000E+00  0.00000000000E+00  0.54017875352E+03  0.54017875352E+03  0.25500000000E-02 0. -1.
         -2   -1    0    0    0  501 -0.00000000000E+00 -0.00000000000E+00 -0.46196741046E+03  0.46196741047E+03  0.25500000000E-02 0.  1.
    8880023    1    1    2    0    0  0.21118095786E+03 -0.48661157789E+02  0.18272069294E+03  0.71705115796E+03  0.65864270000E+03 0. -1.
    8880022    1    1    2    0    0 -0.21118095786E+03  0.48661157789E+02 -0.10450934988E+03  0.28509500603E+03  0.15294330000E+03 0.  1.
<mgrwt>
<rscale>  0 0.54530786E+03</rscale>
<asrwt>0</asrwt>
<pdfrwt beam="1">  1        2 0.83104423E-01 0.69337977E+03</pdfrwt>
<pdfrwt beam="2">  1       -2 0.71071910E-01 0.69337977E+03</pdfrwt>
<totfact> 0.10257755E+02</totfact>
</mgrwt>
</event>
<event>
 4    1  0.7280516E-007  0.7569111E+03  0.7818608E-02  0.9813171E-01
         -2   -1    0    0    0  501 -0.00000000000E+00  0.00000000000E+00  0.38025239242E+03  0.38025239243E+03  0.25500000000E-02 0.  1.
          2   -1    0    0  501    0  0.00000000000E+00 -0.00000000000E+00 -0.15093746070E+04  0.15093746070E+04  0.25500000000E-02 0. -1.
    8880023    1    1    2    0    0  0.11860434716E+03 -0.35360604446E+03 -0.12565028245E+04  0.14668721076E+04  0.65864270000E+03 0.  0.
    8880022    1    1    2    0    0 -0.11860434716E+03  0.35360604446E+03  0.12738060984E+03  0.42275489189E+03  0.15294330000E+03 0.  0.
<mgrwt>
<rscale>  0 0.64660485E+03</rscale>
<asrwt>0</asrwt>
<pdfrwt beam="1">  1        2 0.23221147E+00 0.75691111E+03</pdfrwt>
<pdfrwt beam="2">  1       -2 0.58500369E-01 0.75691111E+03</pdfrwt>
<totfact> 0.35023290E+01</totfact>
</mgrwt>
</event>
<event>
 4    1  0.7280516E-007  0.8110190E+03  0.7818608E-02  0.9687458E-01
         -2   -1    0    0    0  501 -0.00000000000E+00  0.00000000000E+00  0.54881399486E+03  0.54881399487E+03  0.25500000000E-02 0.  1.
          2   -1    0    0  501    0  0.00000000000E+00 -0.00000000000E+00 -0.11940182768E+04  0.11940182768E+04  0.25500000000E-02 0. -1.
    8880023    1    1    2    0    0  0.45598757993E+03  0.12655819745E+03 -0.87667086292E+03  0.11942795563E+04  0.65864270000E+03 0.  0.
    8880022    1    1    2    0    0 -0.45598757993E+03 -0.12655819745E+03  0.23146658101E+03  0.54855271536E+03  0.15294330000E+03 0.  0.
<mgrwt>
<rscale>  0 0.71768456E+03</rscale>
<asrwt>0</asrwt>
<pdfrwt beam="1">  1        2 0.18369512E+00 0.81101902E+03</pdfrwt>
<pdfrwt beam="2">  1       -2 0.84432923E-01 0.81101902E+03</pdfrwt>
<totfact> 0.23654626E+01</totfact>
</mgrwt>
</event>
<event>
 4    1  0.7280516E-007  0.7974008E+03  0.7818608E-02  0.9716445E-01
          2   -1    0    0  501    0  0.00000000000E+00  0.00000000000E+00  0.26283712499E+04  0.26283712499E+04  0.25500000000E-02 0. -1.
         -2   -1    0    0    0  501 -0.00000000000E+00 -0.00000000000E+00 -0.31151602163E+03  0.31151602164E+03  0.25500000000E-02 0.  1.
    8880023    1    1    2    0    0  0.12093545336E+03 -0.43291154038E+03  0.23322948103E+04  0.24648422007E+04  0.65864270000E+03 0. -1.
    8880022    1    1    2    0    0 -0.12093545336E+03  0.43291154038E+03 -0.15439582026E+02  0.47504507090E+03  0.15294330000E+03 0.  0.
<mgrwt>
<rscale>  0 0.70046077E+03</rscale>
<asrwt>0</asrwt>
<pdfrwt beam="1">  1        2 0.40436481E+00 0.79740077E+03</pdfrwt>
<pdfrwt beam="2">  1       -2 0.47925542E-01 0.79740077E+03</pdfrwt>
<totfact> 0.12603519E+01</totfact>
</mgrwt>
</event>
<event>
 4    1  0.9186759E-007  0.6615377E+03  0.7818608E-02  0.1022634E+00
          2   -1    0    0  501    0  0.00000000000E+00  0.00000000000E+00  0.38918874540E+04  0.38918874540E+04  0.25500000000E-02 0. -1.
         -2   -1    0    0    0  501 -0.00000000000E+00 -0.00000000000E+00 -0.91362022154E+03  0.91362022154E+03  0.25500000000E-02 0.  1.
    8880023    1    1    2    0    0  0.60080099717E+02  0.14569697490E+02  0.38560365169E+04  0.39123713679E+04  0.65864270000E+03 0. -1.
    8880022    1    1    2    0    0 -0.60080099717E+02 -0.14569697490E+02 -0.87776928439E+03  0.89313630768E+03  0.15294330000E+03 0.  0.
<mgrwt>
<rscale>  0 0.46748113E+03</rscale>
<asrwt>0</asrwt>
<pdfrwt beam="1">  1        2 0.59875192E+00 0.66153768E+03</pdfrwt>
<pdfrwt beam="2">  1       -2 0.14055696E+00 0.66153768E+03</pdfrwt>
<totfact> 0.16907155E-01</totfact>
</mgrwt>
</event>
<event>
 4    1  0.7280516E-007  0.9462353E+03  0.7818608E-02  0.9455551E-01
          2   -1    0    0  501    0  0.00000000000E+00  0.00000000000E+00  0.13233440056E+04  0.13233440056E+04  0.25500000000E-02 0. -1.
         -2   -1    0    0    0  501 -0.00000000000E+00 -0.00000000000E+00 -0.68513754548E+03  0.68513754549E+03  0.25500000000E-02 0.  1.
    8880023    1    1    2    0    0 -0.36527639982E+03 -0.57282132050E+03  0.85895403553E+03  0.12779527984E+04  0.65864270000E+03 0.  0.
    8880022    1    1    2    0    0  0.36527639982E+03  0.57282132050E+03 -0.22074757540E+03  0.73052875272E+03  0.15294330000E+03 0.  0.
<mgrwt>
<rscale>  0 0.87641678E+03</rscale>
<asrwt>0</asrwt>
<pdfrwt beam="1">  1        2 0.20359138E+00 0.94623534E+03</pdfrwt>
<pdfrwt beam="2">  1       -2 0.10540578E+00 0.94623534E+03</pdfrwt>
<totfact> 0.11660599E+01</totfact>
</mgrwt>
</event>
<event>
 4    1  0.7280516E-007  0.1087784E+04  0.7818608E-02  0.9274781E-01
          2   -1    0    0  501    0  0.00000000000E+00  0.00000000000E+00  0.21683088743E+04  0.21683088743E+04  0.25500000000E-02 0. -1.
         -2   -1    0    0    0  501 -0.00000000000E+00 -0.00000000000E+00 -0.66097704577E+03  0.66097704577E+03  0.25500000000E-02 0.  1.
    8880023    1    1    2    0    0 -0.46231251213E+03 -0.73193590065E+03  0.16112245564E+04  0.19440467584E+04  0.65864270000E+03 0.  1.
    8880022    1    1    2    0    0  0.46231251213E+03  0.73193590065E+03 -0.10389272780E+03  0.88523916171E+03  0.15294330000E+03 0.  0.
<mgrwt>
<rscale>  0 0.10313810E+04</rscale>
<asrwt>0</asrwt>
<pdfrwt beam="1">  1        2 0.33358598E+00 0.10877836E+04</pdfrwt>
<pdfrwt beam="2">  1       -2 0.10168878E+00 0.10877836E+04</pdfrwt>
<totfact> 0.42364961E+00</totfact>
</mgrwt>
</event>
<event>
 4    1  0.7280516E-007  0.7197100E+03  0.7818608E-02  0.9923568E-01
         -2   -1    0    0    0  501 -0.00000000000E+00  0.00000000000E+00  0.14891279328E+04  0.14891279328E+04  0.25500000000E-02 0.  1.
          2   -1    0    0  501    0  0.00000000000E+00 -0.00000000000E+00 -0.47446337557E+03  0.47446337558E+03  0.25500000000E-02 0. -1.
    8880023    1    1    2    0    0 -0.33172827509E+02 -0.28822191814E+03 -0.16567598691E+03  0.73853303886E+03  0.65864270000E+03 0. -1.
    8880022    1    1    2    0    0  0.33172827509E+02  0.28822191814E+03  0.11803405441E+04  0.12250582695E+04  0.15294330000E+03 0.  0.
<mgrwt>
<rscale>  0 0.59132537E+03</rscale>
<asrwt>0</asrwt>
<pdfrwt beam="1">  1        2 0.72994364E-01 0.71971002E+03</pdfrwt>
<pdfrwt beam="2">  1       -2 0.22909661E+00 0.71971002E+03</pdfrwt>
<totfact> 0.58288669E+00</totfact>
</mgrwt>
</event>
<event>
 4    1  0.7280516E-007  0.6816450E+03  0.7818608E-02  0.1008408E+00
          2   -1    0    0  501    0  0.00000000000E+00  0.00000000000E+00  0.11063259978E+04  0.11063259978E+04  0.25500000000E-02 0. -1.
         -2   -1    0    0    0  501 -0.00000000000E+00 -0.00000000000E+00 -0.24249745628E+03  0.24249745629E+03  0.25500000000E-02 0.  1.
    8880023    1    1    2    0    0 -0.17370524551E+02 -0.17472240887E+03  0.88264022173E+03  0.11152101249E+04  0.65864270000E+03 0. -1.
    8880022    1    1    2    0    0  0.17370524551E+02  0.17472240887E+03 -0.18811680189E+02  0.23361332926E+03  0.15294330000E+03 0.  0.
<mgrwt>
<rscale>  0 0.52112262E+03</rscale>
<asrwt>0</asrwt>
<pdfrwt beam="1">  1        2 0.17020400E+00 0.68164497E+03</pdfrwt>
<pdfrwt beam="2">  1       -2 0.37307301E-01 0.68164497E+03</pdfrwt>
<totfact> 0.14880535E+02</totfact>
</mgrwt>
</event>
<event>
 4    1  0.7280516E-007  0.6631177E+03  0.7818608E-02  0.1021168E+00
          2   -1    0    0  501    0  0.00000000000E+00  0.00000000000E+00  0.75485173797E+03  0.75485173797E+03  0.25500000000E-02 0. -1.
         -2   -1    0    0    0  501 -0.00000000000E+00 -0.00000000000E+00 -0.29432100545E+03  0.29432100546E+03  0.25500000000E-02 0.  1.
    8880023    1    1    2    0    0  0.74011255517E+02  0.20909830378E+02  0.54493914503E+03  0.85830283991E+03  0.65864270000E+03 0. -1.
    8880022    1    1    2    0    0 -0.74011255517E+02 -0.20909830378E+02 -0.84408412513E+02  0.19086990351E+03  0.15294330000E+03 0.  0.
<mgrwt>
<rscale>  0 0.47267598E+03</rscale>
<asrwt>0</asrwt>
<pdfrwt beam="1">  1        2 0.11613104E+00 0.66311771E+03</pdfrwt>
<pdfrwt beam="2">  1       -2 0.45280155E-01 0.66311771E+03</pdfrwt>
<totfact> 0.17459299E+02</totfact>
</mgrwt>
</event>
<event>
 4    1  0.7280516E-007  0.6671904E+03  0.7818608E-02  0.1017762E+00
         -2   -1    0    0    0  501 -0.00000000000E+00  0.00000000000E+00  0.11035483928E+03  0.11035483931E+03  0.25500000000E-02 0.  1.
          2   -1    0    0  501    0  0.00000000000E+00 -0.00000000000E+00 -0.17272285293E+04  0.17272285293E+04  0.25500000000E-02 0. -1.
    8880023    1    1    2    0    0  0.51629792079E+01  0.10633034978E+03 -0.10818812503E+04  0.12710664993E+04  0.65864270000E+03 0. -1.
    8880022    1    1    2    0    0 -0.51629792079E+01 -0.10633034978E+03 -0.53499243974E+03  0.56651686933E+03  0.15294330000E+03 0.  1.
<mgrwt>
<rscale>  0 0.48502794E+03</rscale>
<asrwt>0</asrwt>
<pdfrwt beam="1">  1        2 0.26572745E+00 0.66719038E+03</pdfrwt>
<pdfrwt beam="2">  1       -2 0.16977669E-01 0.66719038E+03</pdfrwt>
<totfact> 0.27512717E+02</totfact>
</mgrwt>
</event>
<event>
 4    1  0.7280516E-007  0.7033752E+03  0.7818608E-02  0.9983478E-01
          2   -1    0    0  501    0  0.00000000000E+00  0.00000000000E+00  0.11504743200E+04  0.11504743200E+04  0.25500000000E-02 0. -1.
         -2   -1    0    0    0  501 -0.00000000000E+00 -0.00000000000E+00 -0.66798422195E+03  0.66798422195E+03  0.25500000000E-02 0.  1.
    8880023    1    1    2    0    0 -0.18459984758E+03 -0.16385760169E+03  0.10014522457E+04  0.12237823434E+04  0.65864270000E+03 0.  0.
    8880022    1    1    2    0    0  0.18459984758E+03  0.16385760169E+03 -0.51896214767E+03  0.59467619852E+03  0.15294330000E+03 0.  0.
<mgrwt>
<rscale>  0 0.56380686E+03</rscale>
<asrwt>0</asrwt>
<pdfrwt beam="1">  1        2 0.17699605E+00 0.70337517E+03</pdfrwt>
<pdfrwt beam="2">  1       -2 0.10276680E+00 0.70337517E+03</pdfrwt>
<totfact> 0.16083788E+01</totfact>
</mgrwt>
</event>
<event>
 4    1  0.7280516E-007  0.6894885E+03  0.7818608E-02  0.1004397E+00
          2   -1    0    0  501    0  0.00000000000E+00  0.00000000000E+00  0.21019012765E+03  0.21019012766E+03  0.25500000000E-02 0. -1.
         -2   -1    0    0    0  501 -0.00000000000E+00 -0.00000000000E+00 -0.22962898424E+04  0.22962898424E+04  0.25500000000E-02 0.  1.
    8880023    1    1    2    0    0 -0.20264831323E+03  0.22756300571E+02 -0.39163931017E+03  0.79295380925E+03  0.65864270000E+03 0. -1.
    8880022    1    1    2    0    0  0.20264831323E+03 -0.22756300571E+02 -0.16944604046E+04  0.17135261608E+04  0.15294330000E+03 0.  0.
<mgrwt>
<rscale>  0 0.53763714E+03</rscale>
<asrwt>0</asrwt>
<pdfrwt beam="1">  1        2 0.32336944E-01 0.68948850E+03</pdfrwt>
<pdfrwt beam="2">  1       -2 0.35327534E+00 0.68948850E+03</pdfrwt>
<totfact> 0.25751480E+00</totfact>
</mgrwt>
</event>
<event>
 4    1  0.7280516E-007  0.6786317E+03  0.7818608E-02  0.1010108E+00
         -2   -1    0    0    0  501 -0.00000000000E+00  0.00000000000E+00  0.23038632281E+03  0.23038632282E+03  0.25500000000E-02 0.  1.
          2   -1    0    0  501    0  0.00000000000E+00 -0.00000000000E+00 -0.14616180123E+04  0.14616180124E+04  0.25500000000E-02 0. -1.
    8880023    1    1    2    0    0  0.16264171002E+03  0.16687384871E+02 -0.12925556191E+04  0.14598770597E+04  0.65864270000E+03 0. -1.
    8880022    1    1    2    0    0 -0.16264171002E+03 -0.16687384871E+02  0.61323929604E+02  0.23212727545E+03  0.15294330000E+03 0.  0.
<mgrwt>
<rscale>  0 0.51431554E+03</rscale>
<asrwt>0</asrwt>
<pdfrwt beam="1">  1        2 0.22486430E+00 0.67863171E+03</pdfrwt>
<pdfrwt beam="2">  1       -2 0.35444051E-01 0.67863171E+03</pdfrwt>
<totfact> 0.10223834E+02</totfact>
</mgrwt>
</event>
<event>
 4    1  0.7280516E-007  0.1212777E+04  0.7818608E-02  0.9144801E-01
          2   -1    0    0  501    0  0.00000000000E+00  0.00000000000E+00  0.33759547640E+04  0.33759547640E+04  0.25500000000E-02 0. -1.
         -2   -1    0    0    0  501 -0.00000000000E+00 -0.00000000000E+00 -0.87406046025E+03  0.87406046026E+03  0.25500000000E-02 0.  1.
    8880023    1    1    2    0    0 -0.97812073396E+03  0.28336983628E+03 -0.31313435882E+03  0.12525501855E+04  0.65864270000E+03 0.  0.
    8880022    1    1    2    0    0  0.97812073396E+03 -0.28336983628E+03  0.28150286626E+04  0.29974650388E+04  0.15294330000E+03 0.  0.
<mgrwt>
<rscale>  0 0.11641798E+04</rscale>
<asrwt>0</asrwt>
<pdfrwt beam="1">  1        2 0.51937766E+00 0.12127773E+04</pdfrwt>
<pdfrwt beam="2">  1       -2 0.13447084E+00 0.12127773E+04</pdfrwt>
<totfact> 0.39119543E-01</totfact>
</mgrwt>
</event>
<event>
 4    1  0.7280516E-007  0.1461305E+04  0.7818608E-02  0.8937454E-01
         -2   -1    0    0    0  501 -0.00000000000E+00  0.00000000000E+00  0.16538132963E+04  0.16538132963E+04  0.25500000000E-02 0.  1.
          2   -1    0    0  501    0  0.00000000000E+00 -0.00000000000E+00 -0.17931342703E+04  0.17931342703E+04  0.25500000000E-02 0. -1.
    8880023    1    1    2    0    0  0.16469103854E+03 -0.12940169007E+04 -0.10921468986E+04  0.18243349287E+04  0.65864270000E+03 0. -1.
    8880022    1    1    2    0    0 -0.16469103854E+03  0.12940169007E+04  0.95282592456E+03  0.16226126380E+04  0.15294330000E+03 0.  0.
<mgrwt>
<rscale>  0 0.14228338E+04</rscale>
<asrwt>0</asrwt>
<pdfrwt beam="1">  1        2 0.27586681E+00 0.14613053E+04</pdfrwt>
<pdfrwt beam="2">  1       -2 0.25443282E+00 0.14613053E+04</pdfrwt>
<totfact> 0.49501874E-01</totfact>
</mgrwt>
</event>
<event>
 4    1  0.7280516E-007  0.9172879E+03  0.7818608E-02  0.9498830E-01
         -2   -1    0    0    0  501 -0.00000000000E+00  0.00000000000E+00  0.84056810408E+03  0.84056810409E+03  0.25500000000E-02 0.  1.
          2   -1    0    0  501    0  0.00000000000E+00 -0.00000000000E+00 -0.17376705020E+04  0.17376705020E+04  0.25500000000E-02 0. -1.
    8880023    1    1    2    0    0 -0.61267173818E+03  0.17955576162E+03 -0.14527809898E+04  0.17181355421E+04  0.65864270000E+03 0.  0.
    8880022    1    1    2    0    0  0.61267173818E+03 -0.17955576162E+03  0.55567859188E+03  0.86010306404E+03  0.15294330000E+03 0.  0.
<mgrwt>
<rscale>  0 0.84370134E+03</rscale>
<asrwt>0</asrwt>
<pdfrwt beam="1">  1        2 0.26733392E+00 0.91728792E+03</pdfrwt>
<pdfrwt beam="2">  1       -2 0.12931817E+00 0.91728792E+03</pdfrwt>
<totfact> 0.41367746E+00</totfact>
</mgrwt>
</event>
<event>
 4    1  0.7280516E-007  0.6883683E+03  0.7818608E-02  0.1004938E+00
          2   -1    0    0  501    0  0.00000000000E+00  0.00000000000E+00  0.13568841045E+04  0.13568841045E+04  0.25500000000E-02 0. -1.
         -2   -1    0    0    0  501 -0.00000000000E+00 -0.00000000000E+00 -0.42570549067E+03  0.42570549068E+03  0.25500000000E-02 0.  1.
    8880023    1    1    2    0    0  0.10965602412E+03  0.16738057304E+03  0.12191229410E+04  0.14000398750E+04  0.65864270000E+03 0. -1.
    8880022    1    1    2    0    0 -0.10965602412E+03 -0.16738057304E+03 -0.28794432720E+03  0.38254972022E+03  0.15294330000E+03 0.  0.
<mgrwt>
<rscale>  0 0.53537057E+03</rscale>
<asrwt>0</asrwt>
<pdfrwt beam="1">  1        2 0.20875140E+00 0.68836829E+03</pdfrwt>
<pdfrwt beam="2">  1       -2 0.65493153E-01 0.68836829E+03</pdfrwt>
<totfact> 0.33823911E+01</totfact>
</mgrwt>
</event>
<event>
 4    1  0.7332104E-007  0.7103384E+03  0.7818608E-02  0.9956747E-01
          2   -1    0    0  501    0  0.00000000000E+00  0.00000000000E+00  0.11247568435E+04  0.11247568435E+04  0.25500000000E-02 0. -1.
         -2   -1    0    0    0  501 -0.00000000000E+00 -0.00000000000E+00 -0.87905881425E+03  0.87905881426E+03  0.25500000000E-02 0.  1.
    8880023    1    1    2    0    0 -0.21576904498E+03 -0.15560888282E+03  0.97862111442E+03  0.12092476574E+04  0.65864270000E+03 0. -1.
    8880022    1    1    2    0    0  0.21576904498E+03  0.15560888282E+03 -0.73292308522E+03  0.79456800027E+03  0.15294330000E+03 0.  0.
<mgrwt>
<rscale>  0 0.57588193E+03</rscale>
<asrwt>0</asrwt>
<pdfrwt beam="1">  1        2 0.17303952E+00 0.71033838E+03</pdfrwt>
<pdfrwt beam="2">  1       -2 0.13523982E+00 0.71033838E+03</pdfrwt>
<totfact> 0.84639638E+00</totfact>
</mgrwt>
</event>
<event>
 4    1  0.7280516E-007  0.8074403E+03  0.7818608E-02  0.9694934E-01
          2   -1    0    0  501    0  0.00000000000E+00  0.00000000000E+00  0.22087601248E+04  0.22087601248E+04  0.25500000000E-02 0. -1.
         -2   -1    0    0    0  501 -0.00000000000E+00 -0.00000000000E+00 -0.27653078648E+03  0.27653078649E+03  0.25500000000E-02 0.  1.
    8880023    1    1    2    0    0  0.54047566265E+02  0.46392719569E+03  0.18053819125E+04  0.19777167741E+04  0.65864270000E+03 0.  0.
    8880022    1    1    2    0    0 -0.54047566265E+02 -0.46392719569E+03  0.12684742586E+03  0.50757413723E+03  0.15294330000E+03 0.  0.
<mgrwt>
<rscale>  0 0.71319241E+03</rscale>
<asrwt>0</asrwt>
<pdfrwt beam="1">  1        2 0.33980925E+00 0.80744027E+03</pdfrwt>
<pdfrwt beam="2">  1       -2 0.42543198E-01 0.80744027E+03</pdfrwt>
<totfact> 0.27526708E+01</totfact>
</mgrwt>
</event>
<event>
 4    1  0.7280516E-007  0.6727636E+03  0.7818608E-02  0.1013755E+00
          2   -1    0    0  501    0  0.00000000000E+00  0.00000000000E+00  0.27888429640E+04  0.27888429640E+04  0.25500000000E-02 0. -1.
         -2   -1    0    0    0  501 -0.00000000000E+00 -0.00000000000E+00 -0.14750741509E+03  0.14750741511E+03  0.25500000000E-02 0.  1.
    8880023    1    1    2    0    0 -0.13015342282E+03  0.43136258522E+02  0.26467062368E+04  0.27308725273E+04  0.65864270000E+03 0. -1.
    8880022    1    1    2    0    0  0.13015342282E+03 -0.43136258522E+02 -0.53706879019E+01  0.20547785178E+03  0.15294330000E+03 0.  0.
<mgrwt>
<rscale>  0 0.50009328E+03</rscale>
<asrwt>0</asrwt>
<pdfrwt beam="1">  1        2 0.42905275E+00 0.67276360E+03</pdfrwt>
<pdfrwt beam="2">  1       -2 0.22693449E-01 0.67276360E+03</pdfrwt>
<totfact> 0.42549412E+01</totfact>
</mgrwt>
</event>
<event>
 4    1  0.7826967E-007  0.6805959E+03  0.7818608E-02  0.1008989E+00
          2   -1    0    0  501    0  0.00000000000E+00  0.00000000000E+00  0.15504782673E+04  0.15504782673E+04  0.25500000000E-02 0. -1.
         -2   -1    0    0    0  501 -0.00000000000E+00 -0.00000000000E+00 -0.71091684856E+03  0.71091684856E+03  0.25500000000E-02 0.  1.
    8880023    1    1    2    0    0  0.14711110660E+03  0.88084942639E+02  0.14539980594E+04  0.16054037491E+04  0.65864270000E+03 0. -1.
    8880022    1    1    2    0    0 -0.14711110660E+03 -0.88084942639E+02 -0.61443664065E+03  0.65599136671E+03  0.15294330000E+03 0.  0.
<mgrwt>
<rscale>  0 0.51878610E+03</rscale>
<asrwt>0</asrwt>
<pdfrwt beam="1">  1        2 0.23853512E+00 0.68059595E+03</pdfrwt>
<pdfrwt beam="2">  1       -2 0.10937182E+00 0.68059595E+03</pdfrwt>
<totfact> 0.82094159E+00</totfact>
</mgrwt>
</event>
<event>
 4    1  0.7280516E-007  0.7854955E+03  0.7818608E-02  0.9743083E-01
          2   -1    0    0  501    0  0.00000000000E+00  0.00000000000E+00  0.33767117210E+04  0.33767117210E+04  0.25500000000E-02 0. -1.
         -2   -1    0    0    0  501 -0.00000000000E+00 -0.00000000000E+00 -0.12163097643E+03  0.12163097646E+03  0.25500000000E-02 0.  1.
    8880023    1    1    2    0    0 -0.30817516268E+03  0.29702028697E+03  0.16064693929E+04  0.17882245660E+04  0.65864270000E+03 0.  0.
    8880022    1    1    2    0    0  0.30817516268E+03 -0.29702028697E+03  0.16486113517E+04  0.17101181315E+04  0.15294330000E+03 0.  0.
<mgrwt>
<rscale>  0 0.68508590E+03</rscale>
<asrwt>0</asrwt>
<pdfrwt beam="1">  1        2 0.51949414E+00 0.78549550E+03</pdfrwt>
<pdfrwt beam="2">  1       -2 0.18712457E-01 0.78549550E+03</pdfrwt>
<totfact> 0.25247288E+01</totfact>
</mgrwt>
</event>
<event>
 4    1  0.7280516E-007  0.8337050E+03  0.7818608E-02  0.9642166E-01
          2   -1    0    0  501    0  0.00000000000E+00  0.00000000000E+00  0.12659038462E+04  0.12659038462E+04  0.25500000000E-02 0. -1.
         -2   -1    0    0    0  501 -0.00000000000E+00 -0.00000000000E+00 -0.46775026403E+03  0.46775026403E+03  0.25500000000E-02 0.  1.
    8880023    1    1    2    0    0 -0.28143886951E+03  0.42666855345E+03  0.85853873667E+03  0.11967258919E+04  0.65864270000E+03 0.  0.
    8880022    1    1    2    0    0  0.28143886951E+03 -0.42666855345E+03 -0.60385154458E+02  0.53692821835E+03  0.15294330000E+03 0.  0.
<mgrwt>
<rscale>  0 0.74567120E+03</rscale>
<asrwt>0</asrwt>
<pdfrwt beam="1">  1        2 0.19475443E+00 0.83370504E+03</pdfrwt>
<pdfrwt beam="2">  1       -2 0.71961581E-01 0.83370504E+03</pdfrwt>
<totfact> 0.30619789E+01</totfact>
</mgrwt>
</event>
<event>
 4    1  0.7280516E-007  0.9784159E+03  0.7818608E-02  0.9410357E-01
          2   -1    0    0  501    0  0.00000000000E+00  0.00000000000E+00  0.15187284904E+04  0.15187284904E+04  0.25500000000E-02 0. -1.
         -2   -1    0    0    0  501 -0.00000000000E+00 -0.00000000000E+00 -0.77253833970E+03  0.77253833971E+03  0.25500000000E-02 0.  1.
    8880023    1    1    2    0    0  0.72226323269E+03  0.42699668602E+02  0.10994054671E+04  0.14717302831E+04  0.65864270000E+03 0. -1.
    8880022    1    1    2    0    0 -0.72226323269E+03 -0.42699668602E+02 -0.35321531642E+03  0.81953654694E+03  0.15294330000E+03 0.  0.
<mgrwt>
<rscale>  0 0.91228185E+03</rscale>
<asrwt>0</asrwt>
<pdfrwt beam="1">  1        2 0.23365053E+00 0.97841589E+03</pdfrwt>
<pdfrwt beam="2">  1       -2 0.11885205E+00 0.97841589E+03</pdfrwt>
<totfact> 0.67140182E+00</totfact>
</mgrwt>
</event>
<event>
 4    1  0.7280516E-007  0.7953227E+03  0.7818608E-02  0.9721002E-01
         -2   -1    0    0    0  501 -0.00000000000E+00  0.00000000000E+00  0.40704582206E+03  0.40704582207E+03  0.25500000000E-02 0.  1.
          2   -1    0    0  501    0  0.00000000000E+00 -0.00000000000E+00 -0.18937374989E+04  0.18937374989E+04  0.25500000000E-02 0. -1.
    8880023    1    1    2    0    0 -0.36349880646E+03  0.25806323037E+03 -0.16253591638E+04  0.18095111580E+04  0.65864270000E+03 0.  0.
    8880022    1    1    2    0    0  0.36349880646E+03 -0.25806323037E+03  0.13866748698E+03  0.49127216299E+03  0.15294330000E+03 0.  1.
<mgrwt>
<rscale>  0 0.69779992E+03</rscale>
<asrwt>0</asrwt>
<pdfrwt beam="1">  1        2 0.29134423E+00 0.79532271E+03</pdfrwt>
<pdfrwt beam="2">  1       -2 0.62622435E-01 0.79532271E+03</pdfrwt>
<totfact> 0.18566754E+01</totfact>
</mgrwt>
</event>
<event>
 4    1  0.7280516E-007  0.7557835E+03  0.7818608E-02  0.9816148E-01
         -2   -1    0    0    0  501 -0.00000000000E+00  0.00000000000E+00  0.29751812868E+03  0.29751812869E+03  0.25500000000E-02 0.  1.
          2   -1    0    0  501    0  0.00000000000E+00 -0.00000000000E+00 -0.24372353060E+04  0.24372353060E+04  0.25500000000E-02 0. -1.
    8880023    1    1    2    0    0  0.26425611633E+03  0.25993697805E+03 -0.22027876707E+04  0.23288371038E+04  0.65864270000E+03 0. -1.
    8880022    1    1    2    0    0 -0.26425611633E+03 -0.25993697805E+03  0.63070493342E+02  0.40591633093E+03  0.15294330000E+03 0.  0.
<mgrwt>
<rscale>  0 0.64503088E+03</rscale>
<asrwt>0</asrwt>
<pdfrwt beam="1">  1        2 0.37495927E+00 0.75578352E+03</pdfrwt>
<pdfrwt beam="2">  1       -2 0.45772021E-01 0.75578352E+03</pdfrwt>
<totfact> 0.17878790E+01</totfact>
</mgrwt>
</event>
<event>
 4    1  0.7280516E-007  0.7913445E+03  0.7818608E-02  0.9729833E-01
          2   -1    0    0  501    0  0.00000000000E+00  0.00000000000E+00  0.10039302756E+04  0.10039302756E+04  0.25500000000E-02 0. -1.
         -2   -1    0    0    0  501 -0.00000000000E+00 -0.00000000000E+00 -0.40940440100E+03  0.40940440101E+03  0.25500000000E-02 0.  1.
    8880023    1    1    2    0    0  0.37827140694E+03 -0.22209608350E+03  0.23375096896E+03  0.82514583521E+03  0.65864270000E+03 0.  0.
    8880022    1    1    2    0    0 -0.37827140694E+03  0.22209608350E+03  0.36077490567E+03  0.58818884143E+03  0.15294330000E+03 0.  0.
<mgrwt>
<rscale>  0 0.69267982E+03</rscale>
<asrwt>0</asrwt>
<pdfrwt beam="1">  1        2 0.15445081E+00 0.79134451E+03</pdfrwt>
<pdfrwt beam="2">  1       -2 0.62985293E-01 0.79134451E+03</pdfrwt>
<totfact> 0.59179162E+01</totfact>
</mgrwt>
</event>
<event>
 4    1  0.7280516E-007  0.7937429E+03  0.7818608E-02  0.9724492E-01
          2   -1    0    0  501    0  0.00000000000E+00  0.00000000000E+00  0.74475482257E+03  0.74475482257E+03  0.25500000000E-02 0. -1.
         -2   -1    0    0    0  501 -0.00000000000E+00 -0.00000000000E+00 -0.70247687384E+03  0.70247687385E+03  0.25500000000E-02 0.  1.
    8880023    1    1    2    0    0 -0.73125052410E+02  0.43688713055E+03  0.36963700433E+03  0.87559086300E+03  0.65864270000E+03 0.  0.
    8880022    1    1    2    0    0  0.73125052410E+02 -0.43688713055E+03 -0.32735905561E+03  0.57164083342E+03  0.15294330000E+03 0.  0.
<mgrwt>
<rscale>  0 0.69577087E+03</rscale>
<asrwt>0</asrwt>
<pdfrwt beam="1">  1        2 0.11457766E+00 0.79374293E+03</pdfrwt>
<pdfrwt beam="2">  1       -2 0.10807337E+00 0.79374293E+03</pdfrwt>
<totfact> 0.26209810E+01</totfact>
</mgrwt>
</event>
<event>
 4    1  0.7280516E-007  0.7853377E+03  0.7818608E-02  0.9743445E-01
         -2   -1    0    0    0  501 -0.00000000000E+00  0.00000000000E+00  0.35674679660E+03  0.35674679661E+03  0.25500000000E-02 0.  1.
          2   -1    0    0  501    0  0.00000000000E+00 -0.00000000000E+00 -0.14515147196E+04  0.14515147196E+04  0.25500000000E-02 0. -1.
    8880023    1    1    2    0    0 -0.13062473933E+02 -0.42752125567E+03 -0.11029112514E+04  0.13539455258E+04  0.65864270000E+03 0. -1.
    8880022    1    1    2    0    0  0.13062473933E+02  0.42752125567E+03  0.81433283857E+01  0.45431599035E+03  0.15294330000E+03 0.  0.
<mgrwt>
<rscale>  0 0.68487984E+03</rscale>
<asrwt>0</asrwt>
<pdfrwt beam="1">  1        2 0.22330996E+00 0.78533767E+03</pdfrwt>
<pdfrwt beam="2">  1       -2 0.54884123E-01 0.78533767E+03</pdfrwt>
<totfact> 0.42980372E+01</totfact>
</mgrwt>
</event>
<event>
 4    1  0.7280516E-007  0.7086541E+03  0.7818608E-02  0.9963033E-01
          2   -1    0    0  501    0  0.00000000000E+00  0.00000000000E+00  0.20624788718E+04  0.20624788718E+04  0.25500000000E-02 0. -1.
         -2   -1    0    0    0  501 -0.00000000000E+00 -0.00000000000E+00 -0.31685426727E+03  0.31685426728E+03  0.25500000000E-02 0.  1.
    8880023    1    1    2    0    0  0.24400985870E+03  0.94019339846E+02  0.19081914829E+04  0.20355307389E+04  0.65864270000E+03 0. -1.
    8880022    1    1    2    0    0 -0.24400985870E+03 -0.94019339846E+02 -0.16256687836E+03  0.34380240017E+03  0.15294330000E+03 0.  0.
<mgrwt>
<rscale>  0 0.57301312E+03</rscale>
<asrwt>0</asrwt>
<pdfrwt beam="1">  1        2 0.31730444E+00 0.70865411E+03</pdfrwt>
<pdfrwt beam="2">  1       -2 0.48746810E-01 0.70865411E+03</pdfrwt>
<totfact> 0.25569468E+01</totfact>
</mgrwt>
</event>
<event>
 4    1  0.7280516E-007  0.1321063E+04  0.7818608E-02  0.9047581E-01
          2   -1    0    0  501    0  0.00000000000E+00  0.00000000000E+00  0.30710504508E+04  0.30710504508E+04  0.25500000000E-02 0. -1.
         -2   -1    0    0    0  501 -0.00000000000E+00 -0.00000000000E+00 -0.67892570669E+03  0.67892570670E+03  0.25500000000E-02 0.  1.
    8880023    1    1    2    0    0 -0.77710967958E+03  0.84112894204E+03  0.29186567764E+03  0.13529202235E+04  0.65864270000E+03 0.  0.
    8880022    1    1    2    0    0  0.77710967958E+03 -0.84112894204E+03  0.21002590665E+04  0.23970559340E+04  0.15294330000E+03 0.  0.
<mgrwt>
<rscale>  0 0.12775245E+04</rscale>
<asrwt>0</asrwt>
<pdfrwt beam="1">  1        2 0.47246930E+00 0.13210630E+04</pdfrwt>
<pdfrwt beam="2">  1       -2 0.10445011E+00 0.13210630E+04</pdfrwt>
<totfact> 0.11407642E+00</totfact>
</mgrwt>
</event>
<event>
 4    1  0.7280516E-007  0.7989534E+03  0.7818608E-02  0.9713064E-01
          2   -1    0    0  501    0  0.00000000000E+00  0.00000000000E+00  0.69491866966E+03  0.69491866967E+03  0.25500000000E-02 0. -1.
         -2   -1    0    0    0  501 -0.00000000000E+00 -0.00000000000E+00 -0.14785664613E+04  0.14785664613E+04  0.25500000000E-02 0.  1.
    8880023    1    1    2    0    0  0.34628173415E+03  0.29086988780E+03  0.40268698687E+03  0.89469734922E+03  0.65864270000E+03 0. -1.
    8880022    1    1    2    0    0 -0.34628173415E+03 -0.29086988780E+03 -0.11863347785E+04  0.12787877817E+04  0.15294330000E+03 0.  0.
<mgrwt>
<rscale>  0 0.70244290E+03</rscale>
<asrwt>0</asrwt>
<pdfrwt beam="1">  1        2 0.10691056E+00 0.79895340E+03</pdfrwt>
<pdfrwt beam="2">  1       -2 0.22747176E+00 0.79895340E+03</pdfrwt>
<totfact> 0.37372722E+00</totfact>
</mgrwt>
</event>
<event>
 4    1  0.7280516E-007  0.7691987E+03  0.7818608E-02  0.9781850E-01
          2   -1    0    0  501    0  0.00000000000E+00  0.00000000000E+00  0.23648117578E+04  0.23648117578E+04  0.25500000000E-02 0. -1.
         -2   -1    0    0    0  501 -0.00000000000E+00 -0.00000000000E+00 -0.78837043879E+03  0.78837043879E+03  0.25500000000E-02 0.  1.
    8880023    1    1    2    0    0 -0.15603238068E+03  0.36539068163E+03  0.22379874551E+04  0.23664856876E+04  0.65864270000E+03 0. -1.
    8880022    1    1    2    0    0  0.15603238068E+03 -0.36539068163E+03 -0.66154613611E+03  0.78669650899E+03  0.15294330000E+03 0.  0.
<mgrwt>
<rscale>  0 0.66345748E+03</rscale>
<asrwt>0</asrwt>
<pdfrwt beam="1">  1        2 0.36381719E+00 0.76919871E+03</pdfrwt>
<pdfrwt beam="2">  1       -2 0.12128776E+00 0.76919871E+03</pdfrwt>
<totfact> 0.22455780E+00</totfact>
</mgrwt>
</event>
<event>
 4    1  0.7280516E-007  0.8849299E+03  0.7818608E-02  0.9550670E-01
         -2   -1    0    0    0  501 -0.00000000000E+00  0.00000000000E+00  0.13373629662E+04  0.13373629662E+04  0.25500000000E-02 0.  1.
          2   -1    0    0  501    0  0.00000000000E+00 -0.00000000000E+00 -0.92991541414E+03  0.92991541414E+03  0.25500000000E-02 0. -1.
    8880023    1    1    2    0    0  0.15181741529E+03 -0.57117619581E+03  0.10552222065E+04  0.13771691565E+04  0.65864270000E+03 0.  0.
    8880022    1    1    2    0    0 -0.15181741529E+03  0.57117619581E+03 -0.64777465450E+03  0.89010922379E+03  0.15294330000E+03 0.  0.
<mgrwt>
<rscale>  0 0.80649008E+03</rscale>
<asrwt>0</asrwt>
<pdfrwt beam="1">  1        2 0.14306391E+00 0.88492993E+03</pdfrwt>
<pdfrwt beam="2">  1       -2 0.20574815E+00 0.88492993E+03</pdfrwt>
<totfact> 0.34352894E+00</totfact>
</mgrwt>
</event>
<event>
 4    1  0.7280516E-007  0.6922719E+03  0.7818608E-02  0.1003091E+00
         -2   -1    0    0    0  501 -0.00000000000E+00  0.00000000000E+00  0.14872865685E+03  0.14872865687E+03  0.25500000000E-02 0.  1.
          2   -1    0    0  501    0  0.00000000000E+00 -0.00000000000E+00 -0.15926269163E+04  0.15926269163E+04  0.25500000000E-02 0. -1.
    8880023    1    1    2    0    0 -0.20448685079E+03  0.60127335365E+02 -0.11873516364E+04  0.13744250737E+04  0.65864270000E+03 0.  0.
    8880022    1    1    2    0    0  0.20448685079E+03 -0.60127335365E+02 -0.25654662311E+03  0.36693049948E+03  0.15294330000E+03 0.  0.
<mgrwt>
<rscale>  0 0.54315439E+03</rscale>
<asrwt>0</asrwt>
<pdfrwt beam="1">  1        2 0.24501951E+00 0.69227189E+03</pdfrwt>
<pdfrwt beam="2">  1       -2 0.22881333E-01 0.69227189E+03</pdfrwt>
<totfact> 0.19326428E+02</totfact>
</mgrwt>
</event>
<event>
 4    1  0.7280516E-007  0.9428647E+03  0.7818608E-02  0.9460455E-01
          2   -1    0    0  501    0  0.00000000000E+00  0.00000000000E+00  0.27540841600E+04  0.27540841600E+04  0.25500000000E-02 0. -1.
         -2   -1    0    0    0  501 -0.00000000000E+00 -0.00000000000E+00 -0.39385402412E+03  0.39385402413E+03  0.25500000000E-02 0.  1.
    8880023    1    1    2    0    0  0.19899760536E+03 -0.64465775724E+03  0.22601657400E+04  0.24489473349E+04  0.65864270000E+03 0. -1.
    8880022    1    1    2    0    0 -0.19899760536E+03  0.64465775724E+03  0.10006439590E+03  0.69899084919E+03  0.15294330000E+03 0.  0.
<mgrwt>
<rscale>  0 0.87263138E+03</rscale>
<asrwt>0</asrwt>
<pdfrwt beam="1">  1        2 0.42370526E+00 0.94286472E+03</pdfrwt>
<pdfrwt beam="2">  1       -2 0.60592927E-01 0.94286472E+03</pdfrwt>
<totfact> 0.64083404E+00</totfact>
</mgrwt>
</event>
<event>
 4    1  0.8385751E-007  0.7609987E+03  0.7818608E-02  0.9802529E-01
         -2   -1    0    0    0  501 -0.00000000000E+00  0.00000000000E+00  0.65449288310E+03  0.65449288310E+03  0.25500000000E-02 0.  1.
          2   -1    0    0  501    0  0.00000000000E+00 -0.00000000000E+00 -0.24379773650E+04  0.24379773650E+04  0.25500000000E-02 0. -1.
    8880023    1    1    2    0    0  0.86312978206E+02  0.37129359070E+03 -0.23057259384E+04  0.24280632550E+04  0.65864270000E+03 0. -1.
    8880022    1    1    2    0    0 -0.86312978206E+02 -0.37129359070E+03  0.52224145648E+03  0.66440699318E+03  0.15294330000E+03 0.  0.
<mgrwt>
<rscale>  0 0.65227014E+03</rscale>
<asrwt>0</asrwt>
<pdfrwt beam="1">  1        2 0.37507344E+00 0.76099873E+03</pdfrwt>
<pdfrwt beam="2">  1       -2 0.10069121E+00 0.76099873E+03</pdfrwt>
<totfact> 0.32143293E+00</totfact>
</mgrwt>
</event>
<event>
 4    1  0.7280516E-007  0.6710486E+03  0.7818608E-02  0.1014922E+00
         -2   -1    0    0    0  501 -0.00000000000E+00  0.00000000000E+00  0.27402428212E+03  0.27402428213E+03  0.25500000000E-02 0.  1.
          2   -1    0    0  501    0  0.00000000000E+00 -0.00000000000E+00 -0.72219697675E+03  0.72219697676E+03  0.25500000000E-02 0. -1.
    8880023    1    1    2    0    0  0.12201662739E+03  0.40100150499E+02 -0.42699824349E+03  0.79538279189E+03  0.65864270000E+03 0. -1.
    8880022    1    1    2    0    0 -0.12201662739E+03 -0.40100150499E+02 -0.21174451140E+02  0.20083846700E+03  0.15294330000E+03 0.  1.
<mgrwt>
<rscale>  0 0.49564465E+03</rscale>
<asrwt>0</asrwt>
<pdfrwt beam="1">  1        2 0.11110723E+00 0.67104865E+03</pdfrwt>
<pdfrwt beam="2">  1       -2 0.42157582E-01 0.67104865E+03</pdfrwt>
<totfact> 0.21274255E+02</totfact>
</mgrwt>
</event>
<event>
 4    1  0.7280516E-007  0.1227135E+04  0.7818608E-02  0.9131186E-01
          2   -1    0    0  501    0  0.00000000000E+00  0.00000000000E+00  0.15158603775E+04  0.15158603775E+04  0.25500000000E-02 0. -1.
         -2   -1    0    0    0  501 -0.00000000000E+00 -0.00000000000E+00 -0.23187021388E+04  0.23187021388E+04  0.25500000000E-02 0.  1.
    8880023    1    1    2    0    0  0.52673316695E+03  0.89140440988E+03  0.11096282646E+04  0.16544288268E+04  0.65864270000E+03 0.  0.
    8880022    1    1    2    0    0 -0.52673316695E+03 -0.89140440988E+03 -0.19124700258E+04  0.21801336895E+04  0.15294330000E+03 0.  0.
<mgrwt>
<rscale>  0 0.11792825E+04</rscale>
<asrwt>0</asrwt>
<pdfrwt beam="1">  1        2 0.23320929E+00 0.12271348E+04</pdfrwt>
<pdfrwt beam="2">  1       -2 0.35672341E+00 0.12271348E+04</pdfrwt>
<totfact> 0.17134363E-01</totfact>
</mgrwt>
</event>
<event>
 4    1  0.7280516E-007  0.6884321E+03  0.7818608E-02  0.1004907E+00
          2   -1    0    0  501    0  0.00000000000E+00  0.00000000000E+00  0.13809702416E+04  0.13809702416E+04  0.25500000000E-02 0. -1.
         -2   -1    0    0    0  501 -0.00000000000E+00 -0.00000000000E+00 -0.39982665919E+03  0.39982665920E+03  0.25500000000E-02 0.  1.
    8880023    1    1    2    0    0 -0.20027308577E+03  0.43856495956E+01  0.12407695642E+04  0.14189601335E+04  0.65864270000E+03 0. -1.
    8880022    1    1    2    0    0  0.20027308577E+03 -0.43856495956E+01 -0.25962598172E+03  0.36183676735E+03  0.15294330000E+03 0.  0.
<mgrwt>
<rscale>  0 0.53550041E+03</rscale>
<asrwt>0</asrwt>
<pdfrwt beam="1">  1        2 0.21245696E+00 0.68843209E+03</pdfrwt>
<pdfrwt beam="2">  1       -2 0.61511795E-01 0.68843209E+03</pdfrwt>
<totfact> 0.37472084E+01</totfact>
</mgrwt>
</event>
<event>
 4    1  0.7280516E-007  0.8707370E+03  0.7818608E-02  0.9574743E-01
         -2   -1    0    0    0  501 -0.00000000000E+00  0.00000000000E+00  0.16356389376E+04  0.16356389376E+04  0.25500000000E-02 0.  1.
          2   -1    0    0  501    0  0.00000000000E+00 -0.00000000000E+00 -0.35458874205E+03  0.35458874206E+03  0.25500000000E-02 0. -1.
    8880023    1    1    2    0    0  0.12160668171E+02 -0.56940744615E+03  0.47616970097E+03  0.99243161576E+03  0.65864270000E+03 0.  0.
    8880022    1    1    2    0    0 -0.12160668171E+02  0.56940744615E+03  0.80488049462E+03  0.99779606394E+03  0.15294330000E+03 0. -1.
<mgrwt>
<rscale>  0 0.78990686E+03</rscale>
<asrwt>0</asrwt>
<pdfrwt beam="1">  1        2 0.54552115E-01 0.87073700E+03</pdfrwt>
<pdfrwt beam="2">  1       -2 0.25163676E+00 0.87073700E+03</pdfrwt>
<totfact> 0.58011526E+00</totfact>
</mgrwt>
</event>
<event>
 4    1  0.7280516E-007  0.1254597E+04  0.7818608E-02  0.9105794E-01
          2   -1    0    0  501    0  0.00000000000E+00  0.00000000000E+00  0.18984102668E+04  0.18984102668E+04  0.25500000000E-02 0. -1.
         -2   -1    0    0    0  501 -0.00000000000E+00 -0.00000000000E+00 -0.93692844554E+03  0.93692844554E+03  0.25500000000E-02 0.  1.
    8880023    1    1    2    0    0 -0.10480829426E+04  0.20427141817E+03  0.11939021205E+04  0.17318825441E+04  0.65864270000E+03 0.  0.
    8880022    1    1    2    0    0  0.10480829426E+04 -0.20427141817E+03 -0.23242029927E+03  0.11034561683E+04  0.15294330000E+03 0.  0.
<mgrwt>
<rscale>  0 0.12081020E+04</rscale>
<asrwt>0</asrwt>
<pdfrwt beam="1">  1        2 0.29206311E+00 0.12545975E+04</pdfrwt>
<pdfrwt beam="2">  1       -2 0.14414284E+00 0.12545975E+04</pdfrwt>
<totfact> 0.24505263E+00</totfact>
</mgrwt>
</event>
<event>
 4    1  0.7280516E-007  0.6687013E+03  0.7818608E-02  0.1016611E+00
          2   -1    0    0  501    0  0.00000000000E+00  0.00000000000E+00  0.10349399477E+04  0.10349399477E+04  0.25500000000E-02 0. -1.
         -2   -1    0    0    0  501 -0.00000000000E+00 -0.00000000000E+00 -0.37972855374E+03  0.37972855375E+03  0.25500000000E-02 0.  1.
    8880023    1    1    2    0    0  0.11497157781E+03  0.11522797588E+02  0.88895057509E+03  0.11123823847E+04  0.65864270000E+03 0. -1.
    8880022    1    1    2    0    0 -0.11497157781E+03 -0.11522797588E+02 -0.23373918113E+03  0.30228611675E+03  0.15294330000E+03 0.  0.
<mgrwt>
<rscale>  0 0.48929502E+03</rscale>
<asrwt>0</asrwt>
<pdfrwt beam="1">  1        2 0.15922153E+00 0.66870131E+03</pdfrwt>
<pdfrwt beam="2">  1       -2 0.58419777E-01 0.66870131E+03</pdfrwt>
<totfact> 0.67031857E+01</totfact>
</mgrwt>
</event>
<event>
 4    1  0.7280516E-007  0.7718025E+03  0.7818608E-02  0.9775458E-01
          2   -1    0    0  501    0  0.00000000000E+00  0.00000000000E+00  0.34653444568E+04  0.34653444568E+04  0.25500000000E-02 0. -1.
         -2   -1    0    0    0  501 -0.00000000000E+00 -0.00000000000E+00 -0.11277249332E+03  0.11277249335E+03  0.25500000000E-02 0.  1.
    8880023    1    1    2    0    0 -0.32810898557E+03  0.23283775075E+03  0.25889542584E+04  0.27015483121E+04  0.65864270000E+03 0.  0.
    8880022    1    1    2    0    0  0.32810898557E+03 -0.23283775075E+03  0.76361770506E+03  0.87656863798E+03  0.15294330000E+03 0.  0.
<mgrwt>
<rscale>  0 0.66696420E+03</rscale>
<asrwt>0</asrwt>
<pdfrwt beam="1">  1        2 0.53312982E+00 0.77180252E+03</pdfrwt>
<pdfrwt beam="2">  1       -2 0.17349618E-01 0.77180252E+03</pdfrwt>
<totfact> 0.25151229E+01</totfact>
</mgrwt>
</event>
<event>
 4    1  0.7280516E-007  0.7008245E+03  0.7818608E-02  0.9993798E-01
         -2   -1    0    0    0  501 -0.00000000000E+00  0.00000000000E+00  0.21796476072E+03  0.21796476073E+03  0.25500000000E-02 0.  1.
          2   -1    0    0  501    0  0.00000000000E+00 -0.00000000000E+00 -0.18329618783E+04  0.18329618783E+04  0.25500000000E-02 0. -1.
    8880023    1    1    2    0    0 -0.23756856741E+03  0.30099319439E+02 -0.16217553573E+04  0.17667046834E+04  0.65864270000E+03 0. -1.
    8880022    1    1    2    0    0  0.23756856741E+03 -0.30099319439E+02  0.67582396851E+01  0.28422195564E+03  0.15294330000E+03 0.  0.
<mgrwt>
<rscale>  0 0.55923027E+03</rscale>
<asrwt>0</asrwt>
<pdfrwt beam="1">  1        2 0.28199412E+00 0.70082451E+03</pdfrwt>
<pdfrwt beam="2">  1       -2 0.33533041E-01 0.70082451E+03</pdfrwt>
<totfact> 0.70876146E+01</totfact>
</mgrwt>
</event>
<event>
 4    1  0.7280516E-007  0.8077750E+03  0.7818608E-02  0.9694230E-01
          2   -1    0    0  501    0  0.00000000000E+00  0.00000000000E+00  0.17726864799E+04  0.17726864799E+04  0.25500000000E-02 0. -1.
         -2   -1    0    0    0  501 -0.00000000000E+00 -0.00000000000E+00 -0.66145824890E+03  0.66145824890E+03  0.25500000000E-02 0.  1.
    8880023    1    1    2    0    0 -0.10489401687E+03  0.45572740832E+03  0.15673296356E+04  0.17632420759E+04  0.65864270000E+03 0. -1.
    8880022    1    1    2    0    0  0.10489401687E+03 -0.45572740832E+03 -0.45610140453E+03  0.67090265292E+03  0.15294330000E+03 0.  0.
<mgrwt>
<rscale>  0 0.71361355E+03</rscale>
<asrwt>0</asrwt>
<pdfrwt beam="1">  1        2 0.27272099E+00 0.80777499E+03</pdfrwt>
<pdfrwt beam="2">  1       -2 0.10176281E+00 0.80777499E+03</pdfrwt>
<totfact> 0.72347733E+00</totfact>
</mgrwt>
</event>
<event>
 4    1  0.7280516E-007  0.7346027E+03  0.7818608E-02  0.9875957E-01
          2   -1    0    0  501    0  0.00000000000E+00  0.00000000000E+00  0.10884746431E+04  0.10884746431E+04  0.25500000000E-02 0. -1.
         -2   -1    0    0    0  501 -0.00000000000E+00 -0.00000000000E+00 -0.69493474088E+03  0.69493474088E+03  0.25500000000E-02 0.  1.
    8880023    1    1    2    0    0  0.72917077909E+02 -0.31703946209E+03  0.90037833240E+03  0.11620336779E+04  0.65864270000E+03 0. -1.
    8880022    1    1    2    0    0 -0.72917077909E+02  0.31703946209E+03 -0.50683843020E+03  0.62137570609E+03  0.15294330000E+03 0.  0.
<mgrwt>
<rscale>  0 0.61440775E+03</rscale>
<asrwt>0</asrwt>
<pdfrwt beam="1">  1        2 0.16745764E+00 0.73460270E+03</pdfrwt>
<pdfrwt beam="2">  1       -2 0.10691304E+00 0.73460270E+03</pdfrwt>
<totfact> 0.15893255E+01</totfact>
</mgrwt>
</event>
<event>
 4    1  0.7280516E-007  0.7694691E+03  0.7818608E-02  0.9781182E-01
         -2   -1    0    0    0  501 -0.00000000000E+00  0.00000000000E+00  0.18750357988E+03  0.18750357990E+03  0.25500000000E-02 0.  1.
          2   -1    0    0  501    0  0.00000000000E+00 -0.00000000000E+00 -0.31995036277E+04  0.31995036277E+04  0.25500000000E-02 0. -1.
    8880023    1    1    2    0    0 -0.32915262196E+03 -0.22345243849E+03 -0.28135107023E+04  0.29168347774E+04  0.65864270000E+03 0. -1.
    8880022    1    1    2    0    0  0.32915262196E+03  0.22345243849E+03 -0.19848934562E+03  0.47017243023E+03  0.15294330000E+03 0.  0.
<mgrwt>
<rscale>  0 0.66382257E+03</rscale>
<asrwt>0</asrwt>
<pdfrwt beam="1">  1        2 0.49223129E+00 0.76946907E+03</pdfrwt>
<pdfrwt beam="2">  1       -2 0.28846707E-01 0.76946907E+03</pdfrwt>
<totfact> 0.15218160E+01</totfact>
</mgrwt>
</event>
<event>
 4    1  0.7280516E-007  0.9282106E+03  0.7818608E-02  0.9482183E-01
         -2   -1    0    0    0  501 -0.00000000000E+00  0.00000000000E+00  0.21995139231E+04  0.21995139231E+04  0.25500000000E-02 0.  1.
          2   -1    0    0  501    0  0.00000000000E+00 -0.00000000000E+00 -0.29105275705E+03  0.29105275706E+03  0.25500000000E-02 0. -1.
    8880023    1    1    2    0    0  0.13820785024E+03  0.63926778392E+03  0.10823652842E+04  0.14258644831E+04  0.65864270000E+03 0. -1.
    8880022    1    1    2    0    0 -0.13820785024E+03 -0.63926778392E+03  0.82609588189E+03  0.10647021971E+04  0.15294330000E+03 0.  1.
<mgrwt>
<rscale>  0 0.85610253E+03</rscale>
<asrwt>0</asrwt>
<pdfrwt beam="1">  1        2 0.44777347E-01 0.92821060E+03</pdfrwt>
<pdfrwt beam="2">  1       -2 0.33838676E+00 0.92821060E+03</pdfrwt>
<totfact> 0.21404311E+00</totfact>
</mgrwt>
</event>
<event>
 4    1  0.7280516E-007  0.7995684E+03  0.7818608E-02  0.9711730E-01
         -2   -1    0    0    0  501 -0.00000000000E+00  0.00000000000E+00  0.23671685090E+03  0.23671685091E+03  0.25500000000E-02 0.  1.
          2   -1    0    0  501    0  0.00000000000E+00 -0.00000000000E+00 -0.29235803130E+04  0.29235803130E+04  0.25500000000E-02 0. -1.
    8880023    1    1    2    0    0  0.16067970874E+03 -0.42388853558E+03 -0.25353683860E+04  0.26584586735E+04  0.65864270000E+03 0. -1.
    8880022    1    1    2    0    0 -0.16067970874E+03  0.42388853558E+03 -0.15149507607E+03  0.50183849044E+03  0.15294330000E+03 0.  0.
<mgrwt>
<rscale>  0 0.70322669E+03</rscale>
<asrwt>0</asrwt>
<pdfrwt beam="1">  1        2 0.44978156E+00 0.79956842E+03</pdfrwt>
<pdfrwt beam="2">  1       -2 0.36417979E-01 0.79956842E+03</pdfrwt>
<totfact> 0.14482756E+01</totfact>
</mgrwt>
</event>
<event>
 4    1  0.7280516E-007  0.8646072E+03  0.7818608E-02  0.9585420E-01
         -2   -1    0    0    0  501 -0.00000000000E+00  0.00000000000E+00  0.88869359851E+03  0.88869359852E+03  0.25500000000E-02 0.  1.
          2   -1    0    0  501    0  0.00000000000E+00 -0.00000000000E+00 -0.14022012518E+04  0.14022012518E+04  0.25500000000E-02 0. -1.
    8880023    1    1    2    0    0  0.56010231728E+03  0.45527997114E+01 -0.11438727995E+04  0.14338725611E+04  0.65864270000E+03 0. -1.
    8880022    1    1    2    0    0 -0.56010231728E+03 -0.45527997114E+01  0.63036514615E+03  0.85702228927E+03  0.15294330000E+03 0.  0.
<mgrwt>
<rscale>  0 0.78268734E+03</rscale>
<asrwt>0</asrwt>
<pdfrwt beam="1">  1        2 0.21572327E+00 0.86460716E+03</pdfrwt>
<pdfrwt beam="2">  1       -2 0.13672209E+00 0.86460716E+03</pdfrwt>
<totfact> 0.55556326E+00</totfact>
</mgrwt>
</event>
<event>
 4    1  0.7280516E-007  0.7654267E+03  0.7818608E-02  0.9791256E-01
         -2   -1    0    0    0  501 -0.00000000000E+00  0.00000000000E+00  0.63352977330E+03  0.63352977331E+03  0.25500000000E-02 0.  1.
          2   -1    0    0  501    0  0.00000000000E+00 -0.00000000000E+00 -0.20547185638E+04  0.20547185638E+04  0.25500000000E-02 0. -1.
    8880023    1    1    2    0    0  0.10981188313E+03  0.37417791346E+03 -0.19021941145E+04  0.20504195707E+04  0.65864270000E+03 0. -1.
    8880022    1    1    2    0    0 -0.10981188313E+03 -0.37417791346E+03  0.48100532394E+03  0.63782876642E+03  0.15294330000E+03 0.  0.
<mgrwt>
<rscale>  0 0.65833928E+03</rscale>
<asrwt>0</asrwt>
<pdfrwt beam="1">  1        2 0.31611055E+00 0.76542666E+03</pdfrwt>
<pdfrwt beam="2">  1       -2 0.97466120E-01 0.76542666E+03</pdfrwt>
<totfact> 0.56558954E+00</totfact>
</mgrwt>
</event>
<event>
 4    1  0.7280516E-007  0.7539193E+03  0.7818608E-02  0.9821112E-01
         -2   -1    0    0    0  501 -0.00000000000E+00  0.00000000000E+00  0.20625697956E+03  0.20625697957E+03  0.25500000000E-02 0.  1.
          2   -1    0    0  501    0  0.00000000000E+00 -0.00000000000E+00 -0.19551717740E+04  0.19551717740E+04  0.25500000000E-02 0. -1.
    8880023    1    1    2    0    0  0.35424243103E+03 -0.95375012337E+02 -0.65911729662E+03  0.10014139553E+04  0.65864270000E+03 0.  1.
    8880022    1    1    2    0    0 -0.35424243103E+03  0.95375012337E+02 -0.10897974978E+04  0.11600147983E+04  0.15294330000E+03 0. -1.
<mgrwt>
<rscale>  0 0.64241762E+03</rscale>
<asrwt>0</asrwt>
<pdfrwt beam="1">  1        2 0.30079564E+00 0.75391929E+03</pdfrwt>
<pdfrwt beam="2">  1       -2 0.31731844E-01 0.75391929E+03</pdfrwt>
<totfact> 0.67057722E+01</totfact>
</mgrwt>
</event>
<event>
 4    1  0.7280516E-007  0.1113577E+04  0.7818608E-02  0.9246088E-01
          2   -1    0    0  501    0  0.00000000000E+00  0.00000000000E+00  0.41089867016E+04  0.41089867016E+04  0.25500000000E-02 0. -1.
         -2   -1    0    0    0  501 -0.00000000000E+00 -0.00000000000E+00 -0.65530712919E+03  0.65530712920E+03  0.25500000000E-02 0.  1.
    8880023    1    1    2    0    0  0.76565510667E+03  0.46905868303E+03  0.36639994274E+04  0.38294837512E+04  0.65864270000E+03 0.  0.
    8880022    1    1    2    0    0 -0.76565510667E+03 -0.46905868303E+03 -0.21031985498E+03  0.93481007960E+03  0.15294330000E+03 0.  0.
<mgrwt>
<rscale>  0 0.10590126E+04</rscale>
<asrwt>0</asrwt>
<pdfrwt beam="1">  1        2 0.63215178E+00 0.11135771E+04</pdfrwt>
<pdfrwt beam="2">  1       -2 0.10081648E+00 0.11135771E+04</pdfrwt>
<totfact> 0.23262536E-01</totfact>
</mgrwt>
</event>
<event>
 4    1  0.7280516E-007  0.7051927E+03  0.7818608E-02  0.9976305E-01
         -2   -1    0    0    0  501 -0.00000000000E+00  0.00000000000E+00  0.21273996795E+03  0.21273996796E+03  0.25500000000E-02 0.  1.
          2   -1    0    0  501    0  0.00000000000E+00 -0.00000000000E+00 -0.18654010390E+04  0.18654010390E+04  0.25500000000E-02 0. -1.
    8880023    1    1    2    0    0 -0.59087026944E+02  0.24493942393E+03 -0.16376249973E+04  0.17830065721E+04  0.65864270000E+03 0. -1.
    8880022    1    1    2    0    0  0.59087026944E+02 -0.24493942393E+03 -0.15036073821E+02  0.29513443492E+03  0.15294330000E+03 0.  0.
<mgrwt>
<rscale>  0 0.56701528E+03</rscale>
<asrwt>0</asrwt>
<pdfrwt beam="1">  1        2 0.28698476E+00 0.70519274E+03</pdfrwt>
<pdfrwt beam="2">  1       -2 0.32729227E-01 0.70519274E+03</pdfrwt>
<totfact> 0.71203034E+01</totfact>
</mgrwt>
</event>
<event>
 4    1  0.7280516E-007  0.7324909E+03  0.7818608E-02  0.9882386E-01
         -2   -1    0    0    0  501 -0.00000000000E+00  0.00000000000E+00  0.38258221653E+03  0.38258221654E+03  0.25500000000E-02 0.  1.
          2   -1    0    0  501    0  0.00000000000E+00 -0.00000000000E+00 -0.13941334903E+04  0.13941334903E+04  0.25500000000E-02 0. -1.
    8880023    1    1    2    0    0  0.29359115669E+03 -0.12859633552E+03 -0.11759070321E+04  0.13853881547E+04  0.65864270000E+03 0. -1.
    8880022    1    1    2    0    0 -0.29359115669E+03  0.12859633552E+03  0.16435575828E+03  0.39132755218E+03  0.15294330000E+03 0.  0.
<mgrwt>
<rscale>  0 0.61122569E+03</rscale>
<asrwt>0</asrwt>
<pdfrwt beam="1">  1        2 0.21448207E+00 0.73249095E+03</pdfrwt>
<pdfrwt beam="2">  1       -2 0.58858803E-01 0.73249095E+03</pdfrwt>
<totfact> 0.40229789E+01</totfact>
</mgrwt>
</event>
<event>
 4    1  0.7280516E-007  0.8910007E+03  0.7818608E-02  0.9540636E-01
          2   -1    0    0  501    0  0.00000000000E+00  0.00000000000E+00  0.13226814293E+04  0.13226814293E+04  0.25500000000E-02 0. -1.
         -2   -1    0    0    0  501 -0.00000000000E+00 -0.00000000000E+00 -0.50134511966E+03  0.50134511966E+03  0.25500000000E-02 0.  1.
    8880023    1    1    2    0    0 -0.56796790087E+03  0.19360909646E+03  0.81080323497E+03  0.12046925378E+04  0.65864270000E+03 0. -1.
    8880022    1    1    2    0    0  0.56796790087E+03 -0.19360909646E+03  0.10533074675E+02  0.61933401112E+03  0.15294330000E+03 0.  0.
<mgrwt>
<rscale>  0 0.81353091E+03</rscale>
<asrwt>0</asrwt>
<pdfrwt beam="1">  1        2 0.20348945E+00 0.89100069E+03</pdfrwt>
<pdfrwt beam="2">  1       -2 0.77130020E-01 0.89100069E+03</pdfrwt>
<totfact> 0.24204645E+01</totfact>
</mgrwt>
</event>
<event>
 4    1  0.7280516E-007  0.6699438E+03  0.7818608E-02  0.1015703E+00
          2   -1    0    0  501    0  0.00000000000E+00  0.00000000000E+00  0.32509515212E+04  0.32509515212E+04  0.25500000000E-02 0. -1.
         -2   -1    0    0    0  501 -0.00000000000E+00 -0.00000000000E+00 -0.10614573315E+03  0.10614573318E+03  0.25500000000E-02 0.  1.
    8880023    1    1    2    0    0 -0.11941292596E+03 -0.27478973181E+02  0.30779748945E+04  0.31500403487E+04  0.65864270000E+03 0. -1.
    8880022    1    1    2    0    0  0.11941292596E+03  0.27478973181E+02  0.66830893554E+02  0.20705690571E+03  0.15294330000E+03 0.  0.
<mgrwt>
<rscale>  0 0.49269591E+03</rscale>
<asrwt>0</asrwt>
<pdfrwt beam="1">  1        2 0.50014632E+00 0.66994384E+03</pdfrwt>
<pdfrwt beam="2">  1       -2 0.16330115E-01 0.66994384E+03</pdfrwt>
<totfact> 0.39294815E+01</totfact>
</mgrwt>
</event>
<event>
 4    1  0.7280516E-007  0.7523715E+03  0.7818608E-02  0.9825273E-01
         -2   -1    0    0    0  501 -0.00000000000E+00  0.00000000000E+00  0.57016811967E+03  0.57016811968E+03  0.25500000000E-02 0.  1.
          2   -1    0    0  501    0  0.00000000000E+00 -0.00000000000E+00 -0.16897847094E+04  0.16897847094E+04  0.25500000000E-02 0. -1.
    8880023    1    1    2    0    0 -0.13139142009E+02  0.36342813779E+03 -0.15211457835E+04  0.16970407624E+04  0.65864270000E+03 0. -1.
    8880022    1    1    2    0    0  0.13139142009E+02 -0.36342813779E+03  0.40152919374E+03  0.56291206669E+03  0.15294330000E+03 0.  0.
<mgrwt>
<rscale>  0 0.64023719E+03</rscale>
<asrwt>0</asrwt>
<pdfrwt beam="1">  1        2 0.25996688E+00 0.75237149E+03</pdfrwt>
<pdfrwt beam="2">  1       -2 0.87718173E-01 0.75237149E+03</pdfrwt>
<totfact> 0.11451534E+01</totfact>
</mgrwt>
</event>
<event>
 4    1  0.7280516E-007  0.8686105E+03  0.7818608E-02  0.9578427E-01
          2   -1    0    0  501    0  0.00000000000E+00  0.00000000000E+00  0.28977761292E+04  0.28977761292E+04  0.25500000000E-02 0. -1.
         -2   -1    0    0    0  501 -0.00000000000E+00 -0.00000000000E+00 -0.48805949147E+03  0.48805949148E+03  0.25500000000E-02 0.  1.
    8880023    1    1    2    0    0 -0.41741923798E+03 -0.38266850954E+03  0.26219238144E+04  0.27620587798E+04  0.65864270000E+03 0. -1.
    8880022    1    1    2    0    0  0.41741923798E+03  0.38266850954E+03 -0.21220717662E+03  0.62377684091E+03  0.15294330000E+03 0.  0.
<mgrwt>
<rscale>  0 0.78740646E+03</rscale>
<asrwt>0</asrwt>
<pdfrwt beam="1">  1        2 0.44581171E+00 0.86861051E+03</pdfrwt>
<pdfrwt beam="2">  1       -2 0.75086076E-01 0.86861051E+03</pdfrwt>
<totfact> 0.33395465E+00</totfact>
</mgrwt>
</event>
<event>
 4    1  0.7280516E-007  0.8806566E+03  0.7818608E-02  0.9557826E-01
          2   -1    0    0  501    0  0.00000000000E+00  0.00000000000E+00  0.19293371589E+04  0.19293371589E+04  0.25500000000E-02 0. -1.
         -2   -1    0    0    0  501 -0.00000000000E+00 -0.00000000000E+00 -0.32442373814E+03  0.32442373815E+03  0.25500000000E-02 0.  1.
    8880023    1    1    2    0    0  0.28896681047E+03 -0.50817714366E+03  0.13172419414E+04  0.15845132897E+04  0.65864270000E+03 0.  0.
    8880022    1    1    2    0    0 -0.28896681047E+03  0.50817714366E+03  0.28767147942E+03  0.66924760738E+03  0.15294330000E+03 0.  0.
<mgrwt>
<rscale>  0 0.80151563E+03</rscale>
<asrwt>0</asrwt>
<pdfrwt beam="1">  1        2 0.29682109E+00 0.88065659E+03</pdfrwt>
<pdfrwt beam="2">  1       -2 0.49911346E-01 0.88065659E+03</pdfrwt>
<totfact> 0.28206300E+01</totfact>
</mgrwt>
</event>
<event>
 4    1  0.7280516E-007  0.7483269E+03  0.7818608E-02  0.9836323E-01
         -2   -1    0    0    0  501 -0.00000000000E+00  0.00000000000E+00  0.31654497727E+03  0.31654497728E+03  0.25500000000E-02 0.  1.
          2   -1    0    0  501    0  0.00000000000E+00 -0.00000000000E+00 -0.17122917363E+04  0.17122917363E+04  0.25500000000E-02 0. -1.
    8880023    1    1    2    0    0 -0.64878935571E+01 -0.35516319285E+03 -0.14563578851E+04  0.16373672411E+04  0.65864270000E+03 0.  0.
    8880022    1    1    2    0    0  0.64878935571E+01  0.35516319285E+03  0.60611126060E+02  0.39146947255E+03  0.15294330000E+03 0.  0.
<mgrwt>
<rscale>  0 0.63449145E+03</rscale>
<asrwt>0</asrwt>
<pdfrwt beam="1">  1        2 0.26342949E+00 0.74832693E+03</pdfrwt>
<pdfrwt beam="2">  1       -2 0.48699228E-01 0.74832693E+03</pdfrwt>
<totfact> 0.39558120E+01</totfact>
</mgrwt>
</event>
<event>
 4    1  0.7280516E-007  0.8666856E+03  0.7818608E-02  0.9581780E-01
         -2   -1    0    0    0  501 -0.00000000000E+00  0.00000000000E+00  0.11369072497E+04  0.11369072497E+04  0.25500000000E-02 0.  1.
          2   -1    0    0  501    0  0.00000000000E+00 -0.00000000000E+00 -0.68366474465E+03  0.68366474466E+03  0.25500000000E-02 0. -1.
    8880023    1    1    2    0    0  0.38661429796E+02 -0.56199561280E+03  0.76747056148E+03  0.11576506571E+04  0.65864270000E+03 0.  0.
    8880022    1    1    2    0    0 -0.38661429796E+02  0.56199561280E+03 -0.31422805640E+03  0.66292133726E+03  0.15294330000E+03 0.  0.
<mgrwt>
<rscale>  0 0.78513939E+03</rscale>
<asrwt>0</asrwt>
<pdfrwt beam="1">  1        2 0.10517919E+00 0.86668563E+03</pdfrwt>
<pdfrwt beam="2">  1       -2 0.17490881E+00 0.86668563E+03</pdfrwt>
<totfact> 0.83468707E+00</totfact>
</mgrwt>
</event>
<event>
 4    1  0.7280516E-007  0.7762975E+03  0.7818608E-02  0.9764607E-01
         -2   -1    0    0    0  501 -0.00000000000E+00  0.00000000000E+00  0.89550456014E+03  0.89550456014E+03  0.25500000000E-02 0.  1.
          2   -1    0    0  501    0  0.00000000000E+00 -0.00000000000E+00 -0.52424764947E+03  0.52424764947E+03  0.25500000000E-02 0. -1.
    8880023    1    1    2    0    0 -0.13198425902E+03  0.38911144310E+03 -0.92228562137E+02  0.78175691472E+03  0.65864270000E+03 0. -1.
    8880022    1    1    2    0    0  0.13198425902E+03 -0.38911144310E+03  0.46348547281E+03  0.63799529489E+03  0.15294330000E+03 0.  1.
<mgrwt>
<rscale>  0 0.67297004E+03</rscale>
<asrwt>0</asrwt>
<pdfrwt beam="1">  1        2 0.80653485E-01 0.77629747E+03</pdfrwt>
<pdfrwt beam="2">  1       -2 0.13776993E+00 0.77629747E+03</pdfrwt>
<totfact> 0.22051678E+01</totfact>
</mgrwt>
</event>
<event>
 4    1  0.7280516E-007  0.7143248E+03  0.7818608E-02  0.9942279E-01
          2   -1    0    0  501    0  0.00000000000E+00  0.00000000000E+00  0.14482589484E+04  0.14482589484E+04  0.25500000000E-02 0. -1.
         -2   -1    0    0    0  501 -0.00000000000E+00 -0.00000000000E+00 -0.34052046442E+03  0.34052046443E+03  0.25500000000E-02 0.  1.
    8880023    1    1    2    0    0 -0.90320750890E+02  0.26132703392E+03  0.12519870583E+04  0.14414338199E+04  0.65864270000E+03 0.  0.
    8880022    1    1    2    0    0  0.90320750890E+02 -0.26132703392E+03 -0.14424857436E+03  0.34734559291E+03  0.15294330000E+03 0.  0.
<mgrwt>
<rscale>  0 0.58255316E+03</rscale>
<asrwt>0</asrwt>
<pdfrwt beam="1">  1        2 0.22280907E+00 0.71432476E+03</pdfrwt>
<pdfrwt beam="2">  1       -2 0.52387763E-01 0.71432476E+03</pdfrwt>
<totfact> 0.47869391E+01</totfact>
</mgrwt>
</event>
<event>
 4    1  0.7280516E-007  0.7598913E+03  0.7818608E-02  0.9805389E-01
          2   -1    0    0  501    0  0.00000000000E+00  0.00000000000E+00  0.15982555825E+04  0.15982555825E+04  0.25500000000E-02 0. -1.
         -2   -1    0    0    0  501 -0.00000000000E+00 -0.00000000000E+00 -0.71640508296E+03  0.71640508297E+03  0.25500000000E-02 0.  1.
    8880023    1    1    2    0    0 -0.23730049033E+03  0.29548772202E+03  0.14368583802E+04  0.16254220152E+04  0.65864270000E+03 0. -1.
    8880022    1    1    2    0    0  0.23730049033E+03 -0.29548772202E+03 -0.55500788058E+03  0.68923865032E+03  0.15294330000E+03 0.  0.
<mgrwt>
<rscale>  0 0.65074135E+03</rscale>
<asrwt>0</asrwt>
<pdfrwt beam="1">  1        2 0.24588547E+00 0.75989126E+03</pdfrwt>
<pdfrwt beam="2">  1       -2 0.11021617E+00 0.75989126E+03</pdfrwt>
<totfact> 0.74941764E+00</totfact>
</mgrwt>
</event>
<event>
 4    1  0.7280516E-007  0.6907317E+03  0.7818608E-02  0.1003807E+00
          2   -1    0    0  501    0  0.00000000000E+00  0.00000000000E+00  0.18929019154E+04  0.18929019154E+04  0.25500000000E-02 0. -1.
         -2   -1    0    0    0  501 -0.00000000000E+00 -0.00000000000E+00 -0.16339015398E+03  0.16339015400E+03  0.25500000000E-02 0.  1.
    8880023    1    1    2    0    0 -0.13737213115E+03 -0.15629762239E+03  0.16457084892E+04  0.17847875747E+04  0.65864270000E+03 0. -1.
    8880022    1    1    2    0    0  0.13737213115E+03  0.15629762239E+03  0.83803272215E+02  0.27150449468E+03  0.15294330000E+03 0.  0.
<mgrwt>
<rscale>  0 0.54012093E+03</rscale>
<asrwt>0</asrwt>
<pdfrwt beam="1">  1        2 0.29121571E+00 0.69073168E+03</pdfrwt>
<pdfrwt beam="2">  1       -2 0.25136944E-01 0.69073168E+03</pdfrwt>
<totfact> 0.11202049E+02</totfact>
</mgrwt>
</event>
<event>
 4    1  0.7280516E-007  0.6829535E+03  0.7818608E-02  0.1007700E+00
         -2   -1    0    0    0  501 -0.00000000000E+00  0.00000000000E+00  0.86600442095E+03  0.86600442095E+03  0.25500000000E-02 0.  1.
          2   -1    0    0  501    0  0.00000000000E+00 -0.00000000000E+00 -0.67191056770E+03  0.67191056770E+03  0.25500000000E-02 0. -1.
    8880023    1    1    2    0    0  0.97861797472E+02 -0.15178384750E+03 -0.47255753067E+03  0.83050351825E+03  0.65864270000E+03 0. -1.
    8880022    1    1    2    0    0 -0.97861797472E+02  0.15178384750E+03  0.66665138392E+03  0.70741147041E+03  0.15294330000E+03 0.  0.
<mgrwt>
<rscale>  0 0.52399068E+03</rscale>
<asrwt>0</asrwt>
<pdfrwt beam="1">  1        2 0.10337086E+00 0.68295349E+03</pdfrwt>
<pdfrwt beam="2">  1       -2 0.13323145E+00 0.68295349E+03</pdfrwt>
<totfact> 0.17970311E+01</totfact>
</mgrwt>
</event>
<event>
 4    1  0.7280516E-007  0.8054644E+03  0.7818608E-02  0.9699103E-01
          2   -1    0    0  501    0  0.00000000000E+00  0.00000000000E+00  0.44041499592E+03  0.44041499593E+03  0.25500000000E-02 0. -1.
         -2   -1    0    0    0  501 -0.00000000000E+00 -0.00000000000E+00 -0.16705811425E+04  0.16705811425E+04  0.25500000000E-02 0.  1.
    8880023    1    1    2    0    0  0.36365319874E+03  0.28760918660E+03 -0.19614478884E+02  0.80570318804E+03  0.65864270000E+03 0. -1.
    8880022    1    1    2    0    0 -0.36365319874E+03 -0.28760918660E+03 -0.12105516677E+04  0.13052929504E+04  0.15294330000E+03 0.  0.
<mgrwt>
<rscale>  0 0.71070218E+03</rscale>
<asrwt>0</asrwt>
<pdfrwt beam="1">  1        2 0.67756154E-01 0.80546440E+03</pdfrwt>
<pdfrwt beam="2">  1       -2 0.25701248E+00 0.80546440E+03</pdfrwt>
<totfact> 0.42441689E+00</totfact>
</mgrwt>
</event>
<event>
 4    1  0.7280516E-007  0.1844775E+04  0.7818608E-02  0.8698165E-01
          2   -1    0    0  501    0  0.00000000000E+00  0.00000000000E+00  0.17980398820E+04  0.17980398820E+04  0.25500000000E-02 0. -1.
         -2   -1    0    0    0  501 -0.00000000000E+00 -0.00000000000E+00 -0.19118340668E+04  0.19118340668E+04  0.25500000000E-02 0.  1.
    8880023    1    1    2    0    0 -0.16860999048E+04  0.35559972559E+03  0.43421288445E+03  0.18951873493E+04  0.65864270000E+03 0.  0.
    8880022    1    1    2    0    0  0.16860999048E+04 -0.35559972559E+03 -0.54800706925E+03  0.18146865996E+04  0.15294330000E+03 0.  0.
<mgrwt>
<rscale>  0 0.18153769E+04</rscale>
<asrwt>0</asrwt>
<pdfrwt beam="1">  1        2 0.27662152E+00 0.18447749E+04</pdfrwt>
<pdfrwt beam="2">  1       -2 0.29412832E+00 0.18447749E+04</pdfrwt>
<totfact> 0.27063660E-01</totfact>
</mgrwt>
</event>
<event>
 4    1  0.7280516E-007  0.8034853E+03  0.7818608E-02  0.9703310E-01
         -2   -1    0    0    0  501 -0.00000000000E+00  0.00000000000E+00  0.15824229436E+04  0.15824229436E+04  0.25500000000E-02 0.  1.
          2   -1    0    0  501    0  0.00000000000E+00 -0.00000000000E+00 -0.31410802011E+03  0.31410802012E+03  0.25500000000E-02 0. -1.
    8880023    1    1    2    0    0  0.32307975279E+03  0.32771615378E+03  0.38977518035E+03  0.89303600240E+03  0.65864270000E+03 0. -1.
    8880022    1    1    2    0    0 -0.32307975279E+03 -0.32771615378E+03  0.87853974314E+03  0.10034949613E+04  0.15294330000E+03 0.  0.
<mgrwt>
<rscale>  0 0.70820045E+03</rscale>
<asrwt>0</asrwt>
<pdfrwt beam="1">  1        2 0.48324311E-01 0.80348529E+03</pdfrwt>
<pdfrwt beam="2">  1       -2 0.24344968E+00 0.80348529E+03</pdfrwt>
<totfact> 0.75032020E+00</totfact>
</mgrwt>
</event>
<event>
 4    1  0.7280516E-007  0.7587193E+03  0.7818608E-02  0.9808434E-01
         -2   -1    0    0    0  501 -0.00000000000E+00  0.00000000000E+00  0.33683444970E+03  0.33683444971E+03  0.25500000000E-02 0.  1.
          2   -1    0    0  501    0  0.00000000000E+00 -0.00000000000E+00 -0.24677475828E+04  0.24677475828E+04  0.25500000000E-02 0. -1.
    8880023    1    1    2    0    0 -0.32080174569E+03 -0.19730951742E+03 -0.22552847207E+04  0.23794882188E+04  0.65864270000E+03 0.  0.
    8880022    1    1    2    0    0  0.32080174569E+03  0.19730951742E+03  0.12437158754E+03  0.42509381377E+03  0.15294330000E+03 0.  0.
<mgrwt>
<rscale>  0 0.64911866E+03</rscale>
<asrwt>0</asrwt>
<pdfrwt beam="1">  1        2 0.37965346E+00 0.75871932E+03</pdfrwt>
<pdfrwt beam="2">  1       -2 0.51820686E-01 0.75871932E+03</pdfrwt>
<totfact> 0.13358503E+01</totfact>
</mgrwt>
</event>
<event>
 4    1  0.7280516E-007  0.7793486E+03  0.7818608E-02  0.9757369E-01
         -2   -1    0    0    0  501 -0.00000000000E+00  0.00000000000E+00  0.46721992006E+03  0.46721992007E+03  0.25500000000E-02 0.  1.
          2   -1    0    0  501    0  0.00000000000E+00 -0.00000000000E+00 -0.34561233647E+04  0.34561233647E+04  0.25500000000E-02 0. -1.
    8880023    1    1    2    0    0  0.12357912817E+03 -0.39787212638E+03 -0.32938964323E+04  0.33848394264E+04  0.65864270000E+03 0.  0.
    8880022    1    1    2    0    0 -0.12357912817E+03  0.39787212638E+03  0.30499298767E+03  0.53850385831E+03  0.15294330000E+03 0.  0.
<mgrwt>
<rscale>  0 0.67701398E+03</rscale>
<asrwt>0</asrwt>
<pdfrwt beam="1">  1        2 0.53171127E+00 0.77934860E+03</pdfrwt>
<pdfrwt beam="2">  1       -2 0.71879990E-01 0.77934860E+03</pdfrwt>
<totfact> 0.16506318E+00</totfact>
</mgrwt>
</event>
<event>
 4    1  0.7280516E-007  0.1429469E+04  0.7818608E-02  0.8961117E-01
         -2   -1    0    0    0  501 -0.00000000000E+00  0.00000000000E+00  0.12526248856E+04  0.12526248856E+04  0.25500000000E-02 0.  1.
          2   -1    0    0  501    0  0.00000000000E+00 -0.00000000000E+00 -0.18568751936E+04  0.18568751936E+04  0.25500000000E-02 0. -1.
    8880023    1    1    2    0    0 -0.11155508640E+04  0.60424905979E+03 -0.10307450999E+04  0.17623326371E+04  0.65864270000E+03 0. -1.
    8880022    1    1    2    0    0  0.11155508640E+04 -0.60424905979E+03  0.42649479190E+03  0.13471674421E+04  0.15294330000E+03 0.  0.
<mgrwt>
<rscale>  0 0.13899623E+04</rscale>
<asrwt>0</asrwt>
<pdfrwt beam="1">  1        2 0.28567310E+00 0.14294687E+04</pdfrwt>
<pdfrwt beam="2">  1       -2 0.19271152E+00 0.14294687E+04</pdfrwt>
<totfact> 0.11293861E+00</totfact>
</mgrwt>
</event>
<event>
 4    1  0.7280516E-007  0.7114789E+03  0.7818608E-02  0.9952550E-01
         -2   -1    0    0    0  501 -0.00000000000E+00  0.00000000000E+00  0.44811146024E+03  0.44811146025E+03  0.25500000000E-02 0.  1.
          2   -1    0    0  501    0  0.00000000000E+00 -0.00000000000E+00 -0.83292984401E+03  0.83292984401E+03  0.25500000000E-02 0. -1.
    8880023    1    1    2    0    0  0.17144171263E+03  0.20736375297E+03 -0.57760114276E+03  0.91641981278E+03  0.65864270000E+03 0. -1.
    8880022    1    1    2    0    0 -0.17144171263E+03 -0.20736375297E+03  0.19278275899E+03  0.36462149148E+03  0.15294330000E+03 0.  0.
<mgrwt>
<rscale>  0 0.57780717E+03</rscale>
<asrwt>0</asrwt>
<pdfrwt beam="1">  1        2 0.12814305E+00 0.71147888E+03</pdfrwt>
<pdfrwt beam="2">  1       -2 0.68940225E-01 0.71147888E+03</pdfrwt>
<totfact> 0.63748216E+01</totfact>
</mgrwt>
</event>
<event>
 4    1  0.7280516E-007  0.9637231E+03  0.7818608E-02  0.9430639E-01
         -2   -1    0    0    0  501 -0.00000000000E+00  0.00000000000E+00  0.31536016147E+03  0.31536016148E+03  0.25500000000E-02 0.  1.
          2   -1    0    0  501    0  0.00000000000E+00 -0.00000000000E+00 -0.35383597460E+04  0.35383597460E+04  0.25500000000E-02 0. -1.
    8880023    1    1    2    0    0  0.70352627643E+03  0.16574951169E+01 -0.29158394976E+04  0.30709741372E+04  0.65864270000E+03 0.  0.
    8880022    1    1    2    0    0 -0.70352627643E+03 -0.16574951169E+01 -0.30716008687E+03  0.78274577028E+03  0.15294330000E+03 0.  1.
<mgrwt>
<rscale>  0 0.89596576E+03</rscale>
<asrwt>0</asrwt>
<pdfrwt beam="1">  1        2 0.54436301E+00 0.96372308E+03</pdfrwt>
<pdfrwt beam="2">  1       -2 0.48516950E-01 0.96372308E+03</pdfrwt>
<totfact> 0.32107943E+00</totfact>
</mgrwt>
</event>
<event>
 4    1  0.7280516E-007  0.9443594E+03  0.7818608E-02  0.9458276E-01
         -2   -1    0    0    0  501 -0.00000000000E+00  0.00000000000E+00  0.39623368028E+03  0.39623368029E+03  0.25500000000E-02 0.  1.
          2   -1    0    0  501    0  0.00000000000E+00 -0.00000000000E+00 -0.25187137366E+04  0.25187137366E+04  0.25500000000E-02 0. -1.
    8880023    1    1    2    0    0  0.38854356333E+03 -0.55411048106E+03 -0.19981453606E+04  0.22100677850E+04  0.65864270000E+03 0.  0.
    8880022    1    1    2    0    0 -0.38854356333E+03  0.55411048106E+03 -0.12433469564E+03  0.70487963184E+03  0.15294330000E+03 0.  0.
<mgrwt>
<rscale>  0 0.87431075E+03</rscale>
<asrwt>0</asrwt>
<pdfrwt beam="1">  1        2 0.38749441E+00 0.94435943E+03</pdfrwt>
<pdfrwt beam="2">  1       -2 0.60959029E-01 0.94435943E+03</pdfrwt>
<totfact> 0.86668968E+00</totfact>
</mgrwt>
</event>
<event>
 4    1  0.7280516E-007  0.7219496E+03  0.7818608E-02  0.9916044E-01
         -2   -1    0    0    0  501 -0.00000000000E+00  0.00000000000E+00  0.45103700955E+03  0.45103700956E+03  0.25500000000E-02 0.  1.
          2   -1    0    0  501    0  0.00000000000E+00 -0.00000000000E+00 -0.91532057500E+03  0.91532057501E+03  0.25500000000E-02 0. -1.
    8880023    1    1    2    0    0 -0.23793837631E+03  0.17546019872E+03 -0.66173926110E+03  0.97934161976E+03  0.65864270000E+03 0. -1.
    8880022    1    1    2    0    0  0.23793837631E+03 -0.17546019872E+03  0.19745569565E+03  0.38701596481E+03  0.15294330000E+03 0.  0.
<mgrwt>
<rscale>  0 0.59490002E+03</rscale>
<asrwt>0</asrwt>
<pdfrwt beam="1">  1        2 0.14081855E+00 0.72194955E+03</pdfrwt>
<pdfrwt beam="2">  1       -2 0.69390309E-01 0.72194955E+03</pdfrwt>
<totfact> 0.55166247E+01</totfact>
</mgrwt>
</event>
<event>
 4    1  0.7280516E-007  0.6655726E+03  0.7818608E-02  0.1019058E+00
         -2   -1    0    0    0  501 -0.00000000000E+00  0.00000000000E+00  0.56168456721E+03  0.56168456722E+03  0.25500000000E-02 0.  1.
          2   -1    0    0  501    0  0.00000000000E+00 -0.00000000000E+00 -0.31878984794E+03  0.31878984795E+03  0.25500000000E-02 0. -1.
    8880023    1    1    2    0    0 -0.84794292242E+02 -0.44571788564E+02  0.18195546327E+03  0.68999616898E+03  0.65864270000E+03 0. -1.
    8880022    1    1    2    0    0  0.84794292242E+02  0.44571788564E+02  0.60939256003E+02  0.19047824619E+03  0.15294330000E+03 0.  1.
<mgrwt>
<rscale>  0 0.48028176E+03</rscale>
<asrwt>0</asrwt>
<pdfrwt beam="1">  1        2 0.49044592E-01 0.66557263E+03</pdfrwt>
<pdfrwt beam="2">  1       -2 0.86413010E-01 0.66557263E+03</pdfrwt>
<totfact> 0.12064591E+02</totfact>
</mgrwt>
</event>
<event>
 4    1  0.7280516E-007  0.6852152E+03  0.7818608E-02  0.1006515E+00
          2   -1    0    0  501    0  0.00000000000E+00  0.00000000000E+00  0.46909707777E+03  0.46909707778E+03  0.25500000000E-02 0. -1.
         -2   -1    0    0    0  501 -0.00000000000E+00 -0.00000000000E+00 -0.79260377444E+03  0.79260377444E+03  0.25500000000E-02 0.  1.
    8880023    1    1    2    0    0 -0.16427015943E+03 -0.93407660488E+02  0.17488256541E+03  0.70718017101E+03  0.65864270000E+03 0. -1.
    8880022    1    1    2    0    0  0.16427015943E+03  0.93407660488E+02 -0.49838926208E+03  0.55452068121E+03  0.15294330000E+03 0. -1.
<mgrwt>
<rscale>  0 0.52883465E+03</rscale>
<asrwt>0</asrwt>
<pdfrwt beam="1">  1        2 0.72168781E-01 0.68521521E+03</pdfrwt>
<pdfrwt beam="2">  1       -2 0.12193904E+00 0.68521521E+03</pdfrwt>
<totfact> 0.34405121E+01</totfact>
</mgrwt>
</event>
<event>
 4    1  0.7280516E-007  0.9116960E+03  0.7818608E-02  0.9507511E-01
         -2   -1    0    0    0  501 -0.00000000000E+00  0.00000000000E+00  0.51096614122E+03  0.51096614123E+03  0.25500000000E-02 0.  1.
          2   -1    0    0  501    0  0.00000000000E+00 -0.00000000000E+00 -0.18571453769E+04  0.18571453769E+04  0.25500000000E-02 0. -1.
    8880023    1    1    2    0    0 -0.58925567566E+03 -0.22395769229E+03 -0.14483907136E+04  0.17114395008E+04  0.65864270000E+03 0.  0.
    8880022    1    1    2    0    0  0.58925567566E+03  0.22395769229E+03  0.10221147788E+03  0.65667201742E+03  0.15294330000E+03 0.  0.
<mgrwt>
<rscale>  0 0.83732342E+03</rscale>
<asrwt>0</asrwt>
<pdfrwt beam="1">  1        2 0.28571467E+00 0.91169595E+03</pdfrwt>
<pdfrwt beam="2">  1       -2 0.78610177E-01 0.91169595E+03</pdfrwt>
<totfact> 0.11652991E+01</totfact>
</mgrwt>
</event>
<event>
 4    1  0.7280516E-007  0.7220435E+03  0.7818608E-02  0.9915731E-01
         -2   -1    0    0    0  501 -0.00000000000E+00  0.00000000000E+00  0.50574608358E+03  0.50574608358E+03  0.25500000000E-02 0.  1.
          2   -1    0    0  501    0  0.00000000000E+00 -0.00000000000E+00 -0.62507053653E+03  0.62507053653E+03  0.25500000000E-02 0. -1.
    8880023    1    1    2    0    0 -0.16892811253E+03  0.24289909938E+03 -0.26251069725E+03  0.76828298960E+03  0.65864270000E+03 0. -1.
    8880022    1    1    2    0    0  0.16892811253E+03 -0.24289909938E+03  0.14318624430E+03  0.36253363051E+03  0.15294330000E+03 0.  1.
<mgrwt>
<rscale>  0 0.59504917E+03</rscale>
<asrwt>0</asrwt>
<pdfrwt beam="1">  1        2 0.96164698E-01 0.72204355E+03</pdfrwt>
<pdfrwt beam="2">  1       -2 0.77807090E-01 0.72204355E+03</pdfrwt>
<totfact> 0.70387988E+01</totfact>
</mgrwt>
</event>
<event>
 4    1  0.7280516E-007  0.7315948E+03  0.7818608E-02  0.9885144E-01
         -2   -1    0    0    0  501 -0.00000000000E+00  0.00000000000E+00  0.98077568453E+03  0.98077568453E+03  0.25500000000E-02 0.  1.
          2   -1    0    0  501    0  0.00000000000E+00 -0.00000000000E+00 -0.11889252995E+04  0.11889252995E+04  0.25500000000E-02 0. -1.
    8880023    1    1    2    0    0 -0.29511944458E+03  0.11968803057E+03 -0.10367722791E+04  0.12689080645E+04  0.65864270000E+03 0. -1.
    8880022    1    1    2    0    0  0.29511944458E+03 -0.11968803057E+03  0.82862266416E+03  0.90079291949E+03  0.15294330000E+03 0.  0.
<mgrwt>
<rscale>  0 0.60986702E+03</rscale>
<asrwt>0</asrwt>
<pdfrwt beam="1">  1        2 0.18291158E+00 0.73159478E+03</pdfrwt>
<pdfrwt beam="2">  1       -2 0.15088857E+00 0.73159478E+03</pdfrwt>
<totfact> 0.58078638E+00</totfact>
</mgrwt>
</event>
<event>
 4    1  0.7280516E-007  0.7107770E+03  0.7818608E-02  0.9955127E-01
          2   -1    0    0  501    0  0.00000000000E+00  0.00000000000E+00  0.98330753308E+03  0.98330753309E+03  0.25500000000E-02 0. -1.
         -2   -1    0    0    0  501 -0.00000000000E+00 -0.00000000000E+00 -0.44837167021E+03  0.44837167022E+03  0.25500000000E-02 0.  1.
    8880023    1    1    2    0    0 -0.16217494003E+03 -0.21235126583E+03  0.76732904915E+03  0.10459435201E+04  0.65864270000E+03 0. -1.
    8880022    1    1    2    0    0  0.16217494003E+03  0.21235126583E+03 -0.23239318628E+03  0.38573568323E+03  0.15294330000E+03 0. -1.
<mgrwt>
<rscale>  0 0.57662402E+03</rscale>
<asrwt>0</asrwt>
<pdfrwt beam="1">  1        2 0.15127808E+00 0.71077702E+03</pdfrwt>
<pdfrwt beam="2">  1       -2 0.68980258E-01 0.71077702E+03</pdfrwt>
<totfact> 0.50496049E+01</totfact>
</mgrwt>
</event>
<event>
 4    1  0.7280516E-007  0.6885069E+03  0.7818608E-02  0.1004870E+00
          2   -1    0    0  501    0  0.00000000000E+00  0.00000000000E+00  0.85189951526E+03  0.85189951527E+03  0.25500000000E-02 0. -1.
         -2   -1    0    0    0  501 -0.00000000000E+00 -0.00000000000E+00 -0.44323943380E+03  0.44323943380E+03  0.25500000000E-02 0.  1.
    8880023    1    1    2    0    0  0.10522273533E+03 -0.17076205144E+03  0.64940745674E+03  0.94645219286E+03  0.65864270000E+03 0. -1.
    8880022    1    1    2    0    0 -0.10522273533E+03  0.17076205144E+03 -0.24074737527E+03  0.34868675621E+03  0.15294330000E+03 0.  0.
<mgrwt>
<rscale>  0 0.53565247E+03</rscale>
<asrwt>0</asrwt>
<pdfrwt beam="1">  1        2 0.13106146E+00 0.68850687E+03</pdfrwt>
<pdfrwt beam="2">  1       -2 0.68190682E-01 0.68850687E+03</pdfrwt>
<totfact> 0.63442391E+01</totfact>
</mgrwt>
</event>
<event>
 4    1  0.7280516E-007  0.7027283E+03  0.7818608E-02  0.9986066E-01
         -2   -1    0    0    0  501 -0.00000000000E+00  0.00000000000E+00  0.77630313168E+03  0.77630313168E+03  0.25500000000E-02 0.  1.
          2   -1    0    0  501    0  0.00000000000E+00 -0.00000000000E+00 -0.97576343088E+03  0.97576343089E+03  0.25500000000E-02 0. -1.
    8880023    1    1    2    0    0  0.20324076229E+03  0.13678449781E+03 -0.81260124846E+03  0.10743127113E+04  0.65864270000E+03 0. -1.
    8880022    1    1    2    0    0 -0.20324076229E+03 -0.13678449781E+03  0.61314094926E+03  0.67775385131E+03  0.15294330000E+03 0.  0.
<mgrwt>
<rscale>  0 0.56265454E+03</rscale>
<asrwt>0</asrwt>
<pdfrwt beam="1">  1        2 0.15011745E+00 0.70272826E+03</pdfrwt>
<pdfrwt beam="2">  1       -2 0.11943125E+00 0.70272826E+03</pdfrwt>
<totfact> 0.14342310E+01</totfact>
</mgrwt>
</event>
<event>
 4    1  0.8369661E-007  0.1036063E+04  0.7818608E-02  0.9335826E-01
         -2   -1    0    0    0  501 -0.00000000000E+00  0.00000000000E+00  0.13573733470E+04  0.13573733470E+04  0.25500000000E-02 0.  1.
          2   -1    0    0  501    0  0.00000000000E+00 -0.00000000000E+00 -0.16678022054E+04  0.16678022054E+04  0.25500000000E-02 0. -1.
    8880023    1    1    2    0    0  0.94803684873E+02  0.79412119795E+03 -0.13518563710E+04  0.17032152154E+04  0.65864270000E+03 0.  0.
    8880022    1    1    2    0    0 -0.94803684873E+02 -0.79412119795E+03  0.10414275126E+04  0.13219603370E+04  0.15294330000E+03 0.  0.
<mgrwt>
<rscale>  0 0.97550487E+03</rscale>
<asrwt>0</asrwt>
<pdfrwt beam="1">  1        2 0.25658495E+00 0.10360629E+04</pdfrwt>
<pdfrwt beam="2">  1       -2 0.20882667E+00 0.10360629E+04</pdfrwt>
<totfact> 0.11795293E+00</totfact>
</mgrwt>
</event>
<event>
 4    1  0.7280516E-007  0.7023671E+03  0.7818608E-02  0.9987520E-01
          2   -1    0    0  501    0  0.00000000000E+00  0.00000000000E+00  0.54844126568E+03  0.54844126568E+03  0.25500000000E-02 0. -1.
         -2   -1    0    0    0  501 -0.00000000000E+00 -0.00000000000E+00 -0.11555060560E+04  0.11555060560E+04  0.25500000000E-02 0.  1.
    8880023    1    1    2    0    0  0.23777263390E+03 -0.54529451388E+02 -0.99679635242E+03  0.12193943009E+04  0.65864270000E+03 0.  1.
    8880022    1    1    2    0    0 -0.23777263390E+03  0.54529451388E+02  0.38973156209E+03  0.48455302084E+03  0.15294330000E+03 0.  0.
<mgrwt>
<rscale>  0 0.56200870E+03</rscale>
<asrwt>0</asrwt>
<pdfrwt beam="1">  1        2 0.84375580E-01 0.70236706E+03</pdfrwt>
<pdfrwt beam="2">  1       -2 0.17777016E+00 0.70236706E+03</pdfrwt>
<totfact> 0.10606943E+01</totfact>
</mgrwt>
</event>
<event>
 4    1  0.7280516E-007  0.7282352E+03  0.7818608E-02  0.9895646E-01
          2   -1    0    0  501    0  0.00000000000E+00  0.00000000000E+00  0.14939382962E+04  0.14939382962E+04  0.25500000000E-02 0. -1.
         -2   -1    0    0    0  501 -0.00000000000E+00 -0.00000000000E+00 -0.72874589771E+03  0.72874589771E+03  0.25500000000E-02 0.  1.
    8880023    1    1    2    0    0  0.23029136504E+03  0.20852369342E+03  0.13552547564E+04  0.15385193871E+04  0.65864270000E+03 0. -1.
    8880022    1    1    2    0    0 -0.23029136504E+03 -0.20852369342E+03 -0.59006235795E+03  0.68416480676E+03  0.15294330000E+03 0.  0.
<mgrwt>
<rscale>  0 0.60472748E+03</rscale>
<asrwt>0</asrwt>
<pdfrwt beam="1">  1        2 0.22983666E+00 0.72823516E+03</pdfrwt>
<pdfrwt beam="2">  1       -2 0.11211475E+00 0.72823516E+03</pdfrwt>
<totfact> 0.82504394E+00</totfact>
</mgrwt>
</event>
<event>
 4    1  0.7280516E-007  0.8142921E+03  0.7818608E-02  0.9680705E-01
         -2   -1    0    0    0  501 -0.00000000000E+00  0.00000000000E+00  0.24680273474E+03  0.24680273476E+03  0.25500000000E-02 0.  1.
          2   -1    0    0  501    0  0.00000000000E+00 -0.00000000000E+00 -0.23679287922E+04  0.23679287922E+04  0.25500000000E-02 0. -1.
    8880023    1    1    2    0    0  0.91086298567E+02 -0.47006891387E+03 -0.18969945294E+04  0.20643788287E+04  0.65864270000E+03 0.  0.
    8880022    1    1    2    0    0 -0.91086298567E+02  0.47006891387E+03 -0.22413152802E+03  0.55035269822E+03  0.15294330000E+03 0.  0.
<mgrwt>
<rscale>  0 0.72177324E+03</rscale>
<asrwt>0</asrwt>
<pdfrwt beam="1">  1        2 0.36429672E+00 0.81429215E+03</pdfrwt>
<pdfrwt beam="2">  1       -2 0.37969653E-01 0.81429215E+03</pdfrwt>
<totfact> 0.28011887E+01</totfact>
</mgrwt>
</event>
<event>
 4    1  0.7280516E-007  0.9211742E+03  0.7818608E-02  0.9492861E-01
          2   -1    0    0  501    0  0.00000000000E+00  0.00000000000E+00  0.11256713072E+04  0.11256713072E+04  0.25500000000E-02 0. -1.
         -2   -1    0    0    0  501 -0.00000000000E+00 -0.00000000000E+00 -0.63809198763E+03  0.63809198764E+03  0.25500000000E-02 0.  1.
    8880023    1    1    2    0    0  0.61647422414E+03 -0.18630952864E+03  0.59006048764E+03  0.10939530588E+04  0.65864270000E+03 0. -1.
    8880022    1    1    2    0    0 -0.61647422414E+03  0.18630952864E+03 -0.10248116808E+03  0.66981023605E+03  0.15294330000E+03 0.  0.
<mgrwt>
<rscale>  0 0.84812205E+03</rscale>
<asrwt>0</asrwt>
<pdfrwt beam="1">  1        2 0.17318020E+00 0.92117420E+03</pdfrwt>
<pdfrwt beam="2">  1       -2 0.98167998E-01 0.92117420E+03</pdfrwt>
<totfact> 0.18145232E+01</totfact>
</mgrwt>
</event>
<event>
 4    1  0.7280516E-007  0.1105080E+04  0.7818608E-02  0.9255422E-01
          2   -1    0    0  501    0  0.00000000000E+00  0.00000000000E+00  0.26712505492E+04  0.26712505492E+04  0.25500000000E-02 0. -1.
         -2   -1    0    0    0  501 -0.00000000000E+00 -0.00000000000E+00 -0.99858263287E+03  0.99858263287E+03  0.25500000000E-02 0.  1.
    8880023    1    1    2    0    0  0.19519419287E+03  0.86561526554E+03  0.23140136069E+04  0.25643439200E+04  0.65864270000E+03 0.  0.
    8880022    1    1    2    0    0 -0.19519419287E+03 -0.86561526554E+03 -0.64134569053E+03  0.11054892621E+04  0.15294330000E+03 0.  0.
<mgrwt>
<rscale>  0 0.10499248E+04</rscale>
<asrwt>0</asrwt>
<pdfrwt beam="1">  1        2 0.41096162E+00 0.11050795E+04</pdfrwt>
<pdfrwt beam="2">  1       -2 0.15362810E+00 0.11050795E+04</pdfrwt>
<totfact> 0.77098677E-01</totfact>
</mgrwt>
</event>
<event>
 4    1  0.8582854E-007  0.6896371E+03  0.7818608E-02  0.1004326E+00
          2   -1    0    0  501    0  0.00000000000E+00  0.00000000000E+00  0.17235981006E+04  0.17235981006E+04  0.25500000000E-02 0. -1.
         -2   -1    0    0    0  501 -0.00000000000E+00 -0.00000000000E+00 -0.58825841763E+03  0.58825841764E+03  0.25500000000E-02 0.  1.
    8880023    1    1    2    0    0  0.16361237244E+03  0.12255648308E+03  0.16218737886E+04  0.17624057116E+04  0.65864270000E+03 0. -1.
    8880022    1    1    2    0    0 -0.16361237244E+03 -0.12255648308E+03 -0.48653410561E+03  0.54945080663E+03  0.15294330000E+03 0.  0.
<mgrwt>
<rscale>  0 0.53793571E+03</rscale>
<asrwt>0</asrwt>
<pdfrwt beam="1">  1        2 0.26516894E+00 0.68963708E+03</pdfrwt>
<pdfrwt beam="2">  1       -2 0.90501295E-01 0.68963708E+03</pdfrwt>
<totfact> 0.10308141E+01</totfact>
</mgrwt>
</event>
<event>
 4    1  0.7280516E-007  0.6762087E+03  0.7818608E-02  0.1011555E+00
          2   -1    0    0  501    0  0.00000000000E+00  0.00000000000E+00  0.40661745676E+03  0.40661745677E+03  0.25500000000E-02 0. -1.
         -2   -1    0    0    0  501 -0.00000000000E+00 -0.00000000000E+00 -0.78620168930E+03  0.78620168930E+03  0.25500000000E-02 0.  1.
    8880023    1    1    2    0    0  0.13937137345E+03  0.63432259370E+02  0.83803693680E+02  0.68138190217E+03  0.65864270000E+03 0. -1.
    8880022    1    1    2    0    0 -0.13937137345E+03 -0.63432259370E+02 -0.46338792622E+03  0.51143724390E+03  0.15294330000E+03 0.  0.
<mgrwt>
<rscale>  0 0.50861284E+03</rscale>
<asrwt>0</asrwt>
<pdfrwt beam="1">  1        2 0.62556532E-01 0.67620872E+03</pdfrwt>
<pdfrwt beam="2">  1       -2 0.12095411E+00 0.67620872E+03</pdfrwt>
<totfact> 0.41318443E+01</totfact>
</mgrwt>
</event>
<event>
 4    1  0.7280516E-007  0.1296494E+04  0.7818608E-02  0.9068593E-01
          2   -1    0    0  501    0  0.00000000000E+00  0.00000000000E+00  0.73237748570E+03  0.73237748570E+03  0.25500000000E-02 0. -1.
         -2   -1    0    0    0  501 -0.00000000000E+00 -0.00000000000E+00 -0.24115006396E+04  0.24115006397E+04  0.25500000000E-02 0.  1.
    8880023    1    1    2    0    0  0.10568420616E+04  0.36079341328E+03 -0.24436769092E+03  0.13193228585E+04  0.65864270000E+03 0. -1.
    8880022    1    1    2    0    0 -0.10568420616E+04 -0.36079341328E+03 -0.14347554630E+04  0.18245552669E+04  0.15294330000E+03 0.  0.
<mgrwt>
<rscale>  0 0.12519122E+04</rscale>
<asrwt>0</asrwt>
<pdfrwt beam="1">  1        2 0.11267346E+00 0.12964942E+04</pdfrwt>
<pdfrwt beam="2">  1       -2 0.37100009E+00 0.12964942E+04</pdfrwt>
<totfact> 0.43204046E-01</totfact>
</mgrwt>
</event>
<event>
 4    1  0.7280516E-007  0.7884040E+03  0.7818608E-02  0.9736454E-01
         -2   -1    0    0    0  501 -0.00000000000E+00  0.00000000000E+00  0.43764050122E+03  0.43764050123E+03  0.25500000000E-02 0.  1.
          2   -1    0    0  501    0  0.00000000000E+00 -0.00000000000E+00 -0.16370614734E+04  0.16370614734E+04  0.25500000000E-02 0. -1.
    8880023    1    1    2    0    0 -0.40772888598E+03 -0.14672354352E+03 -0.13731867145E+04  0.15834211701E+04  0.65864270000E+03 0.  0.
    8880022    1    1    2    0    0  0.40772888598E+03  0.14672354352E+03  0.17376574235E+03  0.49128080454E+03  0.15294330000E+03 0.  0.
<mgrwt>
<rscale>  0 0.68887220E+03</rscale>
<asrwt>0</asrwt>
<pdfrwt beam="1">  1        2 0.25185561E+00 0.78840399E+03</pdfrwt>
<pdfrwt beam="2">  1       -2 0.67329308E-01 0.78840399E+03</pdfrwt>
<totfact> 0.21975478E+01</totfact>
</mgrwt>
</event>
<event>
 4    1  0.7280516E-007  0.8056991E+03  0.7818608E-02  0.9698606E-01
         -2   -1    0    0    0  501 -0.00000000000E+00  0.00000000000E+00  0.25193506863E+03  0.25193506864E+03  0.25500000000E-02 0.  1.
          2   -1    0    0  501    0  0.00000000000E+00 -0.00000000000E+00 -0.30937728258E+04  0.30937728258E+04  0.25500000000E-02 0. -1.
    8880023    1    1    2    0    0  0.44353312944E+03 -0.13645203030E+03 -0.27273536975E+04  0.28438722178E+04  0.65864270000E+03 0. -1.
    8880022    1    1    2    0    0 -0.44353312944E+03  0.13645203030E+03 -0.11448405972E+03  0.50183567672E+03  0.15294330000E+03 0.  0.
<mgrwt>
<rscale>  0 0.71099833E+03</rscale>
<asrwt>0</asrwt>
<pdfrwt beam="1">  1        2 0.47596502E+00 0.80569908E+03</pdfrwt>
<pdfrwt beam="2">  1       -2 0.38759243E-01 0.80569908E+03</pdfrwt>
<totfact> 0.10084853E+01</totfact>
</mgrwt>
</event>
<event>
 4    1  0.7280516E-007  0.8698784E+03  0.7818608E-02  0.9576228E-01
          2   -1    0    0  501    0  0.00000000000E+00  0.00000000000E+00  0.62870903904E+03  0.62870903904E+03  0.25500000000E-02 0. -1.
         -2   -1    0    0    0  501 -0.00000000000E+00 -0.00000000000E+00 -0.10244967553E+04  0.10244967553E+04  0.25500000000E-02 0.  1.
    8880023    1    1    2    0    0 -0.24620512126E+03 -0.51211446342E+03  0.11058462528E+03  0.87687932521E+03  0.65864270000E+03 0. -1.
    8880022    1    1    2    0    0  0.24620512126E+03  0.51211446342E+03 -0.50637234154E+03  0.77632646913E+03  0.15294330000E+03 0.  0.
<mgrwt>
<rscale>  0 0.78889778E+03</rscale>
<asrwt>0</asrwt>
<pdfrwt beam="1">  1        2 0.96724467E-01 0.86987838E+03</pdfrwt>
<pdfrwt beam="2">  1       -2 0.15761489E+00 0.86987838E+03</pdfrwt>
<totfact> 0.12338260E+01</totfact>
</mgrwt>
</event>
<event>
 4    1  0.7280516E-007  0.7668595E+03  0.7818608E-02  0.9787662E-01
         -2   -1    0    0    0  501 -0.00000000000E+00  0.00000000000E+00  0.50524201638E+03  0.50524201639E+03  0.25500000000E-02 0.  1.
          2   -1    0    0  501    0  0.00000000000E+00 -0.00000000000E+00 -0.10065829206E+04  0.10065829206E+04  0.25500000000E-02 0. -1.
    8880023    1    1    2    0    0 -0.28426250302E+03 -0.27103157762E+03 -0.70682151964E+03  0.10429142599E+04  0.65864270000E+03 0.  0.
    8880022    1    1    2    0    0  0.28426250302E+03  0.27103157762E+03  0.20548061545E+03  0.46891067703E+03  0.15294330000E+03 0.  0.
<mgrwt>
<rscale>  0 0.66028892E+03</rscale>
<asrwt>0</asrwt>
<pdfrwt beam="1">  1        2 0.15485891E+00 0.76685950E+03</pdfrwt>
<pdfrwt beam="2">  1       -2 0.77729541E-01 0.76685950E+03</pdfrwt>
<totfact> 0.37311560E+01</totfact>
</mgrwt>
</event>
<event>
 4    1  0.7280516E-007  0.7198346E+03  0.7818608E-02  0.9923146E-01
         -2   -1    0    0    0  501 -0.00000000000E+00  0.00000000000E+00  0.59733824543E+03  0.59733824544E+03  0.25500000000E-02 0.  1.
          2   -1    0    0  501    0  0.00000000000E+00 -0.00000000000E+00 -0.99048918700E+03  0.99048918701E+03  0.25500000000E-02 0. -1.
    8880023    1    1    2    0    0 -0.13487148547E+03  0.25721837790E+03 -0.79268216169E+03  0.10707505906E+04  0.65864270000E+03 0.  0.
    8880022    1    1    2    0    0  0.13487148547E+03 -0.25721837790E+03  0.39953122011E+03  0.51707684186E+03  0.15294330000E+03 0.  0.
<mgrwt>
<rscale>  0 0.59152526E+03</rscale>
<asrwt>0</asrwt>
<pdfrwt beam="1">  1        2 0.15238295E+00 0.71983458E+03</pdfrwt>
<pdfrwt beam="2">  1       -2 0.91898192E-01 0.71983458E+03</pdfrwt>
<totfact> 0.26219857E+01</totfact>
</mgrwt>
</event>
<event>
 4    1  0.7440248E-007  0.7395889E+03  0.7818608E-02  0.9861146E-01
         -2   -1    0    0    0  501 -0.00000000000E+00  0.00000000000E+00  0.76743938843E+03  0.76743938843E+03  0.25500000000E-02 0.  1.
          2   -1    0    0  501    0  0.00000000000E+00 -0.00000000000E+00 -0.20458001554E+04  0.20458001554E+04  0.25500000000E-02 0. -1.
    8880023    1    1    2    0    0 -0.24423057809E+03 -0.23137180933E+03 -0.19284731923E+04  0.20654298703E+04  0.65864270000E+03 0. -1.
    8880022    1    1    2    0    0  0.24423057809E+03  0.23137180933E+03  0.65011242526E+03  0.74780967360E+03  0.15294330000E+03 0.  0.
<mgrwt>
<rscale>  0 0.62181821E+03</rscale>
<asrwt>0</asrwt>
<pdfrwt beam="1">  1        2 0.31473848E+00 0.73958887E+03</pdfrwt>
<pdfrwt beam="2">  1       -2 0.11806760E+00 0.73958887E+03</pdfrwt>
<totfact> 0.36200861E+00</totfact>
</mgrwt>
</event>
<event>
 4    1  0.7280516E-007  0.7090098E+03  0.7818608E-02  0.9961697E-01
         -2   -1    0    0    0  501 -0.00000000000E+00  0.00000000000E+00  0.50313271101E+03  0.50313271101E+03  0.25500000000E-02 0.  1.
          2   -1    0    0  501    0  0.00000000000E+00 -0.00000000000E+00 -0.74870100197E+03  0.74870100198E+03  0.25500000000E-02 0. -1.
    8880023    1    1    2    0    0 -0.26163078637E+03 -0.20832001886E+02 -0.49006422155E+03  0.86189198174E+03  0.65864270000E+03 0. -1.
    8880022    1    1    2    0    0  0.26163078637E+03  0.20832001886E+02  0.24449593059E+03  0.38994173125E+03  0.15294330000E+03 0.  1.
<mgrwt>
<rscale>  0 0.57362151E+03</rscale>
<asrwt>0</asrwt>
<pdfrwt beam="1">  1        2 0.11518477E+00 0.70900977E+03</pdfrwt>
<pdfrwt beam="2">  1       -2 0.77405032E-01 0.70900977E+03</pdfrwt>
<totfact> 0.56853772E+01</totfact>
</mgrwt>
</event>
<event>
 4    1  0.7280516E-007  0.6882301E+03  0.7818608E-02  0.1005005E+00
          2   -1    0    0  501    0  0.00000000000E+00  0.00000000000E+00  0.16267195264E+04  0.16267195264E+04  0.25500000000E-02 0. -1.
         -2   -1    0    0    0  501 -0.00000000000E+00 -0.00000000000E+00 -0.13691590453E+03  0.13691590455E+03  0.25500000000E-02 0.  1.
    8880023    1    1    2    0    0 -0.10416498757E+03  0.17029409617E+03  0.11614001694E+04  0.13500040680E+04  0.65864270000E+03 0.  0.
    8880022    1    1    2    0    0  0.10416498757E+03 -0.17029409617E+03  0.32840345247E+03  0.41363136298E+03  0.15294330000E+03 0.  1.
<mgrwt>
<rscale>  0 0.53508897E+03</rscale>
<asrwt>0</asrwt>
<pdfrwt beam="1">  1        2 0.25026455E+00 0.68823007E+03</pdfrwt>
<pdfrwt beam="2">  1       -2 0.21063985E-01 0.68823007E+03</pdfrwt>
<totfact> 0.21437474E+02</totfact>
</mgrwt>
</event>
<event>
 4    1  0.7280516E-007  0.1048429E+04  0.7818608E-02  0.9320772E-01
          2   -1    0    0  501    0  0.00000000000E+00  0.00000000000E+00  0.11659961950E+04  0.11659961950E+04  0.25500000000E-02 0. -1.
         -2   -1    0    0    0  501 -0.00000000000E+00 -0.00000000000E+00 -0.12191485368E+04  0.12191485368E+04  0.25500000000E-02 0.  1.
    8880023    1    1    2    0    0 -0.61828156311E+03 -0.53209181140E+03  0.70307892578E+03  0.12623485926E+04  0.65864270000E+03 0. -1.
    8880022    1    1    2    0    0  0.61828156311E+03  0.53209181140E+03 -0.75623126767E+03  0.11227961392E+04  0.15294330000E+03 0.  0.
<mgrwt>
<rscale>  0 0.98892842E+03</rscale>
<asrwt>0</asrwt>
<pdfrwt beam="1">  1        2 0.17938403E+00 0.10484293E+04</pdfrwt>
<pdfrwt beam="2">  1       -2 0.18756131E+00 0.10484293E+04</pdfrwt>
<totfact> 0.31522652E+00</totfact>
</mgrwt>
</event>
<event>
 4    1  0.7280516E-007  0.7313357E+03  0.7818608E-02  0.9885945E-01
          2   -1    0    0  501    0  0.00000000000E+00  0.00000000000E+00  0.40148689753E+03  0.40148689754E+03  0.25500000000E-02 0. -1.
         -2   -1    0    0    0  501 -0.00000000000E+00 -0.00000000000E+00 -0.13816550448E+04  0.13816550448E+04  0.25500000000E-02 0.  1.
    8880023    1    1    2    0    0 -0.31764702558E+03 -0.11919281178E+02  0.10639714228E+02  0.73141309252E+03  0.65864270000E+03 0.  0.
    8880022    1    1    2    0    0  0.31764702558E+03  0.11919281178E+02 -0.99080786150E+03  0.10517288498E+04  0.15294330000E+03 0.  0.
<mgrwt>
<rscale>  0 0.60947330E+03</rscale>
<asrwt>0</asrwt>
<pdfrwt beam="1">  1        2 0.61767216E-01 0.73133570E+03</pdfrwt>
<pdfrwt beam="2">  1       -2 0.21256231E+00 0.73133570E+03</pdfrwt>
<totfact> 0.89284807E+00</totfact>
</mgrwt>
</event>
<event>
 4    1  0.8947591E-007  0.1146239E+04  0.7818608E-02  0.9211241E-01
         -2   -1    0    0    0  501 -0.00000000000E+00  0.00000000000E+00  0.18051665628E+04  0.18051665629E+04  0.25500000000E-02 0.  1.
          2   -1    0    0  501    0  0.00000000000E+00 -0.00000000000E+00 -0.16268528105E+04  0.16268528105E+04  0.25500000000E-02 0. -1.
    8880023    1    1    2    0    0 -0.29067904084E+03  0.89194114179E+03 -0.12629508930E+04  0.17055522477E+04  0.65864270000E+03 0.  0.
    8880022    1    1    2    0    0  0.29067904084E+03 -0.89194114179E+03  0.14412646453E+04  0.17264671257E+04  0.15294330000E+03 0.  0.
<mgrwt>
<rscale>  0 0.10938155E+04</rscale>
<asrwt>0</asrwt>
<pdfrwt beam="1">  1        2 0.25028505E+00 0.11462389E+04</pdfrwt>
<pdfrwt beam="2">  1       -2 0.27771793E+00 0.11462389E+04</pdfrwt>
<totfact> 0.45952490E-01</totfact>
</mgrwt>
</event>
<event>
 4    1  0.7280516E-007  0.8843076E+03  0.7818608E-02  0.9551707E-01
          2   -1    0    0  501    0  0.00000000000E+00  0.00000000000E+00  0.28911463050E+04  0.28911463050E+04  0.25500000000E-02 0. -1.
         -2   -1    0    0    0  501 -0.00000000000E+00 -0.00000000000E+00 -0.34546947809E+03  0.34546947810E+03  0.25500000000E-02 0.  1.
    8880023    1    1    2    0    0 -0.22017633753E+03  0.54745971041E+03  0.24685721472E+04  0.26221839001E+04  0.65864270000E+03 0. -1.
    8880022    1    1    2    0    0  0.22017633753E+03 -0.54745971041E+03  0.77104679728E+02  0.61443188295E+03  0.15294330000E+03 0.  0.
<mgrwt>
<rscale>  0 0.80576662E+03</rscale>
<asrwt>0</asrwt>
<pdfrwt beam="1">  1        2 0.44479175E+00 0.88430762E+03</pdfrwt>
<pdfrwt beam="2">  1       -2 0.53149149E-01 0.88430762E+03</pdfrwt>
<totfact> 0.70455552E+00</totfact>
</mgrwt>
</event>
<event>
 4    1  0.7280516E-007  0.8775672E+03  0.7818608E-02  0.9563048E-01
         -2   -1    0    0    0  501 -0.00000000000E+00  0.00000000000E+00  0.54500991020E+03  0.54500991020E+03  0.25500000000E-02 0.  1.
          2   -1    0    0  501    0  0.00000000000E+00 -0.00000000000E+00 -0.13579436466E+04  0.13579436466E+04  0.25500000000E-02 0. -1.
    8880023    1    1    2    0    0 -0.45068113374E+03  0.36496649941E+03  0.18517331393E+02  0.87776256916E+03  0.65864270000E+03 0.  1.
    8880022    1    1    2    0    0  0.45068113374E+03 -0.36496649941E+03 -0.83145106783E+03  0.10251909877E+04  0.15294330000E+03 0.  0.
<mgrwt>
<rscale>  0 0.79790963E+03</rscale>
<asrwt>0</asrwt>
<pdfrwt beam="1">  1        2 0.20891441E+00 0.87756723E+03</pdfrwt>
<pdfrwt beam="2">  1       -2 0.83847679E-01 0.87756723E+03</pdfrwt>
<totfact> 0.19158272E+01</totfact>
</mgrwt>
</event>
<event>
 4    1  0.7280516E-007  0.9951250E+03  0.7818608E-02  0.9387964E-01
          2   -1    0    0  501    0  0.00000000000E+00  0.00000000000E+00  0.16788091196E+04  0.16788091196E+04  0.25500000000E-02 0. -1.
         -2   -1    0    0    0  501 -0.00000000000E+00 -0.00000000000E+00 -0.13685969367E+04  0.13685969367E+04  0.25500000000E-02 0.  1.
    8880023    1    1    2    0    0  0.12532192369E+03 -0.73536241987E+03 -0.10761176583E+04  0.14657090073E+04  0.65864270000E+03 0.  0.
    8880022    1    1    2    0    0 -0.12532192369E+03  0.73536241987E+03  0.13863298413E+04  0.15816970490E+04  0.15294330000E+03 0.  0.
<mgrwt>
<rscale>  0 0.93072880E+03</rscale>
<asrwt>0</asrwt>
<pdfrwt beam="1">  1        2 0.25827832E+00 0.99512496E+03</pdfrwt>
<pdfrwt beam="2">  1       -2 0.21055338E+00 0.99512496E+03</pdfrwt>
<totfact> 0.11403951E+00</totfact>
</mgrwt>
</event>
<event>
 4    1  0.7280516E-007  0.7228327E+03  0.7818608E-02  0.9913115E-01
          2   -1    0    0  501    0  0.00000000000E+00  0.00000000000E+00  0.11197791196E+04  0.11197791196E+04  0.25500000000E-02 0. -1.
         -2   -1    0    0    0  501 -0.00000000000E+00 -0.00000000000E+00 -0.52185104323E+03  0.52185104324E+03  0.25500000000E-02 0.  1.
    8880023    1    1    2    0    0 -0.29654984215E+03  0.27112771502E+02  0.92478336707E+03  0.11737595126E+04  0.65864270000E+03 0. -1.
    8880022    1    1    2    0    0  0.29654984215E+03 -0.27112771502E+02 -0.32685529069E+03  0.46787065020E+03  0.15294330000E+03 0.  0.
<mgrwt>
<rscale>  0 0.59629864E+03</rscale>
<asrwt>0</asrwt>
<pdfrwt beam="1">  1        2 0.17227371E+00 0.72283270E+03</pdfrwt>
<pdfrwt beam="2">  1       -2 0.80284776E-01 0.72283270E+03</pdfrwt>
<totfact> 0.29643014E+01</totfact>
</mgrwt>
</event>
<event>
 4    1  0.7280516E-007  0.1361465E+04  0.7818608E-02  0.9014219E-01
          2   -1    0    0  501    0  0.00000000000E+00  0.00000000000E+00  0.19135339630E+04  0.19135339630E+04  0.25500000000E-02 0. -1.
         -2   -1    0    0    0  501 -0.00000000000E+00 -0.00000000000E+00 -0.15450106701E+04  0.15450106701E+04  0.25500000000E-02 0.  1.
    8880023    1    1    2    0    0  0.15043334695E+03  0.11820093983E+04 -0.96115805502E+03  0.16665567565E+04  0.65864270000E+03 0.  1.
    8880022    1    1    2    0    0 -0.15043334695E+03 -0.11820093983E+04  0.13296813479E+04  0.17919878766E+04  0.15294330000E+03 0.  0.
<mgrwt>
<rscale>  0 0.13195305E+04</rscale>
<asrwt>0</asrwt>
<pdfrwt beam="1">  1        2 0.29438984E+00 0.13614649E+04</pdfrwt>
<pdfrwt beam="2">  1       -2 0.23769395E+00 0.13614649E+04</pdfrwt>
<totfact> 0.54423350E-01</totfact>
</mgrwt>
</event>
<event>
 4    1  0.7280516E-007  0.8393060E+03  0.7818608E-02  0.9631490E-01
          2   -1    0    0  501    0  0.00000000000E+00  0.00000000000E+00  0.19886632731E+04  0.19886632731E+04  0.25500000000E-02 0. -1.
         -2   -1    0    0    0  501 -0.00000000000E+00 -0.00000000000E+00 -0.35962432799E+03  0.35962432800E+03  0.25500000000E-02 0.  1.
    8880023    1    1    2    0    0  0.52018767806E+03 -0.53973809534E+01  0.15981976981E+04  0.18051787836E+04  0.65864270000E+03 0.  0.
    8880022    1    1    2    0    0 -0.52018767806E+03  0.53973809534E+01  0.30841246969E+02  0.54310881751E+03  0.15294330000E+03 0.  0.
<mgrwt>
<rscale>  0 0.75246554E+03</rscale>
<asrwt>0</asrwt>
<pdfrwt beam="1">  1        2 0.30594819E+00 0.83930600E+03</pdfrwt>
<pdfrwt beam="2">  1       -2 0.55326820E-01 0.83930600E+03</pdfrwt>
<totfact> 0.21269606E+01</totfact>
</mgrwt>
</event>
<event>
 4    1  0.7280516E-007  0.7287304E+03  0.7818608E-02  0.9894081E-01
          2   -1    0    0  501    0  0.00000000000E+00  0.00000000000E+00  0.23604516407E+04  0.23604516407E+04  0.25500000000E-02 0. -1.
         -2   -1    0    0    0  501 -0.00000000000E+00 -0.00000000000E+00 -0.41748103723E+03  0.41748103723E+03  0.25500000000E-02 0.  1.
    8880023    1    1    2    0    0  0.29071012785E+03 -0.11280720757E+03  0.22181669058E+04  0.23348045899E+04  0.65864270000E+03 0. -1.
    8880022    1    1    2    0    0 -0.29071012785E+03  0.11280720757E+03 -0.27519630241E+03  0.44312808801E+03  0.15294330000E+03 0.  0.
<mgrwt>
<rscale>  0 0.60548986E+03</rscale>
<asrwt>0</asrwt>
<pdfrwt beam="1">  1        2 0.36314642E+00 0.72873044E+03</pdfrwt>
<pdfrwt beam="2">  1       -2 0.64227850E-01 0.72873044E+03</pdfrwt>
<totfact> 0.98351372E+00</totfact>
</mgrwt>
</event>
<event>
 4    1  0.7280516E-007  0.1038189E+04  0.7818608E-02  0.9333216E-01
          2   -1    0    0  501    0  0.00000000000E+00  0.00000000000E+00  0.10396478664E+04  0.10396478665E+04  0.25500000000E-02 0. -1.
         -2   -1    0    0    0  501 -0.00000000000E+00 -0.00000000000E+00 -0.97649444647E+03  0.97649444647E+03  0.25500000000E-02 0.  1.
    8880023    1    1    2    0    0 -0.64889733399E+03 -0.47218489514E+03  0.42605227371E+03  0.11222107964E+04  0.65864270000E+03 0. -1.
    8880022    1    1    2    0    0  0.64889733399E+03  0.47218489514E+03 -0.36289885373E+03  0.89393151657E+03  0.15294330000E+03 0.  0.
<mgrwt>
<rscale>  0 0.97781585E+03</rscale>
<asrwt>0</asrwt>
<pdfrwt beam="1">  1        2 0.15994582E+00 0.10381891E+04</pdfrwt>
<pdfrwt beam="2">  1       -2 0.15022992E+00 0.10381891E+04</pdfrwt>
<totfact> 0.70037660E+00</totfact>
</mgrwt>
</event>
<event>
 4    1  0.7280516E-007  0.7026413E+03  0.7818608E-02  0.9986415E-01
         -2   -1    0    0    0  501 -0.00000000000E+00  0.00000000000E+00  0.20540445571E+03  0.20540445573E+03  0.25500000000E-02 0.  1.
          2   -1    0    0  501    0  0.00000000000E+00 -0.00000000000E+00 -0.18217716739E+04  0.18217716739E+04  0.25500000000E-02 0. -1.
    8880023    1    1    2    0    0 -0.16302159965E+03 -0.18253386255E+03 -0.15888395431E+04  0.17372725615E+04  0.65864270000E+03 0. -1.
    8880022    1    1    2    0    0  0.16302159965E+03  0.18253386255E+03 -0.27527675121E+02  0.28990356817E+03  0.15294330000E+03 0.  0.
<mgrwt>
<rscale>  0 0.56249929E+03</rscale>
<asrwt>0</asrwt>
<pdfrwt beam="1">  1        2 0.28027255E+00 0.70264134E+03</pdfrwt>
<pdfrwt beam="2">  1       -2 0.31600687E-01 0.70264134E+03</pdfrwt>
<totfact> 0.80340586E+01</totfact>
</mgrwt>
</event>
<event>
 4    1  0.7280516E-007  0.1571371E+04  0.7818608E-02  0.8860816E-01
          2   -1    0    0  501    0  0.00000000000E+00  0.00000000000E+00  0.29326832641E+04  0.29326832641E+04  0.25500000000E-02 0. -1.
         -2   -1    0    0    0  501 -0.00000000000E+00 -0.00000000000E+00 -0.12888988065E+04  0.12888988065E+04  0.25500000000E-02 0.  1.
    8880023    1    1    2    0    0 -0.12144479156E+04 -0.74867343068E+03  0.21821592270E+04  0.26890564783E+04  0.65864270000E+03 0.  0.
    8880022    1    1    2    0    0  0.12144479156E+04  0.74867343068E+03 -0.53837476947E+03  0.15325255923E+04  0.15294330000E+03 0.  0.
<mgrwt>
<rscale>  0 0.15360679E+04</rscale>
<asrwt>0</asrwt>
<pdfrwt beam="1">  1        2 0.45118204E+00 0.15713707E+04</pdfrwt>
<pdfrwt beam="2">  1       -2 0.19829212E+00 0.15713707E+04</pdfrwt>
<totfact> 0.24453004E-01</totfact>
</mgrwt>
</event>
<event>
 4    1  0.7280516E-007  0.6668466E+03  0.7818608E-02  0.1018032E+00
         -2   -1    0    0    0  501 -0.00000000000E+00  0.00000000000E+00  0.63481972930E+03  0.63481972930E+03  0.25500000000E-02 0.  1.
          2   -1    0    0  501    0  0.00000000000E+00 -0.00000000000E+00 -0.31367360451E+03  0.31367360452E+03  0.25500000000E-02 0. -1.
    8880023    1    1    2    0    0  0.74813916468E+02 -0.72643525621E+02  0.12439283665E+03  0.67834945860E+03  0.65864270000E+03 0. -1.
    8880022    1    1    2    0    0 -0.74813916468E+02  0.72643525621E+02  0.19675328814E+03  0.27014387522E+03  0.15294330000E+03 0. -1.
<mgrwt>
<rscale>  0 0.48403544E+03</rscale>
<asrwt>0</asrwt>
<pdfrwt beam="1">  1        2 0.48257478E-01 0.66684662E+03</pdfrwt>
<pdfrwt beam="2">  1       -2 0.97664574E-01 0.66684662E+03</pdfrwt>
<totfact> 0.92520120E+01</totfact>
</mgrwt>
</event>
<event>
 4    1  0.7280516E-007  0.8933110E+03  0.7818608E-02  0.9536856E-01
          2   -1    0    0  501    0  0.00000000000E+00  0.00000000000E+00  0.33927334340E+04  0.33927334340E+04  0.25500000000E-02 0. -1.
         -2   -1    0    0    0  501 -0.00000000000E+00 -0.00000000000E+00 -0.31900334285E+03  0.31900334286E+03  0.25500000000E-02 0.  1.
    8880023    1    1    2    0    0  0.39818077915E+03 -0.45348260699E+03  0.29430066452E+04  0.30755963207E+04  0.65864270000E+03 0.  0.
    8880022    1    1    2    0    0 -0.39818077915E+03  0.45348260699E+03  0.13072344602E+03  0.63614045625E+03  0.15294330000E+03 0.  0.
<mgrwt>
<rscale>  0 0.81620273E+03</rscale>
<asrwt>0</asrwt>
<pdfrwt beam="1">  1        2 0.52195899E+00 0.89331104E+03</pdfrwt>
<pdfrwt beam="2">  1       -2 0.49077437E-01 0.89331104E+03</pdfrwt>
<totfact> 0.39873836E+00</totfact>
</mgrwt>
</event>
<event>
 4    1  0.7280516E-007  0.1111532E+04  0.7818608E-02  0.9248324E-01
         -2   -1    0    0    0  501 -0.00000000000E+00  0.00000000000E+00  0.17453938570E+04  0.17453938570E+04  0.25500000000E-02 0.  1.
          2   -1    0    0  501    0  0.00000000000E+00 -0.00000000000E+00 -0.64520575473E+03  0.64520575473E+03  0.25500000000E-02 0. -1.
    8880023    1    1    2    0    0  0.67092383482E+03 -0.59292039960E+03  0.23489449740E+03  0.11360805533E+04  0.65864270000E+03 0. -1.
    8880022    1    1    2    0    0 -0.67092383482E+03  0.59292039960E+03  0.86529360490E+03  0.12545190585E+04  0.15294330000E+03 0.  0.
<mgrwt>
<rscale>  0 0.10568269E+04</rscale>
<asrwt>0</asrwt>
<pdfrwt beam="1">  1        2 0.99262424E-01 0.11115321E+04</pdfrwt>
<pdfrwt beam="2">  1       -2 0.26852213E+00 0.11115321E+04</pdfrwt>
<totfact> 0.22208410E+00</totfact>
</mgrwt>
</event>
<event>
 4    1  0.7280516E-007  0.1449056E+04  0.7818608E-02  0.8946473E-01
         -2   -1    0    0    0  501 -0.00000000000E+00  0.00000000000E+00  0.11019064923E+04  0.11019064923E+04  0.25500000000E-02 0.  1.
          2   -1    0    0  501    0  0.00000000000E+00 -0.00000000000E+00 -0.24839959057E+04  0.24839959057E+04  0.25500000000E-02 0. -1.
    8880023    1    1    2    0    0  0.24747744711E+03  0.12667710427E+04 -0.17139932447E+04  0.22444458137E+04  0.65864270000E+03 0. -1.
    8880022    1    1    2    0    0 -0.24747744711E+03 -0.12667710427E+04  0.33190383127E+03  0.13414565844E+04  0.15294330000E+03 0.  0.
<mgrwt>
<rscale>  0 0.14101937E+04</rscale>
<asrwt>0</asrwt>
<pdfrwt beam="1">  1        2 0.38215321E+00 0.14490563E+04</pdfrwt>
<pdfrwt beam="2">  1       -2 0.16952408E+00 0.14490563E+04</pdfrwt>
<totfact> 0.72383335E-01</totfact>
</mgrwt>
</event>
<event>
 4    1  0.7280516E-007  0.7306844E+03  0.7818608E-02  0.9887964E-01
          2   -1    0    0  501    0  0.00000000000E+00  0.00000000000E+00  0.23773809699E+04  0.23773809699E+04  0.25500000000E-02 0. -1.
         -2   -1    0    0    0  501 -0.00000000000E+00 -0.00000000000E+00 -0.21126240813E+03  0.21126240814E+03  0.25500000000E-02 0.  1.
    8880023    1    1    2    0    0  0.24013042825E+03 -0.20597788484E+03  0.21098175550E+04  0.22327628251E+04  0.65864270000E+03 0. -1.
    8880022    1    1    2    0    0 -0.24013042825E+03  0.20597788484E+03  0.56301006857E+02  0.35588055300E+03  0.15294330000E+03 0.  0.
<mgrwt>
<rscale>  0 0.60848163E+03</rscale>
<asrwt>0</asrwt>
<pdfrwt beam="1">  1        2 0.36575094E+00 0.73068442E+03</pdfrwt>
<pdfrwt beam="2">  1       -2 0.32501907E-01 0.73068442E+03</pdfrwt>
<totfact> 0.37643249E+01</totfact>
</mgrwt>
</event>
<event>
 4    1  0.7280516E-007  0.6815768E+03  0.7818608E-02  0.1008445E+00
          2   -1    0    0  501    0  0.00000000000E+00  0.00000000000E+00  0.13367441966E+04  0.13367441966E+04  0.25500000000E-02 0. -1.
         -2   -1    0    0    0  501 -0.00000000000E+00 -0.00000000000E+00 -0.52235659049E+03  0.52235659050E+03  0.25500000000E-02 0.  1.
    8880023    1    1    2    0    0  0.17729933084E+01 -0.17531015116E+03  0.12165627700E+04  0.13944791043E+04  0.65864270000E+03 0. -1.
    8880022    1    1    2    0    0 -0.17729933084E+01  0.17531015116E+03 -0.40217516395E+03  0.46462168279E+03  0.15294330000E+03 0.  0.
<mgrwt>
<rscale>  0 0.52097192E+03</rscale>
<asrwt>0</asrwt>
<pdfrwt beam="1">  1        2 0.20565295E+00 0.68157685E+03</pdfrwt>
<pdfrwt beam="2">  1       -2 0.80362553E-01 0.68157685E+03</pdfrwt>
<totfact> 0.22169812E+01</totfact>
</mgrwt>
</event>
<event>
 4    1  0.7280516E-007  0.6786137E+03  0.7818608E-02  0.1010119E+00
          2   -1    0    0  501    0  0.00000000000E+00  0.00000000000E+00  0.28156182958E+03  0.28156182960E+03  0.25500000000E-02 0. -1.
         -2   -1    0    0    0  501 -0.00000000000E+00 -0.00000000000E+00 -0.92190026719E+03  0.92190026720E+03  0.25500000000E-02 0.  1.
    8880023    1    1    2    0    0  0.15650421973E+03  0.47039874387E+02 -0.19667960617E+03  0.70654044068E+03  0.65864270000E+03 0.  0.
    8880022    1    1    2    0    0 -0.15650421973E+03 -0.47039874387E+02 -0.44365883144E+03  0.49692165611E+03  0.15294330000E+03 0.  0.
<mgrwt>
<rscale>  0 0.51427389E+03</rscale>
<asrwt>0</asrwt>
<pdfrwt beam="1">  1        2 0.43317205E-01 0.67861368E+03</pdfrwt>
<pdfrwt beam="2">  1       -2 0.14183081E+00 0.67861368E+03</pdfrwt>
<totfact> 0.41558754E+01</totfact>
</mgrwt>
</event>
<event>
 4    1  0.7280516E-007  0.9247602E+03  0.7818608E-02  0.9487398E-01
         -2   -1    0    0    0  501 -0.00000000000E+00  0.00000000000E+00  0.56699544522E+03  0.56699544522E+03  0.25500000000E-02 0.  1.
          2   -1    0    0  501    0  0.00000000000E+00 -0.00000000000E+00 -0.28316086008E+04  0.28316086008E+04  0.25500000000E-02 0. -1.
    8880023    1    1    2    0    0 -0.61643249428E+03  0.20342628598E+03 -0.25201157209E+04  0.26844300562E+04  0.65864270000E+03 0.  0.
    8880022    1    1    2    0    0  0.61643249428E+03 -0.20342628598E+03  0.25550256530E+03  0.71417398981E+03  0.15294330000E+03 0.  0.
<mgrwt>
<rscale>  0 0.85219294E+03</rscale>
<asrwt>0</asrwt>
<pdfrwt beam="1">  1        2 0.43563208E+00 0.92476023E+03</pdfrwt>
<pdfrwt beam="2">  1       -2 0.87230070E-01 0.92476023E+03</pdfrwt>
<totfact> 0.25841477E+00</totfact>
</mgrwt>
</event>
<event>
 4    1  0.7280516E-007  0.9230711E+03  0.7818608E-02  0.9489966E-01
         -2   -1    0    0    0  501 -0.00000000000E+00  0.00000000000E+00  0.69782391426E+03  0.69782391427E+03  0.25500000000E-02 0.  1.
          2   -1    0    0  501    0  0.00000000000E+00 -0.00000000000E+00 -0.11250362675E+04  0.11250362675E+04  0.25500000000E-02 0. -1.
    8880023    1    1    2    0    0  0.57932077011E+03 -0.28746725894E+03 -0.64208396332E+03  0.11244251873E+04  0.65864270000E+03 0. -1.
    8880022    1    1    2    0    0 -0.57932077011E+03  0.28746725894E+03  0.21487161008E+03  0.69843499446E+03  0.15294330000E+03 0.  1.
<mgrwt>
<rscale>  0 0.85027636E+03</rscale>
<asrwt>0</asrwt>
<pdfrwt beam="1">  1        2 0.17308250E+00 0.92307106E+03</pdfrwt>
<pdfrwt beam="2">  1       -2 0.10735753E+00 0.92307106E+03</pdfrwt>
<totfact> 0.14656650E+01</totfact>
</mgrwt>
</event>
<event>
 4    1  0.7280516E-007  0.7389152E+03  0.7818608E-02  0.9863118E-01
         -2   -1    0    0    0  501 -0.00000000000E+00  0.00000000000E+00  0.38058115724E+03  0.38058115725E+03  0.25500000000E-02 0.  1.
          2   -1    0    0  501    0  0.00000000000E+00 -0.00000000000E+00 -0.81207090325E+03  0.81207090325E+03  0.25500000000E-02 0. -1.
    8880023    1    1    2    0    0  0.78283205033E+02  0.32566435569E+03 -0.23552384561E+03  0.77554317795E+03  0.65864270000E+03 0.  1.
    8880022    1    1    2    0    0 -0.78283205033E+02 -0.32566435569E+03 -0.19596590041E+03  0.41710888254E+03  0.15294330000E+03 0. -1.
<mgrwt>
<rscale>  0 0.62082514E+03</rscale>
<asrwt>0</asrwt>
<pdfrwt beam="1">  1        2 0.12493399E+00 0.73891524E+03</pdfrwt>
<pdfrwt beam="2">  1       -2 0.58550947E-01 0.73891524E+03</pdfrwt>
<totfact> 0.93307577E+01</totfact>
</mgrwt>
</event>
<event>
 4    1  0.7280516E-007  0.8413929E+03  0.7818608E-02  0.9627559E-01
         -2   -1    0    0    0  501 -0.00000000000E+00  0.00000000000E+00  0.27091082940E+03  0.27091082942E+03  0.25500000000E-02 0.  1.
          2   -1    0    0  501    0  0.00000000000E+00 -0.00000000000E+00 -0.17773872373E+04  0.17773872373E+04  0.25500000000E-02 0. -1.
    8880023    1    1    2    0    0  0.17650190369E+03 -0.49292888464E+03 -0.95121320206E+03  0.12699403802E+04  0.65864270000E+03 0.  1.
    8880022    1    1    2    0    0 -0.17650190369E+03  0.49292888464E+03 -0.55526320581E+03  0.77835768645E+03  0.15294330000E+03 0. -1.
<mgrwt>
<rscale>  0 0.75498667E+03</rscale>
<asrwt>0</asrwt>
<pdfrwt beam="1">  1        2 0.27344418E+00 0.84139290E+03</pdfrwt>
<pdfrwt beam="2">  1       -2 0.41678590E-01 0.84139290E+03</pdfrwt>
<totfact> 0.49226870E+01</totfact>
</mgrwt>
</event>
<event>
 4    1  0.7280516E-007  0.7004400E+03  0.7818608E-02  0.9995381E-01
          2   -1    0    0  501    0  0.00000000000E+00  0.00000000000E+00  0.17946301235E+04  0.17946301235E+04  0.25500000000E-02 0. -1.
         -2   -1    0    0    0  501 -0.00000000000E+00 -0.00000000000E+00 -0.27059609843E+03  0.27059609844E+03  0.25500000000E-02 0.  1.
    8880023    1    1    2    0    0  0.53633970608E+02 -0.23222693579E+03  0.16210280701E+04  0.17658845270E+04  0.65864270000E+03 0.  0.
    8880022    1    1    2    0    0 -0.53633970608E+02  0.23222693579E+03 -0.96994045043E+02  0.29934169488E+03  0.15294330000E+03 0.  1.
<mgrwt>
<rscale>  0 0.55853240E+03</rscale>
<asrwt>0</asrwt>
<pdfrwt beam="1">  1        2 0.27609694E+00 0.70043998E+03</pdfrwt>
<pdfrwt beam="2">  1       -2 0.41630169E-01 0.70043998E+03</pdfrwt>
<totfact> 0.49042781E+01</totfact>
</mgrwt>
</event>
<event>
 4    1  0.7280516E-007  0.1238104E+04  0.7818608E-02  0.9120944E-01
          2   -1    0    0  501    0  0.00000000000E+00  0.00000000000E+00  0.13429798038E+04  0.13429798038E+04  0.25500000000E-02 0. -1.
         -2   -1    0    0    0  501 -0.00000000000E+00 -0.00000000000E+00 -0.12305561700E+04  0.12305561700E+04  0.25500000000E-02 0.  1.
    8880023    1    1    2    0    0  0.10483233147E+04 -0.10507791151E+02  0.63582916295E+03  0.13918265397E+04  0.65864270000E+03 0. -1.
    8880022    1    1    2    0    0 -0.10483233147E+04  0.10507791151E+02 -0.52340552910E+03  0.11817094342E+04  0.15294330000E+03 0.  0.
<mgrwt>
<rscale>  0 0.11908045E+04</rscale>
<asrwt>0</asrwt>
<pdfrwt beam="1">  1        2 0.20661228E+00 0.12381044E+04</pdfrwt>
<pdfrwt beam="2">  1       -2 0.18931633E+00 0.12381044E+04</pdfrwt>
<totfact> 0.23637939E+00</totfact>
</mgrwt>
</event>
<event>
 4    1  0.7280516E-007  0.7837752E+03  0.7818608E-02  0.9747042E-01
          2   -1    0    0  501    0  0.00000000000E+00  0.00000000000E+00  0.32767508640E+03  0.32767508641E+03  0.25500000000E-02 0. -1.
         -2   -1    0    0    0  501 -0.00000000000E+00 -0.00000000000E+00 -0.17173115666E+04  0.17173115666E+04  0.25500000000E-02 0.  1.
    8880023    1    1    2    0    0  0.39514105304E+03 -0.15606718710E+03 -0.25566053823E+03  0.82441854404E+03  0.65864270000E+03 0.  0.
    8880022    1    1    2    0    0 -0.39514105304E+03  0.15606718710E+03 -0.11339759420E+04  0.12205681090E+04  0.15294330000E+03 0.  0.
<mgrwt>
<rscale>  0 0.68283667E+03</rscale>
<asrwt>0</asrwt>
<pdfrwt beam="1">  1        2 0.50411553E-01 0.78377524E+03</pdfrwt>
<pdfrwt beam="2">  1       -2 0.26420177E+00 0.78377524E+03</pdfrwt>
<totfact> 0.53717534E+00</totfact>
</mgrwt>
</event>
<event>
 4    1  0.7280516E-007  0.8333893E+03  0.7818608E-02  0.9642773E-01
          2   -1    0    0  501    0  0.00000000000E+00  0.00000000000E+00  0.10579542798E+04  0.10579542798E+04  0.25500000000E-02 0. -1.
         -2   -1    0    0    0  501 -0.00000000000E+00 -0.00000000000E+00 -0.50421296007E+03  0.50421296008E+03  0.25500000000E-02 0.  1.
    8880023    1    1    2    0    0 -0.22818215662E+03  0.45679368012E+03  0.60034044625E+03  0.10271058468E+04  0.65864270000E+03 0. -1.
    8880022    1    1    2    0    0  0.22818215662E+03 -0.45679368012E+03 -0.46599126513E+02  0.53506139312E+03  0.15294330000E+03 0. -1.
<mgrwt>
<rscale>  0 0.74528697E+03</rscale>
<asrwt>0</asrwt>
<pdfrwt beam="1">  1        2 0.16276220E+00 0.83338933E+03</pdfrwt>
<pdfrwt beam="2">  1       -2 0.77571225E-01 0.83338933E+03</pdfrwt>
<totfact> 0.34584967E+01</totfact>
</mgrwt>
</event>
<event>
 4    1  0.7280516E-007  0.8787812E+03  0.7818608E-02  0.9560991E-01
         -2   -1    0    0    0  501 -0.00000000000E+00  0.00000000000E+00  0.96685967628E+03  0.96685967628E+03  0.25500000000E-02 0.  1.
          2   -1    0    0  501    0  0.00000000000E+00 -0.00000000000E+00 -0.92383235577E+03  0.92383235577E+03  0.25500000000E-02 0. -1.
    8880023    1    1    2    0    0 -0.22513619929E+03  0.53643263057E+03  0.60547482016E+03  0.10671720759E+04  0.65864270000E+03 0.  0.
    8880022    1    1    2    0    0  0.22513619929E+03 -0.53643263057E+03 -0.56244749965E+03  0.82351995620E+03  0.15294330000E+03 0.  0.
<mgrwt>
<rscale>  0 0.79932767E+03</rscale>
<asrwt>0</asrwt>
<pdfrwt beam="1">  1        2 0.14212805E+00 0.87878125E+03</pdfrwt>
<pdfrwt beam="2">  1       -2 0.14874764E+00 0.87878125E+03</pdfrwt>
<totfact> 0.86830509E+00</totfact>
</mgrwt>
</event>
<event>
 4    1  0.7280516E-007  0.6955768E+03  0.7818608E-02  0.1001607E+00
         -2   -1    0    0    0  501 -0.00000000000E+00  0.00000000000E+00  0.28051570598E+03  0.28051570599E+03  0.25500000000E-02 0.  1.
          2   -1    0    0  501    0  0.00000000000E+00 -0.00000000000E+00 -0.92264768188E+03  0.92264768189E+03  0.25500000000E-02 0. -1.
    8880023    1    1    2    0    0  0.99853224671E+02  0.20011565211E+03 -0.61919913811E+03  0.93125437964E+03  0.65864270000E+03 0. -1.
    8880022    1    1    2    0    0 -0.99853224671E+02 -0.20011565211E+03 -0.22932837799E+02  0.27190900824E+03  0.15294330000E+03 0.  0.
<mgrwt>
<rscale>  0 0.54951202E+03</rscale>
<asrwt>0</asrwt>
<pdfrwt beam="1">  1        2 0.14194580E+00 0.69557684E+03</pdfrwt>
<pdfrwt beam="2">  1       -2 0.43156263E-01 0.69557684E+03</pdfrwt>
<totfact> 0.14628921E+02</totfact>
</mgrwt>
</event>
<event>
 4    1  0.7280516E-007  0.7016232E+03  0.7818608E-02  0.9990533E-01
          2   -1    0    0  501    0  0.00000000000E+00  0.00000000000E+00  0.90126880150E+03  0.90126880151E+03  0.25500000000E-02 0. -1.
         -2   -1    0    0    0  501 -0.00000000000E+00 -0.00000000000E+00 -0.59610749639E+03  0.59610749640E+03  0.25500000000E-02 0.  1.
    8880023    1    1    2    0    0 -0.23458479979E+03 -0.58607968957E+02  0.71226100241E+03  0.99979541114E+03  0.65864270000E+03 0. -1.
    8880022    1    1    2    0    0  0.23458479979E+03  0.58607968957E+02 -0.40709969730E+03  0.49758088676E+03  0.15294330000E+03 0.  0.
<mgrwt>
<rscale>  0 0.56067302E+03</rscale>
<asrwt>0</asrwt>
<pdfrwt beam="1">  1        2 0.13865674E+00 0.70162321E+03</pdfrwt>
<pdfrwt beam="2">  1       -2 0.91708846E-01 0.70162321E+03</pdfrwt>
<totfact> 0.30195191E+01</totfact>
</mgrwt>
</event>
<event>
 4    1  0.7280516E-007  0.1139596E+04  0.7818608E-02  0.9218200E-01
         -2   -1    0    0    0  501 -0.00000000000E+00  0.00000000000E+00  0.82179734962E+03  0.82179734963E+03  0.25500000000E-02 0.  1.
          2   -1    0    0  501    0  0.00000000000E+00 -0.00000000000E+00 -0.14667914704E+04  0.14667914704E+04  0.25500000000E-02 0. -1.
    8880023    1    1    2    0    0  0.91206544226E+03 -0.18167535160E+03 -0.71199838322E+03  0.13437340542E+04  0.65864270000E+03 0. -1.
    8880022    1    1    2    0    0 -0.91206544226E+03  0.18167535160E+03  0.67004262453E+02  0.94485476585E+03  0.15294330000E+03 0.  0.
<mgrwt>
<rscale>  0 0.10867529E+04</rscale>
<asrwt>0</asrwt>
<pdfrwt beam="1">  1        2 0.22566022E+00 0.11395962E+04</pdfrwt>
<pdfrwt beam="2">  1       -2 0.12643036E+00 0.11395962E+04</pdfrwt>
<totfact> 0.60510503E+00</totfact>
</mgrwt>
</event>
<event>
 4    1  0.7280516E-007  0.6856717E+03  0.7818608E-02  0.1006282E+00
         -2   -1    0    0    0  501 -0.00000000000E+00  0.00000000000E+00  0.19259203558E+04  0.19259203558E+04  0.25500000000E-02 0.  1.
          2   -1    0    0  501    0  0.00000000000E+00 -0.00000000000E+00 -0.14983573909E+03  0.14983573911E+03  0.25500000000E-02 0. -1.
    8880023    1    1    2    0    0 -0.74130350869E+02 -0.17561353037E+03  0.73007692398E+03  0.10015777265E+04  0.65864270000E+03 0. -1.
    8880022    1    1    2    0    0  0.74130350869E+02  0.17561353037E+03  0.10460076927E+04  0.10741783684E+04  0.15294330000E+03 0.  0.
<mgrwt>
<rscale>  0 0.52979585E+03</rscale>
<asrwt>0</asrwt>
<pdfrwt beam="1">  1        2 0.23051654E-01 0.68567166E+03</pdfrwt>
<pdfrwt beam="2">  1       -2 0.29629542E+00 0.68567166E+03</pdfrwt>
<totfact> 0.84264391E+00</totfact>
</mgrwt>
</event>
<event>
 4    1  0.7280516E-007  0.6722966E+03  0.7818608E-02  0.1014067E+00
         -2   -1    0    0    0  501 -0.00000000000E+00  0.00000000000E+00  0.39351466442E+03  0.39351466442E+03  0.25500000000E-02 0.  1.
          2   -1    0    0  501    0  0.00000000000E+00 -0.00000000000E+00 -0.10580254379E+04  0.10580254379E+04  0.25500000000E-02 0. -1.
    8880023    1    1    2    0    0 -0.19413960820E+02  0.13340013228E+03 -0.91065176720E+03  0.11319316872E+04  0.65864270000E+03 0. -1.
    8880022    1    1    2    0    0  0.19413960820E+02 -0.13340013228E+03  0.24614099375E+03  0.31960841507E+03  0.15294330000E+03 0.  0.
<mgrwt>
<rscale>  0 0.49889660E+03</rscale>
<asrwt>0</asrwt>
<pdfrwt beam="1">  1        2 0.16277314E+00 0.67229659E+03</pdfrwt>
<pdfrwt beam="2">  1       -2 0.60540718E-01 0.67229659E+03</pdfrwt>
<totfact> 0.60140420E+01</totfact>
</mgrwt>
</event>
<event>
 4    1  0.7280516E-007  0.7871517E+03  0.7818608E-02  0.9739298E-01
         -2   -1    0    0    0  501 -0.00000000000E+00  0.00000000000E+00  0.25453223364E+03  0.25453223365E+03  0.25500000000E-02 0.  1.
          2   -1    0    0  501    0  0.00000000000E+00 -0.00000000000E+00 -0.31155880743E+04  0.31155880743E+04  0.25500000000E-02 0. -1.
    8880023    1    1    2    0    0  0.62109143393E+02  0.42654424942E+03 -0.28001812160E+04  0.29087149381E+04  0.65864270000E+03 0. -1.
    8880022    1    1    2    0    0 -0.62109143393E+02 -0.42654424942E+03 -0.60874624683E+02  0.46140536988E+03  0.15294330000E+03 0.  0.
<mgrwt>
<rscale>  0 0.68724442E+03</rscale>
<asrwt>0</asrwt>
<pdfrwt beam="1">  1        2 0.47932121E+00 0.78715167E+03</pdfrwt>
<pdfrwt beam="2">  1       -2 0.39158807E-01 0.78715167E+03</pdfrwt>
<totfact> 0.96107521E+00</totfact>
</mgrwt>
</event>
<event>
 4    1  0.8577306E-007  0.7036754E+03  0.7818608E-02  0.9982283E-01
         -2   -1    0    0    0  501 -0.00000000000E+00  0.00000000000E+00  0.13364693391E+04  0.13364693391E+04  0.25500000000E-02 0.  1.
          2   -1    0    0  501    0  0.00000000000E+00 -0.00000000000E+00 -0.10657312569E+04  0.10657312569E+04  0.25500000000E-02 0. -1.
    8880023    1    1    2    0    0 -0.16029781850E+02  0.24716789249E+03 -0.93026208286E+03  0.11664247383E+04  0.65864270000E+03 0. -1.
    8880022    1    1    2    0    0  0.16029781850E+02 -0.24716789249E+03  0.12010001651E+04  0.12357758577E+04  0.15294330000E+03 0.  0.
<mgrwt>
<rscale>  0 0.56433985E+03</rscale>
<asrwt>0</asrwt>
<pdfrwt beam="1">  1        2 0.16395866E+00 0.70367544E+03</pdfrwt>
<pdfrwt beam="2">  1       -2 0.20561067E+00 0.70367544E+03</pdfrwt>
<totfact> 0.28910462E+00</totfact>
</mgrwt>
</event>
<event>
 4    1  0.7280516E-007  0.9776168E+03  0.7818608E-02  0.9411446E-01
          2   -1    0    0  501    0  0.00000000000E+00  0.00000000000E+00  0.15523326429E+04  0.15523326429E+04  0.25500000000E-02 0. -1.
         -2   -1    0    0    0  501 -0.00000000000E+00 -0.00000000000E+00 -0.49837859049E+03  0.49837859049E+03  0.25500000000E-02 0.  1.
    8880023    1    1    2    0    0 -0.24023646722E+03  0.68133018453E+03  0.37344585842E+03  0.10465163142E+04  0.65864270000E+03 0.  0.
    8880022    1    1    2    0    0  0.24023646722E+03 -0.68133018453E+03  0.68050819396E+03  0.10041949191E+04  0.15294330000E+03 0.  0.
<mgrwt>
<rscale>  0 0.91139685E+03</rscale>
<asrwt>0</asrwt>
<pdfrwt beam="1">  1        2 0.23882041E+00 0.97761679E+03</pdfrwt>
<pdfrwt beam="2">  1       -2 0.76673629E-01 0.97761679E+03</pdfrwt>
<totfact> 0.18028920E+01</totfact>
</mgrwt>
</event>
<event>
 4    1  0.7280516E-007  0.8671089E+03  0.7818608E-02  0.9581041E-01
          2   -1    0    0  501    0  0.00000000000E+00  0.00000000000E+00  0.14893784068E+04  0.14893784068E+04  0.25500000000E-02 0. -1.
         -2   -1    0    0    0  501 -0.00000000000E+00 -0.00000000000E+00 -0.71392770420E+03  0.71392770421E+03  0.25500000000E-02 0.  1.
    8880023    1    1    2    0    0 -0.10847641351E+03 -0.55344419590E+03  0.12003703556E+04  0.14807993811E+04  0.65864270000E+03 0. -1.
    8880022    1    1    2    0    0  0.10847641351E+03  0.55344419590E+03 -0.42491965298E+03  0.72250672991E+03  0.15294330000E+03 0.  0.
<mgrwt>
<rscale>  0 0.78563820E+03</rscale>
<asrwt>0</asrwt>
<pdfrwt beam="1">  1        2 0.22913514E+00 0.86710888E+03</pdfrwt>
<pdfrwt beam="2">  1       -2 0.10983503E+00 0.86710888E+03</pdfrwt>
<totfact> 0.85663089E+00</totfact>
</mgrwt>
</event>
<event>
 4    1  0.7280516E-007  0.6686973E+03  0.7818608E-02  0.1016614E+00
          2   -1    0    0  501    0  0.00000000000E+00  0.00000000000E+00  0.16276847225E+04  0.16276847225E+04  0.25500000000E-02 0. -1.
         -2   -1    0    0    0  501 -0.00000000000E+00 -0.00000000000E+00 -0.28873925497E+03  0.28873925498E+03  0.25500000000E-02 0.  1.
    8880023    1    1    2    0    0 -0.27105314075E+01 -0.11549232951E+03  0.15150976226E+04  0.16561029067E+04  0.65864270000E+03 0. -1.
    8880022    1    1    2    0    0  0.27105314075E+01  0.11549232951E+03 -0.17615215508E+03  0.26032107082E+03  0.15294330000E+03 0.  0.
<mgrwt>
<rscale>  0 0.48928379E+03</rscale>
<asrwt>0</asrwt>
<pdfrwt beam="1">  1        2 0.25041304E+00 0.66869726E+03</pdfrwt>
<pdfrwt beam="2">  1       -2 0.44421423E-01 0.66869726E+03</pdfrwt>
<totfact> 0.53419895E+01</totfact>
</mgrwt>
</event>
<event>
 4    1  0.7280516E-007  0.7069617E+03  0.7818608E-02  0.9969461E-01
          2   -1    0    0  501    0  0.00000000000E+00  0.00000000000E+00  0.18969106389E+04  0.18969106389E+04  0.25500000000E-02 0. -1.
         -2   -1    0    0    0  501 -0.00000000000E+00 -0.00000000000E+00 -0.26831307809E+03  0.26831307810E+03  0.25500000000E-02 0.  1.
    8880023    1    1    2    0    0 -0.20538639891E+03  0.15427592654E+03  0.17141932766E+04  0.18542527956E+04  0.65864270000E+03 0.  0.
    8880022    1    1    2    0    0  0.20538639891E+03 -0.15427592654E+03 -0.85595715776E+02  0.31097092137E+03  0.15294330000E+03 0.  1.
<mgrwt>
<rscale>  0 0.57009824E+03</rscale>
<asrwt>0</asrwt>
<pdfrwt beam="1">  1        2 0.29183240E+00 0.70696170E+03</pdfrwt>
<pdfrwt beam="2">  1       -2 0.41278936E-01 0.70696170E+03</pdfrwt>
<totfact> 0.43833383E+01</totfact>
</mgrwt>
</event>
<event>
 4    1  0.7280516E-007  0.1109612E+04  0.7818608E-02  0.9250429E-01
          2   -1    0    0  501    0  0.00000000000E+00  0.00000000000E+00  0.18013194235E+04  0.18013194235E+04  0.25500000000E-02 0. -1.
         -2   -1    0    0    0  501 -0.00000000000E+00 -0.00000000000E+00 -0.13180247960E+04  0.13180247960E+04  0.25500000000E-02 0.  1.
    8880023    1    1    2    0    0 -0.47311496458E+03  0.75735762761E+03  0.14293142934E+04  0.18094689556E+04  0.65864270000E+03 0.  0.
    8880022    1    1    2    0    0  0.47311496458E+03 -0.75735762761E+03 -0.94601966583E+03  0.13098752639E+04  0.15294330000E+03 0.  0.
<mgrwt>
<rscale>  0 0.10547738E+04</rscale>
<asrwt>0</asrwt>
<pdfrwt beam="1">  1        2 0.27712606E+00 0.11096119E+04</pdfrwt>
<pdfrwt beam="2">  1       -2 0.20277305E+00 0.11096119E+04</pdfrwt>
<totfact> 0.10784305E+00</totfact>
</mgrwt>
</event>
<event>
 4    1  0.7280516E-007  0.7707907E+03  0.7818608E-02  0.9777932E-01
          2   -1    0    0  501    0  0.00000000000E+00  0.00000000000E+00  0.13716242445E+04  0.13716242445E+04  0.25500000000E-02 0. -1.
         -2   -1    0    0    0  501 -0.00000000000E+00 -0.00000000000E+00 -0.46439425980E+03  0.46439425981E+03  0.25500000000E-02 0.  1.
    8880023    1    1    2    0    0 -0.39359729067E+03 -0.73411528326E+02  0.11183480982E+04  0.13582417881E+04  0.65864270000E+03 0. -1.
    8880022    1    1    2    0    0  0.39359729067E+03  0.73411528326E+02 -0.21111811354E+03  0.47777671626E+03  0.15294330000E+03 0.  0.
<mgrwt>
<rscale>  0 0.66560398E+03</rscale>
<asrwt>0</asrwt>
<pdfrwt beam="1">  1        2 0.21101911E+00 0.77079069E+03</pdfrwt>
<pdfrwt beam="2">  1       -2 0.71445272E-01 0.77079069E+03</pdfrwt>
<totfact> 0.27213319E+01</totfact>
</mgrwt>
</event>
<event>
 4    1  0.7280516E-007  0.1183060E+04  0.7818608E-02  0.9173768E-01
          2   -1    0    0  501    0  0.00000000000E+00  0.00000000000E+00  0.96988982511E+03  0.96988982511E+03  0.25500000000E-02 0. -1.
         -2   -1    0    0    0  501 -0.00000000000E+00 -0.00000000000E+00 -0.13848487248E+04  0.13848487248E+04  0.25500000000E-02 0.  1.
    8880023    1    1    2    0    0  0.82581937474E+03  0.53276907910E+03  0.17864766426E+03  0.11964722001E+04  0.65864270000E+03 0.  0.
    8880022    1    1    2    0    0 -0.82581937474E+03 -0.53276907910E+03 -0.59360656391E+03  0.11582663498E+04  0.15294330000E+03 0.  0.
<mgrwt>
<rscale>  0 0.11328339E+04</rscale>
<asrwt>0</asrwt>
<pdfrwt beam="1">  1        2 0.14921382E+00 0.11830599E+04</pdfrwt>
<pdfrwt beam="2">  1       -2 0.21305365E+00 0.11830599E+04</pdfrwt>
<totfact> 0.28102425E+00</totfact>
</mgrwt>
</event>
<event>
 4    1  0.7280516E-007  0.8127568E+03  0.7818608E-02  0.9683863E-01
          2   -1    0    0  501    0  0.00000000000E+00  0.00000000000E+00  0.74729924992E+03  0.74729924993E+03  0.25500000000E-02 0. -1.
         -2   -1    0    0    0  501 -0.00000000000E+00 -0.00000000000E+00 -0.98168858688E+03  0.98168858689E+03  0.25500000000E-02 0.  1.
    8880023    1    1    2    0    0 -0.38636285128E+03 -0.27836501209E+03  0.41238073511E+03  0.91138982316E+03  0.65864270000E+03 0. -1.
    8880022    1    1    2    0    0  0.38636285128E+03  0.27836501209E+03 -0.64677007207E+03  0.81759801366E+03  0.15294330000E+03 0.  0.
<mgrwt>
<rscale>  0 0.71985759E+03</rscale>
<asrwt>0</asrwt>
<pdfrwt beam="1">  1        2 0.11496912E+00 0.81275675E+03</pdfrwt>
<pdfrwt beam="2">  1       -2 0.15102901E+00 0.81275675E+03</pdfrwt>
<totfact> 0.11186415E+01</totfact>
</mgrwt>
</event>
<event>
 4    1  0.7280516E-007  0.7353286E+03  0.7818608E-02  0.9873770E-01
          2   -1    0    0  501    0  0.00000000000E+00  0.00000000000E+00  0.13690582591E+04  0.13690582591E+04  0.25500000000E-02 0. -1.
         -2   -1    0    0    0  501 -0.00000000000E+00 -0.00000000000E+00 -0.32322531263E+03  0.32322531264E+03  0.25500000000E-02 0.  1.
    8880023    1    1    2    0    0 -0.28854833282E+03 -0.15374570745E+03  0.11042016083E+04  0.13266383385E+04  0.65864270000E+03 0. -1.
    8880022    1    1    2    0    0  0.28854833282E+03  0.15374570745E+03 -0.58368661872E+02  0.36564523330E+03  0.15294330000E+03 0.  0.
<mgrwt>
<rscale>  0 0.61549534E+03</rscale>
<asrwt>0</asrwt>
<pdfrwt beam="1">  1        2 0.21062434E+00 0.73532856E+03</pdfrwt>
<pdfrwt beam="2">  1       -2 0.49726972E-01 0.73532856E+03</pdfrwt>
<totfact> 0.58887251E+01</totfact>
</mgrwt>
</event>
<event>
 4    1  0.7280516E-007  0.8696507E+03  0.7818608E-02  0.9576622E-01
          2   -1    0    0  501    0  0.00000000000E+00  0.00000000000E+00  0.11972115686E+04  0.11972115686E+04  0.25500000000E-02 0. -1.
         -2   -1    0    0    0  501 -0.00000000000E+00 -0.00000000000E+00 -0.50171570726E+03  0.50171570727E+03  0.25500000000E-02 0.  1.
    8880023    1    1    2    0    0 -0.25727160103E+03  0.50625437573E+03  0.69107516407E+03  0.11108002783E+04  0.65864270000E+03 0.  0.
    8880022    1    1    2    0    0  0.25727160103E+03 -0.50625437573E+03  0.44206972380E+01  0.58812699753E+03  0.15294330000E+03 0.  0.
<mgrwt>
<rscale>  0 0.78863012E+03</rscale>
<asrwt>0</asrwt>
<pdfrwt beam="1">  1        2 0.18418639E+00 0.86965072E+03</pdfrwt>
<pdfrwt beam="2">  1       -2 0.77187033E-01 0.86965072E+03</pdfrwt>
<totfact> 0.28676252E+01</totfact>
</mgrwt>
</event>
<event>
 4    1  0.7280516E-007  0.9913556E+03  0.7818608E-02  0.9392956E-01
          2   -1    0    0  501    0  0.00000000000E+00  0.00000000000E+00  0.10913880435E+04  0.10913880435E+04  0.25500000000E-02 0. -1.
         -2   -1    0    0    0  501 -0.00000000000E+00 -0.00000000000E+00 -0.98688751254E+03  0.98688751254E+03  0.25500000000E-02 0.  1.
    8880023    1    1    2    0    0  0.20464445775E+03  0.71210695473E+03  0.61405705556E+03  0.11661268982E+04  0.65864270000E+03 0.  0.
    8880022    1    1    2    0    0 -0.20464445775E+03 -0.71210695473E+03 -0.50955652463E+03  0.91214865777E+03  0.15294330000E+03 0.  0.
<mgrwt>
<rscale>  0 0.92657685E+03</rscale>
<asrwt>0</asrwt>
<pdfrwt beam="1">  1        2 0.16790585E+00 0.99135557E+03</pdfrwt>
<pdfrwt beam="2">  1       -2 0.15182885E+00 0.99135557E+03</pdfrwt>
<totfact> 0.63478157E+00</totfact>
</mgrwt>
</event>
<event>
 4    1  0.7280516E-007  0.7547933E+03  0.7818608E-02  0.9818778E-01
          2   -1    0    0  501    0  0.00000000000E+00  0.00000000000E+00  0.22896406330E+04  0.22896406330E+04  0.25500000000E-02 0. -1.
         -2   -1    0    0    0  501 -0.00000000000E+00 -0.00000000000E+00 -0.15505301896E+03  0.15505301899E+03  0.25500000000E-02 0.  1.
    8880023    1    1    2    0    0 -0.48852374561E+02  0.36539870261E+03  0.16670854679E+04  0.18299964289E+04  0.65864270000E+03 0.  0.
    8880022    1    1    2    0    0  0.48852374561E+02 -0.36539870261E+03  0.46750214614E+03  0.61469722306E+03  0.15294330000E+03 0.  0.
<mgrwt>
<rscale>  0 0.64364457E+03</rscale>
<asrwt>0</asrwt>
<pdfrwt beam="1">  1        2 0.35225239E+00 0.75479333E+03</pdfrwt>
<pdfrwt beam="2">  1       -2 0.23854311E-01 0.75479333E+03</pdfrwt>
<totfact> 0.74078967E+01</totfact>
</mgrwt>
</event>
<event>
 4    1  0.7459807E-007  0.7504411E+03  0.7818608E-02  0.9830514E-01
          2   -1    0    0  501    0  0.00000000000E+00  0.00000000000E+00  0.12522942939E+04  0.12522942939E+04  0.25500000000E-02 0. -1.
         -2   -1    0    0    0  501 -0.00000000000E+00 -0.00000000000E+00 -0.10591515199E+04  0.10591515199E+04  0.25500000000E-02 0.  1.
    8880023    1    1    2    0    0 -0.30130256541E+03 -0.19638831650E+03  0.10956159591E+04  0.13279819814E+04  0.65864270000E+03 0. -1.
    8880022    1    1    2    0    0  0.30130256541E+03  0.19638831650E+03 -0.90247318509E+03  0.98346383239E+03  0.15294330000E+03 0.  0.
<mgrwt>
<rscale>  0 0.63750369E+03</rscale>
<asrwt>0</asrwt>
<pdfrwt beam="1">  1        2 0.19266066E+00 0.75044108E+03</pdfrwt>
<pdfrwt beam="2">  1       -2 0.16294639E+00 0.75044108E+03</pdfrwt>
<totfact> 0.43231557E+00</totfact>
</mgrwt>
</event>
<event>
 4    1  0.7280516E-007  0.7180347E+03  0.7818608E-02  0.9929293E-01
         -2   -1    0    0    0  501 -0.00000000000E+00  0.00000000000E+00  0.27067295558E+03  0.27067295559E+03  0.25500000000E-02 0.  1.
          2   -1    0    0  501    0  0.00000000000E+00 -0.00000000000E+00 -0.22898680393E+04  0.22898680394E+04  0.25500000000E-02 0. -1.
    8880023    1    1    2    0    0  0.23145349540E+03 -0.16790736235E+03 -0.21058386797E+04  0.22248888408E+04  0.65864270000E+03 0. -1.
    8880022    1    1    2    0    0 -0.23145349540E+03  0.16790736235E+03  0.86643595890E+02  0.33565215415E+03  0.15294330000E+03 0.  0.
<mgrwt>
<rscale>  0 0.58862397E+03</rscale>
<asrwt>0</asrwt>
<pdfrwt beam="1">  1        2 0.35228738E+00 0.71803469E+03</pdfrwt>
<pdfrwt beam="2">  1       -2 0.41641995E-01 0.71803469E+03</pdfrwt>
<totfact> 0.26210981E+01</totfact>
</mgrwt>
</event>
<event>
 4    1  0.7280516E-007  0.8367725E+03  0.7818608E-02  0.9636296E-01
          2   -1    0    0  501    0  0.00000000000E+00  0.00000000000E+00  0.46958098706E+03  0.46958098707E+03  0.25500000000E-02 0. -1.
         -2   -1    0    0    0  501 -0.00000000000E+00 -0.00000000000E+00 -0.11681693798E+04  0.11681693798E+04  0.25500000000E-02 0.  1.
    8880023    1    1    2    0    0 -0.45053251083E+03 -0.25179056514E+03 -0.11638922026E+03  0.84482820080E+03  0.65864270000E+03 0. -1.
    8880022    1    1    2    0    0  0.45053251083E+03  0.25179056514E+03 -0.58219917247E+03  0.79292216607E+03  0.15294330000E+03 0.  0.
<mgrwt>
<rscale>  0 0.74939738E+03</rscale>
<asrwt>0</asrwt>
<pdfrwt beam="1">  1        2 0.72243229E-01 0.83677251E+03</pdfrwt>
<pdfrwt beam="2">  1       -2 0.17971837E+00 0.83677251E+03</pdfrwt>
<totfact> 0.12160279E+01</totfact>
</mgrwt>
</event>
<event>
 4    1  0.7280516E-007  0.8047738E+03  0.7818608E-02  0.9700568E-01
         -2   -1    0    0    0  501 -0.00000000000E+00  0.00000000000E+00  0.40923285065E+03  0.40923285066E+03  0.25500000000E-02 0.  1.
          2   -1    0    0  501    0  0.00000000000E+00 -0.00000000000E+00 -0.10213257896E+04  0.10213257896E+04  0.25500000000E-02 0. -1.
    8880023    1    1    2    0    0 -0.43317892460E+03  0.16188461998E+03 -0.41038380146E+03  0.90336907279E+03  0.65864270000E+03 0. -1.
    8880022    1    1    2    0    0  0.43317892460E+03 -0.16188461998E+03 -0.20170913752E+03  0.52718956750E+03  0.15294330000E+03 0.  1.
<mgrwt>
<rscale>  0 0.70983003E+03</rscale>
<asrwt>0</asrwt>
<pdfrwt beam="1">  1        2 0.15712704E+00 0.80477377E+03</pdfrwt>
<pdfrwt beam="2">  1       -2 0.62958900E-01 0.80477377E+03</pdfrwt>
<totfact> 0.57681449E+01</totfact>
</mgrwt>
</event>
<event>
 4    1  0.7280516E-007  0.9299069E+03  0.7818608E-02  0.9479633E-01
          2   -1    0    0  501    0  0.00000000000E+00  0.00000000000E+00  0.15422303542E+04  0.15422303542E+04  0.25500000000E-02 0. -1.
         -2   -1    0    0    0  501 -0.00000000000E+00 -0.00000000000E+00 -0.47759056830E+03  0.47759056831E+03  0.25500000000E-02 0.  1.
    8880023    1    1    2    0    0 -0.41063613307E+03  0.51214698439E+03  0.25085245491E+03  0.96314782241E+03  0.65864270000E+03 0.  0.
    8880022    1    1    2    0    0  0.41063613307E+03 -0.51214698439E+03  0.81378733102E+03  0.10566731001E+04  0.15294330000E+03 0.  0.
<mgrwt>
<rscale>  0 0.85802198E+03</rscale>
<asrwt>0</asrwt>
<pdfrwt beam="1">  1        2 0.23726621E+00 0.92990686E+03</pdfrwt>
<pdfrwt beam="2">  1       -2 0.73475473E-01 0.92990686E+03</pdfrwt>
<totfact> 0.20173520E+01</totfact>
</mgrwt>
</event>
<event>
 4    1  0.7280516E-007  0.7946495E+03  0.7818608E-02  0.9722486E-01
         -2   -1    0    0    0  501 -0.00000000000E+00  0.00000000000E+00  0.40614755930E+03  0.40614755931E+03  0.25500000000E-02 0.  1.
          2   -1    0    0  501    0  0.00000000000E+00 -0.00000000000E+00 -0.18584319365E+04  0.18584319365E+04  0.25500000000E-02 0. -1.
    8880023    1    1    2    0    0 -0.26359873921E+03 -0.35801312389E+03 -0.15875698271E+04  0.17753438694E+04  0.65864270000E+03 0. -1.
    8880022    1    1    2    0    0  0.26359873921E+03  0.35801312389E+03  0.13528544996E+03  0.48923562643E+03  0.15294330000E+03 0.  0.
<mgrwt>
<rscale>  0 0.69693598E+03</rscale>
<asrwt>0</asrwt>
<pdfrwt beam="1">  1        2 0.28591260E+00 0.79464954E+03</pdfrwt>
<pdfrwt beam="2">  1       -2 0.62484241E-01 0.79464954E+03</pdfrwt>
<totfact> 0.19502664E+01</totfact>
</mgrwt>
</event>
<event>
 4    1  0.7280516E-007  0.1194034E+04  0.7818608E-02  0.9162944E-01
          2   -1    0    0  501    0  0.00000000000E+00  0.00000000000E+00  0.29055856885E+04  0.29055856885E+04  0.25500000000E-02 0. -1.
         -2   -1    0    0    0  501 -0.00000000000E+00 -0.00000000000E+00 -0.75504785955E+03  0.75504785955E+03  0.25500000000E-02 0.  1.
    8880023    1    1    2    0    0  0.46890699314E+02 -0.99484047050E+03 -0.96591448712E+02  0.11979342276E+04  0.65864270000E+03 0.  0.
    8880022    1    1    2    0    0 -0.46890699314E+02  0.99484047050E+03  0.22471292777E+04  0.24626993205E+04  0.15294330000E+03 0. -1.
<mgrwt>
<rscale>  0 0.11444231E+04</rscale>
<asrwt>0</asrwt>
<pdfrwt beam="1">  1        2 0.44701318E+00 0.11940337E+04</pdfrwt>
<pdfrwt beam="2">  1       -2 0.11616121E+00 0.11940337E+04</pdfrwt>
<totfact> 0.11325643E+00</totfact>
</mgrwt>
</event>
<event>
 4    1  0.7280516E-007  0.1090242E+04  0.7818608E-02  0.9271999E-01
         -2   -1    0    0    0  501 -0.00000000000E+00  0.00000000000E+00  0.98141589125E+03  0.98141589125E+03  0.25500000000E-02 0.  1.
          2   -1    0    0  501    0  0.00000000000E+00 -0.00000000000E+00 -0.23924539541E+04  0.23924539541E+04  0.25500000000E-02 0. -1.
    8880023    1    1    2    0    0 -0.29930788679E+03  0.81561784004E+03 -0.20244827797E+04  0.22993821787E+04  0.65864270000E+03 0. -1.
    8880022    1    1    2    0    0  0.29930788679E+03 -0.81561784004E+03  0.61344471687E+03  0.10744876666E+04  0.15294330000E+03 0.  0.
<mgrwt>
<rscale>  0 0.10340208E+04</rscale>
<asrwt>0</asrwt>
<pdfrwt beam="1">  1        2 0.36806984E+00 0.10902421E+04</pdfrwt>
<pdfrwt beam="2">  1       -2 0.15098706E+00 0.10902421E+04</pdfrwt>
<totfact> 0.11713001E+00</totfact>
</mgrwt>
</event>
<event>
 4    1  0.7280516E-007  0.8026890E+03  0.7818608E-02  0.9705012E-01
          2   -1    0    0  501    0  0.00000000000E+00  0.00000000000E+00  0.39270850751E+04  0.39270850751E+04  0.25500000000E-02 0. -1.
         -2   -1    0    0    0  501 -0.00000000000E+00 -0.00000000000E+00 -0.20314869989E+03  0.20314869991E+03  0.25500000000E-02 0.  1.
    8880023    1    1    2    0    0  0.43860951162E+03 -0.13461469795E+03  0.35113871849E+04  0.36019646846E+04  0.65864270000E+03 0.  1.
    8880022    1    1    2    0    0 -0.43860951162E+03  0.13461469795E+03  0.21254919035E+03  0.52826909044E+03  0.15294330000E+03 0.  0.
<mgrwt>
<rscale>  0 0.70719175E+03</rscale>
<asrwt>0</asrwt>
<pdfrwt beam="1">  1        2 0.60416687E+00 0.80268900E+03</pdfrwt>
<pdfrwt beam="2">  1       -2 0.31253649E-01 0.80268900E+03</pdfrwt>
<totfact> 0.40501796E+00</totfact>
</mgrwt>
</event>
<event>
 4    1  0.7280516E-007  0.7050035E+03  0.7818608E-02  0.9977045E-01
          2   -1    0    0  501    0  0.00000000000E+00  0.00000000000E+00  0.12912431599E+04  0.12912431599E+04  0.25500000000E-02 0. -1.
         -2   -1    0    0    0  501 -0.00000000000E+00 -0.00000000000E+00 -0.38028826123E+03  0.38028826124E+03  0.25500000000E-02 0.  1.
    8880023    1    1    2    0    0  0.17728945572E+03 -0.17829234771E+03  0.11109097525E+04  0.13157318864E+04  0.65864270000E+03 0.  0.
    8880022    1    1    2    0    0 -0.17728945572E+03  0.17829234771E+03 -0.19995485382E+03  0.35579953477E+03  0.15294330000E+03 0.  0.
<mgrwt>
<rscale>  0 0.56668316E+03</rscale>
<asrwt>0</asrwt>
<pdfrwt beam="1">  1        2 0.19865279E+00 0.70500349E+03</pdfrwt>
<pdfrwt beam="2">  1       -2 0.58505886E-01 0.70500349E+03</pdfrwt>
<totfact> 0.46776987E+01</totfact>
</mgrwt>
</event>
<event>
 4    1  0.7280516E-007  0.6965513E+03  0.7818608E-02  0.1001182E+00
          2   -1    0    0  501    0  0.00000000000E+00  0.00000000000E+00  0.20597438975E+04  0.20597438975E+04  0.25500000000E-02 0. -1.
         -2   -1    0    0    0  501 -0.00000000000E+00 -0.00000000000E+00 -0.17921744016E+03  0.17921744018E+03  0.25500000000E-02 0.  1.
    8880023    1    1    2    0    0 -0.17613725346E+03  0.14265045703E+03  0.18337110907E+04  0.19615504213E+04  0.65864270000E+03 0.  0.
    8880022    1    1    2    0    0  0.17613725346E+03 -0.14265045703E+03  0.46815366625E+02  0.27741091636E+03  0.15294330000E+03 0.  0.
<mgrwt>
<rscale>  0 0.55134979E+03</rscale>
<asrwt>0</asrwt>
<pdfrwt beam="1">  1        2 0.31688365E+00 0.69655128E+03</pdfrwt>
<pdfrwt beam="2">  1       -2 0.27571916E-01 0.69655128E+03</pdfrwt>
<totfact> 0.76786425E+01</totfact>
</mgrwt>
</event>
<event>
 4    1  0.7280516E-007  0.6981008E+03  0.7818608E-02  0.1000517E+00
         -2   -1    0    0    0  501 -0.00000000000E+00  0.00000000000E+00  0.35086321709E+03  0.35086321710E+03  0.25500000000E-02 0.  1.
          2   -1    0    0  501    0  0.00000000000E+00 -0.00000000000E+00 -0.17654995143E+04  0.17654995143E+04  0.25500000000E-02 0. -1.
    8880023    1    1    2    0    0  0.17929918684E+03  0.14624066053E+03 -0.16247689704E+04  0.17683944533E+04  0.65864270000E+03 0. -1.
    8880022    1    1    2    0    0 -0.17929918684E+03 -0.14624066053E+03  0.21013267318E+03  0.34796827807E+03  0.15294330000E+03 0.  0.
<mgrwt>
<rscale>  0 0.55424001E+03</rscale>
<asrwt>0</asrwt>
<pdfrwt beam="1">  1        2 0.27161530E+00 0.69810081E+03</pdfrwt>
<pdfrwt beam="2">  1       -2 0.53978958E-01 0.69810081E+03</pdfrwt>
<totfact> 0.30164803E+01</totfact>
</mgrwt>
</event>
<event>
 4    1  0.7280516E-007  0.6801354E+03  0.7818608E-02  0.1009247E+00
         -2   -1    0    0    0  501 -0.00000000000E+00  0.00000000000E+00  0.23121004526E+03  0.23121004527E+03  0.25500000000E-02 0.  1.
          2   -1    0    0  501    0  0.00000000000E+00 -0.00000000000E+00 -0.10300187310E+04  0.10300187310E+04  0.25500000000E-02 0. -1.
    8880023    1    1    2    0    0 -0.73066056338E+02  0.15308603314E+03 -0.77572787398E+03  0.10316675447E+04  0.65864270000E+03 0. -1.
    8880022    1    1    2    0    0  0.73066056338E+02 -0.15308603314E+03 -0.23080811741E+02  0.22956123152E+03  0.15294330000E+03 0. -1.
<mgrwt>
<rscale>  0 0.51774940E+03</rscale>
<asrwt>0</asrwt>
<pdfrwt beam="1">  1        2 0.15846442E+00 0.68013542E+03</pdfrwt>
<pdfrwt beam="2">  1       -2 0.35570777E-01 0.68013542E+03</pdfrwt>
<totfact> 0.18173150E+02</totfact>
</mgrwt>
</event>
<event>
 4    1  0.7280516E-007  0.1152325E+04  0.7818608E-02  0.9204919E-01
         -2   -1    0    0    0  501 -0.00000000000E+00  0.00000000000E+00  0.18734680470E+04  0.18734680470E+04  0.25500000000E-02 0.  1.
          2   -1    0    0  501    0  0.00000000000E+00 -0.00000000000E+00 -0.10533969104E+04  0.10533969104E+04  0.25500000000E-02 0. -1.
    8880023    1    1    2    0    0  0.93568991329E+03 -0.13611657040E+03  0.13952716585E+04  0.18095956846E+04  0.65864270000E+03 0.  0.
    8880022    1    1    2    0    0 -0.93568991329E+03  0.13611657040E+03 -0.57520052188E+03  0.11172692728E+04  0.15294330000E+03 0.  0.
<mgrwt>
<rscale>  0 0.11002800E+04</rscale>
<asrwt>0</asrwt>
<pdfrwt beam="1">  1        2 0.16206107E+00 0.11523253E+04</pdfrwt>
<pdfrwt beam="2">  1       -2 0.28822585E+00 0.11523253E+04</pdfrwt>
<totfact> 0.85830662E-01</totfact>
</mgrwt>
</event>
<event>
 4    1  0.7280516E-007  0.1295971E+04  0.7818608E-02  0.9069047E-01
         -2   -1    0    0    0  501 -0.00000000000E+00  0.00000000000E+00  0.52867953437E+03  0.52867953437E+03  0.25500000000E-02 0.  1.
          2   -1    0    0  501    0  0.00000000000E+00 -0.00000000000E+00 -0.38151442144E+04  0.38151442144E+04  0.25500000000E-02 0. -1.
    8880023    1    1    2    0    0  0.10468477374E+04  0.38709316747E+03 -0.28587852420E+04  0.31388205701E+04  0.65864270000E+03 0.  0.
    8880022    1    1    2    0    0 -0.10468477374E+04 -0.38709316747E+03 -0.42767943803E+03  0.12050031786E+04  0.15294330000E+03 0.  0.
<mgrwt>
<rscale>  0 0.12513664E+04</rscale>
<asrwt>0</asrwt>
<pdfrwt beam="1">  1        2 0.58694525E+00 0.12959713E+04</pdfrwt>
<pdfrwt beam="2">  1       -2 0.81335315E-01 0.12959713E+04</pdfrwt>
<totfact> 0.63489396E-01</totfact>
</mgrwt>
</event>
<event>
 4    1  0.7280516E-007  0.1394728E+04  0.7818608E-02  0.8987790E-01
          2   -1    0    0  501    0  0.00000000000E+00  0.00000000000E+00  0.22942720885E+04  0.22942720885E+04  0.25500000000E-02 0. -1.
         -2   -1    0    0    0  501 -0.00000000000E+00 -0.00000000000E+00 -0.97618159424E+03  0.97618159424E+03  0.25500000000E-02 0.  1.
    8880023    1    1    2    0    0  0.85322748857E+01  0.12293834848E+04  0.14651664638E+04  0.20228641885E+04  0.65864270000E+03 0.  0.
    8880022    1    1    2    0    0 -0.85322748857E+01 -0.12293834848E+04 -0.14707596950E+03  0.12475894942E+04  0.15294330000E+03 0.  0.
<mgrwt>
<rscale>  0 0.13540209E+04</rscale>
<asrwt>0</asrwt>
<pdfrwt beam="1">  1        2 0.35296493E+00 0.13947282E+04</pdfrwt>
<pdfrwt beam="2">  1       -2 0.15018179E+00 0.13947282E+04</pdfrwt>
<totfact> 0.13020180E+00</totfact>
</mgrwt>
</event>
<event>
 4    1  0.7280516E-007  0.7628051E+03  0.7818608E-02  0.9797899E-01
          2   -1    0    0  501    0  0.00000000000E+00  0.00000000000E+00  0.39237895913E+04  0.39237895913E+04  0.25500000000E-02 0. -1.
         -2   -1    0    0    0  501 -0.00000000000E+00 -0.00000000000E+00 -0.26089590355E+03  0.26089590356E+03  0.25500000000E-02 0.  1.
    8880023    1    1    2    0    0  0.14230972507E+03  0.35750424435E+03  0.36916346464E+04  0.37696203936E+04  0.65864270000E+03 0. -1.
    8880022    1    1    2    0    0 -0.14230972507E+03 -0.35750424435E+03 -0.28740958701E+02  0.41506510128E+03  0.15294330000E+03 0.  0.
<mgrwt>
<rscale>  0 0.65475422E+03</rscale>
<asrwt>0</asrwt>
<pdfrwt beam="1">  1        2 0.60365989E+00 0.76280505E+03</pdfrwt>
<pdfrwt beam="2">  1       -2 0.40137834E-01 0.76280505E+03</pdfrwt>
<totfact> 0.25479647E+00</totfact>
</mgrwt>
</event>
<event>
 4    1  0.7280516E-007  0.7491925E+03  0.7818608E-02  0.9833936E-01
         -2   -1    0    0    0  501 -0.00000000000E+00  0.00000000000E+00  0.33129828732E+03  0.33129828733E+03  0.25500000000E-02 0.  1.
          2   -1    0    0  501    0  0.00000000000E+00 -0.00000000000E+00 -0.14935686131E+04  0.14935686131E+04  0.25500000000E-02 0. -1.
    8880023    1    1    2    0    0  0.30496893459E+03 -0.18566950795E+03 -0.12205056938E+04  0.14321045953E+04  0.65864270000E+03 0. -1.
    8880022    1    1    2    0    0 -0.30496893459E+03  0.18566950795E+03  0.58235367924E+02  0.39276230514E+03  0.15294330000E+03 0.  0.
<mgrwt>
<rscale>  0 0.63572713E+03</rscale>
<asrwt>0</asrwt>
<pdfrwt beam="1">  1        2 0.22977978E+00 0.74919251E+03</pdfrwt>
<pdfrwt beam="2">  1       -2 0.50968968E-01 0.74919251E+03</pdfrwt>
<totfact> 0.47593835E+01</totfact>
</mgrwt>
</event>
<event>
 4    1  0.7280516E-007  0.8075354E+03  0.7818608E-02  0.9694734E-01
         -2   -1    0    0    0  501 -0.00000000000E+00  0.00000000000E+00  0.59872483149E+03  0.59872483150E+03  0.25500000000E-02 0.  1.
          2   -1    0    0  501    0  0.00000000000E+00 -0.00000000000E+00 -0.15074546277E+04  0.15074546277E+04  0.25500000000E-02 0. -1.
    8880023    1    1    2    0    0  0.27787914063E+03  0.37561462322E+03 -0.12637799626E+04  0.14997510334E+04  0.65864270000E+03 0. -1.
    8880022    1    1    2    0    0 -0.27787914063E+03 -0.37561462322E+03  0.35505016640E+03  0.60642842582E+03  0.15294330000E+03 0.  0.
<mgrwt>
<rscale>  0 0.71331208E+03</rscale>
<asrwt>0</asrwt>
<pdfrwt beam="1">  1        2 0.23191610E+00 0.80753537E+03</pdfrwt>
<pdfrwt beam="2">  1       -2 0.92111513E-01 0.80753537E+03</pdfrwt>
<totfact> 0.12807111E+01</totfact>
</mgrwt>
</event>
<event>
 4    1  0.7280516E-007  0.1048959E+04  0.7818608E-02  0.9320134E-01
         -2   -1    0    0    0  501 -0.00000000000E+00  0.00000000000E+00  0.47282847238E+03  0.47282847239E+03  0.25500000000E-02 0.  1.
          2   -1    0    0  501    0  0.00000000000E+00 -0.00000000000E+00 -0.24732348402E+04  0.24732348402E+04  0.25500000000E-02 0. -1.
    8880023    1    1    2    0    0 -0.56917636060E+03 -0.58527220349E+03 -0.36292401575E+03  0.11099681658E+04  0.65864270000E+03 0.  0.
    8880022    1    1    2    0    0  0.56917636060E+03  0.58527220349E+03 -0.16374823521E+04  0.18360951468E+04  0.15294330000E+03 0.  0.
<mgrwt>
<rscale>  0 0.98950271E+03</rscale>
<asrwt>0</asrwt>
<pdfrwt beam="1">  1        2 0.38049766E+00 0.10489592E+04</pdfrwt>
<pdfrwt beam="2">  1       -2 0.72742843E-01 0.10489592E+04</pdfrwt>
<totfact> 0.61889665E+00</totfact>
</mgrwt>
</event>
<event>
 4    1  0.7280516E-007  0.7170304E+03  0.7818608E-02  0.9932765E-01
          2   -1    0    0  501    0  0.00000000000E+00  0.00000000000E+00  0.19850150396E+04  0.19850150396E+04  0.25500000000E-02 0. -1.
         -2   -1    0    0    0  501 -0.00000000000E+00 -0.00000000000E+00 -0.56196090161E+03  0.56196090161E+03  0.25500000000E-02 0.  1.
    8880023    1    1    2    0    0 -0.10745484652E+03 -0.26225153231E+03  0.18661773348E+04  0.19991874503E+04  0.65864270000E+03 0. -1.
    8880022    1    1    2    0    0  0.10745484652E+03  0.26225153231E+03 -0.44312319680E+03  0.54778849093E+03  0.15294330000E+03 0.  0.
<mgrwt>
<rscale>  0 0.58699296E+03</rscale>
<asrwt>0</asrwt>
<pdfrwt beam="1">  1        2 0.30538693E+00 0.71703042E+03</pdfrwt>
<pdfrwt beam="2">  1       -2 0.86455522E-01 0.71703042E+03</pdfrwt>
<totfact> 0.82150846E+00</totfact>
</mgrwt>
</event>
<event>
 4    1  0.7280516E-007  0.6923648E+03  0.7818608E-02  0.1003048E+00
          2   -1    0    0  501    0  0.00000000000E+00  0.00000000000E+00  0.10566564214E+04  0.10566564214E+04  0.25500000000E-02 0. -1.
         -2   -1    0    0    0  501 -0.00000000000E+00 -0.00000000000E+00 -0.98725658150E+03  0.98725658150E+03  0.25500000000E-02 0.  1.
    8880023    1    1    2    0    0 -0.15859555072E+03  0.14285060678E+03  0.92130162660E+03  0.11524607317E+04  0.65864270000E+03 0. -1.
    8880022    1    1    2    0    0  0.15859555072E+03 -0.14285060678E+03 -0.85190178674E+03  0.89145227120E+03  0.15294330000E+03 0.  0.
<mgrwt>
<rscale>  0 0.54333593E+03</rscale>
<asrwt>0</asrwt>
<pdfrwt beam="1">  1        2 0.16256253E+00 0.69236482E+03</pdfrwt>
<pdfrwt beam="2">  1       -2 0.15188563E+00 0.69236482E+03</pdfrwt>
<totfact> 0.69030686E+00</totfact>
</mgrwt>
</event>
<event>
 4    1  0.7280516E-007  0.7012055E+03  0.7818608E-02  0.9992236E-01
         -2   -1    0    0    0  501 -0.00000000000E+00  0.00000000000E+00  0.61615976133E+03  0.61615976133E+03  0.25500000000E-02 0.  1.
          2   -1    0    0  501    0  0.00000000000E+00 -0.00000000000E+00 -0.98801049640E+03  0.98801049641E+03  0.25500000000E-02 0. -1.
    8880023    1    1    2    0    0  0.23251170396E+03 -0.61784402664E+02 -0.81631831355E+03  0.10761341925E+04  0.65864270000E+03 0. -1.
    8880022    1    1    2    0    0 -0.23251170396E+03  0.61784402664E+02  0.44446757848E+03  0.52803606527E+03  0.15294330000E+03 0.  0.
<mgrwt>
<rscale>  0 0.55991967E+03</rscale>
<asrwt>0</asrwt>
<pdfrwt beam="1">  1        2 0.15200161E+00 0.70120554E+03</pdfrwt>
<pdfrwt beam="2">  1       -2 0.94793810E-01 0.70120554E+03</pdfrwt>
<totfact> 0.24532445E+01</totfact>
</mgrwt>
</event>
<event>
 4    1  0.7280516E-007  0.8553252E+03  0.7818608E-02  0.9601934E-01
         -2   -1    0    0    0  501 -0.00000000000E+00  0.00000000000E+00  0.91247791791E+03  0.91247791792E+03  0.25500000000E-02 0.  1.
          2   -1    0    0  501    0  0.00000000000E+00 -0.00000000000E+00 -0.11575624740E+04  0.11575624740E+04  0.25500000000E-02 0. -1.
    8880023    1    1    2    0    0 -0.38558525049E+03  0.38612831776E+03 -0.87439216833E+03  0.12231692170E+04  0.65864270000E+03 0.  0.
    8880022    1    1    2    0    0  0.38558525049E+03 -0.38612831776E+03  0.62930761220E+03  0.84687117495E+03  0.15294330000E+03 0.  0.
<mgrwt>
<rscale>  0 0.77168331E+03</rscale>
<asrwt>0</asrwt>
<pdfrwt beam="1">  1        2 0.17808653E+00 0.85532524E+03</pdfrwt>
<pdfrwt beam="2">  1       -2 0.14038122E+00 0.85532524E+03</pdfrwt>
<totfact> 0.72136161E+00</totfact>
</mgrwt>
</event>
<event>
 4    1  0.7280516E-007  0.6644759E+03  0.7818608E-02  0.1019977E+00
          2   -1    0    0  501    0  0.00000000000E+00  0.00000000000E+00  0.12430825208E+04  0.12430825208E+04  0.25500000000E-02 0. -1.
         -2   -1    0    0    0  501 -0.00000000000E+00 -0.00000000000E+00 -0.15490856181E+03  0.15490856183E+03  0.25500000000E-02 0.  1.
    8880023    1    1    2    0    0  0.55409978079E+02  0.68174588673E+02  0.10004224865E+04  0.12009885087E+04  0.65864270000E+03 0. -1.
    8880022    1    1    2    0    0 -0.55409978079E+02 -0.68174588673E+02  0.87751472501E+02  0.19700257397E+03  0.15294330000E+03 0.  0.
<mgrwt>
<rscale>  0 0.47694840E+03</rscale>
<asrwt>0</asrwt>
<pdfrwt beam="1">  1        2 0.19124347E+00 0.66447592E+03</pdfrwt>
<pdfrwt beam="2">  1       -2 0.23832086E-01 0.66447592E+03</pdfrwt>
<totfact> 0.28339035E+02</totfact>
</mgrwt>
</event>
<event>
 4    1  0.7280516E-007  0.8274641E+03  0.7818608E-02  0.9654287E-01
          2   -1    0    0  501    0  0.00000000000E+00  0.00000000000E+00  0.76223720772E+03  0.76223720773E+03  0.25500000000E-02 0. -1.
         -2   -1    0    0    0  501 -0.00000000000E+00 -0.00000000000E+00 -0.83873764259E+03  0.83873764259E+03  0.25500000000E-02 0.  1.
    8880023    1    1    2    0    0  0.45024996005E+03  0.21945737631E+03  0.37596810061E+03  0.90887226027E+03  0.65864270000E+03 0.  0.
    8880022    1    1    2    0    0 -0.45024996005E+03 -0.21945737631E+03 -0.45246853547E+03  0.69210259005E+03  0.15294330000E+03 0.  0.
<mgrwt>
<rscale>  0 0.73804998E+03</rscale>
<asrwt>0</asrwt>
<pdfrwt beam="1">  1        2 0.11726726E+00 0.82746406E+03</pdfrwt>
<pdfrwt beam="2">  1       -2 0.12903656E+00 0.82746406E+03</pdfrwt>
<totfact> 0.16366246E+01</totfact>
</mgrwt>
</event>
<event>
 4    1  0.7280516E-007  0.7081987E+03  0.7818608E-02  0.9964752E-01
          2   -1    0    0  501    0  0.00000000000E+00  0.00000000000E+00  0.49295366220E+03  0.49295366221E+03  0.25500000000E-02 0. -1.
         -2   -1    0    0    0  501 -0.00000000000E+00 -0.00000000000E+00 -0.12306843499E+04  0.12306843499E+04  0.25500000000E-02 0.  1.
    8880023    1    1    2    0    0  0.25775527361E+03 -0.36018741778E+02  0.20213713293E+03  0.73648133554E+03  0.65864270000E+03 0. -1.
    8880022    1    1    2    0    0 -0.25775527361E+03  0.36018741778E+02 -0.93986782062E+03  0.98715667656E+03  0.15294330000E+03 0.  1.
<mgrwt>
<rscale>  0 0.57223192E+03</rscale>
<asrwt>0</asrwt>
<pdfrwt beam="1">  1        2 0.75839025E-01 0.70819866E+03</pdfrwt>
<pdfrwt beam="2">  1       -2 0.18933605E+00 0.70819866E+03</pdfrwt>
<totfact> 0.10023230E+01</totfact>
</mgrwt>
</event>
<event>
 4    1  0.7280516E-007  0.8942564E+03  0.7818608E-02  0.9535316E-01
         -2   -1    0    0    0  501 -0.00000000000E+00  0.00000000000E+00  0.33922178608E+03  0.33922178609E+03  0.25500000000E-02 0.  1.
          2   -1    0    0  501    0  0.00000000000E+00 -0.00000000000E+00 -0.34419886717E+04  0.34419886717E+04  0.25500000000E-02 0. -1.
    8880023    1    1    2    0    0  0.13236734470E+03  0.59022302104E+03 -0.30226603243E+04  0.31521690898E+04  0.65864270000E+03 0. -1.
    8880022    1    1    2    0    0 -0.13236734470E+03 -0.59022302104E+03 -0.80106561393E+02  0.62904136804E+03  0.15294330000E+03 0.  0.
<mgrwt>
<rscale>  0 0.81729483E+03</rscale>
<asrwt>0</asrwt>
<pdfrwt beam="1">  1        2 0.52953670E+00 0.89425641E+03</pdfrwt>
<pdfrwt beam="2">  1       -2 0.52187969E-01 0.89425641E+03</pdfrwt>
<totfact> 0.32578603E+00</totfact>
</mgrwt>
</event>
<event>
 4    1  0.7280516E-007  0.1040854E+04  0.7818608E-02  0.9329957E-01
          2   -1    0    0  501    0  0.00000000000E+00  0.00000000000E+00  0.99952100733E+03  0.99952100733E+03  0.25500000000E-02 0. -1.
         -2   -1    0    0    0  501 -0.00000000000E+00 -0.00000000000E+00 -0.10769284946E+04  0.10769284946E+04  0.25500000000E-02 0.  1.
    8880023    1    1    2    0    0  0.16943238305E+03  0.78794662973E+03  0.41402166462E+03  0.11201747046E+04  0.65864270000E+03 0.  1.
    8880022    1    1    2    0    0 -0.16943238305E+03 -0.78794662973E+03 -0.49142915188E+03  0.95627479735E+03  0.15294330000E+03 0.  0.
<mgrwt>
<rscale>  0 0.98071086E+03</rscale>
<asrwt>0</asrwt>
<pdfrwt beam="1">  1        2 0.15377246E+00 0.10408542E+04</pdfrwt>
<pdfrwt beam="2">  1       -2 0.16568131E+00 0.10408542E+04</pdfrwt>
<totfact> 0.56960905E+00</totfact>
</mgrwt>
</event>
<event>
 4    1  0.7280516E-007  0.7754663E+03  0.7818608E-02  0.9766596E-01
         -2   -1    0    0    0  501 -0.00000000000E+00  0.00000000000E+00  0.24121350004E+04  0.24121350004E+04  0.25500000000E-02 0.  1.
          2   -1    0    0  501    0  0.00000000000E+00 -0.00000000000E+00 -0.40518226325E+03  0.40518226326E+03  0.25500000000E-02 0. -1.
    8880023    1    1    2    0    0 -0.32709627439E+03 -0.24606068874E+03  0.12506980726E+02  0.77556718993E+03  0.65864270000E+03 0. -1.
    8880022    1    1    2    0    0  0.32709627439E+03  0.24606068874E+03  0.19944457564E+04  0.20417500737E+04  0.15294330000E+03 0.  0.
<mgrwt>
<rscale>  0 0.67186395E+03</rscale>
<asrwt>0</asrwt>
<pdfrwt beam="1">  1        2 0.62335732E-01 0.77546634E+03</pdfrwt>
<pdfrwt beam="2">  1       -2 0.37109770E+00 0.77546634E+03</pdfrwt>
<totfact> 0.94293570E-01</totfact>
</mgrwt>
</event>
<event>
 4    1  0.7280516E-007  0.6683515E+03  0.7818608E-02  0.1016873E+00
         -2   -1    0    0    0  501 -0.00000000000E+00  0.00000000000E+00  0.33161093956E+03  0.33161093957E+03  0.25500000000E-02 0.  1.
          2   -1    0    0  501    0  0.00000000000E+00 -0.00000000000E+00 -0.88717936139E+03  0.88717936139E+03  0.25500000000E-02 0. -1.
    8880023    1    1    2    0    0  0.59270006559E+02  0.96801488008E+02 -0.70889509231E+03  0.97428225885E+03  0.65864270000E+03 0. -1.
    8880022    1    1    2    0    0 -0.59270006559E+02 -0.96801488008E+02  0.15332667048E+03  0.24450804210E+03  0.15294330000E+03 0.  0.
<mgrwt>
<rscale>  0 0.48832029E+03</rscale>
<asrwt>0</asrwt>
<pdfrwt beam="1">  1        2 0.13648913E+00 0.66835146E+03</pdfrwt>
<pdfrwt beam="2">  1       -2 0.51017068E-01 0.66835146E+03</pdfrwt>
<totfact> 0.11063415E+02</totfact>
</mgrwt>
</event>
<event>
 4    1  0.7280516E-007  0.1366096E+04  0.7818608E-02  0.9010485E-01
          2   -1    0    0  501    0  0.00000000000E+00  0.00000000000E+00  0.24145468418E+04  0.24145468418E+04  0.25500000000E-02 0. -1.
         -2   -1    0    0    0  501 -0.00000000000E+00 -0.00000000000E+00 -0.86743314524E+03  0.86743314524E+03  0.25500000000E-02 0.  1.
    8880023    1    1    2    0    0 -0.96025360483E+03 -0.71436695303E+03  0.60619601471E+02  0.13674399700E+04  0.65864270000E+03 0.  0.
    8880022    1    1    2    0    0  0.96025360483E+03  0.71436695303E+03  0.14864940951E+04  0.19145400170E+04  0.15294330000E+03 0.  0.
<mgrwt>
<rscale>  0 0.13243370E+04</rscale>
<asrwt>0</asrwt>
<pdfrwt beam="1">  1        2 0.37146874E+00 0.13660957E+04</pdfrwt>
<pdfrwt beam="2">  1       -2 0.13345125E+00 0.13660957E+04</pdfrwt>
<totfact> 0.15212608E+00</totfact>
</mgrwt>
</event>
<event>
 4    1  0.7280516E-007  0.7359643E+03  0.7818608E-02  0.9871863E-01
         -2   -1    0    0    0  501 -0.00000000000E+00  0.00000000000E+00  0.19439287425E+03  0.19439287426E+03  0.25500000000E-02 0.  1.
          2   -1    0    0  501    0  0.00000000000E+00 -0.00000000000E+00 -0.19605771500E+04  0.19605771500E+04  0.25500000000E-02 0. -1.
    8880023    1    1    2    0    0  0.21155131512E+03  0.25115580183E+03 -0.15901689863E+04  0.17522216775E+04  0.65864270000E+03 0.  0.
    8880022    1    1    2    0    0 -0.21155131512E+03 -0.25115580183E+03 -0.17601528945E+03  0.40274834681E+03  0.15294330000E+03 0.  0.
<mgrwt>
<rscale>  0 0.61644532E+03</rscale>
<asrwt>0</asrwt>
<pdfrwt beam="1">  1        2 0.30162724E+00 0.73596427E+03</pdfrwt>
<pdfrwt beam="2">  1       -2 0.29906597E-01 0.73596427E+03</pdfrwt>
<totfact> 0.74529343E+01</totfact>
</mgrwt>
</event>
<event>
 4    1  0.7280516E-007  0.7360766E+03  0.7818608E-02  0.9871527E-01
         -2   -1    0    0    0  501 -0.00000000000E+00  0.00000000000E+00  0.55863499199E+03  0.55863499199E+03  0.25500000000E-02 0.  1.
          2   -1    0    0  501    0  0.00000000000E+00 -0.00000000000E+00 -0.12064748095E+04  0.12064748095E+04  0.25500000000E-02 0. -1.
    8880023    1    1    2    0    0  0.32667757304E+03 -0.35781271465E+02 -0.10119455732E+04  0.12513363199E+04  0.65864270000E+03 0.  0.
    8880022    1    1    2    0    0 -0.32667757304E+03  0.35781271465E+02  0.36410575565E+03  0.51377348163E+03  0.15294330000E+03 0.  0.
<mgrwt>
<rscale>  0 0.61661292E+03</rscale>
<asrwt>0</asrwt>
<pdfrwt beam="1">  1        2 0.18561151E+00 0.73607659E+03</pdfrwt>
<pdfrwt beam="2">  1       -2 0.85943845E-01 0.73607659E+03</pdfrwt>
<totfact> 0.22512048E+01</totfact>
</mgrwt>
</event>
<event>
 4    1  0.7280516E-007  0.7692364E+03  0.7818608E-02  0.9781757E-01
         -2   -1    0    0    0  501 -0.00000000000E+00  0.00000000000E+00  0.13992114354E+04  0.13992114354E+04  0.25500000000E-02 0.  1.
          2   -1    0    0  501    0  0.00000000000E+00 -0.00000000000E+00 -0.39995389026E+03  0.39995389027E+03  0.25500000000E-02 0. -1.
    8880023    1    1    2    0    0  0.37274386043E+03  0.13775481070E+03  0.64427639257E+02  0.77192972499E+03  0.65864270000E+03 0.  0.
    8880022    1    1    2    0    0 -0.37274386043E+03 -0.13775481070E+03  0.93482990585E+03  0.10272356006E+04  0.15294330000E+03 0.  0.
<mgrwt>
<rscale>  0 0.66350834E+03</rscale>
<asrwt>0</asrwt>
<pdfrwt beam="1">  1        2 0.61531368E-01 0.76923636E+03</pdfrwt>
<pdfrwt beam="2">  1       -2 0.21526330E+00 0.76923636E+03</pdfrwt>
<totfact> 0.85860543E+00</totfact>
</mgrwt>
</event>
<event>
 4    1  0.7280516E-007  0.7218717E+03  0.7818608E-02  0.9916303E-01
         -2   -1    0    0    0  501 -0.00000000000E+00  0.00000000000E+00  0.11062915479E+03  0.11062915482E+03  0.25500000000E-02 0.  1.
          2   -1    0    0  501    0  0.00000000000E+00 -0.00000000000E+00 -0.26736725629E+04  0.26736725629E+04  0.25500000000E-02 0. -1.
    8880023    1    1    2    0    0  0.72905520288E+02 -0.28630993846E+03 -0.14074938393E+04  0.15818146888E+04  0.65864270000E+03 0. -1.
    8880022    1    1    2    0    0 -0.72905520288E+02  0.28630993846E+03 -0.11555495687E+04  0.12024870289E+04  0.15294330000E+03 0.  0.
<mgrwt>
<rscale>  0 0.59477649E+03</rscale>
<asrwt>0</asrwt>
<pdfrwt beam="1">  1        2 0.41133419E+00 0.72187174E+03</pdfrwt>
<pdfrwt beam="2">  1       -2 0.17019872E-01 0.72187174E+03</pdfrwt>
<totfact> 0.81457767E+01</totfact>
</mgrwt>
</event>
<event>
 4    1  0.7280516E-007  0.1222310E+04  0.7818608E-02  0.9135735E-01
          2   -1    0    0  501    0  0.00000000000E+00  0.00000000000E+00  0.20738207614E+04  0.20738207614E+04  0.25500000000E-02 0. -1.
         -2   -1    0    0    0  501 -0.00000000000E+00 -0.00000000000E+00 -0.74443473988E+03  0.74443473989E+03  0.25500000000E-02 0.  1.
    8880023    1    1    2    0    0 -0.10291276423E+04  0.33578704445E+02  0.12857867094E+03  0.12290540730E+04  0.65864270000E+03 0.  1.
    8880022    1    1    2    0    0  0.10291276423E+04 -0.33578704445E+02  0.12008073506E+04  0.15892014283E+04  0.15294330000E+03 0.  0.
<mgrwt>
<rscale>  0 0.11742100E+04</rscale>
<asrwt>0</asrwt>
<pdfrwt beam="1">  1        2 0.31904934E+00 0.12223099E+04</pdfrwt>
<pdfrwt beam="2">  1       -2 0.11452842E+00 0.12223099E+04</pdfrwt>
<totfact> 0.35296908E+00</totfact>
</mgrwt>
</event>
<event>
 4    1  0.8862760E-007  0.8185937E+03  0.7818608E-02  0.9671947E-01
          2   -1    0    0  501    0  0.00000000000E+00  0.00000000000E+00  0.14549728884E+04  0.14549728884E+04  0.25500000000E-02 0. -1.
         -2   -1    0    0    0  501 -0.00000000000E+00 -0.00000000000E+00 -0.11080202323E+04  0.11080202323E+04  0.25500000000E-02 0.  1.
    8880023    1    1    2    0    0  0.38667431419E+03  0.29456477511E+03  0.12686395256E+04  0.15098151821E+04  0.65864270000E+03 0.  0.
    8880022    1    1    2    0    0 -0.38667431419E+03 -0.29456477511E+03 -0.92168686947E+03  0.10531779386E+04  0.15294330000E+03 0.  0.
<mgrwt>
<rscale>  0 0.72711901E+03</rscale>
<asrwt>0</asrwt>
<pdfrwt beam="1">  1        2 0.22384198E+00 0.81859370E+03</pdfrwt>
<pdfrwt beam="2">  1       -2 0.17046465E+00 0.81859370E+03</pdfrwt>
<totfact> 0.28949482E+00</totfact>
</mgrwt>
</event>
<event>
 4    1  0.7280516E-007  0.8864688E+03  0.7818608E-02  0.9548112E-01
          2   -1    0    0  501    0  0.00000000000E+00  0.00000000000E+00  0.62035415106E+03  0.62035415106E+03  0.25500000000E-02 0. -1.
         -2   -1    0    0    0  501 -0.00000000000E+00 -0.00000000000E+00 -0.10303331172E+04  0.10303331172E+04  0.25500000000E-02 0.  1.
    8880023    1    1    2    0    0 -0.45107218228E+03 -0.38542260108E+03  0.44870705996E+02  0.88760367370E+03  0.65864270000E+03 0.  0.
    8880022    1    1    2    0    0  0.45107218228E+03  0.38542260108E+03 -0.45484967215E+03  0.76308359458E+03  0.15294330000E+03 0.  0.
<mgrwt>
<rscale>  0 0.80827766E+03</rscale>
<asrwt>0</asrwt>
<pdfrwt beam="1">  1        2 0.95439100E-01 0.88646878E+03</pdfrwt>
<pdfrwt beam="2">  1       -2 0.15851279E+00 0.88646878E+03</pdfrwt>
<totfact> 0.12333027E+01</totfact>
</mgrwt>
</event>
<event>
 4    1  0.7280516E-007  0.8363076E+03  0.7818608E-02  0.9637182E-01
          2   -1    0    0  501    0  0.00000000000E+00  0.00000000000E+00  0.19956914242E+04  0.19956914242E+04  0.25500000000E-02 0. -1.
         -2   -1    0    0    0  501 -0.00000000000E+00 -0.00000000000E+00 -0.41040777298E+03  0.41040777299E+03  0.25500000000E-02 0.  1.
    8880023    1    1    2    0    0  0.18138775284E+03 -0.48238859104E+03  0.16644312509E+04  0.18627243126E+04  0.65864270000E+03 0.  0.
    8880022    1    1    2    0    0 -0.18138775284E+03  0.48238859104E+03 -0.79147599647E+02  0.54337488458E+03  0.15294330000E+03 0.  1.
<mgrwt>
<rscale>  0 0.74883350E+03</rscale>
<asrwt>0</asrwt>
<pdfrwt beam="1">  1        2 0.30702945E+00 0.83630764E+03</pdfrwt>
<pdfrwt beam="2">  1       -2 0.63139658E-01 0.83630764E+03</pdfrwt>
<totfact> 0.15961903E+01</totfact>
</mgrwt>
</event>
<event>
 4    1  0.7280516E-007  0.6872832E+03  0.7818608E-02  0.1005472E+00
         -2   -1    0    0    0  501 -0.00000000000E+00  0.00000000000E+00  0.12680968470E+04  0.12680968470E+04  0.25500000000E-02 0.  1.
          2   -1    0    0  501    0  0.00000000000E+00 -0.00000000000E+00 -0.11155733802E+04  0.11155733802E+04  0.25500000000E-02 0. -1.
    8880023    1    1    2    0    0  0.96788527116E+02 -0.17082139386E+03 -0.99509895447E+03  0.12093717803E+04  0.65864270000E+03 0. -1.
    8880022    1    1    2    0    0 -0.96788527116E+02  0.17082139386E+03  0.11476224213E+04  0.11742984469E+04  0.15294330000E+03 0.  0.
<mgrwt>
<rscale>  0 0.53314809E+03</rscale>
<asrwt>0</asrwt>
<pdfrwt beam="1">  1        2 0.17162667E+00 0.68728318E+03</pdfrwt>
<pdfrwt beam="2">  1       -2 0.19509182E+00 0.68728318E+03</pdfrwt>
<totfact> 0.31621272E+00</totfact>
</mgrwt>
</event>
<event>
 4    1  0.7280516E-007  0.1194377E+04  0.7818608E-02  0.9162608E-01
         -2   -1    0    0    0  501 -0.00000000000E+00  0.00000000000E+00  0.18416872012E+04  0.18416872012E+04  0.25500000000E-02 0.  1.
          2   -1    0    0  501    0  0.00000000000E+00 -0.00000000000E+00 -0.68268069010E+03  0.68268069011E+03  0.25500000000E-02 0. -1.
    8880023    1    1    2    0    0  0.74266465739E+03  0.66420999328E+03  0.38978919240E+03  0.12563723689E+04  0.65864270000E+03 0.  0.
    8880022    1    1    2    0    0 -0.74266465739E+03 -0.66420999328E+03  0.76921731870E+03  0.12679955224E+04  0.15294330000E+03 0.  1.
<mgrwt>
<rscale>  0 0.11447852E+04</rscale>
<asrwt>0</asrwt>
<pdfrwt beam="1">  1        2 0.10502780E+00 0.11943768E+04</pdfrwt>
<pdfrwt beam="2">  1       -2 0.28333649E+00 0.11943768E+04</pdfrwt>
<totfact> 0.16680903E+00</totfact>
</mgrwt>
</event>
<event>
 4    1  0.7280516E-007  0.1006417E+04  0.7818608E-02  0.9373210E-01
         -2   -1    0    0    0  501 -0.00000000000E+00  0.00000000000E+00  0.86854685528E+03  0.86854685528E+03  0.25500000000E-02 0.  1.
          2   -1    0    0  501    0  0.00000000000E+00 -0.00000000000E+00 -0.13390654216E+04  0.13390654216E+04  0.25500000000E-02 0. -1.
    8880023    1    1    2    0    0 -0.64822104907E+03 -0.39859004694E+03 -0.87388938246E+03  0.13328756180E+04  0.65864270000E+03 0.  0.
    8880022    1    1    2    0    0  0.64822104907E+03  0.39859004694E+03  0.40337081618E+03  0.87473665885E+03  0.15294330000E+03 0.  0.
<mgrwt>
<rscale>  0 0.94313550E+03</rscale>
<asrwt>0</asrwt>
<pdfrwt beam="1">  1        2 0.20601007E+00 0.10064168E+04</pdfrwt>
<pdfrwt beam="2">  1       -2 0.13362259E+00 0.10064168E+04</pdfrwt>
<totfact> 0.63011819E+00</totfact>
</mgrwt>
</event>
<event>
 4    1  0.7280516E-007  0.9538268E+03  0.7818608E-02  0.9444629E-01
          2   -1    0    0  501    0  0.00000000000E+00  0.00000000000E+00  0.99828410023E+03  0.99828410023E+03  0.25500000000E-02 0. -1.
         -2   -1    0    0    0  501 -0.00000000000E+00 -0.00000000000E+00 -0.76386696865E+03  0.76386696866E+03  0.25500000000E-02 0.  1.
    8880023    1    1    2    0    0 -0.66513583704E+03 -0.18322045592E+03  0.40331062730E+03  0.10355892456E+04  0.65864270000E+03 0.  0.
    8880022    1    1    2    0    0  0.66513583704E+03  0.18322045592E+03 -0.16889349572E+03  0.72656182332E+03  0.15294330000E+03 0.  0.
<mgrwt>
<rscale>  0 0.88492128E+03</rscale>
<asrwt>0</asrwt>
<pdfrwt beam="1">  1        2 0.15358217E+00 0.95382683E+03</pdfrwt>
<pdfrwt beam="2">  1       -2 0.11751800E+00 0.95382683E+03</pdfrwt>
<totfact> 0.14073927E+01</totfact>
</mgrwt>
</event>
<event>
 4    1  0.7280516E-007  0.9831517E+03  0.7818608E-02  0.9403940E-01
          2   -1    0    0  501    0  0.00000000000E+00  0.00000000000E+00  0.75456371820E+03  0.75456371820E+03  0.25500000000E-02 0. -1.
         -2   -1    0    0    0  501 -0.00000000000E+00 -0.00000000000E+00 -0.14777751351E+04  0.14777751351E+04  0.25500000000E-02 0.  1.
    8880023    1    1    2    0    0  0.32337364978E+03  0.65437497746E+03 -0.10318422375E+04  0.14252318190E+04  0.65864270000E+03 0.  0.
    8880022    1    1    2    0    0 -0.32337364978E+03 -0.65437497746E+03  0.30863082056E+03  0.80710703436E+03  0.15294330000E+03 0.  0.
<mgrwt>
<rscale>  0 0.91752148E+03</rscale>
<asrwt>0</asrwt>
<pdfrwt beam="1">  1        2 0.11608673E+00 0.98315174E+03</pdfrwt>
<pdfrwt beam="2">  1       -2 0.22735002E+00 0.98315174E+03</pdfrwt>
<totfact> 0.32953620E+00</totfact>
</mgrwt>
</event>
<event>
 4    1  0.7807353E-007  0.9907957E+03  0.7818608E-02  0.9393700E-01
         -2   -1    0    0    0  501 -0.00000000000E+00  0.00000000000E+00  0.89497711467E+03  0.89497711467E+03  0.25500000000E-02 0.  1.
          2   -1    0    0  501    0  0.00000000000E+00 -0.00000000000E+00 -0.22885245063E+04  0.22885245063E+04  0.25500000000E-02 0. -1.
    8880023    1    1    2    0    0 -0.62451998279E+03 -0.39729164357E+03 -0.19884649561E+04  0.22216365470E+04  0.65864270000E+03 0. -1.
    8880022    1    1    2    0    0  0.62451998279E+03  0.39729164357E+03  0.59491756450E+03  0.96186507397E+03  0.15294330000E+03 0.  0.
<mgrwt>
<rscale>  0 0.92595966E+03</rscale>
<asrwt>0</asrwt>
<pdfrwt beam="1">  1        2 0.35208069E+00 0.99079567E+03</pdfrwt>
<pdfrwt beam="2">  1       -2 0.13768879E+00 0.99079567E+03</pdfrwt>
<totfact> 0.17323226E+00</totfact>
</mgrwt>
</event>
<event>
 4    1  0.7280516E-007  0.7938482E+03  0.7818608E-02  0.9724259E-01
          2   -1    0    0  501    0  0.00000000000E+00  0.00000000000E+00  0.18470443303E+04  0.18470443303E+04  0.25500000000E-02 0. -1.
         -2   -1    0    0    0  501 -0.00000000000E+00 -0.00000000000E+00 -0.28665808675E+03  0.28665808676E+03  0.25500000000E-02 0.  1.
    8880023    1    1    2    0    0 -0.35824186082E+03  0.26085932563E+03  0.14484403576E+04  0.16517186487E+04  0.65864270000E+03 0.  0.
    8880022    1    1    2    0    0  0.35824186082E+03 -0.26085932563E+03  0.11194588600E+03  0.48198376842E+03  0.15294330000E+03 0.  0.
<mgrwt>
<rscale>  0 0.69590629E+03</rscale>
<asrwt>0</asrwt>
<pdfrwt beam="1">  1        2 0.28416067E+00 0.79384824E+03</pdfrwt>
<pdfrwt beam="2">  1       -2 0.44101244E-01 0.79384824E+03</pdfrwt>
<totfact> 0.40530096E+01</totfact>
</mgrwt>
</event>
<event>
 4    1  0.7280516E-007  0.8630307E+03  0.7818608E-02  0.9588195E-01
         -2   -1    0    0    0  501 -0.00000000000E+00  0.00000000000E+00  0.33922485635E+03  0.33922485636E+03  0.25500000000E-02 0.  1.
          2   -1    0    0  501    0  0.00000000000E+00 -0.00000000000E+00 -0.29073373256E+04  0.29073373256E+04  0.25500000000E-02 0. -1.
    8880023    1    1    2    0    0  0.55617537575E+03  0.40997080576E+02 -0.25230054866E+04  0.26665293362E+04  0.65864270000E+03 0.  0.
    8880022    1    1    2    0    0 -0.55617537575E+03 -0.40997080576E+02 -0.45106982609E+02  0.58003284571E+03  0.15294330000E+03 0.  0.
<mgrwt>
<rscale>  0 0.78082469E+03</rscale>
<asrwt>0</asrwt>
<pdfrwt beam="1">  1        2 0.44728265E+00 0.86303072E+03</pdfrwt>
<pdfrwt beam="2">  1       -2 0.52188441E-01 0.86303072E+03</pdfrwt>
<totfact> 0.71764224E+00</totfact>
</mgrwt>
</event>
<event>
 4    1  0.7280516E-007  0.6810564E+03  0.7818608E-02  0.1008732E+00
         -2   -1    0    0    0  501 -0.00000000000E+00  0.00000000000E+00  0.45524223458E+02  0.45524223529E+02  0.25500000000E-02 0.  1.
          2   -1    0    0  501    0  0.00000000000E+00 -0.00000000000E+00 -0.49066950146E+04  0.49066950146E+04  0.25500000000E-02 0. -1.
    8880023    1    1    2    0    0 -0.14513689627E+03  0.94672576453E+02 -0.41179789216E+04  0.41739176106E+04  0.65864270000E+03 0.  0.
    8880022    1    1    2    0    0  0.14513689627E+03 -0.94672576453E+02 -0.74319186959E+03  0.77830162754E+03  0.15294330000E+03 0.  0.
<mgrwt>
<rscale>  0 0.51981589E+03</rscale>
<asrwt>0</asrwt>
<pdfrwt beam="1">  1        2 0.75487574E+00 0.68105640E+03</pdfrwt>
<pdfrwt beam="2">  1       -2 0.70037306E-02 0.68105640E+03</pdfrwt>
<totfact> 0.64351114E+00</totfact>
</mgrwt>
</event>
<event>
 4    1  0.7280516E-007  0.6708709E+03  0.7818608E-02  0.1015046E+00
          2   -1    0    0  501    0  0.00000000000E+00  0.00000000000E+00  0.52185325445E+03  0.52185325446E+03  0.25500000000E-02 0. -1.
         -2   -1    0    0    0  501 -0.00000000000E+00 -0.00000000000E+00 -0.75747285104E+03  0.75747285104E+03  0.25500000000E-02 0.  1.
    8880023    1    1    2    0    0 -0.32161398040E+02 -0.12338250961E+03  0.27972382747E+03  0.72685158397E+03  0.65864270000E+03 0. -1.
    8880022    1    1    2    0    0  0.32161398040E+02  0.12338250961E+03 -0.51534342406E+03  0.55247452153E+03  0.15294330000E+03 0.  0.
<mgrwt>
<rscale>  0 0.49517488E+03</rscale>
<asrwt>0</asrwt>
<pdfrwt beam="1">  1        2 0.80285116E-01 0.67087093E+03</pdfrwt>
<pdfrwt beam="2">  1       -2 0.11653428E+00 0.67087093E+03</pdfrwt>
<totfact> 0.34059741E+01</totfact>
</mgrwt>
</event>
<event>
 4    1  0.7280516E-007  0.7808249E+03  0.7818608E-02  0.9753903E-01
         -2   -1    0    0    0  501 -0.00000000000E+00  0.00000000000E+00  0.34866949635E+03  0.34866949636E+03  0.25500000000E-02 0.  1.
          2   -1    0    0  501    0  0.00000000000E+00 -0.00000000000E+00 -0.24494583320E+04  0.24494583320E+04  0.25500000000E-02 0. -1.
    8880023    1    1    2    0    0 -0.41093971443E+03 -0.83701172781E+02 -0.22054787582E+04  0.23396205022E+04  0.65864270000E+03 0.  0.
    8880022    1    1    2    0    0  0.41093971443E+03  0.83701172781E+02  0.10468992256E+03  0.45850732614E+03  0.15294330000E+03 0.  0.
<mgrwt>
<rscale>  0 0.67896160E+03</rscale>
<asrwt>0</asrwt>
<pdfrwt beam="1">  1        2 0.37683973E+00 0.78082491E+03</pdfrwt>
<pdfrwt beam="2">  1       -2 0.53641462E-01 0.78082491E+03</pdfrwt>
<totfact> 0.12697848E+01</totfact>
</mgrwt>
</event>
<event>
 4    1  0.7280516E-007  0.7938466E+03  0.7818608E-02  0.9724262E-01
         -2   -1    0    0    0  501 -0.00000000000E+00  0.00000000000E+00  0.71476689258E+03  0.71476689259E+03  0.25500000000E-02 0.  1.
          2   -1    0    0  501    0  0.00000000000E+00 -0.00000000000E+00 -0.57425879118E+03  0.57425879119E+03  0.25500000000E-02 0. -1.
    8880023    1    1    2    0    0 -0.43988280071E+03  0.53715329340E+02  0.19393037263E+03  0.81719117143E+03  0.65864270000E+03 0.  0.
    8880022    1    1    2    0    0  0.43988280071E+03 -0.53715329340E+02 -0.53422271224E+02  0.47183451235E+03  0.15294330000E+03 0.  0.
<mgrwt>
<rscale>  0 0.69590418E+03</rscale>
<asrwt>0</asrwt>
<pdfrwt beam="1">  1        2 0.88347507E-01 0.79384660E+03</pdfrwt>
<pdfrwt beam="2">  1       -2 0.10996414E+00 0.79384660E+03</pdfrwt>
<totfact> 0.34696830E+01</totfact>
</mgrwt>
</event>
<event>
 4    1  0.7280516E-007  0.1054831E+04  0.7818608E-02  0.9313097E-01
          2   -1    0    0  501    0  0.00000000000E+00  0.00000000000E+00  0.41719773784E+04  0.41719773784E+04  0.25500000000E-02 0. -1.
         -2   -1    0    0    0  501 -0.00000000000E+00 -0.00000000000E+00 -0.36186987313E+03  0.36186987314E+03  0.25500000000E-02 0.  1.
    8880023    1    1    2    0    0  0.73991198121E+03  0.36247441123E+03  0.34745836235E+04  0.36311704727E+04  0.65864270000E+03 0. -1.
    8880022    1    1    2    0    0 -0.73991198121E+03 -0.36247441123E+03  0.33552388168E+03  0.90267677877E+03  0.15294330000E+03 0.  0.
<mgrwt>
<rscale>  0 0.99586036E+03</rscale>
<asrwt>0</asrwt>
<pdfrwt beam="1">  1        2 0.64184264E+00 0.10548306E+04</pdfrwt>
<pdfrwt beam="2">  1       -2 0.55672291E-01 0.10548306E+04</pdfrwt>
<totfact> 0.78307410E-01</totfact>
</mgrwt>
</event>
<event>
 4    1  0.7280516E-007  0.1635945E+04  0.7818608E-02  0.8819164E-01
         -2   -1    0    0    0  501 -0.00000000000E+00  0.00000000000E+00  0.74757074594E+03  0.74757074594E+03  0.25500000000E-02 0.  1.
          2   -1    0    0  501    0  0.00000000000E+00 -0.00000000000E+00 -0.41131614043E+04  0.41131614043E+04  0.25500000000E-02 0. -1.
    8880023    1    1    2    0    0 -0.13623012198E+04  0.62180399066E+03 -0.28189449548E+04  0.32592584557E+04  0.65864270000E+03 0.  0.
    8880022    1    1    2    0    0  0.13623012198E+04 -0.62180399066E+03 -0.54664570348E+03  0.16014736945E+04  0.15294330000E+03 0.  0.
<mgrwt>
<rscale>  0 0.16022544E+04</rscale>
<asrwt>0</asrwt>
<pdfrwt beam="1">  1        2 0.63279405E+00 0.16359447E+04</pdfrwt>
<pdfrwt beam="2">  1       -2 0.11501089E+00 0.16359447E+04</pdfrwt>
<totfact> 0.15486680E-01</totfact>
</mgrwt>
</event>
<event>
 4    1  0.7280516E-007  0.6781936E+03  0.7818608E-02  0.1010364E+00
          2   -1    0    0  501    0  0.00000000000E+00  0.00000000000E+00  0.83067595043E+03  0.83067595043E+03  0.25500000000E-02 0. -1.
         -2   -1    0    0    0  501 -0.00000000000E+00 -0.00000000000E+00 -0.25327092501E+03  0.25327092502E+03  0.25500000000E-02 0.  1.
    8880023    1    1    2    0    0 -0.33782210461E+02  0.15809848061E+03  0.34038138165E+03  0.75881885754E+03  0.65864270000E+03 0.  1.
    8880022    1    1    2    0    0  0.33782210461E+02 -0.15809848061E+03  0.23702364377E+03  0.32512801792E+03  0.15294330000E+03 0.  0.
<mgrwt>
<rscale>  0 0.51330045E+03</rscale>
<asrwt>0</asrwt>
<pdfrwt beam="1">  1        2 0.12779630E+00 0.67819361E+03</pdfrwt>
<pdfrwt beam="2">  1       -2 0.38964758E-01 0.67819361E+03</pdfrwt>
<totfact> 0.20660418E+02</totfact>
</mgrwt>
</event>
<event>
 4    1  0.7280516E-007  0.1024607E+04  0.7818608E-02  0.9350050E-01
         -2   -1    0    0    0  501 -0.00000000000E+00  0.00000000000E+00  0.44526874652E+03  0.44526874653E+03  0.25500000000E-02 0.  1.
          2   -1    0    0  501    0  0.00000000000E+00 -0.00000000000E+00 -0.31161960159E+04  0.31161960159E+04  0.25500000000E-02 0. -1.
    8880023    1    1    2    0    0  0.75568001422E+03 -0.21202867960E+03 -0.31255312674E+03  0.10712180488E+04  0.65864270000E+03 0.  1.
    8880022    1    1    2    0    0 -0.75568001422E+03  0.21202867960E+03 -0.23583741426E+04  0.24902467135E+04  0.15294330000E+03 0.  0.
<mgrwt>
<rscale>  0 0.96302917E+03</rscale>
<asrwt>0</asrwt>
<pdfrwt beam="1">  1        2 0.47941476E+00 0.10246066E+04</pdfrwt>
<pdfrwt beam="2">  1       -2 0.68502886E-01 0.10246066E+04</pdfrwt>
<totfact> 0.29243143E+00</totfact>
</mgrwt>
</event>
<event>
 4    1  0.7280516E-007  0.8250448E+03  0.7818608E-02  0.9659052E-01
          2   -1    0    0  501    0  0.00000000000E+00  0.00000000000E+00  0.24767414872E+04  0.24767414872E+04  0.25500000000E-02 0. -1.
         -2   -1    0    0    0  501 -0.00000000000E+00 -0.00000000000E+00 -0.25991343789E+03  0.25991343790E+03  0.25500000000E-02 0.  1.
    8880023    1    1    2    0    0  0.48205724121E+03  0.12045523201E+03  0.20178305220E+04  0.21799859790E+04  0.65864270000E+03 0.  1.
    8880022    1    1    2    0    0 -0.48205724121E+03 -0.12045523201E+03  0.19899752733E+03  0.55666894616E+03  0.15294330000E+03 0.  0.
<mgrwt>
<rscale>  0 0.73508055E+03</rscale>
<asrwt>0</asrwt>
<pdfrwt beam="1">  1        2 0.38103715E+00 0.82504476E+03</pdfrwt>
<pdfrwt beam="2">  1       -2 0.39986683E-01 0.82504476E+03</pdfrwt>
<totfact> 0.21963181E+01</totfact>
</mgrwt>
</event>
<event>
 4    1  0.7957681E-007  0.6879653E+03  0.7818608E-02  0.1005135E+00
          2   -1    0    0  501    0  0.00000000000E+00  0.00000000000E+00  0.20931280202E+04  0.20931280202E+04  0.25500000000E-02 0. -1.
         -2   -1    0    0    0  501 -0.00000000000E+00 -0.00000000000E+00 -0.51597485353E+03  0.51597485354E+03  0.25500000000E-02 0.  1.
    8880023    1    1    2    0    0  0.18058476622E+03  0.82916850059E+02  0.20013727078E+04  0.21163149538E+04  0.65864270000E+03 0. -1.
    8880022    1    1    2    0    0 -0.18058476622E+03 -0.82916850059E+02 -0.42421954121E+03  0.49278791988E+03  0.15294330000E+03 0.  0.
<mgrwt>
<rscale>  0 0.53454836E+03</rscale>
<asrwt>0</asrwt>
<pdfrwt beam="1">  1        2 0.32201970E+00 0.68796531E+03</pdfrwt>
<pdfrwt beam="2">  1       -2 0.79380747E-01 0.68796531E+03</pdfrwt>
<totfact> 0.87435109E+00</totfact>
</mgrwt>
</event>
<event>
 4    1  0.7280516E-007  0.9060834E+03  0.7818608E-02  0.9516336E-01
          2   -1    0    0  501    0  0.00000000000E+00  0.00000000000E+00  0.17975021400E+04  0.17975021400E+04  0.25500000000E-02 0. -1.
         -2   -1    0    0    0  501 -0.00000000000E+00 -0.00000000000E+00 -0.63515311715E+03  0.63515311715E+03  0.25500000000E-02 0.  1.
    8880023    1    1    2    0    0 -0.16754597030E+03  0.59925388342E+03  0.14661411074E+04  0.17235303368E+04  0.65864270000E+03 0. -1.
    8880022    1    1    2    0    0  0.16754597030E+03 -0.59925388342E+03 -0.30379208454E+03  0.70912492031E+03  0.15294330000E+03 0.  1.
<mgrwt>
<rscale>  0 0.83090109E+03</rscale>
<asrwt>0</asrwt>
<pdfrwt beam="1">  1        2 0.27653879E+00 0.90608337E+03</pdfrwt>
<pdfrwt beam="2">  1       -2 0.97715863E-01 0.90608337E+03</pdfrwt>
<totfact> 0.76215571E+00</totfact>
</mgrwt>
</event>
<event>
 4    1  0.7280516E-007  0.8062934E+03  0.7818608E-02  0.9697350E-01
          2   -1    0    0  501    0  0.00000000000E+00  0.00000000000E+00  0.69373063955E+03  0.69373063955E+03  0.25500000000E-02 0. -1.
         -2   -1    0    0    0  501 -0.00000000000E+00 -0.00000000000E+00 -0.77667064223E+03  0.77667064224E+03  0.25500000000E-02 0.  1.
    8880023    1    1    2    0    0 -0.91519967207E+02  0.45598572481E+03  0.28797781446E+03  0.85617773477E+03  0.65864270000E+03 0.  0.
    8880022    1    1    2    0    0  0.91519967207E+02 -0.45598572481E+03 -0.37091781714E+03  0.61422354702E+03  0.15294330000E+03 0.  0.
<mgrwt>
<rscale>  0 0.71174791E+03</rscale>
<asrwt>0</asrwt>
<pdfrwt beam="1">  1        2 0.10672779E+00 0.80629343E+03</pdfrwt>
<pdfrwt beam="2">  1       -2 0.11948779E+00 0.80629343E+03</pdfrwt>
<totfact> 0.22434686E+01</totfact>
</mgrwt>
</event>
<event>
 4    1  0.7280516E-007  0.7726923E+03  0.7818608E-02  0.9773292E-01
          2   -1    0    0  501    0  0.00000000000E+00  0.00000000000E+00  0.20020691575E+04  0.20020691575E+04  0.25500000000E-02 0. -1.
         -2   -1    0    0    0  501 -0.00000000000E+00 -0.00000000000E+00 -0.40133975957E+03  0.40133975958E+03  0.25500000000E-02 0.  1.
    8880023    1    1    2    0    0  0.34023546776E+03 -0.21790600736E+03  0.17762990675E+04  0.19370833190E+04  0.65864270000E+03 0. -1.
    8880022    1    1    2    0    0 -0.34023546776E+03  0.21790600736E+03 -0.17556966949E+03  0.46632559808E+03  0.15294330000E+03 0.  0.
<mgrwt>
<rscale>  0 0.66815779E+03</rscale>
<asrwt>0</asrwt>
<pdfrwt beam="1">  1        2 0.30801063E+00 0.77269231E+03</pdfrwt>
<pdfrwt beam="2">  1       -2 0.61744579E-01 0.77269231E+03</pdfrwt>
<totfact> 0.16747096E+01</totfact>
</mgrwt>
</event>
<event>
 4    1  0.7280516E-007  0.1260092E+04  0.7818608E-02  0.9100813E-01
         -2   -1    0    0    0  501 -0.00000000000E+00  0.00000000000E+00  0.46574100541E+03  0.46574100542E+03  0.25500000000E-02 0.  1.
          2   -1    0    0  501    0  0.00000000000E+00 -0.00000000000E+00 -0.40757506157E+04  0.40757506157E+04  0.25500000000E-02 0. -1.
    8880023    1    1    2    0    0  0.38558968780E+03  0.10026674472E+04 -0.30923897237E+04  0.33392672589E+04  0.65864270000E+03 0.  0.
    8880022    1    1    2    0    0 -0.38558968780E+03 -0.10026674472E+04 -0.51761988657E+03  0.12022243622E+04  0.15294330000E+03 0.  1.
<mgrwt>
<rscale>  0 0.12138577E+04</rscale>
<asrwt>0</asrwt>
<pdfrwt beam="1">  1        2 0.62703853E+00 0.12600919E+04</pdfrwt>
<pdfrwt beam="2">  1       -2 0.71652465E-01 0.12600919E+04</pdfrwt>
<totfact> 0.52923155E-01</totfact>
</mgrwt>
</event>
<event>
 4    1  0.7280516E-007  0.1112292E+04  0.7818608E-02  0.9247492E-01
          2   -1    0    0  501    0  0.00000000000E+00  0.00000000000E+00  0.48627370507E+04  0.48627370507E+04  0.25500000000E-02 0. -1.
         -2   -1    0    0    0  501 -0.00000000000E+00 -0.00000000000E+00 -0.51721996753E+03  0.51721996754E+03  0.25500000000E-02 0.  1.
    8880023    1    1    2    0    0 -0.88582734084E+03  0.13672650672E+03  0.43299700124E+04  0.44705519491E+04  0.65864270000E+03 0. -1.
    8880022    1    1    2    0    0  0.88582734084E+03 -0.13672650672E+03  0.15547070841E+02  0.90940506917E+03  0.15294330000E+03 0.  0.
<mgrwt>
<rscale>  0 0.10576396E+04</rscale>
<asrwt>0</asrwt>
<pdfrwt beam="1">  1        2 0.74811339E+00 0.11122924E+04</pdfrwt>
<pdfrwt beam="2">  1       -2 0.79572303E-01 0.11122924E+04</pdfrwt>
<totfact> 0.75263100E-02</totfact>
</mgrwt>
</event>
<event>
 4    1  0.7280516E-007  0.7323287E+03  0.7818608E-02  0.9882884E-01
         -2   -1    0    0    0  501 -0.00000000000E+00  0.00000000000E+00  0.19357105813E+03  0.19357105815E+03  0.25500000000E-02 0.  1.
          2   -1    0    0  501    0  0.00000000000E+00 -0.00000000000E+00 -0.21002179809E+04  0.21002179809E+04  0.25500000000E-02 0. -1.
    8880023    1    1    2    0    0 -0.11287110533E+03  0.29959169374E+03 -0.17665441057E+04  0.19123240712E+04  0.65864270000E+03 0. -1.
    8880022    1    1    2    0    0  0.11287110533E+03 -0.29959169374E+03 -0.14010281704E+03  0.38146496790E+03  0.15294330000E+03 0.  0.
<mgrwt>
<rscale>  0 0.61098003E+03</rscale>
<asrwt>0</asrwt>
<pdfrwt beam="1">  1        2 0.32311044E+00 0.73232867E+03</pdfrwt>
<pdfrwt beam="2">  1       -2 0.29780164E-01 0.73232867E+03</pdfrwt>
<totfact> 0.63047080E+01</totfact>
</mgrwt>
</event>
<event>
 4    1  0.7280516E-007  0.7633599E+03  0.7818608E-02  0.9796485E-01
          2   -1    0    0  501    0  0.00000000000E+00  0.00000000000E+00  0.88729290738E+03  0.88729290738E+03  0.25500000000E-02 0. -1.
         -2   -1    0    0    0  501 -0.00000000000E+00 -0.00000000000E+00 -0.11303251612E+04  0.11303251612E+04  0.25500000000E-02 0.  1.
    8880023    1    1    2    0    0 -0.38161428654E+03  0.57259893150E+02  0.66934539918E+03  0.10152544650E+04  0.65864270000E+03 0.  0.
    8880022    1    1    2    0    0  0.38161428654E+03 -0.57259893150E+02 -0.91237765301E+03  0.10023636036E+04  0.15294330000E+03 0.  1.
<mgrwt>
<rscale>  0 0.65551497E+03</rscale>
<asrwt>0</asrwt>
<pdfrwt beam="1">  1        2 0.13650660E+00 0.76335992E+03</pdfrwt>
<pdfrwt beam="2">  1       -2 0.17389618E+00 0.76335992E+03</pdfrwt>
<totfact> 0.60880293E+00</totfact>
</mgrwt>
</event>
<event>
 4    1  0.7280516E-007  0.8312621E+03  0.7818608E-02  0.9646882E-01
         -2   -1    0    0    0  501 -0.00000000000E+00  0.00000000000E+00  0.55803531936E+03  0.55803531937E+03  0.25500000000E-02 0.  1.
          2   -1    0    0  501    0  0.00000000000E+00 -0.00000000000E+00 -0.13249332105E+04  0.13249332105E+04  0.25500000000E-02 0. -1.
    8880023    1    1    2    0    0  0.24228124196E+03  0.44551794125E+03 -0.10032920444E+04  0.13029165625E+04  0.65864270000E+03 0. -1.
    8880022    1    1    2    0    0 -0.24228124196E+03 -0.44551794125E+03  0.23639415324E+03  0.58005196739E+03  0.15294330000E+03 0.  0.
<mgrwt>
<rscale>  0 0.74269448E+03</rscale>
<asrwt>0</asrwt>
<pdfrwt beam="1">  1        2 0.20383588E+00 0.83126208E+03</pdfrwt>
<pdfrwt beam="2">  1       -2 0.85851588E-01 0.83126208E+03</pdfrwt>
<totfact> 0.19054218E+01</totfact>
</mgrwt>
</event>
<event>
 4    1  0.7280516E-007  0.8357397E+03  0.7818608E-02  0.9638266E-01
         -2   -1    0    0    0  501 -0.00000000000E+00  0.00000000000E+00  0.34431585518E+03  0.34431585519E+03  0.25500000000E-02 0.  1.
          2   -1    0    0  501    0  0.00000000000E+00 -0.00000000000E+00 -0.23631107838E+04  0.23631107838E+04  0.25500000000E-02 0. -1.
    8880023    1    1    2    0    0  0.42756569046E+03 -0.28607383718E+03 -0.20031531316E+04  0.21705030142E+04  0.65864270000E+03 0.  0.
    8880022    1    1    2    0    0 -0.42756569046E+03  0.28607383718E+03 -0.15641797021E+02  0.53692362474E+03  0.15294330000E+03 0.  0.
<mgrwt>
<rscale>  0 0.74814420E+03</rscale>
<asrwt>0</asrwt>
<pdfrwt beam="1">  1        2 0.36355550E+00 0.83573971E+03</pdfrwt>
<pdfrwt beam="2">  1       -2 0.52971671E-01 0.83573971E+03</pdfrwt>
<totfact> 0.14456848E+01</totfact>
</mgrwt>
</event>
<event>
 4    1  0.7280516E-007  0.1001593E+04  0.7818608E-02  0.9379477E-01
          2   -1    0    0  501    0  0.00000000000E+00  0.00000000000E+00  0.14184155287E+04  0.14184155287E+04  0.25500000000E-02 0. -1.
         -2   -1    0    0    0  501 -0.00000000000E+00 -0.00000000000E+00 -0.11438555141E+04  0.11438555141E+04  0.25500000000E-02 0.  1.
    8880023    1    1    2    0    0 -0.42890345828E+03  0.62082136101E+03  0.10628176951E+04  0.14604002869E+04  0.65864270000E+03 0. -1.
    8880022    1    1    2    0    0  0.42890345828E+03 -0.62082136101E+03 -0.78825768046E+03  0.11018707559E+04  0.15294330000E+03 0.  0.
<mgrwt>
<rscale>  0 0.93784050E+03</rscale>
<asrwt>0</asrwt>
<pdfrwt beam="1">  1        2 0.21821777E+00 0.10015925E+04</pdfrwt>
<pdfrwt beam="2">  1       -2 0.17597777E+00 0.10015925E+04</pdfrwt>
<totfact> 0.27096482E+00</totfact>
</mgrwt>
</event>
<event>
 4    1  0.7280516E-007  0.8710336E+03  0.7818608E-02  0.9574230E-01
         -2   -1    0    0    0  501 -0.00000000000E+00  0.00000000000E+00  0.78439386278E+03  0.78439386278E+03  0.25500000000E-02 0.  1.
          2   -1    0    0  501    0  0.00000000000E+00 -0.00000000000E+00 -0.88195625872E+03  0.88195625872E+03  0.25500000000E-02 0. -1.
    8880023    1    1    2    0    0  0.52834578221E+03 -0.21386933579E+03 -0.44851678596E+03  0.97972795812E+03  0.65864270000E+03 0.  0.
    8880022    1    1    2    0    0 -0.52834578221E+03  0.21386933579E+03  0.35095439002E+03  0.68662216339E+03  0.15294330000E+03 0.  0.
<mgrwt>
<rscale>  0 0.79025529E+03</rscale>
<asrwt>0</asrwt>
<pdfrwt beam="1">  1        2 0.13568558E+00 0.87103362E+03</pdfrwt>
<pdfrwt beam="2">  1       -2 0.12067598E+00 0.87103362E+03</pdfrwt>
<totfact> 0.15852203E+01</totfact>
</mgrwt>
</event>
<event>
 4    1  0.7280516E-007  0.1039994E+04  0.7818608E-02  0.9331007E-01
         -2   -1    0    0    0  501 -0.00000000000E+00  0.00000000000E+00  0.82211202082E+03  0.82211202083E+03  0.25500000000E-02 0.  1.
          2   -1    0    0  501    0  0.00000000000E+00 -0.00000000000E+00 -0.12382436347E+04  0.12382436347E+04  0.25500000000E-02 0. -1.
    8880023    1    1    2    0    0  0.46199355209E+03  0.65904495718E+03 -0.62703109170E+03  0.12143955262E+04  0.65864270000E+03 0.  1.
    8880022    1    1    2    0    0 -0.46199355209E+03 -0.65904495718E+03  0.21089947780E+03  0.84596012939E+03  0.15294330000E+03 0. -1.
<mgrwt>
<rscale>  0 0.97977722E+03</rscale>
<asrwt>0</asrwt>
<pdfrwt beam="1">  1        2 0.19049902E+00 0.10399945E+04</pdfrwt>
<pdfrwt beam="2">  1       -2 0.12647877E+00 0.10399945E+04</pdfrwt>
<totfact> 0.82713593E+00</totfact>
</mgrwt>
</event>
<event>
 4    1  0.7280516E-007  0.7007325E+03  0.7818608E-02  0.9994176E-01
          2   -1    0    0  501    0  0.00000000000E+00  0.00000000000E+00  0.35588177356E+04  0.35588177356E+04  0.25500000000E-02 0. -1.
         -2   -1    0    0    0  501 -0.00000000000E+00 -0.00000000000E+00 -0.28666077522E+03  0.28666077523E+03  0.25500000000E-02 0.  1.
    8880023    1    1    2    0    0 -0.46326651549E+02  0.23466942531E+03  0.34433616649E+04  0.35139387671E+04  0.65864270000E+03 0.  0.
    8880022    1    1    2    0    0  0.46326651549E+02 -0.23466942531E+03 -0.17120470447E+03  0.33153974372E+03  0.15294330000E+03 0.  0.
<mgrwt>
<rscale>  0 0.55906356E+03</rscale>
<asrwt>0</asrwt>
<pdfrwt beam="1">  1        2 0.54751044E+00 0.70073255E+03</pdfrwt>
<pdfrwt beam="2">  1       -2 0.44101656E-01 0.70073255E+03</pdfrwt>
<totfact> 0.39599020E+00</totfact>
</mgrwt>
</event>
<event>
 4    1  0.7280516E-007  0.7536380E+03  0.7818608E-02  0.9821865E-01
         -2   -1    0    0    0  501 -0.00000000000E+00  0.00000000000E+00  0.56930721506E+03  0.56930721507E+03  0.25500000000E-02 0.  1.
          2   -1    0    0  501    0  0.00000000000E+00 -0.00000000000E+00 -0.16377915738E+04  0.16377915738E+04  0.25500000000E-02 0. -1.
    8880023    1    1    2    0    0 -0.35666487138E+03  0.83367766520E+02 -0.14641024897E+04  0.16466834309E+04  0.65864270000E+03 0.  0.
    8880022    1    1    2    0    0  0.35666487138E+03 -0.83367766520E+02  0.39561813092E+03  0.56041535801E+03  0.15294330000E+03 0.  0.
<mgrwt>
<rscale>  0 0.64202208E+03</rscale>
<asrwt>0</asrwt>
<pdfrwt beam="1">  1        2 0.25196793E+00 0.75363799E+03</pdfrwt>
<pdfrwt beam="2">  1       -2 0.87585726E-01 0.75363799E+03</pdfrwt>
<totfact> 0.12269228E+01</totfact>
</mgrwt>
</event>
<event>
 4    1  0.7280516E-007  0.8223585E+03  0.7818608E-02  0.9664387E-01
          2   -1    0    0  501    0  0.00000000000E+00  0.00000000000E+00  0.72891982698E+03  0.72891982698E+03  0.25500000000E-02 0. -1.
         -2   -1    0    0    0  501 -0.00000000000E+00 -0.00000000000E+00 -0.10556296700E+04  0.10556296700E+04  0.25500000000E-02 0.  1.
    8880023    1    1    2    0    0 -0.49177880848E+03  0.24838194844E+02  0.38311422357E+03  0.90722105738E+03  0.65864270000E+03 0.  0.
    8880022    1    1    2    0    0  0.49177880848E+03 -0.24838194844E+02 -0.70982406654E+03  0.87732843956E+03  0.15294330000E+03 0.  0.
<mgrwt>
<rscale>  0 0.73177320E+03</rscale>
<asrwt>0</asrwt>
<pdfrwt beam="1">  1        2 0.11214151E+00 0.82235852E+03</pdfrwt>
<pdfrwt beam="2">  1       -2 0.16240456E+00 0.82235852E+03</pdfrwt>
<totfact> 0.94907883E+00</totfact>
</mgrwt>
</event>
<event>
 4    1  0.7280516E-007  0.8047981E+03  0.7818608E-02  0.9700516E-01
         -2   -1    0    0    0  501 -0.00000000000E+00  0.00000000000E+00  0.47161049194E+03  0.47161049195E+03  0.25500000000E-02 0.  1.
          2   -1    0    0  501    0  0.00000000000E+00 -0.00000000000E+00 -0.19616375094E+04  0.19616375094E+04  0.25500000000E-02 0. -1.
    8880023    1    1    2    0    0 -0.11373027311E+03 -0.44828023380E+03 -0.17166926908E+04  0.18959783079E+04  0.65864270000E+03 0. -1.
    8880022    1    1    2    0    0  0.11373027311E+03  0.44828023380E+03  0.22666567334E+03  0.53726969347E+03  0.15294330000E+03 0.  0.
<mgrwt>
<rscale>  0 0.70986074E+03</rscale>
<asrwt>0</asrwt>
<pdfrwt beam="1">  1        2 0.30179038E+00 0.80479808E+03</pdfrwt>
<pdfrwt beam="2">  1       -2 0.72555461E-01 0.80479808E+03</pdfrwt>
<totfact> 0.12374421E+01</totfact>
</mgrwt>
</event>
<event>
 4    1  0.7280516E-007  0.6707984E+03  0.7818608E-02  0.1015097E+00
          2   -1    0    0  501    0  0.00000000000E+00  0.00000000000E+00  0.11872277254E+04  0.11872277254E+04  0.25500000000E-02 0. -1.
         -2   -1    0    0    0  501 -0.00000000000E+00 -0.00000000000E+00 -0.69602786254E+03  0.69602786254E+03  0.25500000000E-02 0.  1.
    8880023    1    1    2    0    0  0.12512682815E+03  0.22441397935E+02  0.10746598469E+04  0.12668324010E+04  0.65864270000E+03 0. -1.
    8880022    1    1    2    0    0 -0.12512682815E+03 -0.22441397935E+02 -0.58345998401E+03  0.61642318696E+03  0.15294330000E+03 0.  0.
<mgrwt>
<rscale>  0 0.49498277E+03</rscale>
<asrwt>0</asrwt>
<pdfrwt beam="1">  1        2 0.18265042E+00 0.67079844E+03</pdfrwt>
<pdfrwt beam="2">  1       -2 0.10708121E+00 0.67079844E+03</pdfrwt>
<totfact> 0.13915705E+01</totfact>
</mgrwt>
</event>
<event>
 4    1  0.7280516E-007  0.1020122E+04  0.7818608E-02  0.9355693E-01
         -2   -1    0    0    0  501 -0.00000000000E+00  0.00000000000E+00  0.56818983528E+03  0.56818983529E+03  0.25500000000E-02 0.  1.
          2   -1    0    0  501    0  0.00000000000E+00 -0.00000000000E+00 -0.38002597018E+04  0.38002597018E+04  0.25500000000E-02 0. -1.
    8880023    1    1    2    0    0 -0.20800525617E+03 -0.75071418186E+03 -0.34062244108E+04  0.35557014656E+04  0.65864270000E+03 0.  0.
    8880022    1    1    2    0    0  0.20800525617E+03  0.75071418186E+03  0.17415454427E+03  0.81274807151E+03  0.15294330000E+03 0.  0.
<mgrwt>
<rscale>  0 0.95813416E+03</rscale>
<asrwt>0</asrwt>
<pdfrwt beam="1">  1        2 0.58465532E+00 0.10201216E+04</pdfrwt>
<pdfrwt beam="2">  1       -2 0.87413823E-01 0.10201216E+04</pdfrwt>
<totfact> 0.57740108E-01</totfact>
</mgrwt>
</event>
<event>
 4    1  0.7280516E-007  0.7232544E+03  0.7818608E-02  0.9911724E-01
         -2   -1    0    0    0  501 -0.00000000000E+00  0.00000000000E+00  0.11977170063E+04  0.11977170063E+04  0.25500000000E-02 0.  1.
          2   -1    0    0  501    0  0.00000000000E+00 -0.00000000000E+00 -0.53604526324E+03  0.53604526324E+03  0.25500000000E-02 0. -1.
    8880023    1    1    2    0    0 -0.21233879126E+02 -0.29805338992E+03 -0.24763633734E+03  0.76447410859E+03  0.65864270000E+03 0. -1.
    8880022    1    1    2    0    0  0.21233879126E+02  0.29805338992E+03  0.90930808042E+03  0.96928816097E+03  0.15294330000E+03 0.  0.
<mgrwt>
<rscale>  0 0.59696431E+03</rscale>
<asrwt>0</asrwt>
<pdfrwt beam="1">  1        2 0.82468503E-01 0.72325439E+03</pdfrwt>
<pdfrwt beam="2">  1       -2 0.18426415E+00 0.72325439E+03</pdfrwt>
<totfact> 0.98150789E+00</totfact>
</mgrwt>
</event>
<event>
 4    1  0.7280516E-007  0.6958320E+03  0.7818608E-02  0.1001495E+00
          2   -1    0    0  501    0  0.00000000000E+00  0.00000000000E+00  0.15577288929E+04  0.15577288929E+04  0.25500000000E-02 0. -1.
         -2   -1    0    0    0  501 -0.00000000000E+00 -0.00000000000E+00 -0.22198764862E+03  0.22198764863E+03  0.25500000000E-02 0.  1.
    8880023    1    1    2    0    0 -0.21754213631E+03  0.55203003662E+02  0.13379916397E+04  0.15081126572E+04  0.65864270000E+03 0. -1.
    8880022    1    1    2    0    0  0.21754213631E+03 -0.55203003662E+02 -0.22503954198E+01  0.27160388432E+03  0.15294330000E+03 0.  0.
<mgrwt>
<rscale>  0 0.54999477E+03</rscale>
<asrwt>0</asrwt>
<pdfrwt beam="1">  1        2 0.23965059E+00 0.69583199E+03</pdfrwt>
<pdfrwt beam="2">  1       -2 0.34151947E-01 0.69583199E+03</pdfrwt>
<totfact> 0.96871383E+01</totfact>
</mgrwt>
</event>
<event>
 4    1  0.7280516E-007  0.6991614E+03  0.7818608E-02  0.1000070E+00
         -2   -1    0    0    0  501 -0.00000000000E+00  0.00000000000E+00  0.16320875214E+03  0.16320875216E+03  0.25500000000E-02 0.  1.
          2   -1    0    0  501    0  0.00000000000E+00 -0.00000000000E+00 -0.15423004248E+04  0.15423004248E+04  0.25500000000E-02 0. -1.
    8880023    1    1    2    0    0 -0.22813308710E+03 -0.54514334067E+02 -0.11399313553E+04  0.13372622103E+04  0.65864270000E+03 0.  0.
    8880022    1    1    2    0    0  0.22813308710E+03  0.54514334067E+02 -0.23916031739E+03  0.36824696669E+03  0.15294330000E+03 0.  0.
<mgrwt>
<rscale>  0 0.55619652E+03</rscale>
<asrwt>0</asrwt>
<pdfrwt beam="1">  1        2 0.23727698E+00 0.69916144E+03</pdfrwt>
<pdfrwt beam="2">  1       -2 0.25109040E-01 0.69916144E+03</pdfrwt>
<totfact> 0.17432939E+02</totfact>
</mgrwt>
</event>
<event>
 4    1  0.7280516E-007  0.7879157E+03  0.7818608E-02  0.9737561E-01
         -2   -1    0    0    0  501 -0.00000000000E+00  0.00000000000E+00  0.60798656214E+03  0.60798656214E+03  0.25500000000E-02 0.  1.
          2   -1    0    0  501    0  0.00000000000E+00 -0.00000000000E+00 -0.90206663237E+03  0.90206663237E+03  0.25500000000E-02 0. -1.
    8880023    1    1    2    0    0 -0.41159503955E+03  0.13262907630E+03 -0.57208079741E+03  0.97369789642E+03  0.65864270000E+03 0. -1.
    8880022    1    1    2    0    0  0.41159503955E+03 -0.13262907630E+03  0.27800072718E+03  0.53635529809E+03  0.15294330000E+03 0.  0.
<mgrwt>
<rscale>  0 0.68823796E+03</rscale>
<asrwt>0</asrwt>
<pdfrwt beam="1">  1        2 0.13877948E+00 0.78791570E+03</pdfrwt>
<pdfrwt beam="2">  1       -2 0.93536394E-01 0.78791570E+03</pdfrwt>
<totfact> 0.28574001E+01</totfact>
</mgrwt>
</event>
<event>
 4    1  0.7280516E-007  0.6843969E+03  0.7818608E-02  0.1006938E+00
          2   -1    0    0  501    0  0.00000000000E+00  0.00000000000E+00  0.12706440435E+04  0.12706440435E+04  0.25500000000E-02 0. -1.
         -2   -1    0    0    0  501 -0.00000000000E+00 -0.00000000000E+00 -0.22381144440E+03  0.22381144441E+03  0.25500000000E-02 0.  1.
    8880023    1    1    2    0    0  0.18582244682E+03  0.76769388704E+01  0.10503381226E+04  0.12536384228E+04  0.65864270000E+03 0. -1.
    8880022    1    1    2    0    0 -0.18582244682E+03 -0.76769388704E+01 -0.35055234778E+01  0.24081706510E+03  0.15294330000E+03 0.  0.
<mgrwt>
<rscale>  0 0.52709796E+03</rscale>
<asrwt>0</asrwt>
<pdfrwt beam="1">  1        2 0.19548370E+00 0.68439690E+03</pdfrwt>
<pdfrwt beam="2">  1       -2 0.34432530E-01 0.68439690E+03</pdfrwt>
<totfact> 0.13856399E+02</totfact>
</mgrwt>
</event>
<event>
 4    1  0.7280516E-007  0.9357462E+03  0.7818608E-02  0.9470926E-01
         -2   -1    0    0    0  501 -0.00000000000E+00  0.00000000000E+00  0.69630660563E+03  0.69630660563E+03  0.25500000000E-02 0.  1.
          2   -1    0    0  501    0  0.00000000000E+00 -0.00000000000E+00 -0.12104551343E+04  0.12104551343E+04  0.25500000000E-02 0. -1.
    8880023    1    1    2    0    0 -0.17852268056E+03 -0.64026586820E+03 -0.73494174755E+03  0.11898572637E+04  0.65864270000E+03 0. -1.
    8880022    1    1    2    0    0  0.17852268056E+03  0.64026586820E+03  0.22079321890E+03  0.71690447620E+03  0.15294330000E+03 0.  0.
<mgrwt>
<rscale>  0 0.86461704E+03</rscale>
<asrwt>0</asrwt>
<pdfrwt beam="1">  1        2 0.18622387E+00 0.93574619E+03</pdfrwt>
<pdfrwt beam="2">  1       -2 0.10712409E+00 0.93574619E+03</pdfrwt>
<totfact> 0.13072520E+01</totfact>
</mgrwt>
</event>
<event>
 4    1  0.7280516E-007  0.7933471E+03  0.7818608E-02  0.9725370E-01
          2   -1    0    0  501    0  0.00000000000E+00  0.00000000000E+00  0.14091701809E+04  0.14091701809E+04  0.25500000000E-02 0. -1.
         -2   -1    0    0    0  501 -0.00000000000E+00 -0.00000000000E+00 -0.63643502284E+03  0.63643502285E+03  0.25500000000E-02 0.  1.
    8880023    1    1    2    0    0  0.37779007353E+03 -0.22992198869E+03  0.11822490526E+04  0.14237670066E+04  0.65864270000E+03 0. -1.
    8880022    1    1    2    0    0 -0.37779007353E+03  0.22992198869E+03 -0.40951389455E+03  0.62183819711E+03  0.15294330000E+03 0.  0.
<mgrwt>
<rscale>  0 0.69526165E+03</rscale>
<asrwt>0</asrwt>
<pdfrwt beam="1">  1        2 0.21679541E+00 0.79334713E+03</pdfrwt>
<pdfrwt beam="2">  1       -2 0.97913082E-01 0.79334713E+03</pdfrwt>
<totfact> 0.12627832E+01</totfact>
</mgrwt>
</event>
<event>
 4    1  0.7280516E-007  0.8628925E+03  0.7818608E-02  0.9588439E-01
          2   -1    0    0  501    0  0.00000000000E+00  0.00000000000E+00  0.66339676792E+03  0.66339676792E+03  0.25500000000E-02 0. -1.
         -2   -1    0    0    0  501 -0.00000000000E+00 -0.00000000000E+00 -0.20009188071E+04  0.20009188071E+04  0.25500000000E-02 0.  1.
    8880023    1    1    2    0    0  0.15885896287E+03  0.53435674249E+03  0.31111830860E+03  0.91726664964E+03  0.65864270000E+03 0.  0.
    8880022    1    1    2    0    0 -0.15885896287E+03 -0.53435674249E+03 -0.16486403478E+04  0.17470489254E+04  0.15294330000E+03 0.  0.
<mgrwt>
<rscale>  0 0.78066128E+03</rscale>
<asrwt>0</asrwt>
<pdfrwt beam="1">  1        2 0.10206104E+00 0.86289252E+03</pdfrwt>
<pdfrwt beam="2">  1       -2 0.30783366E+00 0.86289252E+03</pdfrwt>
<totfact> 0.12797020E+00</totfact>
</mgrwt>
</event>
<event>
 4    1  0.7280516E-007  0.7008299E+03  0.7818608E-02  0.9993776E-01
          2   -1    0    0  501    0  0.00000000000E+00  0.00000000000E+00  0.54990184698E+03  0.54990184699E+03  0.25500000000E-02 0. -1.
         -2   -1    0    0    0  501 -0.00000000000E+00 -0.00000000000E+00 -0.19446571305E+04  0.19446571305E+04  0.25500000000E-02 0.  1.
    8880023    1    1    2    0    0  0.18924481179E+03 -0.14676094468E+03  0.30996645772E+03  0.76631702633E+03  0.65864270000E+03 0. -1.
    8880022    1    1    2    0    0 -0.18924481179E+03  0.14676094468E+03 -0.17047217413E+04  0.17282419512E+04  0.15294330000E+03 0.  0.
<mgrwt>
<rscale>  0 0.55924006E+03</rscale>
<asrwt>0</asrwt>
<pdfrwt beam="1">  1        2 0.84600285E-01 0.70082992E+03</pdfrwt>
<pdfrwt beam="2">  1       -2 0.29917802E+00 0.70082992E+03</pdfrwt>
<totfact> 0.18594346E+00</totfact>
</mgrwt>
</event>
<event>
 4    1  0.7280516E-007  0.6814259E+03  0.7818608E-02  0.1008528E+00
         -2   -1    0    0    0  501 -0.00000000000E+00  0.00000000000E+00  0.70166441029E+03  0.70166441030E+03  0.25500000000E-02 0.  1.
          2   -1    0    0  501    0  0.00000000000E+00 -0.00000000000E+00 -0.11572342664E+04  0.11572342664E+04  0.25500000000E-02 0. -1.
    8880023    1    1    2    0    0 -0.50966681978E+02 -0.16713321342E+03 -0.10324415571E+04  0.12370436083E+04  0.65864270000E+03 0. -1.
    8880022    1    1    2    0    0  0.50966681978E+02  0.16713321342E+03  0.57687170099E+03  0.62185506842E+03  0.15294330000E+03 0.  0.
<mgrwt>
<rscale>  0 0.52063759E+03</rscale>
<asrwt>0</asrwt>
<pdfrwt beam="1">  1        2 0.17803604E+00 0.68142595E+03</pdfrwt>
<pdfrwt beam="2">  1       -2 0.10794837E+00 0.68142595E+03</pdfrwt>
<totfact> 0.14200538E+01</totfact>
</mgrwt>
</event>
<event>
 4    1  0.7280516E-007  0.7821231E+03  0.7818608E-02  0.9750873E-01
         -2   -1    0    0    0  501 -0.00000000000E+00  0.00000000000E+00  0.39793104234E+03  0.39793104235E+03  0.25500000000E-02 0.  1.
          2   -1    0    0  501    0  0.00000000000E+00 -0.00000000000E+00 -0.12241619770E+04  0.12241619770E+04  0.25500000000E-02 0. -1.
    8880023    1    1    2    0    0  0.39578850408E+03  0.14580061694E+03 -0.87168672599E+03  0.11711337731E+04  0.65864270000E+03 0. -1.
    8880022    1    1    2    0    0 -0.39578850408E+03 -0.14580061694E+03  0.45455791316E+02  0.45095924632E+03  0.15294330000E+03 0.  0.
<mgrwt>
<rscale>  0 0.68066948E+03</rscale>
<asrwt>0</asrwt>
<pdfrwt beam="1">  1        2 0.18833261E+00 0.78212311E+03</pdfrwt>
<pdfrwt beam="2">  1       -2 0.61220161E-01 0.78212311E+03</pdfrwt>
<totfact> 0.46157527E+01</totfact>
</mgrwt>
</event>
<event>
 4    1  0.7280516E-007  0.8413148E+03  0.7818608E-02  0.9627706E-01
          2   -1    0    0  501    0  0.00000000000E+00  0.00000000000E+00  0.19449600765E+04  0.19449600765E+04  0.25500000000E-02 0. -1.
         -2   -1    0    0    0  501 -0.00000000000E+00 -0.00000000000E+00 -0.41263843744E+03  0.41263843744E+03  0.25500000000E-02 0.  1.
    8880023    1    1    2    0    0 -0.40418158129E+03  0.33262245898E+03  0.16003664705E+04  0.18080330465E+04  0.65864270000E+03 0. -1.
    8880022    1    1    2    0    0  0.40418158129E+03 -0.33262245898E+03 -0.68044831522E+02  0.54956546742E+03  0.15294330000E+03 0.  0.
<mgrwt>
<rscale>  0 0.75489247E+03</rscale>
<asrwt>0</asrwt>
<pdfrwt beam="1">  1        2 0.29922463E+00 0.84131484E+03</pdfrwt>
<pdfrwt beam="2">  1       -2 0.63482836E-01 0.84131484E+03</pdfrwt>
<totfact> 0.16809143E+01</totfact>
</mgrwt>
</event>
<event>
 4    1  0.7280516E-007  0.7904230E+03  0.7818608E-02  0.9731899E-01
         -2   -1    0    0    0  501 -0.00000000000E+00  0.00000000000E+00  0.36355262632E+03  0.36355262633E+03  0.25500000000E-02 0.  1.
          2   -1    0    0  501    0  0.00000000000E+00 -0.00000000000E+00 -0.19197740057E+04  0.19197740057E+04  0.25500000000E-02 0. -1.
    8880023    1    1    2    0    0 -0.17320349435E+03 -0.40119673244E+03 -0.16327993875E+04  0.18140568664E+04  0.65864270000E+03 0. -1.
    8880022    1    1    2    0    0  0.17320349435E+03  0.40119673244E+03  0.76578008104E+02  0.46926976561E+03  0.15294330000E+03 0.  0.
<mgrwt>
<rscale>  0 0.69148869E+03</rscale>
<asrwt>0</asrwt>
<pdfrwt beam="1">  1        2 0.29534984E+00 0.79042297E+03</pdfrwt>
<pdfrwt beam="2">  1       -2 0.55931174E-01 0.79042297E+03</pdfrwt>
<totfact> 0.22815846E+01</totfact>
</mgrwt>
</event>
<event>
 4    1  0.7280516E-007  0.7528679E+03  0.7818608E-02  0.9823934E-01
          2   -1    0    0  501    0  0.00000000000E+00  0.00000000000E+00  0.31339647325E+04  0.31339647325E+04  0.25500000000E-02 0. -1.
         -2   -1    0    0    0  501 -0.00000000000E+00 -0.00000000000E+00 -0.17629868853E+03  0.17629868855E+03  0.25500000000E-02 0.  1.
    8880023    1    1    2    0    0 -0.36425420846E+03  0.17851628838E+02  0.27737808672E+04  0.28741381864E+04  0.65864270000E+03 0. -1.
    8880022    1    1    2    0    0  0.36425420846E+03 -0.17851628838E+02  0.18388517672E+03  0.43612523461E+03  0.15294330000E+03 0.  0.
<mgrwt>
<rscale>  0 0.64093752E+03</rscale>
<asrwt>0</asrwt>
<pdfrwt beam="1">  1        2 0.48214838E+00 0.75286786E+03</pdfrwt>
<pdfrwt beam="2">  1       -2 0.27122878E-01 0.75286786E+03</pdfrwt>
<totfact> 0.18800295E+01</totfact>
</mgrwt>
</event>
<event>
 4    1  0.7280516E-007  0.1014094E+04  0.7818608E-02  0.9363347E-01
          2   -1    0    0  501    0  0.00000000000E+00  0.00000000000E+00  0.79106827193E+03  0.79106827193E+03  0.25500000000E-02 0. -1.
         -2   -1    0    0    0  501 -0.00000000000E+00 -0.00000000000E+00 -0.28080873999E+04  0.28080873999E+04  0.25500000000E-02 0.  1.
    8880023    1    1    2    0    0  0.16858740791E+03 -0.75243187787E+03  0.37505176640E+03  0.10812259147E+04  0.65864270000E+03 0. -1.
    8880022    1    1    2    0    0 -0.16858740791E+03  0.75243187787E+03 -0.23920708943E+04  0.25179297571E+04  0.15294330000E+03 0.  0.
<mgrwt>
<rscale>  0 0.95154465E+03</rscale>
<asrwt>0</asrwt>
<pdfrwt beam="1">  1        2 0.12170281E+00 0.10140935E+04</pdfrwt>
<pdfrwt beam="2">  1       -2 0.43201344E+00 0.10140935E+04</pdfrwt>
<totfact> 0.16228295E-01</totfact>
</mgrwt>
</event>
<event>
 4    1  0.7280516E-007  0.9096777E+03  0.7818608E-02  0.9510671E-01
          2   -1    0    0  501    0  0.00000000000E+00  0.00000000000E+00  0.19550323513E+04  0.19550323513E+04  0.25500000000E-02 0. -1.
         -2   -1    0    0    0  501 -0.00000000000E+00 -0.00000000000E+00 -0.67742459607E+03  0.67742459608E+03  0.25500000000E-02 0.  1.
    8880023    1    1    2    0    0 -0.60687253021E+03 -0.15940227832E+03  0.16520404575E+04  0.18859351086E+04  0.65864270000E+03 0.  0.
    8880022    1    1    2    0    0  0.60687253021E+03  0.15940227832E+03 -0.37443270228E+03  0.74652183880E+03  0.15294330000E+03 0.  0.
<mgrwt>
<rscale>  0 0.83501647E+03</rscale>
<asrwt>0</asrwt>
<pdfrwt beam="1">  1        2 0.30077421E+00 0.90967772E+03</pdfrwt>
<pdfrwt beam="2">  1       -2 0.10421917E+00 0.90967772E+03</pdfrwt>
<totfact> 0.53549112E+00</totfact>
</mgrwt>
</event>
<event>
 4    1  0.7280516E-007  0.7027776E+03  0.7818608E-02  0.9985868E-01
         -2   -1    0    0    0  501 -0.00000000000E+00  0.00000000000E+00  0.37662394052E+03  0.37662394053E+03  0.25500000000E-02 0.  1.
          2   -1    0    0  501    0  0.00000000000E+00 -0.00000000000E+00 -0.92021799534E+03  0.92021799534E+03  0.25500000000E-02 0. -1.
    8880023    1    1    2    0    0 -0.15228286499E+03  0.19208351690E+03 -0.67949300914E+03  0.97755158645E+03  0.65864270000E+03 0. -1.
    8880022    1    1    2    0    0  0.15228286499E+03 -0.19208351690E+03  0.13589895433E+03  0.31929034942E+03  0.15294330000E+03 0.  0.
<mgrwt>
<rscale>  0 0.56274262E+03</rscale>
<asrwt>0</asrwt>
<pdfrwt beam="1">  1        2 0.14157200E+00 0.70277760E+03</pdfrwt>
<pdfrwt beam="2">  1       -2 0.57942145E-01 0.70277760E+03</pdfrwt>
<totfact> 0.80596949E+01</totfact>
</mgrwt>
</event>
<event>
 4    1  0.7280516E-007  0.6801096E+03  0.7818608E-02  0.1009262E+00
         -2   -1    0    0    0  501 -0.00000000000E+00  0.00000000000E+00  0.41908803653E+03  0.41908803653E+03  0.25500000000E-02 0.  1.
          2   -1    0    0  501    0  0.00000000000E+00 -0.00000000000E+00 -0.10016051870E+04  0.10016051870E+04  0.25500000000E-02 0. -1.
    8880023    1    1    2    0    0  0.15571129214E+02  0.16880887593E+03 -0.83720969836E+03  0.10786422864E+04  0.65864270000E+03 0. -1.
    8880022    1    1    2    0    0 -0.15571129214E+02 -0.16880887593E+03  0.25469254788E+03  0.34205093717E+03  0.15294330000E+03 0.  0.
<mgrwt>
<rscale>  0 0.51769114E+03</rscale>
<asrwt>0</asrwt>
<pdfrwt beam="1">  1        2 0.15409311E+00 0.68010963E+03</pdfrwt>
<pdfrwt beam="2">  1       -2 0.64475083E-01 0.68010963E+03</pdfrwt>
<totfact> 0.57028181E+01</totfact>
</mgrwt>
</event>
<event>
 4    1  0.7280516E-007  0.7186647E+03  0.7818608E-02  0.9927130E-01
         -2   -1    0    0    0  501 -0.00000000000E+00  0.00000000000E+00  0.12288296856E+04  0.12288296856E+04  0.25500000000E-02 0.  1.
          2   -1    0    0  501    0  0.00000000000E+00 -0.00000000000E+00 -0.32329555508E+03  0.32329555509E+03  0.25500000000E-02 0. -1.
    8880023    1    1    2    0    0 -0.25171197105E+03  0.13895993982E+03  0.15671561157E+03  0.73555337700E+03  0.65864270000E+03 0. -1.
    8880022    1    1    2    0    0  0.25171197105E+03 -0.13895993982E+03  0.74881851895E+03  0.81657186370E+03  0.15294330000E+03 0. -1.
<mgrwt>
<rscale>  0 0.58964269E+03</rscale>
<asrwt>0</asrwt>
<pdfrwt beam="1">  1        2 0.49737777E-01 0.71866473E+03</pdfrwt>
<pdfrwt beam="2">  1       -2 0.18905072E+00 0.71866473E+03</pdfrwt>
<totfact> 0.16188039E+01</totfact>
</mgrwt>
</event>
<event>
 4    1  0.7280516E-007  0.1123256E+04  0.7818608E-02  0.9235594E-01
          2   -1    0    0  501    0  0.00000000000E+00  0.00000000000E+00  0.19302031204E+04  0.19302031204E+04  0.25500000000E-02 0. -1.
         -2   -1    0    0    0  501 -0.00000000000E+00 -0.00000000000E+00 -0.79333460529E+03  0.79333460529E+03  0.25500000000E-02 0.  1.
    8880023    1    1    2    0    0  0.56116000312E+03 -0.71623605494E+03  0.13702724956E+04  0.17718215356E+04  0.65864270000E+03 0. -1.
    8880022    1    1    2    0    0 -0.56116000312E+03  0.71623605494E+03 -0.23340398044E+03  0.95171619015E+03  0.15294330000E+03 0.  0.
<mgrwt>
<rscale>  0 0.10693469E+04</rscale>
<asrwt>0</asrwt>
<pdfrwt beam="1">  1        2 0.29695432E+00 0.11232564E+04</pdfrwt>
<pdfrwt beam="2">  1       -2 0.12205148E+00 0.11232564E+04</pdfrwt>
<totfact> 0.36582812E+00</totfact>
</mgrwt>
</event>
<event>
 4    1  0.7280516E-007  0.8469048E+03  0.7818608E-02  0.9617295E-01
         -2   -1    0    0    0  501 -0.00000000000E+00  0.00000000000E+00  0.11803862808E+04  0.11803862808E+04  0.25500000000E-02 0.  1.
          2   -1    0    0  501    0  0.00000000000E+00 -0.00000000000E+00 -0.63013445919E+03  0.63013445920E+03  0.25500000000E-02 0. -1.
    8880023    1    1    2    0    0 -0.43699707307E+03  0.30409071877E+03 -0.20744400640E+03  0.87194084041E+03  0.65864270000E+03 0. -1.
    8880022    1    1    2    0    0  0.43699707307E+03 -0.30409071877E+03  0.75769582800E+03  0.93857989958E+03  0.15294330000E+03 0.  0.
<mgrwt>
<rscale>  0 0.76161951E+03</rscale>
<asrwt>0</asrwt>
<pdfrwt beam="1">  1        2 0.96943763E-01 0.84690484E+03</pdfrwt>
<pdfrwt beam="2">  1       -2 0.18159789E+00 0.84690484E+03</pdfrwt>
<totfact> 0.83195124E+00</totfact>
</mgrwt>
</event>
<event>
 4    1  0.7280516E-007  0.7926761E+03  0.7818608E-02  0.9726861E-01
         -2   -1    0    0    0  501 -0.00000000000E+00  0.00000000000E+00  0.51660780286E+03  0.51660780287E+03  0.25500000000E-02 0.  1.
          2   -1    0    0  501    0  0.00000000000E+00 -0.00000000000E+00 -0.78201453437E+03  0.78201453437E+03  0.25500000000E-02 0. -1.
    8880023    1    1    2    0    0 -0.37951651667E+03 -0.22470525415E+03 -0.81379382254E+02  0.79684254893E+03  0.65864270000E+03 0.  0.
    8880022    1    1    2    0    0  0.37951651667E+03  0.22470525415E+03 -0.18402734925E+03  0.50177978831E+03  0.15294330000E+03 0.  0.
<mgrwt>
<rscale>  0 0.69439758E+03</rscale>
<asrwt>0</asrwt>
<pdfrwt beam="1">  1        2 0.12030993E+00 0.79267613E+03</pdfrwt>
<pdfrwt beam="2">  1       -2 0.79478123E-01 0.79267613E+03</pdfrwt>
<totfact> 0.50310413E+01</totfact>
</mgrwt>
</event>
<event>
 4    1  0.7280516E-007  0.9381728E+03  0.7818608E-02  0.9467339E-01
         -2   -1    0    0    0  501 -0.00000000000E+00  0.00000000000E+00  0.11915014621E+04  0.11915014621E+04  0.25500000000E-02 0.  1.
          2   -1    0    0  501    0  0.00000000000E+00 -0.00000000000E+00 -0.96812434914E+03  0.96812434915E+03  0.25500000000E-02 0. -1.
    8880023    1    1    2    0    0  0.24116016444E+03 -0.62305679282E+03 -0.58049021722E+03  0.11032393623E+04  0.65864270000E+03 0. -1.
    8880022    1    1    2    0    0 -0.24116016444E+03  0.62305679282E+03  0.80386733022E+03  0.10563864490E+04  0.15294330000E+03 0.  0.
<mgrwt>
<rscale>  0 0.86735210E+03</rscale>
<asrwt>0</asrwt>
<pdfrwt beam="1">  1        2 0.14894221E+00 0.93817280E+03</pdfrwt>
<pdfrwt beam="2">  1       -2 0.18330792E+00 0.93817280E+03</pdfrwt>
<totfact> 0.45365287E+00</totfact>
</mgrwt>
</event>
<event>
 4    1  0.7280516E-007  0.8481902E+03  0.7818608E-02  0.9614926E-01
         -2   -1    0    0    0  501 -0.00000000000E+00  0.00000000000E+00  0.10275359974E+04  0.10275359974E+04  0.25500000000E-02 0.  1.
          2   -1    0    0  501    0  0.00000000000E+00 -0.00000000000E+00 -0.72148248723E+03  0.72148248724E+03  0.25500000000E-02 0. -1.
    8880023    1    1    2    0    0  0.39351502512E+02 -0.53298023508E+03 -0.32474846077E+03  0.90823358272E+03  0.65864270000E+03 0.  0.
    8880022    1    1    2    0    0 -0.39351502512E+02  0.53298023508E+03  0.63080197094E+03  0.84078490192E+03  0.15294330000E+03 0.  0.
<mgrwt>
<rscale>  0 0.76316104E+03</rscale>
<asrwt>0</asrwt>
<pdfrwt beam="1">  1        2 0.11099731E+00 0.84819024E+03</pdfrwt>
<pdfrwt beam="2">  1       -2 0.15808246E+00 0.84819024E+03</pdfrwt>
<totfact> 0.10321395E+01</totfact>
</mgrwt>
</event>
<event>
 4    1  0.7280516E-007  0.7066681E+03  0.7818608E-02  0.9970588E-01
          2   -1    0    0  501    0  0.00000000000E+00  0.00000000000E+00  0.12738764157E+04  0.12738764157E+04  0.25500000000E-02 0. -1.
         -2   -1    0    0    0  501 -0.00000000000E+00 -0.00000000000E+00 -0.30231454503E+03  0.30231454504E+03  0.25500000000E-02 0.  1.
    8880023    1    1    2    0    0 -0.20299407073E+03  0.15608669637E+03  0.10519608195E+04  0.12672811139E+04  0.65864270000E+03 0. -1.
    8880022    1    1    2    0    0  0.20299407073E+03 -0.15608669637E+03 -0.80398948791E+02  0.30890984691E+03  0.15294330000E+03 0.  0.
<mgrwt>
<rscale>  0 0.56958924E+03</rscale>
<asrwt>0</asrwt>
<pdfrwt beam="1">  1        2 0.19598099E+00 0.70666814E+03</pdfrwt>
<pdfrwt beam="2">  1       -2 0.46509930E-01 0.70666814E+03</pdfrwt>
<totfact> 0.76635448E+01</totfact>
</mgrwt>
</event>
<event>
 4    1  0.7280516E-007  0.6682365E+03  0.7818608E-02  0.1016960E+00
          2   -1    0    0  501    0  0.00000000000E+00  0.00000000000E+00  0.26588078057E+04  0.26588078057E+04  0.25500000000E-02 0. -1.
         -2   -1    0    0    0  501 -0.00000000000E+00 -0.00000000000E+00 -0.16789534729E+03  0.16789534731E+03  0.25500000000E-02 0.  1.
    8880023    1    1    2    0    0 -0.77420223144E+02 -0.82072568312E+02  0.25432482478E+04  0.26295725230E+04  0.65864270000E+03 0.  0.
    8880022    1    1    2    0    0  0.77420223144E+02  0.82072568312E+02 -0.52335789410E+02  0.19713063001E+03  0.15294330000E+03 0.  1.
<mgrwt>
<rscale>  0 0.48799828E+03</rscale>
<asrwt>0</asrwt>
<pdfrwt beam="1">  1        2 0.40904736E+00 0.66823649E+03</pdfrwt>
<pdfrwt beam="2">  1       -2 0.25830053E-01 0.66823649E+03</pdfrwt>
<totfact> 0.40191139E+01</totfact>
</mgrwt>
</event>
<event>
 4    1  0.7280516E-007  0.1323618E+04  0.7818608E-02  0.9045428E-01
         -2   -1    0    0    0  501 -0.00000000000E+00  0.00000000000E+00  0.59444056868E+03  0.59444056868E+03  0.25500000000E-02 0.  1.
          2   -1    0    0  501    0  0.00000000000E+00 -0.00000000000E+00 -0.36788798164E+04  0.36788798164E+04  0.25500000000E-02 0. -1.
    8880023    1    1    2    0    0 -0.46322658259E+02  0.11471747445E+04 -0.27749058254E+04  0.30744216089E+04  0.65864270000E+03 0. -1.
    8880022    1    1    2    0    0  0.46322658259E+02 -0.11471747445E+04 -0.30953342233E+03  0.11988987762E+04  0.15294330000E+03 0.  0.
<mgrwt>
<rscale>  0 0.12801854E+04</rscale>
<asrwt>0</asrwt>
<pdfrwt beam="1">  1        2 0.56598150E+00 0.13236185E+04</pdfrwt>
<pdfrwt beam="2">  1       -2 0.91452397E-01 0.13236185E+04</pdfrwt>
<totfact> 0.60894217E-01</totfact>
</mgrwt>
</event>
<event>
 4    1  0.7280516E-007  0.1452899E+04  0.7818608E-02  0.8943632E-01
         -2   -1    0    0    0  501 -0.00000000000E+00  0.00000000000E+00  0.18872347256E+04  0.18872347256E+04  0.25500000000E-02 0.  1.
          2   -1    0    0  501    0  0.00000000000E+00 -0.00000000000E+00 -0.29102915549E+04  0.29102915549E+04  0.25500000000E-02 0. -1.
    8880023    1    1    2    0    0  0.10625292070E+04 -0.74036202182E+03 -0.24600476583E+04  0.28570524893E+04  0.65864270000E+03 0.  0.
    8880022    1    1    2    0    0 -0.10625292070E+04  0.74036202182E+03  0.14369908290E+04  0.19404737913E+04  0.15294330000E+03 0.  0.
<mgrwt>
<rscale>  0 0.14141596E+04</rscale>
<asrwt>0</asrwt>
<pdfrwt beam="1">  1        2 0.44773717E+00 0.14528986E+04</pdfrwt>
<pdfrwt beam="2">  1       -2 0.29034380E+00 0.14528986E+04</pdfrwt>
<totfact> 0.68251918E-02</totfact>
</mgrwt>
</event>
<event>
 4    1  0.8270215E-007  0.9026055E+03  0.7818608E-02  0.9521862E-01
          2   -1    0    0  501    0  0.00000000000E+00  0.00000000000E+00  0.16002842899E+04  0.16002842899E+04  0.25500000000E-02 0. -1.
         -2   -1    0    0    0  501 -0.00000000000E+00 -0.00000000000E+00 -0.12310876196E+04  0.12310876196E+04  0.25500000000E-02 0.  1.
    8880023    1    1    2    0    0 -0.53350748775E+02  0.61484970278E+03  0.13730140582E+04  0.16431263706E+04  0.65864270000E+03 0.  0.
    8880022    1    1    2    0    0  0.53350748775E+02 -0.61484970278E+03 -0.10038173879E+04  0.11882455389E+04  0.15294330000E+03 0.  0.
<mgrwt>
<rscale>  0 0.82691050E+03</rscale>
<asrwt>0</asrwt>
<pdfrwt beam="1">  1        2 0.24619758E+00 0.90260549E+03</pdfrwt>
<pdfrwt beam="2">  1       -2 0.18939810E+00 0.90260549E+03</pdfrwt>
<totfact> 0.17571249E+00</totfact>
</mgrwt>
</event>
<event>
 4    1  0.7280516E-007  0.7085298E+03  0.7818608E-02  0.9963502E-01
          2   -1    0    0  501    0  0.00000000000E+00  0.00000000000E+00  0.22050299710E+04  0.22050299710E+04  0.25500000000E-02 0. -1.
         -2   -1    0    0    0  501 -0.00000000000E+00 -0.00000000000E+00 -0.15939158664E+03  0.15939158666E+03  0.25500000000E-02 0.  1.
    8880023    1    1    2    0    0 -0.16774568696E+03  0.20016393840E+03  0.19014740248E+04  0.20291914378E+04  0.65864270000E+03 0. -1.
    8880022    1    1    2    0    0  0.16774568696E+03 -0.20016393840E+03  0.14416435956E+03  0.33523011994E+03  0.15294330000E+03 0.  0.
<mgrwt>
<rscale>  0 0.57280007E+03</rscale>
<asrwt>0</asrwt>
<pdfrwt beam="1">  1        2 0.33923537E+00 0.70852976E+03</pdfrwt>
<pdfrwt beam="2">  1       -2 0.24521783E-01 0.70852976E+03</pdfrwt>
<totfact> 0.78950653E+01</totfact>
</mgrwt>
</event>
<event>
 4    1  0.7280516E-007  0.6830460E+03  0.7818608E-02  0.1007651E+00
          2   -1    0    0  501    0  0.00000000000E+00  0.00000000000E+00  0.40321139391E+03  0.40321139392E+03  0.25500000000E-02 0. -1.
         -2   -1    0    0    0  501 -0.00000000000E+00 -0.00000000000E+00 -0.11973198386E+04  0.11973198386E+04  0.25500000000E-02 0.  1.
    8880023    1    1    2    0    0  0.38689674496E+02 -0.17676179843E+03  0.86597474857E+02  0.68851358245E+03  0.65864270000E+03 0. -1.
    8880022    1    1    2    0    0 -0.38689674496E+02  0.17676179843E+03 -0.88070591951E+03  0.91201765003E+03  0.15294330000E+03 0.  0.
<mgrwt>
<rscale>  0 0.52419154E+03</rscale>
<asrwt>0</asrwt>
<pdfrwt beam="1">  1        2 0.62032523E-01 0.68304599E+03</pdfrwt>
<pdfrwt beam="2">  1       -2 0.18420305E+00 0.68304599E+03</pdfrwt>
<totfact> 0.13678664E+01</totfact>
</mgrwt>
</event>
<event>
 4    1  0.7280516E-007  0.7598711E+03  0.7818608E-02  0.9805441E-01
         -2   -1    0    0    0  501 -0.00000000000E+00  0.00000000000E+00  0.54216128512E+03  0.54216128513E+03  0.25500000000E-02 0.  1.
          2   -1    0    0  501    0  0.00000000000E+00 -0.00000000000E+00 -0.74787507682E+03  0.74787507682E+03  0.25500000000E-02 0. -1.
    8880023    1    1    2    0    0  0.15774974125E+03 -0.34454168728E+03 -0.37542906999E+03  0.84755598517E+03  0.65864270000E+03 0.  0.
    8880022    1    1    2    0    0 -0.15774974125E+03  0.34454168728E+03  0.16971527829E+03  0.44248037678E+03  0.15294330000E+03 0.  0.
<mgrwt>
<rscale>  0 0.65071354E+03</rscale>
<asrwt>0</asrwt>
<pdfrwt beam="1">  1        2 0.11505770E+00 0.75987115E+03</pdfrwt>
<pdfrwt beam="2">  1       -2 0.83409429E-01 0.75987115E+03</pdfrwt>
<totfact> 0.47935158E+01</totfact>
</mgrwt>
</event>
<event>
 4    1  0.7280516E-007  0.6599668E+03  0.7818608E-02  0.1024190E+00
          2   -1    0    0  501    0  0.00000000000E+00  0.00000000000E+00  0.26512420644E+04  0.26512420644E+04  0.25500000000E-02 0. -1.
         -2   -1    0    0    0  501 -0.00000000000E+00 -0.00000000000E+00 -0.14816852369E+03  0.14816852372E+03  0.25500000000E-02 0.  1.
    8880023    1    1    2    0    0 -0.35478943195E+02  0.22072764353E+02  0.25500354145E+04  0.26340532994E+04  0.65864270000E+03 0. -1.
    8880022    1    1    2    0    0  0.35478943195E+02 -0.22072764353E+02 -0.46961873813E+02  0.16535728875E+03  0.15294330000E+03 0.  0.
<mgrwt>
<rscale>  0 0.46204266E+03</rscale>
<asrwt>0</asrwt>
<pdfrwt beam="1">  1        2 0.40788341E+00 0.65996679E+03</pdfrwt>
<pdfrwt beam="2">  1       -2 0.22795157E-01 0.65996679E+03</pdfrwt>
<totfact> 0.50861404E+01</totfact>
</mgrwt>
</event>
<event>
 4    1  0.7280516E-007  0.8080782E+03  0.7818608E-02  0.9693594E-01
         -2   -1    0    0    0  501 -0.00000000000E+00  0.00000000000E+00  0.42809112909E+03  0.42809112910E+03  0.25500000000E-02 0.  1.
          2   -1    0    0  501    0  0.00000000000E+00 -0.00000000000E+00 -0.10530771249E+04  0.10530771249E+04  0.25500000000E-02 0. -1.
    8880023    1    1    2    0    0 -0.45534265544E+03 -0.10882640137E+03 -0.56278059733E+03  0.98473972525E+03  0.65864270000E+03 0.  0.
    8880022    1    1    2    0    0  0.45534265544E+03  0.10882640137E+03 -0.62205398439E+02  0.49642852870E+03  0.15294330000E+03 0. -1.
<mgrwt>
<rscale>  0 0.71399482E+03</rscale>
<asrwt>0</asrwt>
<pdfrwt beam="1">  1        2 0.16201186E+00 0.80807817E+03</pdfrwt>
<pdfrwt beam="2">  1       -2 0.65860174E-01 0.80807817E+03</pdfrwt>
<totfact> 0.49998508E+01</totfact>
</mgrwt>
</event>
<event>
 4    1  0.7280516E-007  0.8144200E+03  0.7818608E-02  0.9680443E-01
         -2   -1    0    0    0  501 -0.00000000000E+00  0.00000000000E+00  0.31204084615E+03  0.31204084616E+03  0.25500000000E-02 0.  1.
          2   -1    0    0  501    0  0.00000000000E+00 -0.00000000000E+00 -0.15077645749E+04  0.15077645749E+04  0.25500000000E-02 0. -1.
    8880023    1    1    2    0    0  0.34792338623E+03 -0.32927054699E+03 -0.97567307765E+03  0.12709122458E+04  0.65864270000E+03 0. -1.
    8880022    1    1    2    0    0 -0.34792338623E+03  0.32927054699E+03 -0.22005065111E+03  0.54889317528E+03  0.15294330000E+03 0.  0.
<mgrwt>
<rscale>  0 0.72193261E+03</rscale>
<asrwt>0</asrwt>
<pdfrwt beam="1">  1        2 0.23196378E+00 0.81442003E+03</pdfrwt>
<pdfrwt beam="2">  1       -2 0.48006285E-01 0.81442003E+03</pdfrwt>
<totfact> 0.52439263E+01</totfact>
</mgrwt>
</event>
<event>
 4    1  0.7280516E-007  0.7131563E+03  0.7818608E-02  0.9946462E-01
          2   -1    0    0  501    0  0.00000000000E+00  0.00000000000E+00  0.19247372042E+04  0.19247372042E+04  0.25500000000E-02 0. -1.
         -2   -1    0    0    0  501 -0.00000000000E+00 -0.00000000000E+00 -0.18471123799E+03  0.18471123801E+03  0.25500000000E-02 0.  1.
    8880023    1    1    2    0    0  0.18538135832E+03  0.20103603482E+03  0.16268691516E+04  0.17763150560E+04  0.65864270000E+03 0.  0.
    8880022    1    1    2    0    0 -0.18538135832E+03 -0.20103603482E+03  0.11315681456E+03  0.33313338621E+03  0.15294330000E+03 0.  0.
<mgrwt>
<rscale>  0 0.58061436E+03</rscale>
<asrwt>0</asrwt>
<pdfrwt beam="1">  1        2 0.29611342E+00 0.71315632E+03</pdfrwt>
<pdfrwt beam="2">  1       -2 0.28417113E-01 0.71315632E+03</pdfrwt>
<totfact> 0.85886580E+01</totfact>
</mgrwt>
</event>
<event>
 4    1  0.7280516E-007  0.1776757E+04  0.7818608E-02  0.8735504E-01
         -2   -1    0    0    0  501 -0.00000000000E+00  0.00000000000E+00  0.15634832476E+04  0.15634832476E+04  0.25500000000E-02 0.  1.
          2   -1    0    0  501    0  0.00000000000E+00 -0.00000000000E+00 -0.33030765508E+04  0.33030765508E+04  0.25500000000E-02 0. -1.
    8880023    1    1    2    0    0 -0.13480237926E+04 -0.95178101326E+03  0.70638647580E+03  0.19120270139E+04  0.65864270000E+03 0.  1.
    8880022    1    1    2    0    0  0.13480237926E+04  0.95178101326E+03 -0.24459797790E+04  0.29545327845E+04  0.15294330000E+03 0.  0.
<mgrwt>
<rscale>  0 0.17460932E+04</rscale>
<asrwt>0</asrwt>
<pdfrwt beam="1">  1        2 0.50816562E+00 0.17767570E+04</pdfrwt>
<pdfrwt beam="2">  1       -2 0.24053588E+00 0.17767570E+04</pdfrwt>
<totfact> 0.74234532E-02</totfact>
</mgrwt>
</event>
<event>
 4    1  0.7280516E-007  0.6637151E+03  0.7818608E-02  0.1020637E+00
         -2   -1    0    0    0  501 -0.00000000000E+00  0.00000000000E+00  0.60091694253E+03  0.60091694253E+03  0.25500000000E-02 0.  1.
          2   -1    0    0  501    0  0.00000000000E+00 -0.00000000000E+00 -0.96996467893E+03  0.96996467893E+03  0.25500000000E-02 0. -1.
    8880023    1    1    2    0    0 -0.31293234682E+01 -0.81839519781E+02 -0.83908350350E+03  0.10698499109E+04  0.65864270000E+03 0. -1.
    8880022    1    1    2    0    0  0.31293234682E+01  0.81839519781E+02  0.47003576710E+03  0.50103171060E+03  0.15294330000E+03 0.  0.
<mgrwt>
<rscale>  0 0.47457575E+03</rscale>
<asrwt>0</asrwt>
<pdfrwt beam="1">  1        2 0.14922533E+00 0.66371508E+03</pdfrwt>
<pdfrwt beam="2">  1       -2 0.92448761E-01 0.66371508E+03</pdfrwt>
<totfact> 0.26817439E+01</totfact>
</mgrwt>
</event>
<event>
 4    1  0.7280516E-007  0.7990657E+03  0.7818608E-02  0.9712820E-01
         -2   -1    0    0    0  501 -0.00000000000E+00  0.00000000000E+00  0.24694050655E+03  0.24694050656E+03  0.25500000000E-02 0.  1.
          2   -1    0    0  501    0  0.00000000000E+00 -0.00000000000E+00 -0.20079973802E+04  0.20079973802E+04  0.25500000000E-02 0. -1.
    8880023    1    1    2    0    0 -0.77427412746E+02 -0.44575869951E+03 -0.15262040541E+04  0.17227317967E+04  0.65864270000E+03 0. -1.
    8880022    1    1    2    0    0  0.77427412746E+02  0.44575869951E+03 -0.23485281962E+03  0.53220609010E+03  0.15294330000E+03 0.  0.
<mgrwt>
<rscale>  0 0.70258610E+03</rscale>
<asrwt>0</asrwt>
<pdfrwt beam="1">  1        2 0.30892266E+00 0.79906572E+03</pdfrwt>
<pdfrwt beam="2">  1       -2 0.37990849E-01 0.79906572E+03</pdfrwt>
<totfact> 0.44318930E+01</totfact>
</mgrwt>
</event>
<event>
 4    1  0.7280516E-007  0.7029331E+03  0.7818608E-02  0.9985244E-01
          2   -1    0    0  501    0  0.00000000000E+00  0.00000000000E+00  0.64372829755E+03  0.64372829755E+03  0.25500000000E-02 0. -1.
         -2   -1    0    0    0  501 -0.00000000000E+00 -0.00000000000E+00 -0.59800520006E+03  0.59800520006E+03  0.25500000000E-02 0.  1.
    8880023    1    1    2    0    0 -0.20892717864E+03 -0.12905129798E+03  0.38046992269E+03  0.79929492168E+03  0.65864270000E+03 0. -1.
    8880022    1    1    2    0    0  0.20892717864E+03  0.12905129798E+03 -0.33474682520E+03  0.44243857594E+03  0.15294330000E+03 0.  0.
<mgrwt>
<rscale>  0 0.56302010E+03</rscale>
<asrwt>0</asrwt>
<pdfrwt beam="1">  1        2 0.99035122E-01 0.70293315E+03</pdfrwt>
<pdfrwt beam="2">  1       -2 0.92000800E-01 0.70293315E+03</pdfrwt>
<totfact> 0.46447661E+01</totfact>
</mgrwt>
</event>
<event>
 4    1  0.7280516E-007  0.7448093E+03  0.7818608E-02  0.9846153E-01
         -2   -1    0    0    0  501 -0.00000000000E+00  0.00000000000E+00  0.22210292143E+03  0.22210292144E+03  0.25500000000E-02 0.  1.
          2   -1    0    0  501    0  0.00000000000E+00 -0.00000000000E+00 -0.16974535151E+04  0.16974535151E+04  0.25500000000E-02 0. -1.
    8880023    1    1    2    0    0 -0.30743600042E+03 -0.16252315160E+03 -0.13063603184E+04  0.15037679864E+04  0.65864270000E+03 0.  0.
    8880022    1    1    2    0    0  0.30743600042E+03  0.16252315160E+03 -0.16899027535E+03  0.41578845022E+03  0.15294330000E+03 0.  0.
<mgrwt>
<rscale>  0 0.62943444E+03</rscale>
<asrwt>0</asrwt>
<pdfrwt beam="1">  1        2 0.26114669E+00 0.74480929E+03</pdfrwt>
<pdfrwt beam="2">  1       -2 0.34169681E-01 0.74480929E+03</pdfrwt>
<totfact> 0.80699451E+01</totfact>
</mgrwt>
</event>
<event>
 4    1  0.7280516E-007  0.1119291E+04  0.7818608E-02  0.9239876E-01
          2   -1    0    0  501    0  0.00000000000E+00  0.00000000000E+00  0.11586943349E+04  0.11586943349E+04  0.25500000000E-02 0. -1.
         -2   -1    0    0    0  501 -0.00000000000E+00 -0.00000000000E+00 -0.14162758228E+04  0.14162758228E+04  0.25500000000E-02 0.  1.
    8880023    1    1    2    0    0  0.60558072198E+03 -0.67251305928E+03  0.64155655071E+03  0.12901189247E+04  0.65864270000E+03 0. -1.
    8880022    1    1    2    0    0 -0.60558072198E+03  0.67251305928E+03 -0.89913803852E+03  0.12848512330E+04  0.15294330000E+03 0.  0.
<mgrwt>
<rscale>  0 0.10651152E+04</rscale>
<asrwt>0</asrwt>
<pdfrwt beam="1">  1        2 0.17826067E+00 0.11192909E+04</pdfrwt>
<pdfrwt beam="2">  1       -2 0.21788859E+00 0.11192909E+04</pdfrwt>
<totfact> 0.20033246E+00</totfact>
</mgrwt>
</event>
<event>
 4    1  0.7280516E-007  0.6912566E+03  0.7818608E-02  0.1003561E+00
          2   -1    0    0  501    0  0.00000000000E+00  0.00000000000E+00  0.69009054367E+03  0.69009054368E+03  0.25500000000E-02 0. -1.
         -2   -1    0    0    0  501 -0.00000000000E+00 -0.00000000000E+00 -0.33526095843E+03  0.33526095844E+03  0.25500000000E-02 0.  1.
    8880023    1    1    2    0    0  0.17252129062E+03  0.11942316657E+03  0.32547851570E+03  0.76404970969E+03  0.65864270000E+03 0.  0.
    8880022    1    1    2    0    0 -0.17252129062E+03 -0.11942316657E+03  0.29351069540E+02  0.26130179243E+03  0.15294330000E+03 0.  1.
<mgrwt>
<rscale>  0 0.54116009E+03</rscale>
<asrwt>0</asrwt>
<pdfrwt beam="1">  1        2 0.10616778E+00 0.69125661E+03</pdfrwt>
<pdfrwt beam="2">  1       -2 0.51578609E-01 0.69125661E+03</pdfrwt>
<totfact> 0.15019705E+02</totfact>
</mgrwt>
</event>
<event>
 4    1  0.7280516E-007  0.7032164E+03  0.7818608E-02  0.9984111E-01
         -2   -1    0    0    0  501 -0.00000000000E+00  0.00000000000E+00  0.21358110689E+03  0.21358110690E+03  0.25500000000E-02 0.  1.
          2   -1    0    0  501    0  0.00000000000E+00 -0.00000000000E+00 -0.11798606004E+04  0.11798606004E+04  0.25500000000E-02 0. -1.
    8880023    1    1    2    0    0  0.71612006605E+02  0.23574298003E+03 -0.58707306250E+03  0.91606114375E+03  0.65864270000E+03 0. -1.
    8880022    1    1    2    0    0 -0.71612006605E+02 -0.23574298003E+03 -0.37920643104E+03  0.47738056358E+03  0.15294330000E+03 0.  0.
<mgrwt>
<rscale>  0 0.56352448E+03</rscale>
<asrwt>0</asrwt>
<pdfrwt beam="1">  1        2 0.18151701E+00 0.70321635E+03</pdfrwt>
<pdfrwt beam="2">  1       -2 0.32858633E-01 0.70321635E+03</pdfrwt>
<totfact> 0.17085141E+02</totfact>
</mgrwt>
</event>
<event>
 4    1  0.7280516E-007  0.1364902E+04  0.7818608E-02  0.9011446E-01
          2   -1    0    0  501    0  0.00000000000E+00  0.00000000000E+00  0.24670180440E+04  0.24670180440E+04  0.25500000000E-02 0. -1.
         -2   -1    0    0    0  501 -0.00000000000E+00 -0.00000000000E+00 -0.88649754437E+03  0.88649754438E+03  0.25500000000E-02 0.  1.
    8880023    1    1    2    0    0  0.70208643877E+02 -0.11934064979E+04 -0.12633536953E+01  0.13649029729E+04  0.65864270000E+03 0.  0.
    8880022    1    1    2    0    0 -0.70208643877E+02  0.11934064979E+04  0.15817838533E+04  0.19886126155E+04  0.15294330000E+03 0.  0.
<mgrwt>
<rscale>  0 0.13230986E+04</rscale>
<asrwt>0</asrwt>
<pdfrwt beam="1">  1        2 0.37954124E+00 0.13649024E+04</pdfrwt>
<pdfrwt beam="2">  1       -2 0.13638424E+00 0.13649024E+04</pdfrwt>
<totfact> 0.13422947E+00</totfact>
</mgrwt>
</event>
<event>
 4    1  0.7280516E-007  0.8702729E+03  0.7818608E-02  0.9575545E-01
         -2   -1    0    0    0  501 -0.00000000000E+00  0.00000000000E+00  0.39679628698E+03  0.39679628698E+03  0.25500000000E-02 0.  1.
          2   -1    0    0  501    0  0.00000000000E+00 -0.00000000000E+00 -0.19746959972E+04  0.19746959972E+04  0.25500000000E-02 0. -1.
    8880023    1    1    2    0    0  0.52556481041E+03  0.21759200290E+03 -0.22946007386E+03  0.90001487845E+03  0.65864270000E+03 0.  0.
    8880022    1    1    2    0    0 -0.52556481041E+03 -0.21759200290E+03 -0.13484396364E+04  0.14714774058E+04  0.15294330000E+03 0.  0.
<mgrwt>
<rscale>  0 0.78936148E+03</rscale>
<asrwt>0</asrwt>
<pdfrwt beam="1">  1        2 0.30379938E+00 0.87027286E+03</pdfrwt>
<pdfrwt beam="2">  1       -2 0.61045584E-01 0.87027286E+03</pdfrwt>
<totfact> 0.17537601E+01</totfact>
</mgrwt>
</event>
<event>
 4    1  0.7280516E-007  0.7766749E+03  0.7818608E-02  0.9763707E-01
          2   -1    0    0  501    0  0.00000000000E+00  0.00000000000E+00  0.15713670455E+04  0.15713670455E+04  0.25500000000E-02 0. -1.
         -2   -1    0    0    0  501 -0.00000000000E+00 -0.00000000000E+00 -0.47290918417E+03  0.47290918418E+03  0.25500000000E-02 0.  1.
    8880023    1    1    2    0    0 -0.16847174606E+01 -0.41159541530E+03  0.13357694301E+04  0.15451549439E+04  0.65864270000E+03 0. -1.
    8880022    1    1    2    0    0  0.16847174606E+01  0.41159541530E+03 -0.23731156878E+03  0.49912128572E+03  0.15294330000E+03 0.  0.
<mgrwt>
<rscale>  0 0.67347162E+03</rscale>
<asrwt>0</asrwt>
<pdfrwt beam="1">  1        2 0.24174877E+00 0.77667486E+03</pdfrwt>
<pdfrwt beam="2">  1       -2 0.72755260E-01 0.77667486E+03</pdfrwt>
<totfact> 0.20196110E+01</totfact>
</mgrwt>
</event>
<event>
 4    1  0.7280516E-007  0.1053571E+04  0.7818608E-02  0.9314600E-01
          2   -1    0    0  501    0  0.00000000000E+00  0.00000000000E+00  0.13728382826E+04  0.13728382826E+04  0.25500000000E-02 0. -1.
         -2   -1    0    0    0  501 -0.00000000000E+00 -0.00000000000E+00 -0.17489419140E+04  0.17489419140E+04  0.25500000000E-02 0.  1.
    8880023    1    1    2    0    0 -0.34932943357E+03  0.74442691570E+03  0.10378882198E+04  0.14789268573E+04  0.65864270000E+03 0.  0.
    8880022    1    1    2    0    0  0.34932943357E+03 -0.74442691570E+03 -0.14139918512E+04  0.16428533393E+04  0.15294330000E+03 0.  0.
<mgrwt>
<rscale>  0 0.99449762E+03</rscale>
<asrwt>0</asrwt>
<pdfrwt beam="1">  1        2 0.21120589E+00 0.10535714E+04</pdfrwt>
<pdfrwt beam="2">  1       -2 0.26906799E+00 0.10535714E+04</pdfrwt>
<totfact> 0.73084204E-01</totfact>
</mgrwt>
</event>
<event>
 4    1  0.7280516E-007  0.9411030E+03  0.7818608E-02  0.9463032E-01
          2   -1    0    0  501    0  0.00000000000E+00  0.00000000000E+00  0.10863065484E+04  0.10863065484E+04  0.25500000000E-02 0. -1.
         -2   -1    0    0    0  501 -0.00000000000E+00 -0.00000000000E+00 -0.78483719720E+03  0.78483719721E+03  0.25500000000E-02 0.  1.
    8880023    1    1    2    0    0  0.61722263107E+03  0.26627235612E+03  0.60404405662E+03  0.11182773236E+04  0.65864270000E+03 0.  0.
    8880022    1    1    2    0    0 -0.61722263107E+03 -0.26627235612E+03 -0.30257470544E+03  0.75286642197E+03  0.15294330000E+03 0.  0.
<mgrwt>
<rscale>  0 0.87065056E+03</rscale>
<asrwt>0</asrwt>
<pdfrwt beam="1">  1        2 0.16712408E+00 0.94110305E+03</pdfrwt>
<pdfrwt beam="2">  1       -2 0.12074418E+00 0.94110305E+03</pdfrwt>
<totfact> 0.11591478E+01</totfact>
</mgrwt>
</event>
<event>
 4    1  0.7493951E-007  0.1237463E+04  0.7818608E-02  0.9121538E-01
          2   -1    0    0  501    0  0.00000000000E+00  0.00000000000E+00  0.14504869484E+04  0.14504869484E+04  0.25500000000E-02 0. -1.
         -2   -1    0    0    0  501 -0.00000000000E+00 -0.00000000000E+00 -0.21947404977E+04  0.21947404977E+04  0.25500000000E-02 0.  1.
    8880023    1    1    2    0    0 -0.62199074914E+02 -0.10457709701E+04  0.10092852231E+04  0.15968633363E+04  0.65864270000E+03 0.  0.
    8880022    1    1    2    0    0  0.62199074914E+02  0.10457709701E+04 -0.17535387724E+04  0.20483641098E+04  0.15294330000E+03 0.  0.
<mgrwt>
<rscale>  0 0.11901317E+04</rscale>
<asrwt>0</asrwt>
<pdfrwt beam="1">  1        2 0.22315184E+00 0.12374635E+04</pdfrwt>
<pdfrwt beam="2">  1       -2 0.33765238E+00 0.12374635E+04</pdfrwt>
<totfact> 0.24530176E-01</totfact>
</mgrwt>
</event>
<event>
 4    1  0.7280516E-007  0.1547217E+04  0.7818608E-02  0.8876994E-01
          2   -1    0    0  501    0  0.00000000000E+00  0.00000000000E+00  0.15350775224E+04  0.15350775224E+04  0.25500000000E-02 0. -1.
         -2   -1    0    0    0  501 -0.00000000000E+00 -0.00000000000E+00 -0.21355813290E+04  0.21355813290E+04  0.25500000000E-02 0.  1.
    8880023    1    1    2    0    0  0.13979738737E+04  0.75762704430E+02  0.75000843865E+03  0.17194167043E+04  0.65864270000E+03 0. -1.
    8880022    1    1    2    0    0 -0.13979738737E+04 -0.75762704430E+02 -0.13505122453E+04  0.19512421471E+04  0.15294330000E+03 0.  0.
<mgrwt>
<rscale>  0 0.15112679E+04</rscale>
<asrwt>0</asrwt>
<pdfrwt beam="1">  1        2 0.23616577E+00 0.15472172E+04</pdfrwt>
<pdfrwt beam="2">  1       -2 0.32855097E+00 0.15472172E+04</pdfrwt>
<totfact> 0.24067965E-01</totfact>
</mgrwt>
</event>
<event>
 4    1  0.7280516E-007  0.1096358E+04  0.7818608E-02  0.9265122E-01
         -2   -1    0    0    0  501 -0.00000000000E+00  0.00000000000E+00  0.67240422899E+03  0.67240422899E+03  0.25500000000E-02 0.  1.
          2   -1    0    0  501    0  0.00000000000E+00 -0.00000000000E+00 -0.17457952407E+04  0.17457952407E+04  0.25500000000E-02 0. -1.
    8880023    1    1    2    0    0 -0.80264309430E+03 -0.35207181938E+03 -0.10224254769E+03  0.11011150020E+04  0.65864270000E+03 0.  1.
    8880022    1    1    2    0    0  0.80264309430E+03  0.35207181938E+03 -0.97114846405E+03  0.13170844677E+04  0.15294330000E+03 0.  0.
<mgrwt>
<rscale>  0 0.10405819E+04</rscale>
<asrwt>0</asrwt>
<pdfrwt beam="1">  1        2 0.26858388E+00 0.10963579E+04</pdfrwt>
<pdfrwt beam="2">  1       -2 0.10344681E+00 0.10963579E+04</pdfrwt>
<totfact> 0.69552096E+00</totfact>
</mgrwt>
</event>
<event>
 4    1  0.7280516E-007  0.7876909E+03  0.7818608E-02  0.9738071E-01
         -2   -1    0    0    0  501 -0.00000000000E+00  0.00000000000E+00  0.79300548272E+03  0.79300548272E+03  0.25500000000E-02 0.  1.
          2   -1    0    0  501    0  0.00000000000E+00 -0.00000000000E+00 -0.87781890530E+03  0.87781890530E+03  0.25500000000E-02 0. -1.
    8880023    1    1    2    0    0 -0.26314808535E+03  0.34263665996E+03 -0.59341013259E+03  0.98620108867E+03  0.65864270000E+03 0.  0.
    8880022    1    1    2    0    0  0.26314808535E+03 -0.34263665996E+03  0.50859671001E+03  0.68462329936E+03  0.15294330000E+03 0.  0.
<mgrwt>
<rscale>  0 0.68794582E+03</rscale>
<asrwt>0</asrwt>
<pdfrwt beam="1">  1        2 0.13504906E+00 0.78769093E+03</pdfrwt>
<pdfrwt beam="2">  1       -2 0.12200084E+00 0.78769093E+03</pdfrwt>
<totfact> 0.15650767E+01</totfact>
</mgrwt>
</event>
<event>
 4    1  0.7280516E-007  0.7127559E+03  0.7818608E-02  0.9947906E-01
         -2   -1    0    0    0  501 -0.00000000000E+00  0.00000000000E+00  0.19365433637E+03  0.19365433638E+03  0.25500000000E-02 0.  1.
          2   -1    0    0  501    0  0.00000000000E+00 -0.00000000000E+00 -0.23690487953E+04  0.23690487953E+04  0.25500000000E-02 0. -1.
    8880023    1    1    2    0    0 -0.23277283723E+03 -0.14151867709E+03 -0.21311390730E+04  0.22471703728E+04  0.65864270000E+03 0. -1.
    8880022    1    1    2    0    0  0.23277283723E+03  0.14151867709E+03 -0.44255385914E+02  0.31553275886E+03  0.15294330000E+03 0.  0.
<mgrwt>
<rscale>  0 0.57994680E+03</rscale>
<asrwt>0</asrwt>
<pdfrwt beam="1">  1        2 0.36446902E+00 0.71275587E+03</pdfrwt>
<pdfrwt beam="2">  1       -2 0.29792977E-01 0.71275587E+03</pdfrwt>
<totfact> 0.44870131E+01</totfact>
</mgrwt>
</event>
<event>
 4    1  0.7280516E-007  0.8846590E+03  0.7818608E-02  0.9551122E-01
         -2   -1    0    0    0  501 -0.00000000000E+00  0.00000000000E+00  0.74680900364E+03  0.74680900364E+03  0.25500000000E-02 0.  1.
          2   -1    0    0  501    0  0.00000000000E+00 -0.00000000000E+00 -0.12251330561E+04  0.12251330561E+04  0.25500000000E-02 0. -1.
    8880023    1    1    2    0    0  0.36524862074E+03  0.46411715240E+03 -0.87496106810E+03  0.12442581577E+04  0.65864270000E+03 0. -1.
    8880022    1    1    2    0    0 -0.36524862074E+03 -0.46411715240E+03  0.39663701562E+03  0.72768390204E+03  0.15294330000E+03 0.  0.
<mgrwt>
<rscale>  0 0.80617512E+03</rscale>
<asrwt>0</asrwt>
<pdfrwt beam="1">  1        2 0.18848201E+00 0.88465897E+03</pdfrwt>
<pdfrwt beam="2">  1       -2 0.11489369E+00 0.88465897E+03</pdfrwt>
<totfact> 0.10862019E+01</totfact>
</mgrwt>
</event>
<event>
 4    1  0.7280516E-007  0.8249926E+03  0.7818608E-02  0.9659155E-01
         -2   -1    0    0    0  501 -0.00000000000E+00  0.00000000000E+00  0.12043770820E+04  0.12043770820E+04  0.25500000000E-02 0.  1.
          2   -1    0    0  501    0  0.00000000000E+00 -0.00000000000E+00 -0.44106982288E+03  0.44106982289E+03  0.25500000000E-02 0. -1.
    8880023    1    1    2    0    0  0.40327279376E+03  0.29012697108E+03  0.14494073188E+03  0.83762797683E+03  0.65864270000E+03 0. -1.
    8880022    1    1    2    0    0 -0.40327279376E+03 -0.29012697108E+03  0.61836652727E+03  0.80781892810E+03  0.15294330000E+03 0.  0.
<mgrwt>
<rscale>  0 0.73501645E+03</rscale>
<asrwt>0</asrwt>
<pdfrwt beam="1">  1        2 0.67856897E-01 0.82499261E+03</pdfrwt>
<pdfrwt beam="2">  1       -2 0.18528878E+00 0.82499261E+03</pdfrwt>
<totfact> 0.11984023E+01</totfact>
</mgrwt>
</event>
<event>
 4    1  0.7280516E-007  0.6663052E+03  0.7818608E-02  0.1018463E+00
          2   -1    0    0  501    0  0.00000000000E+00  0.00000000000E+00  0.28432037688E+04  0.28432037688E+04  0.25500000000E-02 0. -1.
         -2   -1    0    0    0  501 -0.00000000000E+00 -0.00000000000E+00 -0.13537157678E+03  0.13537157681E+03  0.25500000000E-02 0.  1.
    8880023    1    1    2    0    0 -0.62618280397E+02 -0.78938601926E+02  0.27147218679E+04  0.27952955798E+04  0.65864270000E+03 0. -1.
    8880022    1    1    2    0    0  0.62618280397E+02  0.78938601926E+02 -0.68896759025E+01  0.18327976583E+03  0.15294330000E+03 0.  0.
<mgrwt>
<rscale>  0 0.48245492E+03</rscale>
<asrwt>0</asrwt>
<pdfrwt beam="1">  1        2 0.43741597E+00 0.66630515E+03</pdfrwt>
<pdfrwt beam="2">  1       -2 0.20826396E-01 0.66630515E+03</pdfrwt>
<totfact> 0.46035851E+01</totfact>
</mgrwt>
</event>
<event>
 4    1  0.7280516E-007  0.1121886E+04  0.7818608E-02  0.9237071E-01
         -2   -1    0    0    0  501 -0.00000000000E+00  0.00000000000E+00  0.48683109342E+03  0.48683109343E+03  0.25500000000E-02 0.  1.
          2   -1    0    0  501    0  0.00000000000E+00 -0.00000000000E+00 -0.24615261188E+04  0.24615261188E+04  0.25500000000E-02 0. -1.
    8880023    1    1    2    0    0 -0.67224448346E+03 -0.61066028217E+03 -0.15998619224E+04  0.19540181685E+04  0.65864270000E+03 0.  1.
    8880022    1    1    2    0    0  0.67224448346E+03  0.61066028217E+03 -0.37483310296E+03  0.99433904372E+03  0.15294330000E+03 0.  0.
<mgrwt>
<rscale>  0 0.10678852E+04</rscale>
<asrwt>0</asrwt>
<pdfrwt beam="1">  1        2 0.37869632E+00 0.11218863E+04</pdfrwt>
<pdfrwt beam="2">  1       -2 0.74897092E-01 0.11218863E+04</pdfrwt>
<totfact> 0.58406234E+00</totfact>
</mgrwt>
</event>
<event>
 4    1  0.7280516E-007  0.7248840E+03  0.7818608E-02  0.9906394E-01
         -2   -1    0    0    0  501 -0.00000000000E+00  0.00000000000E+00  0.24241012261E+03  0.24241012263E+03  0.25500000000E-02 0.  1.
          2   -1    0    0  501    0  0.00000000000E+00 -0.00000000000E+00 -0.19839738666E+04  0.19839738666E+04  0.25500000000E-02 0. -1.
    8880023    1    1    2    0    0  0.50892446301E+02  0.29842343127E+03 -0.17424421679E+04  0.18872099778E+04  0.65864270000E+03 0. -1.
    8880022    1    1    2    0    0 -0.50892446301E+02 -0.29842343127E+03  0.87842389282E+00  0.33917401149E+03  0.15294330000E+03 0.  0.
<mgrwt>
<rscale>  0 0.59952411E+03</rscale>
<asrwt>0</asrwt>
<pdfrwt beam="1">  1        2 0.30522674E+00 0.72488398E+03</pdfrwt>
<pdfrwt beam="2">  1       -2 0.37293866E-01 0.72488398E+03</pdfrwt>
<totfact> 0.47759009E+01</totfact>
</mgrwt>
</event>
<event>
 4    1  0.7280516E-007  0.7786293E+03  0.7818608E-02  0.9759067E-01
          2   -1    0    0  501    0  0.00000000000E+00  0.00000000000E+00  0.21986181329E+04  0.21986181329E+04  0.25500000000E-02 0. -1.
         -2   -1    0    0    0  501 -0.00000000000E+00 -0.00000000000E+00 -0.24180579625E+03  0.24180579626E+03  0.25500000000E-02 0.  1.
    8880023    1    1    2    0    0  0.15464489881E+03 -0.38540665295E+03  0.51825489178E+03  0.93533505868E+03  0.65864270000E+03 0.  1.
    8880022    1    1    2    0    0 -0.15464489881E+03  0.38540665295E+03  0.14385574449E+04  0.15050888705E+04  0.15294330000E+03 0.  0.
<mgrwt>
<rscale>  0 0.67606290E+03</rscale>
<asrwt>0</asrwt>
<pdfrwt beam="1">  1        2 0.33824893E+00 0.77862927E+03</pdfrwt>
<pdfrwt beam="2">  1       -2 0.37200893E-01 0.77862927E+03</pdfrwt>
<totfact> 0.36357870E+01</totfact>
</mgrwt>
</event>
<event>
 4    1  0.7280516E-007  0.7827714E+03  0.7818608E-02  0.9749367E-01
          2   -1    0    0  501    0  0.00000000000E+00  0.00000000000E+00  0.13321414953E+04  0.13321414953E+04  0.25500000000E-02 0. -1.
         -2   -1    0    0    0  501 -0.00000000000E+00 -0.00000000000E+00 -0.35702461484E+03  0.35702461485E+03  0.25500000000E-02 0.  1.
    8880023    1    1    2    0    0  0.15799351355E+03 -0.39237607184E+03  0.96059181133E+03  0.12391399301E+04  0.65864270000E+03 0. -1.
    8880022    1    1    2    0    0 -0.15799351355E+03  0.39237607184E+03  0.14525069118E+02  0.45002618005E+03  0.15294330000E+03 0.  0.
<mgrwt>
<rscale>  0 0.68152077E+03</rscale>
<asrwt>0</asrwt>
<pdfrwt beam="1">  1        2 0.20494484E+00 0.78277145E+03</pdfrwt>
<pdfrwt beam="2">  1       -2 0.54926864E-01 0.78277145E+03</pdfrwt>
<totfact> 0.50162722E+01</totfact>
</mgrwt>
</event>
<event>
 4    1  0.7280516E-007  0.6885187E+03  0.7818608E-02  0.1004865E+00
         -2   -1    0    0    0  501 -0.00000000000E+00  0.00000000000E+00  0.13325366816E+03  0.13325366819E+03  0.25500000000E-02 0.  1.
          2   -1    0    0  501    0  0.00000000000E+00 -0.00000000000E+00 -0.36800425753E+04  0.36800425753E+04  0.25500000000E-02 0. -1.
    8880023    1    1    2    0    0 -0.11355931529E+03 -0.16538455271E+03 -0.34866188642E+04  0.35539511926E+04  0.65864270000E+03 0. -1.
    8880022    1    1    2    0    0  0.11355931529E+03  0.16538455271E+03 -0.60170042895E+02  0.25934505093E+03  0.15294330000E+03 0.  0.
<mgrwt>
<rscale>  0 0.53567647E+03</rscale>
<asrwt>0</asrwt>
<pdfrwt beam="1">  1        2 0.56616032E+00 0.68851868E+03</pdfrwt>
<pdfrwt beam="2">  1       -2 0.20500567E-01 0.68851868E+03</pdfrwt>
<totfact> 0.13558298E+01</totfact>
</mgrwt>
</event>
<event>
 4    1  0.7280516E-007  0.6922838E+03  0.7818608E-02  0.1003085E+00
         -2   -1    0    0    0  501 -0.00000000000E+00  0.00000000000E+00  0.39755631539E+03  0.39755631540E+03  0.25500000000E-02 0.  1.
          2   -1    0    0  501    0  0.00000000000E+00 -0.00000000000E+00 -0.58318659781E+03  0.58318659781E+03  0.25500000000E-02 0. -1.
    8880023    1    1    2    0    0  0.15153611894E+03 -0.14994463240E+03 -0.19158584849E+03  0.71830490165E+03  0.65864270000E+03 0.  1.
    8880022    1    1    2    0    0 -0.15153611894E+03  0.14994463240E+03  0.59555660756E+01  0.26243801156E+03  0.15294330000E+03 0. -1.
<mgrwt>
<rscale>  0 0.54317757E+03</rscale>
<asrwt>0</asrwt>
<pdfrwt beam="1">  1        2 0.89721015E-01 0.69228375E+03</pdfrwt>
<pdfrwt beam="2">  1       -2 0.61162510E-01 0.69228375E+03</pdfrwt>
<totfact> 0.12941965E+02</totfact>
</mgrwt>
</event>
<event>
 4    1  0.7280516E-007  0.8262424E+03  0.7818608E-02  0.9656688E-01
          2   -1    0    0  501    0  0.00000000000E+00  0.00000000000E+00  0.13110580759E+04  0.13110580759E+04  0.25500000000E-02 0. -1.
         -2   -1    0    0    0  501 -0.00000000000E+00 -0.00000000000E+00 -0.48742535547E+03  0.48742535548E+03  0.25500000000E-02 0.  1.
    8880023    1    1    2    0    0 -0.31818288783E+03  0.38422132561E+03  0.95259705674E+03  0.12609987058E+04  0.65864270000E+03 0.  0.
    8880022    1    1    2    0    0  0.31818288783E+03 -0.38422132561E+03 -0.12896433635E+03  0.53748472558E+03  0.15294330000E+03 0.  0.
<mgrwt>
<rscale>  0 0.73655166E+03</rscale>
<asrwt>0</asrwt>
<pdfrwt beam="1">  1        2 0.20170125E+00 0.82624245E+03</pdfrwt>
<pdfrwt beam="2">  1       -2 0.74988515E-01 0.82624245E+03</pdfrwt>
<totfact> 0.26337787E+01</totfact>
</mgrwt>
</event>
<event>
 4    1  0.7280516E-007  0.7457241E+03  0.7818608E-02  0.9843576E-01
         -2   -1    0    0    0  501 -0.00000000000E+00  0.00000000000E+00  0.38728404684E+03  0.38728404685E+03  0.25500000000E-02 0.  1.
          2   -1    0    0  501    0  0.00000000000E+00 -0.00000000000E+00 -0.30417304048E+04  0.30417304048E+04  0.25500000000E-02 0. -1.
    8880023    1    1    2    0    0  0.29966756825E+03 -0.18025979995E+03 -0.28872045768E+04  0.29819548490E+04  0.65864270000E+03 0.  0.
    8880022    1    1    2    0    0 -0.29966756825E+03  0.18025979995E+03  0.23275821879E+03  0.44705960270E+03  0.15294330000E+03 0.  0.
<mgrwt>
<rscale>  0 0.63075519E+03</rscale>
<asrwt>0</asrwt>
<pdfrwt beam="1">  1        2 0.46795851E+00 0.74572411E+03</pdfrwt>
<pdfrwt beam="2">  1       -2 0.59582163E-01 0.74572411E+03</pdfrwt>
<totfact> 0.46032759E+00</totfact>
</mgrwt>
</event>
<event>
 4    1  0.7280516E-007  0.7305791E+03  0.7818608E-02  0.9888291E-01
          2   -1    0    0  501    0  0.00000000000E+00  0.00000000000E+00  0.53625038121E+03  0.53625038122E+03  0.25500000000E-02 0. -1.
         -2   -1    0    0    0  501 -0.00000000000E+00 -0.00000000000E+00 -0.57317973292E+03  0.57317973293E+03  0.25500000000E-02 0.  1.
    8880023    1    1    2    0    0  0.31536959923E+03  0.21855119895E+02  0.89813549135E+02  0.73607901088E+03  0.65864270000E+03 0. -1.
    8880022    1    1    2    0    0 -0.31536959923E+03 -0.21855119895E+02 -0.12674290085E+03  0.37335110327E+03  0.15294330000E+03 0.  0.
<mgrwt>
<rscale>  0 0.60832103E+03</rscale>
<asrwt>0</asrwt>
<pdfrwt beam="1">  1        2 0.82500058E-01 0.73057911E+03</pdfrwt>
<pdfrwt beam="2">  1       -2 0.88181498E-01 0.73057911E+03</pdfrwt>
<totfact> 0.63650880E+01</totfact>
</mgrwt>
</event>
<event>
 4    1  0.7280516E-007  0.7916057E+03  0.7818608E-02  0.9729249E-01
          2   -1    0    0  501    0  0.00000000000E+00  0.00000000000E+00  0.64889120150E+03  0.64889120151E+03  0.25500000000E-02 0. -1.
         -2   -1    0    0    0  501 -0.00000000000E+00 -0.00000000000E+00 -0.87002990608E+03  0.87002990608E+03  0.25500000000E-02 0.  1.
    8880023    1    1    2    0    0 -0.39874488271E+03 -0.18393445174E+03  0.27587617851E+03  0.83830020646E+03  0.65864270000E+03 0.  0.
    8880022    1    1    2    0    0  0.39874488271E+03  0.18393445174E+03 -0.49701488308E+03  0.68062090112E+03  0.15294330000E+03 0.  0.
<mgrwt>
<rscale>  0 0.69301705E+03</rscale>
<asrwt>0</asrwt>
<pdfrwt beam="1">  1        2 0.99829416E-01 0.79160569E+03</pdfrwt>
<pdfrwt beam="2">  1       -2 0.13385075E+00 0.79160569E+03</pdfrwt>
<totfact> 0.18350526E+01</totfact>
</mgrwt>
</event>
<event>
 4    1  0.7280516E-007  0.7126159E+03  0.7818608E-02  0.9948412E-01
         -2   -1    0    0    0  501 -0.00000000000E+00  0.00000000000E+00  0.14513409117E+03  0.14513409119E+03  0.25500000000E-02 0.  1.
          2   -1    0    0  501    0  0.00000000000E+00 -0.00000000000E+00 -0.20257935305E+04  0.20257935305E+04  0.25500000000E-02 0. -1.
    8880023    1    1    2    0    0 -0.17422785039E+03  0.20893989010E+03 -0.15986825579E+04  0.17503163568E+04  0.65864270000E+03 0.  0.
    8880022    1    1    2    0    0  0.17422785039E+03 -0.20893989010E+03 -0.28197688145E+03  0.42061126496E+03  0.15294330000E+03 0.  0.
<mgrwt>
<rscale>  0 0.57971309E+03</rscale>
<asrwt>0</asrwt>
<pdfrwt beam="1">  1        2 0.31166052E+00 0.71261590E+03</pdfrwt>
<pdfrwt beam="2">  1       -2 0.22328323E-01 0.71261590E+03</pdfrwt>
<totfact> 0.11694380E+02</totfact>
</mgrwt>
</event>
<event>
 4    1  0.7280516E-007  0.8108046E+03  0.7818608E-02  0.9687903E-01
          2   -1    0    0  501    0  0.00000000000E+00  0.00000000000E+00  0.27366992067E+04  0.27366992067E+04  0.25500000000E-02 0. -1.
         -2   -1    0    0    0  501 -0.00000000000E+00 -0.00000000000E+00 -0.31893319053E+03  0.31893319054E+03  0.25500000000E-02 0.  1.
    8880023    1    1    2    0    0  0.24528078354E+03  0.40426623741E+03  0.24267066439E+04  0.25585756184E+04  0.65864270000E+03 0.  0.
    8880022    1    1    2    0    0 -0.24528078354E+03 -0.40426623741E+03 -0.89406277591E+01  0.49705677877E+03  0.15294330000E+03 0.  0.
<mgrwt>
<rscale>  0 0.71741603E+03</rscale>
<asrwt>0</asrwt>
<pdfrwt beam="1">  1        2 0.42103064E+00 0.81080458E+03</pdfrwt>
<pdfrwt beam="2">  1       -2 0.49066645E-01 0.81080458E+03</pdfrwt>
<totfact> 0.10371551E+01</totfact>
</mgrwt>
</event>
<event>
 4    1  0.7280516E-007  0.7986668E+03  0.7818608E-02  0.9713686E-01
          2   -1    0    0  501    0  0.00000000000E+00  0.00000000000E+00  0.38482808716E+04  0.38482808716E+04  0.25500000000E-02 0. -1.
         -2   -1    0    0    0  501 -0.00000000000E+00 -0.00000000000E+00 -0.17389967409E+03  0.17389967411E+03  0.25500000000E-02 0.  1.
    8880023    1    1    2    0    0  0.43460685300E+03  0.12318847909E+03  0.33536687537E+04  0.34474574448E+04  0.65864270000E+03 0. -1.
    8880022    1    1    2    0    0 -0.43460685300E+03 -0.12318847909E+03  0.32071244378E+03  0.57472310086E+03  0.15294330000E+03 0.  0.
<mgrwt>
<rscale>  0 0.70207745E+03</rscale>
<asrwt>0</asrwt>
<pdfrwt beam="1">  1        2 0.59204313E+00 0.79866684E+03</pdfrwt>
<pdfrwt beam="2">  1       -2 0.26753800E-01 0.79866684E+03</pdfrwt>
<totfact> 0.62029051E+00</totfact>
</mgrwt>
</event>
<event>
 4    1  0.7280516E-007  0.9151672E+03  0.7818608E-02  0.9502109E-01
          2   -1    0    0  501    0  0.00000000000E+00  0.00000000000E+00  0.13705550861E+04  0.13705550861E+04  0.25500000000E-02 0. -1.
         -2   -1    0    0    0  501 -0.00000000000E+00 -0.00000000000E+00 -0.47472444961E+03  0.47472444962E+03  0.25500000000E-02 0.  1.
    8880023    1    1    2    0    0 -0.60456053717E+03 -0.19551808102E+03  0.73099339576E+03  0.11712737998E+04  0.65864270000E+03 0.  0.
    8880022    1    1    2    0    0  0.60456053717E+03  0.19551808102E+03  0.16483724068E+03  0.67400573591E+03  0.15294330000E+03 0. -1.
<mgrwt>
<rscale>  0 0.84128492E+03</rscale>
<asrwt>0</asrwt>
<pdfrwt beam="1">  1        2 0.21085463E+00 0.91516718E+03</pdfrwt>
<pdfrwt beam="2">  1       -2 0.73034531E-01 0.91516718E+03</pdfrwt>
<totfact> 0.25590939E+01</totfact>
</mgrwt>
</event>
<event>
 4    1  0.7280516E-007  0.6882921E+03  0.7818608E-02  0.1004975E+00
         -2   -1    0    0    0  501 -0.00000000000E+00  0.00000000000E+00  0.34716735762E+03  0.34716735763E+03  0.25500000000E-02 0.  1.
          2   -1    0    0  501    0  0.00000000000E+00 -0.00000000000E+00 -0.13774514215E+04  0.13774514215E+04  0.25500000000E-02 0. -1.
    8880023    1    1    2    0    0 -0.19798670341E+03 -0.27150002844E+02 -0.12258826337E+04  0.14058927040E+04  0.65864270000E+03 0. -1.
    8880022    1    1    2    0    0  0.19798670341E+03  0.27150002844E+02  0.19559856986E+03  0.31872607507E+03  0.15294330000E+03 0.  0.
<mgrwt>
<rscale>  0 0.53521547E+03</rscale>
<asrwt>0</asrwt>
<pdfrwt beam="1">  1        2 0.21191560E+00 0.68829214E+03</pdfrwt>
<pdfrwt beam="2">  1       -2 0.53410363E-01 0.68829214E+03</pdfrwt>
<totfact> 0.50569066E+01</totfact>
</mgrwt>
</event>
<event>
 4    1  0.7280516E-007  0.7027446E+03  0.7818608E-02  0.9986001E-01
         -2   -1    0    0    0  501 -0.00000000000E+00  0.00000000000E+00  0.87989617825E+03  0.87989617825E+03  0.25500000000E-02 0.  1.
          2   -1    0    0  501    0  0.00000000000E+00 -0.00000000000E+00 -0.43625974485E+03  0.43625974486E+03  0.25500000000E-02 0. -1.
    8880023    1    1    2    0    0 -0.14817491865E+03 -0.19515107068E+03  0.65308924284E+03  0.95936203400E+03  0.65864270000E+03 0.  1.
    8880022    1    1    2    0    0  0.14817491865E+03  0.19515107068E+03 -0.20945280944E+03  0.35679388911E+03  0.15294330000E+03 0.  0.
<mgrwt>
<rscale>  0 0.56268368E+03</rscale>
<asrwt>0</asrwt>
<pdfrwt beam="1">  1        2 0.67116885E-01 0.70274459E+03</pdfrwt>
<pdfrwt beam="2">  1       -2 0.13536864E+00 0.70274459E+03</pdfrwt>
<totfact> 0.28683519E+01</totfact>
</mgrwt>
</event>
<event>
 4    1  0.7280516E-007  0.6717949E+03  0.7818608E-02  0.1014408E+00
          2   -1    0    0  501    0  0.00000000000E+00  0.00000000000E+00  0.20076267387E+04  0.20076267387E+04  0.25500000000E-02 0. -1.
         -2   -1    0    0    0  501 -0.00000000000E+00 -0.00000000000E+00 -0.13718180871E+03  0.13718180873E+03  0.25500000000E-02 0.  1.
    8880023    1    1    2    0    0  0.93089575112E+02 -0.93981428561E+02  0.18146946964E+04  0.19350517371E+04  0.65864270000E+03 0. -1.
    8880022    1    1    2    0    0 -0.93089575112E+02  0.93981428561E+02  0.55750233580E+02  0.20975681030E+03  0.15294330000E+03 0.  0.
<mgrwt>
<rscale>  0 0.49759893E+03</rscale>
<asrwt>0</asrwt>
<pdfrwt beam="1">  1        2 0.30886565E+00 0.67179490E+03</pdfrwt>
<pdfrwt beam="2">  1       -2 0.21104894E-01 0.67179490E+03</pdfrwt>
<totfact> 0.13275645E+02</totfact>
</mgrwt>
</event>
<event>
 4    1  0.7280516E-007  0.7163129E+03  0.7818608E-02  0.9935265E-01
          2   -1    0    0  501    0  0.00000000000E+00  0.00000000000E+00  0.63891141086E+03  0.63891141087E+03  0.25500000000E-02 0. -1.
         -2   -1    0    0    0  501 -0.00000000000E+00 -0.00000000000E+00 -0.15648149831E+04  0.15648149831E+04  0.25500000000E-02 0.  1.
    8880023    1    1    2    0    0  0.11734196400E+03 -0.25597811266E+03  0.41311180683E+03  0.82690114396E+03  0.65864270000E+03 0. -1.
    8880022    1    1    2    0    0 -0.11734196400E+03  0.25597811266E+03 -0.13390153790E+04  0.13768252500E+04  0.15294330000E+03 0.  0.
<mgrwt>
<rscale>  0 0.58582210E+03</rscale>
<asrwt>0</asrwt>
<pdfrwt beam="1">  1        2 0.98294064E-01 0.71631288E+03</pdfrwt>
<pdfrwt beam="2">  1       -2 0.24074077E+00 0.71631288E+03</pdfrwt>
<totfact> 0.34781804E+00</totfact>
</mgrwt>
</event>
<event>
 4    1  0.7280516E-007  0.7971857E+03  0.7818608E-02  0.9716914E-01
          2   -1    0    0  501    0  0.00000000000E+00  0.00000000000E+00  0.12349113998E+04  0.12349113998E+04  0.25500000000E-02 0. -1.
         -2   -1    0    0    0  501 -0.00000000000E+00 -0.00000000000E+00 -0.45672900794E+03  0.45672900795E+03  0.25500000000E-02 0.  1.
    8880023    1    1    2    0    0 -0.12097703217E+03 -0.43250363038E+03  0.89952484151E+03  0.12019359298E+04  0.65864270000E+03 0.  0.
    8880022    1    1    2    0    0  0.12097703217E+03  0.43250363038E+03 -0.12134244966E+03  0.48970447793E+03  0.15294330000E+03 0.  0.
<mgrwt>
<rscale>  0 0.70018580E+03</rscale>
<asrwt>0</asrwt>
<pdfrwt beam="1">  1        2 0.18998637E+00 0.79718570E+03</pdfrwt>
<pdfrwt beam="2">  1       -2 0.70266002E-01 0.79718570E+03</pdfrwt>
<totfact> 0.33758265E+01</totfact>
</mgrwt>
</event>
<event>
 4    1  0.7280516E-007  0.7002896E+03  0.7818608E-02  0.9996002E-01
          2   -1    0    0  501    0  0.00000000000E+00  0.00000000000E+00  0.27230868405E+03  0.27230868406E+03  0.25500000000E-02 0. -1.
         -2   -1    0    0    0  501 -0.00000000000E+00 -0.00000000000E+00 -0.12355357546E+04  0.12355357546E+04  0.25500000000E-02 0.  1.
    8880023    1    1    2    0    0 -0.23742243960E+03 -0.15028541773E+02 -0.25506250531E+03  0.74529347224E+03  0.65864270000E+03 0. -1.
    8880022    1    1    2    0    0  0.23742243960E+03  0.15028541773E+02 -0.70816456524E+03  0.76255096640E+03  0.15294330000E+03 0.  0.
<mgrwt>
<rscale>  0 0.55825885E+03</rscale>
<asrwt>0</asrwt>
<pdfrwt beam="1">  1        2 0.41893644E-01 0.70028957E+03</pdfrwt>
<pdfrwt beam="2">  1       -2 0.19008242E+00 0.70028957E+03</pdfrwt>
<totfact> 0.19313155E+01</totfact>
</mgrwt>
</event>
<event>
 4    1  0.7280516E-007  0.6938652E+03  0.7818608E-02  0.1002367E+00
          2   -1    0    0  501    0  0.00000000000E+00  0.00000000000E+00  0.20269972544E+04  0.20269972544E+04  0.25500000000E-02 0. -1.
         -2   -1    0    0    0  501 -0.00000000000E+00 -0.00000000000E+00 -0.18042664159E+03  0.18042664161E+03  0.25500000000E-02 0.  1.
    8880023    1    1    2    0    0  0.19788265860E+03 -0.92093269093E+02  0.18099642464E+04  0.19384064322E+04  0.65864270000E+03 0. -1.
    8880022    1    1    2    0    0 -0.19788265860E+03  0.92093269093E+02  0.36606366444E+02  0.26901746387E+03  0.15294330000E+03 0.  0.
<mgrwt>
<rscale>  0 0.54624420E+03</rscale>
<asrwt>0</asrwt>
<pdfrwt beam="1">  1        2 0.31184573E+00 0.69386521E+03</pdfrwt>
<pdfrwt beam="2">  1       -2 0.27757945E-01 0.69386521E+03</pdfrwt>
<totfact> 0.79056369E+01</totfact>
</mgrwt>
</event>
<event>
 4    1  0.7280516E-007  0.7961026E+03  0.7818608E-02  0.9719287E-01
          2   -1    0    0  501    0  0.00000000000E+00  0.00000000000E+00  0.17529546743E+04  0.17529546743E+04  0.25500000000E-02 0. -1.
         -2   -1    0    0    0  501 -0.00000000000E+00 -0.00000000000E+00 -0.28493624873E+03  0.28493624874E+03  0.25500000000E-02 0.  1.
    8880023    1    1    2    0    0  0.30742857701E+03  0.32474113836E+03  0.13220681615E+04  0.15432574532E+04  0.65864270000E+03 0.  0.
    8880022    1    1    2    0    0 -0.30742857701E+03 -0.32474113836E+03  0.14595026408E+03  0.49463346986E+03  0.15294330000E+03 0.  0.
<mgrwt>
<rscale>  0 0.69879960E+03</rscale>
<asrwt>0</asrwt>
<pdfrwt beam="1">  1        2 0.26968532E+00 0.79610260E+03</pdfrwt>
<pdfrwt beam="2">  1       -2 0.43836348E-01 0.79610260E+03</pdfrwt>
<totfact> 0.46162324E+01</totfact>
</mgrwt>
</event>
<event>
 4    1  0.7280516E-007  0.6992553E+03  0.7818608E-02  0.1000030E+00
         -2   -1    0    0    0  501 -0.00000000000E+00  0.00000000000E+00  0.62639422798E+03  0.62639422799E+03  0.25500000000E-02 0.  1.
          2   -1    0    0  501    0  0.00000000000E+00 -0.00000000000E+00 -0.74347063125E+03  0.74347063126E+03  0.25500000000E-02 0. -1.
    8880023    1    1    2    0    0  0.18163506382E+02 -0.23413215435E+03 -0.52538266606E+03  0.87463416965E+03  0.65864270000E+03 0. -1.
    8880022    1    1    2    0    0 -0.18163506382E+02  0.23413215435E+03  0.40830626279E+03  0.49523068959E+03  0.15294330000E+03 0.  0.
<mgrwt>
<rscale>  0 0.55636884E+03</rscale>
<asrwt>0</asrwt>
<pdfrwt beam="1">  1        2 0.11438010E+00 0.69925531E+03</pdfrwt>
<pdfrwt beam="2">  1       -2 0.96368343E-01 0.69925531E+03</pdfrwt>
<totfact> 0.34801625E+01</totfact>
</mgrwt>
</event>
<event>
 4    1  0.7280516E-007  0.6755433E+03  0.7818608E-02  0.1011966E+00
         -2   -1    0    0    0  501 -0.00000000000E+00  0.00000000000E+00  0.31209430779E+03  0.31209430780E+03  0.25500000000E-02 0.  1.
          2   -1    0    0  501    0  0.00000000000E+00 -0.00000000000E+00 -0.30309333629E+04  0.30309333629E+04  0.25500000000E-02 0. -1.
    8880023    1    1    2    0    0  0.26935150489E+02  0.14772640286E+03 -0.29508357455E+04  0.30271753163E+04  0.65864270000E+03 0.  0.
    8880022    1    1    2    0    0 -0.26935150489E+02 -0.14772640286E+03  0.23199669037E+03  0.31585235442E+03  0.15294330000E+03 0.  0.
<mgrwt>
<rscale>  0 0.50700714E+03</rscale>
<asrwt>0</asrwt>
<pdfrwt beam="1">  1        2 0.46629742E+00 0.67554334E+03</pdfrwt>
<pdfrwt beam="2">  1       -2 0.48014511E-01 0.67554334E+03</pdfrwt>
<totfact> 0.73994563E+00</totfact>
</mgrwt>
</event>
<event>
 4    1  0.9727803E-007  0.7839022E+03  0.7818608E-02  0.9746749E-01
         -2   -1    0    0    0  501 -0.00000000000E+00  0.00000000000E+00  0.77985930379E+03  0.77985930380E+03  0.25500000000E-02 0.  1.
          2   -1    0    0  501    0  0.00000000000E+00 -0.00000000000E+00 -0.32989304037E+04  0.32989304037E+04  0.25500000000E-02 0. -1.
    8880023    1    1    2    0    0 -0.40171419843E+03 -0.13898968191E+03 -0.31816837309E+04  0.32768298702E+04  0.65864270000E+03 0. -1.
    8880022    1    1    2    0    0  0.40171419843E+03  0.13898968191E+03  0.66261263095E+03  0.80195983728E+03  0.15294330000E+03 0.  0.
<mgrwt>
<rscale>  0 0.68300290E+03</rscale>
<asrwt>0</asrwt>
<pdfrwt beam="1">  1        2 0.50752775E+00 0.78390218E+03</pdfrwt>
<pdfrwt beam="2">  1       -2 0.11997836E+00 0.78390218E+03</pdfrwt>
<totfact> 0.63525448E-01</totfact>
</mgrwt>
</event>
<event>
 4    1  0.7280516E-007  0.9553348E+03  0.7818608E-02  0.9442480E-01
          2   -1    0    0  501    0  0.00000000000E+00  0.00000000000E+00  0.12868395091E+04  0.12868395091E+04  0.25500000000E-02 0. -1.
         -2   -1    0    0    0  501 -0.00000000000E+00 -0.00000000000E+00 -0.14822313773E+04  0.14822313773E+04  0.25500000000E-02 0.  1.
    8880023    1    1    2    0    0 -0.61350511814E+03  0.32010271572E+03  0.99772583480E+03  0.13813476486E+04  0.65864270000E+03 0.  0.
    8880022    1    1    2    0    0  0.61350511814E+03 -0.32010271572E+03 -0.11931177030E+04  0.13877232378E+04  0.15294330000E+03 0.  0.
<mgrwt>
<rscale>  0 0.88660716E+03</rscale>
<asrwt>0</asrwt>
<pdfrwt beam="1">  1        2 0.19797531E+00 0.95533475E+03</pdfrwt>
<pdfrwt beam="2">  1       -2 0.22803560E+00 0.95533475E+03</pdfrwt>
<totfact> 0.14812059E+00</totfact>
</mgrwt>
</event>
<event>
 4    1  0.7280516E-007  0.8037145E+03  0.7818608E-02  0.9702821E-01
          2   -1    0    0  501    0  0.00000000000E+00  0.00000000000E+00  0.11610763907E+04  0.11610763907E+04  0.25500000000E-02 0. -1.
         -2   -1    0    0    0  501 -0.00000000000E+00 -0.00000000000E+00 -0.43854433793E+03  0.43854433794E+03  0.25500000000E-02 0.  1.
    8880023    1    1    2    0    0 -0.35995775055E+03 -0.28736254229E+03  0.76865684170E+03  0.11121107676E+04  0.65864270000E+03 0.  0.
    8880022    1    1    2    0    0  0.35995775055E+03  0.28736254229E+03 -0.46124788959E+02  0.48750996099E+03  0.15294330000E+03 0.  0.
<mgrwt>
<rscale>  0 0.70849059E+03</rscale>
<asrwt>0</asrwt>
<pdfrwt beam="1">  1        2 0.17862714E+00 0.80371451E+03</pdfrwt>
<pdfrwt beam="2">  1       -2 0.67468359E-01 0.80371451E+03</pdfrwt>
<totfact> 0.40772286E+01</totfact>
</mgrwt>
</event>
<event>
 4    1  0.7280516E-007  0.1061970E+04  0.7818608E-02  0.9304628E-01
          2   -1    0    0  501    0  0.00000000000E+00  0.00000000000E+00  0.11047829302E+04  0.11047829302E+04  0.25500000000E-02 0. -1.
         -2   -1    0    0    0  501 -0.00000000000E+00 -0.00000000000E+00 -0.82564569833E+03  0.82564569833E+03  0.25500000000E-02 0.  1.
    8880023    1    1    2    0    0  0.77702410936E+03  0.30034038465E+03  0.12130968975E+03  0.10688765412E+04  0.65864270000E+03 0.  1.
    8880022    1    1    2    0    0 -0.77702410936E+03 -0.30034038465E+03  0.15782754213E+03  0.86155208737E+03  0.15294330000E+03 0. -1.
<mgrwt>
<rscale>  0 0.10035791E+04</rscale>
<asrwt>0</asrwt>
<pdfrwt beam="1">  1        2 0.16996660E+00 0.10619703E+04</pdfrwt>
<pdfrwt beam="2">  1       -2 0.12702242E+00 0.10619703E+04</pdfrwt>
<totfact> 0.98322124E+00</totfact>
</mgrwt>
</event>
<event>
 4    1  0.7280516E-007  0.7456921E+03  0.7818608E-02  0.9843666E-01
          2   -1    0    0  501    0  0.00000000000E+00  0.00000000000E+00  0.11652092633E+04  0.11652092633E+04  0.25500000000E-02 0. -1.
         -2   -1    0    0    0  501 -0.00000000000E+00 -0.00000000000E+00 -0.81856395051E+03  0.81856395052E+03  0.25500000000E-02 0.  1.
    8880023    1    1    2    0    0  0.34357780847E+03 -0.64813222747E+02  0.98778606194E+03  0.12376501827E+04  0.65864270000E+03 0. -1.
    8880022    1    1    2    0    0 -0.34357780847E+03  0.64813222747E+02 -0.64114074916E+03  0.74612303112E+03  0.15294330000E+03 0.  0.
<mgrwt>
<rscale>  0 0.63070900E+03</rscale>
<asrwt>0</asrwt>
<pdfrwt beam="1">  1        2 0.17926296E+00 0.74569207E+03</pdfrwt>
<pdfrwt beam="2">  1       -2 0.12593292E+00 0.74569207E+03</pdfrwt>
<totfact> 0.95409731E+00</totfact>
</mgrwt>
</event>
<event>
 4    1  0.7280516E-007  0.8312564E+03  0.7818608E-02  0.9646893E-01
         -2   -1    0    0    0  501 -0.00000000000E+00  0.00000000000E+00  0.76087780899E+03  0.76087780900E+03  0.25500000000E-02 0.  1.
          2   -1    0    0  501    0  0.00000000000E+00 -0.00000000000E+00 -0.69356927748E+03  0.69356927748E+03  0.25500000000E-02 0. -1.
    8880023    1    1    2    0    0 -0.43776823418E+03  0.25599995972E+03  0.28924733113E+03  0.88014273335E+03  0.65864270000E+03 0.  1.
    8880022    1    1    2    0    0  0.43776823418E+03 -0.25599995972E+03 -0.22193879962E+03  0.57430435313E+03  0.15294330000E+03 0. -1.
<mgrwt>
<rscale>  0 0.74268756E+03</rscale>
<asrwt>0</asrwt>
<pdfrwt beam="1">  1        2 0.10670297E+00 0.83125641E+03</pdfrwt>
<pdfrwt beam="2">  1       -2 0.11705812E+00 0.83125641E+03</pdfrwt>
<totfact> 0.23559688E+01</totfact>
</mgrwt>
</event>
<event>
 4    1  0.7280516E-007  0.9666694E+03  0.7818608E-02  0.9426526E-01
         -2   -1    0    0    0  501 -0.00000000000E+00  0.00000000000E+00  0.41854469503E+04  0.41854469503E+04  0.25500000000E-02 0.  1.
          2   -1    0    0  501    0  0.00000000000E+00 -0.00000000000E+00 -0.23807043479E+03  0.23807043480E+03  0.25500000000E-02 0. -1.
    8880023    1    1    2    0    0  0.69219572517E+03  0.14664421807E+03  0.10091836074E+04  0.13974624175E+04  0.65864270000E+03 0.  0.
    8880022    1    1    2    0    0 -0.69219572517E+03 -0.14664421807E+03  0.29381929081E+04  0.30260549676E+04  0.15294330000E+03 0.  0.
<mgrwt>
<rscale>  0 0.89924514E+03</rscale>
<asrwt>0</asrwt>
<pdfrwt beam="1">  1        2 0.36626222E-01 0.96666936E+03</pdfrwt>
<pdfrwt beam="2">  1       -2 0.64391489E+00 0.96666936E+03</pdfrwt>
<totfact> 0.49819343E-02</totfact>
</mgrwt>
</event>
<event>
 4    1  0.7280516E-007  0.7037226E+03  0.7818608E-02  0.9982095E-01
          2   -1    0    0  501    0  0.00000000000E+00  0.00000000000E+00  0.23323166167E+04  0.23323166167E+04  0.25500000000E-02 0. -1.
         -2   -1    0    0    0  501 -0.00000000000E+00 -0.00000000000E+00 -0.39267619971E+03  0.39267619972E+03  0.25500000000E-02 0.  1.
    8880023    1    1    2    0    0  0.24047425822E+03 -0.59894965371E+02  0.22150635449E+04  0.23241626427E+04  0.65864270000E+03 0. -1.
    8880022    1    1    2    0    0 -0.24047425822E+03  0.59894965371E+02 -0.27542312789E+03  0.40083017368E+03  0.15294330000E+03 0.  0.
<mgrwt>
<rscale>  0 0.56442343E+03</rscale>
<asrwt>0</asrwt>
<pdfrwt beam="1">  1        2 0.35881794E+00 0.70372259E+03</pdfrwt>
<pdfrwt beam="2">  1       -2 0.60411723E-01 0.70372259E+03</pdfrwt>
<totfact> 0.11664899E+01</totfact>
</mgrwt>
</event>
<event>
 4    1  0.7280516E-007  0.7497246E+03  0.7818608E-02  0.9832475E-01
          2   -1    0    0  501    0  0.00000000000E+00  0.00000000000E+00  0.45516447751E+04  0.45516447751E+04  0.25500000000E-02 0. -1.
         -2   -1    0    0    0  501 -0.00000000000E+00 -0.00000000000E+00 -0.11027151623E+03  0.11027151625E+03  0.25500000000E-02 0.  1.
    8880023    1    1    2    0    0  0.32927147417E+03  0.14091526119E+03  0.40152265758E+04  0.40846213381E+04  0.65864270000E+03 0. -1.
    8880022    1    1    2    0    0 -0.32927147417E+03 -0.14091526119E+03  0.42614668313E+03  0.57729495329E+03  0.15294330000E+03 0.  0.
<mgrwt>
<rscale>  0 0.63648511E+03</rscale>
<asrwt>0</asrwt>
<pdfrwt beam="1">  1        2 0.70025309E+00 0.74972463E+03</pdfrwt>
<pdfrwt beam="2">  1       -2 0.16964848E-01 0.74972463E+03</pdfrwt>
<totfact> 0.35286058E+00</totfact>
</mgrwt>
</event>
<event>
 4    1  0.7280516E-007  0.7174723E+03  0.7818608E-02  0.9931233E-01
          2   -1    0    0  501    0  0.00000000000E+00  0.00000000000E+00  0.18612484110E+04  0.18612484110E+04  0.25500000000E-02 0. -1.
         -2   -1    0    0    0  501 -0.00000000000E+00 -0.00000000000E+00 -0.16916801188E+03  0.16916801190E+03  0.25500000000E-02 0.  1.
    8880023    1    1    2    0    0 -0.28449320975E+03  0.44622548911E+01  0.14778510017E+04  0.16428055538E+04  0.65864270000E+03 0.  1.
    8880022    1    1    2    0    0  0.28449320975E+03 -0.44622548911E+01  0.21422939741E+03  0.38761086910E+03  0.15294330000E+03 0.  0.
<mgrwt>
<rscale>  0 0.58771171E+03</rscale>
<asrwt>0</asrwt>
<pdfrwt beam="1">  1        2 0.28634589E+00 0.71747230E+03</pdfrwt>
<pdfrwt beam="2">  1       -2 0.26025850E-01 0.71747230E+03</pdfrwt>
<totfact> 0.10913816E+02</totfact>
</mgrwt>
</event>
<event>
 4    1  0.7280516E-007  0.6723882E+03  0.7818608E-02  0.1014006E+00
         -2   -1    0    0    0  501 -0.00000000000E+00  0.00000000000E+00  0.12525286649E+03  0.12525286652E+03  0.25500000000E-02 0.  1.
          2   -1    0    0  501    0  0.00000000000E+00 -0.00000000000E+00 -0.16572022210E+04  0.16572022210E+04  0.25500000000E-02 0. -1.
    8880023    1    1    2    0    0  0.12025862059E+03 -0.61915624916E+02 -0.13533937285E+04  0.15112182076E+04  0.65864270000E+03 0. -1.
    8880022    1    1    2    0    0 -0.12025862059E+03  0.61915624916E+02 -0.17855562608E+03  0.27123687997E+03  0.15294330000E+03 0.  1.
<mgrwt>
<rscale>  0 0.49913219E+03</rscale>
<asrwt>0</asrwt>
<pdfrwt beam="1">  1        2 0.25495417E+00 0.67238820E+03</pdfrwt>
<pdfrwt beam="2">  1       -2 0.19269673E-01 0.67238820E+03</pdfrwt>
<totfact> 0.24137756E+02</totfact>
</mgrwt>
</event>
<event>
 4    1  0.7280516E-007  0.9980781E+03  0.7818608E-02  0.9384076E-01
         -2   -1    0    0    0  501 -0.00000000000E+00  0.00000000000E+00  0.17106896766E+04  0.17106896766E+04  0.25500000000E-02 0.  1.
          2   -1    0    0  501    0  0.00000000000E+00 -0.00000000000E+00 -0.10930069384E+04  0.10930069384E+04  0.25500000000E-02 0. -1.
    8880023    1    1    2    0    0 -0.67818671520E+03 -0.32001934460E+03 -0.74182396906E+03  0.12435684979E+04  0.65864270000E+03 0. -1.
    8880022    1    1    2    0    0  0.67818671520E+03  0.32001934460E+03  0.13595067073E+04  0.15601281171E+04  0.15294330000E+03 0.  0.
<mgrwt>
<rscale>  0 0.93397792E+03</rscale>
<asrwt>0</asrwt>
<pdfrwt beam="1">  1        2 0.16815491E+00 0.99807806E+03</pdfrwt>
<pdfrwt beam="2">  1       -2 0.26318303E+00 0.99807806E+03</pdfrwt>
<totfact> 0.11723855E+00</totfact>
</mgrwt>
</event>
<event>
 4    1  0.7280516E-007  0.6611586E+03  0.7818608E-02  0.1023000E+00
          2   -1    0    0  501    0  0.00000000000E+00  0.00000000000E+00  0.16907003175E+04  0.16907003175E+04  0.25500000000E-02 0. -1.
         -2   -1    0    0    0  501 -0.00000000000E+00 -0.00000000000E+00 -0.11910778535E+03  0.11910778537E+03  0.25500000000E-02 0.  1.
    8880023    1    1    2    0    0  0.10943607740E+02  0.56574536360E+02  0.14834509527E+04  0.16241174144E+04  0.65864270000E+03 0. -1.
    8880022    1    1    2    0    0 -0.10943607740E+02 -0.56574536360E+02  0.88141579483E+02  0.18569068841E+03  0.15294330000E+03 0.  0.
<mgrwt>
<rscale>  0 0.46619511E+03</rscale>
<asrwt>0</asrwt>
<pdfrwt beam="1">  1        2 0.26010774E+00 0.66115856E+03</pdfrwt>
<pdfrwt beam="2">  1       -2 0.18324275E-01 0.66115856E+03</pdfrwt>
<totfact> 0.25274229E+02</totfact>
</mgrwt>
</event>
<event>
 4    1  0.7280516E-007  0.7623686E+03  0.7818608E-02  0.9799014E-01
          2   -1    0    0  501    0  0.00000000000E+00  0.00000000000E+00  0.21064293983E+04  0.21064293983E+04  0.25500000000E-02 0. -1.
         -2   -1    0    0    0  501 -0.00000000000E+00 -0.00000000000E+00 -0.34800057060E+03  0.34800057061E+03  0.25500000000E-02 0.  1.
    8880023    1    1    2    0    0  0.32680987455E+03  0.20147213692E+03  0.18758145943E+04  0.20248176003E+04  0.65864270000E+03 0. -1.
    8880022    1    1    2    0    0 -0.32680987455E+03 -0.20147213692E+03 -0.11738576658E+03  0.42961236862E+03  0.15294330000E+03 0.  0.
<mgrwt>
<rscale>  0 0.65415510E+03</rscale>
<asrwt>0</asrwt>
<pdfrwt beam="1">  1        2 0.32406606E+00 0.76236863E+03</pdfrwt>
<pdfrwt beam="2">  1       -2 0.53538550E-01 0.76236863E+03</pdfrwt>
<totfact> 0.19822600E+01</totfact>
</mgrwt>
</event>
<event>
 4    1  0.7280516E-007  0.6976027E+03  0.7818608E-02  0.1000730E+00
          2   -1    0    0  501    0  0.00000000000E+00  0.00000000000E+00  0.22190745777E+04  0.22190745777E+04  0.25500000000E-02 0. -1.
         -2   -1    0    0    0  501 -0.00000000000E+00 -0.00000000000E+00 -0.33402527615E+03  0.33402527616E+03  0.25500000000E-02 0.  1.
    8880023    1    1    2    0    0 -0.10406370473E+03  0.20496359385E+03  0.20938081906E+04  0.22069622277E+04  0.65864270000E+03 0. -1.
    8880022    1    1    2    0    0  0.10406370473E+03 -0.20496359385E+03 -0.20875888904E+03  0.34613762612E+03  0.15294330000E+03 0.  0.
<mgrwt>
<rscale>  0 0.55331514E+03</rscale>
<asrwt>0</asrwt>
<pdfrwt beam="1">  1        2 0.34139608E+00 0.69760271E+03</pdfrwt>
<pdfrwt beam="2">  1       -2 0.51388505E-01 0.69760271E+03</pdfrwt>
<totfact> 0.18879723E+01</totfact>
</mgrwt>
</event>
<event>
 4    1  0.7280516E-007  0.7877162E+03  0.7818608E-02  0.9738014E-01
         -2   -1    0    0    0  501 -0.00000000000E+00  0.00000000000E+00  0.13800638952E+04  0.13800638952E+04  0.25500000000E-02 0.  1.
          2   -1    0    0  501    0  0.00000000000E+00 -0.00000000000E+00 -0.83420666144E+03  0.83420666145E+03  0.25500000000E-02 0. -1.
    8880023    1    1    2    0    0  0.17742324996E+03 -0.39396389483E+03 -0.59343589048E+03  0.98623674766E+03  0.65864270000E+03 0. -1.
    8880022    1    1    2    0    0 -0.17742324996E+03  0.39396389483E+03  0.11392931242E+04  0.12280338089E+04  0.15294330000E+03 0.  0.
<mgrwt>
<rscale>  0 0.68797863E+03</rscale>
<asrwt>0</asrwt>
<pdfrwt beam="1">  1        2 0.12833949E+00 0.78771617E+03</pdfrwt>
<pdfrwt beam="2">  1       -2 0.21231752E+00 0.78771617E+03</pdfrwt>
<totfact> 0.36710196E+00</totfact>
</mgrwt>
</event>
<event>
 4    1  0.7280516E-007  0.6619743E+03  0.7818608E-02  0.1022219E+00
          2   -1    0    0  501    0  0.00000000000E+00  0.00000000000E+00  0.55380730883E+03  0.55380730883E+03  0.25500000000E-02 0. -1.
         -2   -1    0    0    0  501 -0.00000000000E+00 -0.00000000000E+00 -0.36880267563E+03  0.36880267564E+03  0.25500000000E-02 0.  1.
    8880023    1    1    2    0    0 -0.29566890228E+02 -0.59376532704E+02  0.29306264273E+03  0.72394453687E+03  0.65864270000E+03 0. -1.
    8880022    1    1    2    0    0  0.29566890228E+02  0.59376532704E+02 -0.10805800953E+03  0.19866544761E+03  0.15294330000E+03 0.  0.
<mgrwt>
<rscale>  0 0.46894262E+03</rscale>
<asrwt>0</asrwt>
<pdfrwt beam="1">  1        2 0.85201124E-01 0.66197430E+03</pdfrwt>
<pdfrwt beam="2">  1       -2 0.56738874E-01 0.66197430E+03</pdfrwt>
<totfact> 0.16139010E+02</totfact>
</mgrwt>
</event>
<event>
 4    1  0.7280516E-007  0.7201767E+03  0.7818608E-02  0.9921988E-01
         -2   -1    0    0    0  501 -0.00000000000E+00  0.00000000000E+00  0.33972305787E+03  0.33972305788E+03  0.25500000000E-02 0.  1.
          2   -1    0    0  501    0  0.00000000000E+00 -0.00000000000E+00 -0.14818283305E+04  0.14818283305E+04  0.25500000000E-02 0. -1.
    8880023    1    1    2    0    0 -0.23227294842E+03  0.17576575373E+03 -0.97967515991E+02  0.72680957837E+03  0.65864270000E+03 0.  1.
    8880022    1    1    2    0    0  0.23227294842E+03 -0.17576575373E+03 -0.10441377566E+04  0.10947418100E+04  0.15294330000E+03 0.  0.
<mgrwt>
<rscale>  0 0.59207370E+03</rscale>
<asrwt>0</asrwt>
<pdfrwt beam="1">  1        2 0.22797359E+00 0.72017673E+03</pdfrwt>
<pdfrwt beam="2">  1       -2 0.52265087E-01 0.72017673E+03</pdfrwt>
<totfact> 0.46037388E+01</totfact>
</mgrwt>
</event>
<event>
 4    1  0.7280516E-007  0.6604263E+03  0.7818608E-02  0.1023724E+00
          2   -1    0    0  501    0  0.00000000000E+00  0.00000000000E+00  0.24266959103E+03  0.24266959104E+03  0.25500000000E-02 0. -1.
         -2   -1    0    0    0  501 -0.00000000000E+00 -0.00000000000E+00 -0.79732580336E+03  0.79732580336E+03  0.25500000000E-02 0.  1.
    8880023    1    1    2    0    0 -0.47891409646E+02 -0.76907111098E+01 -0.27051458924E+03  0.71368135986E+03  0.65864270000E+03 0. -1.
    8880022    1    1    2    0    0  0.47891409646E+02  0.76907111098E+01 -0.28414162309E+03  0.32631403455E+03  0.15294330000E+03 0.  0.
<mgrwt>
<rscale>  0 0.46366424E+03</rscale>
<asrwt>0</asrwt>
<pdfrwt beam="1">  1        2 0.37333784E-01 0.66042633E+03</pdfrwt>
<pdfrwt beam="2">  1       -2 0.12266551E+00 0.66042633E+03</pdfrwt>
<totfact> 0.70943146E+01</totfact>
</mgrwt>
</event>
<event>
 4    1  0.7280516E-007  0.7181504E+03  0.7818608E-02  0.9928895E-01
          2   -1    0    0  501    0  0.00000000000E+00  0.00000000000E+00  0.10593295825E+04  0.10593295825E+04  0.25500000000E-02 0. -1.
         -2   -1    0    0    0  501 -0.00000000000E+00 -0.00000000000E+00 -0.11488611944E+04  0.11488611944E+04  0.25500000000E-02 0.  1.
    8880023    1    1    2    0    0 -0.23976350224E+03  0.15634341170E+03  0.90887806715E+03  0.11583606289E+04  0.65864270000E+03 0. -1.
    8880022    1    1    2    0    0  0.23976350224E+03 -0.15634341170E+03 -0.99840967903E+03  0.10498301480E+04  0.15294330000E+03 0.  0.
<mgrwt>
<rscale>  0 0.58881134E+03</rscale>
<asrwt>0</asrwt>
<pdfrwt beam="1">  1        2 0.16297378E+00 0.71815041E+03</pdfrwt>
<pdfrwt beam="2">  1       -2 0.17674788E+00 0.71815041E+03</pdfrwt>
<totfact> 0.45280964E+00</totfact>
</mgrwt>
</event>
<event>
 4    1  0.7280516E-007  0.7160313E+03  0.7818608E-02  0.9936251E-01
         -2   -1    0    0    0  501 -0.00000000000E+00  0.00000000000E+00  0.31770744981E+03  0.31770744982E+03  0.25500000000E-02 0.  1.
          2   -1    0    0  501    0  0.00000000000E+00 -0.00000000000E+00 -0.25586090279E+04  0.25586090279E+04  0.25500000000E-02 0. -1.
    8880023    1    1    2    0    0  0.24824634437E+03 -0.13139412308E+03 -0.24102997053E+04  0.25144075920E+04  0.65864270000E+03 0. -1.
    8880022    1    1    2    0    0 -0.24824634437E+03  0.13139412308E+03  0.16939812719E+03  0.36190888574E+03  0.15294330000E+03 0.  0.
<mgrwt>
<rscale>  0 0.58536141E+03</rscale>
<asrwt>0</asrwt>
<pdfrwt beam="1">  1        2 0.39363215E+00 0.71603133E+03</pdfrwt>
<pdfrwt beam="2">  1       -2 0.48878071E-01 0.71603133E+03</pdfrwt>
<totfact> 0.13456598E+01</totfact>
</mgrwt>
</event>
<event>
 4    1  0.7280516E-007  0.6815720E+03  0.7818608E-02  0.1008448E+00
         -2   -1    0    0    0  501 -0.00000000000E+00  0.00000000000E+00  0.10857010835E+04  0.10857010835E+04  0.25500000000E-02 0.  1.
          2   -1    0    0  501    0  0.00000000000E+00 -0.00000000000E+00 -0.74713870284E+03  0.74713870284E+03  0.25500000000E-02 0. -1.
    8880023    1    1    2    0    0  0.36951948053E+02 -0.17136138526E+03 -0.57400894242E+03  0.89108172636E+03  0.65864270000E+03 0. -1.
    8880022    1    1    2    0    0 -0.36951948053E+02  0.17136138526E+03  0.91257132307E+03  0.94175805997E+03  0.15294330000E+03 0.  0.
<mgrwt>
<rscale>  0 0.52096117E+03</rscale>
<asrwt>0</asrwt>
<pdfrwt beam="1">  1        2 0.11494442E+00 0.68157199E+03</pdfrwt>
<pdfrwt beam="2">  1       -2 0.16703094E+00 0.68157199E+03</pdfrwt>
<totfact> 0.86514252E+00</totfact>
</mgrwt>
</event>
<event>
 4    1  0.7280516E-007  0.9504721E+03  0.7818608E-02  0.9449435E-01
          2   -1    0    0  501    0  0.00000000000E+00  0.00000000000E+00  0.26806815809E+04  0.26806815809E+04  0.25500000000E-02 0. -1.
         -2   -1    0    0    0  501 -0.00000000000E+00 -0.00000000000E+00 -0.38330021065E+03  0.38330021066E+03  0.25500000000E-02 0.  1.
    8880023    1    1    2    0    0 -0.55262139151E+03  0.40521175397E+03  0.21440899893E+04  0.23453185405E+04  0.65864270000E+03 0. -1.
    8880022    1    1    2    0    0  0.55262139151E+03 -0.40521175397E+03  0.15329138091E+03  0.71866325103E+03  0.15294330000E+03 0.  1.
<mgrwt>
<rscale>  0 0.88116661E+03</rscale>
<asrwt>0</asrwt>
<pdfrwt beam="1">  1        2 0.41241256E+00 0.95047208E+03</pdfrwt>
<pdfrwt beam="2">  1       -2 0.58969262E-01 0.95047208E+03</pdfrwt>
<totfact> 0.74884617E+00</totfact>
</mgrwt>
</event>
<event>
 4    1  0.7280516E-007  0.8357631E+03  0.7818608E-02  0.9638222E-01
         -2   -1    0    0    0  501 -0.00000000000E+00  0.00000000000E+00  0.34893898000E+03  0.34893898001E+03  0.25500000000E-02 0.  1.
          2   -1    0    0  501    0  0.00000000000E+00 -0.00000000000E+00 -0.13689937067E+04  0.13689937067E+04  0.25500000000E-02 0. -1.
    8880023    1    1    2    0    0 -0.51385248831E+03 -0.25404238646E+02 -0.71933499907E+03  0.11026979651E+04  0.65864270000E+03 0.  1.
    8880022    1    1    2    0    0  0.51385248831E+03  0.25404238646E+02 -0.30071972762E+03  0.61523472161E+03  0.15294330000E+03 0.  0.
<mgrwt>
<rscale>  0 0.74817260E+03</rscale>
<asrwt>0</asrwt>
<pdfrwt beam="1">  1        2 0.21061441E+00 0.83576310E+03</pdfrwt>
<pdfrwt beam="2">  1       -2 0.53682921E-01 0.83576310E+03</pdfrwt>
<totfact> 0.49864721E+01</totfact>
</mgrwt>
</event>
<event>
 4    1  0.7280516E-007  0.7658027E+03  0.7818608E-02  0.9790310E-01
         -2   -1    0    0    0  501 -0.00000000000E+00  0.00000000000E+00  0.46555011284E+03  0.46555011284E+03  0.25500000000E-02 0.  1.
          2   -1    0    0  501    0  0.00000000000E+00 -0.00000000000E+00 -0.96740223247E+03  0.96740223247E+03  0.25500000000E-02 0. -1.
    8880023    1    1    2    0    0  0.34397721304E+03 -0.18526527766E+03 -0.63280407660E+03  0.99342576563E+03  0.65864270000E+03 0.  0.
    8880022    1    1    2    0    0 -0.34397721304E+03  0.18526527766E+03  0.13095195697E+03  0.43952657968E+03  0.15294330000E+03 0.  0.
<mgrwt>
<rscale>  0 0.65885160E+03</rscale>
<asrwt>0</asrwt>
<pdfrwt beam="1">  1        2 0.14883111E+00 0.76580269E+03</pdfrwt>
<pdfrwt beam="2">  1       -2 0.71623094E-01 0.76580269E+03</pdfrwt>
<totfact> 0.47397947E+01</totfact>
</mgrwt>
</event>
<event>
 4    1  0.7280516E-007  0.6940466E+03  0.7818608E-02  0.1002286E+00
         -2   -1    0    0    0  501 -0.00000000000E+00  0.00000000000E+00  0.57361725515E+03  0.57361725516E+03  0.25500000000E-02 0.  1.
          2   -1    0    0  501    0  0.00000000000E+00 -0.00000000000E+00 -0.94481679808E+03  0.94481679808E+03  0.25500000000E-02 0. -1.
    8880023    1    1    2    0    0  0.62129466763E+01 -0.21875076236E+03 -0.77119650293E+03  0.10375185536E+04  0.65864270000E+03 0.  0.
    8880022    1    1    2    0    0 -0.62129466763E+01  0.21875076236E+03  0.39999696000E+03  0.48091549961E+03  0.15294330000E+03 0.  0.
<mgrwt>
<rscale>  0 0.54659302E+03</rscale>
<asrwt>0</asrwt>
<pdfrwt beam="1">  1        2 0.14535643E+00 0.69404661E+03</pdfrwt>
<pdfrwt beam="2">  1       -2 0.88248808E-01 0.69404661E+03</pdfrwt>
<totfact> 0.30896996E+01</totfact>
</mgrwt>
</event>
<event>
 4    1  0.7280516E-007  0.6990527E+03  0.7818608E-02  0.1000115E+00
         -2   -1    0    0    0  501 -0.00000000000E+00  0.00000000000E+00  0.91191577161E+03  0.91191577161E+03  0.25500000000E-02 0.  1.
          2   -1    0    0  501    0  0.00000000000E+00 -0.00000000000E+00 -0.62128782847E+03  0.62128782848E+03  0.25500000000E-02 0. -1.
    8880023    1    1    2    0    0 -0.10009080057E+03  0.21176950776E+03 -0.38776414571E+03  0.79939710516E+03  0.65864270000E+03 0.  0.
    8880022    1    1    2    0    0  0.10009080057E+03 -0.21176950776E+03  0.67839208884E+03  0.73380649493E+03  0.15294330000E+03 0.  0.
<mgrwt>
<rscale>  0 0.55599675E+03</rscale>
<asrwt>0</asrwt>
<pdfrwt beam="1">  1        2 0.95582743E-01 0.69905272E+03</pdfrwt>
<pdfrwt beam="2">  1       -2 0.14029473E+00 0.69905272E+03</pdfrwt>
<totfact> 0.17302520E+01</totfact>
</mgrwt>
</event>
<event>
 4    1  0.7280516E-007  0.9037156E+03  0.7818608E-02  0.9520093E-01
         -2   -1    0    0    0  501 -0.00000000000E+00  0.00000000000E+00  0.18787224630E+03  0.18787224631E+03  0.25500000000E-02 0.  1.
          2   -1    0    0  501    0  0.00000000000E+00 -0.00000000000E+00 -0.34960146096E+04  0.34960146096E+04  0.25500000000E-02 0. -1.
    8880023    1    1    2    0    0  0.25457534136E+03 -0.56398861799E+03 -0.24753661295E+04  0.26351735136E+04  0.65864270000E+03 0.  0.
    8880022    1    1    2    0    0 -0.25457534136E+03  0.56398861799E+03 -0.83277623376E+03  0.10487133422E+04  0.15294330000E+03 0.  0.
<mgrwt>
<rscale>  0 0.82818525E+03</rscale>
<asrwt>0</asrwt>
<pdfrwt beam="1">  1        2 0.53784835E+00 0.90371565E+03</pdfrwt>
<pdfrwt beam="2">  1       -2 0.28903425E-01 0.90371565E+03</pdfrwt>
<totfact> 0.94513417E+00</totfact>
</mgrwt>
</event>
<event>
 4    1  0.7280516E-007  0.8294203E+03  0.7818608E-02  0.9650461E-01
         -2   -1    0    0    0  501 -0.00000000000E+00  0.00000000000E+00  0.11534587770E+04  0.11534587770E+04  0.25500000000E-02 0.  1.
          2   -1    0    0  501    0  0.00000000000E+00 -0.00000000000E+00 -0.74138238153E+03  0.74138238153E+03  0.25500000000E-02 0. -1.
    8880023    1    1    2    0    0 -0.10116540566E+03 -0.49385567340E+03 -0.40472089851E+03  0.92289602740E+03  0.65864270000E+03 0.  0.
    8880022    1    1    2    0    0  0.10116540566E+03  0.49385567340E+03  0.81679729397E+03  0.97194513111E+03  0.15294330000E+03 0.  0.
<mgrwt>
<rscale>  0 0.74044481E+03</rscale>
<asrwt>0</asrwt>
<pdfrwt beam="1">  1        2 0.11405883E+00 0.82942032E+03</pdfrwt>
<pdfrwt beam="2">  1       -2 0.17745520E+00 0.82942032E+03</pdfrwt>
<totfact> 0.72542383E+00</totfact>
</mgrwt>
</event>
<event>
 4    1  0.7280516E-007  0.7271219E+03  0.7818608E-02  0.9899186E-01
         -2   -1    0    0    0  501 -0.00000000000E+00  0.00000000000E+00  0.62038961287E+03  0.62038961287E+03  0.25500000000E-02 0.  1.
          2   -1    0    0  501    0  0.00000000000E+00 -0.00000000000E+00 -0.24847962886E+04  0.24847962886E+04  0.25500000000E-02 0. -1.
    8880023    1    1    2    0    0  0.13688884001E+02 -0.30774763213E+03 -0.23782174630E+04  0.24868905280E+04  0.65864270000E+03 0. -1.
    8880022    1    1    2    0    0 -0.13688884001E+02  0.30774763213E+03  0.51381078732E+03  0.61829537343E+03  0.15294330000E+03 0.  0.
<mgrwt>
<rscale>  0 0.60300765E+03</rscale>
<asrwt>0</asrwt>
<pdfrwt beam="1">  1        2 0.38227635E+00 0.72712186E+03</pdfrwt>
<pdfrwt beam="2">  1       -2 0.95444557E-01 0.72712186E+03</pdfrwt>
<totfact> 0.34527159E+00</totfact>
</mgrwt>
</event>
<event>
 4    1  0.7280516E-007  0.9161815E+03  0.7818608E-02  0.9500539E-01
          2   -1    0    0  501    0  0.00000000000E+00  0.00000000000E+00  0.26165897337E+04  0.26165897337E+04  0.25500000000E-02 0. -1.
         -2   -1    0    0    0  501 -0.00000000000E+00 -0.00000000000E+00 -0.59147327690E+03  0.59147327690E+03  0.25500000000E-02 0.  1.
    8880023    1    1    2    0    0 -0.38071614725E+03 -0.51052281128E+03  0.23165871064E+04  0.24911773027E+04  0.65864270000E+03 0. -1.
    8880022    1    1    2    0    0  0.38071614725E+03  0.51052281128E+03 -0.29147064960E+03  0.71688570791E+03  0.15294330000E+03 0.  0.
<mgrwt>
<rscale>  0 0.84244101E+03</rscale>
<asrwt>0</asrwt>
<pdfrwt beam="1">  1        2 0.40255227E+00 0.91618150E+03</pdfrwt>
<pdfrwt beam="2">  1       -2 0.90995889E-01 0.91618150E+03</pdfrwt>
<totfact> 0.31400110E+00</totfact>
</mgrwt>
</event>
<event>
 4    1  0.7280516E-007  0.1105942E+04  0.7818608E-02  0.9254469E-01
         -2   -1    0    0    0  501 -0.00000000000E+00  0.00000000000E+00  0.81555503777E+03  0.81555503778E+03  0.25500000000E-02 0.  1.
          2   -1    0    0  501    0  0.00000000000E+00 -0.00000000000E+00 -0.12703903489E+04  0.12703903489E+04  0.25500000000E-02 0. -1.
    8880023    1    1    2    0    0  0.18988242846E+03  0.86789561345E+03 -0.42242063177E+03  0.11838697263E+04  0.65864270000E+03 0. -1.
    8880022    1    1    2    0    0 -0.18988242846E+03 -0.86789561345E+03 -0.32414679309E+02  0.90207566032E+03  0.15294330000E+03 0.  1.
<mgrwt>
<rscale>  0 0.10508481E+04</rscale>
<asrwt>0</asrwt>
<pdfrwt beam="1">  1        2 0.19544467E+00 0.11059423E+04</pdfrwt>
<pdfrwt beam="2">  1       -2 0.12547001E+00 0.11059423E+04</pdfrwt>
<totfact> 0.80316164E+00</totfact>
</mgrwt>
</event>
<event>
 4    1  0.7280516E-007  0.6826463E+03  0.7818608E-02  0.1007865E+00
         -2   -1    0    0    0  501 -0.00000000000E+00  0.00000000000E+00  0.14634596244E+03  0.14634596247E+03  0.25500000000E-02 0.  1.
          2   -1    0    0  501    0  0.00000000000E+00 -0.00000000000E+00 -0.15784674380E+04  0.15784674380E+04  0.25500000000E-02 0. -1.
    8880023    1    1    2    0    0  0.17710913326E+01  0.17942287879E+03 -0.12595145007E+04  0.14326139361E+04  0.65864270000E+03 0. -1.
    8880022    1    1    2    0    0 -0.17710913326E+01 -0.17942287879E+03 -0.17260697490E+03  0.29219946440E+03  0.15294330000E+03 0.  0.
<mgrwt>
<rscale>  0 0.52332176E+03</rscale>
<asrwt>0</asrwt>
<pdfrwt beam="1">  1        2 0.24284113E+00 0.68264626E+03</pdfrwt>
<pdfrwt beam="2">  1       -2 0.22514765E-01 0.68264626E+03</pdfrwt>
<totfact> 0.20265849E+02</totfact>
</mgrwt>
</event>
<event>
 4    1  0.7280516E-007  0.7559987E+03  0.7818608E-02  0.9815579E-01
          2   -1    0    0  501    0  0.00000000000E+00  0.00000000000E+00  0.14843927510E+04  0.14843927510E+04  0.25500000000E-02 0. -1.
         -2   -1    0    0    0  501 -0.00000000000E+00 -0.00000000000E+00 -0.47509282884E+03  0.47509282885E+03  0.25500000000E-02 0.  1.
    8880023    1    1    2    0    0  0.16681638266E+02  0.37073647723E+03  0.12720484960E+04  0.14797436923E+04  0.65864270000E+03 0. -1.
    8880022    1    1    2    0    0 -0.16681638266E+02 -0.37073647723E+03 -0.26274857381E+03  0.47974188753E+03  0.15294330000E+03 0.  0.
<mgrwt>
<rscale>  0 0.64533161E+03</rscale>
<asrwt>0</asrwt>
<pdfrwt beam="1">  1        2 0.22836811E+00 0.75599869E+03</pdfrwt>
<pdfrwt beam="2">  1       -2 0.73091205E-01 0.75599869E+03</pdfrwt>
<totfact> 0.22400050E+01</totfact>
</mgrwt>
</event>
