<event>
 4    1  0.5074571E-001  0.9934320E+02  0.7546771E-02  0.1281683E+00
          1   -1    0    0  501    0  0.00000000000E+00  0.00000000000E+00  0.95164860476E+03  0.95164860476E+03  0.00000000000E+00 0. -1.
         -1   -1    0    0    0  501 -0.00000000000E+00 -0.00000000000E+00 -0.10880399623E+02  0.10880399623E+02  0.00000000000E+00 0.  1.
         24    1    1    2    0    0 -0.56651603320E+02 -0.13872693610E+02  0.36619943675E+03  0.37943523719E+03  0.80419002446E+02 0. -1.
        -24    1    1    2    0    0  0.56651603320E+02  0.13872693610E+02  0.57456876838E+03  0.58309376720E+03  0.80419002446E+02 0.  0.
<mgrwt>
<rscale>  0 0.99343202E+02</rscale>
<asrwt>0</asrwt>
<pdfrwt beam="1">  1        1 0.14640741E+00 0.99343202E+02</pdfrwt>
<pdfrwt beam="2">  1       -1 0.16739084E-02 0.99343202E+02</pdfrwt>
<totfact> 0.14490164E+04</totfact>
</mgrwt>
</event>
<event>
 4    1  0.5074571E-001  0.1111867E+03  0.7546771E-02  0.1258388E+00
          1   -1    0    0  501    0  0.00000000000E+00  0.00000000000E+00  0.29362919279E+03  0.29362919279E+03  0.00000000000E+00 0. -1.
         -1   -1    0    0    0  501 -0.00000000000E+00 -0.00000000000E+00 -0.68111991309E+02  0.68111991309E+02  0.00000000000E+00 0.  1.
         24    1    1    2    0    0 -0.67672483268E+02 -0.36272738816E+02  0.98918785041E+00  0.11119114632E+03  0.80419002446E+02 0.  1.
        -24    1    1    2    0    0  0.67672483268E+02  0.36272738816E+02  0.22452801363E+03  0.25055003778E+03  0.80419002446E+02 0. -1.
<mgrwt>
<rscale>  0 0.11118675E+03</rscale>
<asrwt>0</asrwt>
<pdfrwt beam="1">  1        1 0.45173721E-01 0.11118675E+03</pdfrwt>
<pdfrwt beam="2">  1       -1 0.10478768E-01 0.11118675E+03</pdfrwt>
<totfact> 0.48367758E+03</totfact>
</mgrwt>
</event>
<event>
 4    1  0.5074571E-001  0.8791760E+02  0.7546771E-02  0.1307974E+00
          1   -1    0    0  501    0  0.00000000000E+00  0.00000000000E+00  0.11516290566E+03  0.11516290566E+03  0.00000000000E+00 0. -1.
         -1   -1    0    0    0  501 -0.00000000000E+00 -0.00000000000E+00 -0.18078405657E+03  0.18078405657E+03  0.00000000000E+00 0.  1.
         24    1    1    2    0    0  0.92075638699E+01 -0.34314866583E+02 -0.15014331242E+03  0.17398999833E+03  0.80419002446E+02 0.  1.
        -24    1    1    2    0    0 -0.92075638699E+01  0.34314866583E+02  0.84522161514E+02  0.12195696390E+03  0.80419002446E+02 0. -1.
<mgrwt>
<rscale>  0 0.87917605E+02</rscale>
<asrwt>0</asrwt>
<pdfrwt beam="1">  1        1 0.17717370E-01 0.87917605E+02</pdfrwt>
<pdfrwt beam="2">  1       -1 0.27812932E-01 0.87917605E+02</pdfrwt>
<totfact> 0.32677557E+03</totfact>
</mgrwt>
</event>
<event>
 4    1  0.5074571E-001  0.9949429E+02  0.7546771E-02  0.1281363E+00
         -2   -1    0    0    0  501 -0.00000000000E+00  0.00000000000E+00  0.20771815593E+02  0.20771815593E+02  0.00000000000E+00 0.  1.
          2   -1    0    0  501    0  0.00000000000E+00 -0.00000000000E+00 -0.47683006987E+03  0.47683006987E+03  0.00000000000E+00 0. -1.
         24    1    1    2    0    0 -0.40516294289E+02 -0.42312261297E+02 -0.23389885275E+03  0.25418061852E+03  0.80419002446E+02 0. -1.
        -24    1    1    2    0    0  0.40516294289E+02  0.42312261297E+02 -0.22215940153E+03  0.24342126694E+03  0.80419002446E+02 0.  0.
<mgrwt>
<rscale>  0 0.99494289E+02</rscale>
<asrwt>0</asrwt>
<pdfrwt beam="1">  1        2 0.73358460E-01 0.99494289E+02</pdfrwt>
<pdfrwt beam="2">  1       -2 0.31956645E-02 0.99494289E+02</pdfrwt>
<totfact> 0.23022679E+04</totfact>
</mgrwt>
</event>
<event>
 4    1  0.5074571E-001  0.8146969E+02  0.7546771E-02  0.1324932E+00
         -1   -1    0    0    0  501 -0.00000000000E+00  0.00000000000E+00  0.75970937878E+02  0.75970937878E+02  0.00000000000E+00 0.  1.
          1   -1    0    0  501    0  0.00000000000E+00 -0.00000000000E+00 -0.26663964712E+03  0.26663964712E+03  0.00000000000E+00 0. -1.
         24    1    1    2    0    0  0.69613609301E+00  0.13023408423E+02  0.45129998108E+02  0.93134453646E+02  0.80419002446E+02 0.  1.
        -24    1    1    2    0    0 -0.69613609301E+00 -0.13023408423E+02 -0.23579870735E+03  0.24947613135E+03  0.80419002446E+02 0. -1.
<mgrwt>
<rscale>  0 0.81469686E+02</rscale>
<asrwt>0</asrwt>
<pdfrwt beam="1">  1        1 0.41021483E-01 0.81469686E+02</pdfrwt>
<pdfrwt beam="2">  1       -1 0.11687837E-01 0.81469686E+02</pdfrwt>
<totfact> 0.45161240E+03</totfact>
</mgrwt>
</event>
<event>
 4    1  0.5074571E-001  0.1133843E+03  0.7546771E-02  0.1254428E+00
          2   -1    0    0  501    0  0.00000000000E+00  0.00000000000E+00  0.10830887966E+02  0.10830887966E+02  0.00000000000E+00 0. -1.
         -2   -1    0    0    0  501 -0.00000000000E+00 -0.00000000000E+00 -0.21051234199E+04  0.21051234199E+04  0.00000000000E+00 0.  1.
         24    1    1    2    0    0 -0.69367304982E+02  0.39710870585E+02 -0.34844106413E+03  0.36642484546E+03  0.80419002446E+02 0. -1.
        -24    1    1    2    0    0  0.69367304982E+02 -0.39710870585E+02 -0.17458514678E+04  0.17495294624E+04  0.80419002446E+02 0.  1.
<mgrwt>
<rscale>  0 0.11338427E+03</rscale>
<asrwt>0</asrwt>
<pdfrwt beam="1">  1        2 0.16662904E-02 0.11338427E+03</pdfrwt>
<pdfrwt beam="2">  1       -2 0.32386516E+00 0.11338427E+03</pdfrwt>
<totfact> 0.18714665E+02</totfact>
</mgrwt>
</event>
<event>
 4    1  0.5074571E-001  0.8168166E+02  0.7546771E-02  0.1324346E+00
         -1   -1    0    0    0  501 -0.00000000000E+00  0.00000000000E+00  0.38334330741E+03  0.38334330741E+03  0.00000000000E+00 0.  1.
          1   -1    0    0  501    0  0.00000000000E+00 -0.00000000000E+00 -0.37060917829E+02  0.37060917829E+02  0.00000000000E+00 0. -1.
         24    1    1    2    0    0 -0.38081017142E+01 -0.13790416936E+02  0.32622573514E+03  0.33629618413E+03  0.80419002446E+02 0.  1.
        -24    1    1    2    0    0  0.38081017142E+01  0.13790416936E+02  0.20056654443E+02  0.84108041112E+02  0.80419002446E+02 0.  0.
<mgrwt>
<rscale>  0 0.81681658E+02</rscale>
<asrwt>0</asrwt>
<pdfrwt beam="1">  1        1 0.57016799E-02 0.81681658E+02</pdfrwt>
<pdfrwt beam="2">  1       -1 0.58975891E-01 0.81681658E+02</pdfrwt>
<totfact> 0.38555322E+03</totfact>
</mgrwt>
</event>
<event>
 4    1  0.5074571E-001  0.9084700E+02  0.7546771E-02  0.1300813E+00
          1   -1    0    0  501    0  0.00000000000E+00  0.00000000000E+00  0.11618762322E+03  0.11618762322E+03  0.00000000000E+00 0. -1.
         -1   -1    0    0    0  501 -0.00000000000E+00 -0.00000000000E+00 -0.81652743160E+02  0.81652743160E+02  0.00000000000E+00 0.  1.
         24    1    1    2    0    0 -0.34084417117E+02 -0.24984256793E+02 -0.18406642845E+02  0.92692939499E+02  0.80419002446E+02 0.  1.
        -24    1    1    2    0    0  0.34084417117E+02  0.24984256793E+02  0.52941522904E+02  0.10514742688E+03  0.80419002446E+02 0. -1.
<mgrwt>
<rscale>  0 0.90846995E+02</rscale>
<asrwt>0</asrwt>
<pdfrwt beam="1">  1        1 0.17875019E-01 0.90846995E+02</pdfrwt>
<pdfrwt beam="2">  1       -1 0.12561960E-01 0.90846995E+02</pdfrwt>
<totfact> 0.11384654E+04</totfact>
</mgrwt>
</event>
<event>
 4    1  0.5074571E-001  0.9731287E+02  0.7546771E-02  0.1286050E+00
         -1   -1    0    0    0  501 -0.00000000000E+00  0.00000000000E+00  0.15112454166E+02  0.15112454166E+02  0.00000000000E+00 0.  1.
          1   -1    0    0  501    0  0.00000000000E+00 -0.00000000000E+00 -0.18169163663E+04  0.18169163663E+04  0.00000000000E+00 0. -1.
         24    1    1    2    0    0 -0.10247728454E+02  0.53829020710E+02 -0.15948581418E+03  0.18683019105E+03  0.80419002446E+02 0.  1.
        -24    1    1    2    0    0  0.10247728454E+02 -0.53829020710E+02 -0.16423180979E+04  0.16451986294E+04  0.80419002446E+02 0. -1.
<mgrwt>
<rscale>  0 0.97312874E+02</rscale>
<asrwt>0</asrwt>
<pdfrwt beam="1">  1        1 0.27952546E+00 0.97312874E+02</pdfrwt>
<pdfrwt beam="2">  1       -1 0.23249941E-02 0.97312874E+02</pdfrwt>
<totfact> 0.24266031E+03</totfact>
</mgrwt>
</event>
<event>
 4    1  0.5074571E-001  0.8399400E+02  0.7546771E-02  0.1318084E+00
          2   -1    0    0  501    0  0.00000000000E+00  0.00000000000E+00  0.66415313697E+02  0.66415313697E+02  0.00000000000E+00 0. -1.
         -2   -1    0    0    0  501 -0.00000000000E+00 -0.00000000000E+00 -0.32928757506E+03  0.32928757506E+03  0.00000000000E+00 0.  1.
         24    1    1    2    0    0  0.90225231967E+01 -0.22502684993E+02  0.31405156867E+02  0.89673165378E+02  0.80419002446E+02 0. -1.
        -24    1    1    2    0    0 -0.90225231967E+01  0.22502684993E+02 -0.29427741823E+03  0.30602972338E+03  0.80419002446E+02 0.  1.
<mgrwt>
<rscale>  0 0.83994004E+02</rscale>
<asrwt>0</asrwt>
<pdfrwt beam="1">  1        2 0.10217740E-01 0.83994004E+02</pdfrwt>
<pdfrwt beam="2">  1       -2 0.50659628E-01 0.83994004E+02</pdfrwt>
<totfact> 0.21869626E+03</totfact>
</mgrwt>
</event>
<event>
 4    1  0.5074571E-001  0.8222435E+02  0.7546771E-02  0.1322855E+00
         -2   -1    0    0    0  501 -0.00000000000E+00  0.00000000000E+00  0.22512983562E+02  0.22512983562E+02  0.00000000000E+00 0.  1.
          2   -1    0    0  501    0  0.00000000000E+00 -0.00000000000E+00 -0.37189675390E+03  0.37189675390E+03  0.00000000000E+00 0. -1.
         24    1    1    2    0    0 -0.23585254895E+01 -0.16972497095E+02 -0.26121393389E+03  0.27384952713E+03  0.80419002446E+02 0.  0.
        -24    1    1    2    0    0  0.23585254895E+01  0.16972497095E+02 -0.88169836449E+02  0.12056021033E+03  0.80419002446E+02 0.  1.
<mgrwt>
<rscale>  0 0.82224353E+02</rscale>
<asrwt>0</asrwt>
<pdfrwt beam="1">  1        2 0.57214883E-01 0.82224353E+02</pdfrwt>
<pdfrwt beam="2">  1       -2 0.34635361E-02 0.82224353E+02</pdfrwt>
<totfact> 0.26090996E+04</totfact>
</mgrwt>
</event>
<event>
 4    1  0.5074571E-001  0.9041570E+02  0.7546771E-02  0.1301848E+00
          2   -1    0    0  501    0  0.00000000000E+00  0.00000000000E+00  0.39688743985E+03  0.39688743985E+03  0.00000000000E+00 0. -1.
         -2   -1    0    0    0  501 -0.00000000000E+00 -0.00000000000E+00 -0.21501701404E+02  0.21501701404E+02  0.00000000000E+00 0.  1.
         24    1    1    2    0    0  0.60316362293E+01 -0.40882786923E+02  0.23058524737E+03  0.24767833002E+03  0.80419002446E+02 0. -1.
        -24    1    1    2    0    0 -0.60316362293E+01  0.40882786923E+02  0.14480049107E+03  0.17071081123E+03  0.80419002446E+02 0.  1.
<mgrwt>
<rscale>  0 0.90415700E+02</rscale>
<asrwt>0</asrwt>
<pdfrwt beam="1">  1        2 0.61059601E-01 0.90415700E+02</pdfrwt>
<pdfrwt beam="2">  1       -2 0.33079544E-02 0.90415700E+02</pdfrwt>
<totfact> 0.26342822E+04</totfact>
</mgrwt>
</event>
<event>
 4    1  0.5074571E-001  0.1065763E+03  0.7546771E-02  0.1267045E+00
         -1   -1    0    0    0  501 -0.00000000000E+00  0.00000000000E+00  0.34199338828E+02  0.34199338828E+02  0.00000000000E+00 0.  1.
          1   -1    0    0  501    0  0.00000000000E+00 -0.00000000000E+00 -0.18658577078E+04  0.18658577078E+04  0.00000000000E+00 0. -1.
         24    1    1    2    0    0  0.42556184436E+01 -0.69808134617E+02 -0.54494310779E+02  0.11970017464E+03  0.80419002446E+02 0.  1.
        -24    1    1    2    0    0 -0.42556184436E+01  0.69808134617E+02 -0.17771640582E+04  0.17803568720E+04  0.80419002446E+02 0. -1.
<mgrwt>
<rscale>  0 0.10657627E+03</rscale>
<asrwt>0</asrwt>
<pdfrwt beam="1">  1        1 0.28705508E+00 0.10657627E+03</pdfrwt>
<pdfrwt beam="2">  1       -1 0.52614359E-02 0.10657627E+03</pdfrwt>
<totfact> 0.69024216E+02</totfact>
</mgrwt>
</event>
<event>
 4    1  0.5074571E-001  0.8461566E+02  0.7546771E-02  0.1316441E+00
          2   -1    0    0  501    0  0.00000000000E+00  0.00000000000E+00  0.11770733385E+03  0.11770733385E+03  0.00000000000E+00 0. -1.
         -2   -1    0    0    0  501 -0.00000000000E+00 -0.00000000000E+00 -0.64012509863E+02  0.64012509863E+02  0.00000000000E+00 0.  1.
         24    1    1    2    0    0 -0.25111517639E+02  0.78743297390E+01  0.47115590912E+02  0.96848790640E+02  0.80419002446E+02 0. -1.
        -24    1    1    2    0    0  0.25111517639E+02 -0.78743297390E+01  0.65792330712E+01  0.84871053070E+02  0.80419002446E+02 0.  1.
<mgrwt>
<rscale>  0 0.84615657E+02</rscale>
<asrwt>0</asrwt>
<pdfrwt beam="1">  1        2 0.18108821E-01 0.84615657E+02</pdfrwt>
<pdfrwt beam="2">  1       -2 0.98480785E-02 0.84615657E+02</pdfrwt>
<totfact> 0.18718260E+04</totfact>
</mgrwt>
</event>
<event>
 4    1  0.5074571E-001  0.8185178E+02  0.7546771E-02  0.1323877E+00
         -2   -1    0    0    0  501 -0.00000000000E+00  0.00000000000E+00  0.40121249462E+03  0.40121249462E+03  0.00000000000E+00 0.  1.
          2   -1    0    0  501    0  0.00000000000E+00 -0.00000000000E+00 -0.10097381026E+04  0.10097381026E+04  0.00000000000E+00 0. -1.
         24    1    1    2    0    0  0.10294921825E+02  0.11247771723E+02 -0.10038803414E+04  0.10072117224E+04  0.80419002446E+02 0. -1.
        -24    1    1    2    0    0 -0.10294921825E+02 -0.11247771723E+02  0.39535473350E+03  0.40373887482E+03  0.80419002446E+02 0.  1.
<mgrwt>
<rscale>  0 0.81851779E+02</rscale>
<asrwt>0</asrwt>
<pdfrwt beam="1">  1        2 0.15534432E+00 0.81851779E+02</pdfrwt>
<pdfrwt beam="2">  1       -2 0.61724999E-01 0.81851779E+02</pdfrwt>
<totfact> 0.70329052E+01</totfact>
</mgrwt>
</event>
<event>
 4    1  0.5074571E-001  0.1087361E+03  0.7546771E-02  0.1262929E+00
         -1   -1    0    0    0  501 -0.00000000000E+00  0.00000000000E+00  0.29787858472E+02  0.29787858472E+02  0.00000000000E+00 0.  1.
          1   -1    0    0  501    0  0.00000000000E+00 -0.00000000000E+00 -0.66843855300E+03  0.66843855300E+03  0.00000000000E+00 0. -1.
         24    1    1    2    0    0  0.50380522267E+02 -0.53085980691E+02 -0.96824538313E+02  0.14559713439E+03  0.80419002446E+02 0.  1.
        -24    1    1    2    0    0 -0.50380522267E+02  0.53085980691E+02 -0.54182615621E+03  0.55262927708E+03  0.80419002446E+02 0. -1.
<mgrwt>
<rscale>  0 0.10873608E+03</rscale>
<asrwt>0</asrwt>
<pdfrwt beam="1">  1        1 0.10283670E+00 0.10873608E+03</pdfrwt>
<pdfrwt beam="2">  1       -1 0.45827477E-02 0.10873608E+03</pdfrwt>
<totfact> 0.57746021E+03</totfact>
</mgrwt>
</event>
<event>
 4    1  0.5074571E-001  0.8181987E+02  0.7546771E-02  0.1323965E+00
         -1   -1    0    0    0  501 -0.00000000000E+00  0.00000000000E+00  0.18869171221E+02  0.18869171221E+02  0.00000000000E+00 0.  1.
          1   -1    0    0  501    0  0.00000000000E+00 -0.00000000000E+00 -0.41984458890E+03  0.41984458890E+03  0.00000000000E+00 0. -1.
         24    1    1    2    0    0  0.27369427392E+01  0.14825114758E+02 -0.11413736605E+03  0.14043443014E+03  0.80419002446E+02 0.  1.
        -24    1    1    2    0    0 -0.27369427392E+01 -0.14825114758E+02 -0.28683805163E+03  0.29827932999E+03  0.80419002446E+02 0. -1.
<mgrwt>
<rscale>  0 0.81819868E+02</rscale>
<asrwt>0</asrwt>
<pdfrwt beam="1">  1        1 0.64591481E-01 0.81819868E+02</pdfrwt>
<pdfrwt beam="2">  1       -1 0.29029492E-02 0.81819868E+02</pdfrwt>
<totfact> 0.20091182E+04</totfact>
</mgrwt>
</event>
<event>
 4    1  0.5074571E-001  0.8267115E+02  0.7546771E-02  0.1321638E+00
          1   -1    0    0  501    0  0.00000000000E+00  0.00000000000E+00  0.35270360722E+04  0.35270360722E+04  0.00000000000E+00 0. -1.
         -1   -1    0    0    0  501 -0.00000000000E+00 -0.00000000000E+00 -0.19501945704E+01  0.19501945704E+01  0.00000000000E+00 0.  1.
         24    1    1    2    0    0 -0.13233091912E+02 -0.13863050095E+02  0.19034937461E+04  0.19052881557E+04  0.80419002446E+02 0.  1.
        -24    1    1    2    0    0  0.13233091912E+02  0.13863050095E+02  0.16215921315E+04  0.16236981111E+04  0.80419002446E+02 0.  0.
<mgrwt>
<rscale>  0 0.82671135E+02</rscale>
<asrwt>0</asrwt>
<pdfrwt beam="1">  1        1 0.54261583E+00 0.82671145E+02</pdfrwt>
<pdfrwt beam="2">  1       -1 0.30003276E-03 0.82671145E+02</pdfrwt>
<totfact> 0.31840547E+03</totfact>
</mgrwt>
</event>
<event>
 4    1  0.5074571E-001  0.8413774E+02  0.7546771E-02  0.1317703E+00
         -1   -1    0    0    0  501 -0.00000000000E+00  0.00000000000E+00  0.16762926917E+03  0.16762926917E+03  0.00000000000E+00 0.  1.
          1   -1    0    0  501    0  0.00000000000E+00 -0.00000000000E+00 -0.63024251544E+02  0.63024251544E+02  0.00000000000E+00 0. -1.
         24    1    1    2    0    0  0.87617731955E+01  0.23133860325E+02  0.11854504036E+03  0.14536879552E+03  0.80419002446E+02 0.  1.
        -24    1    1    2    0    0 -0.87617731955E+01 -0.23133860325E+02 -0.13940022732E+02  0.85284725193E+02  0.80419002446E+02 0. -1.
<mgrwt>
<rscale>  0 0.84137745E+02</rscale>
<asrwt>0</asrwt>
<pdfrwt beam="1">  1        1 0.96960388E-02 0.84137745E+02</pdfrwt>
<pdfrwt beam="2">  1       -1 0.25789118E-01 0.84137745E+02</pdfrwt>
<totfact> 0.80042072E+03</totfact>
</mgrwt>
</event>
<event>
 4    1  0.5074571E-001  0.9517207E+02  0.7546771E-02  0.1290789E+00
         -2   -1    0    0    0  501 -0.00000000000E+00  0.00000000000E+00  0.53972442509E+01  0.53972442509E+01  0.00000000000E+00 0.  1.
          2   -1    0    0  501    0  0.00000000000E+00 -0.00000000000E+00 -0.18227506822E+04  0.18227506822E+04  0.00000000000E+00 0. -1.
         24    1    1    2    0    0  0.31435845998E+02 -0.40028678667E+02 -0.11660768708E+04  0.11699542692E+04  0.80419002446E+02 0. -1.
        -24    1    1    2    0    0 -0.31435845998E+02  0.40028678667E+02 -0.65127656719E+03  0.65819365726E+03  0.80419002446E+02 0.  1.
<mgrwt>
<rscale>  0 0.95172073E+02</rscale>
<asrwt>0</asrwt>
<pdfrwt beam="1">  1        2 0.28042356E+00 0.95172073E+02</pdfrwt>
<pdfrwt beam="2">  1       -2 0.83034414E-03 0.95172073E+02</pdfrwt>
<totfact> 0.24284049E+04</totfact>
</mgrwt>
</event>
<event>
 4    1  0.5074571E-001  0.8814254E+02  0.7546771E-02  0.1307413E+00
         -2   -1    0    0    0  501 -0.00000000000E+00  0.00000000000E+00  0.86456664154E+01  0.86456664154E+01  0.00000000000E+00 0.  1.
          2   -1    0    0  501    0  0.00000000000E+00 -0.00000000000E+00 -0.94703439810E+03  0.94703439810E+03  0.00000000000E+00 0. -1.
         24    1    1    2    0    0  0.20429355368E+02 -0.29741027839E+02 -0.36114532870E+03  0.37174595048E+03  0.80419002446E+02 0.  0.
        -24    1    1    2    0    0 -0.20429355368E+02  0.29741027839E+02 -0.57724340298E+03  0.58393411404E+03  0.80419002446E+02 0.  0.
<mgrwt>
<rscale>  0 0.88142528E+02</rscale>
<asrwt>0</asrwt>
<pdfrwt beam="1">  1        2 0.14569762E+00 0.88142539E+02</pdfrwt>
<pdfrwt beam="2">  1       -2 0.13301024E-02 0.88142539E+02</pdfrwt>
<totfact> 0.36046013E+04</totfact>
</mgrwt>
</event>
<event>
 4    1  0.5074571E-001  0.8928217E+02  0.7546771E-02  0.1304599E+00
          2   -1    0    0  501    0  0.00000000000E+00  0.00000000000E+00  0.68971426957E+03  0.68971426957E+03  0.00000000000E+00 0. -1.
         -2   -1    0    0    0  501 -0.00000000000E+00 -0.00000000000E+00 -0.11978793747E+02  0.11978793747E+02  0.00000000000E+00 0.  1.
         24    1    1    2    0    0  0.33591408435E+02  0.19383185506E+02  0.40467177725E+03  0.41440385358E+03  0.80419002446E+02 0. -1.
        -24    1    1    2    0    0 -0.33591408435E+02 -0.19383185506E+02  0.27306369857E+03  0.28728920974E+03  0.80419002446E+02 0.  1.
<mgrwt>
<rscale>  0 0.89282174E+02</rscale>
<asrwt>0</asrwt>
<pdfrwt beam="1">  1        2 0.10610986E+00 0.89282174E+02</pdfrwt>
<pdfrwt beam="2">  1       -2 0.18428919E-02 0.89282174E+02</pdfrwt>
<totfact> 0.33462280E+04</totfact>
</mgrwt>
</event>
<event>
 4    1  0.5074571E-001  0.8361793E+02  0.7546771E-02  0.1319087E+00
         -1   -1    0    0    0  501 -0.00000000000E+00  0.00000000000E+00  0.55426999116E+01  0.55426999116E+01  0.00000000000E+00 0.  1.
          1   -1    0    0  501    0  0.00000000000E+00 -0.00000000000E+00 -0.12776784936E+04  0.12776784936E+04  0.00000000000E+00 0. -1.
         24    1    1    2    0    0  0.13713144726E+02 -0.18349165103E+02 -0.56380563886E+03  0.56997259281E+03  0.80419002446E+02 0.  0.
        -24    1    1    2    0    0 -0.13713144726E+02  0.18349165103E+02 -0.70833015479E+03  0.71324860066E+03  0.80419002446E+02 0.  1.
<mgrwt>
<rscale>  0 0.83617930E+02</rscale>
<asrwt>0</asrwt>
<pdfrwt beam="1">  1        1 0.19656583E+00 0.83617930E+02</pdfrwt>
<pdfrwt beam="2">  1       -1 0.85272344E-03 0.83617930E+02</pdfrwt>
<totfact> 0.22048627E+04</totfact>
</mgrwt>
</event>
<event>
 4    1  0.5074571E-001  0.8485566E+02  0.7546771E-02  0.1315810E+00
          2   -1    0    0  501    0  0.00000000000E+00  0.00000000000E+00  0.13602670791E+03  0.13602670791E+03  0.00000000000E+00 0. -1.
         -2   -1    0    0    0  501 -0.00000000000E+00 -0.00000000000E+00 -0.53135893869E+02  0.53135893869E+02  0.00000000000E+00 0.  1.
         24    1    1    2    0    0 -0.79571598515E+01  0.25883393330E+02  0.47270724389E+02  0.97133947628E+02  0.80419002446E+02 0. -1.
        -24    1    1    2    0    0  0.79571598515E+01 -0.25883393330E+02  0.35620089649E+02  0.92028654147E+02  0.80419002446E+02 0.  0.
<mgrwt>
<rscale>  0 0.84855656E+02</rscale>
<asrwt>0</asrwt>
<pdfrwt beam="1">  1        2 0.20927186E-01 0.84855656E+02</pdfrwt>
<pdfrwt beam="2">  1       -2 0.81747529E-02 0.84855656E+02</pdfrwt>
<totfact> 0.21214457E+04</totfact>
</mgrwt>
</event>
<event>
 4    1  0.5074571E-001  0.1209586E+03  0.7546771E-02  0.1241524E+00
          1   -1    0    0  501    0  0.00000000000E+00  0.00000000000E+00  0.22364860479E+04  0.22364860479E+04  0.00000000000E+00 0. -1.
         -1   -1    0    0    0  501 -0.00000000000E+00 -0.00000000000E+00 -0.66360997260E+01  0.66360997260E+01  0.00000000000E+00 0.  1.
         24    1    1    2    0    0 -0.84987738532E+02  0.30673127562E+02  0.12485179830E+04  0.12543636340E+04  0.80419002446E+02 0.  1.
        -24    1    1    2    0    0  0.84987738532E+02 -0.30673127562E+02  0.98133196516E+03  0.98875851362E+03  0.80419002446E+02 0. -1.
<mgrwt>
<rscale>  0 0.12095857E+03</rscale>
<asrwt>0</asrwt>
<pdfrwt beam="1">  1        1 0.34407417E+00 0.12095859E+03</pdfrwt>
<pdfrwt beam="2">  1       -1 0.10209402E-02 0.12095859E+03</pdfrwt>
<totfact> 0.42803060E+03</totfact>
</mgrwt>
</event>
<event>
 4    1  0.5074571E-001  0.1014790E+03  0.7546771E-02  0.1277216E+00
         -1   -1    0    0    0  501 -0.00000000000E+00  0.00000000000E+00  0.40783281663E+03  0.40783281663E+03  0.00000000000E+00 0.  1.
          1   -1    0    0  501    0  0.00000000000E+00 -0.00000000000E+00 -0.34359699028E+02  0.34359699028E+02  0.00000000000E+00 0. -1.
         24    1    1    2    0    0  0.52525204891E+02 -0.32739536962E+02  0.30057694315E+03  0.31724515621E+03  0.80419002446E+02 0.  1.
        -24    1    1    2    0    0 -0.52525204891E+02  0.32739536962E+02  0.72896174452E+02  0.12494735945E+03  0.80419002446E+02 0. -1.
<mgrwt>
<rscale>  0 0.10147901E+03</rscale>
<asrwt>0</asrwt>
<pdfrwt beam="1">  1        1 0.52861078E-02 0.10147901E+03</pdfrwt>
<pdfrwt beam="2">  1       -1 0.62743507E-01 0.10147901E+03</pdfrwt>
<totfact> 0.38591634E+03</totfact>
</mgrwt>
</event>
<event>
 4    1  0.5074571E-001  0.8202473E+02  0.7546771E-02  0.1323402E+00
         -2   -1    0    0    0  501 -0.00000000000E+00  0.00000000000E+00  0.23913299893E+02  0.23913299893E+02  0.00000000000E+00 0.  1.
          2   -1    0    0  501    0  0.00000000000E+00 -0.00000000000E+00 -0.53897468651E+03  0.53897468651E+03  0.00000000000E+00 0. -1.
         24    1    1    2    0    0  0.15844218637E+02  0.31305867510E+01 -0.45211141752E+03  0.45949188202E+03  0.80419002446E+02 0.  0.
        -24    1    1    2    0    0 -0.15844218637E+02 -0.31305867510E+01 -0.62949969097E+02  0.10339610438E+03  0.80419002446E+02 0.  1.
<mgrwt>
<rscale>  0 0.82024727E+02</rscale>
<asrwt>0</asrwt>
<pdfrwt beam="1">  1        2 0.82919185E-01 0.82024727E+02</pdfrwt>
<pdfrwt beam="2">  1       -2 0.36789691E-02 0.82024727E+02</pdfrwt>
<totfact> 0.16104344E+04</totfact>
</mgrwt>
</event>
<event>
 4    1  0.5074571E-001  0.1088701E+03  0.7546771E-02  0.1262677E+00
          1   -1    0    0  501    0  0.00000000000E+00  0.00000000000E+00  0.32583138644E+03  0.32583138644E+03  0.00000000000E+00 0. -1.
         -1   -1    0    0    0  501 -0.00000000000E+00 -0.00000000000E+00 -0.36818388483E+02  0.36818388483E+02  0.00000000000E+00 0.  1.
         24    1    1    2    0    0  0.70926078119E+02  0.18840488281E+02  0.12464756035E+03  0.16549834686E+03  0.80419002446E+02 0.  1.
        -24    1    1    2    0    0 -0.70926078119E+02 -0.18840488281E+02  0.16436543761E+03  0.19715142807E+03  0.80419002446E+02 0. -1.
<mgrwt>
<rscale>  0 0.10887005E+03</rscale>
<asrwt>0</asrwt>
<pdfrwt beam="1">  1        1 0.50127904E-01 0.10887005E+03</pdfrwt>
<pdfrwt beam="2">  1       -1 0.56643677E-02 0.10887005E+03</pdfrwt>
<totfact> 0.10679869E+04</totfact>
</mgrwt>
</event>
<event>
 4    1  0.5074571E-001  0.1258021E+03  0.7546771E-02  0.1233821E+00
          1   -1    0    0  501    0  0.00000000000E+00  0.00000000000E+00  0.11646070047E+04  0.11646070047E+04  0.00000000000E+00 0. -1.
         -1   -1    0    0    0  501 -0.00000000000E+00 -0.00000000000E+00 -0.13598150462E+02  0.13598150462E+02  0.00000000000E+00 0.  1.
         24    1    1    2    0    0 -0.71502627373E+01  0.96477109552E+02  0.56046138088E+03  0.57440676732E+03  0.80419002446E+02 0.  1.
        -24    1    1    2    0    0  0.71502627373E+01 -0.96477109552E+02  0.59054747339E+03  0.60379838788E+03  0.80419002446E+02 0.  0.
<mgrwt>
<rscale>  0 0.12580213E+03</rscale>
<asrwt>0</asrwt>
<pdfrwt beam="1">  1        1 0.17917023E+00 0.12580213E+03</pdfrwt>
<pdfrwt beam="2">  1       -1 0.20920241E-02 0.12580213E+03</pdfrwt>
<totfact> 0.75392253E+03</totfact>
</mgrwt>
</event>
<event>
 4    1  0.5074571E-001  0.8187838E+02  0.7546771E-02  0.1323804E+00
          2   -1    0    0  501    0  0.00000000000E+00  0.00000000000E+00  0.60068664653E+03  0.60068664653E+03  0.00000000000E+00 0. -1.
         -2   -1    0    0    0  501 -0.00000000000E+00 -0.00000000000E+00 -0.13807064818E+03  0.13807064818E+03  0.00000000000E+00 0.  1.
         24    1    1    2    0    0 -0.12773580423E+02  0.85842295422E+01  0.58544310291E+03  0.59114101199E+03  0.80419002446E+02 0. -1.
        -24    1    1    2    0    0  0.12773580423E+02 -0.85842295422E+01 -0.12282710456E+03  0.14761628272E+03  0.80419002446E+02 0.  1.
<mgrwt>
<rscale>  0 0.81878381E+02</rscale>
<asrwt>0</asrwt>
<pdfrwt beam="1">  1        2 0.92413329E-01 0.81878381E+02</pdfrwt>
<pdfrwt beam="2">  1       -2 0.21241639E-01 0.81878381E+02</pdfrwt>
<totfact> 0.94720448E+02</totfact>
</mgrwt>
</event>
<event>
 4    1  0.5074571E-001  0.9410781E+02  0.7546771E-02  0.1293198E+00
          1   -1    0    0  501    0  0.00000000000E+00  0.00000000000E+00  0.67694012891E+02  0.67694012891E+02  0.00000000000E+00 0. -1.
         -1   -1    0    0    0  501 -0.00000000000E+00 -0.00000000000E+00 -0.19914607183E+03  0.19914607183E+03  0.00000000000E+00 0.  1.
         24    1    1    2    0    0 -0.40901694325E+02  0.26760347937E+02 -0.14387128314E+03  0.17191633688E+03  0.80419002446E+02 0.  1.
        -24    1    1    2    0    0  0.40901694325E+02 -0.26760347937E+02  0.12419224198E+02  0.94923747842E+02  0.80419002446E+02 0. -1.
<mgrwt>
<rscale>  0 0.94107815E+02</rscale>
<asrwt>0</asrwt>
<pdfrwt beam="1">  1        1 0.10414464E-01 0.94107815E+02</pdfrwt>
<pdfrwt beam="2">  1       -1 0.30637857E-01 0.94107815E+02</pdfrwt>
<totfact> 0.55413253E+03</totfact>
</mgrwt>
</event>
<event>
 4    1  0.5074571E-001  0.8565058E+02  0.7546771E-02  0.1313740E+00
          2   -1    0    0  501    0  0.00000000000E+00  0.00000000000E+00  0.10898188121E+04  0.10898188121E+04  0.00000000000E+00 0. -1.
         -2   -1    0    0    0  501 -0.00000000000E+00 -0.00000000000E+00 -0.32118528242E+02  0.32118528242E+02  0.00000000000E+00 0.  1.
         24    1    1    2    0    0  0.17306478691E+02 -0.23859820182E+02  0.10275824015E+04  0.10311457768E+04  0.80419002446E+02 0. -1.
        -24    1    1    2    0    0 -0.17306478691E+02  0.23859820182E+02  0.30117882431E+02  0.90791563597E+02  0.80419002446E+02 0.  1.
<mgrwt>
<rscale>  0 0.85650576E+02</rscale>
<asrwt>0</asrwt>
<pdfrwt beam="1">  1        2 0.16766440E+00 0.85650576E+02</pdfrwt>
<pdfrwt beam="2">  1       -2 0.49413129E-02 0.85650576E+02</pdfrwt>
<totfact> 0.44488750E+03</totfact>
</mgrwt>
</event>
<event>
 4    1  0.5074571E-001  0.8348981E+02  0.7546771E-02  0.1319430E+00
         -2   -1    0    0    0  501 -0.00000000000E+00  0.00000000000E+00  0.12792490578E+02  0.12792490578E+02  0.00000000000E+00 0.  1.
          2   -1    0    0  501    0  0.00000000000E+00 -0.00000000000E+00 -0.62722921894E+03  0.62722921894E+03  0.00000000000E+00 0. -1.
         24    1    1    2    0    0 -0.67199884403E+01 -0.21404905258E+02 -0.19127500620E+03  0.20870235304E+03  0.80419002446E+02 0.  1.
        -24    1    1    2    0    0  0.67199884403E+01  0.21404905258E+02 -0.42316172217E+03  0.43131935648E+03  0.80419002446E+02 0.  1.
<mgrwt>
<rscale>  0 0.83489795E+02</rscale>
<asrwt>0</asrwt>
<pdfrwt beam="1">  1        2 0.96496799E-01 0.83489806E+02</pdfrwt>
<pdfrwt beam="2">  1       -2 0.19680756E-02 0.83489806E+02</pdfrwt>
<totfact> 0.33695337E+04</totfact>
</mgrwt>
</event>
<event>
 4    1  0.5074571E-001  0.1058906E+03  0.7546771E-02  0.1268375E+00
          2   -1    0    0  501    0  0.00000000000E+00  0.00000000000E+00  0.17311763948E+04  0.17311763948E+04  0.00000000000E+00 0. -1.
         -2   -1    0    0    0  501 -0.00000000000E+00 -0.00000000000E+00 -0.32388529757E+02  0.32388529757E+02  0.00000000000E+00 0.  1.
         24    1    1    2    0    0 -0.50742623299E+02  0.46591711682E+02  0.16380949941E+04  0.16415139436E+04  0.80419002446E+02 0. -1.
        -24    1    1    2    0    0  0.50742623299E+02 -0.46591711682E+02  0.60692870978E+02  0.12205098098E+03  0.80419002446E+02 0.  1.
<mgrwt>
<rscale>  0 0.10589059E+03</rscale>
<asrwt>0</asrwt>
<pdfrwt beam="1">  1        2 0.26633476E+00 0.10589059E+03</pdfrwt>
<pdfrwt beam="2">  1       -2 0.49828521E-02 0.10589059E+03</pdfrwt>
<totfact> 0.20360950E+03</totfact>
</mgrwt>
</event>
<event>
 4    1  0.5074571E-001  0.9033117E+02  0.7546771E-02  0.1302052E+00
          2   -1    0    0  501    0  0.00000000000E+00  0.00000000000E+00  0.16717352122E+03  0.16717352122E+03  0.00000000000E+00 0. -1.
         -2   -1    0    0    0  501 -0.00000000000E+00 -0.00000000000E+00 -0.60246867373E+02  0.60246867373E+02  0.00000000000E+00 0.  1.
         24    1    1    2    0    0  0.37328770416E+02  0.17293545755E+02  0.10300697211E+03  0.13700421922E+03  0.80419002446E+02 0.  0.
        -24    1    1    2    0    0 -0.37328770416E+02 -0.17293545755E+02  0.39196817371E+01  0.90416169377E+02  0.80419002446E+02 0. -1.
<mgrwt>
<rscale>  0 0.90331167E+02</rscale>
<asrwt>0</asrwt>
<pdfrwt beam="1">  1        2 0.25719003E-01 0.90331167E+02</pdfrwt>
<pdfrwt beam="2">  1       -2 0.92687489E-02 0.90331167E+02</pdfrwt>
<totfact> 0.14046532E+04</totfact>
</mgrwt>
</event>
<event>
 4    1  0.5074571E-001  0.9404607E+02  0.7546771E-02  0.1293339E+00
          1   -1    0    0  501    0  0.00000000000E+00  0.00000000000E+00  0.31485819914E+03  0.31485819914E+03  0.00000000000E+00 0. -1.
         -1   -1    0    0    0  501 -0.00000000000E+00 -0.00000000000E+00 -0.46150524246E+02  0.46150524246E+02  0.00000000000E+00 0.  1.
         24    1    1    2    0    0  0.46477441674E+02 -0.14740922781E+02  0.21438422766E+02  0.96458640433E+02  0.80419002446E+02 0.  1.
        -24    1    1    2    0    0 -0.46477441674E+02  0.14740922781E+02  0.24726925213E+03  0.26455008296E+03  0.80419002446E+02 0. -1.
<mgrwt>
<rscale>  0 0.94046070E+02</rscale>
<asrwt>0</asrwt>
<pdfrwt beam="1">  1        1 0.48439722E-01 0.94046070E+02</pdfrwt>
<pdfrwt beam="2">  1       -1 0.71000808E-02 0.94046070E+02</pdfrwt>
<totfact> 0.78769867E+03</totfact>
</mgrwt>
</event>
<event>
 4    1  0.5074571E-001  0.9606778E+02  0.7546771E-02  0.1288789E+00
         -1   -1    0    0    0  501 -0.00000000000E+00  0.00000000000E+00  0.32637594012E+02  0.32637594012E+02  0.00000000000E+00 0.  1.
          1   -1    0    0  501    0  0.00000000000E+00 -0.00000000000E+00 -0.69403808684E+03  0.69403808684E+03  0.00000000000E+00 0. -1.
         24    1    1    2    0    0 -0.50278595942E+02 -0.15292662671E+02 -0.51008217803E+02  0.10876974294E+03  0.80419002446E+02 0.  1.
        -24    1    1    2    0    0  0.50278595942E+02  0.15292662671E+02 -0.61039227502E+03  0.61790593791E+03  0.80419002446E+02 0. -1.
<mgrwt>
<rscale>  0 0.96067782E+02</rscale>
<asrwt>0</asrwt>
<pdfrwt beam="1">  1        1 0.10677509E+00 0.96067782E+02</pdfrwt>
<pdfrwt beam="2">  1       -1 0.50211682E-02 0.96067782E+02</pdfrwt>
<totfact> 0.47590635E+03</totfact>
</mgrwt>
</event>
<event>
 4    1  0.5074571E-001  0.9511048E+02  0.7546771E-02  0.1290927E+00
          1   -1    0    0  501    0  0.00000000000E+00  0.00000000000E+00  0.11758993670E+03  0.11758993670E+03  0.00000000000E+00 0. -1.
         -1   -1    0    0    0  501 -0.00000000000E+00 -0.00000000000E+00 -0.15353981992E+03  0.15353981992E+03  0.00000000000E+00 0.  1.
         24    1    1    2    0    0  0.21838401780E+02  0.45846174471E+02 -0.11373479766E+03  0.14826195621E+03  0.80419002446E+02 0.  1.
        -24    1    1    2    0    0 -0.21838401780E+02 -0.45846174471E+02  0.77784914449E+02  0.12286780040E+03  0.80419002446E+02 0. -1.
<mgrwt>
<rscale>  0 0.95110480E+02</rscale>
<asrwt>0</asrwt>
<pdfrwt beam="1">  1        1 0.18090760E-01 0.95110480E+02</pdfrwt>
<pdfrwt beam="2">  1       -1 0.23621511E-01 0.95110480E+02</pdfrwt>
<totfact> 0.41751547E+03</totfact>
</mgrwt>
</event>
<event>
 4    1  0.5074571E-001  0.9783411E+02  0.7546771E-02  0.1284918E+00
         -1   -1    0    0    0  501 -0.00000000000E+00  0.00000000000E+00  0.24382944042E+02  0.24382944042E+02  0.00000000000E+00 0.  1.
          1   -1    0    0  501    0  0.00000000000E+00 -0.00000000000E+00 -0.62138358463E+03  0.62138358463E+03  0.00000000000E+00 0. -1.
         24    1    1    2    0    0 -0.24941105684E+02 -0.49822059051E+02 -0.10255900815E+03  0.14173871182E+03  0.80419002446E+02 0.  1.
        -24    1    1    2    0    0  0.24941105684E+02  0.49822059051E+02 -0.49444163244E+03  0.50402781685E+03  0.80419002446E+02 0. -1.
<mgrwt>
<rscale>  0 0.97834106E+02</rscale>
<asrwt>0</asrwt>
<pdfrwt beam="1">  1        1 0.95597468E-01 0.97834106E+02</pdfrwt>
<pdfrwt beam="2">  1       -1 0.37512224E-02 0.97834106E+02</pdfrwt>
<totfact> 0.84930897E+03</totfact>
</mgrwt>
</event>
<event>
 4    1  0.5074571E-001  0.8886903E+02  0.7546771E-02  0.1305614E+00
         -1   -1    0    0    0  501 -0.00000000000E+00  0.00000000000E+00  0.23734744934E+02  0.23734744934E+02  0.00000000000E+00 0.  1.
          1   -1    0    0  501    0  0.00000000000E+00 -0.00000000000E+00 -0.47878244112E+03  0.47878244112E+03  0.00000000000E+00 0. -1.
         24    1    1    2    0    0 -0.31941820168E+02  0.20253602105E+02 -0.88759307306E+02  0.12560222475E+03  0.80419002446E+02 0.  1.
        -24    1    1    2    0    0  0.31941820168E+02 -0.20253602105E+02 -0.36628838888E+03  0.37691496130E+03  0.80419002446E+02 0. -1.
<mgrwt>
<rscale>  0 0.88869029E+02</rscale>
<asrwt>0</asrwt>
<pdfrwt beam="1">  1        1 0.73658828E-01 0.88869029E+02</pdfrwt>
<pdfrwt beam="2">  1       -1 0.36514997E-02 0.88869029E+02</pdfrwt>
<totfact> 0.12336614E+04</totfact>
</mgrwt>
</event>
<event>
 4    1  0.5074571E-001  0.8905546E+02  0.7546771E-02  0.1305155E+00
          2   -1    0    0  501    0  0.00000000000E+00  0.00000000000E+00  0.62487954593E+03  0.62487954593E+03  0.00000000000E+00 0. -1.
         -2   -1    0    0    0  501 -0.00000000000E+00 -0.00000000000E+00 -0.33945536479E+02  0.33945536479E+02  0.00000000000E+00 0.  1.
         24    1    1    2    0    0  0.33806201461E+02  0.17910881346E+02  0.55612194950E+03  0.56320733092E+03  0.80419002446E+02 0. -1.
        -24    1    1    2    0    0 -0.33806201461E+02 -0.17910881346E+02  0.34812059950E+02  0.95617751491E+02  0.80419002446E+02 0.  1.
<mgrwt>
<rscale>  0 0.89055460E+02</rscale>
<asrwt>0</asrwt>
<pdfrwt beam="1">  1        2 0.96135306E-01 0.89055460E+02</pdfrwt>
<pdfrwt beam="2">  1       -2 0.52223907E-02 0.89055460E+02</pdfrwt>
<totfact> 0.82134354E+03</totfact>
</mgrwt>
</event>
<event>
 4    1  0.5074571E-001  0.8622857E+02  0.7546771E-02  0.1312251E+00
          1   -1    0    0  501    0  0.00000000000E+00  0.00000000000E+00  0.23950530703E+03  0.23950530703E+03  0.00000000000E+00 0. -1.
         -1   -1    0    0    0  501 -0.00000000000E+00 -0.00000000000E+00 -0.34995467775E+02  0.34995467775E+02  0.00000000000E+00 0.  1.
         24    1    1    2    0    0 -0.26816435989E+02 -0.15780676341E+02  0.56139175147E+02  0.10289302175E+03  0.80419002446E+02 0. -1.
        -24    1    1    2    0    0  0.26816435989E+02  0.15780676341E+02  0.14837066411E+03  0.17160775305E+03  0.80419002446E+02 0. -1.
<mgrwt>
<rscale>  0 0.86228574E+02</rscale>
<asrwt>0</asrwt>
<pdfrwt beam="1">  1        1 0.36846969E-01 0.86228574E+02</pdfrwt>
<pdfrwt beam="2">  1       -1 0.53839183E-02 0.86228574E+02</pdfrwt>
<totfact> 0.16408128E+04</totfact>
</mgrwt>
</event>
<event>
 4    1  0.5074571E-001  0.8861424E+02  0.7546771E-02  0.1306243E+00
          2   -1    0    0  501    0  0.00000000000E+00  0.00000000000E+00  0.12810614353E+03  0.12810614353E+03  0.00000000000E+00 0. -1.
         -2   -1    0    0    0  501 -0.00000000000E+00 -0.00000000000E+00 -0.92783066424E+02  0.92783066424E+02  0.00000000000E+00 0.  1.
         24    1    1    2    0    0  0.36298098993E+02  0.82289089902E+01  0.82000118295E+02  0.12073318636E+03  0.80419002446E+02 0. -1.
        -24    1    1    2    0    0 -0.36298098993E+02 -0.82289089902E+01 -0.46677041189E+02  0.10015602359E+03  0.80419002446E+02 0.  1.
<mgrwt>
<rscale>  0 0.88614236E+02</rscale>
<asrwt>0</asrwt>
<pdfrwt beam="1">  1        2 0.19708637E-01 0.88614236E+02</pdfrwt>
<pdfrwt beam="2">  1       -2 0.14274318E-01 0.88614236E+02</pdfrwt>
<totfact> 0.95223817E+03</totfact>
</mgrwt>
</event>
<event>
 4    1  0.5074571E-001  0.8540071E+02  0.7546771E-02  0.1314388E+00
          3   -1    0    0  501    0  0.00000000000E+00  0.00000000000E+00  0.91340618007E+02  0.91340618007E+02  0.00000000000E+00 0. -1.
         -3   -1    0    0    0  501 -0.00000000000E+00 -0.00000000000E+00 -0.83191882217E+02  0.83191882217E+02  0.00000000000E+00 0.  1.
         24    1    1    2    0    0 -0.15288282349E+02  0.24337897041E+02 -0.13423763700E+02  0.86449281060E+02  0.80419002446E+02 0.  1.
        -24    1    1    2    0    0  0.15288282349E+02 -0.24337897041E+02  0.21572499491E+02  0.88083219164E+02  0.80419002446E+02 0. -1.
<mgrwt>
<rscale>  0 0.85400707E+02</rscale>
<asrwt>0</asrwt>
<pdfrwt beam="1">  1        3 0.14052403E-01 0.85400707E+02</pdfrwt>
<pdfrwt beam="2">  1       -3 0.12798751E-01 0.85400707E+02</pdfrwt>
<totfact> 0.41809955E+03</totfact>
</mgrwt>
</event>
<event>
 4    1  0.5074571E-001  0.8169196E+02  0.7546771E-02  0.1324317E+00
          1   -1    0    0  501    0  0.00000000000E+00  0.00000000000E+00  0.44440560782E+02  0.44440560782E+02  0.00000000000E+00 0. -1.
         -1   -1    0    0    0  501 -0.00000000000E+00 -0.00000000000E+00 -0.51182405948E+03  0.51182405948E+03  0.00000000000E+00 0.  1.
         24    1    1    2    0    0  0.14349260515E+02 -0.67769013394E+00 -0.46748857554E+03  0.47457259166E+03  0.80419002446E+02 0.  0.
        -24    1    1    2    0    0 -0.14349260515E+02  0.67769013394E+00  0.10507684386E+00  0.81692028600E+02  0.80419002446E+02 0.  0.
<mgrwt>
<rscale>  0 0.81691961E+02</rscale>
<asrwt>0</asrwt>
<pdfrwt beam="1">  1        1 0.68370099E-02 0.81691961E+02</pdfrwt>
<pdfrwt beam="2">  1       -1 0.78742157E-01 0.81691961E+02</pdfrwt>
<totfact> 0.17292510E+03</totfact>
</mgrwt>
</event>
<event>
 4    1  0.5074571E-001  0.8336616E+02  0.7546771E-02  0.1319761E+00
          2   -1    0    0  501    0  0.00000000000E+00  0.00000000000E+00  0.31132516847E+04  0.31132516847E+04  0.00000000000E+00 0. -1.
         -2   -1    0    0    0  501 -0.00000000000E+00 -0.00000000000E+00 -0.56810329652E+01  0.56810329652E+01  0.00000000000E+00 0.  1.
         24    1    1    2    0    0  0.28403449095E+01 -0.21786083361E+02  0.27688180917E+04  0.27700728406E+04  0.80419002446E+02 0. -1.
        -24    1    1    2    0    0 -0.28403449095E+01  0.21786083361E+02  0.33875256005E+03  0.34885987715E+03  0.80419002446E+02 0.  1.
<mgrwt>
<rscale>  0 0.83366162E+02</rscale>
<asrwt>0</asrwt>
<pdfrwt beam="1">  1        2 0.47896044E+00 0.83366162E+02</pdfrwt>
<pdfrwt beam="2">  1       -2 0.87400756E-03 0.83366162E+02</pdfrwt>
<totfact> 0.46763553E+03</totfact>
</mgrwt>
</event>
<event>
 4    1  0.5074571E-001  0.8262574E+02  0.7546771E-02  0.1321761E+00
         -2   -1    0    0    0  501 -0.00000000000E+00  0.00000000000E+00  0.99033618751E+02  0.99033618751E+02  0.00000000000E+00 0.  1.
          2   -1    0    0  501    0  0.00000000000E+00 -0.00000000000E+00 -0.60809094600E+03  0.60809094600E+03  0.00000000000E+00 0. -1.
         24    1    1    2    0    0  0.11638203065E+02  0.14978314874E+02 -0.58744746815E+03  0.59322975437E+03  0.80419002446E+02 0. -1.
        -24    1    1    2    0    0 -0.11638203065E+02 -0.14978314874E+02  0.78390140897E+02  0.11389481038E+03  0.80419002446E+02 0.  1.
<mgrwt>
<rscale>  0 0.82625744E+02</rscale>
<asrwt>0</asrwt>
<pdfrwt beam="1">  1        2 0.93552453E-01 0.82625744E+02</pdfrwt>
<pdfrwt beam="2">  1       -2 0.15235941E-01 0.82625744E+02</pdfrwt>
<totfact> 0.16167533E+03</totfact>
</mgrwt>
</event>
<event>
 4    1  0.5074571E-001  0.8273964E+02  0.7546771E-02  0.1321452E+00
         -2   -1    0    0    0  501 -0.00000000000E+00  0.00000000000E+00  0.10112964360E+03  0.10112964360E+03  0.00000000000E+00 0.  1.
          2   -1    0    0  501    0  0.00000000000E+00 -0.00000000000E+00 -0.10960695106E+03  0.10960695106E+03  0.00000000000E+00 0. -1.
         24    1    1    2    0    0 -0.18615743353E+02 -0.56644453586E+01 -0.69396418300E+02  0.10798940073E+03  0.80419002446E+02 0. -1.
        -24    1    1    2    0    0  0.18615743353E+02  0.56644453586E+01  0.60919110845E+02  0.10274719394E+03  0.80419002446E+02 0.  0.
<mgrwt>
<rscale>  0 0.82739639E+02</rscale>
<asrwt>0</asrwt>
<pdfrwt beam="1">  1        2 0.16862608E-01 0.82739639E+02</pdfrwt>
<pdfrwt beam="2">  1       -2 0.15558407E-01 0.82739639E+02</pdfrwt>
<totfact> 0.98147446E+03</totfact>
</mgrwt>
</event>
<event>
 4    1  0.5074571E-001  0.8612544E+02  0.7546771E-02  0.1312515E+00
         -1   -1    0    0    0  501 -0.00000000000E+00  0.00000000000E+00  0.22802987089E+03  0.22802987089E+03  0.00000000000E+00 0.  1.
          1   -1    0    0  501    0  0.00000000000E+00 -0.00000000000E+00 -0.32627729527E+02  0.32627729527E+02  0.00000000000E+00 0. -1.
         24    1    1    2    0    0 -0.28250868709E+02 -0.12339538958E+02  0.10486897941E+03  0.13570222770E+03  0.80419002446E+02 0.  1.
        -24    1    1    2    0    0  0.28250868709E+02  0.12339538958E+02  0.90533161954E+02  0.12495537272E+03  0.80419002446E+02 0.  0.
<mgrwt>
<rscale>  0 0.86125442E+02</rscale>
<asrwt>0</asrwt>
<pdfrwt beam="1">  1        1 0.50196508E-02 0.86125442E+02</pdfrwt>
<pdfrwt beam="2">  1       -1 0.35081518E-01 0.86125442E+02</pdfrwt>
<totfact> 0.11551991E+04</totfact>
</mgrwt>
</event>
<event>
 4    1  0.5074571E-001  0.1058186E+03  0.7546771E-02  0.1268515E+00
          2   -1    0    0  501    0  0.00000000000E+00  0.00000000000E+00  0.46410494348E+04  0.46410494348E+04  0.00000000000E+00 0. -1.
         -2   -1    0    0    0  501 -0.00000000000E+00 -0.00000000000E+00 -0.33910334414E+01  0.33910334414E+01  0.00000000000E+00 0.  1.
         24    1    1    2    0    0  0.57519766108E+02  0.37707316147E+02  0.35661409782E+04  0.35677106185E+04  0.80419002446E+02 0. -1.
        -24    1    1    2    0    0 -0.57519766108E+02 -0.37707316147E+02  0.10715174232E+04  0.10767298498E+04  0.80419002446E+02 0.  1.
<mgrwt>
<rscale>  0 0.10581862E+03</rscale>
<asrwt>0</asrwt>
<pdfrwt beam="1">  1        2 0.71400252E+00 0.10581862E+03</pdfrwt>
<pdfrwt beam="2">  1       -2 0.52170117E-03 0.10581862E+03</pdfrwt>
<totfact> 0.73335747E+02</totfact>
</mgrwt>
</event>
<event>
 4    1  0.5074571E-001  0.1293180E+03  0.7546771E-02  0.1228471E+00
         -1   -1    0    0    0  501 -0.00000000000E+00  0.00000000000E+00  0.35531278648E+02  0.35531278648E+02  0.00000000000E+00 0.  1.
          1   -1    0    0  501    0  0.00000000000E+00 -0.00000000000E+00 -0.52573859302E+03  0.52573859302E+03  0.00000000000E+00 0. -1.
         24    1    1    2    0    0 -0.27196017292E+02  0.97551604205E+02 -0.15426977609E+03  0.20130156136E+03  0.80419002446E+02 0.  0.
        -24    1    1    2    0    0  0.27196017292E+02 -0.97551604205E+02 -0.33593753829E+03  0.35996831030E+03  0.80419002446E+02 0. -1.
<mgrwt>
<rscale>  0 0.12931804E+03</rscale>
<asrwt>0</asrwt>
<pdfrwt beam="1">  1        1 0.80882861E-01 0.12931804E+03</pdfrwt>
<pdfrwt beam="2">  1       -1 0.54663505E-02 0.12931804E+03</pdfrwt>
<totfact> 0.62218327E+03</totfact>
</mgrwt>
</event>
<event>
 4    1  0.5074571E-001  0.1092316E+03  0.7546771E-02  0.1261999E+00
          3   -1    0    0  501    0  0.00000000000E+00  0.00000000000E+00  0.43406194873E+02  0.43406194873E+02  0.00000000000E+00 0. -1.
         -3   -1    0    0    0  501 -0.00000000000E+00 -0.00000000000E+00 -0.27490396819E+03  0.27490396819E+03  0.00000000000E+00 0.  1.
         24    1    1    2    0    0 -0.71175499876E+02 -0.19959590938E+02 -0.11719284827E+03  0.16020523304E+03  0.80419002446E+02 0. -1.
        -24    1    1    2    0    0  0.71175499876E+02  0.19959590938E+02 -0.11430492504E+03  0.15810493002E+03  0.80419002446E+02 0.  1.
<mgrwt>
<rscale>  0 0.10923165E+03</rscale>
<asrwt>0</asrwt>
<pdfrwt beam="1">  1        3 0.66778762E-02 0.10923165E+03</pdfrwt>
<pdfrwt beam="2">  1       -3 0.42292918E-01 0.10923165E+03</pdfrwt>
<totfact> 0.17611812E+03</totfact>
</mgrwt>
</event>
<event>
 4    1  0.5074571E-001  0.8195280E+02  0.7546771E-02  0.1323599E+00
          2   -1    0    0  501    0  0.00000000000E+00  0.00000000000E+00  0.84300456584E+03  0.84300456584E+03  0.00000000000E+00 0. -1.
         -2   -1    0    0    0  501 -0.00000000000E+00 -0.00000000000E+00 -0.12875051476E+03  0.12875051476E+03  0.00000000000E+00 0.  1.
         24    1    1    2    0    0  0.48417072512E-01  0.15781120272E+02  0.82773152328E+03  0.83177865847E+03  0.80419002446E+02 0. -1.
        -24    1    1    2    0    0 -0.48417072512E-01 -0.15781120272E+02 -0.11347747220E+03  0.13997642213E+03  0.80419002446E+02 0.  1.
<mgrwt>
<rscale>  0 0.81952804E+02</rscale>
<asrwt>0</asrwt>
<pdfrwt beam="1">  1        2 0.12969301E+00 0.81952804E+02</pdfrwt>
<pdfrwt beam="2">  1       -2 0.19807772E-01 0.81952804E+02</pdfrwt>
<totfact> 0.71627256E+02</totfact>
</mgrwt>
</event>
<event>
 4    1  0.5074571E-001  0.8074160E+02  0.7546771E-02  0.1326960E+00
          3   -1    0    0  501    0  0.00000000000E+00  0.00000000000E+00  0.23424304261E+02  0.23424304261E+02  0.00000000000E+00 0. -1.
         -3   -1    0    0    0  501 -0.00000000000E+00 -0.00000000000E+00 -0.27933665106E+03  0.27933665106E+03  0.00000000000E+00 0.  1.
         24    1    1    2    0    0 -0.38639566136E+01 -0.60873944879E+01 -0.11877584016E+03  0.14362069034E+03  0.80419002446E+02 0.  1.
        -24    1    1    2    0    0  0.38639566136E+01  0.60873944879E+01 -0.13713650664E+03  0.15914026499E+03  0.80419002446E+02 0.  1.
<mgrwt>
<rscale>  0 0.80741589E+02</rscale>
<asrwt>0</asrwt>
<pdfrwt beam="1">  1        3 0.36037391E-02 0.80741599E+02</pdfrwt>
<pdfrwt beam="2">  1       -3 0.42974869E-01 0.80741599E+02</pdfrwt>
<totfact> 0.42172323E+03</totfact>
</mgrwt>
</event>
<event>
 4    1  0.5074571E-001  0.1337038E+03  0.7546771E-02  0.1222061E+00
         -2   -1    0    0    0  501 -0.00000000000E+00  0.00000000000E+00  0.61909261988E+02  0.61909261988E+02  0.00000000000E+00 0.  1.
          2   -1    0    0  501    0  0.00000000000E+00 -0.00000000000E+00 -0.30402652191E+03  0.30402652191E+03  0.00000000000E+00 0. -1.
         24    1    1    2    0    0  0.24093063321E+02 -0.10406259146E+03 -0.16206355685E+03  0.21009833663E+03  0.80419002446E+02 0. -1.
        -24    1    1    2    0    0 -0.24093063321E+02  0.10406259146E+03 -0.80053703074E+02  0.15583744727E+03  0.80419002446E+02 0.  1.
<mgrwt>
<rscale>  0 0.13370383E+03</rscale>
<asrwt>0</asrwt>
<pdfrwt beam="1">  1        2 0.46773311E-01 0.13370383E+03</pdfrwt>
<pdfrwt beam="2">  1       -2 0.95245019E-02 0.13370383E+03</pdfrwt>
<totfact> 0.73501105E+03</totfact>
</mgrwt>
</event>
<event>
 4    1  0.5074571E-001  0.8630270E+02  0.7546771E-02  0.1312061E+00
         -2   -1    0    0    0  501 -0.00000000000E+00  0.00000000000E+00  0.13193728733E+02  0.13193728733E+02  0.00000000000E+00 0.  1.
          2   -1    0    0  501    0  0.00000000000E+00 -0.00000000000E+00 -0.68459654696E+03  0.68459654696E+03  0.00000000000E+00 0. -1.
         24    1    1    2    0    0 -0.30116950342E+02 -0.85967913529E+01 -0.18958369834E+03  0.20830297681E+03  0.80419002446E+02 0.  1.
        -24    1    1    2    0    0  0.30116950342E+02  0.85967913529E+01 -0.48181911989E+03  0.48948729888E+03  0.80419002446E+02 0. -1.
<mgrwt>
<rscale>  0 0.86302684E+02</rscale>
<asrwt>0</asrwt>
<pdfrwt beam="1">  1        2 0.10532254E+00 0.86302695E+02</pdfrwt>
<pdfrwt beam="2">  1       -2 0.20298045E-02 0.86302695E+02</pdfrwt>
<totfact> 0.29279018E+04</totfact>
</mgrwt>
</event>
<event>
 4    1  0.5074571E-001  0.8805883E+02  0.7546771E-02  0.1307622E+00
         -1   -1    0    0    0  501 -0.00000000000E+00  0.00000000000E+00  0.30208343106E+03  0.30208343106E+03  0.00000000000E+00 0.  1.
          1   -1    0    0  501    0  0.00000000000E+00 -0.00000000000E+00 -0.39537573739E+02  0.39537573739E+02  0.00000000000E+00 0. -1.
         24    1    1    2    0    0  0.16809772236E+02 -0.31694989649E+02  0.23243466598E+03  0.24855629285E+03  0.80419002446E+02 0. -1.
        -24    1    1    2    0    0 -0.16809772236E+02  0.31694989649E+02  0.30111191338E+02  0.93064711946E+02  0.80419002446E+02 0. -1.
<mgrwt>
<rscale>  0 0.88058826E+02</rscale>
<asrwt>0</asrwt>
<pdfrwt beam="1">  1        1 0.60827038E-02 0.88058826E+02</pdfrwt>
<pdfrwt beam="2">  1       -1 0.46474373E-01 0.88058826E+02</pdfrwt>
<totfact> 0.54885246E+03</totfact>
</mgrwt>
</event>
<event>
 4    1  0.5074571E-001  0.8557506E+02  0.7546771E-02  0.1313936E+00
         -2   -1    0    0    0  501 -0.00000000000E+00  0.00000000000E+00  0.11838695172E+03  0.11838695172E+03  0.00000000000E+00 0.  1.
          2   -1    0    0  501    0  0.00000000000E+00 -0.00000000000E+00 -0.62322244218E+02  0.62322244218E+02  0.00000000000E+00 0. -1.
         24    1    1    2    0    0 -0.27825101848E+02 -0.90352535971E+01  0.35837214728E+02  0.92776042243E+02  0.80419002446E+02 0. -1.
        -24    1    1    2    0    0  0.27825101848E+02  0.90352535971E+01  0.20227492773E+02  0.87933153695E+02  0.80419002446E+02 0.  0.
<mgrwt>
<rscale>  0 0.85575054E+02</rscale>
<asrwt>0</asrwt>
<pdfrwt beam="1">  1        2 0.95880376E-02 0.85575065E+02</pdfrwt>
<pdfrwt beam="2">  1       -2 0.18213377E-01 0.85575065E+02</pdfrwt>
<totfact> 0.14786211E+04</totfact>
</mgrwt>
</event>
<event>
 4    1  0.5074571E-001  0.8925521E+02  0.7546771E-02  0.1304665E+00
          1   -1    0    0  501    0  0.00000000000E+00  0.00000000000E+00  0.23567062922E+02  0.23567062922E+02  0.00000000000E+00 0. -1.
         -1   -1    0    0    0  501 -0.00000000000E+00 -0.00000000000E+00 -0.35859791947E+03  0.35859791947E+03  0.00000000000E+00 0.  1.
         24    1    1    2    0    0  0.16511651187E+02 -0.35023380625E+02 -0.12175802754E+03  0.15096855646E+03  0.80419002446E+02 0. -1.
        -24    1    1    2    0    0 -0.16511651187E+02  0.35023380625E+02 -0.21327282901E+03  0.23119642593E+03  0.80419002446E+02 0.  1.
<mgrwt>
<rscale>  0 0.89255195E+02</rscale>
<asrwt>0</asrwt>
<pdfrwt beam="1">  1        1 0.36257025E-02 0.89255206E+02</pdfrwt>
<pdfrwt beam="2">  1       -1 0.55168903E-01 0.89255206E+02</pdfrwt>
<totfact> 0.81083658E+03</totfact>
</mgrwt>
</event>
<event>
 4    1  0.5074571E-001  0.9704169E+02  0.7546771E-02  0.1286643E+00
          2   -1    0    0  501    0  0.00000000000E+00  0.00000000000E+00  0.13988190462E+03  0.13988190462E+03  0.00000000000E+00 0. -1.
         -2   -1    0    0    0  501 -0.00000000000E+00 -0.00000000000E+00 -0.70686957519E+02  0.70686957519E+02  0.00000000000E+00 0.  1.
         24    1    1    2    0    0  0.45522462410E+02 -0.29623975345E+02  0.57569661124E+02  0.11283331217E+03  0.80419002446E+02 0. -1.
        -24    1    1    2    0    0 -0.45522462410E+02  0.29623975345E+02  0.11625285976E+02  0.97735549968E+02  0.80419002446E+02 0.  1.
<mgrwt>
<rscale>  0 0.97041694E+02</rscale>
<asrwt>0</asrwt>
<pdfrwt beam="1">  1        2 0.21520293E-01 0.97041694E+02</pdfrwt>
<pdfrwt beam="2">  1       -2 0.10874917E-01 0.97041694E+02</pdfrwt>
<totfact> 0.13412135E+04</totfact>
</mgrwt>
</event>
<event>
 4    1  0.5074571E-001  0.9974936E+02  0.7546771E-02  0.1280824E+00
         -2   -1    0    0    0  501 -0.00000000000E+00  0.00000000000E+00  0.15098959122E+03  0.15098959122E+03  0.00000000000E+00 0.  1.
          2   -1    0    0  501    0  0.00000000000E+00 -0.00000000000E+00 -0.66599783980E+02  0.66599783980E+02  0.00000000000E+00 0. -1.
         24    1    1    2    0    0  0.55146009854E+02 -0.21015152793E+02  0.31028173365E+02  0.10446378581E+03  0.80419002446E+02 0. -1.
        -24    1    1    2    0    0 -0.55146009854E+02  0.21015152793E+02  0.53361633874E+02  0.11312558938E+03  0.80419002446E+02 0.  1.
<mgrwt>
<rscale>  0 0.99749361E+02</rscale>
<asrwt>0</asrwt>
<pdfrwt beam="1">  1        2 0.10246121E-01 0.99749361E+02</pdfrwt>
<pdfrwt beam="2">  1       -2 0.23229168E-01 0.99749361E+02</pdfrwt>
<totfact> 0.91995353E+03</totfact>
</mgrwt>
</event>
<event>
 4    1  0.5074571E-001  0.1000252E+03  0.7546771E-02  0.1280243E+00
         -2   -1    0    0    0  501 -0.00000000000E+00  0.00000000000E+00  0.24701625353E+02  0.24701625353E+02  0.00000000000E+00 0.  1.
          2   -1    0    0  501    0  0.00000000000E+00 -0.00000000000E+00 -0.87268000963E+03  0.87268000963E+03  0.00000000000E+00 0. -1.
         24    1    1    2    0    0  0.57724700235E+02  0.14341631346E+02 -0.75244542619E+03  0.75906466046E+03  0.80419002446E+02 0. -1.
        -24    1    1    2    0    0 -0.57724700235E+02 -0.14341631346E+02 -0.95532958088E+02  0.13831697453E+03  0.80419002446E+02 0.  1.
<mgrwt>
<rscale>  0 0.10002519E+03</rscale>
<asrwt>0</asrwt>
<pdfrwt beam="1">  1        2 0.13425847E+00 0.10002519E+03</pdfrwt>
<pdfrwt beam="2">  1       -2 0.38002499E-02 0.10002519E+03</pdfrwt>
<totfact> 0.88941491E+03</totfact>
</mgrwt>
</event>
<event>
 4    1  0.5074571E-001  0.1117830E+03  0.7546771E-02  0.1257303E+00
         -2   -1    0    0    0  501 -0.00000000000E+00  0.00000000000E+00  0.10687163017E+02  0.10687163017E+02  0.00000000000E+00 0.  1.
          2   -1    0    0  501    0  0.00000000000E+00 -0.00000000000E+00 -0.16991268426E+04  0.16991268426E+04  0.00000000000E+00 0. -1.
         24    1    1    2    0    0 -0.77138675535E+02 -0.88228369740E+01 -0.13216543756E+04  0.13263731459E+04  0.80419002446E+02 0. -1.
        -24    1    1    2    0    0  0.77138675535E+02  0.88228369740E+01 -0.36678530401E+03  0.38344085972E+03  0.80419002446E+02 0.  1.
<mgrwt>
<rscale>  0 0.11178298E+03</rscale>
<asrwt>0</asrwt>
<pdfrwt beam="1">  1        2 0.26140383E+00 0.11178298E+03</pdfrwt>
<pdfrwt beam="2">  1       -2 0.16441808E-02 0.11178298E+03</pdfrwt>
<totfact> 0.10689308E+04</totfact>
</mgrwt>
</event>
<event>
 4    1  0.5074571E-001  0.8138551E+02  0.7546771E-02  0.1325165E+00
         -1   -1    0    0    0  501 -0.00000000000E+00  0.00000000000E+00  0.37263954204E+02  0.37263954204E+02  0.00000000000E+00 0.  1.
          1   -1    0    0  501    0  0.00000000000E+00 -0.00000000000E+00 -0.35462524535E+03  0.35462524535E+03  0.00000000000E+00 0. -1.
         24    1    1    2    0    0 -0.96950219701E+01 -0.78988635246E+01 -0.20297184080E+02  0.83878347217E+02  0.80419002446E+02 0.  0.
        -24    1    1    2    0    0  0.96950219701E+01  0.78988635246E+01 -0.29706410706E+03  0.30801085233E+03  0.80419002446E+02 0. -1.
<mgrwt>
<rscale>  0 0.81385511E+02</rscale>
<asrwt>0</asrwt>
<pdfrwt beam="1">  1        1 0.54557732E-01 0.81385511E+02</pdfrwt>
<pdfrwt beam="2">  1       -1 0.57329159E-02 0.81385511E+02</pdfrwt>
<totfact> 0.92243322E+03</totfact>
</mgrwt>
</event>
<event>
 4    1  0.5074571E-001  0.9613824E+02  0.7546771E-02  0.1288633E+00
          3   -1    0    0  501    0  0.00000000000E+00  0.00000000000E+00  0.54720818419E+03  0.54720818419E+03  0.00000000000E+00 0. -1.
         -3   -1    0    0    0  501 -0.00000000000E+00 -0.00000000000E+00 -0.16969185109E+02  0.16969185109E+02  0.00000000000E+00 0.  1.
         24    1    1    2    0    0  0.19854980715E+02 -0.48796776989E+02  0.24589767315E+03  0.26402315679E+03  0.80419002446E+02 0.  0.
        -24    1    1    2    0    0 -0.19854980715E+02  0.48796776989E+02  0.28434132592E+03  0.30015421251E+03  0.80419002446E+02 0.  1.
<mgrwt>
<rscale>  0 0.96138242E+02</rscale>
<asrwt>0</asrwt>
<pdfrwt beam="1">  1        3 0.84185861E-01 0.96138242E+02</pdfrwt>
<pdfrwt beam="2">  1       -3 0.26106443E-02 0.96138242E+02</pdfrwt>
<totfact> 0.18184385E+03</totfact>
</mgrwt>
</event>
<event>
 4    1  0.5074571E-001  0.8670910E+02  0.7546771E-02  0.1311023E+00
         -1   -1    0    0    0  501 -0.00000000000E+00  0.00000000000E+00  0.18505575217E+03  0.18505575217E+03  0.00000000000E+00 0.  1.
          1   -1    0    0  501    0  0.00000000000E+00 -0.00000000000E+00 -0.91767934724E+02  0.91767934724E+02  0.00000000000E+00 0. -1.
         24    1    1    2    0    0 -0.28973422756E+02  0.14553116353E+02  0.14996936327E+03  0.17323186282E+03  0.80419002446E+02 0.  1.
        -24    1    1    2    0    0  0.28973422756E+02 -0.14553116353E+02 -0.56681545831E+02  0.10359182407E+03  0.80419002446E+02 0. -1.
<mgrwt>
<rscale>  0 0.86709102E+02</rscale>
<asrwt>0</asrwt>
<pdfrwt beam="1">  1        1 0.14118144E-01 0.86709102E+02</pdfrwt>
<pdfrwt beam="2">  1       -1 0.28470116E-01 0.86709102E+02</pdfrwt>
<totfact> 0.41942759E+03</totfact>
</mgrwt>
</event>
<event>
 4    1  0.5074571E-001  0.9939786E+02  0.7546771E-02  0.1281567E+00
         -1   -1    0    0    0  501 -0.00000000000E+00  0.00000000000E+00  0.18425057355E+02  0.18425057355E+02  0.00000000000E+00 0.  1.
          1   -1    0    0  501    0  0.00000000000E+00 -0.00000000000E+00 -0.65548161027E+03  0.65548161027E+03  0.00000000000E+00 0. -1.
         24    1    1    2    0    0  0.38303853101E+02 -0.44108203457E+02 -0.17480243889E+03  0.20108661659E+03  0.80419002446E+02 0. -1.
        -24    1    1    2    0    0 -0.38303853101E+02  0.44108203457E+02 -0.46225411403E+03  0.47282005104E+03  0.80419002446E+02 0.  0.
<mgrwt>
<rscale>  0 0.99397861E+02</rscale>
<asrwt>0</asrwt>
<pdfrwt beam="1">  1        1 0.10084333E+00 0.99397861E+02</pdfrwt>
<pdfrwt beam="2">  1       -1 0.28346241E-02 0.99397861E+02</pdfrwt>
<totfact> 0.11854761E+04</totfact>
</mgrwt>
</event>
<event>
 4    1  0.5074571E-001  0.8839240E+02  0.7546771E-02  0.1306792E+00
          2   -1    0    0  501    0  0.00000000000E+00  0.00000000000E+00  0.37423133114E+03  0.37423133114E+03  0.00000000000E+00 0. -1.
         -2   -1    0    0    0  501 -0.00000000000E+00 -0.00000000000E+00 -0.21780508577E+02  0.21780508577E+02  0.00000000000E+00 0.  1.
         24    1    1    2    0    0 -0.34864248913E+02  0.11422800172E+02  0.13592002164E+03  0.16213409405E+03  0.80419002446E+02 0. -1.
        -24    1    1    2    0    0  0.34864248913E+02 -0.11422800172E+02  0.21653080093E+03  0.23387774567E+03  0.80419002446E+02 0.  1.
<mgrwt>
<rscale>  0 0.88392387E+02</rscale>
<asrwt>0</asrwt>
<pdfrwt beam="1">  1        2 0.57574046E-01 0.88392398E+02</pdfrwt>
<pdfrwt beam="2">  1       -2 0.33508478E-02 0.88392398E+02</pdfrwt>
<totfact> 0.27427000E+04</totfact>
</mgrwt>
</event>
<event>
 4    1  0.5074571E-001  0.8550676E+02  0.7546771E-02  0.1314113E+00
         -2   -1    0    0    0  501 -0.00000000000E+00  0.00000000000E+00  0.61786377742E+01  0.61786377742E+01  0.00000000000E+00 0.  1.
          2   -1    0    0  501    0  0.00000000000E+00 -0.00000000000E+00 -0.11834453504E+04  0.11834453504E+04  0.00000000000E+00 0. -1.
         24    1    1    2    0    0  0.28901345349E+02  0.29836933754E+01 -0.59434406335E+03  0.60046338089E+03  0.80419002446E+02 0.  0.
        -24    1    1    2    0    0 -0.28901345349E+02 -0.29836933754E+01 -0.58292264927E+03  0.58916060729E+03  0.80419002446E+02 0. -1.
<mgrwt>
<rscale>  0 0.85506761E+02</rscale>
<asrwt>0</asrwt>
<pdfrwt beam="1">  1        2 0.18206838E+00 0.85506761E+02</pdfrwt>
<pdfrwt beam="2">  1       -2 0.95056039E-03 0.85506761E+02</pdfrwt>
<totfact> 0.42413713E+04</totfact>
</mgrwt>
</event>
<event>
 4    1  0.5074571E-001  0.1041144E+03  0.7546771E-02  0.1271874E+00
          1   -1    0    0  501    0  0.00000000000E+00  0.00000000000E+00  0.38859876661E+04  0.38859876661E+04  0.00000000000E+00 0. -1.
         -1   -1    0    0    0  501 -0.00000000000E+00 -0.00000000000E+00 -0.28953065266E+01  0.28953065266E+01  0.00000000000E+00 0.  1.
         24    1    1    2    0    0  0.91988918168E+01 -0.65482663733E+02  0.15697697387E+04  0.15732186267E+04  0.80419002446E+02 0. -1.
        -24    1    1    2    0    0 -0.91988918168E+01  0.65482663733E+02  0.23133226208E+04  0.23156643459E+04  0.80419002446E+02 0.  1.
<mgrwt>
<rscale>  0 0.10411443E+03</rscale>
<asrwt>0</asrwt>
<pdfrwt beam="1">  1        1 0.59784008E+00 0.10411443E+03</pdfrwt>
<pdfrwt beam="2">  1       -1 0.44543488E-03 0.10411443E+03</pdfrwt>
<totfact> 0.97198893E+02</totfact>
</mgrwt>
</event>
<event>
 4    1  0.5074571E-001  0.9750691E+02  0.7546771E-02  0.1285628E+00
         -1   -1    0    0    0  501 -0.00000000000E+00  0.00000000000E+00  0.52847676606E+01  0.52847676606E+01  0.00000000000E+00 0.  1.
          1   -1    0    0  501    0  0.00000000000E+00 -0.00000000000E+00 -0.38265021806E+04  0.38265021806E+04  0.00000000000E+00 0. -1.
         24    1    1    2    0    0  0.18120447171E+02  0.52077154815E+02 -0.51602377303E+03  0.52515533982E+03  0.80419002446E+02 0.  1.
        -24    1    1    2    0    0 -0.18120447171E+02 -0.52077154815E+02 -0.33051936399E+04  0.33066316084E+04  0.80419002446E+02 0. -1.
<mgrwt>
<rscale>  0 0.97506905E+02</rscale>
<asrwt>0</asrwt>
<pdfrwt beam="1">  1        1 0.58869164E+00 0.97506905E+02</pdfrwt>
<pdfrwt beam="2">  1       -1 0.81304256E-03 0.97506905E+02</pdfrwt>
<totfact> 0.46613673E+02</totfact>
</mgrwt>
</event>
<event>
 4    1  0.5074571E-001  0.8806844E+02  0.7546771E-02  0.1307598E+00
          2   -1    0    0  501    0  0.00000000000E+00  0.00000000000E+00  0.37127391234E+02  0.37127391234E+02  0.00000000000E+00 0. -1.
         -2   -1    0    0    0  501 -0.00000000000E+00 -0.00000000000E+00 -0.63058945759E+03  0.63058945759E+03  0.00000000000E+00 0.  1.
         24    1    1    2    0    0 -0.14268725431E+02 -0.32942949545E+02 -0.23717962829E+02  0.91206316477E+02  0.80419002446E+02 0. -1.
        -24    1    1    2    0    0  0.14268725431E+02  0.32942949545E+02 -0.56974410352E+03  0.57651053234E+03  0.80419002446E+02 0.  1.
<mgrwt>
<rscale>  0 0.88068442E+02</rscale>
<asrwt>0</asrwt>
<pdfrwt beam="1">  1        2 0.57119070E-02 0.88068442E+02</pdfrwt>
<pdfrwt beam="2">  1       -2 0.97013752E-01 0.88068442E+02</pdfrwt>
<totfact> 0.11477443E+03</totfact>
</mgrwt>
</event>
<event>
 4    1  0.5074571E-001  0.9513564E+02  0.7546771E-02  0.1290871E+00
         -2   -1    0    0    0  501 -0.00000000000E+00  0.00000000000E+00  0.15751107606E+02  0.15751107606E+02  0.00000000000E+00 0.  1.
          2   -1    0    0  501    0  0.00000000000E+00 -0.00000000000E+00 -0.59139247160E+03  0.59139247160E+03  0.00000000000E+00 0. -1.
         24    1    1    2    0    0  0.50306515265E+02  0.72683432293E+01 -0.33895511388E+03  0.35205306343E+03  0.80419002446E+02 0.  0.
        -24    1    1    2    0    0 -0.50306515265E+02 -0.72683432293E+01 -0.23668625011E+03  0.25509051577E+03  0.80419002446E+02 0.  1.
<mgrwt>
<rscale>  0 0.95135641E+02</rscale>
<asrwt>0</asrwt>
<pdfrwt beam="1">  1        2 0.90983432E-01 0.95135641E+02</pdfrwt>
<pdfrwt beam="2">  1       -2 0.24232480E-02 0.95135641E+02</pdfrwt>
<totfact> 0.27062307E+04</totfact>
</mgrwt>
</event>
<event>
 4    1  0.5074571E-001  0.8746536E+02  0.7546771E-02  0.1309108E+00
         -2   -1    0    0    0  501 -0.00000000000E+00  0.00000000000E+00  0.38651171223E+01  0.38651171223E+01  0.00000000000E+00 0.  1.
          2   -1    0    0  501    0  0.00000000000E+00 -0.00000000000E+00 -0.25376806451E+04  0.25376806451E+04  0.00000000000E+00 0. -1.
         24    1    1    2    0    0 -0.32166813038E+02  0.12176618394E+02 -0.18630066386E+04  0.18650586922E+04  0.80419002446E+02 0. -1.
        -24    1    1    2    0    0  0.32166813038E+02 -0.12176618394E+02 -0.67080888938E+03  0.67648707003E+03  0.80419002446E+02 0.  1.
<mgrwt>
<rscale>  0 0.87465364E+02</rscale>
<asrwt>0</asrwt>
<pdfrwt beam="1">  1        2 0.39041277E+00 0.87465364E+02</pdfrwt>
<pdfrwt beam="2">  1       -2 0.59463284E-03 0.87465364E+02</pdfrwt>
<totfact> 0.16699661E+04</totfact>
</mgrwt>
</event>
<event>
 4    1  0.5074571E-001  0.8144052E+02  0.7546771E-02  0.1325012E+00
         -1   -1    0    0    0  501 -0.00000000000E+00  0.00000000000E+00  0.50771517665E+02  0.50771517665E+02  0.00000000000E+00 0.  1.
          1   -1    0    0  501    0  0.00000000000E+00 -0.00000000000E+00 -0.76535227384E+03  0.76535227384E+03  0.00000000000E+00 0. -1.
         24    1    1    2    0    0  0.12717979622E+02 -0.18963336934E+01  0.14317888284E+02  0.82689545690E+02  0.80419002446E+02 0.  0.
        -24    1    1    2    0    0 -0.12717979622E+02  0.18963336934E+01 -0.72889864446E+03  0.73343424582E+03  0.80419002446E+02 0. -1.
<mgrwt>
<rscale>  0 0.81440525E+02</rscale>
<asrwt>0</asrwt>
<pdfrwt beam="1">  1        1 0.11774651E+00 0.81440525E+02</pdfrwt>
<pdfrwt beam="2">  1       -1 0.78110025E-02 0.81440525E+02</pdfrwt>
<totfact> 0.21416171E+03</totfact>
</mgrwt>
</event>
<event>
 4    1  0.5074571E-001  0.8369791E+02  0.7546771E-02  0.1318873E+00
         -1   -1    0    0    0  501 -0.00000000000E+00  0.00000000000E+00  0.74950505242E+01  0.74950505242E+01  0.00000000000E+00 0.  1.
          1   -1    0    0  501    0  0.00000000000E+00 -0.00000000000E+00 -0.97550704614E+03  0.97550704614E+03  0.00000000000E+00 0. -1.
         24    1    1    2    0    0  0.22459796237E+02 -0.58033598320E+01 -0.58457867739E+03  0.59054006422E+03  0.80419002446E+02 0. -1.
        -24    1    1    2    0    0 -0.22459796237E+02  0.58033598320E+01 -0.38343331823E+03  0.39246203245E+03  0.80419002446E+02 0.  1.
<mgrwt>
<rscale>  0 0.83697904E+02</rscale>
<asrwt>0</asrwt>
<pdfrwt beam="1">  1        1 0.15007790E+00 0.83697914E+02</pdfrwt>
<pdfrwt beam="2">  1       -1 0.11530855E-02 0.83697914E+02</pdfrwt>
<totfact> 0.23261963E+04</totfact>
</mgrwt>
</event>
<event>
 4    1  0.5074571E-001  0.9085998E+02  0.7546771E-02  0.1300782E+00
         -2   -1    0    0    0  501 -0.00000000000E+00  0.00000000000E+00  0.14625484426E+02  0.14625484426E+02  0.00000000000E+00 0.  1.
          2   -1    0    0  501    0  0.00000000000E+00 -0.00000000000E+00 -0.63004651603E+03  0.63004651603E+03  0.00000000000E+00 0. -1.
         24    1    1    2    0    0  0.95633254472E+01 -0.41192993010E+02 -0.41170777400E+03  0.42161454789E+03  0.80419002446E+02 0. -1.
        -24    1    1    2    0    0 -0.95633254472E+01  0.41192993010E+02 -0.20371325761E+03  0.22305745257E+03  0.80419002446E+02 0.  1.
<mgrwt>
<rscale>  0 0.90859979E+02</rscale>
<asrwt>0</asrwt>
<pdfrwt beam="1">  1        2 0.96930207E-01 0.90859979E+02</pdfrwt>
<pdfrwt beam="2">  1       -2 0.22500751E-02 0.90859979E+02</pdfrwt>
<totfact> 0.27916376E+04</totfact>
</mgrwt>
</event>
<event>
 4    1  0.5074571E-001  0.8432614E+02  0.7546771E-02  0.1317204E+00
          2   -1    0    0  501    0  0.00000000000E+00  0.00000000000E+00  0.11182139808E+04  0.11182139808E+04  0.00000000000E+00 0. -1.
         -2   -1    0    0    0  501 -0.00000000000E+00 -0.00000000000E+00 -0.26104642198E+02  0.26104642198E+02  0.00000000000E+00 0.  1.
         24    1    1    2    0    0  0.25197508375E+02  0.29611010664E+01  0.10436679932E+04  0.10470691374E+04  0.80419002446E+02 0. -1.
        -24    1    1    2    0    0 -0.25197508375E+02 -0.29611010664E+01  0.48441345409E+02  0.97249485589E+02  0.80419002446E+02 0.  1.
<mgrwt>
<rscale>  0 0.84326144E+02</rscale>
<asrwt>0</asrwt>
<pdfrwt beam="1">  1        2 0.17203288E+00 0.84326144E+02</pdfrwt>
<pdfrwt beam="2">  1       -2 0.40160997E-02 0.84326144E+02</pdfrwt>
<totfact> 0.58189974E+03</totfact>
</mgrwt>
</event>
<event>
 4    1  0.5074571E-001  0.1280495E+03  0.7546771E-02  0.1230379E+00
          3   -1    0    0  501    0  0.00000000000E+00  0.00000000000E+00  0.10884143291E+04  0.10884143291E+04  0.00000000000E+00 0. -1.
         -3   -1    0    0    0  501 -0.00000000000E+00 -0.00000000000E+00 -0.16058694914E+02  0.16058694914E+02  0.00000000000E+00 0.  1.
         24    1    1    2    0    0 -0.86169144823E+02 -0.50043418739E+02  0.39878853190E+03  0.41884242193E+03  0.80419002446E+02 0.  1.
        -24    1    1    2    0    0  0.86169144823E+02  0.50043418739E+02  0.67356710227E+03  0.68563060206E+03  0.80419002446E+02 0. -1.
<mgrwt>
<rscale>  0 0.12804953E+03</rscale>
<asrwt>0</asrwt>
<pdfrwt beam="1">  1        3 0.16744830E+00 0.12804953E+03</pdfrwt>
<pdfrwt beam="2">  1       -3 0.24705693E-02 0.12804953E+03</pdfrwt>
<totfact> 0.41350394E+02</totfact>
</mgrwt>
</event>
<event>
 4    1  0.5074571E-001  0.8041978E+02  0.7546771E-02  0.1327864E+00
         -3   -1    0    0    0  501 -0.00000000000E+00  0.00000000000E+00  0.45585181238E+03  0.45585181238E+03  0.00000000000E+00 0.  1.
          3   -1    0    0  501    0  0.00000000000E+00 -0.00000000000E+00 -0.14527733356E+02  0.14527733356E+02  0.00000000000E+00 0. -1.
         24    1    1    2    0    0  0.32934016420E+00 -0.12695210596E+00  0.25666082176E+03  0.26896490098E+03  0.80419002446E+02 0.  0.
        -24    1    1    2    0    0 -0.32934016420E+00  0.12695210596E+00  0.18466325726E+03  0.20141464475E+03  0.80419002446E+02 0. -1.
<mgrwt>
<rscale>  0 0.80419777E+02</rscale>
<asrwt>0</asrwt>
<pdfrwt beam="1">  1        3 0.22350363E-02 0.80419777E+02</pdfrwt>
<pdfrwt beam="2">  1       -3 0.70131037E-01 0.80419777E+02</pdfrwt>
<totfact> 0.32685755E+03</totfact>
</mgrwt>
</event>
<event>
 4    1  0.5074571E-001  0.1112994E+03  0.7546771E-02  0.1258182E+00
          3   -1    0    0  501    0  0.00000000000E+00  0.00000000000E+00  0.33058936897E+03  0.33058936897E+03  0.00000000000E+00 0. -1.
         -3   -1    0    0    0  501 -0.00000000000E+00 -0.00000000000E+00 -0.53517726298E+02  0.53517726298E+02  0.00000000000E+00 0.  1.
         24    1    1    2    0    0 -0.61124482961E+02 -0.46734826636E+02  0.33372387470E+02  0.11619500264E+03  0.80419002446E+02 0.  1.
        -24    1    1    2    0    0  0.61124482961E+02  0.46734826636E+02  0.24369925521E+03  0.26791209263E+03  0.80419002446E+02 0. -1.
<mgrwt>
<rscale>  0 0.11129943E+03</rscale>
<asrwt>0</asrwt>
<pdfrwt beam="1">  1        3 0.50859902E-01 0.11129943E+03</pdfrwt>
<pdfrwt beam="2">  1       -3 0.82334965E-02 0.11129943E+03</pdfrwt>
<totfact> 0.87852052E+02</totfact>
</mgrwt>
</event>
<event>
 4    1  0.5074571E-001  0.8564210E+02  0.7546771E-02  0.1313762E+00
         -2   -1    0    0    0  501 -0.00000000000E+00  0.00000000000E+00  0.28009211162E+01  0.28009211162E+01  0.00000000000E+00 0.  1.
          2   -1    0    0  501    0  0.00000000000E+00 -0.00000000000E+00 -0.26259943048E+04  0.26259943048E+04  0.00000000000E+00 0. -1.
         24    1    1    2    0    0 -0.19167996568E+02 -0.22359368715E+02 -0.13812137566E+04  0.13838663269E+04  0.80419002446E+02 0. -1.
        -24    1    1    2    0    0  0.19167996568E+02  0.22359368715E+02 -0.12419796271E+04  0.12449288990E+04  0.80419002446E+02 0.  1.
<mgrwt>
<rscale>  0 0.85642101E+02</rscale>
<asrwt>0</asrwt>
<pdfrwt beam="1">  1        2 0.40399987E+00 0.85642101E+02</pdfrwt>
<pdfrwt beam="2">  1       -2 0.43091015E-03 0.85642101E+02</pdfrwt>
<totfact> 0.23510079E+04</totfact>
</mgrwt>
</event>
<event>
 4    1  0.5074571E-001  0.8916783E+02  0.7546771E-02  0.1304880E+00
         -2   -1    0    0    0  501 -0.00000000000E+00  0.00000000000E+00  0.90624385142E+01  0.90624385142E+01  0.00000000000E+00 0.  1.
          2   -1    0    0  501    0  0.00000000000E+00 -0.00000000000E+00 -0.13130440400E+04  0.13130440400E+04  0.00000000000E+00 0. -1.
         24    1    1    2    0    0 -0.12408366733E+02  0.36465306657E+02 -0.10327839779E+04  0.10366260884E+04  0.80419002446E+02 0. -1.
        -24    1    1    2    0    0  0.12408366733E+02 -0.36465306657E+02 -0.27119762351E+03  0.28548039006E+03  0.80419002446E+02 0.  1.
<mgrwt>
<rscale>  0 0.89167831E+02</rscale>
<asrwt>0</asrwt>
<pdfrwt beam="1">  1        2 0.20200675E+00 0.89167831E+02</pdfrwt>
<pdfrwt beam="2">  1       -2 0.13942215E-02 0.89167831E+02</pdfrwt>
<totfact> 0.21087857E+04</totfact>
</mgrwt>
</event>
<event>
 4    1  0.5074571E-001  0.8747247E+02  0.7546771E-02  0.1309091E+00
          1   -1    0    0  501    0  0.00000000000E+00  0.00000000000E+00  0.95451089469E+03  0.95451089469E+03  0.00000000000E+00 0. -1.
         -1   -1    0    0    0  501 -0.00000000000E+00 -0.00000000000E+00 -0.87191408813E+01  0.87191408813E+01  0.00000000000E+00 0.  1.
         24    1    1    2    0    0 -0.25654633348E+02  0.22935931590E+02  0.33613544258E+03  0.34733048942E+03  0.80419002446E+02 0.  1.
        -24    1    1    2    0    0  0.25654633348E+02 -0.22935931590E+02  0.60965631123E+03  0.61589954615E+03  0.80419002446E+02 0. -1.
<mgrwt>
<rscale>  0 0.87472471E+02</rscale>
<asrwt>0</asrwt>
<pdfrwt beam="1">  1        1 0.14684775E+00 0.87472471E+02</pdfrwt>
<pdfrwt beam="2">  1       -1 0.13414070E-02 0.87472471E+02</pdfrwt>
<totfact> 0.19540807E+04</totfact>
</mgrwt>
</event>
<event>
 4    1  0.5074571E-001  0.8547541E+02  0.7546771E-02  0.1314194E+00
          2   -1    0    0  501    0  0.00000000000E+00  0.00000000000E+00  0.10723151590E+04  0.10723151590E+04  0.00000000000E+00 0. -1.
         -2   -1    0    0    0  501 -0.00000000000E+00 -0.00000000000E+00 -0.63143874218E+02  0.63143874218E+02  0.00000000000E+00 0.  1.
         24    1    1    2    0    0  0.28622191938E+02  0.44272326421E+01  0.10408115615E+04  0.10443154470E+04  0.80419002446E+02 0. -1.
        -24    1    1    2    0    0 -0.28622191938E+02 -0.44272326421E+01 -0.31640276677E+02  0.91143586295E+02  0.80419002446E+02 0.  1.
<mgrwt>
<rscale>  0 0.85475413E+02</rscale>
<asrwt>0</asrwt>
<pdfrwt beam="1">  1        2 0.16497155E+00 0.85475413E+02</pdfrwt>
<pdfrwt beam="2">  1       -2 0.97144430E-02 0.85475413E+02</pdfrwt>
<totfact> 0.16370505E+03</totfact>
</mgrwt>
</event>
<event>
 4    1  0.5074571E-001  0.8775839E+02  0.7546771E-02  0.1308373E+00
         -1   -1    0    0    0  501 -0.00000000000E+00  0.00000000000E+00  0.11838189736E+02  0.11838189736E+02  0.00000000000E+00 0.  1.
          1   -1    0    0  501    0  0.00000000000E+00 -0.00000000000E+00 -0.68507488502E+03  0.68507488502E+03  0.00000000000E+00 0. -1.
         24    1    1    2    0    0 -0.13465121631E+02  0.32450121000E+02 -0.25841260498E+03  0.27290769542E+03  0.80419002446E+02 0.  1.
        -24    1    1    2    0    0  0.13465121631E+02 -0.32450121000E+02 -0.41482409031E+03  0.42400537934E+03  0.80419002446E+02 0. -1.
<mgrwt>
<rscale>  0 0.87758395E+02</rscale>
<asrwt>0</asrwt>
<pdfrwt beam="1">  1        1 0.10539617E+00 0.87758395E+02</pdfrwt>
<pdfrwt beam="2">  1       -1 0.18212595E-02 0.87758395E+02</pdfrwt>
<totfact> 0.20778101E+04</totfact>
</mgrwt>
</event>
<event>
 4    1  0.5074571E-001  0.1168476E+03  0.7546771E-02  0.1248390E+00
          2   -1    0    0  501    0  0.00000000000E+00  0.00000000000E+00  0.19357788552E+03  0.19357788552E+03  0.00000000000E+00 0. -1.
         -2   -1    0    0    0  501 -0.00000000000E+00 -0.00000000000E+00 -0.74374828888E+02  0.74374828888E+02  0.00000000000E+00 0.  1.
         24    1    1    2    0    0  0.57363809193E+01 -0.84576853323E+02  0.90056690894E+02  0.14752482406E+03  0.80419002446E+02 0. -1.
        -24    1    1    2    0    0 -0.57363809193E+01  0.84576853323E+02  0.29146365738E+02  0.12042789035E+03  0.80419002446E+02 0.  1.
<mgrwt>
<rscale>  0 0.11684762E+03</rscale>
<asrwt>0</asrwt>
<pdfrwt beam="1">  1        2 0.29781213E-01 0.11684762E+03</pdfrwt>
<pdfrwt beam="2">  1       -2 0.11442281E-01 0.11684762E+03</pdfrwt>
<totfact> 0.88205503E+03</totfact>
</mgrwt>
</event>
<event>
 4    1  0.5074571E-001  0.9221583E+02  0.7546771E-02  0.1297573E+00
          1   -1    0    0  501    0  0.00000000000E+00  0.00000000000E+00  0.15762776920E+04  0.15762776920E+04  0.00000000000E+00 0. -1.
         -1   -1    0    0    0  501 -0.00000000000E+00 -0.00000000000E+00 -0.25865738311E+02  0.25865738311E+02  0.00000000000E+00 0.  1.
         24    1    1    2    0    0 -0.29890045542E+02  0.33810173837E+02  0.62554060055E+02  0.11143055712E+03  0.80419002446E+02 0.  1.
        -24    1    1    2    0    0  0.29890045542E+02 -0.33810173837E+02  0.14878578936E+04  0.14907128731E+04  0.80419002446E+02 0. -1.
<mgrwt>
<rscale>  0 0.92215826E+02</rscale>
<asrwt>0</asrwt>
<pdfrwt beam="1">  1        1 0.24250418E+00 0.92215826E+02</pdfrwt>
<pdfrwt beam="2">  1       -1 0.39793456E-02 0.92215826E+02</pdfrwt>
<totfact> 0.15839001E+03</totfact>
</mgrwt>
</event>
<event>
 4    1  0.5074571E-001  0.8161071E+02  0.7546771E-02  0.1324542E+00
         -2   -1    0    0    0  501 -0.00000000000E+00  0.00000000000E+00  0.18860360835E+02  0.18860360835E+02  0.00000000000E+00 0.  1.
          2   -1    0    0  501    0  0.00000000000E+00 -0.00000000000E+00 -0.36196285861E+03  0.36196285861E+03  0.00000000000E+00 0. -1.
         24    1    1    2    0    0 -0.10114116064E+02  0.95285539914E+01 -0.14181936500E+03  0.16362468313E+03  0.80419002446E+02 0.  0.
        -24    1    1    2    0    0  0.10114116064E+02 -0.95285539914E+01 -0.20128313277E+03  0.21719853631E+03  0.80419002446E+02 0.  0.
<mgrwt>
<rscale>  0 0.81610700E+02</rscale>
<asrwt>0</asrwt>
<pdfrwt beam="1">  1        2 0.55686591E-01 0.81610710E+02</pdfrwt>
<pdfrwt beam="2">  1       -2 0.29015941E-02 0.81610710E+02</pdfrwt>
<totfact> 0.34680437E+04</totfact>
</mgrwt>
</event>
<event>
 4    1  0.5074571E-001  0.8479899E+02  0.7546771E-02  0.1315959E+00
          1   -1    0    0  501    0  0.00000000000E+00  0.00000000000E+00  0.84158267827E+01  0.84158267827E+01  0.00000000000E+00 0. -1.
         -1   -1    0    0    0  501 -0.00000000000E+00 -0.00000000000E+00 -0.13031590156E+04  0.13031590156E+04  0.00000000000E+00 0.  1.
         24    1    1    2    0    0 -0.14927070270E+02 -0.22379346627E+02 -0.10321837359E+04  0.10356612058E+04  0.80419002446E+02 0.  0.
        -24    1    1    2    0    0  0.14927070270E+02  0.22379346627E+02 -0.26255945288E+03  0.27591363655E+03  0.80419002446E+02 0. -1.
<mgrwt>
<rscale>  0 0.84798989E+02</rscale>
<asrwt>0</asrwt>
<pdfrwt beam="1">  1        1 0.12947430E-02 0.84798989E+02</pdfrwt>
<pdfrwt beam="2">  1       -1 0.20048594E+00 0.84798989E+02</pdfrwt>
<totfact> 0.17583055E+03</totfact>
</mgrwt>
</event>
<event>
 4    1  0.5074571E-001  0.8105669E+02  0.7546771E-02  0.1326079E+00
         -1   -1    0    0    0  501 -0.00000000000E+00  0.00000000000E+00  0.63314485437E+03  0.63314485437E+03  0.00000000000E+00 0.  1.
          1   -1    0    0  501    0  0.00000000000E+00 -0.00000000000E+00 -0.15361474360E+02  0.15361474360E+02  0.00000000000E+00 0. -1.
         24    1    1    2    0    0  0.86888029248E+01  0.52418034527E+01  0.49359490545E+03  0.50020607598E+03  0.80419002446E+02 0.  1.
        -24    1    1    2    0    0 -0.86888029248E+01 -0.52418034527E+01  0.12418847456E+03  0.14830025275E+03  0.80419002446E+02 0.  0.
<mgrwt>
<rscale>  0 0.81056695E+02</rscale>
<asrwt>0</asrwt>
<pdfrwt beam="1">  1        1 0.23633042E-02 0.81056695E+02</pdfrwt>
<pdfrwt beam="2">  1       -1 0.97406881E-01 0.81056695E+02</pdfrwt>
<totfact> 0.46773652E+03</totfact>
</mgrwt>
</event>
<event>
 4    1  0.5074571E-001  0.1005868E+03  0.7546771E-02  0.1279067E+00
         -1   -1    0    0    0  501 -0.00000000000E+00  0.00000000000E+00  0.18266268059E+02  0.18266268059E+02  0.00000000000E+00 0.  1.
          1   -1    0    0  501    0  0.00000000000E+00 -0.00000000000E+00 -0.73137169630E+03  0.73137169630E+03  0.00000000000E+00 0. -1.
         24    1    1    2    0    0 -0.10853491381E+02  0.59436398979E+02 -0.17191682459E+03  0.19918105916E+03  0.80419002446E+02 0.  1.
        -24    1    1    2    0    0  0.10853491381E+02 -0.59436398979E+02 -0.54118860366E+03  0.55045690520E+03  0.80419002446E+02 0. -1.
<mgrwt>
<rscale>  0 0.10058678E+03</rscale>
<asrwt>0</asrwt>
<pdfrwt beam="1">  1        1 0.11251872E+00 0.10058678E+03</pdfrwt>
<pdfrwt beam="2">  1       -1 0.28101951E-02 0.10058678E+03</pdfrwt>
<totfact> 0.10298106E+04</totfact>
</mgrwt>
</event>
<event>
 4    1  0.5074571E-001  0.8519430E+02  0.7546771E-02  0.1314925E+00
          2   -1    0    0  501    0  0.00000000000E+00  0.00000000000E+00  0.26155875705E+04  0.26155875705E+04  0.00000000000E+00 0. -1.
         -2   -1    0    0    0  501 -0.00000000000E+00 -0.00000000000E+00 -0.28974882180E+01  0.28974882180E+01  0.00000000000E+00 0.  1.
         24    1    1    2    0    0  0.99579179377E+01  0.26300047738E+02  0.15756120047E+04  0.15779135774E+04  0.80419002446E+02 0.  1.
        -24    1    1    2    0    0 -0.99579179377E+01 -0.26300047738E+02  0.10370780776E+04  0.10405714813E+04  0.80419002446E+02 0. -1.
<mgrwt>
<rscale>  0 0.85194299E+02</rscale>
<asrwt>0</asrwt>
<pdfrwt beam="1">  1        2 0.40239620E+00 0.85194299E+02</pdfrwt>
<pdfrwt beam="2">  1       -2 0.44576951E-03 0.85194299E+02</pdfrwt>
<totfact> 0.22705096E+04</totfact>
</mgrwt>
</event>
<event>
 4    1  0.5074571E-001  0.1293444E+03  0.7546771E-02  0.1228432E+00
          2   -1    0    0  501    0  0.00000000000E+00  0.00000000000E+00  0.27381919954E+02  0.27381919954E+02  0.00000000000E+00 0. -1.
         -2   -1    0    0    0  501 -0.00000000000E+00 -0.00000000000E+00 -0.64359494837E+03  0.64359494837E+03  0.00000000000E+00 0.  1.
         24    1    1    2    0    0  0.36745226761E+02  0.94406270832E+02 -0.23259047892E+03  0.26613587226E+03  0.80419002446E+02 0. -1.
        -24    1    1    2    0    0 -0.36745226761E+02 -0.94406270832E+02 -0.38362254950E+03  0.40484099607E+03  0.80419002446E+02 0.  1.
<mgrwt>
<rscale>  0 0.12934439E+03</rscale>
<asrwt>0</asrwt>
<pdfrwt beam="1">  1        2 0.42126030E-02 0.12934439E+03</pdfrwt>
<pdfrwt beam="2">  1       -2 0.99014608E-01 0.12934439E+03</pdfrwt>
<totfact> 0.16653387E+03</totfact>
</mgrwt>
</event>
<event>
 4    1  0.5074571E-001  0.8840900E+02  0.7546771E-02  0.1306751E+00
         -3   -1    0    0    0  501 -0.00000000000E+00  0.00000000000E+00  0.46798558191E+02  0.46798558191E+02  0.00000000000E+00 0.  1.
          3   -1    0    0  501    0  0.00000000000E+00 -0.00000000000E+00 -0.16702329041E+03  0.16702329041E+03  0.00000000000E+00 0. -1.
         24    1    1    2    0    0  0.16524999449E+02  0.32800312829E+02 -0.59453248016E+02  0.10654032468E+03  0.80419002446E+02 0.  1.
        -24    1    1    2    0    0 -0.16524999449E+02 -0.32800312829E+02 -0.60771484203E+02  0.10728152392E+03  0.80419002446E+02 0.  0.
<mgrwt>
<rscale>  0 0.88409005E+02</rscale>
<asrwt>0</asrwt>
<pdfrwt beam="1">  1        3 0.25695890E-01 0.88409005E+02</pdfrwt>
<pdfrwt beam="2">  1       -3 0.71997783E-02 0.88409005E+02</pdfrwt>
<totfact> 0.37810951E+03</totfact>
</mgrwt>
</event>
<event>
 4    1  0.5074571E-001  0.8416979E+02  0.7546771E-02  0.1317618E+00
          2   -1    0    0  501    0  0.00000000000E+00  0.00000000000E+00  0.40679955836E+04  0.40679955836E+04  0.00000000000E+00 0. -1.
         -2   -1    0    0    0  501 -0.00000000000E+00 -0.00000000000E+00 -0.34855900980E+01  0.34855900980E+01  0.00000000000E+00 0.  1.
         24    1    1    2    0    0  0.23822864210E+02  0.70574879480E+01  0.34722616334E+04  0.34732816476E+04  0.80419002446E+02 0. -1.
        -24    1    1    2    0    0 -0.23822864210E+02 -0.70574879480E+01  0.59224836008E+03  0.59819952605E+03  0.80419002446E+02 0.  1.
<mgrwt>
<rscale>  0 0.84169786E+02</rscale>
<asrwt>0</asrwt>
<pdfrwt beam="1">  1        2 0.62584168E+00 0.84169786E+02</pdfrwt>
<pdfrwt beam="2">  1       -2 0.53624789E-03 0.84169786E+02</pdfrwt>
<totfact> 0.21914603E+03</totfact>
</mgrwt>
</event>
<event>
 4    1  0.5074571E-001  0.1027242E+03  0.7546771E-02  0.1274669E+00
          1   -1    0    0  501    0  0.00000000000E+00  0.00000000000E+00  0.14154208351E+02  0.14154208351E+02  0.00000000000E+00 0. -1.
         -1   -1    0    0    0  501 -0.00000000000E+00 -0.00000000000E+00 -0.88857900859E+03  0.88857900859E+03  0.00000000000E+00 0.  1.
         24    1    1    2    0    0  0.62487239172E+02 -0.13431115148E+02 -0.25610474221E+03  0.27593822651E+03  0.80419002446E+02 0. -1.
        -24    1    1    2    0    0 -0.62487239172E+02  0.13431115148E+02 -0.61832005803E+03  0.62679499043E+03  0.80419002446E+02 0.  1.
<mgrwt>
<rscale>  0 0.10272424E+03</rscale>
<asrwt>0</asrwt>
<pdfrwt beam="1">  1        1 0.21775707E-02 0.10272425E+03</pdfrwt>
<pdfrwt beam="2">  1       -1 0.13670445E+00 0.10272425E+03</pdfrwt>
<totfact> 0.24465576E+03</totfact>
</mgrwt>
</event>
<event>
 4    1  0.5074571E-001  0.1199629E+03  0.7546771E-02  0.1243158E+00
          2   -1    0    0  501    0  0.00000000000E+00  0.00000000000E+00  0.33336685539E+03  0.33336685539E+03  0.00000000000E+00 0. -1.
         -2   -1    0    0    0  501 -0.00000000000E+00 -0.00000000000E+00 -0.44497844930E+02  0.44497844930E+02  0.00000000000E+00 0.  1.
         24    1    1    2    0    0  0.64115389484E+02 -0.61750244790E+02  0.17708462184E+03  0.21389262528E+03  0.80419002446E+02 0.  1.
        -24    1    1    2    0    0 -0.64115389484E+02  0.61750244790E+02  0.11178438861E+03  0.16397207504E+03  0.80419002446E+02 0. -1.
<mgrwt>
<rscale>  0 0.11996288E+03</rscale>
<asrwt>0</asrwt>
<pdfrwt beam="1">  1        2 0.51287207E-01 0.11996288E+03</pdfrwt>
<pdfrwt beam="2">  1       -2 0.68458225E-02 0.11996288E+03</pdfrwt>
<totfact> 0.11010636E+04</totfact>
</mgrwt>
</event>
<event>
 4    1  0.5074571E-001  0.8281768E+02  0.7546771E-02  0.1321240E+00
         -1   -1    0    0    0  501 -0.00000000000E+00  0.00000000000E+00  0.35478866485E+02  0.35478866485E+02  0.00000000000E+00 0.  1.
          1   -1    0    0  501    0  0.00000000000E+00 -0.00000000000E+00 -0.20531519009E+03  0.20531519009E+03  0.00000000000E+00 0. -1.
         24    1    1    2    0    0 -0.19065337392E+02  0.52976732664E+01 -0.55816894789E+02  0.99871387945E+02  0.80419002446E+02 0.  1.
        -24    1    1    2    0    0  0.19065337392E+02 -0.52976732664E+01 -0.11401942882E+03  0.14092266863E+03  0.80419002446E+02 0. -1.
<mgrwt>
<rscale>  0 0.82817682E+02</rscale>
<asrwt>0</asrwt>
<pdfrwt beam="1">  1        1 0.31586952E-01 0.82817682E+02</pdfrwt>
<pdfrwt beam="2">  1       -1 0.54582873E-02 0.82817682E+02</pdfrwt>
<totfact> 0.19321952E+04</totfact>
</mgrwt>
</event>
<event>
 4    1  0.5074571E-001  0.1213667E+03  0.7546771E-02  0.1240859E+00
          2   -1    0    0  501    0  0.00000000000E+00  0.00000000000E+00  0.30222351791E+03  0.30222351791E+03  0.00000000000E+00 0. -1.
         -2   -1    0    0    0  501 -0.00000000000E+00 -0.00000000000E+00 -0.75142328184E+02  0.75142328184E+02  0.00000000000E+00 0.  1.
         24    1    1    2    0    0 -0.33909077206E+02 -0.84337603998E+02  0.22538777200E+03  0.25598734477E+03  0.80419002446E+02 0. -1.
        -24    1    1    2    0    0  0.33909077206E+02  0.84337603998E+02  0.16934177334E+01  0.12137850132E+03  0.80419002446E+02 0.  1.
<mgrwt>
<rscale>  0 0.12136669E+03</rscale>
<asrwt>0</asrwt>
<pdfrwt beam="1">  1        2 0.46495925E-01 0.12136669E+03</pdfrwt>
<pdfrwt beam="2">  1       -2 0.11560358E-01 0.12136669E+03</pdfrwt>
<totfact> 0.54168679E+03</totfact>
</mgrwt>
</event>
<event>
 4    1  0.5074571E-001  0.8045300E+02  0.7546771E-02  0.1327771E+00
          3   -1    0    0  501    0  0.00000000000E+00  0.00000000000E+00  0.13397528325E+02  0.13397528325E+02  0.00000000000E+00 0. -1.
         -3   -1    0    0    0  501 -0.00000000000E+00 -0.00000000000E+00 -0.67005074555E+03  0.67005074555E+03  0.00000000000E+00 0.  1.
         24    1    1    2    0    0  0.21069918068E+01  0.10149352027E+01 -0.50881778296E+03  0.51513903145E+03  0.80419002446E+02 0.  1.
        -24    1    1    2    0    0 -0.21069918068E+01 -0.10149352027E+01 -0.14783543426E+03  0.16830924242E+03  0.80419002446E+02 0.  0.
<mgrwt>
<rscale>  0 0.80453002E+02</rscale>
<asrwt>0</asrwt>
<pdfrwt beam="1">  1        3 0.20611583E-02 0.80453002E+02</pdfrwt>
<pdfrwt beam="2">  1       -3 0.10308472E+00 0.80453002E+02</pdfrwt>
<totfact> 0.16006476E+03</totfact>
</mgrwt>
</event>
<event>
 4    1  0.5074571E-001  0.8752152E+02  0.7546771E-02  0.1308967E+00
         -1   -1    0    0    0  501 -0.00000000000E+00  0.00000000000E+00  0.13774254130E+03  0.13774254130E+03  0.00000000000E+00 0.  1.
          1   -1    0    0  501    0  0.00000000000E+00 -0.00000000000E+00 -0.55705588637E+02  0.55705588637E+02  0.00000000000E+00 0. -1.
         24    1    1    2    0    0 -0.29190545829E+02  0.18458300519E+02  0.37034659942E+02  0.95034619035E+02  0.80419002446E+02 0. -1.
        -24    1    1    2    0    0  0.29190545829E+02 -0.18458300519E+02  0.45002292727E+02  0.98413510906E+02  0.80419002446E+02 0.  0.
<mgrwt>
<rscale>  0 0.87521510E+02</rscale>
<asrwt>0</asrwt>
<pdfrwt beam="1">  1        1 0.85700906E-02 0.87521521E+02</pdfrwt>
<pdfrwt beam="2">  1       -1 0.21191160E-01 0.87521521E+02</pdfrwt>
<totfact> 0.12967485E+04</totfact>
</mgrwt>
</event>
<event>
 4    1  0.5074571E-001  0.8180768E+02  0.7546771E-02  0.1323998E+00
          1   -1    0    0  501    0  0.00000000000E+00  0.00000000000E+00  0.36886447280E+03  0.36886447280E+03  0.00000000000E+00 0. -1.
         -1   -1    0    0    0  501 -0.00000000000E+00 -0.00000000000E+00 -0.28413126312E+02  0.28413126312E+02  0.00000000000E+00 0.  1.
         24    1    1    2    0    0 -0.12619239083E+02  0.81262146308E+01  0.50804408890E+02  0.96299452108E+02  0.80419002446E+02 0.  1.
        -24    1    1    2    0    0  0.12619239083E+02 -0.81262146308E+01  0.28964693760E+03  0.30097814700E+03  0.80419002446E+02 0. -1.
<mgrwt>
<rscale>  0 0.81807680E+02</rscale>
<asrwt>0</asrwt>
<pdfrwt beam="1">  1        1 0.56748377E-01 0.81807680E+02</pdfrwt>
<pdfrwt beam="2">  1       -1 0.43712505E-02 0.81807680E+02</pdfrwt>
<totfact> 0.13060602E+04</totfact>
</mgrwt>
</event>
<event>
 4    1  0.5074571E-001  0.8311983E+02  0.7546771E-02  0.1320424E+00
          2   -1    0    0  501    0  0.00000000000E+00  0.00000000000E+00  0.87216174527E+03  0.87216174527E+03  0.00000000000E+00 0. -1.
         -2   -1    0    0    0  501 -0.00000000000E+00 -0.00000000000E+00 -0.16316245838E+02  0.16316245838E+02  0.00000000000E+00 0.  1.
         24    1    1    2    0    0  0.18869813469E+02  0.92530895115E+01  0.74656845825E+03  0.75118131522E+03  0.80419002446E+02 0. -1.
        -24    1    1    2    0    0 -0.18869813469E+02 -0.92530895115E+01  0.10927704117E+03  0.13729667588E+03  0.80419002446E+02 0.  1.
<mgrwt>
<rscale>  0 0.83119826E+02</rscale>
<asrwt>0</asrwt>
<pdfrwt beam="1">  1        2 0.13417869E+00 0.83119826E+02</pdfrwt>
<pdfrwt beam="2">  1       -2 0.25101924E-02 0.83119826E+02</pdfrwt>
<totfact> 0.16058023E+04</totfact>
</mgrwt>
</event>
<event>
 4    1  0.5074571E-001  0.1113889E+03  0.7546771E-02  0.1258019E+00
          2   -1    0    0  501    0  0.00000000000E+00  0.00000000000E+00  0.11929084681E+04  0.11929084681E+04  0.00000000000E+00 0. -1.
         -2   -1    0    0    0  501 -0.00000000000E+00 -0.00000000000E+00 -0.15959312144E+02  0.15959312144E+02  0.00000000000E+00 0.  1.
         24    1    1    2    0    0  0.72624691240E+02  0.25805400444E+02  0.94518179529E+03  0.95172270466E+03  0.80419002446E+02 0. -1.
        -24    1    1    2    0    0 -0.72624691240E+02 -0.25805400444E+02  0.23176736065E+03  0.25714507556E+03  0.80419002446E+02 0.  1.
<mgrwt>
<rscale>  0 0.11138887E+03</rscale>
<asrwt>0</asrwt>
<pdfrwt beam="1">  1        2 0.18352431E+00 0.11138887E+03</pdfrwt>
<pdfrwt beam="2">  1       -2 0.24552797E-02 0.11138887E+03</pdfrwt>
<totfact> 0.11012884E+04</totfact>
</mgrwt>
</event>
<event>
 4    1  0.5074571E-001  0.1180015E+03  0.7546771E-02  0.1246431E+00
         -2   -1    0    0    0  501 -0.00000000000E+00  0.00000000000E+00  0.36749152640E+02  0.36749152640E+02  0.00000000000E+00 0.  1.
          2   -1    0    0  501    0  0.00000000000E+00 -0.00000000000E+00 -0.63639594310E+03  0.63639594310E+03  0.00000000000E+00 0. -1.
         24    1    1    2    0    0  0.85827777043E+02  0.95248370911E+01 -0.51391423066E+03  0.52728757074E+03  0.80419002446E+02 0. -1.
        -24    1    1    2    0    0 -0.85827777043E+02 -0.95248370911E+01 -0.85732559803E+02  0.14585752500E+03  0.80419002446E+02 0.  1.
<mgrwt>
<rscale>  0 0.11800147E+03</rscale>
<asrwt>0</asrwt>
<pdfrwt beam="1">  1        2 0.97907072E-01 0.11800147E+03</pdfrwt>
<pdfrwt beam="2">  1       -2 0.56537156E-02 0.11800147E+03</pdfrwt>
<totfact> 0.72765194E+03</totfact>
</mgrwt>
</event>
<event>
 4    1  0.5074571E-001  0.8117032E+02  0.7546771E-02  0.1325763E+00
          1   -1    0    0  501    0  0.00000000000E+00  0.00000000000E+00  0.12720749929E+02  0.12720749929E+02  0.00000000000E+00 0. -1.
         -1   -1    0    0    0  501 -0.00000000000E+00 -0.00000000000E+00 -0.10168750697E+04  0.10168750697E+04  0.00000000000E+00 0.  1.
         24    1    1    2    0    0 -0.53836929124E+01 -0.96135982015E+01 -0.86267552506E+03  0.86648582384E+03  0.80419002446E+02 0.  1.
        -24    1    1    2    0    0  0.53836929124E+01  0.96135982015E+01 -0.14147879471E+03  0.16310999579E+03  0.80419002446E+02 0. -1.
<mgrwt>
<rscale>  0 0.81170323E+02</rscale>
<asrwt>0</asrwt>
<pdfrwt beam="1">  1        1 0.19570385E-02 0.81170323E+02</pdfrwt>
<pdfrwt beam="2">  1       -1 0.15644232E+00 0.81170323E+02</pdfrwt>
<totfact> 0.19831367E+03</totfact>
</mgrwt>
</event>
<event>
 4    1  0.5074571E-001  0.1047694E+03  0.7546771E-02  0.1270575E+00
         -2   -1    0    0    0  501 -0.00000000000E+00  0.00000000000E+00  0.14763947844E+03  0.14763947844E+03  0.00000000000E+00 0.  1.
          2   -1    0    0  501    0  0.00000000000E+00 -0.00000000000E+00 -0.46908507538E+03  0.46908507538E+03  0.00000000000E+00 0. -1.
         24    1    1    2    0    0  0.37884958608E+02 -0.55445000328E+02 -0.44359458994E+03  0.45579907232E+03  0.80419002446E+02 0. -1.
        -24    1    1    2    0    0 -0.37884958608E+02  0.55445000328E+02  0.12214899300E+03  0.16092548149E+03  0.80419002446E+02 0.  1.
<mgrwt>
<rscale>  0 0.10476943E+03</rscale>
<asrwt>0</asrwt>
<pdfrwt beam="1">  1        2 0.72166933E-01 0.10476943E+03</pdfrwt>
<pdfrwt beam="2">  1       -2 0.22713766E-01 0.10476943E+03</pdfrwt>
<totfact> 0.11128435E+03</totfact>
</mgrwt>
</event>
<event>
 4    1  0.5074571E-001  0.1643259E+03  0.7546771E-02  0.1183898E+00
          1   -1    0    0  501    0  0.00000000000E+00  0.00000000000E+00  0.13716426953E+04  0.13716426953E+04  0.00000000000E+00 0. -1.
         -1   -1    0    0    0  501 -0.00000000000E+00 -0.00000000000E+00 -0.21885935225E+02  0.21885935225E+02  0.00000000000E+00 0.  1.
         24    1    1    2    0    0  0.13747296162E+03  0.40459272112E+02  0.89575454997E+03  0.91070258461E+03  0.80419002446E+02 0.  0.
        -24    1    1    2    0    0 -0.13747296162E+03 -0.40459272112E+02  0.45400221014E+03  0.48282604595E+03  0.80419002446E+02 0.  0.
<mgrwt>
<rscale>  0 0.16432587E+03</rscale>
<asrwt>0</asrwt>
<pdfrwt beam="1">  1        1 0.21102189E+00 0.16432589E+03</pdfrwt>
<pdfrwt beam="2">  1       -1 0.33670680E-02 0.16432589E+03</pdfrwt>
<totfact> 0.27581905E+03</totfact>
</mgrwt>
</event>
<event>
 4    1  0.5074571E-001  0.8174401E+02  0.7546771E-02  0.1324174E+00
         -2   -1    0    0    0  501 -0.00000000000E+00  0.00000000000E+00  0.25563791900E+02  0.25563791900E+02  0.00000000000E+00 0.  1.
          2   -1    0    0  501    0  0.00000000000E+00 -0.00000000000E+00 -0.50055461413E+03  0.50055461413E+03  0.00000000000E+00 0. -1.
         24    1    1    2    0    0  0.11877435798E+02 -0.85903747228E+01 -0.41933041549E+03  0.42722369004E+03  0.80419002446E+02 0. -1.
        -24    1    1    2    0    0 -0.11877435798E+02  0.85903747228E+01 -0.55660406744E+02  0.98894715998E+02  0.80419002446E+02 0.  1.
<mgrwt>
<rscale>  0 0.81744015E+02</rscale>
<asrwt>0</asrwt>
<pdfrwt beam="1">  1        2 0.77008394E-01 0.81744015E+02</pdfrwt>
<pdfrwt beam="2">  1       -2 0.39328915E-02 0.81744015E+02</pdfrwt>
<totfact> 0.15818962E+04</totfact>
</mgrwt>
</event>
<event>
 4    1  0.5074571E-001  0.8491489E+02  0.7546771E-02  0.1315655E+00
          2   -1    0    0  501    0  0.00000000000E+00  0.00000000000E+00  0.11401058816E+04  0.11401058816E+04  0.00000000000E+00 0. -1.
         -2   -1    0    0    0  501 -0.00000000000E+00 -0.00000000000E+00 -0.10057277683E+02  0.10057277683E+02  0.00000000000E+00 0.  1.
         24    1    1    2    0    0 -0.27192018143E+02 -0.19791261152E+01  0.91537937183E+03  0.91930948712E+03  0.80419002446E+02 0. -1.
        -24    1    1    2    0    0  0.27192018143E+02  0.19791261152E+01  0.21466923212E+03  0.23085367219E+03  0.80419002446E+02 0.  1.
<mgrwt>
<rscale>  0 0.84914891E+02</rscale>
<asrwt>0</asrwt>
<pdfrwt beam="1">  1        2 0.17540080E+00 0.84914891E+02</pdfrwt>
<pdfrwt beam="2">  1       -2 0.15472744E-02 0.84914891E+02</pdfrwt>
<totfact> 0.22435212E+04</totfact>
</mgrwt>
</event>
<event>
 4    1  0.5074571E-001  0.1197625E+03  0.7546771E-02  0.1243489E+00
         -2   -1    0    0    0  501 -0.00000000000E+00  0.00000000000E+00  0.14216839805E+02  0.14216839805E+02  0.00000000000E+00 0.  1.
          2   -1    0    0  501    0  0.00000000000E+00 -0.00000000000E+00 -0.11073714734E+04  0.11073714734E+04  0.00000000000E+00 0. -1.
         24    1    1    2    0    0 -0.18930016290E+02 -0.86703442591E+02 -0.71382567213E+03  0.72380255500E+03  0.80419002446E+02 0. -1.
        -24    1    1    2    0    0  0.18930016290E+02  0.86703442591E+02 -0.37932896150E+03  0.39778575825E+03  0.80419002446E+02 0.  1.
<mgrwt>
<rscale>  0 0.11976247E+03</rscale>
<asrwt>0</asrwt>
<pdfrwt beam="1">  1        2 0.17036493E+00 0.11976247E+03</pdfrwt>
<pdfrwt beam="2">  1       -2 0.21872050E-02 0.11976247E+03</pdfrwt>
<totfact> 0.14603550E+04</totfact>
</mgrwt>
</event>
<event>
 4    1  0.5074571E-001  0.9317263E+02  0.7546771E-02  0.1295346E+00
         -2   -1    0    0    0  501 -0.00000000000E+00  0.00000000000E+00  0.39578875433E+02  0.39578875433E+02  0.00000000000E+00 0.  1.
          2   -1    0    0  501    0  0.00000000000E+00 -0.00000000000E+00 -0.21972142170E+03  0.21972142170E+03  0.00000000000E+00 0. -1.
         24    1    1    2    0    0  0.24823935382E+02  0.39971179728E+02 -0.95489450484E+02  0.13341429490E+03  0.80419002446E+02 0.  1.
        -24    1    1    2    0    0 -0.24823935382E+02 -0.39971179728E+02 -0.84653095780E+02  0.12588600222E+03  0.80419002446E+02 0. -1.
<mgrwt>
<rscale>  0 0.93172630E+02</rscale>
<asrwt>0</asrwt>
<pdfrwt beam="1">  1        2 0.33803295E-01 0.93172630E+02</pdfrwt>
<pdfrwt beam="2">  1       -2 0.60890579E-02 0.93172630E+02</pdfrwt>
<totfact> 0.19932196E+04</totfact>
</mgrwt>
</event>
<event>
 4    1  0.5074571E-001  0.9320433E+02  0.7546771E-02  0.1295272E+00
          2   -1    0    0  501    0  0.00000000000E+00  0.00000000000E+00  0.45007949199E+03  0.45007949199E+03  0.00000000000E+00 0. -1.
         -2   -1    0    0    0  501 -0.00000000000E+00 -0.00000000000E+00 -0.21153464378E+02  0.21153464378E+02  0.00000000000E+00 0.  1.
         24    1    1    2    0    0  0.27094125044E+02 -0.38545282306E+02  0.28418562962E+03  0.29907945171E+03  0.80419002446E+02 0. -1.
        -24    1    1    2    0    0 -0.27094125044E+02  0.38545282306E+02  0.14474039800E+03  0.17215350466E+03  0.80419002446E+02 0.  1.
<mgrwt>
<rscale>  0 0.93204326E+02</rscale>
<asrwt>0</asrwt>
<pdfrwt beam="1">  1        2 0.69242992E-01 0.93204326E+02</pdfrwt>
<pdfrwt beam="2">  1       -2 0.32543795E-02 0.93204326E+02</pdfrwt>
<totfact> 0.23691376E+04</totfact>
</mgrwt>
</event>
<event>
 4    1  0.5074571E-001  0.8897493E+02  0.7546771E-02  0.1305353E+00
         -2   -1    0    0    0  501 -0.00000000000E+00  0.00000000000E+00  0.82017573087E+01  0.82017573087E+01  0.00000000000E+00 0.  1.
          2   -1    0    0  501    0  0.00000000000E+00 -0.00000000000E+00 -0.97593271590E+03  0.97593271590E+03  0.00000000000E+00 0. -1.
         24    1    1    2    0    0  0.34164956488E+02  0.16795194279E+02 -0.53540839318E+03  0.54275103524E+03  0.80419002446E+02 0. -1.
        -24    1    1    2    0    0 -0.34164956488E+02 -0.16795194279E+02 -0.43232256541E+03  0.44138343797E+03  0.80419002446E+02 0.  1.
<mgrwt>
<rscale>  0 0.88974933E+02</rscale>
<asrwt>0</asrwt>
<pdfrwt beam="1">  1        2 0.15014348E+00 0.88974933E+02</pdfrwt>
<pdfrwt beam="2">  1       -2 0.12618090E-02 0.88974933E+02</pdfrwt>
<totfact> 0.37373258E+04</totfact>
</mgrwt>
</event>
<event>
 4    1  0.5074571E-001  0.1553964E+03  0.7546771E-02  0.1193994E+00
         -2   -1    0    0    0  501 -0.00000000000E+00  0.00000000000E+00  0.29436896331E+03  0.29436896331E+03  0.00000000000E+00 0.  1.
          2   -1    0    0  501    0  0.00000000000E+00 -0.00000000000E+00 -0.21995692342E+03  0.21995692342E+03  0.00000000000E+00 0. -1.
         24    1    1    2    0    0 -0.53240605248E+02  0.12184518532E+03 -0.16643209147E+03  0.22770083061E+03  0.80419002446E+02 0. -1.
        -24    1    1    2    0    0  0.53240605248E+02 -0.12184518532E+03  0.24084413136E+03  0.28662505612E+03  0.80419002446E+02 0.  1.
<mgrwt>
<rscale>  0 0.15539636E+03</rscale>
<asrwt>0</asrwt>
<pdfrwt beam="1">  1        2 0.33839527E-01 0.15539636E+03</pdfrwt>
<pdfrwt beam="2">  1       -2 0.45287533E-01 0.15539636E+03</pdfrwt>
<totfact> 0.71482186E+02</totfact>
</mgrwt>
</event>
<event>
 4    1  0.5074571E-001  0.1571636E+03  0.7546771E-02  0.1191937E+00
         -2   -1    0    0    0  501 -0.00000000000E+00  0.00000000000E+00  0.33342417629E+03  0.33342417629E+03  0.00000000000E+00 0.  1.
          2   -1    0    0  501    0  0.00000000000E+00 -0.00000000000E+00 -0.11040642180E+03  0.11040642180E+03  0.00000000000E+00 0. -1.
         24    1    1    2    0    0  0.67017541605E+02  0.11722553625E+03  0.23879922329E+03  0.28587665562E+03  0.80419002446E+02 0.  0.
        -24    1    1    2    0    0 -0.67017541605E+02 -0.11722553625E+03 -0.15781468805E+02  0.15795394247E+03  0.80419002446E+02 0.  0.
<mgrwt>
<rscale>  0 0.15716361E+03</rscale>
<asrwt>0</asrwt>
<pdfrwt beam="1">  1        2 0.16985603E-01 0.15716363E+03</pdfrwt>
<pdfrwt beam="2">  1       -2 0.51296027E-01 0.15716363E+03</pdfrwt>
<totfact> 0.12059713E+03</totfact>
</mgrwt>
</event>
<event>
 4    1  0.5074571E-001  0.8089285E+02  0.7546771E-02  0.1326537E+00
         -2   -1    0    0    0  501 -0.00000000000E+00  0.00000000000E+00  0.44206318361E+02  0.44206318361E+02  0.00000000000E+00 0.  1.
          2   -1    0    0  501    0  0.00000000000E+00 -0.00000000000E+00 -0.39416823104E+03  0.39416823104E+03  0.00000000000E+00 0. -1.
         24    1    1    2    0    0  0.46236457921E+01 -0.74202009022E+01 -0.34818906265E+03  0.35746227324E+03  0.80419002446E+02 0. -1.
        -24    1    1    2    0    0 -0.46236457921E+01  0.74202009022E+01 -0.17728500224E+01  0.80912276160E+02  0.80419002446E+02 0.  1.
<mgrwt>
<rscale>  0 0.80892852E+02</rscale>
<asrwt>0</asrwt>
<pdfrwt beam="1">  1        2 0.60641263E-01 0.80892852E+02</pdfrwt>
<pdfrwt beam="2">  1       -2 0.68009724E-02 0.80892852E+02</pdfrwt>
<totfact> 0.90296571E+03</totfact>
</mgrwt>
</event>
<event>
 4    1  0.5074571E-001  0.1620358E+03  0.7546771E-02  0.1186417E+00
         -2   -1    0    0    0  501 -0.00000000000E+00  0.00000000000E+00  0.33992967373E+02  0.33992967373E+02  0.00000000000E+00 0.  1.
          2   -1    0    0  501    0  0.00000000000E+00 -0.00000000000E+00 -0.22315220050E+04  0.22315220050E+04  0.00000000000E+00 0. -1.
         24    1    1    2    0    0 -0.10163564048E+03 -0.97255196451E+02 -0.20147417465E+04  0.20212471145E+04  0.80419002446E+02 0. -1.
        -24    1    1    2    0    0  0.10163564048E+03  0.97255196451E+02 -0.18278729108E+03  0.24426785787E+03  0.80419002446E+02 0.  1.
<mgrwt>
<rscale>  0 0.16203578E+03</rscale>
<asrwt>0</asrwt>
<pdfrwt beam="1">  1        2 0.34331108E+00 0.16203578E+03</pdfrwt>
<pdfrwt beam="2">  1       -2 0.52296873E-02 0.16203578E+03</pdfrwt>
<totfact> 0.10423211E+03</totfact>
</mgrwt>
</event>
<event>
 4    1  0.5074571E-001  0.1197078E+03  0.7546771E-02  0.1243580E+00
         -1   -1    0    0    0  501 -0.00000000000E+00  0.00000000000E+00  0.10575553425E+02  0.10575553425E+02  0.00000000000E+00 0.  1.
          1   -1    0    0  501    0  0.00000000000E+00 -0.00000000000E+00 -0.13552260363E+04  0.13552260363E+04  0.00000000000E+00 0. -1.
         24    1    1    2    0    0  0.84273452739E+02 -0.27580962666E+02 -0.68102319396E+03  0.69146404896E+03  0.80419002446E+02 0.  0.
        -24    1    1    2    0    0 -0.84273452739E+02  0.27580962666E+02 -0.66362728892E+03  0.67433754077E+03  0.80419002446E+02 0.  1.
<mgrwt>
<rscale>  0 0.11970774E+03</rscale>
<asrwt>0</asrwt>
<pdfrwt beam="1">  1        1 0.20849615E+00 0.11970776E+03</pdfrwt>
<pdfrwt beam="2">  1       -1 0.16270095E-02 0.11970776E+03</pdfrwt>
<totfact> 0.80351654E+03</totfact>
</mgrwt>
</event>
<event>
 4    1  0.5074571E-001  0.8416239E+02  0.7546771E-02  0.1317638E+00
         -1   -1    0    0    0  501 -0.00000000000E+00  0.00000000000E+00  0.57603157710E+02  0.57603157710E+02  0.00000000000E+00 0.  1.
          1   -1    0    0  501    0  0.00000000000E+00 -0.00000000000E+00 -0.24847827790E+03  0.24847827790E+03  0.00000000000E+00 0. -1.
         24    1    1    2    0    0  0.79933917647E+01 -0.23498890478E+02  0.13331039240E+02  0.85211646664E+02  0.80419002446E+02 0.  1.
        -24    1    1    2    0    0 -0.79933917647E+01  0.23498890478E+02 -0.20420615943E+03  0.22086978894E+03  0.80419002446E+02 0.  1.
<mgrwt>
<rscale>  0 0.84162391E+02</rscale>
<asrwt>0</asrwt>
<pdfrwt beam="1">  1        1 0.38227426E-01 0.84162391E+02</pdfrwt>
<pdfrwt beam="2">  1       -1 0.88620245E-02 0.84162391E+02</pdfrwt>
<totfact> 0.74866457E+03</totfact>
</mgrwt>
</event>
<event>
 4    1  0.5074571E-001  0.8518955E+02  0.7546771E-02  0.1314938E+00
          1   -1    0    0  501    0  0.00000000000E+00  0.00000000000E+00  0.36745938718E+03  0.36745938718E+03  0.00000000000E+00 0. -1.
         -1   -1    0    0    0  501 -0.00000000000E+00 -0.00000000000E+00 -0.23112821347E+02  0.23112821347E+02  0.00000000000E+00 0.  1.
         24    1    1    2    0    0  0.21269708175E+02 -0.18375056679E+02  0.97681570044E+02  0.12961075679E+03  0.80419002446E+02 0.  0.
        -24    1    1    2    0    0 -0.21269708175E+02  0.18375056679E+02  0.24666499579E+03  0.26096145174E+03  0.80419002446E+02 0.  0.
<mgrwt>
<rscale>  0 0.85189548E+02</rscale>
<asrwt>0</asrwt>
<pdfrwt beam="1">  1        1 0.56532209E-01 0.85189548E+02</pdfrwt>
<pdfrwt beam="2">  1       -1 0.35558189E-02 0.85189548E+02</pdfrwt>
<totfact> 0.17767036E+04</totfact>
</mgrwt>
</event>
<event>
 4    1  0.5074571E-001  0.1084328E+03  0.7546771E-02  0.1263500E+00
         -2   -1    0    0    0  501 -0.00000000000E+00  0.00000000000E+00  0.10924665481E+03  0.10924665481E+03  0.00000000000E+00 0.  1.
          2   -1    0    0  501    0  0.00000000000E+00 -0.00000000000E+00 -0.10864628045E+03  0.10864628045E+03  0.00000000000E+00 0. -1.
         24    1    1    2    0    0 -0.48433031507E+02 -0.54264961484E+02  0.10863472828E+02  0.10897557333E+03  0.80419002446E+02 0. -1.
        -24    1    1    2    0    0  0.48433031507E+02  0.54264961484E+02 -0.10263098470E+02  0.10891736193E+03  0.80419002446E+02 0.  0.
<mgrwt>
<rscale>  0 0.10843276E+03</rscale>
<asrwt>0</asrwt>
<pdfrwt beam="1">  1        2 0.16714812E-01 0.10843277E+03</pdfrwt>
<pdfrwt beam="2">  1       -2 0.16807178E-01 0.10843277E+03</pdfrwt>
<totfact> 0.89575804E+03</totfact>
</mgrwt>
</event>
<event>
 4    1  0.5074571E-001  0.9595379E+02  0.7546771E-02  0.1289042E+00
          2   -1    0    0  501    0  0.00000000000E+00  0.00000000000E+00  0.38784779038E+02  0.38784779038E+02  0.00000000000E+00 0. -1.
         -2   -1    0    0    0  501 -0.00000000000E+00 -0.00000000000E+00 -0.23747336853E+03  0.23747336853E+03  0.00000000000E+00 0.  1.
         24    1    1    2    0    0 -0.81249526945E+01 -0.51709759913E+02 -0.96760769029E+02  0.13627096721E+03  0.80419002446E+02 0.  0.
        -24    1    1    2    0    0  0.81249526945E+01  0.51709759913E+02 -0.10192782047E+03  0.13998718036E+03  0.80419002446E+02 0. -1.
<mgrwt>
<rscale>  0 0.95953791E+02</rscale>
<asrwt>0</asrwt>
<pdfrwt beam="1">  1        2 0.59668891E-02 0.95953791E+02</pdfrwt>
<pdfrwt beam="2">  1       -2 0.36534364E-01 0.95953791E+02</pdfrwt>
<totfact> 0.80323919E+03</totfact>
</mgrwt>
</event>
<event>
 4    1  0.5074571E-001  0.1025142E+03  0.7546771E-02  0.1275096E+00
         -2   -1    0    0    0  501 -0.00000000000E+00  0.00000000000E+00  0.19247743558E+02  0.19247743558E+02  0.00000000000E+00 0.  1.
          2   -1    0    0  501    0  0.00000000000E+00 -0.00000000000E+00 -0.19880453424E+04  0.19880453424E+04  0.00000000000E+00 0. -1.
         24    1    1    2    0    0  0.90861435808E+01 -0.62923603475E+02 -0.18391859822E+04  0.18420407789E+04  0.80419002446E+02 0. -1.
        -24    1    1    2    0    0 -0.90861435808E+01  0.62923603475E+02 -0.12961161663E+03  0.16525230709E+03  0.80419002446E+02 0.  1.
<mgrwt>
<rscale>  0 0.10251416E+03</rscale>
<asrwt>0</asrwt>
<pdfrwt beam="1">  1        2 0.30585316E+00 0.10251416E+03</pdfrwt>
<pdfrwt beam="2">  1       -2 0.29611911E-02 0.10251416E+03</pdfrwt>
<totfact> 0.32522477E+03</totfact>
</mgrwt>
</event>
<event>
 4    1  0.5074571E-001  0.8302061E+02  0.7546771E-02  0.1320692E+00
          2   -1    0    0  501    0  0.00000000000E+00  0.00000000000E+00  0.11893826577E+04  0.11893826577E+04  0.00000000000E+00 0. -1.
         -2   -1    0    0    0  501 -0.00000000000E+00 -0.00000000000E+00 -0.63876991759E+01  0.63876991759E+01  0.00000000000E+00 0.  1.
         24    1    1    2    0    0 -0.47764964116E+01  0.20059693171E+02  0.77362611185E+03  0.77806798102E+03  0.80419002446E+02 0. -1.
        -24    1    1    2    0    0  0.47764964116E+01 -0.20059693171E+02  0.40936884664E+03  0.41770237582E+03  0.80419002446E+02 0.  1.
<mgrwt>
<rscale>  0 0.83020613E+02</rscale>
<asrwt>0</asrwt>
<pdfrwt beam="1">  1        2 0.18298177E+00 0.83020613E+02</pdfrwt>
<pdfrwt beam="2">  1       -2 0.98272390E-03 0.83020613E+02</pdfrwt>
<totfact> 0.40046272E+04</totfact>
</mgrwt>
</event>
<event>
 4    1  0.5074571E-001  0.8069979E+02  0.7546771E-02  0.1327077E+00
          2   -1    0    0  501    0  0.00000000000E+00  0.00000000000E+00  0.13100522934E+03  0.13100522934E+03  0.00000000000E+00 0. -1.
         -2   -1    0    0    0  501 -0.00000000000E+00 -0.00000000000E+00 -0.50617615613E+02  0.50617615613E+02  0.00000000000E+00 0.  1.
         24    1    1    2    0    0  0.25922927206E+01 -0.62064779505E+01  0.52344471014E+02  0.96189396246E+02  0.80419002446E+02 0.  0.
        -24    1    1    2    0    0 -0.25922927206E+01  0.62064779505E+01  0.28043142711E+02  0.85433448705E+02  0.80419002446E+02 0. -1.
<mgrwt>
<rscale>  0 0.80699791E+02</rscale>
<asrwt>0</asrwt>
<pdfrwt beam="1">  1        2 0.20154651E-01 0.80699791E+02</pdfrwt>
<pdfrwt beam="2">  1       -2 0.77873255E-02 0.80699791E+02</pdfrwt>
<totfact> 0.23677622E+04</totfact>
</mgrwt>
</event>
<event>
 4    1  0.5074571E-001  0.9106865E+02  0.7546771E-02  0.1300284E+00
         -2   -1    0    0    0  501 -0.00000000000E+00  0.00000000000E+00  0.50601726761E+02  0.50601726761E+02  0.00000000000E+00 0.  1.
          2   -1    0    0  501    0  0.00000000000E+00 -0.00000000000E+00 -0.26915106600E+03  0.26915106600E+03  0.00000000000E+00 0. -1.
         24    1    1    2    0    0 -0.27138392337E+01  0.42648782276E+02 -0.20925270210E+03  0.22821085172E+03  0.80419002446E+02 0. -1.
        -24    1    1    2    0    0  0.27138392337E+01 -0.42648782276E+02 -0.92966371405E+01  0.91541941041E+02  0.80419002446E+02 0.  1.
<mgrwt>
<rscale>  0 0.91068653E+02</rscale>
<asrwt>0</asrwt>
<pdfrwt beam="1">  1        2 0.41407857E-01 0.91068653E+02</pdfrwt>
<pdfrwt beam="2">  1       -2 0.77848808E-02 0.91068653E+02</pdfrwt>
<totfact> 0.11072557E+04</totfact>
</mgrwt>
</event>
<event>
 4    1  0.5074571E-001  0.1018929E+03  0.7546771E-02  0.1276365E+00
         -2   -1    0    0    0  501 -0.00000000000E+00  0.00000000000E+00  0.12567070663E+04  0.12567070663E+04  0.00000000000E+00 0.  1.
          2   -1    0    0  501    0  0.00000000000E+00 -0.00000000000E+00 -0.88939871016E+01  0.88939871016E+01  0.00000000000E+00 0. -1.
         24    1    1    2    0    0 -0.50250919975E+02  0.37279872261E+02  0.79267012444E+03  0.79919214583E+03  0.80419002446E+02 0.  0.
        -24    1    1    2    0    0  0.50250919975E+02 -0.37279872261E+02  0.45514295473E+03  0.46640890754E+03  0.80419002446E+02 0.  0.
<mgrwt>
<rscale>  0 0.10189290E+03</rscale>
<asrwt>0</asrwt>
<pdfrwt beam="1">  1        2 0.13683067E-02 0.10189291E+03</pdfrwt>
<pdfrwt beam="2">  1       -2 0.19333941E+00 0.10189291E+03</pdfrwt>
<totfact> 0.13937059E+03</totfact>
</mgrwt>
</event>
<event>
 4    1  0.5074571E-001  0.1138591E+03  0.7546771E-02  0.1253586E+00
         -2   -1    0    0    0  501 -0.00000000000E+00  0.00000000000E+00  0.35201301122E+02  0.35201301122E+02  0.00000000000E+00 0.  1.
          2   -1    0    0  501    0  0.00000000000E+00 -0.00000000000E+00 -0.41217765435E+03  0.41217765435E+03  0.00000000000E+00 0. -1.
         24    1    1    2    0    0  0.80336131686E+02 -0.65411807545E+01 -0.26148926722E+03  0.28520261907E+03  0.80419002446E+02 0.  1.
        -24    1    1    2    0    0 -0.80336131686E+02  0.65411807545E+01 -0.11548708602E+03  0.16217633641E+03  0.80419002446E+02 0. -1.
<mgrwt>
<rscale>  0 0.11385911E+03</rscale>
<asrwt>0</asrwt>
<pdfrwt beam="1">  1        2 0.63411948E-01 0.11385911E+03</pdfrwt>
<pdfrwt beam="2">  1       -2 0.54155847E-02 0.11385911E+03</pdfrwt>
<totfact> 0.12481082E+04</totfact>
</mgrwt>
</event>
<event>
 4    1  0.5074571E-001  0.8072017E+02  0.7546771E-02  0.1327020E+00
         -2   -1    0    0    0  501 -0.00000000000E+00  0.00000000000E+00  0.61933862879E+02  0.61933862879E+02  0.00000000000E+00 0.  1.
          2   -1    0    0  501    0  0.00000000000E+00 -0.00000000000E+00 -0.10825586790E+03  0.10825586790E+03  0.00000000000E+00 0. -1.
         24    1    1    2    0    0 -0.20502553564E+01  0.66575853395E+01 -0.88753595267E+01  0.81206618885E+02  0.80419002446E+02 0.  1.
        -24    1    1    2    0    0  0.20502553564E+01 -0.66575853395E+01 -0.37446645497E+02  0.88983111897E+02  0.80419002446E+02 0.  0.
<mgrwt>
<rscale>  0 0.80720162E+02</rscale>
<asrwt>0</asrwt>
<pdfrwt beam="1">  1        2 0.16654749E-01 0.80720172E+02</pdfrwt>
<pdfrwt beam="2">  1       -2 0.95282866E-02 0.80720172E+02</pdfrwt>
<totfact> 0.21540915E+04</totfact>
</mgrwt>
</event>
<event>
 4    1  0.5074571E-001  0.9492343E+02  0.7546771E-02  0.1291349E+00
          2   -1    0    0  501    0  0.00000000000E+00  0.00000000000E+00  0.74805527097E+03  0.74805527097E+03  0.00000000000E+00 0. -1.
         -2   -1    0    0    0  501 -0.00000000000E+00 -0.00000000000E+00 -0.12988911834E+02  0.12988911834E+02  0.00000000000E+00 0.  1.
         24    1    1    2    0    0 -0.26575236477E+02  0.42860216758E+02  0.47010279669E+03  0.47959055118E+03  0.80419002446E+02 0.  1.
        -24    1    1    2    0    0  0.26575236477E+02 -0.42860216758E+02  0.26496356245E+03  0.28145363163E+03  0.80419002446E+02 0. -1.
<mgrwt>
<rscale>  0 0.94923429E+02</rscale>
<asrwt>0</asrwt>
<pdfrwt beam="1">  1        2 0.11508539E+00 0.94923429E+02</pdfrwt>
<pdfrwt beam="2">  1       -2 0.19982947E-02 0.94923429E+02</pdfrwt>
<totfact> 0.27248453E+04</totfact>
</mgrwt>
</event>
<event>
 4    1  0.5074571E-001  0.1009835E+03  0.7546771E-02  0.1278241E+00
          1   -1    0    0  501    0  0.00000000000E+00  0.00000000000E+00  0.10752010335E+03  0.10752010335E+03  0.00000000000E+00 0. -1.
         -1   -1    0    0    0  501 -0.00000000000E+00 -0.00000000000E+00 -0.17897649747E+03  0.17897649747E+03  0.00000000000E+00 0.  1.
         24    1    1    2    0    0  0.55265107085E+02 -0.26004348261E+02 -0.13394198624E+03  0.16774423931E+03  0.80419002446E+02 0. -1.
        -24    1    1    2    0    0 -0.55265107085E+02  0.26004348261E+02  0.62485592119E+02  0.11875236152E+03  0.80419002446E+02 0.  0.
<mgrwt>
<rscale>  0 0.10098353E+03</rscale>
<asrwt>0</asrwt>
<pdfrwt beam="1">  1        1 0.16541554E-01 0.10098353E+03</pdfrwt>
<pdfrwt beam="2">  1       -1 0.27534846E-01 0.10098353E+03</pdfrwt>
<totfact> 0.36564790E+03</totfact>
</mgrwt>
</event>
<event>
 4    1  0.5074571E-001  0.8319911E+02  0.7546771E-02  0.1320210E+00
         -2   -1    0    0    0  501 -0.00000000000E+00  0.00000000000E+00  0.14126311850E+03  0.14126311850E+03  0.00000000000E+00 0.  1.
          2   -1    0    0  501    0  0.00000000000E+00 -0.00000000000E+00 -0.41505114053E+03  0.41505114053E+03  0.00000000000E+00 0. -1.
         24    1    1    2    0    0 -0.19990801495E+02  0.74326542939E+01 -0.39811582077E+03  0.40671648503E+03  0.80419002446E+02 0. -1.
        -24    1    1    2    0    0  0.19990801495E+02 -0.74326542939E+01  0.12432779873E+03  0.14959777400E+03  0.80419002446E+02 0.  1.
<mgrwt>
<rscale>  0 0.83199113E+02</rscale>
<asrwt>0</asrwt>
<pdfrwt beam="1">  1        2 0.63854022E-01 0.83199113E+02</pdfrwt>
<pdfrwt beam="2">  1       -2 0.21732787E-01 0.83199113E+02</pdfrwt>
<totfact> 0.13582415E+03</totfact>
</mgrwt>
</event>
<event>
 4    1  0.5074571E-001  0.8504968E+02  0.7546771E-02  0.1315303E+00
          1   -1    0    0  501    0  0.00000000000E+00  0.00000000000E+00  0.18373822142E+03  0.18373822142E+03  0.00000000000E+00 0. -1.
         -1   -1    0    0    0  501 -0.00000000000E+00 -0.00000000000E+00 -0.45713109859E+02  0.45713109859E+02  0.00000000000E+00 0.  1.
         24    1    1    2    0    0 -0.10613985198E+02 -0.25565134353E+02  0.26270847839E+02  0.89014640239E+02  0.80419002446E+02 0.  1.
        -24    1    1    2    0    0  0.10613985198E+02  0.25565134353E+02  0.11175426373E+03  0.14043669104E+03  0.80419002446E+02 0. -1.
<mgrwt>
<rscale>  0 0.85049684E+02</rscale>
<asrwt>0</asrwt>
<pdfrwt beam="1">  1        1 0.28267418E-01 0.85049684E+02</pdfrwt>
<pdfrwt beam="2">  1       -1 0.70327862E-02 0.85049684E+02</pdfrwt>
<totfact> 0.15287412E+04</totfact>
</mgrwt>
</event>
<event>
 4    1  0.5074571E-001  0.8192981E+02  0.7546771E-02  0.1323662E+00
         -1   -1    0    0    0  501 -0.00000000000E+00  0.00000000000E+00  0.10966619863E+02  0.10966619863E+02  0.00000000000E+00 0.  1.
          1   -1    0    0  501    0  0.00000000000E+00 -0.00000000000E+00 -0.64960805175E+03  0.64960805175E+03  0.00000000000E+00 0. -1.
         24    1    1    2    0    0 -0.48567885605E+01 -0.14889221281E+02 -0.23993895805E+03  0.25354131192E+03  0.80419002446E+02 0. -1.
        -24    1    1    2    0    0  0.48567885605E+01  0.14889221281E+02 -0.39870247384E+03  0.40703335970E+03  0.80419002446E+02 0. -1.
<mgrwt>
<rscale>  0 0.81929807E+02</rscale>
<asrwt>0</asrwt>
<pdfrwt beam="1">  1        1 0.99939723E-01 0.81929807E+02</pdfrwt>
<pdfrwt beam="2">  1       -1 0.16871719E-02 0.81929807E+02</pdfrwt>
<totfact> 0.24749461E+04</totfact>
</mgrwt>
</event>
<event>
 4    1  0.5074571E-001  0.1022659E+03  0.7546771E-02  0.1275602E+00
         -2   -1    0    0    0  501 -0.00000000000E+00  0.00000000000E+00  0.37338605017E+01  0.37338605017E+01  0.00000000000E+00 0.  1.
          2   -1    0    0  501    0  0.00000000000E+00 -0.00000000000E+00 -0.29247386852E+04  0.29247386852E+04  0.00000000000E+00 0. -1.
         24    1    1    2    0    0  0.72292356746E+01 -0.62760226146E+02 -0.17617499479E+04  0.17647156152E+04  0.80419002446E+02 0. -1.
        -24    1    1    2    0    0 -0.72292356746E+01  0.62760226146E+02 -0.11592548768E+04  0.11637569304E+04  0.80419002446E+02 0.  1.
<mgrwt>
<rscale>  0 0.10226595E+03</rscale>
<asrwt>0</asrwt>
<pdfrwt beam="1">  1        2 0.44995856E+00 0.10226595E+03</pdfrwt>
<pdfrwt beam="2">  1       -2 0.57444166E-03 0.10226595E+03</pdfrwt>
<totfact> 0.10849003E+04</totfact>
</mgrwt>
</event>
<event>
 4    1  0.5074571E-001  0.8237471E+02  0.7546771E-02  0.1322444E+00
         -1   -1    0    0    0  501 -0.00000000000E+00  0.00000000000E+00  0.35618794004E+02  0.35618794004E+02  0.00000000000E+00 0.  1.
          1   -1    0    0  501    0  0.00000000000E+00 -0.00000000000E+00 -0.28474485906E+03  0.28474485906E+03  0.00000000000E+00 0. -1.
         24    1    1    2    0    0 -0.13289311267E+02 -0.11906767828E+02 -0.32411963726E+02  0.88521908367E+02  0.80419002446E+02 0.  0.
        -24    1    1    2    0    0  0.13289311267E+02  0.11906767828E+02 -0.21671410134E+03  0.23184174470E+03  0.80419002446E+02 0. -1.
<mgrwt>
<rscale>  0 0.82374710E+02</rscale>
<asrwt>0</asrwt>
<pdfrwt beam="1">  1        1 0.43806900E-01 0.82374710E+02</pdfrwt>
<pdfrwt beam="2">  1       -1 0.54798146E-02 0.82374710E+02</pdfrwt>
<totfact> 0.12894255E+04</totfact>
</mgrwt>
</event>
<event>
 4    1  0.5074571E-001  0.9287266E+02  0.7546771E-02  0.1296041E+00
          2   -1    0    0  501    0  0.00000000000E+00  0.00000000000E+00  0.67985999363E+03  0.67985999363E+03  0.00000000000E+00 0. -1.
         -2   -1    0    0    0  501 -0.00000000000E+00 -0.00000000000E+00 -0.14109340902E+02  0.14109340902E+02  0.00000000000E+00 0.  1.
         24    1    1    2    0    0 -0.20274448682E+02 -0.41797812384E+02  0.22270321845E+03  0.24129245710E+03  0.80419002446E+02 0.  1.
        -24    1    1    2    0    0  0.20274448682E+02  0.41797812384E+02  0.44304743428E+03  0.45267687743E+03  0.80419002446E+02 0. -1.
<mgrwt>
<rscale>  0 0.92872647E+02</rscale>
<asrwt>0</asrwt>
<pdfrwt beam="1">  1        2 0.10459382E+00 0.92872658E+02</pdfrwt>
<pdfrwt beam="2">  1       -2 0.21706684E-02 0.92872658E+02</pdfrwt>
<totfact> 0.27007172E+04</totfact>
</mgrwt>
</event>
<event>
 4    1  0.5074571E-001  0.1050588E+03  0.7546771E-02  0.1270004E+00
          1   -1    0    0  501    0  0.00000000000E+00  0.00000000000E+00  0.27341401750E+03  0.27341401750E+03  0.00000000000E+00 0. -1.
         -1   -1    0    0    0  501 -0.00000000000E+00 -0.00000000000E+00 -0.47450319790E+02  0.47450319790E+02  0.00000000000E+00 0.  1.
         24    1    1    2    0    0 -0.96981581232E+01  0.66903443957E+02  0.51003320608E+02  0.11678475822E+03  0.80419002446E+02 0.  1.
        -24    1    1    2    0    0  0.96981581232E+01 -0.66903443957E+02  0.17496037710E+03  0.20407957907E+03  0.80419002446E+02 0. -1.
<mgrwt>
<rscale>  0 0.10505875E+03</rscale>
<asrwt>0</asrwt>
<pdfrwt beam="1">  1        1 0.42063694E-01 0.10505875E+03</pdfrwt>
<pdfrwt beam="2">  1       -1 0.73000494E-02 0.10505875E+03</pdfrwt>
<totfact> 0.90632453E+03</totfact>
</mgrwt>
</event>
<event>
 4    1  0.5074571E-001  0.9812689E+02  0.7546771E-02  0.1284285E+00
          2   -1    0    0  501    0  0.00000000000E+00  0.00000000000E+00  0.64529369054E+03  0.64529369054E+03  0.00000000000E+00 0. -1.
         -2   -1    0    0    0  501 -0.00000000000E+00 -0.00000000000E+00 -0.25644519385E+02  0.25644519385E+02  0.00000000000E+00 0.  1.
         24    1    1    2    0    0  0.27641912516E+01  0.56160752057E+02  0.52674952999E+03  0.53581149122E+03  0.80419002446E+02 0. -1.
        -24    1    1    2    0    0 -0.27641912516E+01 -0.56160752057E+02  0.92899641162E+02  0.13512671870E+03  0.80419002446E+02 0.  1.
<mgrwt>
<rscale>  0 0.98126891E+02</rscale>
<asrwt>0</asrwt>
<pdfrwt beam="1">  1        2 0.99275940E-01 0.98126891E+02</pdfrwt>
<pdfrwt beam="2">  1       -2 0.39453112E-02 0.98126891E+02</pdfrwt>
<totfact> 0.12079449E+04</totfact>
</mgrwt>
</event>
<event>
 4    1  0.5074571E-001  0.8805095E+02  0.7546771E-02  0.1307641E+00
          1   -1    0    0  501    0  0.00000000000E+00  0.00000000000E+00  0.48173181799E+03  0.48173181799E+03  0.00000000000E+00 0. -1.
         -1   -1    0    0    0  501 -0.00000000000E+00 -0.00000000000E+00 -0.17577474176E+02  0.17577474176E+02  0.00000000000E+00 0.  1.
         24    1    1    2    0    0 -0.33347406591E+02  0.13179668135E+02  0.15954873380E+03  0.18223272920E+03  0.80419002446E+02 0.  1.
        -24    1    1    2    0    0  0.33347406591E+02 -0.13179668135E+02  0.30460561001E+03  0.31707656296E+03  0.80419002446E+02 0.  0.
<mgrwt>
<rscale>  0 0.88050946E+02</rscale>
<asrwt>0</asrwt>
<pdfrwt beam="1">  1        1 0.74112577E-01 0.88050946E+02</pdfrwt>
<pdfrwt beam="2">  1       -1 0.27042272E-02 0.88050946E+02</pdfrwt>
<totfact> 0.18852691E+04</totfact>
</mgrwt>
</event>
<event>
 4    1  0.5074571E-001  0.8625859E+02  0.7546771E-02  0.1312174E+00
         -1   -1    0    0    0  501 -0.00000000000E+00  0.00000000000E+00  0.37290985170E+02  0.37290985170E+02  0.00000000000E+00 0.  1.
          1   -1    0    0  501    0  0.00000000000E+00 -0.00000000000E+00 -0.20252345766E+03  0.20252345766E+03  0.00000000000E+00 0. -1.
         24    1    1    2    0    0  0.17583477297E+02 -0.25771022904E+02 -0.97202599005E+02  0.12995724490E+03  0.80419002446E+02 0.  1.
        -24    1    1    2    0    0 -0.17583477297E+02  0.25771022904E+02 -0.68029873485E+02  0.10985719793E+03  0.80419002446E+02 0. -1.
<mgrwt>
<rscale>  0 0.86258577E+02</rscale>
<asrwt>0</asrwt>
<pdfrwt beam="1">  1        1 0.31157455E-01 0.86258588E+02</pdfrwt>
<pdfrwt beam="2">  1       -1 0.57370747E-02 0.86258588E+02</pdfrwt>
<totfact> 0.18346862E+04</totfact>
</mgrwt>
</event>
<event>
 4    1  0.5074571E-001  0.8184768E+02  0.7546771E-02  0.1323888E+00
         -4   -1    0    0    0  501 -0.00000000000E+00  0.00000000000E+00  0.12823720865E+03  0.12823720865E+03  0.00000000000E+00 0.  1.
          4   -1    0    0  501    0  0.00000000000E+00 -0.00000000000E+00 -0.11059610222E+03  0.11059610222E+03  0.00000000000E+00 0. -1.
         24    1    1    2    0    0 -0.67662061680E+01  0.13639819535E+02 -0.77923587791E+02  0.11300941426E+03  0.80419002446E+02 0. -1.
        -24    1    1    2    0    0  0.67662061680E+01 -0.13639819535E+02  0.95564694220E+02  0.12582389661E+03  0.80419002446E+02 0.  1.
<mgrwt>
<rscale>  0 0.81847677E+02</rscale>
<asrwt>0</asrwt>
<pdfrwt beam="1">  1        4 0.17014785E-01 0.81847677E+02</pdfrwt>
<pdfrwt beam="2">  1       -4 0.19728801E-01 0.81847677E+02</pdfrwt>
<totfact> 0.10215998E+03</totfact>
</mgrwt>
</event>
<event>
 4    1  0.5074571E-001  0.9302538E+02  0.7546771E-02  0.1295686E+00
          4   -1    0    0  501    0  0.00000000000E+00  0.00000000000E+00  0.48346018413E+02  0.48346018413E+02  0.00000000000E+00 0. -1.
         -4   -1    0    0    0  501 -0.00000000000E+00 -0.00000000000E+00 -0.22074765274E+03  0.22074765274E+03  0.00000000000E+00 0.  1.
         24    1    1    2    0    0  0.17486746394E+02 -0.43367259334E+02 -0.27686155995E+02  0.97057944908E+02  0.80419002446E+02 0. -1.
        -24    1    1    2    0    0 -0.17486746394E+02  0.43367259334E+02 -0.14471547833E+03  0.17203572624E+03  0.80419002446E+02 0.  1.
<mgrwt>
<rscale>  0 0.93025381E+02</rscale>
<asrwt>0</asrwt>
<pdfrwt beam="1">  1        4 0.74378492E-02 0.93025381E+02</pdfrwt>
<pdfrwt beam="2">  1       -4 0.33961176E-01 0.93025381E+02</pdfrwt>
<totfact> 0.15715089E+03</totfact>
</mgrwt>
</event>
<event>
 4    1  0.5074571E-001  0.9628519E+02  0.7546771E-02  0.1288307E+00
          2   -1    0    0  501    0  0.00000000000E+00  0.00000000000E+00  0.73284051749E+03  0.73284051749E+03  0.00000000000E+00 0. -1.
         -2   -1    0    0    0  501 -0.00000000000E+00 -0.00000000000E+00 -0.12897233330E+02  0.12897233330E+02  0.00000000000E+00 0.  1.
         24    1    1    2    0    0  0.52921466006E+02 -0.17150025589E+01  0.41153889301E+03  0.42265245676E+03  0.80419002446E+02 0.  0.
        -24    1    1    2    0    0 -0.52921466006E+02  0.17150025589E+01  0.30840439116E+03  0.32308529406E+03  0.80419002446E+02 0.  1.
<mgrwt>
<rscale>  0 0.96285195E+02</rscale>
<asrwt>0</asrwt>
<pdfrwt beam="1">  1        2 0.11274466E+00 0.96285195E+02</pdfrwt>
<pdfrwt beam="2">  1       -2 0.19841903E-02 0.96285195E+02</pdfrwt>
<totfact> 0.28249070E+04</totfact>
</mgrwt>
</event>
<event>
 4    1  0.5074571E-001  0.1980073E+03  0.7546771E-02  0.1151431E+00
         -1   -1    0    0    0  501 -0.00000000000E+00  0.00000000000E+00  0.57658792893E+02  0.57658792893E+02  0.00000000000E+00 0.  1.
          1   -1    0    0  501    0  0.00000000000E+00 -0.00000000000E+00 -0.99834233907E+03  0.99834233907E+03  0.00000000000E+00 0. -1.
         24    1    1    2    0    0 -0.15906986185E+03  0.86234884036E+02 -0.17217811755E+03  0.26239702036E+03  0.80419002446E+02 0.  1.
        -24    1    1    2    0    0  0.15906986185E+03 -0.86234884036E+02 -0.76850542863E+03  0.79360411161E+03  0.80419002446E+02 0. -1.
<mgrwt>
<rscale>  0 0.19800730E+03</rscale>
<asrwt>0</asrwt>
<pdfrwt beam="1">  1        1 0.15359111E+00 0.19800730E+03</pdfrwt>
<pdfrwt beam="2">  1       -1 0.88705847E-02 0.19800730E+03</pdfrwt>
<totfact> 0.11799623E+03</totfact>
</mgrwt>
</event>
<event>
 4    1  0.5074571E-001  0.1604332E+03  0.7546771E-02  0.1188209E+00
         -2   -1    0    0    0  501 -0.00000000000E+00  0.00000000000E+00  0.36351206394E+02  0.36351206394E+02  0.00000000000E+00 0.  1.
          2   -1    0    0  501    0  0.00000000000E+00 -0.00000000000E+00 -0.11616796026E+04  0.11616796026E+04  0.00000000000E+00 0. -1.
         24    1    1    2    0    0 -0.72164919518E+02 -0.11859092047E+03 -0.93698262422E+03  0.95061834406E+03  0.80419002446E+02 0. -1.
        -24    1    1    2    0    0  0.72164919518E+02  0.11859092047E+03 -0.18834577203E+03  0.24741246497E+03  0.80419002446E+02 0.  1.
<mgrwt>
<rscale>  0 0.16043316E+03</rscale>
<asrwt>0</asrwt>
<pdfrwt beam="1">  1        2 0.17871990E+00 0.16043316E+03</pdfrwt>
<pdfrwt beam="2">  1       -2 0.55924945E-02 0.16043316E+03</pdfrwt>
<totfact> 0.34324519E+03</totfact>
</mgrwt>
</event>
<event>
 4    1  0.5074571E-001  0.8237626E+02  0.7546771E-02  0.1322440E+00
          1   -1    0    0  501    0  0.00000000000E+00  0.00000000000E+00  0.37195777778E+03  0.37195777778E+03  0.00000000000E+00 0. -1.
         -1   -1    0    0    0  501 -0.00000000000E+00 -0.00000000000E+00 -0.38230822677E+03  0.38230822677E+03  0.00000000000E+00 0.  1.
         24    1    1    2    0    0 -0.15734476613E+02  0.84296128403E+01 -0.37319991830E+03  0.38218323760E+03  0.80419002446E+02 0.  1.
        -24    1    1    2    0    0  0.15734476613E+02 -0.84296128403E+01  0.36284946931E+03  0.37208276695E+03  0.80419002446E+02 0. -1.
<mgrwt>
<rscale>  0 0.82376259E+02</rscale>
<asrwt>0</asrwt>
<pdfrwt beam="1">  1        1 0.57224273E-01 0.82376259E+02</pdfrwt>
<pdfrwt beam="2">  1       -1 0.58816650E-01 0.82376259E+02</pdfrwt>
<totfact> 0.20925864E+02</totfact>
</mgrwt>
</event>
<event>
 4    1  0.5074571E-001  0.8574705E+02  0.7546771E-02  0.1313490E+00
         -1   -1    0    0    0  501 -0.00000000000E+00  0.00000000000E+00  0.14920023039E+03  0.14920023039E+03  0.00000000000E+00 0.  1.
          1   -1    0    0  501    0  0.00000000000E+00 -0.00000000000E+00 -0.13827285403E+03  0.13827285403E+03  0.00000000000E+00 0. -1.
         24    1    1    2    0    0  0.24411617976E+02  0.17012147866E+02  0.12077629925E+03  0.14811978491E+03  0.80419002446E+02 0.  0.
        -24    1    1    2    0    0 -0.24411617976E+02 -0.17012147866E+02 -0.10984892290E+03  0.13935329951E+03  0.80419002446E+02 0. -1.
<mgrwt>
<rscale>  0 0.85747048E+02</rscale>
<asrwt>0</asrwt>
<pdfrwt beam="1">  1        1 0.21272747E-01 0.85747048E+02</pdfrwt>
<pdfrwt beam="2">  1       -1 0.22953882E-01 0.85747048E+02</pdfrwt>
<totfact> 0.35426670E+03</totfact>
</mgrwt>
</event>
<event>
 4    1  0.5074571E-001  0.1070688E+03  0.7546771E-02  0.1266096E+00
          1   -1    0    0  501    0  0.00000000000E+00  0.00000000000E+00  0.11925355374E+03  0.11925355374E+03  0.00000000000E+00 0. -1.
         -1   -1    0    0    0  501 -0.00000000000E+00 -0.00000000000E+00 -0.10439242169E+03  0.10439242169E+03  0.00000000000E+00 0.  1.
         24    1    1    2    0    0  0.13472879170E+02  0.69390230289E+02 -0.24030509270E+02  0.10973241938E+03  0.80419002446E+02 0.  1.
        -24    1    1    2    0    0 -0.13472879170E+02 -0.69390230289E+02  0.38891641327E+02  0.11391355605E+03  0.80419002446E+02 0. -1.
<mgrwt>
<rscale>  0 0.10706885E+03</rscale>
<asrwt>0</asrwt>
<pdfrwt beam="1">  1        1 0.18346701E-01 0.10706885E+03</pdfrwt>
<pdfrwt beam="2">  1       -1 0.16060373E-01 0.10706885E+03</pdfrwt>
<totfact> 0.76407728E+03</totfact>
</mgrwt>
</event>
<event>
 4    1  0.5074571E-001  0.8521533E+02  0.7546771E-02  0.1314870E+00
         -2   -1    0    0    0  501 -0.00000000000E+00  0.00000000000E+00  0.12001051441E+03  0.12001051441E+03  0.00000000000E+00 0.  1.
          2   -1    0    0  501    0  0.00000000000E+00 -0.00000000000E+00 -0.64627252994E+02  0.64627252994E+02  0.00000000000E+00 0. -1.
         24    1    1    2    0    0  0.37574756706E+01 -0.27934171226E+02  0.43856597745E+01  0.85328110910E+02  0.80419002446E+02 0. -1.
        -24    1    1    2    0    0 -0.37574756706E+01  0.27934171226E+02  0.50997601644E+02  0.99309656496E+02  0.80419002446E+02 0.  1.
<mgrwt>
<rscale>  0 0.85215330E+02</rscale>
<asrwt>0</asrwt>
<pdfrwt beam="1">  1        2 0.99426543E-02 0.85215330E+02</pdfrwt>
<pdfrwt beam="2">  1       -2 0.18463156E-01 0.85215330E+02</pdfrwt>
<totfact> 0.13827604E+04</totfact>
</mgrwt>
</event>
<event>
 4    1  0.5074571E-001  0.8076903E+02  0.7546771E-02  0.1326883E+00
          2   -1    0    0  501    0  0.00000000000E+00  0.00000000000E+00  0.34516954266E+04  0.34516954266E+04  0.00000000000E+00 0. -1.
         -2   -1    0    0    0  501 -0.00000000000E+00 -0.00000000000E+00 -0.43921729678E+01  0.43921729678E+01  0.00000000000E+00 0.  1.
         24    1    1    2    0    0  0.18129962274E+01 -0.72893114358E+01  0.30279452979E+04  0.30290223446E+04  0.80419002446E+02 0. -1.
        -24    1    1    2    0    0 -0.18129962274E+01  0.72893114358E+01  0.41935795575E+03  0.42706525499E+03  0.80419002446E+02 0.  1.
<mgrwt>
<rscale>  0 0.80769035E+02</rscale>
<asrwt>0</asrwt>
<pdfrwt beam="1">  1        2 0.53102790E+00 0.80769035E+02</pdfrwt>
<pdfrwt beam="2">  1       -2 0.67572168E-03 0.80769035E+02</pdfrwt>
<totfact> 0.41981319E+03</totfact>
</mgrwt>
</event>
<event>
 4    1  0.5074571E-001  0.9821527E+02  0.7546771E-02  0.1284094E+00
          2   -1    0    0  501    0  0.00000000000E+00  0.00000000000E+00  0.21769836611E+04  0.21769836611E+04  0.00000000000E+00 0. -1.
         -2   -1    0    0    0  501 -0.00000000000E+00 -0.00000000000E+00 -0.77119243566E+01  0.77119243566E+01  0.00000000000E+00 0.  1.
         24    1    1    2    0    0 -0.55617241049E+02 -0.92596090330E+01  0.37214864697E+03  0.38489069781E+03  0.80419002446E+02 0.  0.
        -24    1    1    2    0    0  0.55617241049E+02  0.92596090330E+01  0.17971230898E+04  0.17998048877E+04  0.80419002446E+02 0.  0.
<mgrwt>
<rscale>  0 0.98215255E+02</rscale>
<asrwt>0</asrwt>
<pdfrwt beam="1">  1        2 0.33492007E+00 0.98215267E+02</pdfrwt>
<pdfrwt beam="2">  1       -2 0.11864516E-02 0.98215267E+02</pdfrwt>
<totfact> 0.97159228E+03</totfact>
</mgrwt>
</event>
<event>
 4    1  0.5074571E-001  0.9165691E+02  0.7546771E-02  0.1298888E+00
          3   -1    0    0  501    0  0.00000000000E+00  0.00000000000E+00  0.60316848458E+02  0.60316848458E+02  0.00000000000E+00 0. -1.
         -3   -1    0    0    0  501 -0.00000000000E+00 -0.00000000000E+00 -0.27803074476E+03  0.27803074476E+03  0.00000000000E+00 0.  1.
         24    1    1    2    0    0  0.43595598991E+02 -0.57616855963E+01 -0.22836655730E+03  0.24607371602E+03  0.80419002446E+02 0.  1.
        -24    1    1    2    0    0 -0.43595598991E+02  0.57616855963E+01  0.10652660992E+02  0.92273877197E+02  0.80419002446E+02 0. -1.
<mgrwt>
<rscale>  0 0.91656910E+02</rscale>
<asrwt>0</asrwt>
<pdfrwt beam="1">  1        3 0.92795150E-02 0.91656910E+02</pdfrwt>
<pdfrwt beam="2">  1       -3 0.42773961E-01 0.91656910E+02</pdfrwt>
<totfact> 0.98098713E+02</totfact>
</mgrwt>
</event>
<event>
 4    1  0.5074571E-001  0.8157818E+02  0.7546771E-02  0.1324632E+00
          2   -1    0    0  501    0  0.00000000000E+00  0.00000000000E+00  0.59301890151E+03  0.59301890151E+03  0.00000000000E+00 0. -1.
         -2   -1    0    0    0  501 -0.00000000000E+00 -0.00000000000E+00 -0.14328197949E+02  0.14328197949E+02  0.00000000000E+00 0.  1.
         24    1    1    2    0    0  0.81389304308E+01  0.11024563530E+02  0.43073223406E+03  0.43838938924E+03  0.80419002446E+02 0.  0.
        -24    1    1    2    0    0 -0.81389304308E+01 -0.11024563530E+02  0.14795846950E+03  0.16895771022E+03  0.80419002446E+02 0. -1.
<mgrwt>
<rscale>  0 0.81578178E+02</rscale>
<asrwt>0</asrwt>
<pdfrwt beam="1">  1        2 0.91233658E-01 0.81578178E+02</pdfrwt>
<pdfrwt beam="2">  1       -2 0.22043386E-02 0.81578178E+02</pdfrwt>
<totfact> 0.30414211E+04</totfact>
</mgrwt>
</event>
<event>
 4    1  0.5074571E-001  0.8345331E+02  0.7546771E-02  0.1319528E+00
         -1   -1    0    0    0  501 -0.00000000000E+00  0.00000000000E+00  0.24091296583E+03  0.24091296583E+03  0.00000000000E+00 0.  1.
          1   -1    0    0  501    0  0.00000000000E+00 -0.00000000000E+00 -0.36539646296E+02  0.36539646296E+02  0.00000000000E+00 0. -1.
         24    1    1    2    0    0  0.99756090994E+01  0.19943059965E+02  0.16558369606E+03  0.18542495725E+03  0.80419002446E+02 0.  1.
        -24    1    1    2    0    0 -0.99756090994E+01 -0.19943059965E+02  0.38789623475E+02  0.92027654873E+02  0.80419002446E+02 0. -1.
<mgrwt>
<rscale>  0 0.83453307E+02</rscale>
<asrwt>0</asrwt>
<pdfrwt beam="1">  1        1 0.56214842E-02 0.83453307E+02</pdfrwt>
<pdfrwt beam="2">  1       -1 0.37063532E-01 0.83453307E+02</pdfrwt>
<totfact> 0.90051609E+03</totfact>
</mgrwt>
</event>
<event>
 4    1  0.5074571E-001  0.8599653E+02  0.7546771E-02  0.1312847E+00
         -2   -1    0    0    0  501 -0.00000000000E+00  0.00000000000E+00  0.34314429588E+01  0.34314429588E+01  0.00000000000E+00 0.  1.
          2   -1    0    0  501    0  0.00000000000E+00 -0.00000000000E+00 -0.21593258741E+04  0.21593258741E+04  0.00000000000E+00 0. -1.
         24    1    1    2    0    0 -0.62273327492E+01  0.29822939410E+02 -0.11252871771E+04  0.11285684004E+04  0.80419002446E+02 0.  1.
        -24    1    1    2    0    0  0.62273327492E+01 -0.29822939410E+02 -0.10306072540E+04  0.10341889167E+04  0.80419002446E+02 0. -1.
<mgrwt>
<rscale>  0 0.85996531E+02</rscale>
<asrwt>0</asrwt>
<pdfrwt beam="1">  1        2 0.33220418E+00 0.85996531E+02</pdfrwt>
<pdfrwt beam="2">  1       -2 0.52791398E-03 0.85996531E+02</pdfrwt>
<totfact> 0.30878200E+04</totfact>
</mgrwt>
</event>
<event>
 4    1  0.5074571E-001  0.2081554E+03  0.7546771E-02  0.1143035E+00
         -2   -1    0    0    0  501 -0.00000000000E+00  0.00000000000E+00  0.18690360948E+03  0.18690360948E+03  0.00000000000E+00 0.  1.
          2   -1    0    0  501    0  0.00000000000E+00 -0.00000000000E+00 -0.30989971829E+03  0.30989971829E+03  0.00000000000E+00 0. -1.
         24    1    1    2    0    0 -0.42974437604E+02  0.18712197467E+03 -0.18617990911E+03  0.27926978032E+03  0.80419002446E+02 0. -1.
        -24    1    1    2    0    0  0.42974437604E+02 -0.18712197467E+03  0.63183800289E+02  0.21753354745E+03  0.80419002446E+02 0.  1.
<mgrwt>
<rscale>  0 0.20815535E+03</rscale>
<asrwt>0</asrwt>
<pdfrwt beam="1">  1        2 0.47676879E-01 0.20815535E+03</pdfrwt>
<pdfrwt beam="2">  1       -2 0.28754402E-01 0.20815535E+03</pdfrwt>
<totfact> 0.11618872E+03</totfact>
</mgrwt>
</event>
<event>
 4    1  0.5074571E-001  0.9810729E+02  0.7546771E-02  0.1284327E+00
         -1   -1    0    0    0  501 -0.00000000000E+00  0.00000000000E+00  0.43850632048E+02  0.43850632048E+02  0.00000000000E+00 0.  1.
          1   -1    0    0  501    0  0.00000000000E+00 -0.00000000000E+00 -0.76329600032E+03  0.76329600032E+03  0.00000000000E+00 0. -1.
         24    1    1    2    0    0 -0.29658104902E+02  0.47730709371E+02 -0.19082766663E+02  0.99945944096E+02  0.80419002446E+02 0.  1.
        -24    1    1    2    0    0  0.29658104902E+02 -0.47730709371E+02 -0.70036260161E+03  0.70720068827E+03  0.80419002446E+02 0. -1.
<mgrwt>
<rscale>  0 0.98107287E+02</rscale>
<asrwt>0</asrwt>
<pdfrwt beam="1">  1        1 0.11743014E+00 0.98107287E+02</pdfrwt>
<pdfrwt beam="2">  1       -1 0.67462517E-02 0.98107287E+02</pdfrwt>
<totfact> 0.26896836E+03</totfact>
</mgrwt>
</event>
<event>
 4    1  0.5074571E-001  0.9359356E+02  0.7546771E-02  0.1294376E+00
          2   -1    0    0  501    0  0.00000000000E+00  0.00000000000E+00  0.10212351387E+04  0.10212351387E+04  0.00000000000E+00 0. -1.
         -2   -1    0    0    0  501 -0.00000000000E+00 -0.00000000000E+00 -0.31204612411E+02  0.31204612411E+02  0.00000000000E+00 0.  1.
         24    1    1    2    0    0  0.24197368836E+02 -0.41316164362E+02  0.94311159428E+03  0.94774428688E+03  0.80419002446E+02 0. -1.
        -24    1    1    2    0    0 -0.24197368836E+02  0.41316164362E+02  0.46918932019E+02  0.10469546424E+03  0.80419002446E+02 0.  1.
<mgrwt>
<rscale>  0 0.93593558E+02</rscale>
<asrwt>0</asrwt>
<pdfrwt beam="1">  1        2 0.15711307E+00 0.93593558E+02</pdfrwt>
<pdfrwt beam="2">  1       -2 0.48007104E-02 0.93593558E+02</pdfrwt>
<totfact> 0.51018163E+03</totfact>
</mgrwt>
</event>
<event>
 4    1  0.5074571E-001  0.8447886E+02  0.7546771E-02  0.1316801E+00
         -2   -1    0    0    0  501 -0.00000000000E+00  0.00000000000E+00  0.13351784413E+02  0.13351784413E+02  0.00000000000E+00 0.  1.
          2   -1    0    0  501    0  0.00000000000E+00 -0.00000000000E+00 -0.60045357978E+03  0.60045357978E+03  0.00000000000E+00 0. -1.
         24    1    1    2    0    0  0.10155855235E+02 -0.23797471376E+02 -0.39525620048E+03  0.40418330125E+03  0.80419002446E+02 0.  0.
        -24    1    1    2    0    0 -0.10155855235E+02  0.23797471376E+02 -0.19184559489E+03  0.20962206294E+03  0.80419002446E+02 0. -1.
<mgrwt>
<rscale>  0 0.84478855E+02</rscale>
<asrwt>0</asrwt>
<pdfrwt beam="1">  1        2 0.92377483E-01 0.84478855E+02</pdfrwt>
<pdfrwt beam="2">  1       -2 0.20541205E-02 0.84478855E+02</pdfrwt>
<totfact> 0.33323884E+04</totfact>
</mgrwt>
</event>
<event>
 4    1  0.5074571E-001  0.8288056E+02  0.7546771E-02  0.1321070E+00
         -1   -1    0    0    0  501 -0.00000000000E+00  0.00000000000E+00  0.58263269953E+01  0.58263269953E+01  0.00000000000E+00 0.  1.
          1   -1    0    0  501    0  0.00000000000E+00 -0.00000000000E+00 -0.12121535665E+04  0.12121535665E+04  0.00000000000E+00 0. -1.
         24    1    1    2    0    0  0.59837529401E+01  0.19135445832E+02 -0.50243428021E+03  0.50922430468E+03  0.80419002446E+02 0.  1.
        -24    1    1    2    0    0 -0.59837529401E+01 -0.19135445832E+02 -0.70389295931E+03  0.70875558884E+03  0.80419002446E+02 0. -1.
<mgrwt>
<rscale>  0 0.82880556E+02</rscale>
<asrwt>0</asrwt>
<pdfrwt beam="1">  1        1 0.18648496E+00 0.82880556E+02</pdfrwt>
<pdfrwt beam="2">  1       -1 0.89635896E-03 0.82880556E+02</pdfrwt>
<totfact> 0.22701582E+04</totfact>
</mgrwt>
</event>
<event>
 4    1  0.5074571E-001  0.1203679E+03  0.7546771E-02  0.1242491E+00
          4   -1    0    0  501    0  0.00000000000E+00  0.00000000000E+00  0.24797200559E+02  0.24797200559E+02  0.00000000000E+00 0. -1.
         -4   -1    0    0    0  501 -0.00000000000E+00 -0.00000000000E+00 -0.58663428836E+03  0.58663428836E+03  0.00000000000E+00 0.  1.
         24    1    1    2    0    0 -0.44784152798E+02 -0.77560190759E+02 -0.30030034643E+03  0.32352545116E+03  0.80419002446E+02 0.  1.
        -24    1    1    2    0    0  0.44784152798E+02  0.77560190759E+02 -0.26153674137E+03  0.28790603775E+03  0.80419002446E+02 0.  0.
<mgrwt>
<rscale>  0 0.12036787E+03</rscale>
<asrwt>0</asrwt>
<pdfrwt beam="1">  1        4 0.38149540E-02 0.12036788E+03</pdfrwt>
<pdfrwt beam="2">  1       -4 0.90251427E-01 0.12036788E+03</pdfrwt>
<totfact> 0.64644960E+02</totfact>
</mgrwt>
</event>
<event>
 4    1  0.5074571E-001  0.8600099E+02  0.7546771E-02  0.1312835E+00
          2   -1    0    0  501    0  0.00000000000E+00  0.00000000000E+00  0.50076753656E+02  0.50076753656E+02  0.00000000000E+00 0. -1.
         -2   -1    0    0    0  501 -0.00000000000E+00 -0.00000000000E+00 -0.23190164524E+03  0.23190164524E+03  0.00000000000E+00 0.  1.
         24    1    1    2    0    0 -0.17824616108E+02  0.24723231190E+02 -0.59547472208E+01  0.86206902674E+02  0.80419002446E+02 0. -1.
        -24    1    1    2    0    0  0.17824616108E+02 -0.24723231190E+02 -0.17587014436E+03  0.19577149622E+03  0.80419002446E+02 0.  1.
<mgrwt>
<rscale>  0 0.86000994E+02</rscale>
<asrwt>0</asrwt>
<pdfrwt beam="1">  1        2 0.77041159E-02 0.86000994E+02</pdfrwt>
<pdfrwt beam="2">  1       -2 0.35677176E-01 0.86000994E+02</pdfrwt>
<totfact> 0.60210876E+03</totfact>
</mgrwt>
</event>
<event>
 4    1  0.5074571E-001  0.8821429E+02  0.7546771E-02  0.1307235E+00
         -4   -1    0    0    0  501 -0.00000000000E+00  0.00000000000E+00  0.56745461511E+02  0.56745461511E+02  0.00000000000E+00 0.  1.
          4   -1    0    0  501    0  0.00000000000E+00 -0.00000000000E+00 -0.17939106256E+03  0.17939106256E+03  0.00000000000E+00 0. -1.
         24    1    1    2    0    0 -0.68910464034E+01  0.35595763801E+02 -0.11862612486E+03  0.14783070849E+03  0.80419002446E+02 0. -1.
        -24    1    1    2    0    0  0.68910464034E+01 -0.35595763801E+02 -0.40194761909E+01  0.88305815575E+02  0.80419002446E+02 0.  1.
<mgrwt>
<rscale>  0 0.88214290E+02</rscale>
<asrwt>0</asrwt>
<pdfrwt beam="1">  1        4 0.27598624E-01 0.88214290E+02</pdfrwt>
<pdfrwt beam="2">  1       -4 0.87300712E-02 0.88214290E+02</pdfrwt>
<totfact> 0.17590541E+03</totfact>
</mgrwt>
</event>
<event>
 4    1  0.5074571E-001  0.1080239E+03  0.7546771E-02  0.1264274E+00
         -2   -1    0    0    0  501 -0.00000000000E+00  0.00000000000E+00  0.90295260607E+02  0.90295260607E+02  0.00000000000E+00 0.  1.
          2   -1    0    0  501    0  0.00000000000E+00 -0.00000000000E+00 -0.14395093186E+03  0.14395093186E+03  0.00000000000E+00 0. -1.
         24    1    1    2    0    0  0.46429472802E+02 -0.55192909832E+02 -0.64277839888E+02  0.12570127245E+03  0.80419002446E+02 0. -1.
        -24    1    1    2    0    0 -0.46429472802E+02  0.55192909832E+02  0.10622168637E+02  0.10854492002E+03  0.80419002446E+02 0.  0.
<mgrwt>
<rscale>  0 0.10802393E+03</rscale>
<asrwt>0</asrwt>
<pdfrwt beam="1">  1        2 0.22146297E-01 0.10802393E+03</pdfrwt>
<pdfrwt beam="2">  1       -2 0.13891579E-01 0.10802393E+03</pdfrwt>
<totfact> 0.88900356E+03</totfact>
</mgrwt>
</event>
<event>
 4    1  0.5074571E-001  0.8655172E+02  0.7546771E-02  0.1311424E+00
          4   -1    0    0  501    0  0.00000000000E+00  0.00000000000E+00  0.57456702054E+02  0.57456702054E+02  0.00000000000E+00 0. -1.
         -4   -1    0    0    0  501 -0.00000000000E+00 -0.00000000000E+00 -0.21216364685E+03  0.21216364685E+03  0.00000000000E+00 0.  1.
         24    1    1    2    0    0 -0.35430292154E+01 -0.31803006176E+02  0.63455978332E+01  0.86784024014E+02  0.80419002446E+02 0. -1.
        -24    1    1    2    0    0  0.35430292154E+01  0.31803006176E+02 -0.16105254263E+03  0.18283632489E+03  0.80419002446E+02 0.  1.
<mgrwt>
<rscale>  0 0.86551720E+02</rscale>
<asrwt>0</asrwt>
<pdfrwt beam="1">  1        4 0.88394926E-02 0.86551720E+02</pdfrwt>
<pdfrwt beam="2">  1       -4 0.32640561E-01 0.86551720E+02</pdfrwt>
<totfact> 0.12524524E+03</totfact>
</mgrwt>
</event>
<event>
 4    1  0.5074571E-001  0.1125215E+03  0.7546771E-02  0.1255970E+00
         -1   -1    0    0    0  501 -0.00000000000E+00  0.00000000000E+00  0.54265380863E+02  0.54265380863E+02  0.00000000000E+00 0.  1.
          1   -1    0    0  501    0  0.00000000000E+00 -0.00000000000E+00 -0.68891674611E+03  0.68891674611E+03  0.00000000000E+00 0. -1.
         24    1    1    2    0    0  0.34358275886E+02 -0.70805238096E+02 -0.15140502466E+02  0.11353556109E+03  0.80419002446E+02 0.  1.
        -24    1    1    2    0    0 -0.34358275886E+02  0.70805238096E+02 -0.61951086278E+03  0.62964656588E+03  0.80419002446E+02 0. -1.
<mgrwt>
<rscale>  0 0.11252150E+03</rscale>
<asrwt>0</asrwt>
<pdfrwt beam="1">  1        1 0.10598719E+00 0.11252150E+03</pdfrwt>
<pdfrwt beam="2">  1       -1 0.83485206E-02 0.11252150E+03</pdfrwt>
<totfact> 0.22762908E+03</totfact>
</mgrwt>
</event>
<event>
 4    1  0.5074571E-001  0.8613561E+02  0.7546771E-02  0.1312489E+00
          2   -1    0    0  501    0  0.00000000000E+00  0.00000000000E+00  0.11870745699E+03  0.11870745699E+03  0.00000000000E+00 0. -1.
         -2   -1    0    0    0  501 -0.00000000000E+00 -0.00000000000E+00 -0.78735952709E+02  0.78735952709E+02  0.00000000000E+00 0.  1.
         24    1    1    2    0    0 -0.19660100001E+02  0.23782513881E+02  0.64813883806E+02  0.10779695259E+03  0.80419002446E+02 0. -1.
        -24    1    1    2    0    0  0.19660100001E+02 -0.23782513881E+02 -0.24842379523E+02  0.89646457115E+02  0.80419002446E+02 0.  1.
<mgrwt>
<rscale>  0 0.86135611E+02</rscale>
<asrwt>0</asrwt>
<pdfrwt beam="1">  1        2 0.18262686E-01 0.86135611E+02</pdfrwt>
<pdfrwt beam="2">  1       -2 0.12113224E-01 0.86135611E+02</pdfrwt>
<totfact> 0.13436640E+04</totfact>
</mgrwt>
</event>
<event>
 4    1  0.5074571E-001  0.9502798E+02  0.7546771E-02  0.1291113E+00
         -2   -1    0    0    0  501 -0.00000000000E+00  0.00000000000E+00  0.87140258638E+03  0.87140258638E+03  0.00000000000E+00 0.  1.
          2   -1    0    0  501    0  0.00000000000E+00 -0.00000000000E+00 -0.14035786177E+02  0.14035786177E+02  0.00000000000E+00 0. -1.
         24    1    1    2    0    0  0.44118943187E+02  0.24831841806E+02  0.20221393075E+03  0.22342961142E+03  0.80419002446E+02 0. -1.
        -24    1    1    2    0    0 -0.44118943187E+02 -0.24831841806E+02  0.65515286945E+03  0.66200876114E+03  0.80419002446E+02 0.  1.
<mgrwt>
<rscale>  0 0.95027983E+02</rscale>
<asrwt>0</asrwt>
<pdfrwt beam="1">  1        2 0.21593524E-02 0.95027983E+02</pdfrwt>
<pdfrwt beam="2">  1       -2 0.13406189E+00 0.95027983E+02</pdfrwt>
<totfact> 0.19362785E+03</totfact>
</mgrwt>
</event>
<event>
 4    1  0.5074571E-001  0.9016830E+02  0.7546771E-02  0.1302445E+00
         -4   -1    0    0    0  501 -0.00000000000E+00  0.00000000000E+00  0.19036420260E+02  0.19036420260E+02  0.00000000000E+00 0.  1.
          4   -1    0    0  501    0  0.00000000000E+00 -0.00000000000E+00 -0.43692170859E+03  0.43692170859E+03  0.00000000000E+00 0. -1.
         24    1    1    2    0    0 -0.33595370284E+02  0.23118345355E+02 -0.24313588973E+03  0.25931714873E+03  0.80419002446E+02 0.  1.
        -24    1    1    2    0    0  0.33595370284E+02 -0.23118345355E+02 -0.17474939860E+03  0.19664098012E+03  0.80419002446E+02 0. -1.
<mgrwt>
<rscale>  0 0.90168302E+02</rscale>
<asrwt>0</asrwt>
<pdfrwt beam="1">  1        4 0.67218729E-01 0.90168302E+02</pdfrwt>
<pdfrwt beam="2">  1       -4 0.29286799E-02 0.90168302E+02</pdfrwt>
<totfact> 0.17411329E+03</totfact>
</mgrwt>
</event>
<event>
 4    1  0.5074571E-001  0.8538417E+02  0.7546771E-02  0.1314431E+00
         -1   -1    0    0    0  501 -0.00000000000E+00  0.00000000000E+00  0.87657289664E+01  0.87657289664E+01  0.00000000000E+00 0.  1.
          1   -1    0    0  501    0  0.00000000000E+00 -0.00000000000E+00 -0.98100891039E+03  0.98100891039E+03  0.00000000000E+00 0. -1.
         24    1    1    2    0    0  0.26414206287E+02  0.11204000648E+02 -0.29305245031E+03  0.30523793098E+03  0.80419002446E+02 0.  1.
        -24    1    1    2    0    0 -0.26414206287E+02 -0.11204000648E+02 -0.67919073112E+03  0.68453670837E+03  0.80419002446E+02 0. -1.
<mgrwt>
<rscale>  0 0.85384166E+02</rscale>
<asrwt>0</asrwt>
<pdfrwt beam="1">  1        1 0.15092446E+00 0.85384166E+02</pdfrwt>
<pdfrwt beam="2">  1       -1 0.13485736E-02 0.85384166E+02</pdfrwt>
<totfact> 0.18510479E+04</totfact>
</mgrwt>
</event>
<event>
 4    1  0.5074571E-001  0.1060792E+03  0.7546771E-02  0.1268008E+00
          2   -1    0    0  501    0  0.00000000000E+00  0.00000000000E+00  0.14332667207E+03  0.14332667207E+03  0.00000000000E+00 0. -1.
         -2   -1    0    0    0  501 -0.00000000000E+00 -0.00000000000E+00 -0.96505225925E+02  0.96505225925E+02  0.00000000000E+00 0.  1.
         24    1    1    2    0    0 -0.14601449514E+02 -0.67619303929E+02  0.75190762336E+02  0.13002476413E+03  0.80419002446E+02 0. -1.
        -24    1    1    2    0    0  0.14601449514E+02  0.67619303929E+02 -0.28369316193E+02  0.10980713386E+03  0.80419002446E+02 0.  1.
<mgrwt>
<rscale>  0 0.10607916E+03</rscale>
<asrwt>0</asrwt>
<pdfrwt beam="1">  1        2 0.22050257E-01 0.10607916E+03</pdfrwt>
<pdfrwt beam="2">  1       -2 0.14846958E-01 0.10607916E+03</pdfrwt>
<totfact> 0.80099493E+03</totfact>
</mgrwt>
</event>
<event>
 4    1  0.5074571E-001  0.8209644E+02  0.7546771E-02  0.1323205E+00
         -2   -1    0    0    0  501 -0.00000000000E+00  0.00000000000E+00  0.41990981924E+02  0.41990981924E+02  0.00000000000E+00 0.  1.
          2   -1    0    0  501    0  0.00000000000E+00 -0.00000000000E+00 -0.16268503518E+03  0.16268503518E+03  0.00000000000E+00 0. -1.
         24    1    1    2    0    0 -0.12025993150E+02  0.11313037065E+02 -0.72189599901E+02  0.10932137763E+03  0.80419002446E+02 0. -1.
        -24    1    1    2    0    0  0.12025993150E+02 -0.11313037065E+02 -0.48504453351E+02  0.95354639468E+02  0.80419002446E+02 0.  1.
<mgrwt>
<rscale>  0 0.82096439E+02</rscale>
<asrwt>0</asrwt>
<pdfrwt beam="1">  1        2 0.25028467E-01 0.82096439E+02</pdfrwt>
<pdfrwt beam="2">  1       -2 0.64601510E-02 0.82096439E+02</pdfrwt>
<totfact> 0.24807433E+04</totfact>
</mgrwt>
</event>
<event>
 4    1  0.5074571E-001  0.1095128E+03  0.7546771E-02  0.1261475E+00
          1   -1    0    0  501    0  0.00000000000E+00  0.00000000000E+00  0.73207015721E+03  0.73207015721E+03  0.00000000000E+00 0. -1.
         -1   -1    0    0    0  501 -0.00000000000E+00 -0.00000000000E+00 -0.16687136517E+02  0.16687136517E+02  0.00000000000E+00 0.  1.
         24    1    1    2    0    0  0.58608576428E+02 -0.45725914781E+02  0.40828648714E+03  0.42271845956E+03  0.80419002446E+02 0.  1.
        -24    1    1    2    0    0 -0.58608576428E+02  0.45725914781E+02  0.30709653355E+03  0.32603883417E+03  0.80419002446E+02 0. -1.
<mgrwt>
<rscale>  0 0.10951275E+03</rscale>
<asrwt>0</asrwt>
<pdfrwt beam="1">  1        1 0.11262615E+00 0.10951277E+03</pdfrwt>
<pdfrwt beam="2">  1       -1 0.25672523E-02 0.10951277E+03</pdfrwt>
<totfact> 0.11790241E+04</totfact>
</mgrwt>
</event>
<event>
 4    1  0.5074571E-001  0.9596670E+02  0.7546771E-02  0.1289014E+00
          2   -1    0    0  501    0  0.00000000000E+00  0.00000000000E+00  0.49358834847E+03  0.49358834847E+03  0.00000000000E+00 0. -1.
         -2   -1    0    0    0  501 -0.00000000000E+00 -0.00000000000E+00 -0.25255595947E+02  0.25255595947E+02  0.00000000000E+00 0.  1.
         24    1    1    2    0    0  0.23348750047E+02 -0.46874582726E+02  0.36675465136E+03  0.37910233563E+03  0.80419002446E+02 0. -1.
        -24    1    1    2    0    0 -0.23348750047E+02  0.46874582726E+02  0.10157810116E+03  0.13974160878E+03  0.80419002446E+02 0.  1.
<mgrwt>
<rscale>  0 0.95966695E+02</rscale>
<asrwt>0</asrwt>
<pdfrwt beam="1">  1        2 0.75936662E-01 0.95966695E+02</pdfrwt>
<pdfrwt beam="2">  1       -2 0.38854767E-02 0.95966695E+02</pdfrwt>
<totfact> 0.16597836E+04</totfact>
</mgrwt>
</event>
<event>
 4    1  0.5074571E-001  0.8513887E+02  0.7546771E-02  0.1315070E+00
         -2   -1    0    0    0  501 -0.00000000000E+00  0.00000000000E+00  0.56586572991E+02  0.56586572991E+02  0.00000000000E+00 0.  1.
          2   -1    0    0  501    0  0.00000000000E+00 -0.00000000000E+00 -0.32396768208E+03  0.32396768208E+03  0.00000000000E+00 0. -1.
         24    1    1    2    0    0 -0.15940338511E+02  0.22963365767E+02 -0.28164204945E+03  0.29422928225E+03  0.80419002446E+02 0. -1.
        -24    1    1    2    0    0  0.15940338511E+02 -0.22963365767E+02  0.14260940358E+02  0.86324972826E+02  0.80419002446E+02 0.  1.
<mgrwt>
<rscale>  0 0.85138866E+02</rscale>
<asrwt>0</asrwt>
<pdfrwt beam="1">  1        2 0.49841183E-01 0.85138866E+02</pdfrwt>
<pdfrwt beam="2">  1       -2 0.87056265E-02 0.85138866E+02</pdfrwt>
<totfact> 0.76453595E+03</totfact>
</mgrwt>
</event>
<event>
 4    1  0.5074571E-001  0.8643125E+02  0.7546771E-02  0.1311732E+00
          1   -1    0    0  501    0  0.00000000000E+00  0.00000000000E+00  0.19764894410E+04  0.19764894410E+04  0.00000000000E+00 0. -1.
         -1   -1    0    0    0  501 -0.00000000000E+00 -0.00000000000E+00 -0.43988715679E+01  0.43988715679E+01  0.00000000000E+00 0.  1.
         24    1    1    2    0    0  0.40979894776E+01  0.31406246603E+02  0.61442794855E+03  0.62047728867E+03  0.80419002446E+02 0.  1.
        -24    1    1    2    0    0 -0.40979894776E+01 -0.31406246603E+02  0.13576626209E+04  0.13604110239E+04  0.80419002446E+02 0. -1.
<mgrwt>
<rscale>  0 0.86431255E+02</rscale>
<asrwt>0</asrwt>
<pdfrwt beam="1">  1        1 0.30407459E+00 0.86431255E+02</pdfrwt>
<pdfrwt beam="2">  1       -1 0.67675105E-03 0.86431255E+02</pdfrwt>
<totfact> 0.11026826E+04</totfact>
</mgrwt>
</event>
<event>
 4    1  0.5074571E-001  0.1043468E+03  0.7546771E-02  0.1271412E+00
          2   -1    0    0  501    0  0.00000000000E+00  0.00000000000E+00  0.93346666064E+03  0.93346666064E+03  0.00000000000E+00 0. -1.
         -2   -1    0    0    0  501 -0.00000000000E+00 -0.00000000000E+00 -0.40611595758E+02  0.40611595758E+02  0.00000000000E+00 0.  1.
         24    1    1    2    0    0  0.58106170016E+02 -0.32321939951E+02  0.85761767996E+03  0.86394232200E+03  0.80419002446E+02 0. -1.
        -24    1    1    2    0    0 -0.58106170016E+02  0.32321939951E+02  0.35237384917E+02  0.11013593440E+03  0.80419002446E+02 0.  1.
<mgrwt>
<rscale>  0 0.10434678E+03</rscale>
<asrwt>0</asrwt>
<pdfrwt beam="1">  1        2 0.14361024E+00 0.10434678E+03</pdfrwt>
<pdfrwt beam="2">  1       -2 0.62479385E-02 0.10434678E+03</pdfrwt>
<totfact> 0.38971646E+03</totfact>
</mgrwt>
</event>
<event>
 4    1  0.5074571E-001  0.1224140E+03  0.7546771E-02  0.1239167E+00
         -1   -1    0    0    0  501 -0.00000000000E+00  0.00000000000E+00  0.44144440636E+03  0.44144440636E+03  0.00000000000E+00 0.  1.
          1   -1    0    0  501    0  0.00000000000E+00 -0.00000000000E+00 -0.48807501215E+02  0.48807501215E+02  0.00000000000E+00 0. -1.
         24    1    1    2    0    0  0.81562233277E+02  0.43192057756E+02  0.61054897897E+02  0.13679498625E+03  0.80419002446E+02 0. -1.
        -24    1    1    2    0    0 -0.81562233277E+02 -0.43192057756E+02  0.33158200725E+03  0.35345692133E+03  0.80419002446E+02 0.  1.
<mgrwt>
<rscale>  0 0.12241393E+03</rscale>
<asrwt>0</asrwt>
<pdfrwt beam="1">  1        1 0.75088467E-02 0.12241395E+03</pdfrwt>
<pdfrwt beam="2">  1       -1 0.67914521E-01 0.12241395E+03</pdfrwt>
<totfact> 0.20872732E+03</totfact>
</mgrwt>
</event>
<event>
 4    1  0.5074571E-001  0.8334033E+02  0.7546771E-02  0.1319831E+00
          1   -1    0    0  501    0  0.00000000000E+00  0.00000000000E+00  0.33868466291E+02  0.33868466291E+02  0.00000000000E+00 0. -1.
         -1   -1    0    0    0  501 -0.00000000000E+00 -0.00000000000E+00 -0.56259492232E+03  0.56259492232E+03  0.00000000000E+00 0.  1.
         24    1    1    2    0    0 -0.21597671685E+02  0.34547855506E+01 -0.50210493917E+03  0.50897444028E+03  0.80419002446E+02 0.  0.
        -24    1    1    2    0    0  0.21597671685E+02 -0.34547855506E+01 -0.26621516856E+02  0.87488948328E+02  0.80419002446E+02 0. -1.
<mgrwt>
<rscale>  0 0.83340332E+02</rscale>
<asrwt>0</asrwt>
<pdfrwt beam="1">  1        1 0.52105334E-02 0.83340332E+02</pdfrwt>
<pdfrwt beam="2">  1       -1 0.86553062E-01 0.83340332E+02</pdfrwt>
<totfact> 0.20529316E+03</totfact>
</mgrwt>
</event>
<event>
 4    1  0.5074571E-001  0.1017278E+03  0.7546771E-02  0.1276704E+00
          1   -1    0    0  501    0  0.00000000000E+00  0.00000000000E+00  0.82060836560E+03  0.82060836560E+03  0.00000000000E+00 0. -1.
         -1   -1    0    0    0  501 -0.00000000000E+00 -0.00000000000E+00 -0.13388330469E+02  0.13388330469E+02  0.00000000000E+00 0.  1.
         24    1    1    2    0    0  0.58554018418E+02 -0.21278055768E+02  0.50410031802E+03  0.51426226316E+03  0.80419002446E+02 0. -1.
        -24    1    1    2    0    0 -0.58554018418E+02  0.21278055768E+02  0.30311971711E+03  0.31973443290E+03  0.80419002446E+02 0.  1.
<mgrwt>
<rscale>  0 0.10172781E+03</rscale>
<asrwt>0</asrwt>
<pdfrwt beam="1">  1        1 0.12624740E+00 0.10172782E+03</pdfrwt>
<pdfrwt beam="2">  1       -1 0.20597438E-02 0.10172782E+03</pdfrwt>
<totfact> 0.13600083E+04</totfact>
</mgrwt>
</event>
<event>
 4    1  0.5074571E-001  0.9270765E+02  0.7546771E-02  0.1296424E+00
         -2   -1    0    0    0  501 -0.00000000000E+00  0.00000000000E+00  0.22778126026E+02  0.22778126026E+02  0.00000000000E+00 0.  1.
          2   -1    0    0  501    0  0.00000000000E+00 -0.00000000000E+00 -0.98635648993E+03  0.98635648993E+03  0.00000000000E+00 0. -1.
         24    1    1    2    0    0 -0.40683450398E+02 -0.21733599996E+02 -0.87827054671E+03  0.88314996557E+03  0.80419002446E+02 0. -1.
        -24    1    1    2    0    0  0.40683450398E+02  0.21733599996E+02 -0.85307817190E+02  0.12598465039E+03  0.80419002446E+02 0.  1.
<mgrwt>
<rscale>  0 0.92707650E+02</rscale>
<asrwt>0</asrwt>
<pdfrwt beam="1">  1        2 0.15174715E+00 0.92707650E+02</pdfrwt>
<pdfrwt beam="2">  1       -2 0.35043271E-02 0.92707650E+02</pdfrwt>
<totfact> 0.84979697E+03</totfact>
</mgrwt>
</event>
<event>
 4    1  0.5074571E-001  0.9022289E+02  0.7546771E-02  0.1302313E+00
          2   -1    0    0  501    0  0.00000000000E+00  0.00000000000E+00  0.52174067572E+03  0.52174067572E+03  0.00000000000E+00 0. -1.
         -2   -1    0    0    0  501 -0.00000000000E+00 -0.00000000000E+00 -0.27626307305E+02  0.27626307305E+02  0.00000000000E+00 0.  1.
         24    1    1    2    0    0 -0.33860016015E+02  0.22944555154E+02  0.42827553314E+03  0.43767579500E+03  0.80419002446E+02 0. -1.
        -24    1    1    2    0    0  0.33860016015E+02 -0.22944555154E+02  0.65838835275E+02  0.11169118802E+03  0.80419002446E+02 0.  1.
<mgrwt>
<rscale>  0 0.90222887E+02</rscale>
<asrwt>0</asrwt>
<pdfrwt beam="1">  1        2 0.80267789E-01 0.90222887E+02</pdfrwt>
<pdfrwt beam="2">  1       -2 0.42502015E-02 0.90222887E+02</pdfrwt>
<totfact> 0.13619673E+04</totfact>
</mgrwt>
</event>
<event>
 4    1  0.5074571E-001  0.1324633E+03  0.7546771E-02  0.1223846E+00
         -1   -1    0    0    0  501 -0.00000000000E+00  0.00000000000E+00  0.48537352937E+02  0.48537352937E+02  0.00000000000E+00 0.  1.
          1   -1    0    0  501    0  0.00000000000E+00 -0.00000000000E+00 -0.42277880303E+03  0.42277880303E+03  0.00000000000E+00 0. -1.
         24    1    1    2    0    0 -0.64690602563E+02 -0.83032678310E+02 -0.97406420813E+02  0.16442179447E+03  0.80419002446E+02 0.  1.
        -24    1    1    2    0    0  0.64690602563E+02  0.83032678310E+02 -0.27683502928E+03  0.30689436150E+03  0.80419002446E+02 0. -1.
<mgrwt>
<rscale>  0 0.13246326E+03</rscale>
<asrwt>0</asrwt>
<pdfrwt beam="1">  1        1 0.65042897E-01 0.13246326E+03</pdfrwt>
<pdfrwt beam="2">  1       -1 0.74672846E-02 0.13246326E+03</pdfrwt>
<totfact> 0.51814155E+03</totfact>
</mgrwt>
</event>
<event>
 4    1  0.5074571E-001  0.8631931E+02  0.7546771E-02  0.1312018E+00
          2   -1    0    0  501    0  0.00000000000E+00  0.00000000000E+00  0.24736633972E+03  0.24736633972E+03  0.00000000000E+00 0. -1.
         -2   -1    0    0    0  501 -0.00000000000E+00 -0.00000000000E+00 -0.24602790797E+03  0.24602790797E+03  0.00000000000E+00 0.  1.
         24    1    1    2    0    0 -0.28611325925E+02 -0.12852961206E+02  0.23177177654E+03  0.24732403631E+03  0.80419002446E+02 0. -1.
        -24    1    1    2    0    0  0.28611325925E+02  0.12852961206E+02 -0.23043334479E+03  0.24607021138E+03  0.80419002446E+02 0.  1.
<mgrwt>
<rscale>  0 0.86319306E+02</rscale>
<asrwt>0</asrwt>
<pdfrwt beam="1">  1        2 0.38056360E-01 0.86319306E+02</pdfrwt>
<pdfrwt beam="2">  1       -2 0.37850447E-01 0.86319306E+02</pdfrwt>
<totfact> 0.87555160E+02</totfact>
</mgrwt>
</event>
<event>
 4    1  0.5074571E-001  0.9493187E+02  0.7546771E-02  0.1291330E+00
          2   -1    0    0  501    0  0.00000000000E+00  0.00000000000E+00  0.12694559217E+04  0.12694559217E+04  0.00000000000E+00 0. -1.
         -2   -1    0    0    0  501 -0.00000000000E+00 -0.00000000000E+00 -0.80260316991E+01  0.80260316991E+01  0.00000000000E+00 0.  1.
         24    1    1    2    0    0 -0.28052939523E+02 -0.41927047179E+02  0.84777804814E+03  0.85307659654E+03  0.80419002446E+02 0. -1.
        -24    1    1    2    0    0  0.28052939523E+02  0.41927047179E+02  0.41365184183E+03  0.42440535683E+03  0.80419002446E+02 0.  1.
<mgrwt>
<rscale>  0 0.94931874E+02</rscale>
<asrwt>0</asrwt>
<pdfrwt beam="1">  1        2 0.19530075E+00 0.94931874E+02</pdfrwt>
<pdfrwt beam="2">  1       -2 0.12347751E-02 0.94931874E+02</pdfrwt>
<totfact> 0.26571408E+04</totfact>
</mgrwt>
</event>
<event>
 4    1  0.5074571E-001  0.9011853E+02  0.7546771E-02  0.1302565E+00
          1   -1    0    0  501    0  0.00000000000E+00  0.00000000000E+00  0.40439251375E+03  0.40439251375E+03  0.00000000000E+00 0. -1.
         -1   -1    0    0    0  501 -0.00000000000E+00 -0.00000000000E+00 -0.99060343804E+02  0.99060343804E+02  0.00000000000E+00 0.  1.
         24    1    1    2    0    0  0.20648350326E+02 -0.35039680930E+02 -0.72099908717E+02  0.11541120571E+03  0.80419002446E+02 0.  1.
        -24    1    1    2    0    0 -0.20648350326E+02  0.35039680930E+02  0.37743207866E+03  0.38804165185E+03  0.80419002446E+02 0. -1.
<mgrwt>
<rscale>  0 0.90118531E+02</rscale>
<asrwt>0</asrwt>
<pdfrwt beam="1">  1        1 0.62214232E-01 0.90118531E+02</pdfrwt>
<pdfrwt beam="2">  1       -1 0.15240053E-01 0.90118531E+02</pdfrwt>
<totfact> 0.18140307E+03</totfact>
</mgrwt>
</event>
<event>
 4    1  0.5074571E-001  0.1116717E+03  0.7546771E-02  0.1257505E+00
          1   -1    0    0  501    0  0.00000000000E+00  0.00000000000E+00  0.55314237925E+03  0.55314237925E+03  0.00000000000E+00 0. -1.
         -1   -1    0    0    0  501 -0.00000000000E+00 -0.00000000000E+00 -0.29331188081E+02  0.29331188081E+02  0.00000000000E+00 0.  1.
         24    1    1    2    0    0  0.64980493162E+02 -0.42200596036E+02  0.12181926998E+03  0.16525890381E+03  0.80419002446E+02 0.  1.
        -24    1    1    2    0    0 -0.64980493162E+02  0.42200596036E+02  0.40199192119E+03  0.41721466352E+03  0.80419002446E+02 0. -1.
<mgrwt>
<rscale>  0 0.11167171E+03</rscale>
<asrwt>0</asrwt>
<pdfrwt beam="1">  1        1 0.85098820E-01 0.11167171E+03</pdfrwt>
<pdfrwt beam="2">  1       -1 0.45124909E-02 0.11167171E+03</pdfrwt>
<totfact> 0.76492733E+03</totfact>
</mgrwt>
</event>
<event>
 4    1  0.5074571E-001  0.8946182E+02  0.7546771E-02  0.1304160E+00
          2   -1    0    0  501    0  0.00000000000E+00  0.00000000000E+00  0.34473420005E+03  0.34473420005E+03  0.00000000000E+00 0. -1.
         -2   -1    0    0    0  501 -0.00000000000E+00 -0.00000000000E+00 -0.50319212840E+03  0.50319212840E+03  0.00000000000E+00 0.  1.
         24    1    1    2    0    0  0.11158170431E+02 -0.37572553854E+02  0.33483833629E+03  0.34658350938E+03  0.80419002446E+02 0. -1.
        -24    1    1    2    0    0 -0.11158170431E+02  0.37572553854E+02 -0.49329626464E+03  0.50134281907E+03  0.80419002446E+02 0.  1.
<mgrwt>
<rscale>  0 0.89461822E+02</rscale>
<asrwt>0</asrwt>
<pdfrwt beam="1">  1        2 0.53036031E-01 0.89461822E+02</pdfrwt>
<pdfrwt beam="2">  1       -2 0.77414174E-01 0.89461822E+02</pdfrwt>
<totfact> 0.14832047E+02</totfact>
</mgrwt>
</event>
<event>
 4    1  0.5074571E-001  0.1010040E+03  0.7546771E-02  0.1278199E+00
          2   -1    0    0  501    0  0.00000000000E+00  0.00000000000E+00  0.14932782063E+04  0.14932782063E+04  0.00000000000E+00 0. -1.
         -2   -1    0    0    0  501 -0.00000000000E+00 -0.00000000000E+00 -0.69267129770E+01  0.69267129770E+01  0.00000000000E+00 0.  1.
         24    1    1    2    0    0  0.48214293659E+02  0.37549607551E+02  0.65537963399E+03  0.66311708751E+03  0.80419002446E+02 0.  0.
        -24    1    1    2    0    0 -0.48214293659E+02 -0.37549607551E+02  0.83097185936E+03  0.83708783179E+03  0.80419002446E+02 0.  1.
<mgrwt>
<rscale>  0 0.10100401E+03</rscale>
<asrwt>0</asrwt>
<pdfrwt beam="1">  1        2 0.22973485E+00 0.10100402E+03</pdfrwt>
<pdfrwt beam="2">  1       -2 0.10656493E-02 0.10100402E+03</pdfrwt>
<totfact> 0.25148455E+04</totfact>
</mgrwt>
</event>
<event>
 4    1  0.5074571E-001  0.9664244E+02  0.7546771E-02  0.1287519E+00
         -2   -1    0    0    0  501 -0.00000000000E+00  0.00000000000E+00  0.40573362980E+02  0.40573362980E+02  0.00000000000E+00 0.  1.
          2   -1    0    0  501    0  0.00000000000E+00 -0.00000000000E+00 -0.24238149370E+03  0.24238149370E+03  0.00000000000E+00 0. -1.
         24    1    1    2    0    0  0.52103732684E+02 -0.12559674139E+02 -0.13262805321E+03  0.16410350644E+03  0.80419002446E+02 0. -1.
        -24    1    1    2    0    0 -0.52103732684E+02  0.12559674139E+02 -0.69180077504E+02  0.11885135023E+03  0.80419002446E+02 0.  0.
<mgrwt>
<rscale>  0 0.96642435E+02</rscale>
<asrwt>0</asrwt>
<pdfrwt beam="1">  1        2 0.37289460E-01 0.96642435E+02</pdfrwt>
<pdfrwt beam="2">  1       -2 0.62420559E-02 0.96642435E+02</pdfrwt>
<totfact> 0.17372995E+04</totfact>
</mgrwt>
</event>
<event>
 4    1  0.5074571E-001  0.8526328E+02  0.7546771E-02  0.1314745E+00
          2   -1    0    0  501    0  0.00000000000E+00  0.00000000000E+00  0.10367550984E+04  0.10367550984E+04  0.00000000000E+00 0. -1.
         -2   -1    0    0    0  501 -0.00000000000E+00 -0.00000000000E+00 -0.17978451575E+02  0.17978451575E+02  0.00000000000E+00 0.  1.
         24    1    1    2    0    0  0.17716023452E+02 -0.22107770495E+02  0.92126554217E+03  0.92520269463E+03  0.80419002446E+02 0. -1.
        -24    1    1    2    0    0 -0.17716023452E+02  0.22107770495E+02  0.97511104686E+02  0.12953085538E+03  0.80419002446E+02 0.  1.
<mgrwt>
<rscale>  0 0.85263280E+02</rscale>
<asrwt>0</asrwt>
<pdfrwt beam="1">  1        2 0.15950074E+00 0.85263280E+02</pdfrwt>
<pdfrwt beam="2">  1       -2 0.27659164E-02 0.85263280E+02</pdfrwt>
<totfact> 0.11146030E+04</totfact>
</mgrwt>
</event>
<event>
 4    1  0.5074571E-001  0.8927586E+02  0.7546771E-02  0.1304615E+00
          1   -1    0    0  501    0  0.00000000000E+00  0.00000000000E+00  0.28310684476E+03  0.28310684476E+03  0.00000000000E+00 0. -1.
         -1   -1    0    0    0  501 -0.00000000000E+00 -0.00000000000E+00 -0.28855795596E+02  0.28855795596E+02  0.00000000000E+00 0.  1.
         24    1    1    2    0    0 -0.26896688179E+02 -0.27920100648E+02  0.10277494234E+03  0.13613547878E+03  0.80419002446E+02 0.  0.
        -24    1    1    2    0    0  0.26896688179E+02  0.27920100648E+02  0.15147610682E+03  0.17582716158E+03  0.80419002446E+02 0.  1.
<mgrwt>
<rscale>  0 0.89275864E+02</rscale>
<asrwt>0</asrwt>
<pdfrwt beam="1">  1        1 0.43554897E-01 0.89275864E+02</pdfrwt>
<pdfrwt beam="2">  1       -1 0.44393534E-02 0.89275864E+02</pdfrwt>
<totfact> 0.17805202E+04</totfact>
</mgrwt>
</event>
<event>
 4    1  0.5074571E-001  0.8116247E+02  0.7546771E-02  0.1325785E+00
         -2   -1    0    0    0  501 -0.00000000000E+00  0.00000000000E+00  0.49984645587E+01  0.49984645587E+01  0.00000000000E+00 0.  1.
          2   -1    0    0  501    0  0.00000000000E+00 -0.00000000000E+00 -0.14469459217E+04  0.14469459217E+04  0.00000000000E+00 0. -1.
         24    1    1    2    0    0  0.10934512220E+02  0.75293009345E+00 -0.93779892401E+03  0.94130450349E+03  0.80419002446E+02 0. -1.
        -24    1    1    2    0    0 -0.10934512220E+02 -0.75293009345E+00 -0.50414853311E+03  0.51063988275E+03  0.80419002446E+02 0.  0.
<mgrwt>
<rscale>  0 0.81162469E+02</rscale>
<asrwt>0</asrwt>
<pdfrwt beam="1">  1        2 0.22260696E+00 0.81162469E+02</pdfrwt>
<pdfrwt beam="2">  1       -2 0.76899489E-03 0.81162469E+02</pdfrwt>
<totfact> 0.41336171E+04</totfact>
</mgrwt>
</event>
<event>
 4    1  0.5074571E-001  0.8085222E+02  0.7546771E-02  0.1326650E+00
          2   -1    0    0  501    0  0.00000000000E+00  0.00000000000E+00  0.34636063991E+03  0.34636063991E+03  0.00000000000E+00 0. -1.
         -2   -1    0    0    0  501 -0.00000000000E+00 -0.00000000000E+00 -0.19462086165E+02  0.19462086165E+02  0.00000000000E+00 0.  1.
         24    1    1    2    0    0  0.80632972646E+01 -0.22018620278E+01  0.19525496587E+03  0.21133287158E+03  0.80419002446E+02 0.  0.
        -24    1    1    2    0    0 -0.80632972646E+01  0.22018620278E+01  0.13164358788E+03  0.15448985450E+03  0.80419002446E+02 0.  0.
<mgrwt>
<rscale>  0 0.80852217E+02</rscale>
<asrwt>0</asrwt>
<pdfrwt beam="1">  1        2 0.53286248E-01 0.80852217E+02</pdfrwt>
<pdfrwt beam="2">  1       -2 0.29941673E-02 0.80852217E+02</pdfrwt>
<totfact> 0.34657074E+04</totfact>
</mgrwt>
</event>
<event>
 4    1  0.5074571E-001  0.9097834E+02  0.7546771E-02  0.1300500E+00
          2   -1    0    0  501    0  0.00000000000E+00  0.00000000000E+00  0.19341630153E+03  0.19341630153E+03  0.00000000000E+00 0. -1.
         -2   -1    0    0    0  501 -0.00000000000E+00 -0.00000000000E+00 -0.43324049521E+02  0.43324049521E+02  0.00000000000E+00 0.  1.
         24    1    1    2    0    0  0.21366366891E+00 -0.42541701830E+02  0.88138979620E+02  0.12667098219E+03  0.80419002446E+02 0. -1.
        -24    1    1    2    0    0 -0.21366366891E+00  0.42541701830E+02  0.61953272387E+02  0.11006936886E+03  0.80419002446E+02 0.  1.
<mgrwt>
<rscale>  0 0.90978338E+02</rscale>
<asrwt>0</asrwt>
<pdfrwt beam="1">  1        2 0.29756354E-01 0.90978338E+02</pdfrwt>
<pdfrwt beam="2">  1       -2 0.66652385E-02 0.90978338E+02</pdfrwt>
<totfact> 0.19874437E+04</totfact>
</mgrwt>
</event>
<event>
 4    1  0.5074571E-001  0.8973217E+02  0.7546771E-02  0.1303502E+00
          2   -1    0    0  501    0  0.00000000000E+00  0.00000000000E+00  0.32253488166E+03  0.32253488166E+03  0.00000000000E+00 0. -1.
         -2   -1    0    0    0  501 -0.00000000000E+00 -0.00000000000E+00 -0.32772433143E+02  0.32772433143E+02  0.00000000000E+00 0.  1.
         24    1    1    2    0    0 -0.17136902110E+02 -0.35930101570E+02  0.23159599260E+03  0.24837182883E+03  0.80419002446E+02 0. -1.
        -24    1    1    2    0    0  0.17136902110E+02  0.35930101570E+02  0.58166455919E+02  0.10693548598E+03  0.80419002446E+02 0.  1.
<mgrwt>
<rscale>  0 0.89732166E+02</rscale>
<asrwt>0</asrwt>
<pdfrwt beam="1">  1        2 0.49620749E-01 0.89732166E+02</pdfrwt>
<pdfrwt beam="2">  1       -2 0.50419130E-02 0.89732166E+02</pdfrwt>
<totfact> 0.17592912E+04</totfact>
</mgrwt>
</event>
<event>
 4    1  0.5074571E-001  0.8572405E+02  0.7546771E-02  0.1313550E+00
          2   -1    0    0  501    0  0.00000000000E+00  0.00000000000E+00  0.37220202331E+03  0.37220202331E+03  0.00000000000E+00 0. -1.
         -2   -1    0    0    0  501 -0.00000000000E+00 -0.00000000000E+00 -0.19743608163E+02  0.19743608163E+02  0.00000000000E+00 0.  1.
         24    1    1    2    0    0 -0.25337255580E+02  0.15473072721E+02  0.17611601211E+03  0.19587102434E+03  0.80419002446E+02 0. -1.
        -24    1    1    2    0    0  0.25337255580E+02 -0.15473072721E+02  0.17634240303E+03  0.19607460713E+03  0.80419002446E+02 0.  1.
<mgrwt>
<rscale>  0 0.85724036E+02</rscale>
<asrwt>0</asrwt>
<pdfrwt beam="1">  1        2 0.57261844E-01 0.85724046E+02</pdfrwt>
<pdfrwt beam="2">  1       -2 0.30374785E-02 0.85724046E+02</pdfrwt>
<totfact> 0.31707695E+04</totfact>
</mgrwt>
</event>
<event>
 4    1  0.5074571E-001  0.1200557E+03  0.7546771E-02  0.1243005E+00
          1   -1    0    0  501    0  0.00000000000E+00  0.00000000000E+00  0.66066284646E+02  0.66066284646E+02  0.00000000000E+00 0. -1.
         -1   -1    0    0    0  501 -0.00000000000E+00 -0.00000000000E+00 -0.22034192751E+03  0.22034192751E+03  0.00000000000E+00 0.  1.
         24    1    1    2    0    0  0.10102172073E+02  0.88566893699E+02 -0.62904426762E+02  0.13553719564E+03  0.80419002446E+02 0. -1.
        -24    1    1    2    0    0 -0.10102172073E+02 -0.88566893699E+02 -0.91371216107E+02  0.15087101652E+03  0.80419002446E+02 0.  1.
<mgrwt>
<rscale>  0 0.12005569E+03</rscale>
<asrwt>0</asrwt>
<pdfrwt beam="1">  1        1 0.10164044E-01 0.12005570E+03</pdfrwt>
<pdfrwt beam="2">  1       -1 0.33898757E-01 0.12005570E+03</pdfrwt>
<totfact> 0.49115726E+03</totfact>
</mgrwt>
</event>
<event>
 4    1  0.5074571E-001  0.1022479E+03  0.7546771E-02  0.1275639E+00
         -2   -1    0    0    0  501 -0.00000000000E+00  0.00000000000E+00  0.29441510725E+02  0.29441510725E+02  0.00000000000E+00 0.  1.
          2   -1    0    0  501    0  0.00000000000E+00 -0.00000000000E+00 -0.42710250001E+03  0.42710250001E+03  0.00000000000E+00 0. -1.
         24    1    1    2    0    0 -0.16280846461E+02 -0.61011104957E+02 -0.29255752409E+03  0.30991053830E+03  0.80419002446E+02 0. -1.
        -24    1    1    2    0    0  0.16280846461E+02  0.61011104957E+02 -0.10510346519E+03  0.14663347244E+03  0.80419002446E+02 0.  1.
<mgrwt>
<rscale>  0 0.10224792E+03</rscale>
<asrwt>0</asrwt>
<pdfrwt beam="1">  1        2 0.65708077E-01 0.10224792E+03</pdfrwt>
<pdfrwt beam="2">  1       -2 0.45294632E-02 0.10224792E+03</pdfrwt>
<totfact> 0.15543431E+04</totfact>
</mgrwt>
</event>
<event>
 4    1  0.5074571E-001  0.8498784E+02  0.7546771E-02  0.1315464E+00
          2   -1    0    0  501    0  0.00000000000E+00  0.00000000000E+00  0.40645189059E+04  0.40645189059E+04  0.00000000000E+00 0. -1.
         -2   -1    0    0    0  501 -0.00000000000E+00 -0.00000000000E+00 -0.19784840807E+01  0.19784840807E+01  0.00000000000E+00 0.  1.
         24    1    1    2    0    0  0.96300393020E+00 -0.27473421621E+02  0.26800088555E+04  0.26813560744E+04  0.80419002446E+02 0. -1.
        -24    1    1    2    0    0 -0.96300393020E+00  0.27473421621E+02  0.13825315663E+04  0.13851413156E+04  0.80419002446E+02 0.  1.
<mgrwt>
<rscale>  0 0.84987836E+02</rscale>
<asrwt>0</asrwt>
<pdfrwt beam="1">  1        2 0.62530392E+00 0.84987836E+02</pdfrwt>
<pdfrwt beam="2">  1       -2 0.30438542E-03 0.84987836E+02</pdfrwt>
<totfact> 0.48562279E+03</totfact>
</mgrwt>
</event>
<event>
 4    1  0.5074571E-001  0.8496961E+02  0.7546771E-02  0.1315512E+00
         -4   -1    0    0    0  501 -0.00000000000E+00  0.00000000000E+00  0.56455043112E+02  0.56455043112E+02  0.00000000000E+00 0.  1.
          4   -1    0    0  501    0  0.00000000000E+00 -0.00000000000E+00 -0.31208853962E+03  0.31208853962E+03  0.00000000000E+00 0. -1.
         24    1    1    2    0    0 -0.10291817716E+02  0.25430252619E+02 -0.26938544046E+03  0.28246831813E+03  0.80419002446E+02 0. -1.
        -24    1    1    2    0    0  0.10291817716E+02 -0.25430252619E+02  0.13751943950E+02  0.86075264606E+02  0.80419002446E+02 0.  1.
<mgrwt>
<rscale>  0 0.84969613E+02</rscale>
<asrwt>0</asrwt>
<pdfrwt beam="1">  1        4 0.48013621E-01 0.84969613E+02</pdfrwt>
<pdfrwt beam="2">  1       -4 0.86853913E-02 0.84969613E+02</pdfrwt>
<totfact> 0.60564449E+02</totfact>
</mgrwt>
</event>
<event>
 4    1  0.5074571E-001  0.8966542E+02  0.7546771E-02  0.1303664E+00
         -2   -1    0    0    0  501 -0.00000000000E+00  0.00000000000E+00  0.13485036686E+03  0.13485036686E+03  0.00000000000E+00 0.  1.
          2   -1    0    0  501    0  0.00000000000E+00 -0.00000000000E+00 -0.18353912631E+03  0.18353912631E+03  0.00000000000E+00 0. -1.
         24    1    1    2    0    0 -0.28373592851E+02  0.27705788133E+02 -0.15515173433E+03  0.17919806943E+03  0.80419002446E+02 0. -1.
        -24    1    1    2    0    0  0.28373592851E+02 -0.27705788133E+02  0.10646297489E+03  0.13919142374E+03  0.80419002446E+02 0.  1.
<mgrwt>
<rscale>  0 0.89665419E+02</rscale>
<asrwt>0</asrwt>
<pdfrwt beam="1">  1        2 0.28236789E-01 0.89665419E+02</pdfrwt>
<pdfrwt beam="2">  1       -2 0.20746210E-01 0.89665419E+02</pdfrwt>
<totfact> 0.34761842E+03</totfact>
</mgrwt>
</event>
<event>
 4    1  0.5074571E-001  0.8752158E+02  0.7546771E-02  0.1308967E+00
          1   -1    0    0  501    0  0.00000000000E+00  0.00000000000E+00  0.19503102090E+03  0.19503102090E+03  0.00000000000E+00 0. -1.
         -1   -1    0    0    0  501 -0.00000000000E+00 -0.00000000000E+00 -0.11435875821E+03  0.11435875821E+03  0.00000000000E+00 0.  1.
         24    1    1    2    0    0 -0.58237668693E+01  0.34042541228E+02 -0.85010172363E+02  0.12201129552E+03  0.80419002446E+02 0.  1.
        -24    1    1    2    0    0  0.58237668693E+01 -0.34042541228E+02  0.16568243506E+03  0.18737848360E+03  0.80419002446E+02 0. -1.
<mgrwt>
<rscale>  0 0.87521579E+02</rscale>
<asrwt>0</asrwt>
<pdfrwt beam="1">  1        1 0.30004773E-01 0.87521579E+02</pdfrwt>
<pdfrwt beam="2">  1       -1 0.17593655E-01 0.87521579E+02</pdfrwt>
<totfact> 0.35358130E+03</totfact>
</mgrwt>
</event>
<event>
 4    1  0.5074571E-001  0.1347752E+03  0.7546771E-02  0.1220537E+00
         -2   -1    0    0    0  501 -0.00000000000E+00  0.00000000000E+00  0.67321062235E+02  0.67321062235E+02  0.00000000000E+00 0.  1.
          2   -1    0    0  501    0  0.00000000000E+00 -0.00000000000E+00 -0.27185079377E+03  0.27185079377E+03  0.00000000000E+00 0. -1.
         24    1    1    2    0    0 -0.65224986071E+02 -0.86271842849E+02 -0.87595479928E+02  0.16073989466E+03  0.80419002446E+02 0. -1.
        -24    1    1    2    0    0  0.65224986071E+02  0.86271842849E+02 -0.11693425160E+03  0.17843196134E+03  0.80419002446E+02 0.  1.
<mgrwt>
<rscale>  0 0.13477518E+03</rscale>
<asrwt>0</asrwt>
<pdfrwt beam="1">  1        2 0.41823198E-01 0.13477520E+03</pdfrwt>
<pdfrwt beam="2">  1       -2 0.10357087E-01 0.13477520E+03</pdfrwt>
<totfact> 0.72585226E+03</totfact>
</mgrwt>
</event>
<event>
 4    1  0.5074571E-001  0.9338743E+02  0.7546771E-02  0.1294850E+00
          2   -1    0    0  501    0  0.00000000000E+00  0.00000000000E+00  0.17611801111E+03  0.17611801111E+03  0.00000000000E+00 0. -1.
         -2   -1    0    0    0  501 -0.00000000000E+00 -0.00000000000E+00 -0.11308146566E+03  0.11308146566E+03  0.00000000000E+00 0.  1.
         24    1    1    2    0    0 -0.81946873054E+01  0.46763694526E+02  0.13992885860E+03  0.16822989464E+03  0.80419002446E+02 0. -1.
        -24    1    1    2    0    0  0.81946873054E+01 -0.46763694526E+02 -0.76892313154E+02  0.12096958214E+03  0.80419002446E+02 0.  1.
<mgrwt>
<rscale>  0 0.93387429E+02</rscale>
<asrwt>0</asrwt>
<pdfrwt beam="1">  1        2 0.27095079E-01 0.93387429E+02</pdfrwt>
<pdfrwt beam="2">  1       -2 0.17397149E-01 0.93387429E+02</pdfrwt>
<totfact> 0.48854554E+03</totfact>
</mgrwt>
</event>
<event>
 4    1  0.5074571E-001  0.1062603E+03  0.7546771E-02  0.1267656E+00
         -2   -1    0    0    0  501 -0.00000000000E+00  0.00000000000E+00  0.57721170685E+02  0.57721170685E+02  0.00000000000E+00 0.  1.
          2   -1    0    0  501    0  0.00000000000E+00 -0.00000000000E+00 -0.89217440895E+03  0.89217440895E+03  0.00000000000E+00 0. -1.
         24    1    1    2    0    0  0.65771986352E+02 -0.22317762650E+02 -0.83688837344E+03  0.84360737448E+03  0.80419002446E+02 0. -1.
        -24    1    1    2    0    0 -0.65771986352E+02  0.22317762650E+02  0.24351351735E+01  0.10628820516E+03  0.80419002446E+02 0.  1.
<mgrwt>
<rscale>  0 0.10626031E+03</rscale>
<asrwt>0</asrwt>
<pdfrwt beam="1">  1        2 0.13725760E+00 0.10626031E+03</pdfrwt>
<pdfrwt beam="2">  1       -2 0.88801804E-02 0.10626031E+03</pdfrwt>
<totfact> 0.24175369E+03</totfact>
</mgrwt>
</event>
<event>
 4    1  0.5074571E-001  0.1145151E+03  0.7546771E-02  0.1252430E+00
          1   -1    0    0  501    0  0.00000000000E+00  0.00000000000E+00  0.10165160874E+04  0.10165160874E+04  0.00000000000E+00 0. -1.
         -1   -1    0    0    0  501 -0.00000000000E+00 -0.00000000000E+00 -0.12927749637E+02  0.12927749637E+02  0.00000000000E+00 0.  1.
         24    1    1    2    0    0 -0.51520872756E+02  0.63183006020E+02  0.47822362432E+03  0.49174337148E+03  0.80419002446E+02 0.  1.
        -24    1    1    2    0    0  0.51520872756E+02 -0.63183006020E+02  0.52536471345E+03  0.53770046557E+03  0.80419002446E+02 0. -1.
<mgrwt>
<rscale>  0 0.11451510E+03</rscale>
<asrwt>0</asrwt>
<pdfrwt beam="1">  1        1 0.15638703E+00 0.11451510E+03</pdfrwt>
<pdfrwt beam="2">  1       -1 0.19888853E-02 0.11451510E+03</pdfrwt>
<totfact> 0.10254346E+04</totfact>
</mgrwt>
</event>
<event>
 4    1  0.5074571E-001  0.1287705E+03  0.7546771E-02  0.1229292E+00
         -2   -1    0    0    0  501 -0.00000000000E+00  0.00000000000E+00  0.11153860812E+02  0.11153860812E+02  0.00000000000E+00 0.  1.
          2   -1    0    0  501    0  0.00000000000E+00 -0.00000000000E+00 -0.20664628361E+04  0.20664628361E+04  0.00000000000E+00 0. -1.
         24    1    1    2    0    0  0.98321139719E+02 -0.21155900587E+02 -0.15779136843E+04  0.15831593191E+04  0.80419002446E+02 0. -1.
        -24    1    1    2    0    0 -0.98321139719E+02  0.21155900587E+02 -0.47739529098E+03  0.49445737779E+03  0.80419002446E+02 0.  1.
<mgrwt>
<rscale>  0 0.12877047E+03</rscale>
<asrwt>0</asrwt>
<pdfrwt beam="1">  1        2 0.31791763E+00 0.12877047E+03</pdfrwt>
<pdfrwt beam="2">  1       -2 0.17159771E-02 0.12877047E+03</pdfrwt>
<totfact> 0.65670374E+03</totfact>
</mgrwt>
</event>
<event>
 4    1  0.5074571E-001  0.1425069E+03  0.7546771E-02  0.1209995E+00
          1   -1    0    0  501    0  0.00000000000E+00  0.00000000000E+00  0.24685626757E+03  0.24685626757E+03  0.00000000000E+00 0. -1.
         -1   -1    0    0    0  501 -0.00000000000E+00 -0.00000000000E+00 -0.11512320078E+03  0.11512320078E+03  0.00000000000E+00 0.  1.
         24    1    1    2    0    0 -0.11063472567E+03 -0.40012061917E+02 -0.30822793144E+02  0.14580215415E+03  0.80419002446E+02 0. -1.
        -24    1    1    2    0    0  0.11063472567E+03  0.40012061917E+02  0.16255585992E+03  0.21617731420E+03  0.80419002446E+02 0.  1.
<mgrwt>
<rscale>  0 0.14250692E+03</rscale>
<asrwt>0</asrwt>
<pdfrwt beam="1">  1        1 0.37977887E-01 0.14250692E+03</pdfrwt>
<pdfrwt beam="2">  1       -1 0.17711262E-01 0.14250692E+03</pdfrwt>
<totfact> 0.26839679E+03</totfact>
</mgrwt>
</event>
<event>
 4    1  0.5074571E-001  0.8720695E+02  0.7546771E-02  0.1309760E+00
         -1   -1    0    0    0  501 -0.00000000000E+00  0.00000000000E+00  0.55291851583E+01  0.55291851583E+01  0.00000000000E+00 0.  1.
          1   -1    0    0  501    0  0.00000000000E+00 -0.00000000000E+00 -0.13910562294E+04  0.13910562294E+04  0.00000000000E+00 0. -1.
         24    1    1    2    0    0 -0.95421125904E+01  0.32354051761E+02 -0.61877264874E+03  0.62488770461E+03  0.80419002446E+02 0.  0.
        -24    1    1    2    0    0  0.95421125904E+01 -0.32354051761E+02 -0.76675439547E+03  0.77169770993E+03  0.80419002446E+02 0.  1.
<mgrwt>
<rscale>  0 0.87206952E+02</rscale>
<asrwt>0</asrwt>
<pdfrwt beam="1">  1        1 0.21400854E+00 0.87206952E+02</pdfrwt>
<pdfrwt beam="2">  1       -1 0.85064430E-03 0.87206952E+02</pdfrwt>
<totfact> 0.18727112E+04</totfact>
</mgrwt>
</event>
<event>
 4    1  0.5074571E-001  0.9151572E+02  0.7546771E-02  0.1299222E+00
          2   -1    0    0  501    0  0.00000000000E+00  0.00000000000E+00  0.17061594439E+04  0.17061594439E+04  0.00000000000E+00 0. -1.
         -2   -1    0    0    0  501 -0.00000000000E+00 -0.00000000000E+00 -0.24777416714E+02  0.24777416714E+02  0.00000000000E+00 0.  1.
         24    1    1    2    0    0 -0.30174764690E+02 -0.31581548505E+02  0.16157013156E+04  0.16182910331E+04  0.80419002446E+02 0. -1.
        -24    1    1    2    0    0  0.30174764690E+02  0.31581548505E+02  0.65680711617E+02  0.11264582754E+03  0.80419002446E+02 0.  1.
<mgrwt>
<rscale>  0 0.91515718E+02</rscale>
<asrwt>0</asrwt>
<pdfrwt beam="1">  1        2 0.26248598E+00 0.91515718E+02</pdfrwt>
<pdfrwt beam="2">  1       -2 0.38119116E-02 0.91515718E+02</pdfrwt>
<totfact> 0.31120948E+03</totfact>
</mgrwt>
</event>
<event>
 4    1  0.5074571E-001  0.8939769E+02  0.7546771E-02  0.1304317E+00
          2   -1    0    0  501    0  0.00000000000E+00  0.00000000000E+00  0.12673432800E+03  0.12673432800E+03  0.00000000000E+00 0. -1.
         -2   -1    0    0    0  501 -0.00000000000E+00 -0.00000000000E+00 -0.10149225045E+03  0.10149225045E+03  0.00000000000E+00 0.  1.
         24    1    1    2    0    0  0.13680816810E+02  0.36572750578E+02  0.82841571667E+02  0.12187974723E+03  0.80419002446E+02 0.  0.
        -24    1    1    2    0    0 -0.13680816810E+02 -0.36572750578E+02 -0.57599494121E+02  0.10634683122E+03  0.80419002446E+02 0.  0.
<mgrwt>
<rscale>  0 0.89397689E+02</rscale>
<asrwt>0</asrwt>
<pdfrwt beam="1">  1        2 0.19497589E-01 0.89397689E+02</pdfrwt>
<pdfrwt beam="2">  1       -2 0.15614192E-01 0.89397689E+02</pdfrwt>
<totfact> 0.83436737E+03</totfact>
</mgrwt>
</event>
<event>
 4    1  0.5074571E-001  0.9562407E+02  0.7546771E-02  0.1289777E+00
          1   -1    0    0  501    0  0.00000000000E+00  0.00000000000E+00  0.82184096145E+03  0.82184096145E+03  0.00000000000E+00 0. -1.
         -1   -1    0    0    0  501 -0.00000000000E+00 -0.00000000000E+00 -0.12277527833E+02  0.12277527833E+02  0.00000000000E+00 0.  1.
         24    1    1    2    0    0 -0.15226782015E+02  0.49445799259E+02  0.53249728946E+03  0.54101508407E+03  0.80419002446E+02 0. -1.
        -24    1    1    2    0    0  0.15226782015E+02 -0.49445799259E+02  0.27706614416E+03  0.29310340521E+03  0.80419002446E+02 0.  1.
<mgrwt>
<rscale>  0 0.95624057E+02</rscale>
<asrwt>0</asrwt>
<pdfrwt beam="1">  1        1 0.12643703E+00 0.95624069E+02</pdfrwt>
<pdfrwt beam="2">  1       -1 0.18888511E-02 0.95624069E+02</pdfrwt>
<totfact> 0.15281858E+04</totfact>
</mgrwt>
</event>
<event>
 4    1  0.5074571E-001  0.9561750E+02  0.7546771E-02  0.1289791E+00
         -2   -1    0    0    0  501 -0.00000000000E+00  0.00000000000E+00  0.51502607329E+02  0.51502607329E+02  0.00000000000E+00 0.  1.
          2   -1    0    0  501    0  0.00000000000E+00 -0.00000000000E+00 -0.21206537353E+03  0.21206537353E+03  0.00000000000E+00 0. -1.
         24    1    1    2    0    0 -0.27469193511E+02 -0.43828458337E+02 -0.13347103889E+03  0.16418655404E+03  0.80419002446E+02 0. -1.
        -24    1    1    2    0    0  0.27469193511E+02  0.43828458337E+02 -0.27091727311E+02  0.99381426813E+02  0.80419002446E+02 0.  1.
<mgrwt>
<rscale>  0 0.95617500E+02</rscale>
<asrwt>0</asrwt>
<pdfrwt beam="1">  1        2 0.32625442E-01 0.95617500E+02</pdfrwt>
<pdfrwt beam="2">  1       -2 0.79234782E-02 0.95617500E+02</pdfrwt>
<totfact> 0.13922157E+04</totfact>
</mgrwt>
</event>
<event>
 4    1  0.5074571E-001  0.8229682E+02  0.7546771E-02  0.1322657E+00
          2   -1    0    0  501    0  0.00000000000E+00  0.00000000000E+00  0.78884209871E+03  0.78884209871E+03  0.00000000000E+00 0. -1.
         -2   -1    0    0    0  501 -0.00000000000E+00 -0.00000000000E+00 -0.41522016479E+03  0.41522016479E+03  0.00000000000E+00 0.  1.
         24    1    1    2    0    0 -0.14927293728E+02  0.90953681693E+01  0.78258534394E+03  0.78690062036E+03  0.80419002446E+02 0. -1.
        -24    1    1    2    0    0  0.14927293728E+02 -0.90953681693E+01 -0.40896341002E+03  0.41716164314E+03  0.80419002446E+02 0.  1.
<mgrwt>
<rscale>  0 0.82296815E+02</rscale>
<asrwt>0</asrwt>
<pdfrwt beam="1">  1        2 0.12136032E+00 0.82296815E+02</pdfrwt>
<pdfrwt beam="2">  1       -2 0.63880025E-01 0.82296815E+02</pdfrwt>
<totfact> 0.89750074E+01</totfact>
</mgrwt>
</event>
<event>
 4    1  0.5074571E-001  0.1004601E+03  0.7546771E-02  0.1279331E+00
          1   -1    0    0  501    0  0.00000000000E+00  0.00000000000E+00  0.50777693823E+03  0.50777693823E+03  0.00000000000E+00 0. -1.
         -1   -1    0    0    0  501 -0.00000000000E+00 -0.00000000000E+00 -0.28278711982E+02  0.28278711982E+02  0.00000000000E+00 0.  1.
         24    1    1    2    0    0 -0.89674400446E+01  0.59536534326E+02  0.93639986614E+02  0.13733417982E+03  0.80419002446E+02 0.  1.
        -24    1    1    2    0    0  0.89674400446E+01 -0.59536534326E+02  0.38585823964E+03  0.39872147039E+03  0.80419002446E+02 0. -1.
<mgrwt>
<rscale>  0 0.10046009E+03</rscale>
<asrwt>0</asrwt>
<pdfrwt beam="1">  1        1 0.78119522E-01 0.10046009E+03</pdfrwt>
<pdfrwt beam="2">  1       -1 0.43505714E-02 0.10046009E+03</pdfrwt>
<totfact> 0.89573051E+03</totfact>
</mgrwt>
</event>
<event>
 4    1  0.5074571E-001  0.1213121E+03  0.7546771E-02  0.1240948E+00
          2   -1    0    0  501    0  0.00000000000E+00  0.00000000000E+00  0.10633274239E+04  0.10633274239E+04  0.00000000000E+00 0. -1.
         -2   -1    0    0    0  501 -0.00000000000E+00 -0.00000000000E+00 -0.15673057114E+02  0.15673057114E+02  0.00000000000E+00 0.  1.
         24    1    1    2    0    0 -0.63301408026E+02 -0.65133194751E+02  0.70832206385E+03  0.71863534801E+03  0.80419002446E+02 0. -1.
        -24    1    1    2    0    0  0.63301408026E+02  0.65133194751E+02  0.33933230296E+03  0.36036513303E+03  0.80419002446E+02 0.  1.
<mgrwt>
<rscale>  0 0.12131207E+03</rscale>
<asrwt>0</asrwt>
<pdfrwt beam="1">  1        2 0.16358878E+00 0.12131207E+03</pdfrwt>
<pdfrwt beam="2">  1       -2 0.24112404E-02 0.12131207E+03</pdfrwt>
<totfact> 0.13443220E+04</totfact>
</mgrwt>
</event>
<event>
 4    1  0.5074571E-001  0.1101818E+03  0.7546771E-02  0.1260234E+00
          1   -1    0    0  501    0  0.00000000000E+00  0.00000000000E+00  0.66532505914E+03  0.66532505914E+03  0.00000000000E+00 0. -1.
         -1   -1    0    0    0  501 -0.00000000000E+00 -0.00000000000E+00 -0.21160713140E+02  0.21160713140E+02  0.00000000000E+00 0.  1.
         24    1    1    2    0    0 -0.21038130554E+02 -0.72320260069E+02  0.19470948709E+03  0.22372264810E+03  0.80419002446E+02 0.  1.
        -24    1    1    2    0    0  0.21038130554E+02  0.72320260069E+02  0.44945485891E+03  0.46276312418E+03  0.80419002446E+02 0. -1.
<mgrwt>
<rscale>  0 0.11018184E+03</rscale>
<asrwt>0</asrwt>
<pdfrwt beam="1">  1        1 0.10235769E+00 0.11018184E+03</pdfrwt>
<pdfrwt beam="2">  1       -1 0.32554948E-02 0.11018184E+03</pdfrwt>
<totfact> 0.95786075E+03</totfact>
</mgrwt>
</event>
<event>
 4    1  0.5074571E-001  0.8534690E+02  0.7546771E-02  0.1314528E+00
         -2   -1    0    0    0  501 -0.00000000000E+00  0.00000000000E+00  0.23754320837E+03  0.23754320837E+03  0.00000000000E+00 0.  1.
          2   -1    0    0  501    0  0.00000000000E+00 -0.00000000000E+00 -0.40684014593E+03  0.40684014593E+03  0.00000000000E+00 0. -1.
         24    1    1    2    0    0 -0.12946041692E+02 -0.25480930491E+02 -0.39446021235E+03  0.40358760250E+03  0.80419002446E+02 0. -1.
        -24    1    1    2    0    0  0.12946041692E+02  0.25480930491E+02  0.22516327479E+03  0.24079575179E+03  0.80419002446E+02 0.  1.
<mgrwt>
<rscale>  0 0.85346903E+02</rscale>
<asrwt>0</asrwt>
<pdfrwt beam="1">  1        2 0.62590791E-01 0.85346903E+02</pdfrwt>
<pdfrwt beam="2">  1       -2 0.36545109E-01 0.85346903E+02</pdfrwt>
<totfact> 0.55527708E+02</totfact>
</mgrwt>
</event>
<event>
 4    1  0.5074571E-001  0.1102887E+03  0.7546771E-02  0.1260036E+00
         -2   -1    0    0    0  501 -0.00000000000E+00  0.00000000000E+00  0.89603604890E+02  0.89603604890E+02  0.00000000000E+00 0.  1.
          2   -1    0    0  501    0  0.00000000000E+00 -0.00000000000E+00 -0.13899822670E+03  0.13899822670E+03  0.00000000000E+00 0. -1.
         24    1    1    2    0    0 -0.52965897671E+02 -0.53767958304E+02 -0.42173155811E+02  0.11807696931E+03  0.80419002446E+02 0. -1.
        -24    1    1    2    0    0  0.52965897671E+02  0.53767958304E+02 -0.72214660008E+01  0.11052486228E+03  0.80419002446E+02 0.  1.
<mgrwt>
<rscale>  0 0.11028869E+03</rscale>
<asrwt>0</asrwt>
<pdfrwt beam="1">  1        2 0.21384343E-01 0.11028869E+03</pdfrwt>
<pdfrwt beam="2">  1       -2 0.13785170E-01 0.11028869E+03</pdfrwt>
<totfact> 0.93748610E+03</totfact>
</mgrwt>
</event>
<event>
 4    1  0.5074571E-001  0.8512161E+02  0.7546771E-02  0.1315115E+00
          2   -1    0    0  501    0  0.00000000000E+00  0.00000000000E+00  0.35224576460E+03  0.35224576460E+03  0.00000000000E+00 0. -1.
         -2   -1    0    0    0  501 -0.00000000000E+00 -0.00000000000E+00 -0.24010282523E+02  0.24010282523E+02  0.00000000000E+00 0.  1.
         24    1    1    2    0    0  0.27406745414E+02 -0.52290716363E+01  0.23532972480E+03  0.25025141001E+03  0.80419002446E+02 0. -1.
        -24    1    1    2    0    0 -0.27406745414E+02  0.52290716363E+01  0.92905757283E+02  0.12600463712E+03  0.80419002446E+02 0.  1.
<mgrwt>
<rscale>  0 0.85121612E+02</rscale>
<asrwt>0</asrwt>
<pdfrwt beam="1">  1        2 0.54191652E-01 0.85121612E+02</pdfrwt>
<pdfrwt beam="2">  1       -2 0.36938899E-02 0.85121612E+02</pdfrwt>
<totfact> 0.25235593E+04</totfact>
</mgrwt>
</event>
<event>
 4    1  0.5074571E-001  0.9963148E+02  0.7546771E-02  0.1281073E+00
          1   -1    0    0  501    0  0.00000000000E+00  0.00000000000E+00  0.11011027604E+04  0.11011027604E+04  0.00000000000E+00 0. -1.
         -1   -1    0    0    0  501 -0.00000000000E+00 -0.00000000000E+00 -0.18186050590E+02  0.18186050590E+02  0.00000000000E+00 0.  1.
         24    1    1    2    0    0 -0.35524142547E+02  0.46874788159E+02  0.93888120688E+03  0.94415271384E+03  0.80419002446E+02 0. -1.
        -24    1    1    2    0    0  0.35524142547E+02 -0.46874788159E+02  0.14403550298E+03  0.17513609720E+03  0.80419002446E+02 0.  1.
<mgrwt>
<rscale>  0 0.99631465E+02</rscale>
<asrwt>0</asrwt>
<pdfrwt beam="1">  1        1 0.16940037E+00 0.99631478E+02</pdfrwt>
<pdfrwt beam="2">  1       -1 0.27978548E-02 0.99631478E+02</pdfrwt>
<totfact> 0.54261844E+03</totfact>
</mgrwt>
</event>
<event>
 4    1  0.5074571E-001  0.9702931E+02  0.7546771E-02  0.1286670E+00
          2   -1    0    0  501    0  0.00000000000E+00  0.00000000000E+00  0.20455015873E+03  0.20455015873E+03  0.00000000000E+00 0. -1.
         -2   -1    0    0    0  501 -0.00000000000E+00 -0.00000000000E+00 -0.46686112464E+02  0.46686112464E+02  0.00000000000E+00 0.  1.
         24    1    1    2    0    0  0.38497964156E+02 -0.38280253575E+02  0.93865766292E+02  0.13500173737E+03  0.80419002446E+02 0. -1.
        -24    1    1    2    0    0 -0.38497964156E+02  0.38280253575E+02  0.63998279972E+02  0.11623453382E+03  0.80419002446E+02 0.  1.
<mgrwt>
<rscale>  0 0.97029310E+02</rscale>
<asrwt>0</asrwt>
<pdfrwt beam="1">  1        2 0.31469255E-01 0.97029310E+02</pdfrwt>
<pdfrwt beam="2">  1       -2 0.71824790E-02 0.97029310E+02</pdfrwt>
<totfact> 0.16828051E+04</totfact>
</mgrwt>
</event>
<event>
 4    1  0.5074571E-001  0.8481856E+02  0.7546771E-02  0.1315908E+00
          2   -1    0    0  501    0  0.00000000000E+00  0.00000000000E+00  0.12465075256E+04  0.12465075256E+04  0.00000000000E+00 0. -1.
         -2   -1    0    0    0  501 -0.00000000000E+00 -0.00000000000E+00 -0.62230762381E+01  0.62230762381E+01  0.00000000000E+00 0.  1.
         24    1    1    2    0    0  0.26360085958E+02 -0.56672787631E+01  0.78887609279E+03  0.79342276115E+03  0.80419002446E+02 0. -1.
        -24    1    1    2    0    0 -0.26360085958E+02  0.56672787631E+01  0.45140835655E+03  0.45930784067E+03  0.80419002446E+02 0.  1.
<mgrwt>
<rscale>  0 0.84818560E+02</rscale>
<asrwt>0</asrwt>
<pdfrwt beam="1">  1        2 0.19177019E+00 0.84818560E+02</pdfrwt>
<pdfrwt beam="2">  1       -2 0.95739734E-03 0.84818560E+02</pdfrwt>
<totfact> 0.38794489E+04</totfact>
</mgrwt>
</event>
<event>
 4    1  0.5074571E-001  0.9681748E+02  0.7546771E-02  0.1287134E+00
          1   -1    0    0  501    0  0.00000000000E+00  0.00000000000E+00  0.12651238245E+02  0.12651238245E+02  0.00000000000E+00 0. -1.
         -1   -1    0    0    0  501 -0.00000000000E+00 -0.00000000000E+00 -0.74720338253E+03  0.74720338253E+03  0.00000000000E+00 0.  1.
         24    1    1    2    0    0 -0.25839838804E+02  0.47314962126E+02 -0.33244999753E+03  0.34626091279E+03  0.80419002446E+02 0.  0.
        -24    1    1    2    0    0  0.25839838804E+02 -0.47314962126E+02 -0.40210214675E+03  0.41359370799E+03  0.80419002446E+02 0. -1.
<mgrwt>
<rscale>  0 0.96817463E+02</rscale>
<asrwt>0</asrwt>
<pdfrwt beam="1">  1        1 0.19463445E-02 0.96817475E+02</pdfrwt>
<pdfrwt beam="2">  1       -1 0.11495436E+00 0.96817475E+02</pdfrwt>
<totfact> 0.42930994E+03</totfact>
</mgrwt>
</event>
<event>
 4    1  0.5074571E-001  0.8413923E+02  0.7546771E-02  0.1317699E+00
          2   -1    0    0  501    0  0.00000000000E+00  0.00000000000E+00  0.24316849808E+03  0.24316849808E+03  0.00000000000E+00 0. -1.
         -2   -1    0    0    0  501 -0.00000000000E+00 -0.00000000000E+00 -0.29218072878E+02  0.29218072878E+02  0.00000000000E+00 0.  1.
         24    1    1    2    0    0  0.10118543395E+02 -0.22578875018E+02  0.98814687729E+02  0.12978346961E+03  0.80419002446E+02 0.  1.
        -24    1    1    2    0    0 -0.10118543395E+02  0.22578875018E+02  0.11513573747E+03  0.14260310135E+03  0.80419002446E+02 0.  1.
<mgrwt>
<rscale>  0 0.84139219E+02</rscale>
<asrwt>0</asrwt>
<pdfrwt beam="1">  1        2 0.37410537E-01 0.84139230E+02</pdfrwt>
<pdfrwt beam="2">  1       -2 0.44950883E-02 0.84139230E+02</pdfrwt>
<totfact> 0.27812001E+04</totfact>
</mgrwt>
</event>
<event>
 4    1  0.5074571E-001  0.8207124E+02  0.7546771E-02  0.1323274E+00
         -2   -1    0    0    0  501 -0.00000000000E+00  0.00000000000E+00  0.54453031522E+01  0.54453031522E+01  0.00000000000E+00 0.  1.
          2   -1    0    0  501    0  0.00000000000E+00 -0.00000000000E+00 -0.13349599033E+04  0.13349599033E+04  0.00000000000E+00 0. -1.
         24    1    1    2    0    0 -0.13305201158E+02 -0.95626626807E+01 -0.84633298681E+03  0.85030301270E+03  0.80419002446E+02 0. -1.
        -24    1    1    2    0    0  0.13305201158E+02  0.95626626807E+01 -0.48318161335E+03  0.49010219376E+03  0.80419002446E+02 0.  1.
<mgrwt>
<rscale>  0 0.82071243E+02</rscale>
<asrwt>0</asrwt>
<pdfrwt beam="1">  1        2 0.20537868E+00 0.82071243E+02</pdfrwt>
<pdfrwt beam="2">  1       -2 0.83773801E-03 0.82071243E+02</pdfrwt>
<totfact> 0.41915600E+04</totfact>
</mgrwt>
</event>
<event>
 4    1  0.5074571E-001  0.1090518E+03  0.7546771E-02  0.1262336E+00
          1   -1    0    0  501    0  0.00000000000E+00  0.00000000000E+00  0.99755201276E+02  0.99755201276E+02  0.00000000000E+00 0. -1.
         -1   -1    0    0    0  501 -0.00000000000E+00 -0.00000000000E+00 -0.20188538004E+03  0.20188538004E+03  0.00000000000E+00 0.  1.
         24    1    1    2    0    0 -0.30524635637E+02  0.67032243532E+02 -0.14757745752E+03  0.18349767567E+03  0.80419002446E+02 0.  1.
        -24    1    1    2    0    0  0.30524635637E+02 -0.67032243532E+02  0.45447278757E+02  0.11814290565E+03  0.80419002446E+02 0. -1.
<mgrwt>
<rscale>  0 0.10905178E+03</rscale>
<asrwt>0</asrwt>
<pdfrwt beam="1">  1        1 0.15346954E-01 0.10905178E+03</pdfrwt>
<pdfrwt beam="2">  1       -1 0.31059289E-01 0.10905178E+03</pdfrwt>
<totfact> 0.33096028E+03</totfact>
</mgrwt>
</event>
<event>
 4    1  0.5074571E-001  0.8858101E+02  0.7546771E-02  0.1306325E+00
          2   -1    0    0  501    0  0.00000000000E+00  0.00000000000E+00  0.88966610956E+03  0.88966610956E+03  0.00000000000E+00 0. -1.
         -2   -1    0    0    0  501 -0.00000000000E+00 -0.00000000000E+00 -0.88276977115E+01  0.88276977115E+01  0.00000000000E+00 0.  1.
         24    1    1    2    0    0 -0.36782897958E+00  0.37138176069E+02  0.45393447708E+03  0.46249659983E+03  0.80419002446E+02 0. -1.
        -24    1    1    2    0    0  0.36782897958E+00 -0.37138176069E+02  0.42690393476E+03  0.43599720744E+03  0.80419002446E+02 0.  0.
<mgrwt>
<rscale>  0 0.88581010E+02</rscale>
<asrwt>0</asrwt>
<pdfrwt beam="1">  1        2 0.13687164E+00 0.88581010E+02</pdfrwt>
<pdfrwt beam="2">  1       -2 0.13581080E-02 0.88581010E+02</pdfrwt>
<totfact> 0.37958033E+04</totfact>
</mgrwt>
</event>
<event>
 4    1  0.5074571E-001  0.8162813E+02  0.7546771E-02  0.1324494E+00
         -2   -1    0    0    0  501 -0.00000000000E+00  0.00000000000E+00  0.41726584556E+01  0.41726584556E+01  0.00000000000E+00 0.  1.
          2   -1    0    0  501    0  0.00000000000E+00 -0.00000000000E+00 -0.21202617234E+04  0.21202617234E+04  0.00000000000E+00 0. -1.
         24    1    1    2    0    0 -0.13891659527E+02  0.17198566808E+01 -0.15858040758E+04  0.15879035610E+04  0.80419002446E+02 0.  0.
        -24    1    1    2    0    0  0.13891659527E+02 -0.17198566808E+01 -0.53028498914E+03  0.53653082090E+03  0.80419002446E+02 0. -1.
<mgrwt>
<rscale>  0 0.81628133E+02</rscale>
<asrwt>0</asrwt>
<pdfrwt beam="1">  1        2 0.32619456E+00 0.81628133E+02</pdfrwt>
<pdfrwt beam="2">  1       -2 0.64194658E-03 0.81628133E+02</pdfrwt>
<totfact> 0.24481843E+04</totfact>
</mgrwt>
</event>
<event>
 4    1  0.5074571E-001  0.8174964E+02  0.7546771E-02  0.1324158E+00
          1   -1    0    0  501    0  0.00000000000E+00  0.00000000000E+00  0.33453055125E+02  0.33453055125E+02  0.00000000000E+00 0. -1.
         -1   -1    0    0    0  501 -0.00000000000E+00 -0.00000000000E+00 -0.40963971598E+03  0.40963971598E+03  0.00000000000E+00 0.  1.
         24    1    1    2    0    0 -0.13749597406E+02 -0.51706765608E+01 -0.34666874454E+03  0.35617723358E+03  0.80419002446E+02 0.  1.
        -24    1    1    2    0    0  0.13749597406E+02  0.51706765608E+01 -0.29517916309E+02  0.86915537521E+02  0.80419002446E+02 0.  0.
<mgrwt>
<rscale>  0 0.81749638E+02</rscale>
<asrwt>0</asrwt>
<pdfrwt beam="1">  1        1 0.51466243E-02 0.81749638E+02</pdfrwt>
<pdfrwt beam="2">  1       -1 0.63021490E-01 0.81749638E+02</pdfrwt>
<totfact> 0.39047273E+03</totfact>
</mgrwt>
</event>
<event>
 4    1  0.5074571E-001  0.1229611E+03  0.7546771E-02  0.1238291E+00
          1   -1    0    0  501    0  0.00000000000E+00  0.00000000000E+00  0.10428179230E+04  0.10428179230E+04  0.00000000000E+00 0. -1.
         -1   -1    0    0    0  501 -0.00000000000E+00 -0.00000000000E+00 -0.35287132269E+02  0.35287132269E+02  0.00000000000E+00 0.  1.
         24    1    1    2    0    0 -0.90634760696E+02  0.20917823791E+02  0.90018731061E+02  0.15239029856E+03  0.80419002446E+02 0.  1.
        -24    1    1    2    0    0  0.90634760696E+02 -0.20917823791E+02  0.91751205968E+03  0.92571475672E+03  0.80419002446E+02 0. -1.
<mgrwt>
<rscale>  0 0.12296110E+03</rscale>
<asrwt>0</asrwt>
<pdfrwt beam="1">  1        1 0.16043350E+00 0.12296110E+03</pdfrwt>
<pdfrwt beam="2">  1       -1 0.54287904E-02 0.12296110E+03</pdfrwt>
<totfact> 0.22827103E+03</totfact>
</mgrwt>
</event>
<event>
 4    1  0.5074571E-001  0.8859325E+02  0.7546771E-02  0.1306295E+00
         -2   -1    0    0    0  501 -0.00000000000E+00  0.00000000000E+00  0.95574807003E+01  0.95574807003E+01  0.00000000000E+00 0.  1.
          2   -1    0    0  501    0  0.00000000000E+00 -0.00000000000E+00 -0.24983415342E+04  0.24983415342E+04  0.00000000000E+00 0. -1.
         24    1    1    2    0    0  0.19707480791E+02 -0.31514497461E+02 -0.22717855397E+04  0.22735123273E+04  0.80419002446E+02 0. -1.
        -24    1    1    2    0    0 -0.19707480791E+02  0.31514497461E+02 -0.21699851387E+03  0.23438668761E+03  0.80419002446E+02 0.  1.
<mgrwt>
<rscale>  0 0.88593252E+02</rscale>
<asrwt>0</asrwt>
<pdfrwt beam="1">  1        2 0.38435969E+00 0.88593252E+02</pdfrwt>
<pdfrwt beam="2">  1       -2 0.14703837E-02 0.88593252E+02</pdfrwt>
<totfact> 0.48746265E+03</totfact>
</mgrwt>
</event>
<event>
 4    1  0.5074571E-001  0.1217485E+03  0.7546771E-02  0.1240240E+00
         -2   -1    0    0    0  501 -0.00000000000E+00  0.00000000000E+00  0.13849950552E+03  0.13849950552E+03  0.00000000000E+00 0.  1.
          2   -1    0    0  501    0  0.00000000000E+00 -0.00000000000E+00 -0.18436919873E+03  0.18436919873E+03  0.00000000000E+00 0. -1.
         24    1    1    2    0    0  0.59256459480E+02 -0.69599938194E+02  0.81626215505E+02  0.14657944740E+03  0.80419002446E+02 0.  0.
        -24    1    1    2    0    0 -0.59256459480E+02  0.69599938194E+02 -0.12749590872E+03  0.17628925685E+03  0.80419002446E+02 0.  0.
<mgrwt>
<rscale>  0 0.12174851E+03</rscale>
<asrwt>0</asrwt>
<pdfrwt beam="1">  1        2 0.28364492E-01 0.12174852E+03</pdfrwt>
<pdfrwt beam="2">  1       -2 0.21307616E-01 0.12174852E+03</pdfrwt>
<totfact> 0.33664165E+03</totfact>
</mgrwt>
</event>
<event>
 4    1  0.5074571E-001  0.8075474E+02  0.7546771E-02  0.1326923E+00
         -3   -1    0    0    0  501 -0.00000000000E+00  0.00000000000E+00  0.53393441739E+02  0.53393441739E+02  0.00000000000E+00 0.  1.
          3   -1    0    0  501    0  0.00000000000E+00 -0.00000000000E+00 -0.15818537214E+03  0.15818537214E+03  0.00000000000E+00 0. -1.
         24    1    1    2    0    0  0.47540858637E+01  0.56135043535E+01 -0.18949300560E+01  0.80776973686E+02  0.80419002446E+02 0.  1.
        -24    1    1    2    0    0 -0.47540858637E+01 -0.56135043535E+01 -0.10289700034E+03  0.13080184019E+03  0.80419002446E+02 0.  0.
<mgrwt>
<rscale>  0 0.80754744E+02</rscale>
<asrwt>0</asrwt>
<pdfrwt beam="1">  1        3 0.24336210E-01 0.80754744E+02</pdfrwt>
<pdfrwt beam="2">  1       -3 0.82143759E-02 0.80754744E+02</pdfrwt>
<totfact> 0.33049530E+03</totfact>
</mgrwt>
</event>
<event>
 4    1  0.5074571E-001  0.1050260E+03  0.7546771E-02  0.1270068E+00
          2   -1    0    0  501    0  0.00000000000E+00  0.00000000000E+00  0.26682037564E+04  0.26682037564E+04  0.00000000000E+00 0. -1.
         -2   -1    0    0    0  501 -0.00000000000E+00 -0.00000000000E+00 -0.44631312691E+01  0.44631312691E+01  0.00000000000E+00 0.  1.
         24    1    1    2    0    0 -0.63449715233E+02  0.23181326792E+02  0.16947430837E+04  0.16979942803E+04  0.80419002446E+02 0.  1.
        -24    1    1    2    0    0  0.63449715233E+02 -0.23181326792E+02  0.96899754139E+03  0.97467260731E+03  0.80419002446E+02 0. -1.
<mgrwt>
<rscale>  0 0.10502598E+03</rscale>
<asrwt>0</asrwt>
<pdfrwt beam="1">  1        2 0.41049161E+00 0.10502598E+03</pdfrwt>
<pdfrwt beam="2">  1       -2 0.68663771E-03 0.10502598E+03</pdfrwt>
<totfact> 0.11693791E+04</totfact>
</mgrwt>
</event>
<event>
 4    1  0.5074571E-001  0.9482311E+02  0.7546771E-02  0.1291575E+00
          2   -1    0    0  501    0  0.00000000000E+00  0.00000000000E+00  0.27165754977E+03  0.27165754977E+03  0.00000000000E+00 0. -1.
         -2   -1    0    0    0  501 -0.00000000000E+00 -0.00000000000E+00 -0.13603290377E+03  0.13603290377E+03  0.00000000000E+00 0.  1.
         24    1    1    2    0    0  0.31052846209E+02  0.39495904847E+02  0.24513289192E+03  0.26283370486E+03  0.80419002446E+02 0. -1.
        -24    1    1    2    0    0 -0.31052846209E+02 -0.39495904847E+02 -0.10950824592E+03  0.14485674867E+03  0.80419002446E+02 0.  1.
<mgrwt>
<rscale>  0 0.94823107E+02</rscale>
<asrwt>0</asrwt>
<pdfrwt beam="1">  1        2 0.41793469E-01 0.94823107E+02</pdfrwt>
<pdfrwt beam="2">  1       -2 0.20928139E-01 0.94823107E+02</pdfrwt>
<totfact> 0.22676811E+03</totfact>
</mgrwt>
</event>
<event>
 4    1  0.5074571E-001  0.8732565E+02  0.7546771E-02  0.1309460E+00
          2   -1    0    0  501    0  0.00000000000E+00  0.00000000000E+00  0.31922952548E+02  0.31922952548E+02  0.00000000000E+00 0. -1.
         -2   -1    0    0    0  501 -0.00000000000E+00 -0.00000000000E+00 -0.24188241685E+03  0.24188241685E+03  0.00000000000E+00 0.  1.
         24    1    1    2    0    0  0.22596755063E+02  0.25454584258E+02 -0.12023156681E+03  0.14859809828E+03  0.80419002446E+02 0.  1.
        -24    1    1    2    0    0 -0.22596755063E+02 -0.25454584258E+02 -0.89727897488E+02  0.12520727112E+03  0.80419002446E+02 0. -1.
<mgrwt>
<rscale>  0 0.87325638E+02</rscale>
<asrwt>0</asrwt>
<pdfrwt beam="1">  1        2 0.49112234E-02 0.87325649E+02</pdfrwt>
<pdfrwt beam="2">  1       -2 0.37212680E-01 0.87325649E+02</pdfrwt>
<totfact> 0.98708546E+03</totfact>
</mgrwt>
</event>
<event>
 4    1  0.5074571E-001  0.8800325E+02  0.7546771E-02  0.1307760E+00
          2   -1    0    0  501    0  0.00000000000E+00  0.00000000000E+00  0.35914184780E+03  0.35914184780E+03  0.00000000000E+00 0. -1.
         -2   -1    0    0    0  501 -0.00000000000E+00 -0.00000000000E+00 -0.50284911235E+02  0.50284911235E+02  0.00000000000E+00 0.  1.
         24    1    1    2    0    0  0.28663566209E+02  0.21348436510E+02  0.30914107880E+03  0.32142305195E+03  0.80419002446E+02 0. -1.
        -24    1    1    2    0    0 -0.28663566209E+02 -0.21348436510E+02 -0.28414223528E+00  0.88003707083E+02  0.80419002446E+02 0.  1.
<mgrwt>
<rscale>  0 0.88003248E+02</rscale>
<asrwt>0</asrwt>
<pdfrwt beam="1">  1        2 0.55252590E-01 0.88003248E+02</pdfrwt>
<pdfrwt beam="2">  1       -2 0.77361404E-02 0.88003248E+02</pdfrwt>
<totfact> 0.82452695E+03</totfact>
</mgrwt>
</event>
<event>
 4    1  0.5074571E-001  0.9289095E+02  0.7546771E-02  0.1295998E+00
         -4   -1    0    0    0  501 -0.00000000000E+00  0.00000000000E+00  0.93678699848E+02  0.93678699848E+02  0.00000000000E+00 0.  1.
          4   -1    0    0  501    0  0.00000000000E+00 -0.00000000000E+00 -0.58063322878E+03  0.58063322878E+03  0.00000000000E+00 0. -1.
         24    1    1    2    0    0  0.46356502124E+02 -0.35478763670E+01 -0.55273643787E+03  0.56048755420E+03  0.80419002446E+02 0. -1.
        -24    1    1    2    0    0 -0.46356502124E+02  0.35478763670E+01  0.65781908935E+02  0.11382437443E+03  0.80419002446E+02 0.  1.
<mgrwt>
<rscale>  0 0.92890950E+02</rscale>
<asrwt>0</asrwt>
<pdfrwt beam="1">  1        4 0.89328188E-01 0.92890950E+02</pdfrwt>
<pdfrwt beam="2">  1       -4 0.14412108E-01 0.92890950E+02</pdfrwt>
<totfact> 0.70760714E+01</totfact>
</mgrwt>
</event>
<event>
 4    1  0.5074571E-001  0.1860840E+03  0.7546771E-02  0.1162041E+00
         -1   -1    0    0    0  501 -0.00000000000E+00  0.00000000000E+00  0.69939861628E+02  0.69939861628E+02  0.00000000000E+00 0.  1.
          1   -1    0    0  501    0  0.00000000000E+00 -0.00000000000E+00 -0.20587596075E+04  0.20587596075E+04  0.00000000000E+00 0. -1.
         24    1    1    2    0    0 -0.16559176845E+03 -0.27192039481E+02 -0.66827294007E+02  0.19771986235E+03  0.80419002446E+02 0.  1.
        -24    1    1    2    0    0  0.16559176845E+03  0.27192039481E+02 -0.19219924519E+04  0.19309796068E+04  0.80419002446E+02 0. -1.
<mgrwt>
<rscale>  0 0.18608400E+03</rscale>
<asrwt>0</asrwt>
<pdfrwt beam="1">  1        1 0.31673218E+00 0.18608400E+03</pdfrwt>
<pdfrwt beam="2">  1       -1 0.10759981E-01 0.18608400E+03</pdfrwt>
<totfact> 0.17262798E+02</totfact>
</mgrwt>
</event>
<event>
 4    1  0.5074571E-001  0.9184706E+02  0.7546771E-02  0.1298439E+00
          1   -1    0    0  501    0  0.00000000000E+00  0.00000000000E+00  0.12115881075E+04  0.12115881075E+04  0.00000000000E+00 0. -1.
         -1   -1    0    0    0  501 -0.00000000000E+00 -0.00000000000E+00 -0.69796368641E+01  0.69796368641E+01  0.00000000000E+00 0.  1.
         24    1    1    2    0    0 -0.41869892777E+02 -0.14682607940E+02  0.57226006483E+03  0.57958387197E+03  0.80419002446E+02 0. -1.
        -24    1    1    2    0    0  0.41869892777E+02  0.14682607940E+02  0.63234840581E+03  0.63898387240E+03  0.80419002446E+02 0.  1.
<mgrwt>
<rscale>  0 0.91847062E+02</rscale>
<asrwt>0</asrwt>
<pdfrwt beam="1">  1        1 0.18639800E+00 0.91847062E+02</pdfrwt>
<pdfrwt beam="2">  1       -1 0.10737912E-02 0.91847062E+02</pdfrwt>
<totfact> 0.17771807E+04</totfact>
</mgrwt>
</event>
<event>
 4    1  0.5074571E-001  0.9068433E+02  0.7546771E-02  0.1301203E+00
         -2   -1    0    0    0  501 -0.00000000000E+00  0.00000000000E+00  0.95487950498E+01  0.95487950498E+01  0.00000000000E+00 0.  1.
          2   -1    0    0  501    0  0.00000000000E+00 -0.00000000000E+00 -0.18643003851E+04  0.18643003851E+04  0.00000000000E+00 0. -1.
         24    1    1    2    0    0 -0.21400224441E+02  0.36034184659E+02 -0.16146242528E+04  0.16171688612E+04  0.80419002446E+02 0. -1.
        -24    1    1    2    0    0  0.21400224441E+02 -0.36034184659E+02 -0.24012733732E+03  0.25668031898E+03  0.80419002446E+02 0.  1.
<mgrwt>
<rscale>  0 0.90684332E+02</rscale>
<asrwt>0</asrwt>
<pdfrwt beam="1">  1        2 0.28681520E+00 0.90684332E+02</pdfrwt>
<pdfrwt beam="2">  1       -2 0.14690466E-02 0.90684332E+02</pdfrwt>
<totfact> 0.10273058E+04</totfact>
</mgrwt>
</event>
<event>
 4    1  0.5074571E-001  0.1069763E+03  0.7546771E-02  0.1266274E+00
          1   -1    0    0  501    0  0.00000000000E+00  0.00000000000E+00  0.78095605333E+02  0.78095605333E+02  0.00000000000E+00 0. -1.
         -1   -1    0    0    0  501 -0.00000000000E+00 -0.00000000000E+00 -0.37461289800E+03  0.37461289800E+03  0.00000000000E+00 0.  1.
         24    1    1    2    0    0  0.45760657181E+02  0.53690582627E+02 -0.32487728919E+03  0.34203681877E+03  0.80419002446E+02 0.  1.
        -24    1    1    2    0    0 -0.45760657181E+02 -0.53690582627E+02  0.28359996517E+02  0.11067168457E+03  0.80419002446E+02 0. -1.
<mgrwt>
<rscale>  0 0.10697632E+03</rscale>
<asrwt>0</asrwt>
<pdfrwt beam="1">  1        1 0.12014709E-01 0.10697632E+03</pdfrwt>
<pdfrwt beam="2">  1       -1 0.57632753E-01 0.10697632E+03</pdfrwt>
<totfact> 0.15250915E+03</totfact>
</mgrwt>
</event>
<event>
 4    1  0.5074571E-001  0.8226360E+02  0.7546771E-02  0.1322748E+00
          2   -1    0    0  501    0  0.00000000000E+00  0.00000000000E+00  0.10981281549E+03  0.10981281549E+03  0.00000000000E+00 0. -1.
         -2   -1    0    0    0  501 -0.00000000000E+00 -0.00000000000E+00 -0.11638300600E+03  0.11638300600E+03  0.00000000000E+00 0.  1.
         24    1    1    2    0    0  0.15860520070E+02 -0.69662382315E+01  0.74291463789E+02  0.11084458543E+03  0.80419002446E+02 0. -1.
        -24    1    1    2    0    0 -0.15860520070E+02  0.69662382315E+01 -0.80861654299E+02  0.11535123607E+03  0.80419002446E+02 0.  1.
<mgrwt>
<rscale>  0 0.82263604E+02</rscale>
<asrwt>0</asrwt>
<pdfrwt beam="1">  1        2 0.16894279E-01 0.82263604E+02</pdfrwt>
<pdfrwt beam="2">  1       -2 0.17905078E-01 0.82263604E+02</pdfrwt>
<totfact> 0.77812053E+03</totfact>
</mgrwt>
</event>
<event>
 4    1  0.5074571E-001  0.8332139E+02  0.7546771E-02  0.1319882E+00
         -1   -1    0    0    0  501 -0.00000000000E+00  0.00000000000E+00  0.63952694846E+02  0.63952694846E+02  0.00000000000E+00 0.  1.
          1   -1    0    0  501    0  0.00000000000E+00 -0.00000000000E+00 -0.24044997628E+03  0.24044997628E+03  0.00000000000E+00 0. -1.
         24    1    1    2    0    0 -0.20009479287E+02 -0.86521035771E+01  0.24475890142E+02  0.86841944418E+02  0.80419002446E+02 0.  1.
        -24    1    1    2    0    0  0.20009479287E+02  0.86521035771E+01 -0.20097317158E+03  0.21756072671E+03  0.80419002446E+02 0. -1.
<mgrwt>
<rscale>  0 0.83321390E+02</rscale>
<asrwt>0</asrwt>
<pdfrwt beam="1">  1        1 0.36992303E-01 0.83321390E+02</pdfrwt>
<pdfrwt beam="2">  1       -1 0.98388763E-02 0.83321390E+02</pdfrwt>
<totfact> 0.66549830E+03</totfact>
</mgrwt>
</event>
<event>
 4    1  0.5074571E-001  0.9432938E+02  0.7546771E-02  0.1292694E+00
          2   -1    0    0  501    0  0.00000000000E+00  0.00000000000E+00  0.88681310435E+02  0.88681310435E+02  0.00000000000E+00 0. -1.
         -2   -1    0    0    0  501 -0.00000000000E+00 -0.00000000000E+00 -0.10993273352E+03  0.10993273352E+03  0.00000000000E+00 0.  1.
         24    1    1    2    0    0  0.48317342959E+02  0.98107134129E+01  0.18713720140E+02  0.96167744094E+02  0.80419002446E+02 0. -1.
        -24    1    1    2    0    0 -0.48317342959E+02 -0.98107134129E+01 -0.39965143228E+02  0.10244629986E+03  0.80419002446E+02 0.  0.
<mgrwt>
<rscale>  0 0.94329379E+02</rscale>
<asrwt>0</asrwt>
<pdfrwt beam="1">  1        2 0.13643279E-01 0.94329379E+02</pdfrwt>
<pdfrwt beam="2">  1       -2 0.16912728E-01 0.94329379E+02</pdfrwt>
<totfact> 0.11077243E+04</totfact>
</mgrwt>
</event>
<event>
 4    1  0.5074571E-001  0.8606086E+02  0.7546771E-02  0.1312681E+00
         -3   -1    0    0    0  501 -0.00000000000E+00  0.00000000000E+00  0.30607230497E+03  0.30607230497E+03  0.00000000000E+00 0.  1.
          3   -1    0    0  501    0  0.00000000000E+00 -0.00000000000E+00 -0.33969473082E+02  0.33969473082E+02  0.00000000000E+00 0. -1.
         24    1    1    2    0    0  0.23194313358E+02 -0.20031944258E+02  0.22723742753E+03  0.24298831121E+03  0.80419002446E+02 0.  1.
        -24    1    1    2    0    0 -0.23194313358E+02  0.20031944258E+02  0.44865404364E+02  0.97053466842E+02  0.80419002446E+02 0. -1.
<mgrwt>
<rscale>  0 0.86060856E+02</rscale>
<asrwt>0</asrwt>
<pdfrwt beam="1">  1        3 0.52260730E-02 0.86060856E+02</pdfrwt>
<pdfrwt beam="2">  1       -3 0.47088045E-01 0.86060856E+02</pdfrwt>
<totfact> 0.20107437E+03</totfact>
</mgrwt>
</event>
<event>
 4    1  0.5074571E-001  0.9194744E+02  0.7546771E-02  0.1298203E+00
          1   -1    0    0  501    0  0.00000000000E+00  0.00000000000E+00  0.95843723188E+03  0.95843723188E+03  0.00000000000E+00 0. -1.
         -1   -1    0    0    0  501 -0.00000000000E+00 -0.00000000000E+00 -0.10323196036E+02  0.10323196036E+02  0.00000000000E+00 0.  1.
         24    1    1    2    0    0 -0.43462092857E+02 -0.99076959300E+01  0.28927951855E+03  0.30354072505E+03  0.80419002446E+02 0.  1.
        -24    1    1    2    0    0  0.43462092857E+02  0.99076959300E+01  0.65883451729E+03  0.66521970286E+03  0.80419002446E+02 0. -1.
<mgrwt>
<rscale>  0 0.91947441E+02</rscale>
<asrwt>0</asrwt>
<pdfrwt beam="1">  1        1 0.14745181E+00 0.91947441E+02</pdfrwt>
<pdfrwt beam="2">  1       -1 0.15881848E-02 0.91947441E+02</pdfrwt>
<totfact> 0.15343167E+04</totfact>
</mgrwt>
</event>
<event>
 4    1  0.5074571E-001  0.1002179E+03  0.7546771E-02  0.1279838E+00
          1   -1    0    0  501    0  0.00000000000E+00  0.00000000000E+00  0.42377635920E+02  0.42377635920E+02  0.00000000000E+00 0. -1.
         -1   -1    0    0    0  501 -0.00000000000E+00 -0.00000000000E+00 -0.35031677036E+03  0.35031677036E+03  0.00000000000E+00 0.  1.
         24    1    1    2    0    0  0.57497206752E+02  0.16446133182E+02 -0.26563941093E+03  0.28391533364E+03  0.80419002446E+02 0.  1.
        -24    1    1    2    0    0 -0.57497206752E+02 -0.16446133182E+02 -0.42299723507E+02  0.10877907264E+03  0.80419002446E+02 0. -1.
<mgrwt>
<rscale>  0 0.10021786E+03</rscale>
<asrwt>0</asrwt>
<pdfrwt beam="1">  1        1 0.65196363E-02 0.10021786E+03</pdfrwt>
<pdfrwt beam="2">  1       -1 0.53894888E-01 0.10021786E+03</pdfrwt>
<totfact> 0.38635563E+03</totfact>
</mgrwt>
</event>
<event>
 4    1  0.5074571E-001  0.9632802E+02  0.7546771E-02  0.1288213E+00
          2   -1    0    0  501    0  0.00000000000E+00  0.00000000000E+00  0.18564907108E+03  0.18564907108E+03  0.00000000000E+00 0. -1.
         -2   -1    0    0    0  501 -0.00000000000E+00 -0.00000000000E+00 -0.57823626666E+02  0.57823626666E+02  0.00000000000E+00 0.  1.
         24    1    1    2    0    0 -0.50304233377E+02 -0.16773684799E+02  0.10874328571E+03  0.14527281418E+03  0.80419002446E+02 0. -1.
        -24    1    1    2    0    0  0.50304233377E+02  0.16773684799E+02  0.19082158700E+02  0.98199883566E+02  0.80419002446E+02 0.  1.
<mgrwt>
<rscale>  0 0.96328025E+02</rscale>
<asrwt>0</asrwt>
<pdfrwt beam="1">  1        2 0.28561395E-01 0.96328025E+02</pdfrwt>
<pdfrwt beam="2">  1       -2 0.88959426E-02 0.96328025E+02</pdfrwt>
<totfact> 0.13446130E+04</totfact>
</mgrwt>
</event>
<event>
 4    1  0.5074571E-001  0.1002793E+03  0.7546771E-02  0.1279710E+00
         -1   -1    0    0    0  501 -0.00000000000E+00  0.00000000000E+00  0.31453595279E+02  0.31453595279E+02  0.00000000000E+00 0.  1.
          1   -1    0    0  501    0  0.00000000000E+00 -0.00000000000E+00 -0.46841604978E+03  0.46841604978E+03  0.00000000000E+00 0. -1.
         24    1    1    2    0    0  0.35242573355E+02 -0.48442639841E+02 -0.77656430084E+02  0.12683243047E+03  0.80419002446E+02 0.  1.
        -24    1    1    2    0    0 -0.35242573355E+02  0.48442639841E+02 -0.35930602441E+03  0.37303721459E+03  0.80419002446E+02 0. -1.
<mgrwt>
<rscale>  0 0.10027933E+03</rscale>
<asrwt>0</asrwt>
<pdfrwt beam="1">  1        1 0.72064007E-01 0.10027933E+03</pdfrwt>
<pdfrwt beam="2">  1       -1 0.48390147E-02 0.10027933E+03</pdfrwt>
<totfact> 0.85013976E+03</totfact>
</mgrwt>
</event>
<event>
 4    1  0.5074571E-001  0.1012806E+03  0.7546771E-02  0.1277626E+00
          2   -1    0    0  501    0  0.00000000000E+00  0.00000000000E+00  0.17765872708E+04  0.17765872708E+04  0.00000000000E+00 0. -1.
         -2   -1    0    0    0  501 -0.00000000000E+00 -0.00000000000E+00 -0.97561357937E+01  0.97561357937E+01  0.00000000000E+00 0.  1.
         24    1    1    2    0    0 -0.27484753253E+02 -0.55092112475E+02  0.14540548093E+04  0.14575778390E+04  0.80419002446E+02 0. -1.
        -24    1    1    2    0    0  0.27484753253E+02  0.55092112475E+02  0.31277632570E+03  0.32876556753E+03  0.80419002446E+02 0.  1.
<mgrwt>
<rscale>  0 0.10128064E+03</rscale>
<asrwt>0</asrwt>
<pdfrwt beam="1">  1        2 0.27332086E+00 0.10128064E+03</pdfrwt>
<pdfrwt beam="2">  1       -2 0.15009454E-02 0.10128064E+03</pdfrwt>
<totfact> 0.11082124E+04</totfact>
</mgrwt>
</event>
<event>
 4    1  0.5074571E-001  0.9293228E+02  0.7546771E-02  0.1295902E+00
          2   -1    0    0  501    0  0.00000000000E+00  0.00000000000E+00  0.81248216521E+03  0.81248216521E+03  0.00000000000E+00 0. -1.
         -2   -1    0    0    0  501 -0.00000000000E+00 -0.00000000000E+00 -0.10632987703E+02  0.10632987703E+02  0.00000000000E+00 0.  1.
         24    1    1    2    0    0  0.33671344047E+02 -0.32178082057E+02  0.39363733571E+03  0.40445859664E+03  0.80419002446E+02 0.  0.
        -24    1    1    2    0    0 -0.33671344047E+02  0.32178082057E+02  0.40821184180E+03  0.41865655628E+03  0.80419002446E+02 0.  1.
<mgrwt>
<rscale>  0 0.92932268E+02</rscale>
<asrwt>0</asrwt>
<pdfrwt beam="1">  1        2 0.12499721E+00 0.92932280E+02</pdfrwt>
<pdfrwt beam="2">  1       -2 0.16358449E-02 0.92932280E+02</pdfrwt>
<totfact> 0.32777267E+04</totfact>
</mgrwt>
</event>
<event>
 4    1  0.5074571E-001  0.9189345E+02  0.7546771E-02  0.1298330E+00
         -2   -1    0    0    0  501 -0.00000000000E+00  0.00000000000E+00  0.45562425402E+02  0.45562425402E+02  0.00000000000E+00 0.  1.
          2   -1    0    0  501    0  0.00000000000E+00 -0.00000000000E+00 -0.18534479393E+03  0.18534479393E+03  0.00000000000E+00 0. -1.
         24    1    1    2    0    0  0.18840323109E+02  0.40276946303E+02 -0.70636804022E+02  0.11590497925E+03  0.80419002446E+02 0.  1.
        -24    1    1    2    0    0 -0.18840323109E+02 -0.40276946303E+02 -0.69145564506E+02  0.11500224008E+03  0.80419002446E+02 0.  0.
<mgrwt>
<rscale>  0 0.91893450E+02</rscale>
<asrwt>0</asrwt>
<pdfrwt beam="1">  1        2 0.28514584E-01 0.91893450E+02</pdfrwt>
<pdfrwt beam="2">  1       -2 0.70096039E-02 0.91893450E+02</pdfrwt>
<totfact> 0.19297964E+04</totfact>
</mgrwt>
</event>
<event>
 4    1  0.5074571E-001  0.8619691E+02  0.7546771E-02  0.1312332E+00
          2   -1    0    0  501    0  0.00000000000E+00  0.00000000000E+00  0.21582797280E+03  0.21582797280E+03  0.00000000000E+00 0. -1.
         -2   -1    0    0    0  501 -0.00000000000E+00 -0.00000000000E+00 -0.78667291408E+02  0.78667291408E+02  0.00000000000E+00 0.  1.
         24    1    1    2    0    0  0.27010725453E+02 -0.15268003290E+02  0.17900583775E+03  0.19867812441E+03  0.80419002446E+02 0. -1.
        -24    1    1    2    0    0 -0.27010725453E+02  0.15268003290E+02 -0.41845156363E+02  0.95817139799E+02  0.80419002446E+02 0. -1.
<mgrwt>
<rscale>  0 0.86196909E+02</rscale>
<asrwt>0</asrwt>
<pdfrwt beam="1">  1        2 0.33204303E-01 0.86196909E+02</pdfrwt>
<pdfrwt beam="2">  1       -2 0.12102660E-01 0.86196909E+02</pdfrwt>
<totfact> 0.70127867E+03</totfact>
</mgrwt>
</event>
<event>
 4    1  0.5074571E-001  0.1056940E+03  0.7546771E-02  0.1268758E+00
          2   -1    0    0  501    0  0.00000000000E+00  0.00000000000E+00  0.10985641302E+03  0.10985641302E+03  0.00000000000E+00 0. -1.
         -2   -1    0    0    0  501 -0.00000000000E+00 -0.00000000000E+00 -0.11076768846E+03  0.11076768846E+03  0.00000000000E+00 0.  1.
         24    1    1    2    0    0  0.67786697815E+02  0.10439070546E+02  0.31124916410E+02  0.11018160904E+03  0.80419002446E+02 0. -1.
        -24    1    1    2    0    0 -0.67786697815E+02 -0.10439070546E+02 -0.32036191851E+02  0.11044249244E+03  0.80419002446E+02 0.  1.
<mgrwt>
<rscale>  0 0.10569402E+03</rscale>
<asrwt>0</asrwt>
<pdfrwt beam="1">  1        2 0.16900987E-01 0.10569402E+03</pdfrwt>
<pdfrwt beam="2">  1       -2 0.17041183E-01 0.10569402E+03</pdfrwt>
<totfact> 0.86261583E+03</totfact>
</mgrwt>
</event>
<event>
 4    1  0.5074571E-001  0.1152987E+03  0.7546771E-02  0.1251061E+00
          2   -1    0    0  501    0  0.00000000000E+00  0.00000000000E+00  0.16229402750E+04  0.16229402750E+04  0.00000000000E+00 0. -1.
         -2   -1    0    0    0  501 -0.00000000000E+00 -0.00000000000E+00 -0.44109189106E+02  0.44109189106E+02  0.00000000000E+00 0.  1.
         24    1    1    2    0    0 -0.36052726148E+02 -0.74342360142E+02  0.15415752434E+04  0.15458809891E+04  0.80419002446E+02 0. -1.
        -24    1    1    2    0    0  0.36052726148E+02  0.74342360142E+02  0.37255842516E+02  0.12116847499E+03  0.80419002446E+02 0.  1.
<mgrwt>
<rscale>  0 0.11529875E+03</rscale>
<asrwt>0</asrwt>
<pdfrwt beam="1">  1        2 0.24968307E+00 0.11529875E+03</pdfrwt>
<pdfrwt beam="2">  1       -2 0.67860304E-02 0.11529875E+03</pdfrwt>
<totfact> 0.14510139E+03</totfact>
</mgrwt>
</event>
<event>
 4    1  0.5074571E-001  0.9669745E+02  0.7546771E-02  0.1287398E+00
          2   -1    0    0  501    0  0.00000000000E+00  0.00000000000E+00  0.18255092416E+04  0.18255092416E+04  0.00000000000E+00 0. -1.
         -2   -1    0    0    0  501 -0.00000000000E+00 -0.00000000000E+00 -0.51664282198E+01  0.51664282198E+01  0.00000000000E+00 0.  1.
         24    1    1    2    0    0 -0.22715255275E+02 -0.48653860671E+02  0.99498086089E+03  0.99966860032E+03  0.80419002446E+02 0.  0.
        -24    1    1    2    0    0  0.22715255275E+02  0.48653860671E+02  0.82536195248E+03  0.83100706949E+03  0.80419002446E+02 0.  1.
<mgrwt>
<rscale>  0 0.96697451E+02</rscale>
<asrwt>0</asrwt>
<pdfrwt beam="1">  1        2 0.28084706E+00 0.96697451E+02</pdfrwt>
<pdfrwt beam="2">  1       -2 0.79483657E-03 0.96697451E+02</pdfrwt>
<totfact> 0.25776687E+04</totfact>
</mgrwt>
</event>
<event>
 4    1  0.5074571E-001  0.9024507E+02  0.7546771E-02  0.1302259E+00
          1   -1    0    0  501    0  0.00000000000E+00  0.00000000000E+00  0.22891522809E+03  0.22891522809E+03  0.00000000000E+00 0. -1.
         -1   -1    0    0    0  501 -0.00000000000E+00 -0.00000000000E+00 -0.44713990317E+02  0.44713990317E+02  0.00000000000E+00 0.  1.
         24    1    1    2    0    0  0.81925863805E+01 -0.40122792183E+02  0.30255340569E+02  0.95181713115E+02  0.80419002446E+02 0. -1.
        -24    1    1    2    0    0 -0.81925863805E+01  0.40122792183E+02  0.15394589720E+03  0.17844750529E+03  0.80419002446E+02 0. -1.
<mgrwt>
<rscale>  0 0.90245071E+02</rscale>
<asrwt>0</asrwt>
<pdfrwt beam="1">  1        1 0.35217727E-01 0.90245071E+02</pdfrwt>
<pdfrwt beam="2">  1       -1 0.68790756E-02 0.90245071E+02</pdfrwt>
<totfact> 0.12140612E+04</totfact>
</mgrwt>
</event>
<event>
 4    1  0.5074571E-001  0.8473861E+02  0.7546771E-02  0.1316118E+00
          1   -1    0    0  501    0  0.00000000000E+00  0.00000000000E+00  0.10143733705E+02  0.10143733705E+02  0.00000000000E+00 0. -1.
         -1   -1    0    0    0  501 -0.00000000000E+00 -0.00000000000E+00 -0.91651987804E+03  0.91651987804E+03  0.00000000000E+00 0.  1.
         24    1    1    2    0    0  0.23052320614E+02  0.13491001789E+02 -0.67424848118E+03  0.67955253435E+03  0.80419002446E+02 0.  1.
        -24    1    1    2    0    0 -0.23052320614E+02 -0.13491001789E+02 -0.23212766315E+03  0.24711107739E+03  0.80419002446E+02 0. -1.
<mgrwt>
<rscale>  0 0.84738613E+02</rscale>
<asrwt>0</asrwt>
<pdfrwt beam="1">  1        1 0.15605744E-02 0.84738613E+02</pdfrwt>
<pdfrwt beam="2">  1       -1 0.14100306E+00 0.84738613E+02</pdfrwt>
<totfact> 0.35392755E+03</totfact>
</mgrwt>
</event>
<event>
 4    1  0.5074571E-001  0.8109482E+02  0.7546771E-02  0.1325973E+00
         -1   -1    0    0    0  501 -0.00000000000E+00  0.00000000000E+00  0.13942269428E+04  0.13942269428E+04  0.00000000000E+00 0.  1.
          1   -1    0    0  501    0  0.00000000000E+00 -0.00000000000E+00 -0.53232263739E+01  0.53232263739E+01  0.00000000000E+00 0. -1.
         24    1    1    2    0    0 -0.24528323326E+01  0.10155679274E+02  0.93062981859E+03  0.93415642663E+03  0.80419002446E+02 0.  1.
        -24    1    1    2    0    0  0.24528323326E+01 -0.10155679274E+02  0.45827389781E+03  0.46539374252E+03  0.80419002446E+02 0.  0.
<mgrwt>
<rscale>  0 0.81094822E+02</rscale>
<asrwt>0</asrwt>
<pdfrwt beam="1">  1        1 0.81895901E-03 0.81094822E+02</pdfrwt>
<pdfrwt beam="2">  1       -1 0.21449616E+00 0.81094822E+02</pdfrwt>
<totfact> 0.26834696E+03</totfact>
</mgrwt>
</event>
<event>
 4    1  0.5074571E-001  0.9473520E+02  0.7546771E-02  0.1291774E+00
         -2   -1    0    0    0  501 -0.00000000000E+00  0.00000000000E+00  0.22672574114E+03  0.22672574114E+03  0.00000000000E+00 0.  1.
          2   -1    0    0  501    0  0.00000000000E+00 -0.00000000000E+00 -0.44271684593E+02  0.44271684593E+02  0.00000000000E+00 0. -1.
         24    1    1    2    0    0 -0.21661695590E+02  0.45147686907E+02  0.47136860276E+02  0.10581418733E+03  0.80419002446E+02 0. -1.
        -24    1    1    2    0    0  0.21661695590E+02 -0.45147686907E+02  0.13531719627E+03  0.16518323840E+03  0.80419002446E+02 0.  1.
<mgrwt>
<rscale>  0 0.94735203E+02</rscale>
<asrwt>0</asrwt>
<pdfrwt beam="1">  1        2 0.68110285E-02 0.94735203E+02</pdfrwt>
<pdfrwt beam="2">  1       -2 0.34880883E-01 0.94735203E+02</pdfrwt>
<totfact> 0.73871300E+03</totfact>
</mgrwt>
</event>
<event>
 4    1  0.5074571E-001  0.8138424E+02  0.7546771E-02  0.1325168E+00
          2   -1    0    0  501    0  0.00000000000E+00  0.00000000000E+00  0.58903850880E+03  0.58903850880E+03  0.00000000000E+00 0. -1.
         -2   -1    0    0    0  501 -0.00000000000E+00 -0.00000000000E+00 -0.11840115498E+02  0.11840115498E+02  0.00000000000E+00 0.  1.
         24    1    1    2    0    0 -0.85632296471E+01  0.91019538711E+01  0.22120932299E+03  0.23570522904E+03  0.80419002446E+02 0.  1.
        -24    1    1    2    0    0  0.85632296471E+01 -0.91019538711E+01  0.35598907031E+03  0.36517339526E+03  0.80419002446E+02 0.  1.
<mgrwt>
<rscale>  0 0.81384225E+02</rscale>
<asrwt>0</asrwt>
<pdfrwt beam="1">  1        2 0.90621286E-01 0.81384235E+02</pdfrwt>
<pdfrwt beam="2">  1       -2 0.18215567E-02 0.81384235E+02</pdfrwt>
<totfact> 0.40255255E+04</totfact>
</mgrwt>
</event>
<event>
 4    1  0.5074571E-001  0.9286015E+02  0.7546771E-02  0.1296070E+00
         -2   -1    0    0    0  501 -0.00000000000E+00  0.00000000000E+00  0.33885883148E+02  0.33885883148E+02  0.00000000000E+00 0.  1.
          2   -1    0    0  501    0  0.00000000000E+00 -0.00000000000E+00 -0.21507631071E+04  0.21507631071E+04  0.00000000000E+00 0. -1.
         24    1    1    2    0    0  0.81380279623E+01 -0.45711748592E+02 -0.20841091749E+04  0.20861769005E+04  0.80419002446E+02 0. -1.
        -24    1    1    2    0    0 -0.81380279623E+01  0.45711748592E+02 -0.32768049040E+02  0.98472089704E+02  0.80419002446E+02 0.  1.
<mgrwt>
<rscale>  0 0.92860150E+02</rscale>
<asrwt>0</asrwt>
<pdfrwt beam="1">  1        2 0.33088676E+00 0.92860150E+02</pdfrwt>
<pdfrwt beam="2">  1       -2 0.52132108E-02 0.92860150E+02</pdfrwt>
<totfact> 0.11706126E+03</totfact>
</mgrwt>
</event>
<event>
 4    1  0.5074571E-001  0.8720145E+02  0.7546771E-02  0.1309774E+00
         -3   -1    0    0    0  501 -0.00000000000E+00  0.00000000000E+00  0.15583837809E+03  0.15583837809E+03  0.00000000000E+00 0.  1.
          3   -1    0    0  501    0  0.00000000000E+00 -0.00000000000E+00 -0.27455092760E+03  0.27455092760E+03  0.00000000000E+00 0. -1.
         24    1    1    2    0    0  0.29286786706E+02 -0.16708092077E+02  0.13578082920E+03  0.16137077105E+03  0.80419002446E+02 0.  1.
        -24    1    1    2    0    0 -0.29286786706E+02  0.16708092077E+02 -0.25449337871E+03  0.26901853464E+03  0.80419002446E+02 0. -1.
<mgrwt>
<rscale>  0 0.87201446E+02</rscale>
<asrwt>0</asrwt>
<pdfrwt beam="1">  1        3 0.42238605E-01 0.87201446E+02</pdfrwt>
<pdfrwt beam="2">  1       -3 0.23975135E-01 0.87201446E+02</pdfrwt>
<totfact> 0.19926035E+02</totfact>
</mgrwt>
</event>
<event>
 4    1  0.5074571E-001  0.9264860E+02  0.7546771E-02  0.1296562E+00
         -1   -1    0    0    0  501 -0.00000000000E+00  0.00000000000E+00  0.15846833025E+02  0.15846833025E+02  0.00000000000E+00 0.  1.
          1   -1    0    0  501    0  0.00000000000E+00 -0.00000000000E+00 -0.10997616121E+04  0.10997616121E+04  0.00000000000E+00 0. -1.
         24    1    1    2    0    0  0.27557489131E+02  0.36839283142E+02 -0.14459658713E+03  0.17173216633E+03  0.80419002446E+02 0.  1.
        -24    1    1    2    0    0 -0.27557489131E+02 -0.36839283142E+02 -0.93931819193E+03  0.94387627878E+03  0.80419002446E+02 0. -1.
<mgrwt>
<rscale>  0 0.92648605E+02</rscale>
<asrwt>0</asrwt>
<pdfrwt beam="1">  1        1 0.16919410E+00 0.92648605E+02</pdfrwt>
<pdfrwt beam="2">  1       -1 0.24379743E-02 0.92648605E+02</pdfrwt>
<totfact> 0.66039798E+03</totfact>
</mgrwt>
</event>
<event>
 4    1  0.5074571E-001  0.8914513E+02  0.7546771E-02  0.1304935E+00
         -1   -1    0    0    0  501 -0.00000000000E+00  0.00000000000E+00  0.48377583187E+02  0.48377583187E+02  0.00000000000E+00 0.  1.
          1   -1    0    0  501    0  0.00000000000E+00 -0.00000000000E+00 -0.17790369483E+03  0.17790369483E+03  0.00000000000E+00 0. -1.
         24    1    1    2    0    0  0.23775399154E+02  0.30238527675E+02 -0.33439128435E+02  0.95210448091E+02  0.80419002446E+02 0.  1.
        -24    1    1    2    0    0 -0.23775399154E+02 -0.30238527675E+02 -0.96086983203E+02  0.13107082992E+03  0.80419002446E+02 0. -1.
<mgrwt>
<rscale>  0 0.89145130E+02</rscale>
<asrwt>0</asrwt>
<pdfrwt beam="1">  1        1 0.27369799E-01 0.89145130E+02</pdfrwt>
<pdfrwt beam="2">  1       -1 0.74427051E-02 0.89145130E+02</pdfrwt>
<totfact> 0.14696608E+04</totfact>
</mgrwt>
</event>
<event>
 4    1  0.5074571E-001  0.9126140E+02  0.7546771E-02  0.1299825E+00
          1   -1    0    0  501    0  0.00000000000E+00  0.00000000000E+00  0.91962572009E+02  0.91962572009E+02  0.00000000000E+00 0. -1.
         -1   -1    0    0    0  501 -0.00000000000E+00 -0.00000000000E+00 -0.93849758149E+02  0.93849758149E+02  0.00000000000E+00 0.  1.
         24    1    1    2    0    0  0.14733371853E+02 -0.40550653114E+02 -0.18323254484E+02  0.93082680040E+02  0.80419002446E+02 0.  1.
        -24    1    1    2    0    0 -0.14733371853E+02  0.40550653114E+02  0.16436068344E+02  0.92729650118E+02  0.80419002446E+02 0. -1.
<mgrwt>
<rscale>  0 0.91261403E+02</rscale>
<asrwt>0</asrwt>
<pdfrwt beam="1">  1        1 0.14148088E-01 0.91261403E+02</pdfrwt>
<pdfrwt beam="2">  1       -1 0.14438424E-01 0.91261403E+02</pdfrwt>
<totfact> 0.12384436E+04</totfact>
</mgrwt>
</event>
<event>
 4    1  0.5074571E-001  0.8224682E+02  0.7546771E-02  0.1322794E+00
         -1   -1    0    0    0  501 -0.00000000000E+00  0.00000000000E+00  0.36012266959E+02  0.36012266959E+02  0.00000000000E+00 0.  1.
          1   -1    0    0  501    0  0.00000000000E+00 -0.00000000000E+00 -0.20386985694E+03  0.20386985694E+03  0.00000000000E+00 0. -1.
         24    1    1    2    0    0 -0.76480495020E+00 -0.17226100653E+02 -0.50296383357E+02  0.96406771564E+02  0.80419002446E+02 0.  1.
        -24    1    1    2    0    0  0.76480495020E+00  0.17226100653E+02 -0.11756120662E+03  0.14347535233E+03  0.80419002446E+02 0. -1.
<mgrwt>
<rscale>  0 0.82246820E+02</rscale>
<asrwt>0</asrwt>
<pdfrwt beam="1">  1        1 0.31364593E-01 0.82246820E+02</pdfrwt>
<pdfrwt beam="2">  1       -1 0.55403488E-02 0.82246820E+02</pdfrwt>
<totfact> 0.19053458E+04</totfact>
</mgrwt>
</event>
<event>
 4    1  0.5074571E-001  0.8546732E+02  0.7546771E-02  0.1314215E+00
          1   -1    0    0  501    0  0.00000000000E+00  0.00000000000E+00  0.17578907390E+04  0.17578907390E+04  0.00000000000E+00 0. -1.
         -1   -1    0    0    0  501 -0.00000000000E+00 -0.00000000000E+00 -0.66560989216E+01  0.66560989216E+01  0.00000000000E+00 0.  1.
         24    1    1    2    0    0 -0.21324704999E+02  0.19562807113E+02  0.33482837366E+03  0.34556432430E+03  0.80419002446E+02 0.  0.
        -24    1    1    2    0    0  0.21324704999E+02 -0.19562807113E+02  0.14164062664E+04  0.14189825136E+04  0.80419002446E+02 0. -1.
<mgrwt>
<rscale>  0 0.85467318E+02</rscale>
<asrwt>0</asrwt>
<pdfrwt beam="1">  1        1 0.27044436E+00 0.85467318E+02</pdfrwt>
<pdfrwt beam="2">  1       -1 0.10240166E-02 0.85467318E+02</pdfrwt>
<totfact> 0.84355562E+03</totfact>
</mgrwt>
</event>
<event>
 4    1  0.5074571E-001  0.1219370E+03  0.7546771E-02  0.1239935E+00
         -2   -1    0    0    0  501 -0.00000000000E+00  0.00000000000E+00  0.78195573389E+01  0.78195573389E+01  0.00000000000E+00 0.  1.
          2   -1    0    0  501    0  0.00000000000E+00 -0.00000000000E+00 -0.22337594230E+04  0.22337594230E+04  0.00000000000E+00 0. -1.
         24    1    1    2    0    0 -0.65605548754E+02  0.64010342194E+02 -0.15452510511E+04  0.15500546567E+04  0.80419002446E+02 0. -1.
        -24    1    1    2    0    0  0.65605548754E+02 -0.64010342194E+02 -0.68068881455E+03  0.69152432361E+03  0.80419002446E+02 0.  1.
<mgrwt>
<rscale>  0 0.12193698E+03</rscale>
<asrwt>0</asrwt>
<pdfrwt beam="1">  1        2 0.34365514E+00 0.12193698E+03</pdfrwt>
<pdfrwt beam="2">  1       -2 0.12030094E-02 0.12193698E+03</pdfrwt>
<totfact> 0.89651167E+03</totfact>
</mgrwt>
</event>
<event>
 4    1  0.5074571E-001  0.9981301E+02  0.7546771E-02  0.1280690E+00
         -2   -1    0    0    0  501 -0.00000000000E+00  0.00000000000E+00  0.22588182114E+02  0.22588182114E+02  0.00000000000E+00 0.  1.
          2   -1    0    0  501    0  0.00000000000E+00 -0.00000000000E+00 -0.58602994362E+03  0.58602994362E+03  0.00000000000E+00 0. -1.
         24    1    1    2    0    0  0.58950069785E+02 -0.45066367160E+01 -0.43307737958E+03  0.44443070681E+03  0.80419002446E+02 0. -1.
        -24    1    1    2    0    0 -0.58950069785E+02  0.45066367160E+01 -0.13036438193E+03  0.16418741892E+03  0.80419002446E+02 0.  1.
<mgrwt>
<rscale>  0 0.99813007E+02</rscale>
<asrwt>0</asrwt>
<pdfrwt beam="1">  1        2 0.90158440E-01 0.99813007E+02</pdfrwt>
<pdfrwt beam="2">  1       -2 0.34751054E-02 0.99813007E+02</pdfrwt>
<totfact> 0.16251719E+04</totfact>
</mgrwt>
</event>
<event>
 4    1  0.5074571E-001  0.8067824E+02  0.7546771E-02  0.1327138E+00
         -1   -1    0    0    0  501 -0.00000000000E+00  0.00000000000E+00  0.18238437949E+02  0.18238437949E+02  0.00000000000E+00 0.  1.
          1   -1    0    0  501    0  0.00000000000E+00 -0.00000000000E+00 -0.64349051808E+03  0.64349051808E+03  0.00000000000E+00 0. -1.
         24    1    1    2    0    0  0.60739642024E+01 -0.22065972585E+01 -0.91813726615E+02  0.12222413208E+03  0.80419002446E+02 0.  0.
        -24    1    1    2    0    0 -0.60739642024E+01  0.22065972585E+01 -0.53343835352E+03  0.53950482395E+03  0.80419002446E+02 0. -1.
<mgrwt>
<rscale>  0 0.80678238E+02</rscale>
<asrwt>0</asrwt>
<pdfrwt beam="1">  1        1 0.98998523E-01 0.80678238E+02</pdfrwt>
<pdfrwt beam="2">  1       -1 0.28059141E-02 0.80678238E+02</pdfrwt>
<totfact> 0.12126177E+04</totfact>
</mgrwt>
</event>
<event>
 4    1  0.5074571E-001  0.9730237E+02  0.7546771E-02  0.1286073E+00
          2   -1    0    0  501    0  0.00000000000E+00  0.00000000000E+00  0.24541992000E+03  0.24541992000E+03  0.00000000000E+00 0. -1.
         -2   -1    0    0    0  501 -0.00000000000E+00 -0.00000000000E+00 -0.48989014878E+03  0.48989014878E+03  0.00000000000E+00 0.  1.
         24    1    1    2    0    0 -0.31588840191E+02 -0.44751312283E+02  0.23064711771E+03  0.25033146754E+03  0.80419002446E+02 0. -1.
        -24    1    1    2    0    0  0.31588840191E+02  0.44751312283E+02 -0.47511734650E+03  0.48497860125E+03  0.80419002446E+02 0.  1.
<mgrwt>
<rscale>  0 0.97302368E+02</rscale>
<asrwt>0</asrwt>
<pdfrwt beam="1">  1        2 0.37756911E-01 0.97302368E+02</pdfrwt>
<pdfrwt beam="2">  1       -2 0.75367715E-01 0.97302368E+02</pdfrwt>
<totfact> 0.22413590E+02</totfact>
</mgrwt>
</event>
<event>
 4    1  0.5074571E-001  0.8378650E+02  0.7546771E-02  0.1318637E+00
         -1   -1    0    0    0  501 -0.00000000000E+00  0.00000000000E+00  0.24191576187E+03  0.24191576187E+03  0.00000000000E+00 0.  1.
          1   -1    0    0  501    0  0.00000000000E+00 -0.00000000000E+00 -0.14038782090E+03  0.14038782090E+03  0.00000000000E+00 0. -1.
         24    1    1    2    0    0 -0.34971242332E+01 -0.23253644662E+02  0.22101716546E+03  0.23636574466E+03  0.80419002446E+02 0.  1.
        -24    1    1    2    0    0  0.34971242332E+01  0.23253644662E+02 -0.11948922449E+03  0.14593783811E+03  0.80419002446E+02 0. -1.
<mgrwt>
<rscale>  0 0.83786501E+02</rscale>
<asrwt>0</asrwt>
<pdfrwt beam="1">  1        1 0.21598126E-01 0.83786501E+02</pdfrwt>
<pdfrwt beam="2">  1       -1 0.37217810E-01 0.83786501E+02</pdfrwt>
<totfact> 0.15602746E+03</totfact>
</mgrwt>
</event>
<event>
 4    1  0.5074571E-001  0.8089483E+02  0.7546771E-02  0.1326531E+00
          2   -1    0    0  501    0  0.00000000000E+00  0.00000000000E+00  0.20519896295E+03  0.20519896295E+03  0.00000000000E+00 0. -1.
         -2   -1    0    0    0  501 -0.00000000000E+00 -0.00000000000E+00 -0.63397791914E+02  0.63397791914E+02  0.00000000000E+00 0.  1.
         24    1    1    2    0    0  0.64835014412E+01  0.58925702361E+01  0.16557588010E+03  0.18428061808E+03  0.80419002446E+02 0. -1.
        -24    1    1    2    0    0 -0.64835014412E+01 -0.58925702361E+01 -0.23774709073E+02  0.84316136776E+02  0.80419002446E+02 0.  1.
<mgrwt>
<rscale>  0 0.80894834E+02</rscale>
<asrwt>0</asrwt>
<pdfrwt beam="1">  1        2 0.31569071E-01 0.80894834E+02</pdfrwt>
<pdfrwt beam="2">  1       -2 0.97535066E-02 0.80894834E+02</pdfrwt>
<totfact> 0.10308463E+04</totfact>
</mgrwt>
</event>
<event>
 4    1  0.5074571E-001  0.1097846E+03  0.7546771E-02  0.1260969E+00
         -1   -1    0    0    0  501 -0.00000000000E+00  0.00000000000E+00  0.47382451783E+02  0.47382451783E+02  0.00000000000E+00 0.  1.
          1   -1    0    0  501    0  0.00000000000E+00 -0.00000000000E+00 -0.10099179144E+04  0.10099179144E+04  0.00000000000E+00 0. -1.
         24    1    1    2    0    0 -0.74320106938E+02  0.78715678542E+01 -0.24014833678E+02  0.11238046123E+03  0.80419002446E+02 0.  1.
        -24    1    1    2    0    0  0.74320106938E+02 -0.78715678542E+01 -0.93852062898E+03  0.94491990499E+03  0.80419002446E+02 0. -1.
<mgrwt>
<rscale>  0 0.10978459E+03</rscale>
<asrwt>0</asrwt>
<pdfrwt beam="1">  1        1 0.15537197E+00 0.10978459E+03</pdfrwt>
<pdfrwt beam="2">  1       -1 0.72896086E-02 0.10978459E+03</pdfrwt>
<totfact> 0.15526206E+03</totfact>
</mgrwt>
</event>
<event>
 4    1  0.5074571E-001  0.8543377E+02  0.7546771E-02  0.1314302E+00
         -3   -1    0    0    0  501 -0.00000000000E+00  0.00000000000E+00  0.39090980565E+03  0.39090980565E+03  0.00000000000E+00 0.  1.
          3   -1    0    0  501    0  0.00000000000E+00 -0.00000000000E+00 -0.19292899733E+02  0.19292899733E+02  0.00000000000E+00 0. -1.
         24    1    1    2    0    0  0.24785689162E+02  0.14743905829E+02  0.22261326821E+03  0.23844411564E+03  0.80419002446E+02 0.  1.
        -24    1    1    2    0    0 -0.24785689162E+02 -0.14743905829E+02  0.14900363771E+03  0.17175858975E+03  0.80419002446E+02 0. -1.
<mgrwt>
<rscale>  0 0.85433770E+02</rscale>
<asrwt>0</asrwt>
<pdfrwt beam="1">  1        3 0.29681387E-02 0.85433770E+02</pdfrwt>
<pdfrwt beam="2">  1       -3 0.60139964E-01 0.85433770E+02</pdfrwt>
<totfact> 0.29568573E+03</totfact>
</mgrwt>
</event>
<event>
 4    1  0.5074571E-001  0.9257710E+02  0.7546771E-02  0.1296728E+00
          1   -1    0    0  501    0  0.00000000000E+00  0.00000000000E+00  0.11420820040E+04  0.11420820040E+04  0.00000000000E+00 0. -1.
         -1   -1    0    0    0  501 -0.00000000000E+00 -0.00000000000E+00 -0.12349399590E+02  0.12349399590E+02  0.00000000000E+00 0.  1.
         24    1    1    2    0    0 -0.21796890270E+02 -0.40350943845E+02  0.20331757155E+03  0.22340222458E+03  0.80419002446E+02 0.  1.
        -24    1    1    2    0    0  0.21796890270E+02  0.40350943845E+02  0.92641503284E+03  0.93102917898E+03  0.80419002446E+02 0. -1.
<mgrwt>
<rscale>  0 0.92577098E+02</rscale>
<asrwt>0</asrwt>
<pdfrwt beam="1">  1        1 0.17570484E+00 0.92577098E+02</pdfrwt>
<pdfrwt beam="2">  1       -1 0.18999085E-02 0.92577098E+02</pdfrwt>
<totfact> 0.88200881E+03</totfact>
</mgrwt>
</event>
<event>
 4    1  0.5074571E-001  0.8101517E+02  0.7546771E-02  0.1326195E+00
         -1   -1    0    0    0  501 -0.00000000000E+00  0.00000000000E+00  0.36845969844E+03  0.36845969844E+03  0.00000000000E+00 0.  1.
          1   -1    0    0  501    0  0.00000000000E+00 -0.00000000000E+00 -0.29359262791E+02  0.29359262791E+02  0.00000000000E+00 0. -1.
         24    1    1    2    0    0  0.55278230322E+01  0.81046038510E+01  0.29428836875E+03  0.30523614034E+03  0.80419002446E+02 0.  0.
        -24    1    1    2    0    0 -0.55278230322E+01 -0.81046038510E+01  0.44812066901E+02  0.92582820898E+02  0.80419002446E+02 0. -1.
<mgrwt>
<rscale>  0 0.81015168E+02</rscale>
<asrwt>0</asrwt>
<pdfrwt beam="1">  1        1 0.45168099E-02 0.81015168E+02</pdfrwt>
<pdfrwt beam="2">  1       -1 0.56686104E-01 0.81015168E+02</pdfrwt>
<totfact> 0.56731722E+03</totfact>
</mgrwt>
</event>
<event>
 4    1  0.5074571E-001  0.8482462E+02  0.7546771E-02  0.1315892E+00
          4   -1    0    0  501    0  0.00000000000E+00  0.00000000000E+00  0.82514855854E+02  0.82514855854E+02  0.00000000000E+00 0. -1.
         -4   -1    0    0    0  501 -0.00000000000E+00 -0.00000000000E+00 -0.90692315249E+02  0.90692315249E+02  0.00000000000E+00 0.  1.
         24    1    1    2    0    0  0.26956160886E+02 -0.11683366670E+01  0.12908084044E+02  0.85801131743E+02  0.80419002446E+02 0.  1.
        -24    1    1    2    0    0 -0.26956160886E+02  0.11683366670E+01 -0.21085543439E+02  0.87406039361E+02  0.80419002446E+02 0. -1.
<mgrwt>
<rscale>  0 0.84824617E+02</rscale>
<asrwt>0</asrwt>
<pdfrwt beam="1">  1        4 0.12694593E-01 0.84824617E+02</pdfrwt>
<pdfrwt beam="2">  1       -4 0.13952664E-01 0.84824617E+02</pdfrwt>
<totfact> 0.31281589E+03</totfact>
</mgrwt>
</event>
<event>
 4    1  0.5074571E-001  0.1005414E+03  0.7546771E-02  0.1279162E+00
          3   -1    0    0  501    0  0.00000000000E+00  0.00000000000E+00  0.43921941019E+02  0.43921941019E+02  0.00000000000E+00 0. -1.
         -3   -1    0    0    0  501 -0.00000000000E+00 -0.00000000000E+00 -0.26871081362E+03  0.26871081362E+03  0.00000000000E+00 0.  1.
         24    1    1    2    0    0  0.54847624205E+02 -0.25161405743E+02 -0.17161094073E+03  0.19889416571E+03  0.80419002446E+02 0.  0.
        -24    1    1    2    0    0 -0.54847624205E+02  0.25161405743E+02 -0.53177931874E+02  0.11373858893E+03  0.80419002446E+02 0. -1.
<mgrwt>
<rscale>  0 0.10054141E+03</rscale>
<asrwt>0</asrwt>
<pdfrwt beam="1">  1        3 0.67572216E-02 0.10054141E+03</pdfrwt>
<pdfrwt beam="2">  1       -3 0.41340126E-01 0.10054141E+03</pdfrwt>
<totfact> 0.17774926E+03</totfact>
</mgrwt>
</event>
<event>
 4    1  0.5074571E-001  0.8308063E+02  0.7546771E-02  0.1320530E+00
         -2   -1    0    0    0  501 -0.00000000000E+00  0.00000000000E+00  0.44163318215E+03  0.44163318215E+03  0.00000000000E+00 0.  1.
          2   -1    0    0  501    0  0.00000000000E+00 -0.00000000000E+00 -0.44216093441E+02  0.44216093441E+02  0.00000000000E+00 0. -1.
         24    1    1    2    0    0 -0.99351845178E+01 -0.18343041204E+02  0.33805203819E+01  0.83149377174E+02  0.80419002446E+02 0. -1.
        -24    1    1    2    0    0  0.99351845178E+01  0.18343041204E+02  0.39403656832E+03  0.40269989841E+03  0.80419002446E+02 0.  0.
<mgrwt>
<rscale>  0 0.83080630E+02</rscale>
<asrwt>0</asrwt>
<pdfrwt beam="1">  1        2 0.68024762E-02 0.83080630E+02</pdfrwt>
<pdfrwt beam="2">  1       -2 0.67943563E-01 0.83080630E+02</pdfrwt>
<totfact> 0.19897349E+03</totfact>
</mgrwt>
</event>
<event>
 4    1  0.5074571E-001  0.8982833E+02  0.7546771E-02  0.1303268E+00
          2   -1    0    0  501    0  0.00000000000E+00  0.00000000000E+00  0.86435261313E+03  0.86435261313E+03  0.00000000000E+00 0. -1.
         -2   -1    0    0    0  501 -0.00000000000E+00 -0.00000000000E+00 -0.12409087548E+02  0.12409087548E+02  0.00000000000E+00 0.  1.
         24    1    1    2    0    0 -0.15826659307E+02 -0.36761794601E+02  0.64414793591E+03  0.65038118975E+03  0.80419002446E+02 0. -1.
        -24    1    1    2    0    0  0.15826659307E+02  0.36761794601E+02  0.20779558967E+03  0.22638051093E+03  0.80419002446E+02 0.  1.
<mgrwt>
<rscale>  0 0.89828329E+02</rscale>
<asrwt>0</asrwt>
<pdfrwt beam="1">  1        2 0.13297728E+00 0.89828329E+02</pdfrwt>
<pdfrwt beam="2">  1       -2 0.19090911E-02 0.89828329E+02</pdfrwt>
<totfact> 0.24243540E+04</totfact>
</mgrwt>
</event>
<event>
 4    1  0.5074571E-001  0.1081010E+03  0.7546771E-02  0.1264127E+00
          1   -1    0    0  501    0  0.00000000000E+00  0.00000000000E+00  0.93972708394E+02  0.93972708394E+02  0.00000000000E+00 0. -1.
         -1   -1    0    0    0  501 -0.00000000000E+00 -0.00000000000E+00 -0.18924623877E+03  0.18924623877E+03  0.00000000000E+00 0.  1.
         24    1    1    2    0    0  0.71658164573E+02  0.91501586112E+01 -0.13056010352E+03  0.16950449711E+03  0.80419002446E+02 0.  1.
        -24    1    1    2    0    0 -0.71658164573E+02 -0.91501586112E+01  0.35286573149E+02  0.11371445006E+03  0.80419002446E+02 0. -1.
<mgrwt>
<rscale>  0 0.10810104E+03</rscale>
<asrwt>0</asrwt>
<pdfrwt beam="1">  1        1 0.14457340E-01 0.10810104E+03</pdfrwt>
<pdfrwt beam="2">  1       -1 0.29114806E-01 0.10810104E+03</pdfrwt>
<totfact> 0.39792574E+03</totfact>
</mgrwt>
</event>
<event>
 4    1  0.5074571E-001  0.8353395E+02  0.7546771E-02  0.1319312E+00
         -2   -1    0    0    0  501 -0.00000000000E+00  0.00000000000E+00  0.31703122627E+03  0.31703122627E+03  0.00000000000E+00 0.  1.
          2   -1    0    0  501    0  0.00000000000E+00 -0.00000000000E+00 -0.35987377987E+03  0.35987377987E+03  0.00000000000E+00 0. -1.
         24    1    1    2    0    0  0.66152658396E+01 -0.21608883556E+02 -0.34936046372E+03  0.35920837289E+03  0.80419002446E+02 0. -1.
        -24    1    1    2    0    0 -0.66152658396E+01  0.21608883556E+02  0.30651791013E+03  0.31769663324E+03  0.80419002446E+02 0.  1.
<mgrwt>
<rscale>  0 0.83533954E+02</rscale>
<asrwt>0</asrwt>
<pdfrwt beam="1">  1        2 0.55365197E-01 0.83533954E+02</pdfrwt>
<pdfrwt beam="2">  1       -2 0.48774035E-01 0.83533954E+02</pdfrwt>
<totfact> 0.36544321E+02</totfact>
</mgrwt>
</event>
<event>
 4    1  0.5074571E-001  0.8202205E+02  0.7546771E-02  0.1323409E+00
         -4   -1    0    0    0  501 -0.00000000000E+00  0.00000000000E+00  0.41856486931E+03  0.41856486931E+03  0.00000000000E+00 0.  1.
          4   -1    0    0  501    0  0.00000000000E+00 -0.00000000000E+00 -0.17071846924E+02  0.17071846924E+02  0.00000000000E+00 0. -1.
         24    1    1    2    0    0  0.11013511320E+00 -0.16136557827E+02  0.14806096092E+03  0.16926211842E+03  0.80419002446E+02 0.  1.
        -24    1    1    2    0    0 -0.11013511320E+00  0.16136557827E+02  0.25343206147E+03  0.26637459782E+03  0.80419002446E+02 0.  0.
<mgrwt>
<rscale>  0 0.82022049E+02</rscale>
<asrwt>0</asrwt>
<pdfrwt beam="1">  1        4 0.26264383E-02 0.82022049E+02</pdfrwt>
<pdfrwt beam="2">  1       -4 0.64394587E-01 0.82022049E+02</pdfrwt>
<totfact> 0.21987781E+03</totfact>
</mgrwt>
</event>
<event>
 4    1  0.5074571E-001  0.8144313E+02  0.7546771E-02  0.1325005E+00
         -2   -1    0    0    0  501 -0.00000000000E+00  0.00000000000E+00  0.16573047134E+03  0.16573047134E+03  0.00000000000E+00 0.  1.
          2   -1    0    0  501    0  0.00000000000E+00 -0.00000000000E+00 -0.11632489598E+03  0.11632489598E+03  0.00000000000E+00 0. -1.
         24    1    1    2    0    0 -0.12684287047E+02  0.22083824720E+01 -0.89515725241E+02  0.12102086230E+03  0.80419002446E+02 0. -1.
        -24    1    1    2    0    0  0.12684287047E+02 -0.22083824720E+01  0.13892130061E+03  0.16103450502E+03  0.80419002446E+02 0.  0.
<mgrwt>
<rscale>  0 0.81443134E+02</rscale>
<asrwt>0</asrwt>
<pdfrwt beam="1">  1        2 0.17896138E-01 0.81443134E+02</pdfrwt>
<pdfrwt beam="2">  1       -2 0.25496996E-01 0.81443134E+02</pdfrwt>
<totfact> 0.40113427E+03</totfact>
</mgrwt>
</event>
<event>
 4    1  0.5074571E-001  0.8125916E+02  0.7546771E-02  0.1325516E+00
         -2   -1    0    0    0  501 -0.00000000000E+00  0.00000000000E+00  0.37519351427E+02  0.37519351427E+02  0.00000000000E+00 0.  1.
          2   -1    0    0  501    0  0.00000000000E+00 -0.00000000000E+00 -0.17613473207E+03  0.17613473207E+03  0.00000000000E+00 0. -1.
         24    1    1    2    0    0 -0.13579699233E+01 -0.11575307351E+02 -0.66250267948E+02  0.10484343461E+03  0.80419002446E+02 0. -1.
        -24    1    1    2    0    0  0.13579699233E+01  0.11575307351E+02 -0.72365112698E+02  0.10881064889E+03  0.80419002446E+02 0.  1.
<mgrwt>
<rscale>  0 0.81259150E+02</rscale>
<asrwt>0</asrwt>
<pdfrwt beam="1">  1        2 0.27097651E-01 0.81259160E+02</pdfrwt>
<pdfrwt beam="2">  1       -2 0.57722078E-02 0.81259160E+02</pdfrwt>
<totfact> 0.26914211E+04</totfact>
</mgrwt>
</event>
<event>
 4    1  0.5074571E-001  0.9528097E+02  0.7546771E-02  0.1290545E+00
         -2   -1    0    0    0  501 -0.00000000000E+00  0.00000000000E+00  0.75886138849E+02  0.75886138849E+02  0.00000000000E+00 0.  1.
          2   -1    0    0  501    0  0.00000000000E+00 -0.00000000000E+00 -0.23200729517E+03  0.23200729517E+03  0.00000000000E+00 0. -1.
         24    1    1    2    0    0  0.12140901577E+02 -0.49637137971E+02 -0.18520108612E+03  0.20827363062E+03  0.80419002446E+02 0. -1.
        -24    1    1    2    0    0 -0.12140901577E+02  0.49637137971E+02  0.29079929802E+02  0.99619803396E+02  0.80419002446E+02 0.  1.
<mgrwt>
<rscale>  0 0.95280968E+02</rscale>
<asrwt>0</asrwt>
<pdfrwt beam="1">  1        2 0.35693429E-01 0.95280968E+02</pdfrwt>
<pdfrwt beam="2">  1       -2 0.11674791E-01 0.95280968E+02</pdfrwt>
<totfact> 0.69310828E+03</totfact>
</mgrwt>
</event>
<event>
 4    1  0.5074571E-001  0.9489063E+02  0.7546771E-02  0.1291423E+00
         -1   -1    0    0    0  501 -0.00000000000E+00  0.00000000000E+00  0.66379314429E+02  0.66379314429E+02  0.00000000000E+00 0.  1.
          1   -1    0    0  501    0  0.00000000000E+00 -0.00000000000E+00 -0.13809212139E+03  0.13809212139E+03  0.00000000000E+00 0. -1.
         24    1    1    2    0    0  0.44806480938E+02 -0.23008602543E+02 -0.22255600580E+02  0.97465605403E+02  0.80419002446E+02 0.  0.
        -24    1    1    2    0    0 -0.44806480938E+02  0.23008602543E+02 -0.49457206377E+02  0.10700583041E+03  0.80419002446E+02 0. -1.
<mgrwt>
<rscale>  0 0.94890634E+02</rscale>
<asrwt>0</asrwt>
<pdfrwt beam="1">  1        1 0.21244942E-01 0.94890634E+02</pdfrwt>
<pdfrwt beam="2">  1       -1 0.10212202E-01 0.94890634E+02</pdfrwt>
<totfact> 0.12606740E+04</totfact>
</mgrwt>
</event>
<event>
 4    1  0.5074571E-001  0.8570502E+02  0.7546771E-02  0.1313599E+00
          2   -1    0    0  501    0  0.00000000000E+00  0.00000000000E+00  0.59518315627E+02  0.59518315627E+02  0.00000000000E+00 0. -1.
         -2   -1    0    0    0  501 -0.00000000000E+00 -0.00000000000E+00 -0.19364206279E+03  0.19364206279E+03  0.00000000000E+00 0.  1.
         24    1    1    2    0    0 -0.20787202921E+02  0.21119358728E+02  0.91676900841E+01  0.86193953467E+02  0.80419002446E+02 0.  0.
        -24    1    1    2    0    0  0.20787202921E+02 -0.21119358728E+02 -0.14329143725E+03  0.16696642495E+03  0.80419002446E+02 0. -1.
<mgrwt>
<rscale>  0 0.85705024E+02</rscale>
<asrwt>0</asrwt>
<pdfrwt beam="1">  1        2 0.91566639E-02 0.85705024E+02</pdfrwt>
<pdfrwt beam="2">  1       -2 0.29791087E-01 0.85705024E+02</pdfrwt>
<totfact> 0.67378387E+03</totfact>
</mgrwt>
</event>
<event>
 4    1  0.5074571E-001  0.8103630E+02  0.7546771E-02  0.1326136E+00
         -2   -1    0    0    0  501 -0.00000000000E+00  0.00000000000E+00  0.36085630947E+02  0.36085630947E+02  0.00000000000E+00 0.  1.
          2   -1    0    0  501    0  0.00000000000E+00 -0.00000000000E+00 -0.37448323175E+03  0.37448323175E+03  0.00000000000E+00 0. -1.
         24    1    1    2    0    0 -0.96560463435E+01  0.25351781985E+01 -0.31638199953E+03  0.32659524176E+03  0.80419002446E+02 0.  0.
        -24    1    1    2    0    0  0.96560463435E+01 -0.25351781985E+01 -0.22015601272E+02  0.83973620937E+02  0.80419002446E+02 0.  1.
<mgrwt>
<rscale>  0 0.81036302E+02</rscale>
<asrwt>0</asrwt>
<pdfrwt beam="1">  1        2 0.57612801E-01 0.81036302E+02</pdfrwt>
<pdfrwt beam="2">  1       -2 0.55516359E-02 0.81036302E+02</pdfrwt>
<totfact> 0.12912648E+04</totfact>
</mgrwt>
</event>
<event>
 4    1  0.5074571E-001  0.8190106E+02  0.7546771E-02  0.1323741E+00
          1   -1    0    0  501    0  0.00000000000E+00  0.00000000000E+00  0.94032439157E+03  0.94032439157E+03  0.00000000000E+00 0. -1.
         -1   -1    0    0    0  501 -0.00000000000E+00 -0.00000000000E+00 -0.37798705032E+02  0.37798705032E+02  0.00000000000E+00 0.  1.
         24    1    1    2    0    0  0.11062570283E+02  0.10871406119E+02  0.10760578117E+02  0.82604926778E+02  0.80419002446E+02 0.  1.
        -24    1    1    2    0    0 -0.11062570283E+02 -0.10871406119E+02  0.89176510842E+03  0.89551816982E+03  0.80419002446E+02 0. -1.
<mgrwt>
<rscale>  0 0.81901062E+02</rscale>
<asrwt>0</asrwt>
<pdfrwt beam="1">  1        1 0.14466527E+00 0.81901062E+02</pdfrwt>
<pdfrwt beam="2">  1       -1 0.58151861E-02 0.81901062E+02</pdfrwt>
<totfact> 0.24228377E+03</totfact>
</mgrwt>
</event>
<event>
 4    1  0.5074571E-001  0.1723651E+03  0.7546771E-02  0.1175404E+00
         -1   -1    0    0    0  501 -0.00000000000E+00  0.00000000000E+00  0.25394692383E+03  0.25394692383E+03  0.00000000000E+00 0.  1.
          1   -1    0    0  501    0  0.00000000000E+00 -0.00000000000E+00 -0.12098429119E+03  0.12098429119E+03  0.00000000000E+00 0. -1.
         24    1    1    2    0    0  0.88493354894E+02  0.12414279933E+03  0.10053589521E+03  0.19954245330E+03  0.80419002446E+02 0. -1.
        -24    1    1    2    0    0 -0.88493354894E+02 -0.12414279933E+03  0.32426737421E+02  0.17538876173E+03  0.80419002446E+02 0.  1.
<mgrwt>
<rscale>  0 0.17236509E+03</rscale>
<asrwt>0</asrwt>
<pdfrwt beam="1">  1        1 0.18612968E-01 0.17236509E+03</pdfrwt>
<pdfrwt beam="2">  1       -1 0.39068757E-01 0.17236509E+03</pdfrwt>
<totfact> 0.17784967E+03</totfact>
</mgrwt>
</event>
<event>
 4    1  0.5074571E-001  0.8450661E+02  0.7546771E-02  0.1316728E+00
          1   -1    0    0  501    0  0.00000000000E+00  0.00000000000E+00  0.10798273005E+04  0.10798273005E+04  0.00000000000E+00 0. -1.
         -1   -1    0    0    0  501 -0.00000000000E+00 -0.00000000000E+00 -0.17842562131E+02  0.17842562131E+02  0.00000000000E+00 0.  1.
         24    1    1    2    0    0  0.74784874073E+01 -0.24864088225E+02  0.95594645504E+02  0.12759193885E+03  0.80419002446E+02 0.  1.
        -24    1    1    2    0    0 -0.74784874073E+01  0.24864088225E+02  0.96639009283E+03  0.97007792374E+03  0.80419002446E+02 0. -1.
<mgrwt>
<rscale>  0 0.84506607E+02</rscale>
<asrwt>0</asrwt>
<pdfrwt beam="1">  1        1 0.16612723E+00 0.84506607E+02</pdfrwt>
<pdfrwt beam="2">  1       -1 0.27450104E-02 0.84506607E+02</pdfrwt>
<totfact> 0.57235004E+03</totfact>
</mgrwt>
</event>
<event>
 4    1  0.5074571E-001  0.8635912E+02  0.7546771E-02  0.1311916E+00
          2   -1    0    0  501    0  0.00000000000E+00  0.00000000000E+00  0.11501052581E+04  0.11501052581E+04  0.00000000000E+00 0. -1.
         -2   -1    0    0    0  501 -0.00000000000E+00 -0.00000000000E+00 -0.20681035069E+02  0.20681035069E+02  0.00000000000E+00 0.  1.
         24    1    1    2    0    0 -0.13987106222E+02  0.28196512394E+02  0.10497237213E+04  0.10532700459E+04  0.80419002446E+02 0.  0.
        -24    1    1    2    0    0  0.13987106222E+02 -0.28196512394E+02  0.79700501683E+02  0.11751624728E+03  0.80419002446E+02 0. -1.
<mgrwt>
<rscale>  0 0.86359125E+02</rscale>
<asrwt>0</asrwt>
<pdfrwt beam="1">  1        2 0.17693922E+00 0.86359125E+02</pdfrwt>
<pdfrwt beam="2">  1       -2 0.31816986E-02 0.86359125E+02</pdfrwt>
<totfact> 0.78619988E+03</totfact>
</mgrwt>
</event>
<event>
 4    1  0.5074571E-001  0.1047092E+03  0.7546771E-02  0.1270694E+00
          4   -1    0    0  501    0  0.00000000000E+00  0.00000000000E+00  0.19471540338E+03  0.19471540338E+03  0.00000000000E+00 0. -1.
         -4   -1    0    0    0  501 -0.00000000000E+00 -0.00000000000E+00 -0.30658476940E+03  0.30658476940E+03  0.00000000000E+00 0.  1.
         24    1    1    2    0    0  0.33193891399E+02 -0.58266294495E+02  0.17053128366E+03  0.20011229388E+03  0.80419002446E+02 0. -1.
        -24    1    1    2    0    0 -0.33193891399E+02  0.58266294495E+02 -0.28240064969E+03  0.30118787890E+03  0.80419002446E+02 0.  1.
<mgrwt>
<rscale>  0 0.10470918E+03</rscale>
<asrwt>0</asrwt>
<pdfrwt beam="1">  1        4 0.29956216E-01 0.10470918E+03</pdfrwt>
<pdfrwt beam="2">  1       -4 0.47166887E-01 0.10470918E+03</pdfrwt>
<totfact> 0.75011421E+01</totfact>
</mgrwt>
</event>
<event>
 4    1  0.5074571E-001  0.8201748E+02  0.7546771E-02  0.1323422E+00
          2   -1    0    0  501    0  0.00000000000E+00  0.00000000000E+00  0.50682981063E+03  0.50682981063E+03  0.00000000000E+00 0. -1.
         -2   -1    0    0    0  501 -0.00000000000E+00 -0.00000000000E+00 -0.17746992819E+02  0.17746992819E+02  0.00000000000E+00 0.  1.
         24    1    1    2    0    0 -0.97352708438E+01  0.12840402548E+02  0.37624317594E+03  0.38507894623E+03  0.80419002446E+02 0.  0.
        -24    1    1    2    0    0  0.97352708438E+01 -0.12840402548E+02  0.11283964187E+03  0.13949785722E+03  0.80419002446E+02 0.  0.
<mgrwt>
<rscale>  0 0.82017482E+02</rscale>
<asrwt>0</asrwt>
<pdfrwt beam="1">  1        2 0.77973806E-01 0.82017482E+02</pdfrwt>
<pdfrwt beam="2">  1       -2 0.27303070E-02 0.82017482E+02</pdfrwt>
<totfact> 0.26549113E+04</totfact>
</mgrwt>
</event>
<event>
 4    1  0.5074571E-001  0.9553215E+02  0.7546771E-02  0.1289982E+00
          2   -1    0    0  501    0  0.00000000000E+00  0.00000000000E+00  0.62227317888E+03  0.62227317888E+03  0.00000000000E+00 0. -1.
         -2   -1    0    0    0  501 -0.00000000000E+00 -0.00000000000E+00 -0.19929324603E+02  0.19929324603E+02  0.00000000000E+00 0.  1.
         24    1    1    2    0    0 -0.49818735546E+02 -0.13314248751E+02  0.46618447042E+03  0.47587220138E+03  0.80419002446E+02 0.  0.
        -24    1    1    2    0    0  0.49818735546E+02  0.13314248751E+02  0.13615938386E+03  0.16633030210E+03  0.80419002446E+02 0.  0.
<mgrwt>
<rscale>  0 0.95532149E+02</rscale>
<asrwt>0</asrwt>
<pdfrwt beam="1">  1        2 0.95734320E-01 0.95532149E+02</pdfrwt>
<pdfrwt beam="2">  1       -2 0.30660504E-02 0.95532149E+02</pdfrwt>
<totfact> 0.18171337E+04</totfact>
</mgrwt>
</event>
<event>
 4    1  0.5074571E-001  0.9200734E+02  0.7546771E-02  0.1298062E+00
         -2   -1    0    0    0  501 -0.00000000000E+00  0.00000000000E+00  0.14967609449E+02  0.14967609449E+02  0.00000000000E+00 0.  1.
          2   -1    0    0  501    0  0.00000000000E+00 -0.00000000000E+00 -0.56600231652E+03  0.56600231652E+03  0.00000000000E+00 0. -1.
         24    1    1    2    0    0  0.16069196223E+01  0.44671568815E+02 -0.26756169516E+03  0.28293923009E+03  0.80419002446E+02 0.  1.
        -24    1    1    2    0    0 -0.16069196223E+01 -0.44671568815E+02 -0.28347301191E+03  0.29803069588E+03  0.80419002446E+02 0.  0.
<mgrwt>
<rscale>  0 0.92007333E+02</rscale>
<asrwt>0</asrwt>
<pdfrwt beam="1">  1        2 0.87077273E-01 0.92007344E+02</pdfrwt>
<pdfrwt beam="2">  1       -2 0.23027093E-02 0.92007344E+02</pdfrwt>
<totfact> 0.30480170E+04</totfact>
</mgrwt>
</event>
<event>
 4    1  0.5074571E-001  0.9465187E+02  0.7546771E-02  0.1291962E+00
          2   -1    0    0  501    0  0.00000000000E+00  0.00000000000E+00  0.14091925402E+04  0.14091925402E+04  0.00000000000E+00 0. -1.
         -2   -1    0    0    0  501 -0.00000000000E+00 -0.00000000000E+00 -0.13492069596E+02  0.13492069596E+02  0.00000000000E+00 0.  1.
         24    1    1    2    0    0 -0.20154838345E+02 -0.45667752005E+02  0.12151264091E+04  0.12188072723E+04  0.80419002446E+02 0. -1.
        -24    1    1    2    0    0  0.20154838345E+02  0.45667752005E+02  0.18057406150E+03  0.20387733744E+03  0.80419002446E+02 0.  1.
<mgrwt>
<rscale>  0 0.94651873E+02</rscale>
<asrwt>0</asrwt>
<pdfrwt beam="1">  1        2 0.21679874E+00 0.94651873E+02</pdfrwt>
<pdfrwt beam="2">  1       -2 0.20757041E-02 0.94651873E+02</pdfrwt>
<totfact> 0.10670068E+04</totfact>
</mgrwt>
</event>
<event>
 4    1  0.5074571E-001  0.1154492E+03  0.7546771E-02  0.1250799E+00
         -3   -1    0    0    0  501 -0.00000000000E+00  0.00000000000E+00  0.33389321154E+03  0.33389321154E+03  0.00000000000E+00 0.  1.
          3   -1    0    0  501    0  0.00000000000E+00 -0.00000000000E+00 -0.19743092283E+03  0.19743092283E+03  0.00000000000E+00 0. -1.
         24    1    1    2    0    0  0.19518712787E+02  0.80500394577E+02  0.30552112057E+03  0.32660628400E+03  0.80419002446E+02 0.  1.
        -24    1    1    2    0    0 -0.19518712787E+02 -0.80500394577E+02 -0.16905883186E+03  0.20471785037E+03  0.80419002446E+02 0. -1.
<mgrwt>
<rscale>  0 0.11544916E+03</rscale>
<asrwt>0</asrwt>
<pdfrwt beam="1">  1        3 0.30373988E-01 0.11544916E+03</pdfrwt>
<pdfrwt beam="2">  1       -3 0.51368186E-01 0.11544916E+03</pdfrwt>
<totfact> 0.91745873E+01</totfact>
</mgrwt>
</event>
<event>
 4    1  0.5074571E-001  0.9565077E+02  0.7546771E-02  0.1289717E+00
          2   -1    0    0  501    0  0.00000000000E+00  0.00000000000E+00  0.34182317456E+04  0.34182317456E+04  0.00000000000E+00 0. -1.
         -2   -1    0    0    0  501 -0.00000000000E+00 -0.00000000000E+00 -0.45798706586E+02  0.45798706586E+02  0.00000000000E+00 0.  1.
         24    1    1    2    0    0  0.98330961999E+01  0.50844507020E+02  0.33668589855E+04  0.33682174066E+04  0.80419002446E+02 0. -1.
        -24    1    1    2    0    0 -0.98330961999E+01 -0.50844507020E+02  0.55740534604E+01  0.95813045570E+02  0.80419002446E+02 0.  1.
<mgrwt>
<rscale>  0 0.95650769E+02</rscale>
<asrwt>0</asrwt>
<pdfrwt beam="1">  1        2 0.52588161E+00 0.95650769E+02</pdfrwt>
<pdfrwt beam="2">  1       -2 0.70459575E-02 0.95650769E+02</pdfrwt>
<totfact> 0.14734933E+02</totfact>
</mgrwt>
</event>
<event>
 4    1  0.5074571E-001  0.9840190E+02  0.7546771E-02  0.1283693E+00
         -2   -1    0    0    0  501 -0.00000000000E+00  0.00000000000E+00  0.25005112563E+02  0.25005112563E+02  0.00000000000E+00 0.  1.
          2   -1    0    0  501    0  0.00000000000E+00 -0.00000000000E+00 -0.16703334504E+04  0.16703334504E+04  0.00000000000E+00 0. -1.
         24    1    1    2    0    0  0.38462735548E+02 -0.41669371227E+02 -0.15656051357E+04  0.15686944813E+04  0.80419002446E+02 0. -1.
        -24    1    1    2    0    0 -0.38462735548E+02  0.41669371227E+02 -0.79723202104E+02  0.12664408171E+03  0.80419002446E+02 0.  1.
<mgrwt>
<rscale>  0 0.98401903E+02</rscale>
<asrwt>0</asrwt>
<pdfrwt beam="1">  1        2 0.25697440E+00 0.98401903E+02</pdfrwt>
<pdfrwt beam="2">  1       -2 0.38469401E-02 0.98401903E+02</pdfrwt>
<totfact> 0.32043495E+03</totfact>
</mgrwt>
</event>
<event>
 4    1  0.5074571E-001  0.1278030E+03  0.7546771E-02  0.1230753E+00
         -1   -1    0    0    0  501 -0.00000000000E+00  0.00000000000E+00  0.32548720266E+03  0.32548720266E+03  0.00000000000E+00 0.  1.
          1   -1    0    0  501    0  0.00000000000E+00 -0.00000000000E+00 -0.64390200567E+02  0.64390200567E+02  0.00000000000E+00 0. -1.
         24    1    1    2    0    0  0.71299044185E+02 -0.69157984930E+02  0.38977528595E+02  0.13361453615E+03  0.80419002446E+02 0. -1.
        -24    1    1    2    0    0 -0.71299044185E+02  0.69157984930E+02  0.22211947350E+03  0.25626286708E+03  0.80419002446E+02 0.  1.
<mgrwt>
<rscale>  0 0.12780298E+03</rscale>
<asrwt>0</asrwt>
<pdfrwt beam="1">  1        1 0.99061849E-02 0.12780299E+03</pdfrwt>
<pdfrwt beam="2">  1       -1 0.50074953E-01 0.12780299E+03</pdfrwt>
<totfact> 0.25676166E+03</totfact>
</mgrwt>
</event>
<event>
 4    1  0.5074571E-001  0.8308903E+02  0.7546771E-02  0.1320507E+00
          2   -1    0    0  501    0  0.00000000000E+00  0.00000000000E+00  0.99562629812E+03  0.99562629812E+03  0.00000000000E+00 0. -1.
         -2   -1    0    0    0  501 -0.00000000000E+00 -0.00000000000E+00 -0.19333477776E+03  0.19333477776E+03  0.00000000000E+00 0.  1.
         24    1    1    2    0    0 -0.67609074236E+00 -0.20883357028E+02  0.98486818131E+03  0.98836689656E+03  0.80419002446E+02 0. -1.
        -24    1    1    2    0    0  0.67609074236E+00  0.20883357028E+02 -0.18257666095E+03  0.20059417932E+03  0.80419002446E+02 0.  1.
<mgrwt>
<rscale>  0 0.83089034E+02</rscale>
<asrwt>0</asrwt>
<pdfrwt beam="1">  1        2 0.15317327E+00 0.83089034E+02</pdfrwt>
<pdfrwt beam="2">  1       -2 0.29743813E-01 0.83089034E+02</pdfrwt>
<totfact> 0.28721887E+02</totfact>
</mgrwt>
</event>
<event>
 4    1  0.5074571E-001  0.9151605E+02  0.7546771E-02  0.1299221E+00
         -2   -1    0    0    0  501 -0.00000000000E+00  0.00000000000E+00  0.30536846803E+03  0.30536846803E+03  0.00000000000E+00 0.  1.
          2   -1    0    0  501    0  0.00000000000E+00 -0.00000000000E+00 -0.43602275318E+02  0.43602275318E+02  0.00000000000E+00 0. -1.
         24    1    1    2    0    0  0.26189865515E+02  0.34958018252E+02  0.24606653489E+02  0.94766425732E+02  0.80419002446E+02 0. -1.
        -24    1    1    2    0    0 -0.26189865515E+02 -0.34958018252E+02  0.23715953922E+03  0.25420431761E+03  0.80419002446E+02 0.  1.
<mgrwt>
<rscale>  0 0.91516054E+02</rscale>
<asrwt>0</asrwt>
<pdfrwt beam="1">  1        2 0.67080425E-02 0.91516054E+02</pdfrwt>
<pdfrwt beam="2">  1       -2 0.46979763E-01 0.91516054E+02</pdfrwt>
<totfact> 0.42860315E+03</totfact>
</mgrwt>
</event>
<event>
 4    1  0.5074571E-001  0.8494255E+02  0.7546771E-02  0.1315583E+00
          2   -1    0    0  501    0  0.00000000000E+00  0.00000000000E+00  0.94255654173E+03  0.94255654173E+03  0.00000000000E+00 0. -1.
         -2   -1    0    0    0  501 -0.00000000000E+00 -0.00000000000E+00 -0.77722173793E+01  0.77722173793E+01  0.00000000000E+00 0.  1.
         24    1    1    2    0    0  0.24086042198E+01 -0.27243693923E+02  0.52575474446E+03  0.53257233078E+03  0.80419002446E+02 0. -1.
        -24    1    1    2    0    0 -0.24086042198E+01  0.27243693923E+02  0.40902957989E+03  0.41775642833E+03  0.80419002446E+02 0.  1.
<mgrwt>
<rscale>  0 0.84942546E+02</rscale>
<asrwt>0</asrwt>
<pdfrwt beam="1">  1        2 0.14500861E+00 0.84942546E+02</pdfrwt>
<pdfrwt beam="2">  1       -2 0.11957265E-02 0.84942546E+02</pdfrwt>
<totfact> 0.42022699E+04</totfact>
</mgrwt>
</event>
<event>
 4    1  0.5074571E-001  0.8087171E+02  0.7546771E-02  0.1326596E+00
         -1   -1    0    0    0  501 -0.00000000000E+00  0.00000000000E+00  0.34575514504E+02  0.34575514504E+02  0.00000000000E+00 0.  1.
          1   -1    0    0  501    0  0.00000000000E+00 -0.00000000000E+00 -0.30292420979E+03  0.30292420979E+03  0.00000000000E+00 0. -1.
         24    1    1    2    0    0  0.15996681494E+01 -0.83939813859E+01 -0.30759438554E+02  0.86523851488E+02  0.80419002446E+02 0.  1.
        -24    1    1    2    0    0 -0.15996681494E+01  0.83939813859E+01 -0.23758925673E+03  0.25097587280E+03  0.80419002446E+02 0. -1.
<mgrwt>
<rscale>  0 0.80871712E+02</rscale>
<asrwt>0</asrwt>
<pdfrwt beam="1">  1        1 0.46603725E-01 0.80871712E+02</pdfrwt>
<pdfrwt beam="2">  1       -1 0.53193098E-02 0.80871712E+02</pdfrwt>
<totfact> 0.12468870E+04</totfact>
</mgrwt>
</event>
<event>
 4    1  0.5074571E-001  0.8343107E+02  0.7546771E-02  0.1319587E+00
          2   -1    0    0  501    0  0.00000000000E+00  0.00000000000E+00  0.99232259434E+03  0.99232259434E+03  0.00000000000E+00 0. -1.
         -2   -1    0    0    0  501 -0.00000000000E+00 -0.00000000000E+00 -0.14732660164E+02  0.14732660164E+02  0.00000000000E+00 0.  1.
         24    1    1    2    0    0  0.98227565970E+01  0.19925796478E+02  0.12434578971E+03  0.14974182878E+03  0.80419002446E+02 0.  1.
        -24    1    1    2    0    0 -0.98227565970E+01 -0.19925796478E+02  0.85324414446E+03  0.85731342573E+03  0.80419002446E+02 0. -1.
<mgrwt>
<rscale>  0 0.83431059E+02</rscale>
<asrwt>0</asrwt>
<pdfrwt beam="1">  1        2 0.15266496E+00 0.83431069E+02</pdfrwt>
<pdfrwt beam="2">  1       -2 0.22665639E-02 0.83431069E+02</pdfrwt>
<totfact> 0.15736908E+04</totfact>
</mgrwt>
</event>
<event>
 4    1  0.5074571E-001  0.9692715E+02  0.7546771E-02  0.1286894E+00
          2   -1    0    0  501    0  0.00000000000E+00  0.00000000000E+00  0.48138358160E+03  0.48138358160E+03  0.00000000000E+00 0. -1.
         -2   -1    0    0    0  501 -0.00000000000E+00 -0.00000000000E+00 -0.27631188836E+02  0.27631188836E+02  0.00000000000E+00 0.  1.
         24    1    1    2    0    0 -0.54076403140E+02  0.18437748653E+01  0.36480002665E+03  0.37745719265E+03  0.80419002446E+02 0. -1.
        -24    1    1    2    0    0  0.54076403140E+02 -0.18437748653E+01  0.88952366112E+02  0.13155757779E+03  0.80419002446E+02 0.  1.
<mgrwt>
<rscale>  0 0.96927152E+02</rscale>
<asrwt>0</asrwt>
<pdfrwt beam="1">  1        2 0.74059006E-01 0.96927152E+02</pdfrwt>
<pdfrwt beam="2">  1       -2 0.42509525E-02 0.96927152E+02</pdfrwt>
<totfact> 0.14950098E+04</totfact>
</mgrwt>
</event>
<event>
 4    1  0.5074571E-001  0.8129145E+02  0.7546771E-02  0.1325426E+00
         -3   -1    0    0    0  501 -0.00000000000E+00  0.00000000000E+00  0.16426975046E+04  0.16426975046E+04  0.00000000000E+00 0.  1.
          3   -1    0    0  501    0  0.00000000000E+00 -0.00000000000E+00 -0.55581492649E+01  0.55581492649E+01  0.00000000000E+00 0. -1.
         24    1    1    2    0    0 -0.11228968145E+02 -0.38722895237E+01  0.12517095651E+04  0.12543464974E+04  0.80419002446E+02 0.  0.
        -24    1    1    2    0    0  0.11228968145E+02  0.38722895237E+01  0.38542979027E+03  0.39390915644E+03  0.80419002446E+02 0. -1.
<mgrwt>
<rscale>  0 0.81291453E+02</rscale>
<asrwt>0</asrwt>
<pdfrwt beam="1">  1        3 0.85510119E-03 0.81291453E+02</pdfrwt>
<pdfrwt beam="2">  1       -3 0.25272231E+00 0.81291453E+02</pdfrwt>
<totfact> 0.60014989E+02</totfact>
</mgrwt>
</event>
<event>
 4    1  0.5074571E-001  0.9572346E+02  0.7546771E-02  0.1289555E+00
          1   -1    0    0  501    0  0.00000000000E+00  0.00000000000E+00  0.44297062430E+02  0.44297062430E+02  0.00000000000E+00 0. -1.
         -1   -1    0    0    0  501 -0.00000000000E+00 -0.00000000000E+00 -0.32501479862E+03  0.32501479862E+03  0.00000000000E+00 0.  1.
         24    1    1    2    0    0 -0.10141978880E+02 -0.50920567830E+02 -0.25169862094E+03  0.26928641945E+03  0.80419002446E+02 0.  1.
        -24    1    1    2    0    0  0.10141978880E+02  0.50920567830E+02 -0.29019115259E+02  0.10002544161E+03  0.80419002446E+02 0. -1.
<mgrwt>
<rscale>  0 0.95723455E+02</rscale>
<asrwt>0</asrwt>
<pdfrwt beam="1">  1        1 0.68149326E-02 0.95723455E+02</pdfrwt>
<pdfrwt beam="2">  1       -1 0.50002278E-01 0.95723455E+02</pdfrwt>
<totfact> 0.41610192E+03</totfact>
</mgrwt>
</event>
<event>
 4    1  0.5074571E-001  0.1366518E+03  0.7546771E-02  0.1217906E+00
         -2   -1    0    0    0  501 -0.00000000000E+00  0.00000000000E+00  0.21943067037E+02  0.21943067037E+02  0.00000000000E+00 0.  1.
          2   -1    0    0  501    0  0.00000000000E+00 -0.00000000000E+00 -0.13262903843E+04  0.13262903843E+04  0.00000000000E+00 0. -1.
         24    1    1    2    0    0  0.10875748716E+03 -0.19450382221E+02 -0.10557183861E+04  0.10645257324E+04  0.80419002446E+02 0. -1.
        -24    1    1    2    0    0 -0.10875748716E+03  0.19450382221E+02 -0.24862893121E+03  0.28370771891E+03  0.80419002446E+02 0.  1.
<mgrwt>
<rscale>  0 0.13665184E+03</rscale>
<asrwt>0</asrwt>
<pdfrwt beam="1">  1        2 0.20404470E+00 0.13665184E+03</pdfrwt>
<pdfrwt beam="2">  1       -2 0.33758561E-02 0.13665184E+03</pdfrwt>
<totfact> 0.59034304E+03</totfact>
</mgrwt>
</event>
<event>
 4    1  0.5074571E-001  0.9898304E+02  0.7546771E-02  0.1282449E+00
         -2   -1    0    0    0  501 -0.00000000000E+00  0.00000000000E+00  0.35875722323E+02  0.35875722323E+02  0.00000000000E+00 0.  1.
          2   -1    0    0  501    0  0.00000000000E+00 -0.00000000000E+00 -0.37945575415E+03  0.37945575415E+03  0.00000000000E+00 0. -1.
         24    1    1    2    0    0  0.26433246016E+02 -0.51300191334E+02 -0.28173255966E+03  0.29861493140E+03  0.80419002446E+02 0.  0.
        -24    1    1    2    0    0 -0.26433246016E+02  0.51300191334E+02 -0.61847472159E+02  0.11671654507E+03  0.80419002446E+02 0. -1.
<mgrwt>
<rscale>  0 0.98983039E+02</rscale>
<asrwt>0</asrwt>
<pdfrwt beam="1">  1        2 0.58377805E-01 0.98983039E+02</pdfrwt>
<pdfrwt beam="2">  1       -2 0.55193422E-02 0.98983039E+02</pdfrwt>
<totfact> 0.13083768E+04</totfact>
</mgrwt>
</event>
<event>
 4    1  0.5074571E-001  0.8912399E+02  0.7546771E-02  0.1304987E+00
         -2   -1    0    0    0  501 -0.00000000000E+00  0.00000000000E+00  0.32682925926E+02  0.32682925926E+02  0.00000000000E+00 0.  1.
          2   -1    0    0  501    0  0.00000000000E+00 -0.00000000000E+00 -0.25328609812E+03  0.25328609812E+03  0.00000000000E+00 0. -1.
         24    1    1    2    0    0  0.35490959095E+02  0.14705802325E+02 -0.13906729580E+03  0.16517505112E+03  0.80419002446E+02 0. -1.
        -24    1    1    2    0    0 -0.35490959095E+02 -0.14705802325E+02 -0.81535876393E+02  0.12079397292E+03  0.80419002446E+02 0.  1.
<mgrwt>
<rscale>  0 0.89123985E+02</rscale>
<asrwt>0</asrwt>
<pdfrwt beam="1">  1        2 0.38967092E-01 0.89123985E+02</pdfrwt>
<pdfrwt beam="2">  1       -2 0.50281424E-02 0.89123985E+02</pdfrwt>
<totfact> 0.22725023E+04</totfact>
</mgrwt>
</event>
<event>
 4    1  0.5074571E-001  0.8106285E+02  0.7546771E-02  0.1326062E+00
          2   -1    0    0  501    0  0.00000000000E+00  0.00000000000E+00  0.31629259975E+03  0.31629259975E+03  0.00000000000E+00 0. -1.
         -2   -1    0    0    0  501 -0.00000000000E+00 -0.00000000000E+00 -0.20942762224E+02  0.20942762224E+02  0.00000000000E+00 0.  1.
         24    1    1    2    0    0 -0.95173308099E+01 -0.36593199306E+01  0.16273692397E+03  0.18180894529E+03  0.80419002446E+02 0. -1.
        -24    1    1    2    0    0  0.95173308099E+01  0.36593199306E+01  0.13261291355E+03  0.15542641668E+03  0.80419002446E+02 0.  1.
<mgrwt>
<rscale>  0 0.81062853E+02</rscale>
<asrwt>0</asrwt>
<pdfrwt beam="1">  1        2 0.48660396E-01 0.81062853E+02</pdfrwt>
<pdfrwt beam="2">  1       -2 0.32219637E-02 0.81062853E+02</pdfrwt>
<totfact> 0.34259610E+04</totfact>
</mgrwt>
</event>
<event>
 4    1  0.5074571E-001  0.1102867E+03  0.7546771E-02  0.1260040E+00
         -4   -1    0    0    0  501 -0.00000000000E+00  0.00000000000E+00  0.67642692432E+02  0.67642692432E+02  0.00000000000E+00 0.  1.
          4   -1    0    0  501    0  0.00000000000E+00 -0.00000000000E+00 -0.18589654525E+03  0.18589654525E+03  0.00000000000E+00 0. -1.
         24    1    1    2    0    0 -0.66186241728E+02 -0.36267382256E+02 -0.36197486256E+02  0.11607504286E+03  0.80419002446E+02 0.  1.
        -24    1    1    2    0    0  0.66186241728E+02  0.36267382256E+02 -0.82056366564E+02  0.13746419482E+03  0.80419002446E+02 0. -1.
<mgrwt>
<rscale>  0 0.11028672E+03</rscale>
<asrwt>0</asrwt>
<pdfrwt beam="1">  1        4 0.28599469E-01 0.11028673E+03</pdfrwt>
<pdfrwt beam="2">  1       -4 0.10406568E-01 0.11028673E+03</pdfrwt>
<totfact> 0.12984333E+03</totfact>
</mgrwt>
</event>
<event>
 4    1  0.5074571E-001  0.8274055E+02  0.7546771E-02  0.1321449E+00
          1   -1    0    0  501    0  0.00000000000E+00  0.00000000000E+00  0.23806750806E+02  0.23806750806E+02  0.00000000000E+00 0. -1.
         -1   -1    0    0    0  501 -0.00000000000E+00 -0.00000000000E+00 -0.29341559402E+03  0.29341559402E+03  0.00000000000E+00 0.  1.
         24    1    1    2    0    0 -0.16305021843E+02  0.10626611078E+02 -0.11240780567E+03  0.13957617752E+03  0.80419002446E+02 0.  1.
        -24    1    1    2    0    0  0.16305021843E+02 -0.10626611078E+02 -0.15720103755E+03  0.17764616731E+03  0.80419002446E+02 0.  0.
<mgrwt>
<rscale>  0 0.82740536E+02</rscale>
<asrwt>0</asrwt>
<pdfrwt beam="1">  1        1 0.36625771E-02 0.82740546E+02</pdfrwt>
<pdfrwt beam="2">  1       -1 0.45140859E-01 0.82740546E+02</pdfrwt>
<totfact> 0.11394196E+04</totfact>
</mgrwt>
</event>
<event>
 4    1  0.5074571E-001  0.1976111E+03  0.7546771E-02  0.1151770E+00
         -1   -1    0    0    0  501 -0.00000000000E+00  0.00000000000E+00  0.12427318441E+03  0.12427318441E+03  0.00000000000E+00 0.  1.
          1   -1    0    0  501    0  0.00000000000E+00 -0.00000000000E+00 -0.33292627725E+03  0.33292627725E+03  0.00000000000E+00 0. -1.
         24    1    1    2    0    0  0.15273787864E+03 -0.96197957090E+02 -0.15850189334E+03  0.25332384938E+03  0.80419002446E+02 0. -1.
        -24    1    1    2    0    0 -0.15273787864E+03  0.96197957090E+02 -0.50151199507E+02  0.20387561229E+03  0.80419002446E+02 0.  1.
<mgrwt>
<rscale>  0 0.19761106E+03</rscale>
<asrwt>0</asrwt>
<pdfrwt beam="1">  1        1 0.51219426E-01 0.19761109E+03</pdfrwt>
<pdfrwt beam="2">  1       -1 0.19118952E-01 0.19761109E+03</pdfrwt>
<totfact> 0.16530060E+03</totfact>
</mgrwt>
</event>
<event>
 4    1  0.5074571E-001  0.8070983E+02  0.7546771E-02  0.1327049E+00
         -2   -1    0    0    0  501 -0.00000000000E+00  0.00000000000E+00  0.65658092700E+03  0.65658092700E+03  0.00000000000E+00 0.  1.
          2   -1    0    0  501    0  0.00000000000E+00 -0.00000000000E+00 -0.54313147564E+02  0.54313147564E+02  0.00000000000E+00 0. -1.
         24    1    1    2    0    0  0.63558086344E+01 -0.25425616453E+01 -0.20213270294E+02  0.83202482977E+02  0.80419002446E+02 0.  0.
        -24    1    1    2    0    0 -0.63558086344E+01  0.25425616453E+01  0.62248104973E+03  0.62769159158E+03  0.80419002446E+02 0.  1.
<mgrwt>
<rscale>  0 0.80709831E+02</rscale>
<asrwt>0</asrwt>
<pdfrwt beam="1">  1        2 0.83558693E-02 0.80709831E+02</pdfrwt>
<pdfrwt beam="2">  1       -2 0.10101244E+00 0.80709831E+02</pdfrwt>
<totfact> 0.64681140E+02</totfact>
</mgrwt>
</event>
<event>
 4    1  0.5074571E-001  0.8995368E+02  0.7546771E-02  0.1302964E+00
         -2   -1    0    0    0  501 -0.00000000000E+00  0.00000000000E+00  0.88240656673E+01  0.88240656673E+01  0.00000000000E+00 0.  1.
          2   -1    0    0  501    0  0.00000000000E+00 -0.00000000000E+00 -0.11559792726E+04  0.11559792726E+04  0.00000000000E+00 0. -1.
         24    1    1    2    0    0  0.31991257089E+02 -0.24515472223E+02 -0.83838374318E+03  0.84319568647E+03  0.80419002446E+02 0.  0.
        -24    1    1    2    0    0 -0.31991257089E+02  0.24515472223E+02 -0.30877146375E+03  0.32160765179E+03  0.80419002446E+02 0.  0.
<mgrwt>
<rscale>  0 0.89953682E+02</rscale>
<asrwt>0</asrwt>
<pdfrwt beam="1">  1        2 0.17784286E+00 0.89953682E+02</pdfrwt>
<pdfrwt beam="2">  1       -2 0.13575494E-02 0.89953682E+02</pdfrwt>
<totfact> 0.26624818E+04</totfact>
</mgrwt>
</event>
<event>
 4    1  0.5074571E-001  0.8144160E+02  0.7546771E-02  0.1325009E+00
          1   -1    0    0  501    0  0.00000000000E+00  0.00000000000E+00  0.16502903346E+04  0.16502903346E+04  0.00000000000E+00 0. -1.
         -1   -1    0    0    0  501 -0.00000000000E+00 -0.00000000000E+00 -0.41947004323E+01  0.41947004323E+01  0.00000000000E+00 0.  1.
         24    1    1    2    0    0 -0.61554849221E+01  0.11297299312E+02  0.65380688159E+03  0.65885975240E+03  0.80419002446E+02 0.  0.
        -24    1    1    2    0    0  0.61554849221E+01 -0.11297299312E+02  0.99228875259E+03  0.99562528264E+03  0.80419002446E+02 0.  0.
<mgrwt>
<rscale>  0 0.81441604E+02</rscale>
<asrwt>0</asrwt>
<pdfrwt beam="1">  1        1 0.25389030E+00 0.81441604E+02</pdfrwt>
<pdfrwt beam="2">  1       -1 0.64533985E-03 0.81441604E+02</pdfrwt>
<totfact> 0.18776470E+04</totfact>
</mgrwt>
</event>
<event>
 4    1  0.5074571E-001  0.8636387E+02  0.7546771E-02  0.1311904E+00
          2   -1    0    0  501    0  0.00000000000E+00  0.00000000000E+00  0.39885353505E+04  0.39885353505E+04  0.00000000000E+00 0. -1.
         -2   -1    0    0    0  501 -0.00000000000E+00 -0.00000000000E+00 -0.20544939238E+01  0.20544939238E+01  0.00000000000E+00 0.  1.
         24    1    1    2    0    0 -0.14311405761E+02  0.28047864349E+02  0.13953793414E+04  0.13980494346E+04  0.80419002446E+02 0.  1.
        -24    1    1    2    0    0  0.14311405761E+02 -0.28047864349E+02  0.25911015151E+04  0.25925404098E+04  0.80419002446E+02 0.  1.
<mgrwt>
<rscale>  0 0.86363863E+02</rscale>
<asrwt>0</asrwt>
<pdfrwt beam="1">  1        2 0.61361463E+00 0.86363874E+02</pdfrwt>
<pdfrwt beam="2">  1       -2 0.31607918E-03 0.86363874E+02</pdfrwt>
<totfact> 0.52481689E+03</totfact>
</mgrwt>
</event>
<event>
 4    1  0.5074571E-001  0.9959155E+02  0.7546771E-02  0.1281157E+00
         -1   -1    0    0    0  501 -0.00000000000E+00  0.00000000000E+00  0.29510777773E+02  0.29510777773E+02  0.00000000000E+00 0.  1.
          1   -1    0    0  501    0  0.00000000000E+00 -0.00000000000E+00 -0.40554560313E+03  0.40554560313E+03  0.00000000000E+00 0. -1.
         24    1    1    2    0    0 -0.33194301578E+02 -0.48470545390E+02 -0.27803529250E+03  0.29533387082E+03  0.80419002446E+02 0. -1.
        -24    1    1    2    0    0  0.33194301578E+02  0.48470545390E+02 -0.97999532861E+02  0.13972251008E+03  0.80419002446E+02 0.  1.
<mgrwt>
<rscale>  0 0.99591535E+02</rscale>
<asrwt>0</asrwt>
<pdfrwt beam="1">  1        1 0.62391634E-01 0.99591548E+02</pdfrwt>
<pdfrwt beam="2">  1       -1 0.45401195E-02 0.99591548E+02</pdfrwt>
<totfact> 0.11186623E+04</totfact>
</mgrwt>
</event>
<event>
 4    1  0.5074571E-001  0.1419544E+03  0.7546771E-02  0.1210723E+00
          1   -1    0    0  501    0  0.00000000000E+00  0.00000000000E+00  0.13151320949E+03  0.13151320949E+03  0.00000000000E+00 0. -1.
         -1   -1    0    0    0  501 -0.00000000000E+00 -0.00000000000E+00 -0.17570782678E+03  0.17570782678E+03  0.00000000000E+00 0.  1.
         24    1    1    2    0    0  0.10118923579E+03 -0.58690481237E+02 -0.77045749924E+02  0.16151500724E+03  0.80419002446E+02 0.  1.
        -24    1    1    2    0    0 -0.10118923579E+03  0.58690481237E+02  0.32851132628E+02  0.14570602903E+03  0.80419002446E+02 0. -1.
<mgrwt>
<rscale>  0 0.14195439E+03</rscale>
<asrwt>0</asrwt>
<pdfrwt beam="1">  1        1 0.20232802E-01 0.14195439E+03</pdfrwt>
<pdfrwt beam="2">  1       -1 0.27031973E-01 0.14195439E+03</pdfrwt>
<totfact> 0.29722285E+03</totfact>
</mgrwt>
</event>
<event>
 4    1  0.5074571E-001  0.1726647E+03  0.7546771E-02  0.1175097E+00
         -1   -1    0    0    0  501 -0.00000000000E+00  0.00000000000E+00  0.34384474529E+03  0.34384474529E+03  0.00000000000E+00 0.  1.
          1   -1    0    0  501    0  0.00000000000E+00 -0.00000000000E+00 -0.10608388921E+03  0.10608388921E+03  0.00000000000E+00 0. -1.
         24    1    1    2    0    0  0.98558017705E+02  0.11675701281E+03  0.21503103958E+03  0.27577426790E+03  0.80419002446E+02 0.  1.
        -24    1    1    2    0    0 -0.98558017705E+02 -0.11675701281E+03  0.22729816499E+02  0.17415436661E+03  0.80419002446E+02 0. -1.
<mgrwt>
<rscale>  0 0.17266470E+03</rscale>
<asrwt>0</asrwt>
<pdfrwt beam="1">  1        1 0.16320598E-01 0.17266470E+03</pdfrwt>
<pdfrwt beam="2">  1       -1 0.52899191E-01 0.17266470E+03</pdfrwt>
<totfact> 0.12197514E+03</totfact>
</mgrwt>
</event>
<event>
 4    1  0.5074571E-001  0.9999307E+02  0.7546771E-02  0.1280311E+00
         -1   -1    0    0    0  501 -0.00000000000E+00  0.00000000000E+00  0.22649670693E+02  0.22649670693E+02  0.00000000000E+00 0.  1.
          1   -1    0    0  501    0  0.00000000000E+00 -0.00000000000E+00 -0.10125313255E+04  0.10125313255E+04  0.00000000000E+00 0. -1.
         24    1    1    2    0    0 -0.56756168087E+02 -0.17610690677E+02 -0.10622482558E+03  0.14588464130E+03  0.80419002446E+02 0.  1.
        -24    1    1    2    0    0  0.56756168087E+02  0.17610690677E+02 -0.88365682921E+03  0.88929635488E+03  0.80419002446E+02 0. -1.
<mgrwt>
<rscale>  0 0.99993075E+02</rscale>
<asrwt>0</asrwt>
<pdfrwt beam="1">  1        1 0.15577404E+00 0.99993075E+02</pdfrwt>
<pdfrwt beam="2">  1       -1 0.34845650E-02 0.99993075E+02</pdfrwt>
<totfact> 0.45641237E+03</totfact>
</mgrwt>
</event>
<event>
 4    1  0.5074571E-001  0.8206611E+02  0.7546771E-02  0.1323288E+00
          2   -1    0    0  501    0  0.00000000000E+00  0.00000000000E+00  0.22659508202E+02  0.22659508202E+02  0.00000000000E+00 0. -1.
         -2   -1    0    0    0  501 -0.00000000000E+00 -0.00000000000E+00 -0.29889684977E+03  0.29889684977E+03  0.00000000000E+00 0.  1.
         24    1    1    2    0    0 -0.16208041438E+02 -0.22197214528E+01 -0.15016350844E+03  0.17112545980E+03  0.80419002446E+02 0.  0.
        -24    1    1    2    0    0  0.16208041438E+02  0.22197214528E+01 -0.12607383313E+03  0.15043089817E+03  0.80419002446E+02 0.  0.
<mgrwt>
<rscale>  0 0.82066104E+02</rscale>
<asrwt>0</asrwt>
<pdfrwt beam="1">  1        2 0.34860783E-02 0.82066114E+02</pdfrwt>
<pdfrwt beam="2">  1       -2 0.45984129E-01 0.82066114E+02</pdfrwt>
<totfact> 0.10276063E+04</totfact>
</mgrwt>
</event>
<event>
 4    1  0.5074571E-001  0.1525084E+03  0.7546771E-02  0.1197424E+00
          2   -1    0    0  501    0  0.00000000000E+00  0.00000000000E+00  0.17151667846E+04  0.17151667846E+04  0.00000000000E+00 0. -1.
         -2   -1    0    0    0  501 -0.00000000000E+00 -0.00000000000E+00 -0.27912858715E+02  0.27912858715E+02  0.00000000000E+00 0.  1.
         24    1    1    2    0    0  0.12363964114E+03  0.38792131947E+02  0.14685753967E+04  0.14764729940E+04  0.80419002446E+02 0. -1.
        -24    1    1    2    0    0 -0.12363964114E+03 -0.38792131947E+02  0.21867852922E+03  0.26660664931E+03  0.80419002446E+02 0.  1.
<mgrwt>
<rscale>  0 0.15250838E+03</rscale>
<asrwt>0</asrwt>
<pdfrwt beam="1">  1        2 0.26387173E+00 0.15250838E+03</pdfrwt>
<pdfrwt beam="2">  1       -2 0.42942873E-02 0.15250838E+03</pdfrwt>
<totfact> 0.25913486E+03</totfact>
</mgrwt>
</event>
<event>
 4    1  0.5074571E-001  0.1157946E+03  0.7546771E-02  0.1250200E+00
         -2   -1    0    0    0  501 -0.00000000000E+00  0.00000000000E+00  0.11995772523E+03  0.11995772523E+03  0.00000000000E+00 0.  1.
          2   -1    0    0  501    0  0.00000000000E+00 -0.00000000000E+00 -0.11585182018E+03  0.11585182018E+03  0.00000000000E+00 0. -1.
         24    1    1    2    0    0  0.54151203242E+02  0.63315306447E+02 -0.20062026337E+02  0.11751970770E+03  0.80419002446E+02 0.  1.
        -24    1    1    2    0    0 -0.54151203242E+02 -0.63315306447E+02  0.24167931388E+02  0.11828983771E+03  0.80419002446E+02 0. -1.
<mgrwt>
<rscale>  0 0.11579463E+03</rscale>
<asrwt>0</asrwt>
<pdfrwt beam="1">  1        2 0.17823357E-01 0.11579463E+03</pdfrwt>
<pdfrwt beam="2">  1       -2 0.18455035E-01 0.11579463E+03</pdfrwt>
<totfact> 0.71659085E+03</totfact>
</mgrwt>
</event>
<event>
 4    1  0.5074571E-001  0.8948672E+02  0.7546771E-02  0.1304099E+00
          1   -1    0    0  501    0  0.00000000000E+00  0.00000000000E+00  0.88805916255E+03  0.88805916255E+03  0.00000000000E+00 0. -1.
         -1   -1    0    0    0  501 -0.00000000000E+00 -0.00000000000E+00 -0.90244683441E+01  0.90244683441E+01  0.00000000000E+00 0.  1.
         24    1    1    2    0    0  0.14285992460E+02  0.36559085135E+02  0.42685230536E+03  0.43613158889E+03  0.80419002446E+02 0.  1.
        -24    1    1    2    0    0 -0.14285992460E+02 -0.36559085135E+02  0.45218238884E+03  0.46095204200E+03  0.80419002446E+02 0.  0.
<mgrwt>
<rscale>  0 0.89486715E+02</rscale>
<asrwt>0</asrwt>
<pdfrwt beam="1">  1        1 0.13662442E+00 0.89486715E+02</pdfrwt>
<pdfrwt beam="2">  1       -1 0.13883805E-02 0.89486715E+02</pdfrwt>
<totfact> 0.20907712E+04</totfact>
</mgrwt>
</event>
<event>
 4    1  0.5074571E-001  0.8108240E+02  0.7546771E-02  0.1326008E+00
         -2   -1    0    0    0  501 -0.00000000000E+00  0.00000000000E+00  0.42263345644E+02  0.42263345644E+02  0.00000000000E+00 0.  1.
          2   -1    0    0  501    0  0.00000000000E+00 -0.00000000000E+00 -0.19337150959E+03  0.19337150959E+03  0.00000000000E+00 0. -1.
         24    1    1    2    0    0 -0.62061670435E+01  0.82838772191E+01 -0.12765472647E+03  0.15122858286E+03  0.80419002446E+02 0. -1.
        -24    1    1    2    0    0  0.62061670435E+01 -0.82838772191E+01 -0.23453437477E+02  0.84406272368E+02  0.80419002446E+02 0.  0.
<mgrwt>
<rscale>  0 0.81082397E+02</rscale>
<asrwt>0</asrwt>
<pdfrwt beam="1">  1        2 0.29749463E-01 0.81082397E+02</pdfrwt>
<pdfrwt beam="2">  1       -2 0.65020531E-02 0.81082397E+02</pdfrwt>
<totfact> 0.20372201E+04</totfact>
</mgrwt>
</event>
<event>
 4    1  0.5074571E-001  0.8081986E+02  0.7546771E-02  0.1326741E+00
          1   -1    0    0  501    0  0.00000000000E+00  0.00000000000E+00  0.27971306260E+03  0.27971306260E+03  0.00000000000E+00 0. -1.
         -1   -1    0    0    0  501 -0.00000000000E+00 -0.00000000000E+00 -0.24069703942E+02  0.24069703942E+02  0.00000000000E+00 0.  1.
         24    1    1    2    0    0 -0.75753593130E+01  0.26920427120E+01  0.10159268784E+03  0.12981880965E+03  0.80419002446E+02 0.  1.
        -24    1    1    2    0    0  0.75753593130E+01 -0.26920427120E+01  0.15405067082E+03  0.17396395689E+03  0.80419002446E+02 0.  0.
<mgrwt>
<rscale>  0 0.80819856E+02</rscale>
<asrwt>0</asrwt>
<pdfrwt beam="1">  1        1 0.43032777E-01 0.80819856E+02</pdfrwt>
<pdfrwt beam="2">  1       -1 0.37030316E-02 0.80819856E+02</pdfrwt>
<totfact> 0.23245806E+04</totfact>
</mgrwt>
</event>
<event>
 4    1  0.5074571E-001  0.1949615E+03  0.7546771E-02  0.1154061E+00
          2   -1    0    0  501    0  0.00000000000E+00  0.00000000000E+00  0.17327709775E+04  0.17327709775E+04  0.00000000000E+00 0. -1.
         -2   -1    0    0    0  501 -0.00000000000E+00 -0.00000000000E+00 -0.33919017478E+02  0.33919017478E+02  0.00000000000E+00 0.  1.
         24    1    1    2    0    0  0.42674045609E+02 -0.17239978785E+03  0.13744663898E+04  0.13882247058E+04  0.80419002446E+02 0. -1.
        -24    1    1    2    0    0 -0.42674045609E+02  0.17239978785E+03  0.32438557018E+03  0.37846528918E+03  0.80419002446E+02 0.  1.
<mgrwt>
<rscale>  0 0.19496148E+03</rscale>
<asrwt>0</asrwt>
<pdfrwt beam="1">  1        2 0.26658008E+00 0.19496148E+03</pdfrwt>
<pdfrwt beam="2">  1       -2 0.52183117E-02 0.19496148E+03</pdfrwt>
<totfact> 0.18900637E+03</totfact>
</mgrwt>
</event>
<event>
 4    1  0.5074571E-001  0.9939853E+02  0.7546771E-02  0.1281566E+00
          2   -1    0    0  501    0  0.00000000000E+00  0.00000000000E+00  0.12626707998E+04  0.12626707998E+04  0.00000000000E+00 0. -1.
         -2   -1    0    0    0  501 -0.00000000000E+00 -0.00000000000E+00 -0.78597895793E+01  0.78597895793E+01  0.00000000000E+00 0.  1.
         24    1    1    2    0    0 -0.27979188708E+02  0.51283691107E+02  0.66982883361E+03  0.67716374258E+03  0.80419002446E+02 0.  1.
        -24    1    1    2    0    0  0.27979188708E+02 -0.51283691107E+02  0.58498217659E+03  0.59336684677E+03  0.80419002446E+02 0. -1.
<mgrwt>
<rscale>  0 0.99398531E+02</rscale>
<asrwt>0</asrwt>
<pdfrwt beam="1">  1        2 0.19425689E+00 0.99398531E+02</pdfrwt>
<pdfrwt beam="2">  1       -2 0.12091994E-02 0.99398531E+02</pdfrwt>
<totfact> 0.27711260E+04</totfact>
</mgrwt>
</event>
<event>
 4    1  0.5074571E-001  0.8470200E+02  0.7546771E-02  0.1316214E+00
         -2   -1    0    0    0  501 -0.00000000000E+00  0.00000000000E+00  0.19146931507E+02  0.19146931507E+02  0.00000000000E+00 0.  1.
          2   -1    0    0  501    0  0.00000000000E+00 -0.00000000000E+00 -0.20576253839E+04  0.20576253839E+04  0.00000000000E+00 0. -1.
         24    1    1    2    0    0  0.16422811764E+02 -0.20916613615E+02 -0.19583301998E+04  0.19601611160E+04  0.80419002446E+02 0. -1.
        -24    1    1    2    0    0 -0.16422811764E+02  0.20916613615E+02 -0.80148252649E+02  0.11661119941E+03  0.80419002446E+02 0.  1.
<mgrwt>
<rscale>  0 0.84702004E+02</rscale>
<asrwt>0</asrwt>
<pdfrwt beam="1">  1        2 0.31655796E+00 0.84702004E+02</pdfrwt>
<pdfrwt beam="2">  1       -2 0.29456798E-02 0.84702004E+02</pdfrwt>
<totfact> 0.30190584E+03</totfact>
</mgrwt>
</event>
<event>
 4    1  0.5074571E-001  0.8563594E+02  0.7546771E-02  0.1313778E+00
         -2   -1    0    0    0  501 -0.00000000000E+00  0.00000000000E+00  0.10097544383E+03  0.10097544383E+03  0.00000000000E+00 0.  1.
          2   -1    0    0  501    0  0.00000000000E+00 -0.00000000000E+00 -0.77391155969E+02  0.77391155969E+02  0.00000000000E+00 0. -1.
         24    1    1    2    0    0  0.17133690405E+02  0.23931894417E+02 -0.10335939762E+02  0.86257443287E+02  0.80419002446E+02 0. -1.
        -24    1    1    2    0    0 -0.17133690405E+02 -0.23931894417E+02  0.33920227623E+02  0.92109156514E+02  0.80419002446E+02 0.  1.
<mgrwt>
<rscale>  0 0.85635944E+02</rscale>
<asrwt>0</asrwt>
<pdfrwt beam="1">  1        2 0.11906332E-01 0.85635944E+02</pdfrwt>
<pdfrwt beam="2">  1       -2 0.15534684E-01 0.85635944E+02</pdfrwt>
<totfact> 0.14792514E+04</totfact>
</mgrwt>
</event>
<event>
 4    1  0.5074571E-001  0.9643195E+02  0.7546771E-02  0.1287983E+00
          2   -1    0    0  501    0  0.00000000000E+00  0.00000000000E+00  0.98298568353E+03  0.98298568353E+03  0.00000000000E+00 0. -1.
         -2   -1    0    0    0  501 -0.00000000000E+00 -0.00000000000E+00 -0.16033859774E+02  0.16033859774E+02  0.00000000000E+00 0.  1.
         24    1    1    2    0    0 -0.36257436104E+02 -0.38952588624E+02  0.80331576035E+03  0.80908301961E+03  0.80419002446E+02 0. -1.
        -24    1    1    2    0    0  0.36257436104E+02  0.38952588624E+02  0.16363606341E+03  0.18993652370E+03  0.80419002446E+02 0.  1.
<mgrwt>
<rscale>  0 0.96431954E+02</rscale>
<asrwt>0</asrwt>
<pdfrwt beam="1">  1        2 0.15122852E+00 0.96431954E+02</pdfrwt>
<pdfrwt beam="2">  1       -2 0.24667484E-02 0.96431954E+02</pdfrwt>
<totfact> 0.14265401E+04</totfact>
</mgrwt>
</event>
<event>
 4    1  0.5074571E-001  0.1004316E+03  0.7546771E-02  0.1279391E+00
         -2   -1    0    0    0  501 -0.00000000000E+00  0.00000000000E+00  0.11706415346E+02  0.11706415346E+02  0.00000000000E+00 0.  1.
          2   -1    0    0  501    0  0.00000000000E+00 -0.00000000000E+00 -0.91891092374E+03  0.91891092374E+03  0.00000000000E+00 0. -1.
         24    1    1    2    0    0 -0.58696056204E+02  0.13193120830E+02 -0.56978481209E+03  0.57856826174E+03  0.80419002446E+02 0.  0.
        -24    1    1    2    0    0  0.58696056204E+02 -0.13193120830E+02 -0.33741969631E+03  0.35204907735E+03  0.80419002446E+02 0. -1.
<mgrwt>
<rscale>  0 0.10043158E+03</rscale>
<asrwt>0</asrwt>
<pdfrwt beam="1">  1        2 0.14137090E+00 0.10043158E+03</pdfrwt>
<pdfrwt beam="2">  1       -2 0.18009871E-02 0.10043158E+03</pdfrwt>
<totfact> 0.24623499E+04</totfact>
</mgrwt>
</event>
<event>
 4    1  0.5074571E-001  0.1081839E+03  0.7546771E-02  0.1263970E+00
         -2   -1    0    0    0  501 -0.00000000000E+00  0.00000000000E+00  0.29641237661E+02  0.29641237661E+02  0.00000000000E+00 0.  1.
          2   -1    0    0  501    0  0.00000000000E+00 -0.00000000000E+00 -0.11457097466E+04  0.11457097466E+04  0.00000000000E+00 0. -1.
         24    1    1    2    0    0  0.46592501089E+02 -0.55368572315E+02 -0.10337861570E+04  0.10394313707E+04  0.80419002446E+02 0. -1.
        -24    1    1    2    0    0 -0.46592501089E+02  0.55368572315E+02 -0.82282351866E+02  0.13591961353E+03  0.80419002446E+02 0.  1.
<mgrwt>
<rscale>  0 0.10818390E+03</rscale>
<asrwt>0</asrwt>
<pdfrwt beam="1">  1        2 0.17626303E+00 0.10818390E+03</pdfrwt>
<pdfrwt beam="2">  1       -2 0.45601907E-02 0.10818390E+03</pdfrwt>
<totfact> 0.47065282E+03</totfact>
</mgrwt>
</event>
<event>
 4    1  0.5074571E-001  0.8488372E+02  0.7546771E-02  0.1315737E+00
          3   -1    0    0  501    0  0.00000000000E+00  0.00000000000E+00  0.87839728969E+02  0.87839728969E+02  0.00000000000E+00 0. -1.
         -3   -1    0    0    0  501 -0.00000000000E+00 -0.00000000000E+00 -0.17623744342E+03  0.17623744342E+03  0.00000000000E+00 0.  1.
         24    1    1    2    0    0  0.21484967201E+02 -0.16626059608E+02 -0.14073742975E+03  0.16435409870E+03  0.80419002446E+02 0.  0.
        -24    1    1    2    0    0 -0.21484967201E+02  0.16626059608E+02  0.52339715298E+02  0.99723073687E+02  0.80419002446E+02 0. -1.
<mgrwt>
<rscale>  0 0.84883718E+02</rscale>
<asrwt>0</asrwt>
<pdfrwt beam="1">  1        3 0.13513805E-01 0.84883718E+02</pdfrwt>
<pdfrwt beam="2">  1       -3 0.27113453E-01 0.84883718E+02</pdfrwt>
<totfact> 0.12158781E+03</totfact>
</mgrwt>
</event>
<event>
 4    1  0.5074571E-001  0.8252026E+02  0.7546771E-02  0.1322048E+00
         -1   -1    0    0    0  501 -0.00000000000E+00  0.00000000000E+00  0.32238139179E+02  0.32238139179E+02  0.00000000000E+00 0.  1.
          1   -1    0    0  501    0  0.00000000000E+00 -0.00000000000E+00 -0.52550159797E+03  0.52550159797E+03  0.00000000000E+00 0. -1.
         24    1    1    2    0    0  0.18383657157E+02  0.21019223985E+01 -0.30972215104E+02  0.88141199170E+02  0.80419002446E+02 0.  1.
        -24    1    1    2    0    0 -0.18383657157E+02 -0.21019223985E+01 -0.46229124369E+03  0.46959853798E+03  0.80419002446E+02 0. -1.
<mgrwt>
<rscale>  0 0.82520257E+02</rscale>
<asrwt>0</asrwt>
<pdfrwt beam="1">  1        1 0.80846398E-01 0.82520257E+02</pdfrwt>
<pdfrwt beam="2">  1       -1 0.49597138E-02 0.82520257E+02</pdfrwt>
<totfact> 0.69742793E+03</totfact>
</mgrwt>
</event>
<event>
 4    1  0.5074571E-001  0.1252835E+03  0.7546771E-02  0.1234627E+00
          1   -1    0    0  501    0  0.00000000000E+00  0.00000000000E+00  0.39441242094E+03  0.39441242094E+03  0.00000000000E+00 0. -1.
         -1   -1    0    0    0  501 -0.00000000000E+00 -0.00000000000E+00 -0.16844578563E+03  0.16844578563E+03  0.00000000000E+00 0.  1.
         24    1    1    2    0    0 -0.22726969462E+02 -0.93339315235E+02 -0.13296496735E+03  0.18269001452E+03  0.80419002446E+02 0.  1.
        -24    1    1    2    0    0  0.22726969462E+02  0.93339315235E+02  0.35893160265E+03  0.38016819205E+03  0.80419002446E+02 0. -1.
<mgrwt>
<rscale>  0 0.12528351E+03</rscale>
<asrwt>0</asrwt>
<pdfrwt beam="1">  1        1 0.60678834E-01 0.12528351E+03</pdfrwt>
<pdfrwt beam="2">  1       -1 0.25914736E-01 0.12528351E+03</pdfrwt>
<totfact> 0.80813054E+02</totfact>
</mgrwt>
</event>
<event>
 4    1  0.5074571E-001  0.1020989E+03  0.7546771E-02  0.1275943E+00
          2   -1    0    0  501    0  0.00000000000E+00  0.00000000000E+00  0.36493402718E+04  0.36493402718E+04  0.00000000000E+00 0. -1.
         -2   -1    0    0    0  501 -0.00000000000E+00 -0.00000000000E+00 -0.48816097478E+01  0.48816097478E+01  0.00000000000E+00 0.  1.
         24    1    1    2    0    0 -0.44409452728E+02 -0.44550653981E+02  0.29990559903E+04  0.30007933966E+04  0.80419002446E+02 0. -1.
        -24    1    1    2    0    0  0.44409452728E+02  0.44550653981E+02  0.64540267175E+03  0.65342848493E+03  0.80419002446E+02 0.  1.
<mgrwt>
<rscale>  0 0.10209886E+03</rscale>
<asrwt>0</asrwt>
<pdfrwt beam="1">  1        2 0.56143478E+00 0.10209886E+03</pdfrwt>
<pdfrwt beam="2">  1       -2 0.75101980E-03 0.10209886E+03</pdfrwt>
<totfact> 0.26841677E+03</totfact>
</mgrwt>
</event>
<event>
 4    1  0.5074571E-001  0.8141819E+02  0.7546771E-02  0.1325074E+00
          2   -1    0    0  501    0  0.00000000000E+00  0.00000000000E+00  0.38507779598E+02  0.38507779598E+02  0.00000000000E+00 0. -1.
         -2   -1    0    0    0  501 -0.00000000000E+00 -0.00000000000E+00 -0.24998029780E+03  0.24998029780E+03  0.00000000000E+00 0.  1.
         24    1    1    2    0    0 -0.46747231437E+01 -0.11825943414E+02 -0.25247864774E+02  0.85243044315E+02  0.80419002446E+02 0. -1.
        -24    1    1    2    0    0  0.46747231437E+01  0.11825943414E+02 -0.18622465343E+03  0.20324503308E+03  0.80419002446E+02 0.  1.
<mgrwt>
<rscale>  0 0.81418192E+02</rscale>
<asrwt>0</asrwt>
<pdfrwt beam="1">  1        2 0.59242742E-02 0.81418192E+02</pdfrwt>
<pdfrwt beam="2">  1       -2 0.38458505E-01 0.81418192E+02</pdfrwt>
<totfact> 0.72525457E+03</totfact>
</mgrwt>
</event>
<event>
 4    1  0.5074571E-001  0.8562739E+02  0.7546771E-02  0.1313800E+00
          2   -1    0    0  501    0  0.00000000000E+00  0.00000000000E+00  0.89730486941E+03  0.89730486941E+03  0.00000000000E+00 0. -1.
         -2   -1    0    0    0  501 -0.00000000000E+00 -0.00000000000E+00 -0.85406294564E+01  0.85406294564E+01  0.00000000000E+00 0.  1.
         24    1    1    2    0    0  0.28666227712E+02  0.65636678404E+01  0.53858185978E+03  0.54534619278E+03  0.80419002446E+02 0.  0.
        -24    1    1    2    0    0 -0.28666227712E+02 -0.65636678404E+01  0.35018238018E+03  0.36049930609E+03  0.80419002446E+02 0. -1.
<mgrwt>
<rscale>  0 0.85627392E+02</rscale>
<asrwt>0</asrwt>
<pdfrwt beam="1">  1        2 0.13804683E+00 0.85627392E+02</pdfrwt>
<pdfrwt beam="2">  1       -2 0.13139437E-02 0.85627392E+02</pdfrwt>
<totfact> 0.39208174E+04</totfact>
</mgrwt>
</event>
<event>
 4    1  0.5074571E-001  0.9044979E+02  0.7546771E-02  0.1301766E+00
          1   -1    0    0  501    0  0.00000000000E+00  0.00000000000E+00  0.54653192378E+02  0.54653192378E+02  0.00000000000E+00 0. -1.
         -1   -1    0    0    0  501 -0.00000000000E+00 -0.00000000000E+00 -0.15307494080E+03  0.15307494080E+03  0.00000000000E+00 0.  1.
         24    1    1    2    0    0  0.34756733427E+02  0.22492638356E+02 -0.64650525039E+02  0.11117938496E+03  0.80419002446E+02 0.  1.
        -24    1    1    2    0    0 -0.34756733427E+02 -0.22492638356E+02 -0.33771223384E+02  0.96548748215E+02  0.80419002446E+02 0. -1.
<mgrwt>
<rscale>  0 0.90449794E+02</rscale>
<asrwt>0</asrwt>
<pdfrwt beam="1">  1        1 0.84081836E-02 0.90449794E+02</pdfrwt>
<pdfrwt beam="2">  1       -1 0.23549990E-01 0.90449794E+02</pdfrwt>
<totfact> 0.11264897E+04</totfact>
</mgrwt>
</event>
<event>
 4    1  0.5074571E-001  0.8245442E+02  0.7546771E-02  0.1322227E+00
          2   -1    0    0  501    0  0.00000000000E+00  0.00000000000E+00  0.17004836703E+04  0.17004836703E+04  0.00000000000E+00 0. -1.
         -2   -1    0    0    0  501 -0.00000000000E+00 -0.00000000000E+00 -0.79805841218E+01  0.79805841218E+01  0.00000000000E+00 0.  1.
         24    1    1    2    0    0 -0.18145533079E+02  0.15017509345E+01  0.14496923779E+04  0.14520353722E+04  0.80419002446E+02 0.  0.
        -24    1    1    2    0    0  0.18145533079E+02 -0.15017509345E+01  0.24281070822E+03  0.25642888216E+03  0.80419002446E+02 0.  0.
<mgrwt>
<rscale>  0 0.82454421E+02</rscale>
<asrwt>0</asrwt>
<pdfrwt beam="1">  1        2 0.26161258E+00 0.82454421E+02</pdfrwt>
<pdfrwt beam="2">  1       -2 0.12277835E-02 0.82454421E+02</pdfrwt>
<totfact> 0.15929723E+04</totfact>
</mgrwt>
</event>
<event>
 4    1  0.5074571E-001  0.1082179E+03  0.7546771E-02  0.1263906E+00
          4   -1    0    0  501    0  0.00000000000E+00  0.00000000000E+00  0.32837066195E+02  0.32837066195E+02  0.00000000000E+00 0. -1.
         -4   -1    0    0    0  501 -0.00000000000E+00 -0.00000000000E+00 -0.38890936476E+03  0.38890936476E+03  0.00000000000E+00 0.  1.
         24    1    1    2    0    0  0.19879229787E+02  0.69632726826E+02 -0.11729669419E+03  0.15959207639E+03  0.80419002446E+02 0. -1.
        -24    1    1    2    0    0 -0.19879229787E+02 -0.69632726826E+02 -0.23877560437E+03  0.26215435457E+03  0.80419002446E+02 0.  1.
<mgrwt>
<rscale>  0 0.10821791E+03</rscale>
<asrwt>0</asrwt>
<pdfrwt beam="1">  1        4 0.50518565E-02 0.10821791E+03</pdfrwt>
<pdfrwt beam="2">  1       -4 0.59832208E-01 0.10821791E+03</pdfrwt>
<totfact> 0.98569088E+02</totfact>
</mgrwt>
</event>
<event>
 4    1  0.5074571E-001  0.1393712E+03  0.7546771E-02  0.1214178E+00
         -2   -1    0    0    0  501 -0.00000000000E+00  0.00000000000E+00  0.27991728086E+02  0.27991728086E+02  0.00000000000E+00 0.  1.
          2   -1    0    0  501    0  0.00000000000E+00 -0.00000000000E+00 -0.11385510412E+04  0.11385510412E+04  0.00000000000E+00 0. -1.
         24    1    1    2    0    0  0.90851416378E+02 -0.68579343260E+02 -0.91977252480E+03  0.93027190622E+03  0.80419002446E+02 0. -1.
        -24    1    1    2    0    0 -0.90851416378E+02  0.68579343260E+02 -0.19078678829E+03  0.23627086304E+03  0.80419002446E+02 0.  1.
<mgrwt>
<rscale>  0 0.13937117E+03</rscale>
<asrwt>0</asrwt>
<pdfrwt beam="1">  1        2 0.17516168E+00 0.13937117E+03</pdfrwt>
<pdfrwt beam="2">  1       -2 0.43064202E-02 0.13937117E+03</pdfrwt>
<totfact> 0.52197025E+03</totfact>
</mgrwt>
</event>
<event>
 4    1  0.5074571E-001  0.1951030E+03  0.7546771E-02  0.1153938E+00
          2   -1    0    0  501    0  0.00000000000E+00  0.00000000000E+00  0.59516131051E+03  0.59516131051E+03  0.00000000000E+00 0. -1.
         -2   -1    0    0    0  501 -0.00000000000E+00 -0.00000000000E+00 -0.93790032529E+02  0.93790032529E+02  0.00000000000E+00 0.  1.
         24    1    1    2    0    0 -0.17775729938E+03 -0.56411746808E+00  0.44496348981E+03  0.48585769412E+03  0.80419002446E+02 0. -1.
        -24    1    1    2    0    0  0.17775729938E+03  0.56411746808E+00  0.56407788171E+02  0.20309364892E+03  0.80419002446E+02 0.  1.
<mgrwt>
<rscale>  0 0.19510303E+03</rscale>
<asrwt>0</asrwt>
<pdfrwt beam="1">  1        2 0.91563276E-01 0.19510303E+03</pdfrwt>
<pdfrwt beam="2">  1       -2 0.14429236E-01 0.19510303E+03</pdfrwt>
<totfact> 0.18478327E+03</totfact>
</mgrwt>
</event>
<event>
 4    1  0.5074571E-001  0.9582864E+02  0.7546771E-02  0.1289321E+00
         -3   -1    0    0    0  501 -0.00000000000E+00  0.00000000000E+00  0.12876609947E+03  0.12876609947E+03  0.00000000000E+00 0.  1.
          3   -1    0    0  501    0  0.00000000000E+00 -0.00000000000E+00 -0.94956539998E+02  0.94956539998E+02  0.00000000000E+00 0. -1.
         24    1    1    2    0    0 -0.51879228191E+02 -0.49455569242E+01  0.72718752676E+02  0.12029607556E+03  0.80419002446E+02 0.  1.
        -24    1    1    2    0    0  0.51879228191E+02  0.49455569242E+01 -0.38909193202E+02  0.10342656390E+03  0.80419002446E+02 0. -1.
<mgrwt>
<rscale>  0 0.95828643E+02</rscale>
<asrwt>0</asrwt>
<pdfrwt beam="1">  1        3 0.14608699E-01 0.95828643E+02</pdfrwt>
<pdfrwt beam="2">  1       -3 0.19810169E-01 0.95828643E+02</pdfrwt>
<totfact> 0.19056238E+03</totfact>
</mgrwt>
</event>
<event>
 4    1  0.5074571E-001  0.8290193E+02  0.7546771E-02  0.1321012E+00
          2   -1    0    0  501    0  0.00000000000E+00  0.00000000000E+00  0.10694543660E+03  0.10694543660E+03  0.00000000000E+00 0. -1.
         -2   -1    0    0    0  501 -0.00000000000E+00 -0.00000000000E+00 -0.73548303710E+02  0.73548303710E+02  0.00000000000E+00 0.  1.
         24    1    1    2    0    0 -0.18316532657E+02  0.83677266415E+01  0.48762955815E+02  0.96179810937E+02  0.80419002446E+02 0.  0.
        -24    1    1    2    0    0  0.18316532657E+02 -0.83677266415E+01 -0.15365822925E+02  0.84313929373E+02  0.80419002446E+02 0. -1.
<mgrwt>
<rscale>  0 0.82901931E+02</rscale>
<asrwt>0</asrwt>
<pdfrwt beam="1">  1        2 0.16453144E-01 0.82901931E+02</pdfrwt>
<pdfrwt beam="2">  1       -2 0.11315124E-01 0.82901931E+02</pdfrwt>
<totfact> 0.16767834E+04</totfact>
</mgrwt>
</event>
<event>
 4    1  0.5074571E-001  0.1010864E+03  0.7546771E-02  0.1278028E+00
         -2   -1    0    0    0  501 -0.00000000000E+00  0.00000000000E+00  0.94203982989E+01  0.94203982989E+01  0.00000000000E+00 0.  1.
          2   -1    0    0  501    0  0.00000000000E+00 -0.00000000000E+00 -0.11726293051E+04  0.11726293051E+04  0.00000000000E+00 0. -1.
         24    1    1    2    0    0  0.51472990453E+02  0.33192857004E+02 -0.74343269978E+03  0.75027370310E+03  0.80419002446E+02 0.  0.
        -24    1    1    2    0    0 -0.51472990453E+02 -0.33192857004E+02 -0.41977620706E+03  0.43177600034E+03  0.80419002446E+02 0.  1.
<mgrwt>
<rscale>  0 0.10108635E+03</rscale>
<asrwt>0</asrwt>
<pdfrwt beam="1">  1        2 0.18040452E+00 0.10108635E+03</pdfrwt>
<pdfrwt beam="2">  1       -2 0.14492919E-02 0.10108635E+03</pdfrwt>
<totfact> 0.23984475E+04</totfact>
</mgrwt>
</event>
<event>
 4    1  0.5074571E-001  0.9934443E+02  0.7546771E-02  0.1281681E+00
          2   -1    0    0  501    0  0.00000000000E+00  0.00000000000E+00  0.31853799989E+04  0.31853799989E+04  0.00000000000E+00 0. -1.
         -2   -1    0    0    0  501 -0.00000000000E+00 -0.00000000000E+00 -0.35313636049E+01  0.35313636049E+01  0.00000000000E+00 0.  1.
         24    1    1    2    0    0  0.52394431887E+02  0.25630530653E+02  0.21492770225E+04  0.21515717594E+04  0.80419002446E+02 0.  0.
        -24    1    1    2    0    0 -0.52394431887E+02 -0.25630530653E+02  0.10325716128E+04  0.10373396031E+04  0.80419002446E+02 0.  0.
<mgrwt>
<rscale>  0 0.99344434E+02</rscale>
<asrwt>0</asrwt>
<pdfrwt beam="1">  1        2 0.49005616E+00 0.99344434E+02</pdfrwt>
<pdfrwt beam="2">  1       -2 0.54328926E-03 0.99344434E+02</pdfrwt>
<totfact> 0.82898901E+03</totfact>
</mgrwt>
</event>
<event>
 4    1  0.5074571E-001  0.8103795E+02  0.7546771E-02  0.1326131E+00
          1   -1    0    0  501    0  0.00000000000E+00  0.00000000000E+00  0.11049508275E+02  0.11049508275E+02  0.00000000000E+00 0. -1.
         -1   -1    0    0    0  501 -0.00000000000E+00 -0.00000000000E+00 -0.62160876964E+03  0.62160876964E+03  0.00000000000E+00 0.  1.
         24    1    1    2    0    0 -0.27787595488E+01  0.96026973166E+01 -0.37153553253E+03  0.38027069462E+03  0.80419002446E+02 0.  1.
        -24    1    1    2    0    0  0.27787595488E+01 -0.96026973166E+01 -0.23902372884E+03  0.25238758330E+03  0.80419002446E+02 0. -1.
<mgrwt>
<rscale>  0 0.81037949E+02</rscale>
<asrwt>0</asrwt>
<pdfrwt beam="1">  1        1 0.16999241E-02 0.81037949E+02</pdfrwt>
<pdfrwt beam="2">  1       -1 0.95632134E-01 0.81037949E+02</pdfrwt>
<totfact> 0.76487700E+03</totfact>
</mgrwt>
</event>
<event>
 4    1  0.5074571E-001  0.8340830E+02  0.7546771E-02  0.1319648E+00
         -3   -1    0    0    0  501 -0.00000000000E+00  0.00000000000E+00  0.44358028926E+02  0.44358028926E+02  0.00000000000E+00 0.  1.
          3   -1    0    0  501    0  0.00000000000E+00 -0.00000000000E+00 -0.18750990198E+03  0.18750990198E+03  0.00000000000E+00 0. -1.
         24    1    1    2    0    0 -0.19562130038E+02  0.10346578691E+02 -0.24685777737E+02  0.86984666460E+02  0.80419002446E+02 0.  1.
        -24    1    1    2    0    0  0.19562130038E+02 -0.10346578691E+02 -0.11846609531E+03  0.14488326444E+03  0.80419002446E+02 0. -1.
<mgrwt>
<rscale>  0 0.83408300E+02</rscale>
<asrwt>0</asrwt>
<pdfrwt beam="1">  1        3 0.28847678E-01 0.83408300E+02</pdfrwt>
<pdfrwt beam="2">  1       -3 0.68243120E-02 0.83408300E+02</pdfrwt>
<totfact> 0.32985991E+03</totfact>
</mgrwt>
</event>
<event>
 4    1  0.5074571E-001  0.8488569E+02  0.7546771E-02  0.1315732E+00
          1   -1    0    0  501    0  0.00000000000E+00  0.00000000000E+00  0.22702428756E+03  0.22702428756E+03  0.00000000000E+00 0. -1.
         -1   -1    0    0    0  501 -0.00000000000E+00 -0.00000000000E+00 -0.26493380800E+03  0.26493380800E+03  0.00000000000E+00 0.  1.
         24    1    1    2    0    0 -0.12784989502E+02 -0.23977263742E+02 -0.24972969065E+03  0.26376220252E+03  0.80419002446E+02 0.  1.
        -24    1    1    2    0    0  0.12784989502E+02  0.23977263742E+02  0.21182017021E+03  0.22819589303E+03  0.80419002446E+02 0. -1.
<mgrwt>
<rscale>  0 0.84885694E+02</rscale>
<asrwt>0</asrwt>
<pdfrwt beam="1">  1        1 0.34926814E-01 0.84885694E+02</pdfrwt>
<pdfrwt beam="2">  1       -1 0.40759047E-01 0.84885694E+02</pdfrwt>
<totfact> 0.73855994E+02</totfact>
</mgrwt>
</event>
<event>
 4    1  0.5074571E-001  0.8167988E+02  0.7546771E-02  0.1324351E+00
         -4   -1    0    0    0  501 -0.00000000000E+00  0.00000000000E+00  0.31870483069E+02  0.31870483069E+02  0.00000000000E+00 0.  1.
          4   -1    0    0  501    0  0.00000000000E+00 -0.00000000000E+00 -0.30333476919E+03  0.30333476919E+03  0.00000000000E+00 0. -1.
         24    1    1    2    0    0 -0.14294123633E+02 -0.25611899669E+00 -0.22903252246E+03  0.24316146871E+03  0.80419002446E+02 0. -1.
        -24    1    1    2    0    0  0.14294123633E+02  0.25611899669E+00 -0.42431763657E+02  0.92043783542E+02  0.80419002446E+02 0.  0.
<mgrwt>
<rscale>  0 0.81679884E+02</rscale>
<asrwt>0</asrwt>
<pdfrwt beam="1">  1        4 0.46666887E-01 0.81679884E+02</pdfrwt>
<pdfrwt beam="2">  1       -4 0.49031513E-02 0.81679884E+02</pdfrwt>
<totfact> 0.15996652E+03</totfact>
</mgrwt>
</event>
<event>
 4    1  0.5074571E-001  0.9203755E+02  0.7546771E-02  0.1297991E+00
         -2   -1    0    0    0  501 -0.00000000000E+00  0.00000000000E+00  0.20146141356E+02  0.20146141356E+02  0.00000000000E+00 0.  1.
          2   -1    0    0  501    0  0.00000000000E+00 -0.00000000000E+00 -0.89180265238E+03  0.89180265238E+03  0.00000000000E+00 0. -1.
         24    1    1    2    0    0  0.10930612810E+02 -0.43407565582E+02 -0.76731670626E+03  0.77281682092E+03  0.80419002446E+02 0. -1.
        -24    1    1    2    0    0 -0.10930612810E+02  0.43407565582E+02 -0.10433980477E+03  0.13913197282E+03  0.80419002446E+02 0.  1.
<mgrwt>
<rscale>  0 0.92037552E+02</rscale>
<asrwt>0</asrwt>
<pdfrwt beam="1">  1        2 0.13720044E+00 0.92037552E+02</pdfrwt>
<pdfrwt beam="2">  1       -2 0.30994057E-02 0.92037552E+02</pdfrwt>
<totfact> 0.11594189E+04</totfact>
</mgrwt>
</event>
<event>
 4    1  0.5074571E-001  0.9487539E+02  0.7546771E-02  0.1291457E+00
          1   -1    0    0  501    0  0.00000000000E+00  0.00000000000E+00  0.63433437343E+03  0.63433437343E+03  0.00000000000E+00 0. -1.
         -1   -1    0    0    0  501 -0.00000000000E+00 -0.00000000000E+00 -0.12270853170E+03  0.12270853170E+03  0.00000000000E+00 0.  1.
         24    1    1    2    0    0 -0.91918870613E+01 -0.49493770048E+02 -0.10014990521E+03  0.13795413560E+03  0.80419002446E+02 0.  1.
        -24    1    1    2    0    0  0.91918870613E+01  0.49493770048E+02  0.61177574694E+03  0.61908876953E+03  0.80419002446E+02 0. -1.
<mgrwt>
<rscale>  0 0.94875392E+02</rscale>
<asrwt>0</asrwt>
<pdfrwt beam="1">  1        1 0.97589902E-01 0.94875392E+02</pdfrwt>
<pdfrwt beam="2">  1       -1 0.18878236E-01 0.94875392E+02</pdfrwt>
<totfact> 0.72529665E+02</totfact>
</mgrwt>
</event>
<event>
 4    1  0.5074571E-001  0.8272359E+02  0.7546771E-02  0.1321495E+00
         -1   -1    0    0    0  501 -0.00000000000E+00  0.00000000000E+00  0.47961900140E+03  0.47961900140E+03  0.00000000000E+00 0.  1.
          1   -1    0    0  501    0  0.00000000000E+00 -0.00000000000E+00 -0.22683166837E+02  0.22683166837E+02  0.00000000000E+00 0. -1.
         24    1    1    2    0    0  0.19196651366E+02  0.27320981011E+01  0.38144107581E+03  0.39030819368E+03  0.80419002446E+02 0.  0.
        -24    1    1    2    0    0 -0.19196651366E+02 -0.27320981011E+01  0.75494758751E+02  0.11199397456E+03  0.80419002446E+02 0. -1.
<mgrwt>
<rscale>  0 0.82723586E+02</rscale>
<asrwt>0</asrwt>
<pdfrwt beam="1">  1        1 0.34897183E-02 0.82723586E+02</pdfrwt>
<pdfrwt beam="2">  1       -1 0.73787531E-01 0.82723586E+02</pdfrwt>
<totfact> 0.48728057E+03</totfact>
</mgrwt>
</event>
<event>
 4    1  0.5074571E-001  0.8267461E+02  0.7546771E-02  0.1321628E+00
          2   -1    0    0  501    0  0.00000000000E+00  0.00000000000E+00  0.11301842751E+04  0.11301842751E+04  0.00000000000E+00 0. -1.
         -2   -1    0    0    0  501 -0.00000000000E+00 -0.00000000000E+00 -0.72978872255E+01  0.72978872255E+01  0.00000000000E+00 0.  1.
         24    1    1    2    0    0  0.13679437338E+02 -0.13444236949E+02  0.79683536957E+03  0.80111278648E+03  0.80419002446E+02 0.  0.
        -24    1    1    2    0    0 -0.13679437338E+02  0.13444236949E+02  0.32605101828E+03  0.33636937582E+03  0.80419002446E+02 0.  1.
<mgrwt>
<rscale>  0 0.82674606E+02</rscale>
<asrwt>0</asrwt>
<pdfrwt beam="1">  1        2 0.17387437E+00 0.82674606E+02</pdfrwt>
<pdfrwt beam="2">  1       -2 0.11227528E-02 0.82674606E+02</pdfrwt>
<totfact> 0.35730071E+04</totfact>
</mgrwt>
</event>
<event>
 4    1  0.5074571E-001  0.9678832E+02  0.7546771E-02  0.1287198E+00
         -1   -1    0    0    0  501 -0.00000000000E+00  0.00000000000E+00  0.62504700970E+02  0.62504700970E+02  0.00000000000E+00 0.  1.
          1   -1    0    0  501    0  0.00000000000E+00 -0.00000000000E+00 -0.16307042884E+03  0.16307042884E+03  0.00000000000E+00 0. -1.
         24    1    1    2    0    0  0.45580864423E+02 -0.28690564758E+02 -0.18200799817E+02  0.98484764182E+02  0.80419002446E+02 0.  1.
        -24    1    1    2    0    0 -0.45580864423E+02  0.28690564758E+02 -0.82364928052E+02  0.12709036563E+03  0.80419002446E+02 0. -1.
<mgrwt>
<rscale>  0 0.96788324E+02</rscale>
<asrwt>0</asrwt>
<pdfrwt beam="1">  1        1 0.25087758E-01 0.96788324E+02</pdfrwt>
<pdfrwt beam="2">  1       -1 0.96161080E-02 0.96788324E+02</pdfrwt>
<totfact> 0.11241823E+04</totfact>
</mgrwt>
</event>
<event>
 4    1  0.5074571E-001  0.9560602E+02  0.7546771E-02  0.1289817E+00
          2   -1    0    0  501    0  0.00000000000E+00  0.00000000000E+00  0.52466735094E+03  0.52466735094E+03  0.00000000000E+00 0. -1.
         -2   -1    0    0    0  501 -0.00000000000E+00 -0.00000000000E+00 -0.30244132459E+02  0.30244132459E+02  0.00000000000E+00 0.  1.
         24    1    1    2    0    0  0.46328343188E+02 -0.22956026429E+02  0.42787125712E+03  0.43842253951E+03  0.80419002446E+02 0. -1.
        -24    1    1    2    0    0 -0.46328343188E+02  0.22956026429E+02  0.66551961364E+02  0.11648894389E+03  0.80419002446E+02 0.  1.
<mgrwt>
<rscale>  0 0.95606017E+02</rscale>
<asrwt>0</asrwt>
<pdfrwt beam="1">  1        2 0.80718048E-01 0.95606017E+02</pdfrwt>
<pdfrwt beam="2">  1       -2 0.46529438E-02 0.95606017E+02</pdfrwt>
<totfact> 0.11899374E+04</totfact>
</mgrwt>
</event>
<event>
 4    1  0.5074571E-001  0.8899404E+02  0.7546771E-02  0.1305306E+00
         -1   -1    0    0    0  501 -0.00000000000E+00  0.00000000000E+00  0.17183671710E+02  0.17183671710E+02  0.00000000000E+00 0.  1.
          1   -1    0    0  501    0  0.00000000000E+00 -0.00000000000E+00 -0.64969895845E+03  0.64969895845E+03  0.00000000000E+00 0. -1.
         24    1    1    2    0    0  0.37329668195E+02 -0.76953559925E+01 -0.13650959938E+03  0.16295646446E+03  0.80419002446E+02 0.  1.
        -24    1    1    2    0    0 -0.37329668195E+02  0.76953559925E+01 -0.49600568736E+03  0.50392616570E+03  0.80419002446E+02 0. -1.
<mgrwt>
<rscale>  0 0.88994037E+02</rscale>
<asrwt>0</asrwt>
<pdfrwt beam="1">  1        1 0.99953669E-01 0.88994037E+02</pdfrwt>
<pdfrwt beam="2">  1       -1 0.26436423E-02 0.88994037E+02</pdfrwt>
<totfact> 0.13146579E+04</totfact>
</mgrwt>
</event>
<event>
 4    1  0.5074571E-001  0.8468124E+02  0.7546771E-02  0.1316268E+00
         -2   -1    0    0    0  501 -0.00000000000E+00  0.00000000000E+00  0.30221737366E+02  0.30221737366E+02  0.00000000000E+00 0.  1.
          2   -1    0    0  501    0  0.00000000000E+00 -0.00000000000E+00 -0.13591681934E+04  0.13591681934E+04  0.00000000000E+00 0. -1.
         24    1    1    2    0    0 -0.23835606797E+01  0.26419986969E+02 -0.12956238063E+04  0.12983882164E+04  0.80419002446E+02 0. -1.
        -24    1    1    2    0    0  0.23835606797E+01 -0.26419986969E+02 -0.33322649687E+02  0.91001714322E+02  0.80419002446E+02 0.  1.
<mgrwt>
<rscale>  0 0.84681244E+02</rscale>
<asrwt>0</asrwt>
<pdfrwt beam="1">  1        2 0.20910278E+00 0.84681244E+02</pdfrwt>
<pdfrwt beam="2">  1       -2 0.46494984E-02 0.84681244E+02</pdfrwt>
<totfact> 0.34841441E+03</totfact>
</mgrwt>
</event>
<event>
 4    1  0.5074571E-001  0.8697077E+02  0.7546771E-02  0.1310358E+00
          2   -1    0    0  501    0  0.00000000000E+00  0.00000000000E+00  0.23905206694E+03  0.23905206694E+03  0.00000000000E+00 0. -1.
         -2   -1    0    0    0  501 -0.00000000000E+00 -0.00000000000E+00 -0.31701222866E+02  0.31701222866E+02  0.00000000000E+00 0.  1.
         24    1    1    2    0    0  0.14009823087E+02  0.30007059646E+02  0.10956188162E+03  0.13988466903E+03  0.80419002446E+02 0.  0.
        -24    1    1    2    0    0 -0.14009823087E+02 -0.30007059646E+02  0.97788962457E+02  0.13086862078E+03  0.80419002446E+02 0.  1.
<mgrwt>
<rscale>  0 0.86970769E+02</rscale>
<asrwt>0</asrwt>
<pdfrwt beam="1">  1        2 0.36777240E-01 0.86970769E+02</pdfrwt>
<pdfrwt beam="2">  1       -2 0.48771114E-02 0.86970769E+02</pdfrwt>
<totfact> 0.25197020E+04</totfact>
</mgrwt>
</event>
<event>
 4    1  0.5074571E-001  0.1297571E+03  0.7546771E-02  0.1227817E+00
         -2   -1    0    0    0  501 -0.00000000000E+00  0.00000000000E+00  0.98196877361E+01  0.98196877361E+01  0.00000000000E+00 0.  1.
          2   -1    0    0  501    0  0.00000000000E+00 -0.00000000000E+00 -0.18676634919E+04  0.18676634919E+04  0.00000000000E+00 0. -1.
         24    1    1    2    0    0  0.96489499867E+02 -0.32549259703E+02 -0.11976569321E+04  0.12046655224E+04  0.80419002446E+02 0. -1.
        -24    1    1    2    0    0 -0.96489499867E+02  0.32549259703E+02 -0.66018687206E+03  0.67281765723E+03  0.80419002446E+02 0.  1.
<mgrwt>
<rscale>  0 0.12975706E+03</rscale>
<asrwt>0</asrwt>
<pdfrwt beam="1">  1        2 0.28733278E+00 0.12975706E+03</pdfrwt>
<pdfrwt beam="2">  1       -2 0.15107216E-02 0.12975706E+03</pdfrwt>
<totfact> 0.99710853E+03</totfact>
</mgrwt>
</event>
<event>
 4    1  0.5074571E-001  0.9450656E+02  0.7546771E-02  0.1292291E+00
          2   -1    0    0  501    0  0.00000000000E+00  0.00000000000E+00  0.10567670116E+04  0.10567670116E+04  0.00000000000E+00 0. -1.
         -2   -1    0    0    0  501 -0.00000000000E+00 -0.00000000000E+00 -0.12460158102E+02  0.12460158102E+02  0.00000000000E+00 0.  1.
         24    1    1    2    0    0 -0.31874968463E+02  0.38056009174E+02  0.82537932464E+03  0.83077224252E+03  0.80419002446E+02 0. -1.
        -24    1    1    2    0    0  0.31874968463E+02 -0.38056009174E+02  0.21892752882E+03  0.23845492715E+03  0.80419002446E+02 0.  1.
<mgrwt>
<rscale>  0 0.94506557E+02</rscale>
<asrwt>0</asrwt>
<pdfrwt beam="1">  1        2 0.16257947E+00 0.94506557E+02</pdfrwt>
<pdfrwt beam="2">  1       -2 0.19169482E-02 0.94506557E+02</pdfrwt>
<totfact> 0.18557755E+04</totfact>
</mgrwt>
</event>
<event>
 4    1  0.5074571E-001  0.8423419E+02  0.7546771E-02  0.1317447E+00
          1   -1    0    0  501    0  0.00000000000E+00  0.00000000000E+00  0.12024172660E+03  0.12024172660E+03  0.00000000000E+00 0. -1.
         -1   -1    0    0    0  501 -0.00000000000E+00 -0.00000000000E+00 -0.10819392518E+03  0.10819392518E+03  0.00000000000E+00 0.  1.
         24    1    1    2    0    0 -0.89488970976E+01 -0.23411543872E+02 -0.70985977545E+02  0.11015628946E+03  0.80419002446E+02 0.  1.
        -24    1    1    2    0    0  0.89488970976E+01  0.23411543872E+02  0.83033778966E+02  0.11827936231E+03  0.80419002446E+02 0. -1.
<mgrwt>
<rscale>  0 0.84234192E+02</rscale>
<asrwt>0</asrwt>
<pdfrwt beam="1">  1        1 0.18498727E-01 0.84234192E+02</pdfrwt>
<pdfrwt beam="2">  1       -1 0.16645219E-01 0.84234192E+02</pdfrwt>
<totfact> 0.70092717E+03</totfact>
</mgrwt>
</event>
<event>
 4    1  0.5074571E-001  0.8393881E+02  0.7546771E-02  0.1318231E+00
         -1   -1    0    0    0  501 -0.00000000000E+00  0.00000000000E+00  0.10126988707E+02  0.10126988707E+02  0.00000000000E+00 0.  1.
          1   -1    0    0  501    0  0.00000000000E+00 -0.00000000000E+00 -0.10025681823E+04  0.10025681823E+04  0.00000000000E+00 0. -1.
         24    1    1    2    0    0  0.16521650687E+02 -0.17479795553E+02 -0.21610241851E+03  0.23183179125E+03  0.80419002446E+02 0.  0.
        -24    1    1    2    0    0 -0.16521650687E+02  0.17479795553E+02 -0.77633877505E+03  0.78086337973E+03  0.80419002446E+02 0.  0.
<mgrwt>
<rscale>  0 0.83938812E+02</rscale>
<asrwt>0</asrwt>
<pdfrwt beam="1">  1        1 0.15424131E+00 0.83938812E+02</pdfrwt>
<pdfrwt beam="2">  1       -1 0.15579978E-02 0.83938812E+02</pdfrwt>
<totfact> 0.14538180E+04</totfact>
</mgrwt>
</event>
<event>
 4    1  0.5074571E-001  0.8275153E+02  0.7546771E-02  0.1321419E+00
         -4   -1    0    0    0  501 -0.00000000000E+00  0.00000000000E+00  0.81122068791E+03  0.81122068791E+03  0.00000000000E+00 0.  1.
          4   -1    0    0  501    0  0.00000000000E+00 -0.00000000000E+00 -0.95754801302E+01  0.95754801302E+01  0.00000000000E+00 0. -1.
         24    1    1    2    0    0 -0.18080978188E+02  0.73264755731E+01  0.25958432215E+03  0.27245519866E+03  0.80419002446E+02 0. -1.
        -24    1    1    2    0    0  0.18080978188E+02 -0.73264755731E+01  0.54206088563E+03  0.54834096938E+03  0.80419002446E+02 0.  0.
<mgrwt>
<rscale>  0 0.82751525E+02</rscale>
<asrwt>0</asrwt>
<pdfrwt beam="1">  1        4 0.14731514E-02 0.82751525E+02</pdfrwt>
<pdfrwt beam="2">  1       -4 0.12480313E+00 0.82751525E+02</pdfrwt>
<totfact> 0.12103831E+03</totfact>
</mgrwt>
</event>
<event>
 4    1  0.5074571E-001  0.8752263E+02  0.7546771E-02  0.1308964E+00
          1   -1    0    0  501    0  0.00000000000E+00  0.00000000000E+00  0.36429759906E+03  0.36429759906E+03  0.00000000000E+00 0. -1.
         -1   -1    0    0    0  501 -0.00000000000E+00 -0.00000000000E+00 -0.13754788565E+03  0.13754788565E+03  0.00000000000E+00 0.  1.
         24    1    1    2    0    0 -0.31858720657E+02  0.13342259612E+02 -0.11757320328E+03  0.14657308094E+03  0.80419002446E+02 0.  1.
        -24    1    1    2    0    0  0.31858720657E+02 -0.13342259612E+02  0.34432291669E+03  0.35527240377E+03  0.80419002446E+02 0. -1.
<mgrwt>
<rscale>  0 0.87522625E+02</rscale>
<asrwt>0</asrwt>
<pdfrwt beam="1">  1        1 0.56045784E-01 0.87522625E+02</pdfrwt>
<pdfrwt beam="2">  1       -1 0.21161213E-01 0.87522625E+02</pdfrwt>
<totfact> 0.12306942E+03</totfact>
</mgrwt>
</event>
<event>
 4    1  0.5074571E-001  0.8902504E+02  0.7546771E-02  0.1305230E+00
         -2   -1    0    0    0  501 -0.00000000000E+00  0.00000000000E+00  0.67608566663E+02  0.67608566663E+02  0.00000000000E+00 0.  1.
          2   -1    0    0  501    0  0.00000000000E+00 -0.00000000000E+00 -0.12546336422E+03  0.12546336422E+03  0.00000000000E+00 0. -1.
         24    1    1    2    0    0  0.33411074716E+02  0.18491676209E+02 -0.53663663760E+02  0.10394828890E+03  0.80419002446E+02 0.  0.
        -24    1    1    2    0    0 -0.33411074716E+02 -0.18491676209E+02 -0.41911337926E+01  0.89123641979E+02  0.80419002446E+02 0.  0.
<mgrwt>
<rscale>  0 0.89025041E+02</rscale>
<asrwt>0</asrwt>
<pdfrwt beam="1">  1        2 0.19302056E-01 0.89025041E+02</pdfrwt>
<pdfrwt beam="2">  1       -2 0.10401318E-01 0.89025041E+02</pdfrwt>
<totfact> 0.16093029E+04</totfact>
</mgrwt>
</event>
<event>
 4    1  0.5074571E-001  0.8114900E+02  0.7546771E-02  0.1325822E+00
          3   -1    0    0  501    0  0.00000000000E+00  0.00000000000E+00  0.71984361997E+02  0.71984361997E+02  0.00000000000E+00 0. -1.
         -3   -1    0    0    0  501 -0.00000000000E+00 -0.00000000000E+00 -0.91493058677E+02  0.91493058677E+02  0.00000000000E+00 0.  1.
         24    1    1    2    0    0  0.10858159002E+02 -0.21174627166E+00 -0.10714650908E+02  0.81853308741E+02  0.80419002446E+02 0. -1.
        -24    1    1    2    0    0 -0.10858159002E+02  0.21174627166E+00 -0.87940457731E+01  0.81624111933E+02  0.80419002446E+02 0.  1.
<mgrwt>
<rscale>  0 0.81149001E+02</rscale>
<asrwt>0</asrwt>
<pdfrwt beam="1">  1        3 0.11074517E-01 0.81149001E+02</pdfrwt>
<pdfrwt beam="2">  1       -3 0.14075855E-01 0.81149001E+02</pdfrwt>
<totfact> 0.52362540E+03</totfact>
</mgrwt>
</event>
<event>
 4    1  0.5074571E-001  0.9366100E+02  0.7546771E-02  0.1294221E+00
          1   -1    0    0  501    0  0.00000000000E+00  0.00000000000E+00  0.49343137973E+03  0.49343137973E+03  0.00000000000E+00 0. -1.
         -1   -1    0    0    0  501 -0.00000000000E+00 -0.00000000000E+00 -0.19276367723E+02  0.19276367723E+02  0.00000000000E+00 0.  1.
         24    1    1    2    0    0 -0.42385790995E+02  0.22552433488E+02  0.16561316938E+03  0.19026325279E+03  0.80419002446E+02 0.  1.
        -24    1    1    2    0    0  0.42385790995E+02 -0.22552433488E+02  0.30854184263E+03  0.32244449467E+03  0.80419002446E+02 0.  0.
<mgrwt>
<rscale>  0 0.93661003E+02</rscale>
<asrwt>0</asrwt>
<pdfrwt beam="1">  1        1 0.75912510E-01 0.93661003E+02</pdfrwt>
<pdfrwt beam="2">  1       -1 0.29655954E-02 0.93661003E+02</pdfrwt>
<totfact> 0.16108240E+04</totfact>
</mgrwt>
</event>
<event>
 4    1  0.5074571E-001  0.9131148E+02  0.7546771E-02  0.1299706E+00
         -2   -1    0    0    0  501 -0.00000000000E+00  0.00000000000E+00  0.83266224718E+01  0.83266224718E+01  0.00000000000E+00 0.  1.
          2   -1    0    0  501    0  0.00000000000E+00 -0.00000000000E+00 -0.13884802859E+04  0.13884802859E+04  0.00000000000E+00 0. -1.
         24    1    1    2    0    0 -0.27074298991E+02 -0.33727634926E+02 -0.10588592796E+04  0.10627891423E+04  0.80419002446E+02 0. -1.
        -24    1    1    2    0    0  0.27074298991E+02  0.33727634926E+02 -0.32129438384E+03  0.33401776609E+03  0.80419002446E+02 0.  1.
<mgrwt>
<rscale>  0 0.91311483E+02</rscale>
<asrwt>0</asrwt>
<pdfrwt beam="1">  1        2 0.21361242E+00 0.91311483E+02</pdfrwt>
<pdfrwt beam="2">  1       -2 0.12810184E-02 0.91311483E+02</pdfrwt>
<totfact> 0.21761709E+04</totfact>
</mgrwt>
</event>
<event>
 4    1  0.5074571E-001  0.8282006E+02  0.7546771E-02  0.1321234E+00
         -2   -1    0    0    0  501 -0.00000000000E+00  0.00000000000E+00  0.32264784548E+02  0.32264784548E+02  0.00000000000E+00 0.  1.
          2   -1    0    0  501    0  0.00000000000E+00 -0.00000000000E+00 -0.21975868807E+03  0.21975868807E+03  0.00000000000E+00 0. -1.
         24    1    1    2    0    0  0.46878825684E+01  0.19234618399E+02 -0.11650657862E+03  0.14294385473E+03  0.80419002446E+02 0.  0.
        -24    1    1    2    0    0 -0.46878825684E+01 -0.19234618399E+02 -0.70987324893E+02  0.10907961788E+03  0.80419002446E+02 0.  0.
<mgrwt>
<rscale>  0 0.82820062E+02</rscale>
<asrwt>0</asrwt>
<pdfrwt beam="1">  1        2 0.33809030E-01 0.82820062E+02</pdfrwt>
<pdfrwt beam="2">  1       -2 0.49638129E-02 0.82820062E+02</pdfrwt>
<totfact> 0.26671021E+04</totfact>
</mgrwt>
</event>
<event>
 4    1  0.5074571E-001  0.8147018E+02  0.7546771E-02  0.1324930E+00
         -1   -1    0    0    0  501 -0.00000000000E+00  0.00000000000E+00  0.20944872334E+02  0.20944872334E+02  0.00000000000E+00 0.  1.
          1   -1    0    0  501    0  0.00000000000E+00 -0.00000000000E+00 -0.34721220087E+03  0.34721220087E+03  0.00000000000E+00 0. -1.
         24    1    1    2    0    0 -0.68074443045E+01 -0.11127998223E+02 -0.10874251537E+03  0.13587613567E+03  0.80419002446E+02 0.  0.
        -24    1    1    2    0    0  0.68074443045E+01  0.11127998223E+02 -0.21752481317E+03  0.23228093753E+03  0.80419002446E+02 0. -1.
<mgrwt>
<rscale>  0 0.81470176E+02</rscale>
<asrwt>0</asrwt>
<pdfrwt beam="1">  1        1 0.53417255E-01 0.81470176E+02</pdfrwt>
<pdfrwt beam="2">  1       -1 0.32222884E-02 0.81470176E+02</pdfrwt>
<totfact> 0.21847841E+04</totfact>
</mgrwt>
</event>
<event>
 4    1  0.5074571E-001  0.1024216E+03  0.7546771E-02  0.1275284E+00
          2   -1    0    0  501    0  0.00000000000E+00  0.00000000000E+00  0.30776588343E+03  0.30776588343E+03  0.00000000000E+00 0. -1.
         -2   -1    0    0    0  501 -0.00000000000E+00 -0.00000000000E+00 -0.38375830223E+02  0.38375830223E+02  0.00000000000E+00 0.  1.
         24    1    1    2    0    0  0.56198377870E+02  0.29406126787E+02  0.19256679309E+03  0.21811043928E+03  0.80419002446E+02 0.  1.
        -24    1    1    2    0    0 -0.56198377870E+02 -0.29406126787E+02  0.76823260113E+02  0.12803127437E+03  0.80419002446E+02 0. -1.
<mgrwt>
<rscale>  0 0.10242165E+03</rscale>
<asrwt>0</asrwt>
<pdfrwt beam="1">  1        2 0.47348596E-01 0.10242165E+03</pdfrwt>
<pdfrwt beam="2">  1       -2 0.59039741E-02 0.10242165E+03</pdfrwt>
<totfact> 0.14782096E+04</totfact>
</mgrwt>
</event>
<event>
 4    1  0.5074571E-001  0.8448666E+02  0.7546771E-02  0.1316780E+00
         -1   -1    0    0    0  501 -0.00000000000E+00  0.00000000000E+00  0.18984553202E+02  0.18984553202E+02  0.00000000000E+00 0.  1.
          1   -1    0    0  501    0  0.00000000000E+00 -0.00000000000E+00 -0.11066398773E+04  0.11066398773E+04  0.00000000000E+00 0. -1.
         24    1    1    2    0    0 -0.25042048179E+01  0.25778073872E+02 -0.86513016690E+02  0.12092352189E+03  0.80419002446E+02 0.  1.
        -24    1    1    2    0    0  0.25042048179E+01 -0.25778073872E+02 -0.10011423074E+04  0.10047009086E+04  0.80419002446E+02 0. -1.
<mgrwt>
<rscale>  0 0.84486662E+02</rscale>
<asrwt>0</asrwt>
<pdfrwt beam="1">  1        1 0.17025229E+00 0.84486662E+02</pdfrwt>
<pdfrwt beam="2">  1       -1 0.29207005E-02 0.84486662E+02</pdfrwt>
<totfact> 0.50167259E+03</totfact>
</mgrwt>
</event>
<event>
 4    1  0.5074571E-001  0.1318962E+03  0.7546771E-02  0.1224669E+00
         -1   -1    0    0    0  501 -0.00000000000E+00  0.00000000000E+00  0.58893048805E+03  0.58893048805E+03  0.00000000000E+00 0.  1.
          1   -1    0    0  501    0  0.00000000000E+00 -0.00000000000E+00 -0.33877013916E+02  0.33877013916E+02  0.00000000000E+00 0. -1.
         24    1    1    2    0    0  0.10320589352E+02  0.10403299698E+03  0.38895662122E+03  0.41071139280E+03  0.80419002446E+02 0.  1.
        -24    1    1    2    0    0 -0.10320589352E+02 -0.10403299698E+03  0.16609685291E+03  0.21209610917E+03  0.80419002446E+02 0. -1.
<mgrwt>
<rscale>  0 0.13189615E+03</rscale>
<asrwt>0</asrwt>
<pdfrwt beam="1">  1        1 0.52118487E-02 0.13189615E+03</pdfrwt>
<pdfrwt beam="2">  1       -1 0.90604683E-01 0.13189615E+03</pdfrwt>
<totfact> 0.19098787E+03</totfact>
</mgrwt>
</event>
<event>
 4    1  0.5074571E-001  0.1070013E+03  0.7546771E-02  0.1266226E+00
         -2   -1    0    0    0  501 -0.00000000000E+00  0.00000000000E+00  0.72182587678E+01  0.72182587678E+01  0.00000000000E+00 0.  1.
          2   -1    0    0  501    0  0.00000000000E+00 -0.00000000000E+00 -0.15887296836E+04  0.15887296836E+04  0.00000000000E+00 0. -1.
         24    1    1    2    0    0  0.18806799736E+02  0.68032129818E+02 -0.82287499168E+03  0.82980270805E+03  0.80419002446E+02 0.  1.
        -24    1    1    2    0    0 -0.18806799736E+02 -0.68032129818E+02 -0.75863643313E+03  0.76614523430E+03  0.80419002446E+02 0. -1.
<mgrwt>
<rscale>  0 0.10700132E+03</rscale>
<asrwt>0</asrwt>
<pdfrwt beam="1">  1        2 0.24441956E+00 0.10700132E+03</pdfrwt>
<pdfrwt beam="2">  1       -2 0.11105031E-02 0.10700132E+03</pdfrwt>
<totfact> 0.21277662E+04</totfact>
</mgrwt>
</event>
<event>
 4    1  0.5074571E-001  0.9152651E+02  0.7546771E-02  0.1299197E+00
         -1   -1    0    0    0  501 -0.00000000000E+00  0.00000000000E+00  0.14090172629E+04  0.14090172629E+04  0.00000000000E+00 0.  1.
          1   -1    0    0  501    0  0.00000000000E+00 -0.00000000000E+00 -0.12467205788E+02  0.12467205788E+02  0.00000000000E+00 0. -1.
         24    1    1    2    0    0  0.32950811519E+02 -0.28707660114E+02  0.12123342256E+04  0.12157842639E+04  0.80419002446E+02 0.  1.
        -24    1    1    2    0    0 -0.32950811519E+02  0.28707660114E+02  0.18421583141E+03  0.20570020473E+03  0.80419002446E+02 0. -1.
<mgrwt>
<rscale>  0 0.91526508E+02</rscale>
<asrwt>0</asrwt>
<pdfrwt beam="1">  1        1 0.19180328E-02 0.91526508E+02</pdfrwt>
<pdfrwt beam="2">  1       -1 0.21677176E+00 0.91526508E+02</pdfrwt>
<totfact> 0.80691159E+02</totfact>
</mgrwt>
</event>
<event>
 4    1  0.5074571E-001  0.9136965E+02  0.7546771E-02  0.1299568E+00
         -2   -1    0    0    0  501 -0.00000000000E+00  0.00000000000E+00  0.90211012790E+02  0.90211012790E+02  0.00000000000E+00 0.  1.
          2   -1    0    0  501    0  0.00000000000E+00 -0.00000000000E+00 -0.28441954275E+03  0.28441954275E+03  0.00000000000E+00 0. -1.
         24    1    1    2    0    0 -0.15431218234E+02 -0.40534846847E+02 -0.25095665392E+03  0.26707237671E+03  0.80419002446E+02 0. -1.
        -24    1    1    2    0    0  0.15431218234E+02  0.40534846847E+02  0.56748123956E+02  0.10755817882E+03  0.80419002446E+02 0.  1.
<mgrwt>
<rscale>  0 0.91369646E+02</rscale>
<asrwt>0</asrwt>
<pdfrwt beam="1">  1        2 0.43756852E-01 0.91369646E+02</pdfrwt>
<pdfrwt beam="2">  1       -2 0.13878618E-01 0.91369646E+02</pdfrwt>
<totfact> 0.42375070E+03</totfact>
</mgrwt>
</event>
<event>
 4    1  0.5074571E-001  0.9801644E+02  0.7546771E-02  0.1284523E+00
         -1   -1    0    0    0  501 -0.00000000000E+00  0.00000000000E+00  0.21917888366E+02  0.21917888366E+02  0.00000000000E+00 0.  1.
          1   -1    0    0  501    0  0.00000000000E+00 -0.00000000000E+00 -0.10632602133E+04  0.10632602133E+04  0.00000000000E+00 0. -1.
         24    1    1    2    0    0  0.55785383551E+02 -0.52912776922E+01 -0.10469568868E+03  0.14341690912E+03  0.80419002446E+02 0.  1.
        -24    1    1    2    0    0 -0.55785383551E+02  0.52912776922E+01 -0.93664663626E+03  0.94176119256E+03  0.80419002446E+02 0. -1.
<mgrwt>
<rscale>  0 0.98016440E+02</rscale>
<asrwt>0</asrwt>
<pdfrwt beam="1">  1        1 0.16357849E+00 0.98016440E+02</pdfrwt>
<pdfrwt beam="2">  1       -1 0.33719829E-02 0.98016440E+02</pdfrwt>
<totfact> 0.44010785E+03</totfact>
</mgrwt>
</event>
<event>
 4    1  0.5074571E-001  0.1735755E+03  0.7546771E-02  0.1174170E+00
         -2   -1    0    0    0  501 -0.00000000000E+00  0.00000000000E+00  0.17278662264E+03  0.17278662264E+03  0.00000000000E+00 0.  1.
          2   -1    0    0  501    0  0.00000000000E+00 -0.00000000000E+00 -0.22531624537E+03  0.22531624537E+03  0.00000000000E+00 0. -1.
         24    1    1    2    0    0  0.15116991953E+03  0.28441195385E+02 -0.12091763357E+03  0.21154086184E+03  0.80419002446E+02 0. -1.
        -24    1    1    2    0    0 -0.15116991953E+03 -0.28441195385E+02  0.68388010841E+02  0.18656200617E+03  0.80419002446E+02 0.  1.
<mgrwt>
<rscale>  0 0.17357552E+03</rscale>
<asrwt>0</asrwt>
<pdfrwt beam="1">  1        2 0.34664038E-01 0.17357552E+03</pdfrwt>
<pdfrwt beam="2">  1       -2 0.26582557E-01 0.17357552E+03</pdfrwt>
<totfact> 0.18745171E+03</totfact>
</mgrwt>
</event>
<event>
 4    1  0.5074571E-001  0.9459060E+02  0.7546771E-02  0.1292101E+00
         -2   -1    0    0    0  501 -0.00000000000E+00  0.00000000000E+00  0.14145493299E+03  0.14145493299E+03  0.00000000000E+00 0.  1.
          2   -1    0    0  501    0  0.00000000000E+00 -0.00000000000E+00 -0.10099871336E+03  0.10099871336E+03  0.00000000000E+00 0. -1.
         24    1    1    2    0    0  0.23942112813E+02  0.43668533468E+02 -0.53881983682E+02  0.10886068942E+03  0.80419002446E+02 0. -1.
        -24    1    1    2    0    0 -0.23942112813E+02 -0.43668533468E+02  0.94338203315E+02  0.13359295693E+03  0.80419002446E+02 0.  1.
<mgrwt>
<rscale>  0 0.94590600E+02</rscale>
<asrwt>0</asrwt>
<pdfrwt beam="1">  1        2 0.15538264E-01 0.94590600E+02</pdfrwt>
<pdfrwt beam="2">  1       -2 0.21762297E-01 0.94590600E+02</pdfrwt>
<totfact> 0.62546092E+03</totfact>
</mgrwt>
</event>
<event>
 4    1  0.5074571E-001  0.8768400E+02  0.7546771E-02  0.1308559E+00
          2   -1    0    0  501    0  0.00000000000E+00  0.00000000000E+00  0.21030333037E+04  0.21030333037E+04  0.00000000000E+00 0. -1.
         -2   -1    0    0    0  501 -0.00000000000E+00 -0.00000000000E+00 -0.37336361123E+01  0.37336361123E+01  0.00000000000E+00 0.  1.
         24    1    1    2    0    0 -0.12212892093E+02  0.32743151822E+02  0.12016433193E+04  0.12048382263E+04  0.80419002446E+02 0.  0.
        -24    1    1    2    0    0  0.12212892093E+02 -0.32743151822E+02  0.89765634828E+03  0.90192871353E+03  0.80419002446E+02 0. -1.
<mgrwt>
<rscale>  0 0.87684005E+02</rscale>
<asrwt>0</asrwt>
<pdfrwt beam="1">  1        2 0.32354264E+00 0.87684005E+02</pdfrwt>
<pdfrwt beam="2">  1       -2 0.57440724E-03 0.87684005E+02</pdfrwt>
<totfact> 0.29329287E+04</totfact>
</mgrwt>
</event>
<event>
 4    1  0.5074571E-001  0.8095900E+02  0.7546771E-02  0.1326352E+00
         -2   -1    0    0    0  501 -0.00000000000E+00  0.00000000000E+00  0.66087867677E+03  0.66087867677E+03  0.00000000000E+00 0.  1.
          2   -1    0    0  501    0  0.00000000000E+00 -0.00000000000E+00 -0.99363773751E+01  0.99363773751E+01  0.00000000000E+00 0. -1.
         24    1    1    2    0    0  0.33687321459E+00  0.93288371628E+01  0.34003633226E+03  0.34954121917E+03  0.80419002446E+02 0.  1.
        -24    1    1    2    0    0 -0.33687321459E+00 -0.93288371628E+01  0.31090596713E+03  0.32127383498E+03  0.80419002446E+02 0. -1.
<mgrwt>
<rscale>  0 0.80958991E+02</rscale>
<asrwt>0</asrwt>
<pdfrwt beam="1">  1        2 0.15286740E-02 0.80959001E+02</pdfrwt>
<pdfrwt beam="2">  1       -2 0.10167361E+00 0.80959001E+02</pdfrwt>
<totfact> 0.58464620E+03</totfact>
</mgrwt>
</event>
<event>
 4    1  0.5074571E-001  0.8486552E+02  0.7546771E-02  0.1315785E+00
         -1   -1    0    0    0  501 -0.00000000000E+00  0.00000000000E+00  0.39128260761E+01  0.39128260761E+01  0.00000000000E+00 0.  1.
          1   -1    0    0  501    0  0.00000000000E+00 -0.00000000000E+00 -0.23839811590E+04  0.23839811590E+04  0.00000000000E+00 0. -1.
         24    1    1    2    0    0  0.25803147097E+02 -0.83149837893E+01 -0.62004774060E+03  0.62582853717E+03  0.80419002446E+02 0.  1.
        -24    1    1    2    0    0 -0.25803147097E+02  0.83149837893E+01 -0.17600205924E+04  0.17620654480E+04  0.80419002446E+02 0. -1.
<mgrwt>
<rscale>  0 0.84865525E+02</rscale>
<asrwt>0</asrwt>
<pdfrwt beam="1">  1        1 0.36676686E+00 0.84865525E+02</pdfrwt>
<pdfrwt beam="2">  1       -1 0.60197237E-03 0.84865525E+02</pdfrwt>
<totfact> 0.71891240E+03</totfact>
</mgrwt>
</event>
<event>
 4    1  0.5074571E-001  0.1027279E+03  0.7546771E-02  0.1274662E+00
         -2   -1    0    0    0  501 -0.00000000000E+00  0.00000000000E+00  0.61162211757E+02  0.61162211757E+02  0.00000000000E+00 0.  1.
          2   -1    0    0  501    0  0.00000000000E+00 -0.00000000000E+00 -0.22196975468E+03  0.22196975468E+03  0.00000000000E+00 0. -1.
         24    1    1    2    0    0 -0.58584325775E+02 -0.25567143007E+02 -0.14720735718E+03  0.17950772682E+03  0.80419002446E+02 0. -1.
        -24    1    1    2    0    0  0.58584325775E+02  0.25567143007E+02 -0.13600185742E+02  0.10362423961E+03  0.80419002446E+02 0. -1.
<mgrwt>
<rscale>  0 0.10272788E+03</rscale>
<asrwt>0</asrwt>
<pdfrwt beam="1">  1        2 0.34149193E-01 0.10272788E+03</pdfrwt>
<pdfrwt beam="2">  1       -2 0.94095710E-02 0.10272788E+03</pdfrwt>
<totfact> 0.10243168E+04</totfact>
</mgrwt>
</event>
<event>
 4    1  0.5074571E-001  0.1002699E+03  0.7546771E-02  0.1279729E+00
         -2   -1    0    0    0  501 -0.00000000000E+00  0.00000000000E+00  0.16017431008E+02  0.16017431008E+02  0.00000000000E+00 0.  1.
          2   -1    0    0  501    0  0.00000000000E+00 -0.00000000000E+00 -0.68945016220E+03  0.68945016220E+03  0.00000000000E+00 0. -1.
         24    1    1    2    0    0 -0.21736751783E+02 -0.55806449192E+02 -0.44228431924E+03  0.45350797253E+03  0.80419002446E+02 0.  0.
        -24    1    1    2    0    0  0.21736751783E+02  0.55806449192E+02 -0.23114841196E+03  0.25195962068E+03  0.80419002446E+02 0.  1.
<mgrwt>
<rscale>  0 0.10026995E+03</rscale>
<asrwt>0</asrwt>
<pdfrwt beam="1">  1        2 0.10606925E+00 0.10026995E+03</pdfrwt>
<pdfrwt beam="2">  1       -2 0.24642203E-02 0.10026995E+03</pdfrwt>
<totfact> 0.22287622E+04</totfact>
</mgrwt>
</event>
<event>
 4    1  0.5074571E-001  0.8590133E+02  0.7546771E-02  0.1313092E+00
         -3   -1    0    0    0  501 -0.00000000000E+00  0.00000000000E+00  0.16886878930E+03  0.16886878930E+03  0.00000000000E+00 0.  1.
          3   -1    0    0  501    0  0.00000000000E+00 -0.00000000000E+00 -0.95477804846E+02  0.95477804846E+02  0.00000000000E+00 0. -1.
         24    1    1    2    0    0  0.28123310902E+02  0.10995512836E+02  0.13403237771E+03  0.15919709843E+03  0.80419002446E+02 0.  1.
        -24    1    1    2    0    0 -0.28123310902E+02 -0.10995512836E+02 -0.60641393259E+02  0.10514949572E+03  0.80419002446E+02 0. -1.
<mgrwt>
<rscale>  0 0.85901326E+02</rscale>
<asrwt>0</asrwt>
<pdfrwt beam="1">  1        3 0.14688893E-01 0.85901326E+02</pdfrwt>
<pdfrwt beam="2">  1       -3 0.25979814E-01 0.85901326E+02</pdfrwt>
<totfact> 0.11439103E+03</totfact>
</mgrwt>
</event>
<event>
 4    1  0.5074571E-001  0.1204055E+03  0.7546771E-02  0.1242430E+00
          2   -1    0    0  501    0  0.00000000000E+00  0.00000000000E+00  0.10142294894E+04  0.10142294894E+04  0.00000000000E+00 0. -1.
         -2   -1    0    0    0  501 -0.00000000000E+00 -0.00000000000E+00 -0.43664869096E+02  0.43664869096E+02  0.00000000000E+00 0.  1.
         24    1    1    2    0    0  0.88095609604E+02  0.16414461242E+02  0.91909670890E+03  0.92694997019E+03  0.80419002446E+02 0. -1.
        -24    1    1    2    0    0 -0.88095609604E+02 -0.16414461242E+02  0.51467911398E+02  0.13094438830E+03  0.80419002446E+02 0.  1.
<mgrwt>
<rscale>  0 0.12040551E+03</rscale>
<asrwt>0</asrwt>
<pdfrwt beam="1">  1        2 0.15603529E+00 0.12040551E+03</pdfrwt>
<pdfrwt beam="2">  1       -2 0.67176729E-02 0.12040551E+03</pdfrwt>
<totfact> 0.31376122E+03</totfact>
</mgrwt>
</event>
<event>
 4    1  0.5074571E-001  0.8372830E+02  0.7546771E-02  0.1318792E+00
          2   -1    0    0  501    0  0.00000000000E+00  0.00000000000E+00  0.14870411830E+04  0.14870411830E+04  0.00000000000E+00 0. -1.
         -2   -1    0    0    0  501 -0.00000000000E+00 -0.00000000000E+00 -0.29865590794E+03  0.29865590794E+03  0.00000000000E+00 0.  1.
         24    1    1    2    0    0 -0.22935416391E+02 -0.41447120200E+01  0.14799662503E+04  0.14823327999E+04  0.80419002446E+02 0. -1.
        -24    1    1    2    0    0  0.22935416391E+02  0.41447120200E+01 -0.29158097522E+03  0.30336429096E+03  0.80419002446E+02 0.  1.
<mgrwt>
<rscale>  0 0.83728298E+02</rscale>
<asrwt>0</asrwt>
<pdfrwt beam="1">  1        2 0.22877556E+00 0.83728298E+02</pdfrwt>
<pdfrwt beam="2">  1       -2 0.45947064E-01 0.83728298E+02</pdfrwt>
<totfact> 0.69907935E+01</totfact>
</mgrwt>
</event>
<event>
 4    1  0.5074571E-001  0.8529786E+02  0.7546771E-02  0.1314655E+00
          2   -1    0    0  501    0  0.00000000000E+00  0.00000000000E+00  0.23227493111E+02  0.23227493111E+02  0.00000000000E+00 0. -1.
         -2   -1    0    0    0  501 -0.00000000000E+00 -0.00000000000E+00 -0.52871940460E+03  0.52871940460E+03  0.00000000000E+00 0.  1.
         24    1    1    2    0    0  0.10323893872E+02 -0.26493904524E+02 -0.76564614384E+02  0.11462052998E+03  0.80419002446E+02 0. -1.
        -24    1    1    2    0    0 -0.10323893872E+02  0.26493904524E+02 -0.42892729711E+03  0.43732636774E+03  0.80419002446E+02 0.  1.
<mgrwt>
<rscale>  0 0.85297865E+02</rscale>
<asrwt>0</asrwt>
<pdfrwt beam="1">  1        2 0.35734604E-02 0.85297865E+02</pdfrwt>
<pdfrwt beam="2">  1       -2 0.81341449E-01 0.85297865E+02</pdfrwt>
<totfact> 0.31089518E+03</totfact>
</mgrwt>
</event>
<event>
 4    1  0.5074571E-001  0.1201251E+03  0.7546771E-02  0.1242891E+00
         -2   -1    0    0    0  501 -0.00000000000E+00  0.00000000000E+00  0.39928706275E+03  0.39928706275E+03  0.00000000000E+00 0.  1.
          2   -1    0    0  501    0  0.00000000000E+00 -0.00000000000E+00 -0.58282521986E+02  0.58282521986E+02  0.00000000000E+00 0. -1.
         24    1    1    2    0    0  0.55970250480E+02 -0.69499315672E+02  0.29483699707E+02  0.12369045364E+03  0.80419002446E+02 0. -1.
        -24    1    1    2    0    0 -0.55970250480E+02  0.69499315672E+02  0.31152084106E+03  0.33387913110E+03  0.80419002446E+02 0.  1.
<mgrwt>
<rscale>  0 0.12012510E+03</rscale>
<asrwt>0</asrwt>
<pdfrwt beam="1">  1        2 0.89665421E-02 0.12012510E+03</pdfrwt>
<pdfrwt beam="2">  1       -2 0.61428777E-01 0.12012510E+03</pdfrwt>
<totfact> 0.17785196E+03</totfact>
</mgrwt>
</event>
<event>
 4    1  0.5074571E-001  0.1486253E+03  0.7546771E-02  0.1202172E+00
         -2   -1    0    0    0  501 -0.00000000000E+00  0.00000000000E+00  0.67931405317E+02  0.67931405317E+02  0.00000000000E+00 0.  1.
          2   -1    0    0  501    0  0.00000000000E+00 -0.00000000000E+00 -0.71516238669E+03  0.71516238669E+03  0.00000000000E+00 0. -1.
         24    1    1    2    0    0  0.11666748290E+03  0.44843782744E+02 -0.61275514289E+03  0.63052228153E+03  0.80419002446E+02 0. -1.
        -24    1    1    2    0    0 -0.11666748290E+03 -0.44843782744E+02 -0.34475838487E+02  0.15257151048E+03  0.80419002446E+02 0.  1.
<mgrwt>
<rscale>  0 0.14862531E+03</rscale>
<asrwt>0</asrwt>
<pdfrwt beam="1">  1        2 0.11002498E+00 0.14862531E+03</pdfrwt>
<pdfrwt beam="2">  1       -2 0.10450986E-01 0.14862531E+03</pdfrwt>
<totfact> 0.24875123E+03</totfact>
</mgrwt>
</event>
<event>
 4    1  0.5074571E-001  0.9118831E+02  0.7546771E-02  0.1299999E+00
          2   -1    0    0  501    0  0.00000000000E+00  0.00000000000E+00  0.18218419203E+03  0.18218419203E+03  0.00000000000E+00 0. -1.
         -2   -1    0    0    0  501 -0.00000000000E+00 -0.00000000000E+00 -0.88859358019E+02  0.88859358019E+02  0.00000000000E+00 0.  1.
         24    1    1    2    0    0 -0.33118411785E+02  0.27409182192E+02  0.14117399535E+03  0.16806369443E+03  0.80419002446E+02 0. -1.
        -24    1    1    2    0    0  0.33118411785E+02 -0.27409182192E+02 -0.47849161343E+02  0.10297985562E+03  0.80419002446E+02 0.  1.
<mgrwt>
<rscale>  0 0.91188313E+02</rscale>
<asrwt>0</asrwt>
<pdfrwt beam="1">  1        2 0.28028337E-01 0.91188313E+02</pdfrwt>
<pdfrwt beam="2">  1       -2 0.13670670E-01 0.91188313E+02</pdfrwt>
<totfact> 0.69545976E+03</totfact>
</mgrwt>
</event>
<event>
 4    1  0.5074571E-001  0.8126109E+02  0.7546771E-02  0.1325510E+00
         -1   -1    0    0    0  501 -0.00000000000E+00  0.00000000000E+00  0.44189432272E+02  0.44189432272E+02  0.00000000000E+00 0.  1.
          1   -1    0    0  501    0  0.00000000000E+00 -0.00000000000E+00 -0.31590853746E+04  0.31590853746E+04  0.00000000000E+00 0. -1.
         24    1    1    2    0    0  0.33377006698E+01 -0.11180714737E+02  0.58496986745E+01  0.81471366484E+02  0.80419002446E+02 0.  1.
        -24    1    1    2    0    0 -0.33377006698E+01  0.11180714737E+02 -0.31207456410E+04  0.31218034404E+04  0.80419002446E+02 0. -1.
<mgrwt>
<rscale>  0 0.81261089E+02</rscale>
<asrwt>0</asrwt>
<pdfrwt beam="1">  1        1 0.48601323E+00 0.81261089E+02</pdfrwt>
<pdfrwt beam="2">  1       -1 0.67983729E-02 0.81261089E+02</pdfrwt>
<totfact> 0.69409206E+01</totfact>
</mgrwt>
</event>
<event>
 4    1  0.5074571E-001  0.8154406E+02  0.7546771E-02  0.1324726E+00
          1   -1    0    0  501    0  0.00000000000E+00  0.00000000000E+00  0.51925872885E+03  0.51925872885E+03  0.00000000000E+00 0. -1.
         -1   -1    0    0    0  501 -0.00000000000E+00 -0.00000000000E+00 -0.15890785549E+02  0.15890785549E+02  0.00000000000E+00 0.  1.
         24    1    1    2    0    0 -0.12521791747E+02  0.50420430449E+01  0.13378467221E+03  0.15667728598E+03  0.80419002446E+02 0.  1.
        -24    1    1    2    0    0  0.12521791747E+02 -0.50420430449E+01  0.36958327108E+03  0.37847222842E+03  0.80419002446E+02 0.  0.
<mgrwt>
<rscale>  0 0.81544058E+02</rscale>
<asrwt>0</asrwt>
<pdfrwt beam="1">  1        1 0.79885945E-01 0.81544058E+02</pdfrwt>
<pdfrwt beam="2">  1       -1 0.24447366E-02 0.81544058E+02</pdfrwt>
<totfact> 0.19630544E+04</totfact>
</mgrwt>
</event>
<event>
 4    1  0.5074571E-001  0.8260921E+02  0.7546771E-02  0.1321806E+00
          2   -1    0    0  501    0  0.00000000000E+00  0.00000000000E+00  0.77931652715E+03  0.77931652715E+03  0.00000000000E+00 0. -1.
         -2   -1    0    0    0  501 -0.00000000000E+00 -0.00000000000E+00 -0.16385052564E+02  0.16385052564E+02  0.00000000000E+00 0.  1.
         24    1    1    2    0    0  0.18396891379E+02 -0.43150771470E+01  0.65292846397E+03  0.65813361905E+03  0.80419002446E+02 0.  0.
        -24    1    1    2    0    0 -0.18396891379E+02  0.43150771470E+01  0.11000301062E+03  0.13756796067E+03  0.80419002446E+02 0.  1.
<mgrwt>
<rscale>  0 0.82609209E+02</rscale>
<asrwt>0</asrwt>
<pdfrwt beam="1">  1        2 0.11989482E+00 0.82609209E+02</pdfrwt>
<pdfrwt beam="2">  1       -2 0.25207779E-02 0.82609209E+02</pdfrwt>
<totfact> 0.18322980E+04</totfact>
</mgrwt>
</event>
<event>
 4    1  0.5074571E-001  0.1061502E+03  0.7546771E-02  0.1267870E+00
          3   -1    0    0  501    0  0.00000000000E+00  0.00000000000E+00  0.13984281108E+02  0.13984281108E+02  0.00000000000E+00 0. -1.
         -3   -1    0    0    0  501 -0.00000000000E+00 -0.00000000000E+00 -0.24822033966E+04  0.24822033966E+04  0.00000000000E+00 0.  1.
         24    1    1    2    0    0 -0.68512729221E+02 -0.10326923601E+02 -0.22598184151E+04  0.22623101300E+04  0.80419002446E+02 0.  1.
        -24    1    1    2    0    0  0.68512729221E+02  0.10326923601E+02 -0.20840070045E+03  0.23387754770E+03  0.80419002446E+02 0. -1.
<mgrwt>
<rscale>  0 0.10615015E+03</rscale>
<asrwt>0</asrwt>
<pdfrwt beam="1">  1        3 0.21514305E-02 0.10615015E+03</pdfrwt>
<pdfrwt beam="2">  1       -3 0.38187698E+00 0.10615015E+03</pdfrwt>
<totfact> 0.33402724E+01</totfact>
</mgrwt>
</event>
<event>
 4    1  0.5074571E-001  0.1148472E+03  0.7546771E-02  0.1251848E+00
         -2   -1    0    0    0  501 -0.00000000000E+00  0.00000000000E+00  0.44199379817E+02  0.44199379817E+02  0.00000000000E+00 0.  1.
          2   -1    0    0  501    0  0.00000000000E+00 -0.00000000000E+00 -0.44173169694E+03  0.44173169694E+03  0.00000000000E+00 0. -1.
         24    1    1    2    0    0  0.44309277664E+02 -0.68988046243E+02 -0.33715773502E+03  0.35618143810E+03  0.80419002446E+02 0. -1.
        -24    1    1    2    0    0 -0.44309277664E+02  0.68988046243E+02 -0.60374582098E+02  0.12974963865E+03  0.80419002446E+02 0.  1.
<mgrwt>
<rscale>  0 0.11484720E+03</rscale>
<asrwt>0</asrwt>
<pdfrwt beam="1">  1        2 0.67958722E-01 0.11484720E+03</pdfrwt>
<pdfrwt beam="2">  1       -2 0.67999046E-02 0.11484720E+03</pdfrwt>
<totfact> 0.82234798E+03</totfact>
</mgrwt>
</event>
<event>
 4    1  0.5074571E-001  0.8067552E+02  0.7546771E-02  0.1327145E+00
         -2   -1    0    0    0  501 -0.00000000000E+00  0.00000000000E+00  0.42880163192E+03  0.42880163192E+03  0.00000000000E+00 0.  1.
          2   -1    0    0  501    0  0.00000000000E+00 -0.00000000000E+00 -0.17366261294E+02  0.17366261294E+02  0.00000000000E+00 0. -1.
         24    1    1    2    0    0 -0.26382566544E+01 -0.58620372509E+01  0.12653666786E+03  0.15006687891E+03  0.80419002446E+02 0.  0.
        -24    1    1    2    0    0  0.26382566544E+01  0.58620372509E+01  0.28489870276E+03  0.29610101430E+03  0.80419002446E+02 0.  1.
<mgrwt>
<rscale>  0 0.80675522E+02</rscale>
<asrwt>0</asrwt>
<pdfrwt beam="1">  1        2 0.26717328E-02 0.80675522E+02</pdfrwt>
<pdfrwt beam="2">  1       -2 0.65969474E-01 0.80675522E+02</pdfrwt>
<totfact> 0.70886000E+03</totfact>
</mgrwt>
</event>
<event>
 4    1  0.5074571E-001  0.1273838E+03  0.7546771E-02  0.1231390E+00
         -2   -1    0    0    0  501 -0.00000000000E+00  0.00000000000E+00  0.10823331374E+03  0.10823331374E+03  0.00000000000E+00 0.  1.
          2   -1    0    0  501    0  0.00000000000E+00 -0.00000000000E+00 -0.56620046166E+03  0.56620046166E+03  0.00000000000E+00 0. -1.
         24    1    1    2    0    0 -0.85206497116E+02  0.49992779456E+02 -0.51812862346E+03  0.53355778652E+03  0.80419002446E+02 0. -1.
        -24    1    1    2    0    0  0.85206497116E+02 -0.49992779456E+02  0.60161475545E+02  0.14087598888E+03  0.80419002446E+02 0.  1.
<mgrwt>
<rscale>  0 0.12738383E+03</rscale>
<asrwt>0</asrwt>
<pdfrwt beam="1">  1        2 0.87107765E-01 0.12738383E+03</pdfrwt>
<pdfrwt beam="2">  1       -2 0.16651279E-01 0.12738383E+03</pdfrwt>
<totfact> 0.15315544E+03</totfact>
</mgrwt>
</event>
<event>
 4    1  0.5074571E-001  0.8297037E+02  0.7546771E-02  0.1320827E+00
          1   -1    0    0  501    0  0.00000000000E+00  0.00000000000E+00  0.24656957218E+02  0.24656957218E+02  0.00000000000E+00 0. -1.
         -1   -1    0    0    0  501 -0.00000000000E+00 -0.00000000000E+00 -0.45230559382E+03  0.45230559382E+03  0.00000000000E+00 0.  1.
         24    1    1    2    0    0 -0.16195059903E+02  0.12433305718E+02 -0.36136131942E+03  0.37076419215E+03  0.80419002446E+02 0.  1.
        -24    1    1    2    0    0  0.16195059903E+02 -0.12433305718E+02 -0.66287317186E+02  0.10619835889E+03  0.80419002446E+02 0. -1.
<mgrwt>
<rscale>  0 0.82970374E+02</rscale>
<asrwt>0</asrwt>
<pdfrwt beam="1">  1        1 0.37933784E-02 0.82970374E+02</pdfrwt>
<pdfrwt beam="2">  1       -1 0.69585469E-01 0.82970374E+02</pdfrwt>
<totfact> 0.48814319E+03</totfact>
</mgrwt>
</event>
<event>
 4    1  0.5074571E-001  0.8715115E+02  0.7546771E-02  0.1309901E+00
          1   -1    0    0  501    0  0.00000000000E+00  0.00000000000E+00  0.19262438072E+03  0.19262438072E+03  0.00000000000E+00 0. -1.
         -1   -1    0    0    0  501 -0.00000000000E+00 -0.00000000000E+00 -0.41378283037E+02  0.41378283037E+02  0.00000000000E+00 0.  1.
         24    1    1    2    0    0  0.20279972350E+02  0.26773690731E+02  0.50239810989E+02  0.10059504141E+03  0.80419002446E+02 0.  1.
        -24    1    1    2    0    0 -0.20279972350E+02 -0.26773690731E+02  0.10100628669E+03  0.13340762234E+03  0.80419002446E+02 0. -1.
<mgrwt>
<rscale>  0 0.87151155E+02</rscale>
<asrwt>0</asrwt>
<pdfrwt beam="1">  1        1 0.29634520E-01 0.87151155E+02</pdfrwt>
<pdfrwt beam="2">  1       -1 0.63658898E-02 0.87151155E+02</pdfrwt>
<totfact> 0.16758492E+04</totfact>
</mgrwt>
</event>
<event>
 4    1  0.5074571E-001  0.8147907E+02  0.7546771E-02  0.1324906E+00
         -2   -1    0    0    0  501 -0.00000000000E+00  0.00000000000E+00  0.62031265231E+01  0.62031265231E+01  0.00000000000E+00 0.  1.
          2   -1    0    0  501    0  0.00000000000E+00 -0.00000000000E+00 -0.10961269576E+04  0.10961269576E+04  0.00000000000E+00 0. -1.
         24    1    1    2    0    0  0.12714607021E+02  0.31561569894E+01 -0.62966238438E+03  0.63491224340E+03  0.80419002446E+02 0.  0.
        -24    1    1    2    0    0 -0.12714607021E+02 -0.31561569894E+01 -0.46026144670E+03  0.46741784073E+03  0.80419002446E+02 0.  0.
<mgrwt>
<rscale>  0 0.81479068E+02</rscale>
<asrwt>0</asrwt>
<pdfrwt beam="1">  1        2 0.16863496E+00 0.81479068E+02</pdfrwt>
<pdfrwt beam="2">  1       -2 0.95432692E-03 0.81479068E+02</pdfrwt>
<totfact> 0.46880732E+04</totfact>
</mgrwt>
</event>
<event>
 4    1  0.5074571E-001  0.8475227E+02  0.7546771E-02  0.1316082E+00
         -1   -1    0    0    0  501 -0.00000000000E+00  0.00000000000E+00  0.43667606158E+02  0.43667606158E+02  0.00000000000E+00 0.  1.
          1   -1    0    0  501    0  0.00000000000E+00 -0.00000000000E+00 -0.34368728965E+03  0.34368728965E+03  0.00000000000E+00 0. -1.
         24    1    1    2    0    0 -0.82112284171E+01 -0.25461885489E+02 -0.10160225223E+02  0.85359112084E+02  0.80419002446E+02 0.  1.
        -24    1    1    2    0    0  0.82112284171E+01  0.25461885489E+02 -0.28985945827E+03  0.30199578373E+03  0.80419002446E+02 0. -1.
<mgrwt>
<rscale>  0 0.84752273E+02</rscale>
<asrwt>0</asrwt>
<pdfrwt beam="1">  1        1 0.52874967E-01 0.84752273E+02</pdfrwt>
<pdfrwt beam="2">  1       -1 0.67180934E-02 0.84752273E+02</pdfrwt>
<totfact> 0.76159477E+03</totfact>
</mgrwt>
</event>
<event>
 4    1  0.5074571E-001  0.9011025E+02  0.7546771E-02  0.1302585E+00
         -2   -1    0    0    0  501 -0.00000000000E+00  0.00000000000E+00  0.34050559946E+01  0.34050559946E+01  0.00000000000E+00 0.  1.
          2   -1    0    0  501    0  0.00000000000E+00 -0.00000000000E+00 -0.23918629219E+04  0.23918629219E+04  0.00000000000E+00 0. -1.
         24    1    1    2    0    0 -0.24745601382E+02  0.32253638448E+02 -0.12600083086E+04  0.12632263438E+04  0.80419002446E+02 0.  1.
        -24    1    1    2    0    0  0.24745601382E+02 -0.32253638448E+02 -0.11284495573E+04  0.11320416341E+04  0.80419002446E+02 0. -1.
<mgrwt>
<rscale>  0 0.90110254E+02</rscale>
<asrwt>0</asrwt>
<pdfrwt beam="1">  1        2 0.36797739E+00 0.90110254E+02</pdfrwt>
<pdfrwt beam="2">  1       -2 0.52385693E-03 0.90110254E+02</pdfrwt>
<totfact> 0.23804637E+04</totfact>
</mgrwt>
</event>
<event>
 4    1  0.5074571E-001  0.8594574E+02  0.7546771E-02  0.1312978E+00
         -1   -1    0    0    0  501 -0.00000000000E+00  0.00000000000E+00  0.48603928191E+03  0.48603928191E+03  0.00000000000E+00 0.  1.
          1   -1    0    0  501    0  0.00000000000E+00 -0.00000000000E+00 -0.32703173873E+02  0.32703173873E+02  0.00000000000E+00 0. -1.
         24    1    1    2    0    0  0.29431456666E+02  0.72968519160E+01  0.41643213014E+03  0.42520864250E+03  0.80419002446E+02 0.  1.
        -24    1    1    2    0    0 -0.29431456666E+02 -0.72968519160E+01  0.36903977906E+02  0.93533813292E+02  0.80419002446E+02 0. -1.
<mgrwt>
<rscale>  0 0.85945742E+02</rscale>
<asrwt>0</asrwt>
<pdfrwt beam="1">  1        1 0.50312579E-02 0.85945742E+02</pdfrwt>
<pdfrwt beam="2">  1       -1 0.74775269E-01 0.85945742E+02</pdfrwt>
<totfact> 0.28999964E+03</totfact>
</mgrwt>
</event>
<event>
 4    1  0.5074571E-001  0.8999074E+02  0.7546771E-02  0.1302874E+00
          2   -1    0    0  501    0  0.00000000000E+00  0.00000000000E+00  0.14639618110E+04  0.14639618110E+04  0.00000000000E+00 0. -1.
         -2   -1    0    0    0  501 -0.00000000000E+00 -0.00000000000E+00 -0.24412906259E+02  0.24412906259E+02  0.00000000000E+00 0.  1.
         24    1    1    2    0    0  0.32604213248E+02  0.23834486063E+02  0.13742393345E+04  0.13771826610E+04  0.80419002446E+02 0. -1.
        -24    1    1    2    0    0 -0.32604213248E+02 -0.23834486063E+02  0.65309570264E+02  0.11119205624E+03  0.80419002446E+02 0.  1.
<mgrwt>
<rscale>  0 0.89990741E+02</rscale>
<asrwt>0</asrwt>
<pdfrwt beam="1">  1        2 0.22522483E+00 0.89990741E+02</pdfrwt>
<pdfrwt beam="2">  1       -2 0.37558329E-02 0.89990741E+02</pdfrwt>
<totfact> 0.42182033E+03</totfact>
</mgrwt>
</event>
<event>
 4    1  0.5074571E-001  0.8398994E+02  0.7546771E-02  0.1318095E+00
          1   -1    0    0  501    0  0.00000000000E+00  0.00000000000E+00  0.31964827905E+03  0.31964827905E+03  0.00000000000E+00 0. -1.
         -1   -1    0    0    0  501 -0.00000000000E+00 -0.00000000000E+00 -0.55069391863E+02  0.55069391863E+02  0.00000000000E+00 0.  1.
         24    1    1    2    0    0  0.22774310570E+01  0.24122753895E+02 -0.12747537205E+02  0.84951807555E+02  0.80419002446E+02 0.  1.
        -24    1    1    2    0    0 -0.22774310570E+01 -0.24122753895E+02  0.27732642440E+03  0.28976586336E+03  0.80419002446E+02 0. -1.
<mgrwt>
<rscale>  0 0.83989939E+02</rscale>
<asrwt>0</asrwt>
<pdfrwt beam="1">  1        1 0.49176657E-01 0.83989939E+02</pdfrwt>
<pdfrwt beam="2">  1       -1 0.84722144E-02 0.83989939E+02</pdfrwt>
<totfact> 0.58925294E+03</totfact>
</mgrwt>
</event>
<event>
 4    1  0.5074571E-001  0.8421786E+02  0.7546771E-02  0.1317491E+00
          1   -1    0    0  501    0  0.00000000000E+00  0.00000000000E+00  0.15848574846E+03  0.15848574846E+03  0.00000000000E+00 0. -1.
         -1   -1    0    0    0  501 -0.00000000000E+00 -0.00000000000E+00 -0.44446716409E+03  0.44446716409E+03  0.00000000000E+00 0.  1.
         24    1    1    2    0    0  0.23717387613E+02  0.79320728950E+01 -0.42888701824E+03  0.43707747897E+03  0.80419002446E+02 0.  1.
        -24    1    1    2    0    0 -0.23717387613E+02 -0.79320728950E+01  0.14290560261E+03  0.16587543359E+03  0.80419002446E+02 0. -1.
<mgrwt>
<rscale>  0 0.84217862E+02</rscale>
<asrwt>0</asrwt>
<pdfrwt beam="1">  1        1 0.24382423E-01 0.84217862E+02</pdfrwt>
<pdfrwt beam="2">  1       -1 0.68379563E-01 0.84217862E+02</pdfrwt>
<totfact> 0.44587174E+02</totfact>
</mgrwt>
</event>
<event>
 4    1  0.5074571E-001  0.8454917E+02  0.7546771E-02  0.1316616E+00
         -1   -1    0    0    0  501 -0.00000000000E+00  0.00000000000E+00  0.16399114068E+02  0.16399114068E+02  0.00000000000E+00 0.  1.
          1   -1    0    0  501    0  0.00000000000E+00 -0.00000000000E+00 -0.94726532561E+03  0.94726532561E+03  0.00000000000E+00 0. -1.
         24    1    1    2    0    0 -0.17581144672E+02  0.19293785503E+02 -0.11141884007E+03  0.13986679622E+03  0.80419002446E+02 0.  1.
        -24    1    1    2    0    0  0.17581144672E+02 -0.19293785503E+02 -0.81944737147E+03  0.82379764346E+03  0.80419002446E+02 0. -1.
<mgrwt>
<rscale>  0 0.84549174E+02</rscale>
<asrwt>0</asrwt>
<pdfrwt beam="1">  1        1 0.14573314E+00 0.84549174E+02</pdfrwt>
<pdfrwt beam="2">  1       -1 0.25229404E-02 0.84549174E+02</pdfrwt>
<totfact> 0.80323964E+03</totfact>
</mgrwt>
</event>
<event>
 4    1  0.5074571E-001  0.8336257E+02  0.7546771E-02  0.1319771E+00
         -1   -1    0    0    0  501 -0.00000000000E+00  0.00000000000E+00  0.19038425990E+03  0.19038425990E+03  0.00000000000E+00 0.  1.
          1   -1    0    0  501    0  0.00000000000E+00 -0.00000000000E+00 -0.10833070368E+04  0.10833070368E+04  0.00000000000E+00 0. -1.
         24    1    1    2    0    0  0.21423322354E+02 -0.48106816418E+01  0.17956321551E+03  0.19797036575E+03  0.80419002446E+02 0.  1.
        -24    1    1    2    0    0 -0.21423322354E+02  0.48106816418E+01 -0.10724859924E+04  0.10757209309E+04  0.80419002446E+02 0. -1.
<mgrwt>
<rscale>  0 0.83362566E+02</rscale>
<asrwt>0</asrwt>
<pdfrwt beam="1">  1        1 0.16666262E+00 0.83362566E+02</pdfrwt>
<pdfrwt beam="2">  1       -1 0.29289887E-01 0.83362566E+02</pdfrwt>
<totfact> 0.15873084E+02</totfact>
</mgrwt>
</event>
<event>
 4    1  0.5074571E-001  0.8719468E+02  0.7546771E-02  0.1309791E+00
         -1   -1    0    0    0  501 -0.00000000000E+00  0.00000000000E+00  0.46342176615E+01  0.46342176615E+01  0.00000000000E+00 0.  1.
          1   -1    0    0  501    0  0.00000000000E+00 -0.00000000000E+00 -0.22124060064E+04  0.22124060064E+04  0.00000000000E+00 0. -1.
         24    1    1    2    0    0 -0.28494680684E+02 -0.17993035760E+02 -0.54033347208E+03  0.54732364572E+03  0.80419002446E+02 0. -1.
        -24    1    1    2    0    0  0.28494680684E+02  0.17993035760E+02 -0.16674383167E+04  0.16697165784E+04  0.80419002446E+02 0. -1.
<mgrwt>
<rscale>  0 0.87194679E+02</rscale>
<asrwt>0</asrwt>
<pdfrwt beam="1">  1        1 0.34036958E+00 0.87194679E+02</pdfrwt>
<pdfrwt beam="2">  1       -1 0.71295777E-03 0.87194679E+02</pdfrwt>
<totfact> 0.72920958E+03</totfact>
</mgrwt>
</event>
<event>
 4    1  0.5074571E-001  0.9696000E+02  0.7546771E-02  0.1286822E+00
         -1   -1    0    0    0  501 -0.00000000000E+00  0.00000000000E+00  0.12162494352E+03  0.12162494352E+03  0.00000000000E+00 0.  1.
          1   -1    0    0  501    0  0.00000000000E+00 -0.00000000000E+00 -0.90539891562E+02  0.90539891562E+02  0.00000000000E+00 0. -1.
         24    1    1    2    0    0 -0.52292871862E+02  0.14123763076E+02  0.56113471381E+02  0.11202661628E+03  0.80419002446E+02 0.  1.
        -24    1    1    2    0    0  0.52292871862E+02 -0.14123763076E+02 -0.25028419423E+02  0.10013821880E+03  0.80419002446E+02 0. -1.
<mgrwt>
<rscale>  0 0.96959997E+02</rscale>
<asrwt>0</asrwt>
<pdfrwt beam="1">  1        1 0.13929214E-01 0.96959997E+02</pdfrwt>
<pdfrwt beam="2">  1       -1 0.18711530E-01 0.96959997E+02</pdfrwt>
<totfact> 0.84725816E+03</totfact>
</mgrwt>
</event>
<event>
 4    1  0.5074571E-001  0.9505146E+02  0.7546771E-02  0.1291060E+00
         -1   -1    0    0    0  501 -0.00000000000E+00  0.00000000000E+00  0.12049435355E+03  0.12049435355E+03  0.00000000000E+00 0.  1.
          1   -1    0    0  501    0  0.00000000000E+00 -0.00000000000E+00 -0.24711810728E+03  0.24711810728E+03  0.00000000000E+00 0. -1.
         24    1    1    2    0    0 -0.41683546166E+02 -0.28810524034E+02  0.90095154531E+02  0.13096532801E+03  0.80419002446E+02 0.  1.
        -24    1    1    2    0    0  0.41683546166E+02  0.28810524034E+02 -0.21671890827E+03  0.23664713282E+03  0.80419002446E+02 0. -1.
<mgrwt>
<rscale>  0 0.95051461E+02</rscale>
<asrwt>0</asrwt>
<pdfrwt beam="1">  1        1 0.38018170E-01 0.95051461E+02</pdfrwt>
<pdfrwt beam="2">  1       -1 0.18537593E-01 0.95051461E+02</pdfrwt>
<totfact> 0.24486493E+03</totfact>
</mgrwt>
</event>
<event>
 4    1  0.5074571E-001  0.1006879E+03  0.7546771E-02  0.1278856E+00
          2   -1    0    0  501    0  0.00000000000E+00  0.00000000000E+00  0.14092298599E+04  0.14092298599E+04  0.00000000000E+00 0. -1.
         -2   -1    0    0    0  501 -0.00000000000E+00 -0.00000000000E+00 -0.13088093013E+02  0.13088093013E+02  0.00000000000E+00 0.  1.
         24    1    1    2    0    0  0.47607839541E+02 -0.37474499887E+02  0.11753093164E+04  0.11796143648E+04  0.80419002446E+02 0. -1.
        -24    1    1    2    0    0 -0.47607839541E+02  0.37474499887E+02  0.22083245044E+03  0.24270358805E+03  0.80419002446E+02 0.  1.
<mgrwt>
<rscale>  0 0.10068794E+03</rscale>
<asrwt>0</asrwt>
<pdfrwt beam="1">  1        2 0.21680447E+00 0.10068794E+03</pdfrwt>
<pdfrwt beam="2">  1       -2 0.20135539E-02 0.10068794E+03</pdfrwt>
<totfact> 0.11185069E+04</totfact>
</mgrwt>
</event>
<event>
 4    1  0.5074571E-001  0.8424608E+02  0.7546771E-02  0.1317416E+00
         -2   -1    0    0    0  501 -0.00000000000E+00  0.00000000000E+00  0.15233499243E+02  0.15233499243E+02  0.00000000000E+00 0.  1.
          2   -1    0    0  501    0  0.00000000000E+00 -0.00000000000E+00 -0.48177654144E+03  0.48177654144E+03  0.00000000000E+00 0. -1.
         24    1    1    2    0    0  0.16117008614E+02 -0.19246413445E+02 -0.18817006523E+03  0.20616830940E+03  0.80419002446E+02 0.  0.
        -24    1    1    2    0    0 -0.16117008614E+02  0.19246413445E+02 -0.27837297696E+03  0.29084173128E+03  0.80419002446E+02 0.  1.
<mgrwt>
<rscale>  0 0.84246069E+02</rscale>
<asrwt>0</asrwt>
<pdfrwt beam="1">  1        2 0.74119454E-01 0.84246079E+02</pdfrwt>
<pdfrwt beam="2">  1       -2 0.23436157E-02 0.84246079E+02</pdfrwt>
<totfact> 0.35051776E+04</totfact>
</mgrwt>
</event>
<event>
 4    1  0.5074571E-001  0.8452683E+02  0.7546771E-02  0.1316675E+00
          2   -1    0    0  501    0  0.00000000000E+00  0.00000000000E+00  0.15824397279E+03  0.15824397279E+03  0.00000000000E+00 0. -1.
         -2   -1    0    0    0  501 -0.00000000000E+00 -0.00000000000E+00 -0.45835022024E+02  0.45835022024E+02  0.00000000000E+00 0.  1.
         24    1    1    2    0    0 -0.13586363051E+02 -0.22203136065E+02  0.68674962013E+02  0.10890837835E+03  0.80419002446E+02 0.  0.
        -24    1    1    2    0    0  0.13586363051E+02  0.22203136065E+02  0.43733988750E+02  0.95170616466E+02  0.80419002446E+02 0. -1.
<mgrwt>
<rscale>  0 0.84526827E+02</rscale>
<asrwt>0</asrwt>
<pdfrwt beam="1">  1        2 0.24345226E-01 0.84526827E+02</pdfrwt>
<pdfrwt beam="2">  1       -2 0.70515419E-02 0.84526827E+02</pdfrwt>
<totfact> 0.22480129E+04</totfact>
</mgrwt>
</event>
<event>
 4    1  0.5074571E-001  0.9608632E+02  0.7546771E-02  0.1288748E+00
          3   -1    0    0  501    0  0.00000000000E+00  0.00000000000E+00  0.46133887636E+03  0.46133887636E+03  0.00000000000E+00 0. -1.
         -3   -1    0    0    0  501 -0.00000000000E+00 -0.00000000000E+00 -0.34117456825E+02  0.34117456825E+02  0.00000000000E+00 0.  1.
         24    1    1    2    0    0  0.33029927798E+02 -0.40919293953E+02  0.54326865851E+02  0.11038110824E+03  0.80419002446E+02 0.  1.
        -24    1    1    2    0    0 -0.33029927798E+02  0.40919293953E+02  0.37289455368E+03  0.38507522495E+03  0.80419002446E+02 0. -1.
<mgrwt>
<rscale>  0 0.96086319E+02</rscale>
<asrwt>0</asrwt>
<pdfrwt beam="1">  1        3 0.70975207E-01 0.96086319E+02</pdfrwt>
<pdfrwt beam="2">  1       -3 0.52488398E-02 0.96086319E+02</pdfrwt>
<totfact> 0.88849081E+02</totfact>
</mgrwt>
</event>
<event>
 4    1  0.5074571E-001  0.8942666E+02  0.7546771E-02  0.1304246E+00
          3   -1    0    0  501    0  0.00000000000E+00  0.00000000000E+00  0.68784705292E+02  0.68784705292E+02  0.00000000000E+00 0. -1.
         -3   -1    0    0    0  501 -0.00000000000E+00 -0.00000000000E+00 -0.11678131017E+03  0.11678131017E+03  0.00000000000E+00 0.  1.
         24    1    1    2    0    0  0.36768123555E+02 -0.13342315845E+02 -0.30178511192E+02  0.94381517227E+02  0.80419002446E+02 0.  0.
        -24    1    1    2    0    0 -0.36768123555E+02  0.13342315845E+02 -0.17818093688E+02  0.91184498238E+02  0.80419002446E+02 0. -1.
<mgrwt>
<rscale>  0 0.89426664E+02</rscale>
<asrwt>0</asrwt>
<pdfrwt beam="1">  1        3 0.10582262E-01 0.89426664E+02</pdfrwt>
<pdfrwt beam="2">  1       -3 0.17966355E-01 0.89426664E+02</pdfrwt>
<totfact> 0.38094059E+03</totfact>
</mgrwt>
</event>
<event>
 4    1  0.5074571E-001  0.9161428E+02  0.7546771E-02  0.1298989E+00
          1   -1    0    0  501    0  0.00000000000E+00  0.00000000000E+00  0.31048740875E+04  0.31048740875E+04  0.00000000000E+00 0. -1.
         -1   -1    0    0    0  501 -0.00000000000E+00 -0.00000000000E+00 -0.71369438267E+01  0.71369438267E+01  0.00000000000E+00 0.  1.
         24    1    1    2    0    0  0.52158773811E+01 -0.43574714355E+02  0.32244918582E+03  0.33521135795E+03  0.80419002446E+02 0.  1.
        -24    1    1    2    0    0 -0.52158773811E+01  0.43574714355E+02  0.27752879578E+04  0.27767996734E+04  0.80419002446E+02 0. -1.
<mgrwt>
<rscale>  0 0.91614284E+02</rscale>
<asrwt>0</asrwt>
<pdfrwt beam="1">  1        1 0.47767186E+00 0.91614284E+02</pdfrwt>
<pdfrwt beam="2">  1       -1 0.10979938E-02 0.91614284E+02</pdfrwt>
<totfact> 0.10334802E+03</totfact>
</mgrwt>
</event>
<event>
 4    1  0.5074571E-001  0.8241663E+02  0.7546771E-02  0.1322330E+00
         -2   -1    0    0    0  501 -0.00000000000E+00  0.00000000000E+00  0.92704525727E+01  0.92704525727E+01  0.00000000000E+00 0.  1.
          2   -1    0    0  501    0  0.00000000000E+00 -0.00000000000E+00 -0.11446918273E+04  0.11446918273E+04  0.00000000000E+00 0. -1.
         24    1    1    2    0    0 -0.39276078559E+01  0.17602795088E+02 -0.91385672215E+03  0.91756558843E+03  0.80419002446E+02 0. -1.
        -24    1    1    2    0    0  0.39276078559E+01 -0.17602795088E+02 -0.22156465256E+03  0.23639669143E+03  0.80419002446E+02 0.  1.
<mgrwt>
<rscale>  0 0.82416627E+02</rscale>
<asrwt>0</asrwt>
<pdfrwt beam="1">  1        2 0.17610633E+00 0.82416627E+02</pdfrwt>
<pdfrwt beam="2">  1       -2 0.14262244E-02 0.82416627E+02</pdfrwt>
<totfact> 0.24980373E+04</totfact>
</mgrwt>
</event>
<event>
 4    1  0.5074571E-001  0.8410469E+02  0.7546771E-02  0.1317791E+00
         -2   -1    0    0    0  501 -0.00000000000E+00  0.00000000000E+00  0.24728662492E+02  0.24728662492E+02  0.00000000000E+00 0.  1.
          2   -1    0    0  501    0  0.00000000000E+00 -0.00000000000E+00 -0.36002253146E+03  0.36002253146E+03  0.00000000000E+00 0. -1.
         24    1    1    2    0    0  0.15337296133E+02 -0.19265280478E+02 -0.25484853342E+03  0.26836798360E+03  0.80419002446E+02 0. -1.
        -24    1    1    2    0    0 -0.15337296133E+02  0.19265280478E+02 -0.80445335554E+02  0.11638321035E+03  0.80419002446E+02 0.  1.
<mgrwt>
<rscale>  0 0.84104695E+02</rscale>
<asrwt>0</asrwt>
<pdfrwt beam="1">  1        2 0.55388077E-01 0.84104695E+02</pdfrwt>
<pdfrwt beam="2">  1       -2 0.38044099E-02 0.84104695E+02</pdfrwt>
<totfact> 0.23592915E+04</totfact>
</mgrwt>
</event>
<event>
 4    1  0.5074571E-001  0.1210925E+03  0.7546771E-02  0.1241306E+00
         -2   -1    0    0    0  501 -0.00000000000E+00  0.00000000000E+00  0.72790940937E+01  0.72790940937E+01  0.00000000000E+00 0.  1.
          2   -1    0    0  501    0  0.00000000000E+00 -0.00000000000E+00 -0.27484955362E+04  0.27484955362E+04  0.00000000000E+00 0. -1.
         24    1    1    2    0    0  0.87492951086E+02  0.23262653470E+02 -0.65853085534E+03  0.66957170708E+03  0.80419002446E+02 0.  1.
        -24    1    1    2    0    0 -0.87492951086E+02 -0.23262653470E+02 -0.20826855867E+04  0.20862029232E+04  0.80419002446E+02 0. -1.
<mgrwt>
<rscale>  0 0.12109247E+03</rscale>
<asrwt>0</asrwt>
<pdfrwt beam="1">  1        2 0.42284571E+00 0.12109249E+03</pdfrwt>
<pdfrwt beam="2">  1       -2 0.11198600E-02 0.12109249E+03</pdfrwt>
<totfact> 0.52874011E+03</totfact>
</mgrwt>
</event>
<event>
 4    1  0.5074571E-001  0.1154254E+03  0.7546771E-02  0.1250840E+00
          1   -1    0    0  501    0  0.00000000000E+00  0.00000000000E+00  0.93298237135E+03  0.93298237135E+03  0.00000000000E+00 0. -1.
         -1   -1    0    0    0  501 -0.00000000000E+00 -0.00000000000E+00 -0.18042651402E+02  0.18042651402E+02  0.00000000000E+00 0.  1.
         24    1    1    2    0    0 -0.19884904001E+02 -0.80376564541E+02  0.67461841981E+03  0.68442167546E+03  0.80419002446E+02 0. -1.
        -24    1    1    2    0    0  0.19884904001E+02  0.80376564541E+02  0.24032130014E+03  0.26660334730E+03  0.80419002446E+02 0.  1.
<mgrwt>
<rscale>  0 0.11542539E+03</rscale>
<asrwt>0</asrwt>
<pdfrwt beam="1">  1        1 0.14353571E+00 0.11542541E+03</pdfrwt>
<pdfrwt beam="2">  1       -1 0.27757933E-02 0.11542541E+03</pdfrwt>
<totfact> 0.73095146E+03</totfact>
</mgrwt>
</event>
<event>
 4    1  0.5074571E-001  0.8551920E+02  0.7546771E-02  0.1314080E+00
          1   -1    0    0  501    0  0.00000000000E+00  0.00000000000E+00  0.29379971085E+03  0.29379971085E+03  0.00000000000E+00 0. -1.
         -1   -1    0    0    0  501 -0.00000000000E+00 -0.00000000000E+00 -0.28381240165E+02  0.28381240165E+02  0.00000000000E+00 0.  1.
         24    1    1    2    0    0 -0.27938969627E+02  0.81074909472E+01  0.76233459965E+02  0.11456471449E+03  0.80419002446E+02 0.  0.
        -24    1    1    2    0    0  0.27938969627E+02 -0.81074909472E+01  0.18918501072E+03  0.20761623652E+03  0.80419002446E+02 0.  1.
<mgrwt>
<rscale>  0 0.85519199E+02</rscale>
<asrwt>0</asrwt>
<pdfrwt beam="1">  1        1 0.45199953E-01 0.85519199E+02</pdfrwt>
<pdfrwt beam="2">  1       -1 0.43663448E-02 0.85519199E+02</pdfrwt>
<totfact> 0.17355352E+04</totfact>
</mgrwt>
</event>
<event>
 4    1  0.5074571E-001  0.1338537E+03  0.7546771E-02  0.1221847E+00
          3   -1    0    0  501    0  0.00000000000E+00  0.00000000000E+00  0.29086741608E+03  0.29086741608E+03  0.00000000000E+00 0. -1.
         -3   -1    0    0    0  501 -0.00000000000E+00 -0.00000000000E+00 -0.73597670964E+02  0.73597670964E+02  0.00000000000E+00 0.  1.
         24    1    1    2    0    0  0.25765847508E+02  0.10385423412E+03  0.18221862791E+03  0.22609826438E+03  0.80419002446E+02 0.  0.
        -24    1    1    2    0    0 -0.25765847508E+02 -0.10385423412E+03  0.35051117203E+02  0.13836682266E+03  0.80419002446E+02 0. -1.
<mgrwt>
<rscale>  0 0.13385366E+03</rscale>
<asrwt>0</asrwt>
<pdfrwt beam="1">  1        3 0.44748832E-01 0.13385367E+03</pdfrwt>
<pdfrwt beam="2">  1       -3 0.11322719E-01 0.13385367E+03</pdfrwt>
<totfact> 0.68985853E+02</totfact>
</mgrwt>
</event>
<event>
 4    1  0.5074571E-001  0.9213411E+02  0.7546771E-02  0.1297764E+00
          1   -1    0    0  501    0  0.00000000000E+00  0.00000000000E+00  0.29110553677E+04  0.29110553677E+04  0.00000000000E+00 0. -1.
         -1   -1    0    0    0  501 -0.00000000000E+00 -0.00000000000E+00 -0.97063788895E+01  0.97063788895E+01  0.00000000000E+00 0.  1.
         24    1    1    2    0    0 -0.44749594471E+02  0.43534610754E+01  0.22920144152E+03  0.24702630543E+03  0.80419002446E+02 0.  1.
        -24    1    1    2    0    0  0.44749594471E+02 -0.43534610754E+01  0.26721475473E+04  0.26737354412E+04  0.80419002446E+02 0. -1.
<mgrwt>
<rscale>  0 0.92134113E+02</rscale>
<asrwt>0</asrwt>
<pdfrwt beam="1">  1        1 0.44785398E+00 0.92134113E+02</pdfrwt>
<pdfrwt beam="2">  1       -1 0.14932914E-02 0.92134113E+02</pdfrwt>
<totfact> 0.90575065E+02</totfact>
</mgrwt>
</event>
<event>
 4    1  0.5074571E-001  0.8090998E+02  0.7546771E-02  0.1326489E+00
         -1   -1    0    0    0  501 -0.00000000000E+00  0.00000000000E+00  0.46678656583E+02  0.46678656583E+02  0.00000000000E+00 0.  1.
          1   -1    0    0  501    0  0.00000000000E+00 -0.00000000000E+00 -0.16032896319E+03  0.16032896319E+03  0.00000000000E+00 0. -1.
         24    1    1    2    0    0 -0.34510522223E+01 -0.82035969460E+01 -0.20191478197E+02  0.83391369520E+02  0.80419002446E+02 0.  1.
        -24    1    1    2    0    0  0.34510522223E+01  0.82035969460E+01 -0.93458828408E+02  0.12361625025E+03  0.80419002446E+02 0. -1.
<mgrwt>
<rscale>  0 0.80909979E+02</rscale>
<asrwt>0</asrwt>
<pdfrwt beam="1">  1        1 0.24665995E-01 0.80909979E+02</pdfrwt>
<pdfrwt beam="2">  1       -1 0.71813317E-02 0.80909979E+02</pdfrwt>
<totfact> 0.17437289E+04</totfact>
</mgrwt>
</event>
<event>
 4    1  0.5074571E-001  0.9207526E+02  0.7546771E-02  0.1297903E+00
         -2   -1    0    0    0  501 -0.00000000000E+00  0.00000000000E+00  0.33543836820E+01  0.33543836820E+01  0.00000000000E+00 0.  1.
          2   -1    0    0  501    0  0.00000000000E+00 -0.00000000000E+00 -0.37144304724E+04  0.37144304724E+04  0.00000000000E+00 0. -1.
         24    1    1    2    0    0 -0.74471061030E+01 -0.44217405211E+02 -0.29063860307E+04  0.29078441523E+04  0.80419002446E+02 0. -1.
        -24    1    1    2    0    0  0.74471061030E+01  0.44217405211E+02 -0.80469005800E+03  0.80994070383E+03  0.80419002446E+02 0.  1.
<mgrwt>
<rscale>  0 0.92075264E+02</rscale>
<asrwt>0</asrwt>
<pdfrwt beam="1">  1        2 0.57145320E+00 0.92075264E+02</pdfrwt>
<pdfrwt beam="2">  1       -2 0.51605689E-03 0.92075264E+02</pdfrwt>
<totfact> 0.41244513E+03</totfact>
</mgrwt>
</event>
<event>
 4    1  0.5074571E-001  0.8517300E+02  0.7546771E-02  0.1314981E+00
         -4   -1    0    0    0  501 -0.00000000000E+00  0.00000000000E+00  0.19605021311E+02  0.19605021311E+02  0.00000000000E+00 0.  1.
          4   -1    0    0  501    0  0.00000000000E+00 -0.00000000000E+00 -0.46833687158E+03  0.46833687158E+03  0.00000000000E+00 0. -1.
         24    1    1    2    0    0 -0.21861007815E+02 -0.17587495668E+02 -0.33614270559E+03  0.34676556654E+03  0.80419002446E+02 0. -1.
        -24    1    1    2    0    0  0.21861007815E+02  0.17587495668E+02 -0.11258914469E+03  0.14117632635E+03  0.80419002446E+02 0.  1.
<mgrwt>
<rscale>  0 0.85172998E+02</rscale>
<asrwt>0</asrwt>
<pdfrwt beam="1">  1        4 0.72051820E-01 0.85172998E+02</pdfrwt>
<pdfrwt beam="2">  1       -4 0.30161574E-02 0.85172998E+02</pdfrwt>
<totfact> 0.14129146E+03</totfact>
</mgrwt>
</event>
<event>
 4    1  0.5074571E-001  0.1193061E+03  0.7546771E-02  0.1244246E+00
         -1   -1    0    0    0  501 -0.00000000000E+00  0.00000000000E+00  0.22999927414E+03  0.22999927414E+03  0.00000000000E+00 0.  1.
          1   -1    0    0  501    0  0.00000000000E+00 -0.00000000000E+00 -0.12654704610E+03  0.12654704610E+03  0.00000000000E+00 0. -1.
         24    1    1    2    0    0 -0.33370248219E+02 -0.81566810604E+02  0.17915808943E+03  0.21524765973E+03  0.80419002446E+02 0.  1.
        -24    1    1    2    0    0  0.33370248219E+02  0.81566810604E+02 -0.75705861383E+02  0.14129866050E+03  0.80419002446E+02 0. -1.
<mgrwt>
<rscale>  0 0.11930605E+03</rscale>
<asrwt>0</asrwt>
<pdfrwt beam="1">  1        1 0.19468776E-01 0.11930605E+03</pdfrwt>
<pdfrwt beam="2">  1       -1 0.35384504E-01 0.11930605E+03</pdfrwt>
<totfact> 0.19672026E+03</totfact>
</mgrwt>
</event>
<event>
 4    1  0.5074571E-001  0.9931826E+02  0.7546771E-02  0.1281736E+00
          3   -1    0    0  501    0  0.00000000000E+00  0.00000000000E+00  0.15921175532E+02  0.15921175532E+02  0.00000000000E+00 0. -1.
         -3   -1    0    0    0  501 -0.00000000000E+00 -0.00000000000E+00 -0.75844689173E+03  0.75844689173E+03  0.00000000000E+00 0.  1.
         24    1    1    2    0    0  0.56511069553E+02  0.14261828662E+02 -0.53694898691E+03  0.54605707690E+03  0.80419002446E+02 0.  1.
        -24    1    1    2    0    0 -0.56511069553E+02 -0.14261828662E+02 -0.20557672929E+03  0.22831099036E+03  0.80419002446E+02 0. -1.
<mgrwt>
<rscale>  0 0.99318260E+02</rscale>
<asrwt>0</asrwt>
<pdfrwt beam="1">  1        3 0.24494109E-02 0.99318260E+02</pdfrwt>
<pdfrwt beam="2">  1       -3 0.11668417E+00 0.99318260E+02</pdfrwt>
<totfact> 0.96647838E+02</totfact>
</mgrwt>
</event>
<event>
 4    1  0.5074571E-001  0.8901449E+02  0.7546771E-02  0.1305256E+00
          1   -1    0    0  501    0  0.00000000000E+00  0.00000000000E+00  0.65856165246E+03  0.65856165246E+03  0.00000000000E+00 0. -1.
         -1   -1    0    0    0  501 -0.00000000000E+00 -0.00000000000E+00 -0.12034072289E+02  0.12034072289E+02  0.00000000000E+00 0.  1.
         24    1    1    2    0    0  0.59956342897E+00  0.38157621343E+02  0.31850106773E+03  0.33070607742E+03  0.80419002446E+02 0.  0.
        -24    1    1    2    0    0 -0.59956342897E+00 -0.38157621343E+02  0.32802651244E+03  0.33988964733E+03  0.80419002446E+02 0. -1.
<mgrwt>
<rscale>  0 0.89014490E+02</rscale>
<asrwt>0</asrwt>
<pdfrwt beam="1">  1        1 0.10131715E+00 0.89014490E+02</pdfrwt>
<pdfrwt beam="2">  1       -1 0.18513963E-02 0.89014490E+02</pdfrwt>
<totfact> 0.21469719E+04</totfact>
</mgrwt>
</event>
<event>
 4    1  0.5074571E-001  0.8612340E+02  0.7546771E-02  0.1312521E+00
          2   -1    0    0  501    0  0.00000000000E+00  0.00000000000E+00  0.34893907153E+03  0.34893907153E+03  0.00000000000E+00 0. -1.
         -2   -1    0    0    0  501 -0.00000000000E+00 -0.00000000000E+00 -0.23690217346E+02  0.23690217346E+02  0.00000000000E+00 0.  1.
         24    1    1    2    0    0  0.30696664331E+02  0.27820369747E+01  0.22234075038E+03  0.23843793777E+03  0.80419002446E+02 0. -1.
        -24    1    1    2    0    0 -0.30696664331E+02 -0.27820369747E+01  0.10290810380E+03  0.13419135111E+03  0.80419002446E+02 0.  1.
<mgrwt>
<rscale>  0 0.86123405E+02</rscale>
<asrwt>0</asrwt>
<pdfrwt beam="1">  1        2 0.53682930E-01 0.86123405E+02</pdfrwt>
<pdfrwt beam="2">  1       -2 0.36446491E-02 0.86123405E+02</pdfrwt>
<totfact> 0.26025209E+04</totfact>
</mgrwt>
</event>
<event>
 4    1  0.5074571E-001  0.9977292E+02  0.7546771E-02  0.1280774E+00
          1   -1    0    0  501    0  0.00000000000E+00  0.00000000000E+00  0.90711032159E+01  0.90711032159E+01  0.00000000000E+00 0. -1.
         -1   -1    0    0    0  501 -0.00000000000E+00 -0.00000000000E+00 -0.19760933790E+04  0.19760933790E+04  0.00000000000E+00 0.  1.
         24    1    1    2    0    0  0.46726057877E+02  0.36112252047E+02 -0.16453942017E+04  0.16484164262E+04  0.80419002446E+02 0.  1.
        -24    1    1    2    0    0 -0.46726057877E+02 -0.36112252047E+02 -0.32162807400E+03  0.33674805593E+03  0.80419002446E+02 0. -1.
<mgrwt>
<rscale>  0 0.99772918E+02</rscale>
<asrwt>0</asrwt>
<pdfrwt beam="1">  1        1 0.13955536E-02 0.99772918E+02</pdfrwt>
<pdfrwt beam="2">  1       -1 0.30401452E+00 0.99772918E+02</pdfrwt>
<totfact> 0.36583864E+02</totfact>
</mgrwt>
</event>
<event>
 4    1  0.5074571E-001  0.1024799E+03  0.7546771E-02  0.1275166E+00
         -2   -1    0    0    0  501 -0.00000000000E+00  0.00000000000E+00  0.53033552975E+02  0.53033552975E+02  0.00000000000E+00 0.  1.
          2   -1    0    0  501    0  0.00000000000E+00 -0.00000000000E+00 -0.21934939781E+03  0.21934939781E+03  0.00000000000E+00 0. -1.
         24    1    1    2    0    0  0.11108798041E+02  0.62542045178E+02 -0.12561884966E+03  0.16211793285E+03  0.80419002446E+02 0. -1.
        -24    1    1    2    0    0 -0.11108798041E+02 -0.62542045178E+02 -0.40696995179E+02  0.11026501793E+03  0.80419002446E+02 0.  1.
<mgrwt>
<rscale>  0 0.10247989E+03</rscale>
<asrwt>0</asrwt>
<pdfrwt beam="1">  1        2 0.33746061E-01 0.10247989E+03</pdfrwt>
<pdfrwt beam="2">  1       -2 0.81590082E-02 0.10247989E+03</pdfrwt>
<totfact> 0.12925004E+04</totfact>
</mgrwt>
</event>
<event>
 4    1  0.5074571E-001  0.9605289E+02  0.7546771E-02  0.1288822E+00
         -3   -1    0    0    0  501 -0.00000000000E+00  0.00000000000E+00  0.30309172953E+03  0.30309172953E+03  0.00000000000E+00 0.  1.
          3   -1    0    0  501    0  0.00000000000E+00 -0.00000000000E+00 -0.22659331030E+03  0.22659331030E+03  0.00000000000E+00 0. -1.
         24    1    1    2    0    0  0.40472013869E+02  0.33480714363E+02  0.28466119209E+03  0.30042994588E+03  0.80419002446E+02 0.  1.
        -24    1    1    2    0    0 -0.40472013869E+02 -0.33480714363E+02 -0.20816277287E+03  0.22925509395E+03  0.80419002446E+02 0. -1.
<mgrwt>
<rscale>  0 0.96052892E+02</rscale>
<asrwt>0</asrwt>
<pdfrwt beam="1">  1        3 0.34860509E-01 0.96052892E+02</pdfrwt>
<pdfrwt beam="2">  1       -3 0.46629497E-01 0.96052892E+02</pdfrwt>
<totfact> 0.84159927E+01</totfact>
</mgrwt>
</event>
<event>
 4    1  0.5074571E-001  0.9222795E+02  0.7546771E-02  0.1297544E+00
          2   -1    0    0  501    0  0.00000000000E+00  0.00000000000E+00  0.48804750775E+03  0.48804750775E+03  0.00000000000E+00 0. -1.
         -2   -1    0    0    0  501 -0.00000000000E+00 -0.00000000000E+00 -0.17583644325E+02  0.17583644325E+02  0.00000000000E+00 0.  1.
         24    1    1    2    0    0  0.43099255634E+02 -0.13462276365E+02  0.25897019596E+03  0.27490281386E+03  0.80419002446E+02 0. -1.
        -24    1    1    2    0    0 -0.43099255634E+02  0.13462276365E+02  0.21149366747E+03  0.23072833821E+03  0.80419002446E+02 0.  1.
<mgrwt>
<rscale>  0 0.92227950E+02</rscale>
<asrwt>0</asrwt>
<pdfrwt beam="1">  1        2 0.75084222E-01 0.92227950E+02</pdfrwt>
<pdfrwt beam="2">  1       -2 0.27051764E-02 0.92227950E+02</pdfrwt>
<totfact> 0.28389685E+04</totfact>
</mgrwt>
</event>
<event>
 4    1  0.5074571E-001  0.8321123E+02  0.7546771E-02  0.1320178E+00
         -2   -1    0    0    0  501 -0.00000000000E+00  0.00000000000E+00  0.22952330820E+02  0.22952330820E+02  0.00000000000E+00 0.  1.
          2   -1    0    0  501    0  0.00000000000E+00 -0.00000000000E+00 -0.37580762230E+03  0.37580762230E+03  0.00000000000E+00 0. -1.
         24    1    1    2    0    0  0.20592735646E+02  0.57298969026E+01 -0.26498161241E+03  0.27773974031E+03  0.80419002446E+02 0. -1.
        -24    1    1    2    0    0 -0.20592735646E+02 -0.57298969026E+01 -0.87873679071E+02  0.12102021281E+03  0.80419002446E+02 0. -1.
<mgrwt>
<rscale>  0 0.83211228E+02</rscale>
<asrwt>0</asrwt>
<pdfrwt beam="1">  1        2 0.57816552E-01 0.83211228E+02</pdfrwt>
<pdfrwt beam="2">  1       -2 0.35311282E-02 0.83211228E+02</pdfrwt>
<totfact> 0.25124163E+04</totfact>
</mgrwt>
</event>
<event>
 4    1  0.5074571E-001  0.8423625E+02  0.7546771E-02  0.1317442E+00
         -1   -1    0    0    0  501 -0.00000000000E+00  0.00000000000E+00  0.47183619487E+01  0.47183619487E+01  0.00000000000E+00 0.  1.
          1   -1    0    0  501    0  0.00000000000E+00 -0.00000000000E+00 -0.20109024189E+04  0.20109024189E+04  0.00000000000E+00 0. -1.
         24    1    1    2    0    0 -0.24654857436E+02  0.45461623801E+01 -0.49702690125E+03  0.50411455653E+03  0.80419002446E+02 0.  1.
        -24    1    1    2    0    0  0.24654857436E+02 -0.45461623801E+01 -0.15091571557E+04  0.15115062243E+04  0.80419002446E+02 0. -1.
<mgrwt>
<rscale>  0 0.84236248E+02</rscale>
<asrwt>0</asrwt>
<pdfrwt beam="1">  1        1 0.30936944E+00 0.84236248E+02</pdfrwt>
<pdfrwt beam="2">  1       -1 0.72590221E-03 0.84236248E+02</pdfrwt>
<totfact> 0.94987577E+03</totfact>
</mgrwt>
</event>
<event>
 4    1  0.5074571E-001  0.8764044E+02  0.7546771E-02  0.1308668E+00
         -3   -1    0    0    0  501 -0.00000000000E+00  0.00000000000E+00  0.51343213332E+02  0.51343213332E+02  0.00000000000E+00 0.  1.
          3   -1    0    0  501    0  0.00000000000E+00 -0.00000000000E+00 -0.15133734867E+03  0.15133734867E+03  0.00000000000E+00 0. -1.
         24    1    1    2    0    0  0.13010366258E+02 -0.32316586178E+02 -0.39133074498E+02  0.95980439916E+02  0.80419002446E+02 0.  1.
        -24    1    1    2    0    0 -0.13010366258E+02  0.32316586178E+02 -0.60861060841E+02  0.10670012209E+03  0.80419002446E+02 0. -1.
<mgrwt>
<rscale>  0 0.87640443E+02</rscale>
<asrwt>0</asrwt>
<pdfrwt beam="1">  1        3 0.23282669E-01 0.87640443E+02</pdfrwt>
<pdfrwt beam="2">  1       -3 0.78989560E-02 0.87640443E+02</pdfrwt>
<totfact> 0.38779647E+03</totfact>
</mgrwt>
</event>
<event>
 4    1  0.5074571E-001  0.9039007E+02  0.7546771E-02  0.1301910E+00
          2   -1    0    0  501    0  0.00000000000E+00  0.00000000000E+00  0.25621850628E+03  0.25621850628E+03  0.00000000000E+00 0. -1.
         -2   -1    0    0    0  501 -0.00000000000E+00 -0.00000000000E+00 -0.35960826910E+02  0.35960826910E+02  0.00000000000E+00 0.  1.
         24    1    1    2    0    0 -0.41136890132E+02  0.33023016798E+01  0.15929182534E+03  0.18315089544E+03  0.80419002446E+02 0. -1.
        -24    1    1    2    0    0  0.41136890132E+02 -0.33023016798E+01  0.60965854028E+02  0.10902843775E+03  0.80419002446E+02 0. -1.
<mgrwt>
<rscale>  0 0.90390071E+02</rscale>
<asrwt>0</asrwt>
<pdfrwt beam="1">  1        2 0.39418231E-01 0.90390071E+02</pdfrwt>
<pdfrwt beam="2">  1       -2 0.55324351E-02 0.90390071E+02</pdfrwt>
<totfact> 0.19503630E+04</totfact>
</mgrwt>
</event>
<event>
 4    1  0.5074571E-001  0.8217982E+02  0.7546771E-02  0.1322977E+00
          2   -1    0    0  501    0  0.00000000000E+00  0.00000000000E+00  0.43308199719E+03  0.43308199719E+03  0.00000000000E+00 0. -1.
         -2   -1    0    0    0  501 -0.00000000000E+00 -0.00000000000E+00 -0.16354768150E+02  0.16354768150E+02  0.00000000000E+00 0.  1.
         24    1    1    2    0    0 -0.56260238605E+01  0.15957891307E+02  0.25682714643E+03  0.26965478957E+03  0.80419002446E+02 0. -1.
        -24    1    1    2    0    0  0.56260238605E+01 -0.15957891307E+02  0.15990008261E+03  0.17978197577E+03  0.80419002446E+02 0.  1.
<mgrwt>
<rscale>  0 0.82179817E+02</rscale>
<asrwt>0</asrwt>
<pdfrwt beam="1">  1        2 0.66627991E-01 0.82179817E+02</pdfrwt>
<pdfrwt beam="2">  1       -2 0.25161185E-02 0.82179817E+02</pdfrwt>
<totfact> 0.35334262E+04</totfact>
</mgrwt>
</event>
<event>
 4    1  0.5074571E-001  0.8577179E+02  0.7546771E-02  0.1313426E+00
          2   -1    0    0  501    0  0.00000000000E+00  0.00000000000E+00  0.19008638820E+03  0.19008638820E+03  0.00000000000E+00 0. -1.
         -2   -1    0    0    0  501 -0.00000000000E+00 -0.00000000000E+00 -0.42231164018E+02  0.42231164018E+02  0.00000000000E+00 0.  1.
         24    1    1    2    0    0 -0.16400026537E+02 -0.24912301117E+02  0.10750498888E+03  0.13752862322E+03  0.80419002446E+02 0. -1.
        -24    1    1    2    0    0  0.16400026537E+02  0.24912301117E+02  0.40350235310E+02  0.94788929002E+02  0.80419002446E+02 0.  1.
<mgrwt>
<rscale>  0 0.85771788E+02</rscale>
<asrwt>0</asrwt>
<pdfrwt beam="1">  1        2 0.29244059E-01 0.85771788E+02</pdfrwt>
<pdfrwt beam="2">  1       -2 0.64971023E-02 0.85771788E+02</pdfrwt>
<totfact> 0.20904116E+04</totfact>
</mgrwt>
</event>
<event>
 4    1  0.5074571E-001  0.8079329E+02  0.7546771E-02  0.1326815E+00
          2   -1    0    0  501    0  0.00000000000E+00  0.00000000000E+00  0.29932261942E+04  0.29932261942E+04  0.00000000000E+00 0. -1.
         -2   -1    0    0    0  501 -0.00000000000E+00 -0.00000000000E+00 -0.47171382525E+01  0.47171382525E+01  0.00000000000E+00 0.  1.
         24    1    1    2    0    0  0.79074802348E-02  0.77678704284E+01  0.25934116100E+04  0.25946697930E+04  0.80419002446E+02 0.  0.
        -24    1    1    2    0    0 -0.79074802348E-02 -0.77678704284E+01  0.39509744596E+03  0.40327353947E+03  0.80419002446E+02 0.  1.
<mgrwt>
<rscale>  0 0.80793291E+02</rscale>
<asrwt>0</asrwt>
<pdfrwt beam="1">  1        2 0.46049482E+00 0.80793291E+02</pdfrwt>
<pdfrwt beam="2">  1       -2 0.72571597E-03 0.80793291E+02</pdfrwt>
<totfact> 0.71146251E+03</totfact>
</mgrwt>
</event>
<event>
 4    1  0.5074571E-001  0.9816895E+02  0.7546771E-02  0.1284194E+00
          1   -1    0    0  501    0  0.00000000000E+00  0.00000000000E+00  0.14435290515E+04  0.14435290515E+04  0.00000000000E+00 0. -1.
         -1   -1    0    0    0  501 -0.00000000000E+00 -0.00000000000E+00 -0.12949192601E+02  0.12949192601E+02  0.00000000000E+00 0.  1.
         24    1    1    2    0    0 -0.24074055683E+02  0.50895642231E+02  0.20842347088E+03  0.23038551544E+03  0.80419002446E+02 0.  1.
        -24    1    1    2    0    0  0.24074055683E+02 -0.50895642231E+02  0.12221563880E+04  0.12260927287E+04  0.80419002446E+02 0. -1.
<mgrwt>
<rscale>  0 0.98168949E+02</rscale>
<asrwt>0</asrwt>
<pdfrwt beam="1">  1        1 0.22208126E+00 0.98168949E+02</pdfrwt>
<pdfrwt beam="2">  1       -1 0.19921846E-02 0.98168949E+02</pdfrwt>
<totfact> 0.52230614E+03</totfact>
</mgrwt>
</event>
<event>
 4    1  0.5074571E-001  0.1005532E+03  0.7546771E-02  0.1279137E+00
          2   -1    0    0  501    0  0.00000000000E+00  0.00000000000E+00  0.19304805439E+04  0.19304805439E+04  0.00000000000E+00 0. -1.
         -2   -1    0    0    0  501 -0.00000000000E+00 -0.00000000000E+00 -0.56889328866E+01  0.56889328866E+01  0.00000000000E+00 0.  1.
         24    1    1    2    0    0  0.25547372384E+02 -0.54690565096E+02  0.12350938627E+04  0.12391802903E+04  0.80419002446E+02 0. -1.
        -24    1    1    2    0    0 -0.25547372384E+02  0.54690565096E+02  0.68969774835E+03  0.69698918656E+03  0.80419002446E+02 0.  1.
<mgrwt>
<rscale>  0 0.10055318E+03</rscale>
<asrwt>0</asrwt>
<pdfrwt beam="1">  1        2 0.29699648E+00 0.10055318E+03</pdfrwt>
<pdfrwt beam="2">  1       -2 0.87522198E-03 0.10055318E+03</pdfrwt>
<totfact> 0.19966502E+04</totfact>
</mgrwt>
</event>
<event>
 4    1  0.5074571E-001  0.8806400E+02  0.7546771E-02  0.1307609E+00
          1   -1    0    0  501    0  0.00000000000E+00  0.00000000000E+00  0.18651819420E+03  0.18651819420E+03  0.00000000000E+00 0. -1.
         -1   -1    0    0    0  501 -0.00000000000E+00 -0.00000000000E+00 -0.14386988633E+03  0.14386988633E+03  0.00000000000E+00 0.  1.
         24    1    1    2    0    0 -0.31017945751E+02  0.18053804338E+02 -0.11796829322E+03  0.14721340621E+03  0.80419002446E+02 0.  1.
        -24    1    1    2    0    0  0.31017945751E+02 -0.18053804338E+02  0.16061660109E+03  0.18317467431E+03  0.80419002446E+02 0. -1.
<mgrwt>
<rscale>  0 0.88064004E+02</rscale>
<asrwt>0</asrwt>
<pdfrwt beam="1">  1        1 0.28695107E-01 0.88064004E+02</pdfrwt>
<pdfrwt beam="2">  1       -1 0.22133829E-01 0.88064004E+02</pdfrwt>
<totfact> 0.25965726E+03</totfact>
</mgrwt>
</event>
<event>
 4    1  0.5074571E-001  0.8296437E+02  0.7546771E-02  0.1320843E+00
          1   -1    0    0  501    0  0.00000000000E+00  0.00000000000E+00  0.27357582629E+02  0.27357582629E+02  0.00000000000E+00 0. -1.
         -1   -1    0    0    0  501 -0.00000000000E+00 -0.00000000000E+00 -0.28273042882E+03  0.28273042882E+03  0.00000000000E+00 0.  1.
         24    1    1    2    0    0 -0.15737787536E+02  0.12968902271E+02 -0.17913602549E+03  0.19741530327E+03  0.80419002446E+02 0.  1.
        -24    1    1    2    0    0  0.15737787536E+02 -0.12968902271E+02 -0.76236820693E+02  0.11267270817E+03  0.80419002446E+02 0. -1.
<mgrwt>
<rscale>  0 0.82964368E+02</rscale>
<asrwt>0</asrwt>
<pdfrwt beam="1">  1        1 0.42088591E-02 0.82964368E+02</pdfrwt>
<pdfrwt beam="2">  1       -1 0.43496987E-01 0.82964368E+02</pdfrwt>
<totfact> 0.10075910E+04</totfact>
</mgrwt>
</event>
<event>
 4    1  0.5074571E-001  0.8635884E+02  0.7546771E-02  0.1311917E+00
         -2   -1    0    0    0  501 -0.00000000000E+00  0.00000000000E+00  0.11727094438E+03  0.11727094438E+03  0.00000000000E+00 0.  1.
          2   -1    0    0  501    0  0.00000000000E+00 -0.00000000000E+00 -0.15938372833E+03  0.15938372833E+03  0.00000000000E+00 0. -1.
         24    1    1    2    0    0 -0.30678698999E+01  0.31324463197E+02 -0.12829301979E+03  0.15465105464E+03  0.80419002446E+02 0. -1.
        -24    1    1    2    0    0  0.30678698999E+01 -0.31324463197E+02  0.86180235833E+02  0.12200361807E+03  0.80419002446E+02 0.  1.
<mgrwt>
<rscale>  0 0.86358843E+02</rscale>
<asrwt>0</asrwt>
<pdfrwt beam="1">  1        2 0.24520574E-01 0.86358843E+02</pdfrwt>
<pdfrwt beam="2">  1       -2 0.18041684E-01 0.86358843E+02</pdfrwt>
<totfact> 0.50982571E+03</totfact>
</mgrwt>
</event>
<event>
 4    1  0.5074571E-001  0.8974869E+02  0.7546771E-02  0.1303461E+00
         -2   -1    0    0    0  501 -0.00000000000E+00  0.00000000000E+00  0.89428753936E+01  0.89428753936E+01  0.00000000000E+00 0.  1.
          2   -1    0    0  501    0  0.00000000000E+00 -0.00000000000E+00 -0.15306204007E+04  0.15306204007E+04  0.00000000000E+00 0. -1.
         24    1    1    2    0    0  0.39745926245E+02  0.28057649070E+01 -0.12546687322E+04  0.12578745782E+04  0.80419002446E+02 0. -1.
        -24    1    1    2    0    0 -0.39745926245E+02 -0.28057649070E+01 -0.26700879310E+03  0.28168869789E+03  0.80419002446E+02 0.  1.
<mgrwt>
<rscale>  0 0.89748688E+02</rscale>
<asrwt>0</asrwt>
<pdfrwt beam="1">  1        2 0.23547982E+00 0.89748688E+02</pdfrwt>
<pdfrwt beam="2">  1       -2 0.13758284E-02 0.89748688E+02</pdfrwt>
<totfact> 0.16596071E+04</totfact>
</mgrwt>
</event>
<event>
 4    1  0.5074571E-001  0.8596778E+02  0.7546771E-02  0.1312921E+00
          2   -1    0    0  501    0  0.00000000000E+00  0.00000000000E+00  0.21009962796E+03  0.21009962796E+03  0.00000000000E+00 0. -1.
         -2   -1    0    0    0  501 -0.00000000000E+00 -0.00000000000E+00 -0.57440046895E+02  0.57440046895E+02  0.00000000000E+00 0.  1.
         24    1    1    2    0    0 -0.26584359487E+02  0.14714480372E+02  0.15961215895E+03  0.18129120591E+03  0.80419002446E+02 0. -1.
        -24    1    1    2    0    0  0.26584359487E+02 -0.14714480372E+02 -0.69525778821E+01  0.86248468946E+02  0.80419002446E+02 0.  1.
<mgrwt>
<rscale>  0 0.85967785E+02</rscale>
<asrwt>0</asrwt>
<pdfrwt beam="1">  1        2 0.32323019E-01 0.85967785E+02</pdfrwt>
<pdfrwt beam="2">  1       -2 0.88369304E-02 0.85967785E+02</pdfrwt>
<totfact> 0.11774020E+04</totfact>
</mgrwt>
</event>
<event>
 4    1  0.5074571E-001  0.8530484E+02  0.7546771E-02  0.1314637E+00
         -1   -1    0    0    0  501 -0.00000000000E+00  0.00000000000E+00  0.18923247151E+03  0.18923247151E+03  0.00000000000E+00 0.  1.
          1   -1    0    0  501    0  0.00000000000E+00 -0.00000000000E+00 -0.49864981634E+02  0.49864981634E+02  0.00000000000E+00 0. -1.
         24    1    1    2    0    0 -0.61019355486E+01 -0.27793285194E+02  0.12686997244E+03  0.15288200084E+03  0.80419002446E+02 0.  0.
        -24    1    1    2    0    0  0.61019355486E+01  0.27793285194E+02  0.12497517432E+02  0.86215452302E+02  0.80419002446E+02 0. -1.
<mgrwt>
<rscale>  0 0.85304843E+02</rscale>
<asrwt>0</asrwt>
<pdfrwt beam="1">  1        1 0.76715357E-02 0.85304843E+02</pdfrwt>
<pdfrwt beam="2">  1       -1 0.29112688E-01 0.85304843E+02</pdfrwt>
<totfact> 0.89434136E+03</totfact>
</mgrwt>
</event>
<event>
 4    1  0.5074571E-001  0.8700260E+02  0.7546771E-02  0.1310277E+00
         -2   -1    0    0    0  501 -0.00000000000E+00  0.00000000000E+00  0.73310239625E+01  0.73310239625E+01  0.00000000000E+00 0.  1.
          2   -1    0    0  501    0  0.00000000000E+00 -0.00000000000E+00 -0.10394628658E+04  0.10394628658E+04  0.00000000000E+00 0. -1.
         24    1    1    2    0    0 -0.33129429066E+02  0.21619455455E+01 -0.47329880083E+03  0.48122884774E+03  0.80419002446E+02 0.  1.
        -24    1    1    2    0    0  0.33129429066E+02 -0.21619455455E+01 -0.55883304105E+03  0.56556504206E+03  0.80419002446E+02 0. -1.
<mgrwt>
<rscale>  0 0.87002591E+02</rscale>
<asrwt>0</asrwt>
<pdfrwt beam="1">  1        2 0.15991732E+00 0.87002602E+02</pdfrwt>
<pdfrwt beam="2">  1       -2 0.11278501E-02 0.87002602E+02</pdfrwt>
<totfact> 0.40144834E+04</totfact>
</mgrwt>
</event>
<event>
 4    1  0.5074571E-001  0.1099964E+03  0.7546771E-02  0.1260577E+00
          1   -1    0    0  501    0  0.00000000000E+00  0.00000000000E+00  0.95612049637E+03  0.95612049637E+03  0.00000000000E+00 0. -1.
         -1   -1    0    0    0  501 -0.00000000000E+00 -0.00000000000E+00 -0.65252678073E+02  0.65252678073E+02  0.00000000000E+00 0.  1.
         24    1    1    2    0    0  0.21918611989E+02 -0.71774364632E+02 -0.13067572787E+02  0.11076986225E+03  0.80419002446E+02 0.  1.
        -24    1    1    2    0    0 -0.21918611989E+02  0.71774364632E+02  0.90393539109E+03  0.91060331220E+03  0.80419002446E+02 0. -1.
<mgrwt>
<rscale>  0 0.10999637E+03</rscale>
<asrwt>0</asrwt>
<pdfrwt beam="1">  1        1 0.14709545E+00 0.10999637E+03</pdfrwt>
<pdfrwt beam="2">  1       -1 0.10038874E-01 0.10999637E+03</pdfrwt>
<totfact> 0.10500114E+03</totfact>
</mgrwt>
</event>
<event>
 4    1  0.5074571E-001  0.8227606E+02  0.7546771E-02  0.1322714E+00
         -2   -1    0    0    0  501 -0.00000000000E+00  0.00000000000E+00  0.25284896884E+03  0.25284896884E+03  0.00000000000E+00 0.  1.
          2   -1    0    0  501    0  0.00000000000E+00 -0.00000000000E+00 -0.61990523410E+03  0.61990523410E+03  0.00000000000E+00 0. -1.
         24    1    1    2    0    0  0.94781853102E+00  0.17356166443E+02 -0.61037816410E+03  0.61589841211E+03  0.80419002446E+02 0. -1.
        -24    1    1    2    0    0 -0.94781853102E+00 -0.17356166443E+02  0.24332189884E+03  0.25685579083E+03  0.80419002446E+02 0.  1.
<mgrwt>
<rscale>  0 0.82276065E+02</rscale>
<asrwt>0</asrwt>
<pdfrwt beam="1">  1        2 0.95370034E-01 0.82276065E+02</pdfrwt>
<pdfrwt beam="2">  1       -2 0.38899842E-01 0.82276065E+02</pdfrwt>
<totfact> 0.31376325E+02</totfact>
</mgrwt>
</event>
<event>
 4    1  0.5074571E-001  0.8880696E+02  0.7546771E-02  0.1305767E+00
          2   -1    0    0  501    0  0.00000000000E+00  0.00000000000E+00  0.23599443399E+04  0.23599443399E+04  0.00000000000E+00 0. -1.
         -2   -1    0    0    0  501 -0.00000000000E+00 -0.00000000000E+00 -0.66564898407E+01  0.66564898407E+01  0.00000000000E+00 0.  1.
         24    1    1    2    0    0  0.37675696863E+02  0.40112216818E-01  0.20116466568E+04  0.20136059563E+04  0.80419002446E+02 0. -1.
        -24    1    1    2    0    0 -0.37675696863E+02 -0.40112216818E-01  0.34164119327E+03  0.35299487339E+03  0.80419002446E+02 0.  1.
<mgrwt>
<rscale>  0 0.88806957E+02</rscale>
<asrwt>0</asrwt>
<pdfrwt beam="1">  1        2 0.36306769E+00 0.88806957E+02</pdfrwt>
<pdfrwt beam="2">  1       -2 0.10240772E-02 0.88806957E+02</pdfrwt>
<totfact> 0.96153637E+03</totfact>
</mgrwt>
</event>
<event>
 4    1  0.5074571E-001  0.8518793E+02  0.7546771E-02  0.1314942E+00
          2   -1    0    0  501    0  0.00000000000E+00  0.00000000000E+00  0.22290794637E+02  0.22290794637E+02  0.00000000000E+00 0. -1.
         -2   -1    0    0    0  501 -0.00000000000E+00 -0.00000000000E+00 -0.49162326967E+03  0.49162326967E+03  0.00000000000E+00 0.  1.
         24    1    1    2    0    0 -0.17913596347E+02 -0.21653428352E+02 -0.85324393352E+02  0.12057046052E+03  0.80419002446E+02 0. -1.
        -24    1    1    2    0    0  0.17913596347E+02  0.21653428352E+02 -0.38400808168E+03  0.39334360379E+03  0.80419002446E+02 0.  1.
<mgrwt>
<rscale>  0 0.85187933E+02</rscale>
<asrwt>0</asrwt>
<pdfrwt beam="1">  1        2 0.34293529E-02 0.85187933E+02</pdfrwt>
<pdfrwt beam="2">  1       -2 0.75634352E-01 0.85187933E+02</pdfrwt>
<totfact> 0.38398250E+03</totfact>
</mgrwt>
</event>
<event>
 4    1  0.5074571E-001  0.8547529E+02  0.7546771E-02  0.1314194E+00
         -2   -1    0    0    0  501 -0.00000000000E+00  0.00000000000E+00  0.23969906287E+03  0.23969906287E+03  0.00000000000E+00 0.  1.
          2   -1    0    0  501    0  0.00000000000E+00 -0.00000000000E+00 -0.71895584543E+02  0.71895584543E+02  0.00000000000E+00 0. -1.
         24    1    1    2    0    0 -0.13051696228E+02 -0.25854641484E+02 -0.34345451047E+02  0.92117507688E+02  0.80419002446E+02 0. -1.
        -24    1    1    2    0    0  0.13051696228E+02  0.25854641484E+02  0.20214892937E+03  0.21947713972E+03  0.80419002446E+02 0.  1.
<mgrwt>
<rscale>  0 0.85475290E+02</rscale>
<asrwt>0</asrwt>
<pdfrwt beam="1">  1        2 0.11060859E-01 0.85475290E+02</pdfrwt>
<pdfrwt beam="2">  1       -2 0.36876779E-01 0.85475290E+02</pdfrwt>
<totfact> 0.36429722E+03</totfact>
</mgrwt>
</event>
<event>
 4    1  0.5074571E-001  0.8113502E+02  0.7546771E-02  0.1325861E+00
         -2   -1    0    0    0  501 -0.00000000000E+00  0.00000000000E+00  0.29989014947E+02  0.29989014947E+02  0.00000000000E+00 0.  1.
          2   -1    0    0  501    0  0.00000000000E+00 -0.00000000000E+00 -0.99474003425E+03  0.99474003425E+03  0.00000000000E+00 0. -1.
         24    1    1    2    0    0 -0.10676935189E+02  0.12954104773E+01 -0.93468898564E+03  0.93820381094E+03  0.80419002446E+02 0. -1.
        -24    1    1    2    0    0  0.10676935189E+02 -0.12954104773E+01 -0.30062033666E+02  0.86525238259E+02  0.80419002446E+02 0.  1.
<mgrwt>
<rscale>  0 0.81135017E+02</rscale>
<asrwt>0</asrwt>
<pdfrwt beam="1">  1        2 0.15303691E+00 0.81135017E+02</pdfrwt>
<pdfrwt beam="2">  1       -2 0.46136952E-02 0.81135017E+02</pdfrwt>
<totfact> 0.55675126E+03</totfact>
</mgrwt>
</event>
<event>
 4    1  0.5074571E-001  0.8255482E+02  0.7546771E-02  0.1321954E+00
          2   -1    0    0  501    0  0.00000000000E+00  0.00000000000E+00  0.49605247601E+01  0.49605247601E+01  0.00000000000E+00 0. -1.
         -2   -1    0    0    0  501 -0.00000000000E+00 -0.00000000000E+00 -0.13742014981E+04  0.13742014981E+04  0.00000000000E+00 0.  1.
         24    1    1    2    0    0 -0.11780234979E+02  0.14467481138E+02 -0.67451941749E+03  0.67955260464E+03  0.80419002446E+02 0. -1.
        -24    1    1    2    0    0  0.11780234979E+02 -0.14467481138E+02 -0.69472155586E+03  0.69960941823E+03  0.80419002446E+02 0.  1.
<mgrwt>
<rscale>  0 0.82554818E+02</rscale>
<asrwt>0</asrwt>
<pdfrwt beam="1">  1        2 0.76315818E-03 0.82554818E+02</pdfrwt>
<pdfrwt beam="2">  1       -2 0.21141547E+00 0.82554818E+02</pdfrwt>
<totfact> 0.23580407E+03</totfact>
</mgrwt>
</event>
<event>
 4    1  0.5074571E-001  0.9163781E+02  0.7546771E-02  0.1298933E+00
         -2   -1    0    0    0  501 -0.00000000000E+00  0.00000000000E+00  0.41257272578E+03  0.41257272578E+03  0.00000000000E+00 0.  1.
          2   -1    0    0  501    0  0.00000000000E+00 -0.00000000000E+00 -0.52440095440E+02  0.52440095440E+02  0.00000000000E+00 0. -1.
         24    1    1    2    0    0 -0.19450518873E+01 -0.43891782199E+02 -0.18040413125E+01  0.91655563338E+02  0.80419002446E+02 0. -1.
        -24    1    1    2    0    0  0.19450518873E+01  0.43891782199E+02  0.36193667165E+03  0.37335725788E+03  0.80419002446E+02 0.  1.
<mgrwt>
<rscale>  0 0.91637807E+02</rscale>
<asrwt>0</asrwt>
<pdfrwt beam="1">  1        2 0.80677072E-02 0.91637807E+02</pdfrwt>
<pdfrwt beam="2">  1       -2 0.63472725E-01 0.91637807E+02</pdfrwt>
<totfact> 0.18649897E+03</totfact>
</mgrwt>
</event>
<event>
 4    1  0.5074571E-001  0.1023306E+03  0.7546771E-02  0.1275470E+00
         -4   -1    0    0    0  501 -0.00000000000E+00  0.00000000000E+00  0.43031493477E+03  0.43031493477E+03  0.00000000000E+00 0.  1.
          4   -1    0    0  501    0  0.00000000000E+00 -0.00000000000E+00 -0.52003494047E+02  0.52003494047E+02  0.00000000000E+00 0. -1.
         24    1    1    2    0    0  0.63016159370E+02  0.57711575069E+01  0.13248691570E+02  0.10318471972E+03  0.80419002446E+02 0. -1.
        -24    1    1    2    0    0 -0.63016159370E+02 -0.57711575069E+01  0.36506274915E+03  0.37913370909E+03  0.80419002446E+02 0.  0.
<mgrwt>
<rscale>  0 0.10233063E+03</rscale>
<asrwt>0</asrwt>
<pdfrwt beam="1">  1        4 0.80005378E-02 0.10233063E+03</pdfrwt>
<pdfrwt beam="2">  1       -4 0.66202295E-01 0.10233063E+03</pdfrwt>
<totfact> 0.37306735E+02</totfact>
</mgrwt>
</event>
<event>
 4    1  0.5074571E-001  0.8217103E+02  0.7546771E-02  0.1323001E+00
          2   -1    0    0  501    0  0.00000000000E+00  0.00000000000E+00  0.48761281867E+02  0.48761281867E+02  0.00000000000E+00 0. -1.
         -2   -1    0    0    0  501 -0.00000000000E+00 -0.00000000000E+00 -0.27892617340E+03  0.27892617340E+03  0.00000000000E+00 0.  1.
         24    1    1    2    0    0  0.10640716242E+02  0.13101066834E+02  0.11834395423E+01  0.82179555109E+02  0.80419002446E+02 0.  0.
        -24    1    1    2    0    0 -0.10640716242E+02 -0.13101066834E+02 -0.23134833108E+03  0.24550790016E+03  0.80419002446E+02 0.  1.
<mgrwt>
<rscale>  0 0.82171034E+02</rscale>
<asrwt>0</asrwt>
<pdfrwt beam="1">  1        2 0.75017357E-02 0.82171034E+02</pdfrwt>
<pdfrwt beam="2">  1       -2 0.42911719E-01 0.82171034E+02</pdfrwt>
<totfact> 0.43922995E+03</totfact>
</mgrwt>
</event>
<event>
 4    1  0.5074571E-001  0.1285273E+03  0.7546771E-02  0.1229657E+00
          1   -1    0    0  501    0  0.00000000000E+00  0.00000000000E+00  0.34186056817E+03  0.34186056817E+03  0.00000000000E+00 0. -1.
         -1   -1    0    0    0  501 -0.00000000000E+00 -0.00000000000E+00 -0.52355642697E+02  0.52355642697E+02  0.00000000000E+00 0.  1.
         24    1    1    2    0    0  0.91140551743E+02 -0.41778670765E+02  0.90039626369E+02  0.15692803374E+03  0.80419002446E+02 0.  1.
        -24    1    1    2    0    0 -0.91140551743E+02  0.41778670765E+02  0.19946529911E+03  0.23728817713E+03  0.80419002446E+02 0. -1.
<mgrwt>
<rscale>  0 0.12852733E+03</rscale>
<asrwt>0</asrwt>
<pdfrwt beam="1">  1        1 0.52593932E-01 0.12852733E+03</pdfrwt>
<pdfrwt beam="2">  1       -1 0.80547145E-02 0.12852733E+03</pdfrwt>
<totfact> 0.60236885E+03</totfact>
</mgrwt>
</event>
<event>
 4    1  0.5074571E-001  0.9204641E+02  0.7546771E-02  0.1297970E+00
          1   -1    0    0  501    0  0.00000000000E+00  0.00000000000E+00  0.68949920666E+02  0.68949920666E+02  0.00000000000E+00 0. -1.
         -1   -1    0    0    0  501 -0.00000000000E+00 -0.00000000000E+00 -0.12979824044E+03  0.12979824044E+03  0.00000000000E+00 0.  1.
         24    1    1    2    0    0  0.28251327067E+02  0.34744624448E+02 -0.53367012802E+02  0.10639821624E+03  0.80419002446E+02 0.  1.
        -24    1    1    2    0    0 -0.28251327067E+02 -0.34744624448E+02 -0.74813069761E+01  0.92349944870E+02  0.80419002446E+02 0. -1.
<mgrwt>
<rscale>  0 0.92046414E+02</rscale>
<asrwt>0</asrwt>
<pdfrwt beam="1">  1        1 0.10607680E-01 0.92046414E+02</pdfrwt>
<pdfrwt beam="2">  1       -1 0.19968960E-01 0.92046414E+02</pdfrwt>
<totfact> 0.10829135E+04</totfact>
</mgrwt>
</event>
<event>
 4    1  0.5074571E-001  0.8388581E+02  0.7546771E-02  0.1318372E+00
          2   -1    0    0  501    0  0.00000000000E+00  0.00000000000E+00  0.70654585656E+03  0.70654585656E+03  0.00000000000E+00 0. -1.
         -2   -1    0    0    0  501 -0.00000000000E+00 -0.00000000000E+00 -0.99613354398E+01  0.99613354398E+01  0.00000000000E+00 0.  1.
         24    1    1    2    0    0  0.21905882750E+02  0.94732347060E+01  0.34339634519E+03  0.35349381285E+03  0.80419002446E+02 0. -1.
        -24    1    1    2    0    0 -0.21905882750E+02 -0.94732347060E+01  0.35318817593E+03  0.36301337916E+03  0.80419002446E+02 0.  0.
<mgrwt>
<rscale>  0 0.83885801E+02</rscale>
<asrwt>0</asrwt>
<pdfrwt beam="1">  1        2 0.10869932E+00 0.83885811E+02</pdfrwt>
<pdfrwt beam="2">  1       -2 0.15325137E-02 0.83885811E+02</pdfrwt>
<totfact> 0.42043298E+04</totfact>
</mgrwt>
</event>
<event>
 4    1  0.5074571E-001  0.9357824E+02  0.7546771E-02  0.1294411E+00
          1   -1    0    0  501    0  0.00000000000E+00  0.00000000000E+00  0.59231615552E+02  0.59231615552E+02  0.00000000000E+00 0. -1.
         -1   -1    0    0    0  501 -0.00000000000E+00 -0.00000000000E+00 -0.16102694911E+03  0.16102694911E+03  0.00000000000E+00 0.  1.
         24    1    1    2    0    0 -0.18940119994E+02 -0.43942504390E+02 -0.82411544959E+02  0.12469382717E+03  0.80419002446E+02 0. -1.
        -24    1    1    2    0    0  0.18940119994E+02  0.43942504390E+02 -0.19383788602E+02  0.95564737495E+02  0.80419002446E+02 0.  1.
<mgrwt>
<rscale>  0 0.93578244E+02</rscale>
<asrwt>0</asrwt>
<pdfrwt beam="1">  1        1 0.91125564E-02 0.93578244E+02</pdfrwt>
<pdfrwt beam="2">  1       -1 0.24773376E-01 0.93578244E+02</pdfrwt>
<totfact> 0.93631038E+03</totfact>
</mgrwt>
</event>
<event>
 4    1  0.5074571E-001  0.8674479E+02  0.7546771E-02  0.1310932E+00
         -4   -1    0    0    0  501 -0.00000000000E+00  0.00000000000E+00  0.14473359290E+04  0.14473359290E+04  0.00000000000E+00 0.  1.
          4   -1    0    0  501    0  0.00000000000E+00 -0.00000000000E+00 -0.18132201898E+02  0.18132201898E+02  0.00000000000E+00 0. -1.
         24    1    1    2    0    0  0.30367326325E+02  0.11630486497E+02  0.95767229333E+02  0.12921308329E+03  0.80419002446E+02 0. -1.
        -24    1    1    2    0    0 -0.30367326325E+02 -0.11630486497E+02  0.13334364978E+04  0.13362550476E+04  0.80419002446E+02 0.  1.
<mgrwt>
<rscale>  0 0.86744790E+02</rscale>
<asrwt>0</asrwt>
<pdfrwt beam="1">  1        4 0.27895707E-02 0.86744790E+02</pdfrwt>
<pdfrwt beam="2">  1       -4 0.22266697E+00 0.86744790E+02</pdfrwt>
<totfact> 0.10091431E+02</totfact>
</mgrwt>
</event>
<event>
 4    1  0.5074571E-001  0.9007806E+02  0.7546771E-02  0.1302663E+00
         -1   -1    0    0    0  501 -0.00000000000E+00  0.00000000000E+00  0.48266188958E+03  0.48266188958E+03  0.00000000000E+00 0.  1.
          1   -1    0    0  501    0  0.00000000000E+00 -0.00000000000E+00 -0.16816179543E+02  0.16816179543E+02  0.00000000000E+00 0. -1.
         24    1    1    2    0    0  0.30563737076E+02  0.26696333449E+02  0.22856024548E+03  0.24567018136E+03  0.80419002446E+02 0.  1.
        -24    1    1    2    0    0 -0.30563737076E+02 -0.26696333449E+02  0.23728546456E+03  0.25380788776E+03  0.80419002446E+02 0. -1.
<mgrwt>
<rscale>  0 0.90078045E+02</rscale>
<asrwt>0</asrwt>
<pdfrwt beam="1">  1        1 0.25871049E-02 0.90078056E+02</pdfrwt>
<pdfrwt beam="2">  1       -1 0.74255665E-01 0.90078056E+02</pdfrwt>
<totfact> 0.73004972E+03</totfact>
</mgrwt>
</event>
<event>
 4    1  0.5074571E-001  0.1026647E+03  0.7546771E-02  0.1274790E+00
         -2   -1    0    0    0  501 -0.00000000000E+00  0.00000000000E+00  0.64034321422E+01  0.64034321422E+01  0.00000000000E+00 0.  1.
          2   -1    0    0  501    0  0.00000000000E+00 -0.00000000000E+00 -0.16641298921E+04  0.16641298921E+04  0.00000000000E+00 0. -1.
         24    1    1    2    0    0 -0.27254709931E+02  0.57706230746E+02 -0.74167886024E+03  0.74875067677E+03  0.80419002446E+02 0.  0.
        -24    1    1    2    0    0  0.27254709931E+02 -0.57706230746E+02 -0.91604759974E+03  0.92178264749E+03  0.80419002446E+02 0.  1.
<mgrwt>
<rscale>  0 0.10266473E+03</rscale>
<asrwt>0</asrwt>
<pdfrwt beam="1">  1        2 0.25602035E+00 0.10266474E+03</pdfrwt>
<pdfrwt beam="2">  1       -2 0.98514201E-03 0.10266474E+03</pdfrwt>
<totfact> 0.23033942E+04</totfact>
</mgrwt>
</event>
<event>
 4    1  0.5074571E-001  0.8409418E+02  0.7546771E-02  0.1317818E+00
          1   -1    0    0  501    0  0.00000000000E+00  0.00000000000E+00  0.18301504649E+03  0.18301504649E+03  0.00000000000E+00 0. -1.
         -1   -1    0    0    0  501 -0.00000000000E+00 -0.00000000000E+00 -0.67981004020E+03  0.67981004020E+03  0.00000000000E+00 0.  1.
         24    1    1    2    0    0  0.19437135428E+02  0.15060332598E+02 -0.66736983460E+03  0.67264725372E+03  0.80419002446E+02 0.  1.
        -24    1    1    2    0    0 -0.19437135428E+02 -0.15060332598E+02  0.17057484089E+03  0.19017783297E+03  0.80419002446E+02 0. -1.
<mgrwt>
<rscale>  0 0.84094184E+02</rscale>
<asrwt>0</asrwt>
<pdfrwt beam="1">  1        1 0.28156161E-01 0.84094184E+02</pdfrwt>
<pdfrwt beam="2">  1       -1 0.10458616E+00 0.84094184E+02</pdfrwt>
<totfact> 0.15550921E+02</totfact>
</mgrwt>
</event>
<event>
 4    1  0.5074571E-001  0.8187862E+02  0.7546771E-02  0.1323803E+00
          1   -1    0    0  501    0  0.00000000000E+00  0.00000000000E+00  0.58301625447E+03  0.58301625447E+03  0.00000000000E+00 0. -1.
         -1   -1    0    0    0  501 -0.00000000000E+00 -0.00000000000E+00 -0.11884363370E+02  0.11884363370E+02  0.00000000000E+00 0.  1.
         24    1    1    2    0    0  0.45911805437E+01  0.14690600670E+02  0.23200390594E+03  0.24602829311E+03  0.80419002446E+02 0.  0.
        -24    1    1    2    0    0 -0.45911805437E+01 -0.14690600670E+02  0.33912798516E+03  0.34887232473E+03  0.80419002446E+02 0.  0.
<mgrwt>
<rscale>  0 0.81878621E+02</rscale>
<asrwt>0</asrwt>
<pdfrwt beam="1">  1        1 0.89694786E-01 0.81878621E+02</pdfrwt>
<pdfrwt beam="2">  1       -1 0.18283641E-02 0.81878621E+02</pdfrwt>
<totfact> 0.25535441E+04</totfact>
</mgrwt>
</event>
<event>
 4    1  0.5074571E-001  0.8716418E+02  0.7546771E-02  0.1309868E+00
          2   -1    0    0  501    0  0.00000000000E+00  0.00000000000E+00  0.13852604573E+04  0.13852604573E+04  0.00000000000E+00 0. -1.
         -2   -1    0    0    0  501 -0.00000000000E+00 -0.00000000000E+00 -0.17622221506E+02  0.17622221506E+02  0.00000000000E+00 0.  1.
         24    1    1    2    0    0 -0.33564261361E+02  0.19541696665E+01  0.12659597204E+04  0.12689568976E+04  0.80419002446E+02 0. -1.
        -24    1    1    2    0    0  0.33564261361E+02 -0.19541696665E+01  0.10167851546E+03  0.13392578123E+03  0.80419002446E+02 0.  1.
<mgrwt>
<rscale>  0 0.87164181E+02</rscale>
<asrwt>0</asrwt>
<pdfrwt beam="1">  1        2 0.21311691E+00 0.87164181E+02</pdfrwt>
<pdfrwt beam="2">  1       -2 0.27111121E-02 0.87164181E+02</pdfrwt>
<totfact> 0.74361100E+03</totfact>
</mgrwt>
</event>
<event>
 4    1  0.5074571E-001  0.9845597E+02  0.7546771E-02  0.1283577E+00
         -1   -1    0    0    0  501 -0.00000000000E+00  0.00000000000E+00  0.22438752174E+03  0.22438752174E+03  0.00000000000E+00 0.  1.
          1   -1    0    0  501    0  0.00000000000E+00 -0.00000000000E+00 -0.55639875307E+02  0.55639875307E+02  0.00000000000E+00 0. -1.
         24    1    1    2    0    0  0.16031686032E+02  0.54491724379E+02  0.15057756123E+03  0.17990881269E+03  0.80419002446E+02 0. -1.
        -24    1    1    2    0    0 -0.16031686032E+02 -0.54491724379E+02  0.18170085201E+02  0.10011858436E+03  0.80419002446E+02 0.  0.
<mgrwt>
<rscale>  0 0.98455975E+02</rscale>
<asrwt>0</asrwt>
<pdfrwt beam="1">  1        1 0.85599809E-02 0.98455975E+02</pdfrwt>
<pdfrwt beam="2">  1       -1 0.34521157E-01 0.98455975E+02</pdfrwt>
<totfact> 0.58886342E+03</totfact>
</mgrwt>
</event>
<event>
 4    1  0.5074571E-001  0.9246984E+02  0.7546771E-02  0.1296979E+00
          1   -1    0    0  501    0  0.00000000000E+00  0.00000000000E+00  0.20886872897E+04  0.20886872897E+04  0.00000000000E+00 0. -1.
         -1   -1    0    0    0  501 -0.00000000000E+00 -0.00000000000E+00 -0.43732945386E+01  0.43732945386E+01  0.00000000000E+00 0.  1.
         24    1    1    2    0    0  0.41042401734E+02  0.19974275398E+02  0.13067234161E+04  0.13099911269E+04  0.80419002446E+02 0. -1.
        -24    1    1    2    0    0 -0.41042401734E+02 -0.19974275398E+02  0.77759057909E+03  0.78306945737E+03  0.80419002446E+02 0.  1.
<mgrwt>
<rscale>  0 0.92469825E+02</rscale>
<asrwt>0</asrwt>
<pdfrwt beam="1">  1        1 0.32133571E+00 0.92469836E+02</pdfrwt>
<pdfrwt beam="2">  1       -1 0.67281621E-03 0.92469836E+02</pdfrwt>
<totfact> 0.94874565E+03</totfact>
</mgrwt>
</event>
<event>
 4    1  0.5074571E-001  0.8148488E+02  0.7546771E-02  0.1324890E+00
          1   -1    0    0  501    0  0.00000000000E+00  0.00000000000E+00  0.17920521425E+04  0.17920521425E+04  0.00000000000E+00 0. -1.
         -1   -1    0    0    0  501 -0.00000000000E+00 -0.00000000000E+00 -0.37312157050E+01  0.37312157050E+01  0.00000000000E+00 0.  1.
         24    1    1    2    0    0  0.11028601808E+02 -0.71372215183E+01  0.81908447807E+03  0.82312767428E+03  0.80419002446E+02 0.  1.
        -24    1    1    2    0    0 -0.11028601808E+02  0.71372215183E+01  0.96923644872E+03  0.97265568393E+03  0.80419002446E+02 0. -1.
<mgrwt>
<rscale>  0 0.81484882E+02</rscale>
<asrwt>0</asrwt>
<pdfrwt beam="1">  1        1 0.27569964E+00 0.81484882E+02</pdfrwt>
<pdfrwt beam="2">  1       -1 0.57403462E-03 0.81484882E+02</pdfrwt>
<totfact> 0.18030618E+04</totfact>
</mgrwt>
</event>
<event>
 4    1  0.5074571E-001  0.9438059E+02  0.7546771E-02  0.1292577E+00
          1   -1    0    0  501    0  0.00000000000E+00  0.00000000000E+00  0.12872260378E+04  0.12872260378E+04  0.00000000000E+00 0. -1.
         -1   -1    0    0    0  501 -0.00000000000E+00 -0.00000000000E+00 -0.81934768271E+01  0.81934768271E+01  0.00000000000E+00 0.  1.
         24    1    1    2    0    0 -0.75183397207E+00 -0.49395490076E+02  0.38416988525E+03  0.39559347364E+03  0.80419002446E+02 0.  1.
        -24    1    1    2    0    0  0.75183397207E+00  0.49395490076E+02  0.89486267574E+03  0.89982604101E+03  0.80419002446E+02 0. -1.
<mgrwt>
<rscale>  0 0.94380589E+02</rscale>
<asrwt>0</asrwt>
<pdfrwt beam="1">  1        1 0.19803461E+00 0.94380589E+02</pdfrwt>
<pdfrwt beam="2">  1       -1 0.12605359E-02 0.94380589E+02</pdfrwt>
<totfact> 0.12640142E+04</totfact>
</mgrwt>
</event>
<event>
 4    1  0.5074571E-001  0.1018687E+03  0.7546771E-02  0.1276415E+00
         -2   -1    0    0    0  501 -0.00000000000E+00  0.00000000000E+00  0.31822013398E+02  0.31822013398E+02  0.00000000000E+00 0.  1.
          2   -1    0    0  501    0  0.00000000000E+00 -0.00000000000E+00 -0.61845285807E+03  0.61845285807E+03  0.00000000000E+00 0. -1.
         24    1    1    2    0    0  0.48909275844E+02 -0.38960151883E+02 -0.51686083315E+03  0.52680389852E+03  0.80419002446E+02 0. -1.
        -24    1    1    2    0    0 -0.48909275844E+02  0.38960151883E+02 -0.69770011521E+02  0.12347097295E+03  0.80419002446E+02 0.  0.
<mgrwt>
<rscale>  0 0.10186867E+03</rscale>
<asrwt>0</asrwt>
<pdfrwt beam="1">  1        2 0.95146593E-01 0.10186867E+03</pdfrwt>
<pdfrwt beam="2">  1       -2 0.48956944E-02 0.10186867E+03</pdfrwt>
<totfact> 0.92362934E+03</totfact>
</mgrwt>
</event>
<event>
 4    1  0.5074571E-001  0.8976287E+02  0.7546771E-02  0.1303427E+00
          2   -1    0    0  501    0  0.00000000000E+00  0.00000000000E+00  0.47149898636E+02  0.47149898636E+02  0.00000000000E+00 0. -1.
         -2   -1    0    0    0  501 -0.00000000000E+00 -0.00000000000E+00 -0.34645015529E+03  0.34645015529E+03  0.00000000000E+00 0.  1.
         24    1    1    2    0    0 -0.39097226052E+02  0.78462296153E+01 -0.95560791224E+01  0.90270100292E+02  0.80419002446E+02 0. -1.
        -24    1    1    2    0    0  0.39097226052E+02 -0.78462296153E+01 -0.28974417753E+03  0.30332995363E+03  0.80419002446E+02 0.  1.
<mgrwt>
<rscale>  0 0.89762867E+02</rscale>
<asrwt>0</asrwt>
<pdfrwt beam="1">  1        2 0.72538305E-02 0.89762867E+02</pdfrwt>
<pdfrwt beam="2">  1       -2 0.53300024E-01 0.89762867E+02</pdfrwt>
<totfact> 0.30280529E+03</totfact>
</mgrwt>
</event>
<event>
 4    1  0.5074571E-001  0.9215989E+02  0.7546771E-02  0.1297704E+00
          2   -1    0    0  501    0  0.00000000000E+00  0.00000000000E+00  0.36143629172E+03  0.36143629172E+03  0.00000000000E+00 0. -1.
         -2   -1    0    0    0  501 -0.00000000000E+00 -0.00000000000E+00 -0.42251856454E+02  0.42251856454E+02  0.00000000000E+00 0.  1.
         24    1    1    2    0    0 -0.44989356549E+02 -0.14787470296E+01  0.29406212588E+03  0.30816550542E+03  0.80419002446E+02 0. -1.
        -24    1    1    2    0    0  0.44989356549E+02  0.14787470296E+01  0.25122309377E+02  0.95522642752E+02  0.80419002446E+02 0.  1.
<mgrwt>
<rscale>  0 0.92159887E+02</rscale>
<asrwt>0</asrwt>
<pdfrwt beam="1">  1        2 0.55605581E-01 0.92159887E+02</pdfrwt>
<pdfrwt beam="2">  1       -2 0.65002859E-02 0.92159887E+02</pdfrwt>
<totfact> 0.10703970E+04</totfact>
</mgrwt>
</event>
<event>
 4    1  0.5074571E-001  0.9310090E+02  0.7546771E-02  0.1295512E+00
          2   -1    0    0  501    0  0.00000000000E+00  0.00000000000E+00  0.20541869680E+04  0.20541869680E+04  0.00000000000E+00 0. -1.
         -2   -1    0    0    0  501 -0.00000000000E+00 -0.00000000000E+00 -0.79558547630E+01  0.79558547630E+01  0.00000000000E+00 0.  1.
         24    1    1    2    0    0 -0.71293418607E+01 -0.46365215497E+02  0.17297024249E+04  0.17322061815E+04  0.80419002446E+02 0. -1.
        -24    1    1    2    0    0  0.71293418607E+01  0.46365215497E+02  0.31652868834E+03  0.32993664122E+03  0.80419002446E+02 0.  1.
<mgrwt>
<rscale>  0 0.93100895E+02</rscale>
<asrwt>0</asrwt>
<pdfrwt beam="1">  1        2 0.31602834E+00 0.93100895E+02</pdfrwt>
<pdfrwt beam="2">  1       -2 0.12239793E-02 0.93100895E+02</pdfrwt>
<totfact> 0.10705787E+04</totfact>
</mgrwt>
</event>
<event>
 4    1  0.5074571E-001  0.8342999E+02  0.7546771E-02  0.1319590E+00
          1   -1    0    0  501    0  0.00000000000E+00  0.00000000000E+00  0.17797044672E+04  0.17797044672E+04  0.00000000000E+00 0. -1.
         -1   -1    0    0    0  501 -0.00000000000E+00 -0.00000000000E+00 -0.14664664983E+02  0.14664664983E+02  0.00000000000E+00 0.  1.
         24    1    1    2    0    0 -0.35689070497E+01  0.21922828261E+02  0.11423483413E+03  0.14145727546E+03  0.80419002446E+02 0.  1.
        -24    1    1    2    0    0  0.35689070497E+01 -0.21922828261E+02  0.16508049680E+04  0.16529118567E+04  0.80419002446E+02 0. -1.
<mgrwt>
<rscale>  0 0.83429991E+02</rscale>
<asrwt>0</asrwt>
<pdfrwt beam="1">  1        1 0.27380052E+00 0.83429991E+02</pdfrwt>
<pdfrwt beam="2">  1       -1 0.22561037E-02 0.83429991E+02</pdfrwt>
<totfact> 0.26669709E+03</totfact>
</mgrwt>
</event>
<event>
 4    1  0.5074571E-001  0.8949253E+02  0.7546771E-02  0.1304085E+00
          1   -1    0    0  501    0  0.00000000000E+00  0.00000000000E+00  0.14584832817E+04  0.14584832817E+04  0.00000000000E+00 0. -1.
         -1   -1    0    0    0  501 -0.00000000000E+00 -0.00000000000E+00 -0.25619452789E+02  0.25619452789E+02  0.00000000000E+00 0.  1.
         24    1    1    2    0    0 -0.38985043176E+02  0.46757663915E+01  0.58696197263E+02  0.10702409033E+03  0.80419002446E+02 0.  1.
        -24    1    1    2    0    0  0.38985043176E+02 -0.46757663915E+01  0.13741676316E+04  0.13770786441E+04  0.80419002446E+02 0. -1.
<mgrwt>
<rscale>  0 0.89492527E+02</rscale>
<asrwt>0</asrwt>
<pdfrwt beam="1">  1        1 0.22438198E+00 0.89492527E+02</pdfrwt>
<pdfrwt beam="2">  1       -1 0.39414554E-02 0.89492527E+02</pdfrwt>
<totfact> 0.19085836E+03</totfact>
</mgrwt>
</event>
<event>
 4    1  0.5074571E-001  0.1015956E+03  0.7546771E-02  0.1276976E+00
          2   -1    0    0  501    0  0.00000000000E+00  0.00000000000E+00  0.22849788531E+04  0.22849788531E+04  0.00000000000E+00 0. -1.
         -2   -1    0    0    0  501 -0.00000000000E+00 -0.00000000000E+00 -0.21055405903E+02  0.21055405903E+02  0.00000000000E+00 0.  1.
         24    1    1    2    0    0  0.60251093209E+02 -0.14975080567E+02  0.21538381866E+04  0.21562329645E+04  0.80419002446E+02 0.  0.
        -24    1    1    2    0    0 -0.60251093209E+02  0.14975080567E+02  0.11008526056E+03  0.14980129444E+03  0.80419002446E+02 0. -1.
<mgrwt>
<rscale>  0 0.10159559E+03</rscale>
<asrwt>0</asrwt>
<pdfrwt beam="1">  1        2 0.35153501E+00 0.10159559E+03</pdfrwt>
<pdfrwt beam="2">  1       -2 0.32392950E-02 0.10159559E+03</pdfrwt>
<totfact> 0.20137494E+03</totfact>
</mgrwt>
</event>
<event>
 4    1  0.5074571E-001  0.8162702E+02  0.7546771E-02  0.1324497E+00
         -4   -1    0    0    0  501 -0.00000000000E+00  0.00000000000E+00  0.28028125988E+03  0.28028125988E+03  0.00000000000E+00 0.  1.
          4   -1    0    0  501    0  0.00000000000E+00 -0.00000000000E+00 -0.33718655414E+02  0.33718655414E+02  0.00000000000E+00 0. -1.
         24    1    1    2    0    0  0.13839575774E+02  0.20545910850E+01  0.38011902160E+02  0.90043744160E+02  0.80419002446E+02 0.  0.
        -24    1    1    2    0    0 -0.13839575774E+02 -0.20545910850E+01  0.20855070231E+03  0.22395617113E+03  0.80419002446E+02 0.  1.
<mgrwt>
<rscale>  0 0.81627025E+02</rscale>
<asrwt>0</asrwt>
<pdfrwt beam="1">  1        4 0.51874856E-02 0.81627025E+02</pdfrwt>
<pdfrwt beam="2">  1       -4 0.43120192E-01 0.81627025E+02</pdfrwt>
<totfact> 0.17099452E+03</totfact>
</mgrwt>
</event>
<event>
 4    1  0.5074571E-001  0.1381149E+03  0.7546771E-02  0.1215888E+00
         -1   -1    0    0    0  501 -0.00000000000E+00  0.00000000000E+00  0.14323458306E+02  0.14323458306E+02  0.00000000000E+00 0.  1.
          1   -1    0    0  501    0  0.00000000000E+00 -0.00000000000E+00 -0.15880734315E+04  0.15880734315E+04  0.00000000000E+00 0. -1.
         24    1    1    2    0    0  0.93923537340E+02  0.61537606581E+02 -0.46501139194E+03  0.48508897996E+03  0.80419002446E+02 0.  1.
        -24    1    1    2    0    0 -0.93923537340E+02 -0.61537606581E+02 -0.11087385813E+04  0.11173079099E+04  0.80419002446E+02 0. -1.
<mgrwt>
<rscale>  0 0.13811489E+03</rscale>
<asrwt>0</asrwt>
<pdfrwt beam="1">  1        1 0.24431882E+00 0.13811489E+03</pdfrwt>
<pdfrwt beam="2">  1       -1 0.22036105E-02 0.13811489E+03</pdfrwt>
<totfact> 0.36835788E+03</totfact>
</mgrwt>
</event>
<event>
 4    1  0.5074571E-001  0.1118586E+03  0.7546771E-02  0.1257166E+00
          1   -1    0    0  501    0  0.00000000000E+00  0.00000000000E+00  0.44751576823E+02  0.44751576823E+02  0.00000000000E+00 0. -1.
         -1   -1    0    0    0  501 -0.00000000000E+00 -0.00000000000E+00 -0.30802796243E+03  0.30802796243E+03  0.00000000000E+00 0.  1.
         24    1    1    2    0    0  0.48931707547E+02  0.60422006633E+02 -0.78048125206E+02  0.13639595555E+03  0.80419002446E+02 0.  1.
        -24    1    1    2    0    0 -0.48931707547E+02 -0.60422006633E+02 -0.18522826040E+03  0.21638358370E+03  0.80419002446E+02 0. -1.
<mgrwt>
<rscale>  0 0.11185862E+03</rscale>
<asrwt>0</asrwt>
<pdfrwt beam="1">  1        1 0.68848580E-02 0.11185863E+03</pdfrwt>
<pdfrwt beam="2">  1       -1 0.47388917E-01 0.11185863E+03</pdfrwt>
<totfact> 0.45724276E+03</totfact>
</mgrwt>
</event>
<event>
 4    1  0.5074571E-001  0.1302584E+03  0.7546771E-02  0.1227073E+00
         -2   -1    0    0    0  501 -0.00000000000E+00  0.00000000000E+00  0.53320459181E+03  0.53320459181E+03  0.00000000000E+00 0.  1.
          2   -1    0    0  501    0  0.00000000000E+00 -0.00000000000E+00 -0.36653690169E+02  0.36653690169E+02  0.00000000000E+00 0. -1.
         24    1    1    2    0    0 -0.94585890592E+02 -0.39414968091E+02  0.14481831806E+03  0.19478088102E+03  0.80419002446E+02 0. -1.
        -24    1    1    2    0    0  0.94585890592E+02  0.39414968091E+02  0.35173258357E+03  0.37507740096E+03  0.80419002446E+02 0.  1.
<mgrwt>
<rscale>  0 0.13025838E+03</rscale>
<asrwt>0</asrwt>
<pdfrwt beam="1">  1        2 0.56390296E-02 0.13025838E+03</pdfrwt>
<pdfrwt beam="2">  1       -2 0.82031470E-01 0.13025838E+03</pdfrwt>
<totfact> 0.17364940E+03</totfact>
</mgrwt>
</event>
<event>
 4    1  0.5074571E-001  0.8188518E+02  0.7546771E-02  0.1323785E+00
          2   -1    0    0  501    0  0.00000000000E+00  0.00000000000E+00  0.78469484992E+03  0.78469484992E+03  0.00000000000E+00 0. -1.
         -2   -1    0    0    0  501 -0.00000000000E+00 -0.00000000000E+00 -0.19035151904E+02  0.19035151904E+02  0.00000000000E+00 0.  1.
         24    1    1    2    0    0 -0.13223827177E+02 -0.79433909673E+01  0.68115770633E+03  0.68606195341E+03  0.80419002446E+02 0. -1.
        -24    1    1    2    0    0  0.13223827177E+02  0.79433909673E+01  0.84501991688E+02  0.11766804842E+03  0.80419002446E+02 0.  0.
<mgrwt>
<rscale>  0 0.81885182E+02</rscale>
<asrwt>0</asrwt>
<pdfrwt beam="1">  1        2 0.12072226E+00 0.81885182E+02</pdfrwt>
<pdfrwt beam="2">  1       -2 0.29284855E-02 0.81885182E+02</pdfrwt>
<totfact> 0.14620721E+04</totfact>
</mgrwt>
</event>
<event>
 4    1  0.5074571E-001  0.8052548E+02  0.7546771E-02  0.1327567E+00
         -1   -1    0    0    0  501 -0.00000000000E+00  0.00000000000E+00  0.15956008601E+03  0.15956008601E+03  0.00000000000E+00 0.  1.
          1   -1    0    0  501    0  0.00000000000E+00 -0.00000000000E+00 -0.43813638262E+02  0.43813638262E+02  0.00000000000E+00 0. -1.
         24    1    1    2    0    0 -0.41391002792E+01 -0.43212605450E-01  0.30500840783E+02  0.86108369287E+02  0.80419002446E+02 0.  0.
        -24    1    1    2    0    0  0.41391002792E+01  0.43212605450E-01  0.85245606964E+02  0.11726535498E+03  0.80419002446E+02 0.  1.
<mgrwt>
<rscale>  0 0.80525472E+02</rscale>
<asrwt>0</asrwt>
<pdfrwt beam="1">  1        1 0.67405598E-02 0.80525482E+02</pdfrwt>
<pdfrwt beam="2">  1       -1 0.24547705E-01 0.80525482E+02</pdfrwt>
<totfact> 0.13948116E+04</totfact>
</mgrwt>
</event>
<event>
 4    1  0.5074571E-001  0.1572891E+03  0.7546771E-02  0.1191792E+00
         -3   -1    0    0    0  501 -0.00000000000E+00  0.00000000000E+00  0.50102775005E+03  0.50102775005E+03  0.00000000000E+00 0.  1.
          3   -1    0    0  501    0  0.00000000000E+00 -0.00000000000E+00 -0.12114588917E+03  0.12114588917E+03  0.00000000000E+00 0. -1.
         24    1    1    2    0    0 -0.89471821638E+02  0.10132841472E+03  0.42937812675E+03  0.45728048962E+03  0.80419002446E+02 0.  1.
        -24    1    1    2    0    0  0.89471821638E+02 -0.10132841472E+03 -0.49496265862E+02  0.16489314960E+03  0.80419002446E+02 0. -1.
<mgrwt>
<rscale>  0 0.15728913E+03</rscale>
<asrwt>0</asrwt>
<pdfrwt beam="1">  1        3 0.18637829E-01 0.15728913E+03</pdfrwt>
<pdfrwt beam="2">  1       -3 0.77081191E-01 0.15728913E+03</pdfrwt>
<totfact> 0.98138857E+01</totfact>
</mgrwt>
</event>
<event>
 4    1  0.5074571E-001  0.8208267E+02  0.7546771E-02  0.1323243E+00
          1   -1    0    0  501    0  0.00000000000E+00  0.00000000000E+00  0.42511654184E+02  0.42511654184E+02  0.00000000000E+00 0. -1.
         -1   -1    0    0    0  501 -0.00000000000E+00 -0.00000000000E+00 -0.28551732495E+03  0.28551732495E+03  0.00000000000E+00 0.  1.
         24    1    1    2    0    0  0.16185752917E+02 -0.28929846250E+01 -0.23090323518E+03  0.24505890706E+03  0.80419002446E+02 0.  1.
        -24    1    1    2    0    0 -0.16185752917E+02  0.28929846250E+01 -0.12102435578E+02  0.82970072067E+02  0.80419002446E+02 0. -1.
<mgrwt>
<rscale>  0 0.82082665E+02</rscale>
<asrwt>0</asrwt>
<pdfrwt beam="1">  1        1 0.65402545E-02 0.82082665E+02</pdfrwt>
<pdfrwt beam="2">  1       -1 0.43925742E-01 0.82082665E+02</pdfrwt>
<totfact> 0.54715386E+03</totfact>
</mgrwt>
</event>
<event>
 4    1  0.5074571E-001  0.9156521E+02  0.7546771E-02  0.1299105E+00
          2   -1    0    0  501    0  0.00000000000E+00  0.00000000000E+00  0.31368361405E+02  0.31368361405E+02  0.00000000000E+00 0. -1.
         -2   -1    0    0    0  501 -0.00000000000E+00 -0.00000000000E+00 -0.10232550508E+04  0.10232550508E+04  0.00000000000E+00 0.  1.
         24    1    1    2    0    0 -0.20044352120E+02  0.38925510905E+02 -0.42702832701E+02  0.10103325852E+03  0.80419002446E+02 0. -1.
        -24    1    1    2    0    0  0.20044352120E+02 -0.38925510905E+02 -0.94918385666E+03  0.95359015365E+03  0.80419002446E+02 0.  1.
<mgrwt>
<rscale>  0 0.91565208E+02</rscale>
<asrwt>0</asrwt>
<pdfrwt beam="1">  1        2 0.48259016E-02 0.91565208E+02</pdfrwt>
<pdfrwt beam="2">  1       -2 0.15742386E+00 0.91565208E+02</pdfrwt>
<totfact> 0.44549817E+02</totfact>
</mgrwt>
</event>
<event>
 4    1  0.5074571E-001  0.9625251E+02  0.7546771E-02  0.1288380E+00
         -2   -1    0    0    0  501 -0.00000000000E+00  0.00000000000E+00  0.14006786495E+03  0.14006786495E+03  0.00000000000E+00 0.  1.
          2   -1    0    0  501    0  0.00000000000E+00 -0.00000000000E+00 -0.14796344459E+03  0.14796344459E+03  0.00000000000E+00 0. -1.
         24    1    1    2    0    0 -0.17897843441E+01  0.52859488246E+02 -0.11104119366E+03  0.14695132347E+03  0.80419002446E+02 0. -1.
        -24    1    1    2    0    0  0.17897843441E+01 -0.52859488246E+02  0.10314561402E+03  0.14107998608E+03  0.80419002446E+02 0.  1.
<mgrwt>
<rscale>  0 0.96252505E+02</rscale>
<asrwt>0</asrwt>
<pdfrwt beam="1">  1        2 0.22763607E-01 0.96252505E+02</pdfrwt>
<pdfrwt beam="2">  1       -2 0.21548902E-01 0.96252505E+02</pdfrwt>
<totfact> 0.41408872E+03</totfact>
</mgrwt>
</event>
<event>
 4    1  0.5074571E-001  0.1025215E+03  0.7546771E-02  0.1275081E+00
         -2   -1    0    0    0  501 -0.00000000000E+00  0.00000000000E+00  0.16748596627E+03  0.16748596627E+03  0.00000000000E+00 0.  1.
          2   -1    0    0  501    0  0.00000000000E+00 -0.00000000000E+00 -0.91077213099E+03  0.91077213099E+03  0.00000000000E+00 0. -1.
         24    1    1    2    0    0  0.61868266709E+02 -0.14688507149E+02 -0.89186671052E+03  0.89773987321E+03  0.80419002446E+02 0. -1.
        -24    1    1    2    0    0 -0.61868266709E+02  0.14688507149E+02  0.14858054580E+03  0.18051822405E+03  0.80419002446E+02 0.  1.
<mgrwt>
<rscale>  0 0.10252146E+03</rscale>
<asrwt>0</asrwt>
<pdfrwt beam="1">  1        2 0.14011879E+00 0.10252146E+03</pdfrwt>
<pdfrwt beam="2">  1       -2 0.25767072E-01 0.10252146E+03</pdfrwt>
<totfact> 0.41386495E+02</totfact>
</mgrwt>
</event>
<event>
 4    1  0.5074571E-001  0.9984360E+02  0.7546771E-02  0.1280625E+00
         -2   -1    0    0    0  501 -0.00000000000E+00  0.00000000000E+00  0.99038618290E+01  0.99038618290E+01  0.00000000000E+00 0.  1.
          2   -1    0    0  501    0  0.00000000000E+00 -0.00000000000E+00 -0.31692848738E+04  0.31692848738E+04  0.00000000000E+00 0. -1.
         24    1    1    2    0    0  0.22444144517E+02  0.54752069100E+02 -0.28928188964E+04  0.28945413992E+04  0.80419002446E+02 0.  0.
        -24    1    1    2    0    0 -0.22444144517E+02 -0.54752069100E+02 -0.26656211565E+03  0.28464733645E+03  0.80419002446E+02 0.  0.
<mgrwt>
<rscale>  0 0.99843601E+02</rscale>
<asrwt>0</asrwt>
<pdfrwt beam="1">  1        2 0.48758276E+00 0.99843601E+02</pdfrwt>
<pdfrwt beam="2">  1       -2 0.15236696E-02 0.99843601E+02</pdfrwt>
<totfact> 0.19646689E+03</totfact>
</mgrwt>
</event>
<event>
 4    1  0.5074571E-001  0.8108503E+02  0.7546771E-02  0.1326000E+00
         -2   -1    0    0    0  501 -0.00000000000E+00  0.00000000000E+00  0.18446836946E+02  0.18446836946E+02  0.00000000000E+00 0.  1.
          2   -1    0    0  501    0  0.00000000000E+00 -0.00000000000E+00 -0.65224734964E+03  0.65224734964E+03  0.00000000000E+00 0. -1.
         24    1    1    2    0    0 -0.10339676237E+02 -0.81072898913E+00 -0.54274454761E+03  0.54876809866E+03  0.80419002446E+02 0.  0.
        -24    1    1    2    0    0  0.10339676237E+02  0.81072898913E+00 -0.91055965080E+02  0.12192608793E+03  0.80419002446E+02 0.  1.
<mgrwt>
<rscale>  0 0.81085030E+02</rscale>
<asrwt>0</asrwt>
<pdfrwt beam="1">  1        2 0.10034574E+00 0.81085030E+02</pdfrwt>
<pdfrwt beam="2">  1       -2 0.28379752E-02 0.81085030E+02</pdfrwt>
<totfact> 0.18977416E+04</totfact>
</mgrwt>
</event>
<event>
 4    1  0.5074571E-001  0.9149490E+02  0.7546771E-02  0.1299271E+00
          2   -1    0    0  501    0  0.00000000000E+00  0.00000000000E+00  0.68982259074E+02  0.68982259074E+02  0.00000000000E+00 0. -1.
         -2   -1    0    0    0  501 -0.00000000000E+00 -0.00000000000E+00 -0.25328666525E+03  0.25328666525E+03  0.00000000000E+00 0.  1.
         24    1    1    2    0    0  0.51994772047E+01 -0.43325121903E+02  0.24141820732E+02  0.94626339957E+02  0.80419002446E+02 0.  0.
        -24    1    1    2    0    0 -0.51994772047E+01  0.43325121903E+02 -0.20844622691E+03  0.22764258437E+03  0.80419002446E+02 0.  0.
<mgrwt>
<rscale>  0 0.91494900E+02</rscale>
<asrwt>0</asrwt>
<pdfrwt beam="1">  1        2 0.10612655E-01 0.91494900E+02</pdfrwt>
<pdfrwt beam="2">  1       -2 0.38967180E-01 0.91494900E+02</pdfrwt>
<totfact> 0.34736822E+03</totfact>
</mgrwt>
</event>
<event>
 4    1  0.5074571E-001  0.8640264E+02  0.7546771E-02  0.1311805E+00
         -1   -1    0    0    0  501 -0.00000000000E+00  0.00000000000E+00  0.17790943216E+03  0.17790943216E+03  0.00000000000E+00 0.  1.
          1   -1    0    0  501    0  0.00000000000E+00 -0.00000000000E+00 -0.49900188939E+02  0.49900188939E+02  0.00000000000E+00 0. -1.
         24    1    1    2    0    0 -0.31585407870E+02  0.75011108960E+00  0.10943586314E+03  0.13943322686E+03  0.80419002446E+02 0.  1.
        -24    1    1    2    0    0  0.31585407870E+02 -0.75011108960E+00  0.18573380083E+02  0.88376394241E+02  0.80419002446E+02 0. -1.
<mgrwt>
<rscale>  0 0.86402642E+02</rscale>
<asrwt>0</asrwt>
<pdfrwt beam="1">  1        1 0.76769522E-02 0.86402642E+02</pdfrwt>
<pdfrwt beam="2">  1       -1 0.27370682E-01 0.86402642E+02</pdfrwt>
<totfact> 0.99030601E+03</totfact>
</mgrwt>
</event>
<event>
 4    1  0.5074571E-001  0.9590957E+02  0.7546771E-02  0.1289141E+00
          2   -1    0    0  501    0  0.00000000000E+00  0.00000000000E+00  0.33950084846E+03  0.33950084846E+03  0.00000000000E+00 0. -1.
         -2   -1    0    0    0  501 -0.00000000000E+00 -0.00000000000E+00 -0.27919738668E+02  0.27919738668E+02  0.00000000000E+00 0.  1.
         24    1    1    2    0    0  0.44388055116E+02  0.27588578919E+02  0.18737237160E+03  0.21049240062E+03  0.80419002446E+02 0. -1.
        -24    1    1    2    0    0 -0.44388055116E+02 -0.27588578919E+02  0.12420873819E+03  0.15692818651E+03  0.80419002446E+02 0.  1.
<mgrwt>
<rscale>  0 0.95909567E+02</rscale>
<asrwt>0</asrwt>
<pdfrwt beam="1">  1        2 0.52230897E-01 0.95909567E+02</pdfrwt>
<pdfrwt beam="2">  1       -2 0.42953446E-02 0.95909567E+02</pdfrwt>
<totfact> 0.21285342E+04</totfact>
</mgrwt>
</event>
<event>
 4    1  0.5074571E-001  0.9509531E+02  0.7546771E-02  0.1290962E+00
          1   -1    0    0  501    0  0.00000000000E+00  0.00000000000E+00  0.28655674581E+02  0.28655674581E+02  0.00000000000E+00 0. -1.
         -1   -1    0    0    0  501 -0.00000000000E+00 -0.00000000000E+00 -0.48922922844E+03  0.48922922844E+03  0.00000000000E+00 0.  1.
         24    1    1    2    0    0 -0.45150143430E+02  0.23181175992E+02 -0.38455810151E+03  0.39614145424E+03  0.80419002446E+02 0.  1.
        -24    1    1    2    0    0  0.45150143430E+02 -0.23181175992E+02 -0.76015452351E+02  0.12174344879E+03  0.80419002446E+02 0. -1.
<mgrwt>
<rscale>  0 0.95095312E+02</rscale>
<asrwt>0</asrwt>
<pdfrwt beam="1">  1        1 0.44085656E-02 0.95095312E+02</pdfrwt>
<pdfrwt beam="2">  1       -1 0.75266030E-01 0.95095312E+02</pdfrwt>
<totfact> 0.34467734E+03</totfact>
</mgrwt>
</event>
<event>
 4    1  0.5074571E-001  0.1011325E+03  0.7546771E-02  0.1277932E+00
         -2   -1    0    0    0  501 -0.00000000000E+00  0.00000000000E+00  0.25148311787E+02  0.25148311787E+02  0.00000000000E+00 0.  1.
          2   -1    0    0  501    0  0.00000000000E+00 -0.00000000000E+00 -0.70806412233E+03  0.70806412233E+03  0.00000000000E+00 0. -1.
         24    1    1    2    0    0  0.28668266369E+02  0.54209832331E+02 -0.58062976445E+03  0.58937145735E+03  0.80419002446E+02 0. -1.
        -24    1    1    2    0    0 -0.28668266369E+02 -0.54209832331E+02 -0.10228604609E+03  0.14384097677E+03  0.80419002446E+02 0.  1.
<mgrwt>
<rscale>  0 0.10113254E+03</rscale>
<asrwt>0</asrwt>
<pdfrwt beam="1">  1        2 0.10893296E+00 0.10113254E+03</pdfrwt>
<pdfrwt beam="2">  1       -2 0.38689704E-02 0.10113254E+03</pdfrwt>
<totfact> 0.11189090E+04</totfact>
</mgrwt>
</event>
<event>
 4    1  0.5074571E-001  0.8164706E+02  0.7546771E-02  0.1324441E+00
         -3   -1    0    0    0  501 -0.00000000000E+00  0.00000000000E+00  0.79568975066E+02  0.79568975066E+02  0.00000000000E+00 0.  1.
          3   -1    0    0  501    0  0.00000000000E+00 -0.00000000000E+00 -0.20046291155E+03  0.20046291155E+03  0.00000000000E+00 0. -1.
         24    1    1    2    0    0 -0.11500511238E+02 -0.81709614766E+01  0.46376134414E+02  0.93898818777E+02  0.80419002446E+02 0.  1.
        -24    1    1    2    0    0  0.11500511238E+02  0.81709614766E+01 -0.16727007090E+03  0.18613306784E+03  0.80419002446E+02 0. -1.
<mgrwt>
<rscale>  0 0.81647059E+02</rscale>
<asrwt>0</asrwt>
<pdfrwt beam="1">  1        3 0.30840448E-01 0.81647059E+02</pdfrwt>
<pdfrwt beam="2">  1       -3 0.12241381E-01 0.81647059E+02</pdfrwt>
<totfact> 0.11257961E+03</totfact>
</mgrwt>
</event>
<event>
 4    1  0.5074571E-001  0.9368443E+02  0.7546771E-02  0.1294167E+00
         -2   -1    0    0    0  501 -0.00000000000E+00  0.00000000000E+00  0.87740428435E+01  0.87740428435E+01  0.00000000000E+00 0.  1.
          2   -1    0    0  501    0  0.00000000000E+00 -0.00000000000E+00 -0.11124449463E+04  0.11124449463E+04  0.00000000000E+00 0. -1.
         24    1    1    2    0    0 -0.34020972157E+02  0.33942980061E+02 -0.37384756817E+03  0.38540728149E+03  0.80419002446E+02 0.  0.
        -24    1    1    2    0    0  0.34020972157E+02 -0.33942980061E+02 -0.72982333530E+03  0.73581170767E+03  0.80419002446E+02 0. -1.
<mgrwt>
<rscale>  0 0.93684420E+02</rscale>
<asrwt>0</asrwt>
<pdfrwt beam="1">  1        2 0.17114535E+00 0.93684432E+02</pdfrwt>
<pdfrwt beam="2">  1       -2 0.13498529E-02 0.93684432E+02</pdfrwt>
<totfact> 0.28480278E+04</totfact>
</mgrwt>
</event>
<event>
 4    1  0.5074571E-001  0.9221892E+02  0.7546771E-02  0.1297566E+00
          2   -1    0    0  501    0  0.00000000000E+00  0.00000000000E+00  0.14323666207E+04  0.14323666207E+04  0.00000000000E+00 0. -1.
         -2   -1    0    0    0  501 -0.00000000000E+00 -0.00000000000E+00 -0.14857339619E+02  0.14857339619E+02  0.00000000000E+00 0.  1.
         24    1    1    2    0    0  0.44522027240E+02  0.74095504389E+01  0.12694405848E+04  0.12727858133E+04  0.80419002446E+02 0. -1.
        -24    1    1    2    0    0 -0.44522027240E+02 -0.74095504389E+01  0.14806869626E+03  0.17443814695E+03  0.80419002446E+02 0.  1.
<mgrwt>
<rscale>  0 0.92218915E+02</rscale>
<asrwt>0</asrwt>
<pdfrwt beam="1">  1        2 0.22036399E+00 0.92218915E+02</pdfrwt>
<pdfrwt beam="2">  1       -2 0.22857457E-02 0.92218915E+02</pdfrwt>
<totfact> 0.90211637E+03</totfact>
</mgrwt>
</event>
<event>
 4    1  0.5074571E-001  0.8829090E+02  0.7546771E-02  0.1307044E+00
          1   -1    0    0  501    0  0.00000000000E+00  0.00000000000E+00  0.10196740807E+02  0.10196740807E+02  0.00000000000E+00 0. -1.
         -1   -1    0    0    0  501 -0.00000000000E+00 -0.00000000000E+00 -0.88095667371E+03  0.88095667371E+03  0.00000000000E+00 0.  1.
         24    1    1    2    0    0  0.36322575136E+02  0.29552819284E+01 -0.27336653257E+03  0.28727084823E+03  0.80419002446E+02 0. -1.
        -24    1    1    2    0    0 -0.36322575136E+02 -0.29552819284E+01 -0.59739340032E+03  0.60388256628E+03  0.80419002446E+02 0.  0.
<mgrwt>
<rscale>  0 0.88290889E+02</rscale>
<asrwt>0</asrwt>
<pdfrwt beam="1">  1        1 0.15687295E-02 0.88290900E+02</pdfrwt>
<pdfrwt beam="2">  1       -1 0.13553178E+00 0.88290900E+02</pdfrwt>
<totfact> 0.38874115E+03</totfact>
</mgrwt>
</event>
<event>
 4    1  0.5074571E-001  0.9394243E+02  0.7546771E-02  0.1293576E+00
         -1   -1    0    0    0  501 -0.00000000000E+00  0.00000000000E+00  0.40245598115E+03  0.40245598115E+03  0.00000000000E+00 0.  1.
          1   -1    0    0  501    0  0.00000000000E+00 -0.00000000000E+00 -0.23471928557E+02  0.23471928557E+02  0.00000000000E+00 0. -1.
         24    1    1    2    0    0  0.40133739169E+02 -0.27335820474E+02  0.24410571656E+03  0.26155837000E+03  0.80419002446E+02 0.  1.
        -24    1    1    2    0    0 -0.40133739169E+02  0.27335820474E+02  0.13487833603E+03  0.16436953971E+03  0.80419002446E+02 0.  0.
<mgrwt>
<rscale>  0 0.93942429E+02</rscale>
<asrwt>0</asrwt>
<pdfrwt beam="1">  1        1 0.36110662E-02 0.93942429E+02</pdfrwt>
<pdfrwt beam="2">  1       -1 0.61916299E-01 0.93942429E+02</pdfrwt>
<totfact> 0.66028068E+03</totfact>
</mgrwt>
</event>
<event>
 4    1  0.5074571E-001  0.9406891E+02  0.7546771E-02  0.1293287E+00
          1   -1    0    0  501    0  0.00000000000E+00  0.00000000000E+00  0.45403891267E+02  0.45403891267E+02  0.00000000000E+00 0. -1.
         -1   -1    0    0    0  501 -0.00000000000E+00 -0.00000000000E+00 -0.19801550489E+03  0.19801550489E+03  0.00000000000E+00 0.  1.
         24    1    1    2    0    0 -0.29994193485E+02  0.38497947812E+02 -0.91586278491E+02  0.13128977870E+03  0.80419002446E+02 0.  1.
        -24    1    1    2    0    0  0.29994193485E+02 -0.38497947812E+02 -0.61025335130E+02  0.11212961746E+03  0.80419002446E+02 0. -1.
<mgrwt>
<rscale>  0 0.94068909E+02</rscale>
<asrwt>0</asrwt>
<pdfrwt beam="1">  1        1 0.69852141E-02 0.94068909E+02</pdfrwt>
<pdfrwt beam="2">  1       -1 0.30463924E-01 0.94068909E+02</pdfrwt>
<totfact> 0.94845197E+03</totfact>
</mgrwt>
</event>
<event>
 4    1  0.5074571E-001  0.8717077E+02  0.7546771E-02  0.1309851E+00
         -2   -1    0    0    0  501 -0.00000000000E+00  0.00000000000E+00  0.11960282106E+02  0.11960282106E+02  0.00000000000E+00 0.  1.
          2   -1    0    0  501    0  0.00000000000E+00 -0.00000000000E+00 -0.78777090174E+03  0.78777090174E+03  0.00000000000E+00 0. -1.
         24    1    1    2    0    0 -0.33155591487E+02  0.56774355642E+01 -0.56380410446E+03  0.57050312066E+03  0.80419002446E+02 0. -1.
        -24    1    1    2    0    0  0.33155591487E+02 -0.56774355642E+01 -0.21200651517E+03  0.22922806318E+03  0.80419002446E+02 0.  1.
<mgrwt>
<rscale>  0 0.87170766E+02</rscale>
<asrwt>0</asrwt>
<pdfrwt beam="1">  1        2 0.12119555E+00 0.87170766E+02</pdfrwt>
<pdfrwt beam="2">  1       -2 0.18400430E-02 0.87170766E+02</pdfrwt>
<totfact> 0.28575358E+04</totfact>
</mgrwt>
</event>
<event>
 4    1  0.5074571E-001  0.9315343E+02  0.7546771E-02  0.1295390E+00
          2   -1    0    0  501    0  0.00000000000E+00  0.00000000000E+00  0.18582492077E+04  0.18582492077E+04  0.00000000000E+00 0. -1.
         -2   -1    0    0    0  501 -0.00000000000E+00 -0.00000000000E+00 -0.21014557655E+02  0.21014557655E+02  0.00000000000E+00 0.  1.
         24    1    1    2    0    0 -0.47014032364E+02  0.15952637665E+00  0.17472985800E+04  0.17497799542E+04  0.80419002446E+02 0. -1.
        -24    1    1    2    0    0  0.47014032364E+02 -0.15952637665E+00  0.89936070050E+02  0.12948381110E+03  0.80419002446E+02 0.  1.
<mgrwt>
<rscale>  0 0.93153425E+02</rscale>
<asrwt>0</asrwt>
<pdfrwt beam="1">  1        2 0.28588436E+00 0.93153425E+02</pdfrwt>
<pdfrwt beam="2">  1       -2 0.32330103E-02 0.93153425E+02</pdfrwt>
<totfact> 0.33225710E+03</totfact>
</mgrwt>
</event>
<event>
 4    1  0.5074571E-001  0.8217120E+02  0.7546771E-02  0.1323000E+00
         -1   -1    0    0    0  501 -0.00000000000E+00  0.00000000000E+00  0.16872582192E+02  0.16872582192E+02  0.00000000000E+00 0.  1.
          1   -1    0    0  501    0  0.00000000000E+00 -0.00000000000E+00 -0.71411249607E+03  0.71411249607E+03  0.00000000000E+00 0. -1.
         24    1    1    2    0    0 -0.14004257885E+01  0.16820501128E+02 -0.10628735723E+03  0.13434697135E+03  0.80419002446E+02 0.  1.
        -24    1    1    2    0    0  0.14004257885E+01 -0.16820501128E+02 -0.59095255665E+03  0.59663810691E+03  0.80419002446E+02 0.  0.
<mgrwt>
<rscale>  0 0.82171202E+02</rscale>
<asrwt>0</asrwt>
<pdfrwt beam="1">  1        1 0.10986344E+00 0.82171202E+02</pdfrwt>
<pdfrwt beam="2">  1       -1 0.25957823E-02 0.82171202E+02</pdfrwt>
<totfact> 0.11753426E+04</totfact>
</mgrwt>
</event>
<event>
 4    1  0.5074571E-001  0.9499732E+02  0.7546771E-02  0.1291182E+00
          1   -1    0    0  501    0  0.00000000000E+00  0.00000000000E+00  0.52842005721E+02  0.52842005721E+02  0.00000000000E+00 0. -1.
         -1   -1    0    0    0  501 -0.00000000000E+00 -0.00000000000E+00 -0.17935819737E+03  0.17935819737E+03  0.00000000000E+00 0.  1.
         24    1    1    2    0    0  0.22690340271E+02 -0.45193184599E+02 -0.88644778050E+02  0.12993224429E+03  0.80419002446E+02 0.  1.
        -24    1    1    2    0    0 -0.22690340271E+02  0.45193184599E+02 -0.37871413604E+02  0.10226795881E+03  0.80419002446E+02 0. -1.
<mgrwt>
<rscale>  0 0.94997323E+02</rscale>
<asrwt>0</asrwt>
<pdfrwt beam="1">  1        1 0.81295395E-02 0.94997323E+02</pdfrwt>
<pdfrwt beam="2">  1       -1 0.27593568E-01 0.94997323E+02</pdfrwt>
<totfact> 0.91404381E+03</totfact>
</mgrwt>
</event>
<event>
 4    1  0.5074571E-001  0.9002400E+02  0.7546771E-02  0.1302794E+00
          2   -1    0    0  501    0  0.00000000000E+00  0.00000000000E+00  0.54233744241E+03  0.54233744241E+03  0.00000000000E+00 0. -1.
         -2   -1    0    0    0  501 -0.00000000000E+00 -0.00000000000E+00 -0.17540986813E+02  0.17540986813E+02  0.00000000000E+00 0.  1.
         24    1    1    2    0    0 -0.11027787877E+02 -0.38929326172E+02  0.37012624733E+03  0.38091699812E+03  0.80419002446E+02 0. -1.
        -24    1    1    2    0    0  0.11027787877E+02  0.38929326172E+02  0.15467020827E+03  0.17896143110E+03  0.80419002446E+02 0.  1.
<mgrwt>
<rscale>  0 0.90024000E+02</rscale>
<asrwt>0</asrwt>
<pdfrwt beam="1">  1        2 0.83436517E-01 0.90024000E+02</pdfrwt>
<pdfrwt beam="2">  1       -2 0.26986138E-02 0.90024000E+02</pdfrwt>
<totfact> 0.25340597E+04</totfact>
</mgrwt>
</event>
<event>
 4    1  0.5074571E-001  0.8113659E+02  0.7546771E-02  0.1325857E+00
          1   -1    0    0  501    0  0.00000000000E+00  0.00000000000E+00  0.53235344701E+03  0.53235344701E+03  0.00000000000E+00 0. -1.
         -1   -1    0    0    0  501 -0.00000000000E+00 -0.00000000000E+00 -0.20073566539E+02  0.20073566539E+02  0.00000000000E+00 0.  1.
         24    1    1    2    0    0 -0.25266098037E+01  0.10466480026E+02  0.84985612523E+02  0.11749766488E+03  0.80419002446E+02 0.  1.
        -24    1    1    2    0    0  0.25266098037E+01 -0.10466480026E+02  0.42729426794E+03  0.43492934867E+03  0.80419002446E+02 0. -1.
<mgrwt>
<rscale>  0 0.81136594E+02</rscale>
<asrwt>0</asrwt>
<pdfrwt beam="1">  1        1 0.81900519E-01 0.81136594E+02</pdfrwt>
<pdfrwt beam="2">  1       -1 0.30882414E-02 0.81136594E+02</pdfrwt>
<totfact> 0.13594818E+04</totfact>
</mgrwt>
</event>
<event>
 4    1  0.5074571E-001  0.9243084E+02  0.7546771E-02  0.1297070E+00
         -2   -1    0    0    0  501 -0.00000000000E+00  0.00000000000E+00  0.10449099787E+03  0.10449099787E+03  0.00000000000E+00 0.  1.
          2   -1    0    0  501    0  0.00000000000E+00 -0.00000000000E+00 -0.11651717215E+03  0.11651717215E+03  0.00000000000E+00 0. -1.
         24    1    1    2    0    0 -0.12804636811E+02 -0.43729696365E+02 -0.66364719019E+02  0.11378812307E+03  0.80419002446E+02 0. -1.
        -24    1    1    2    0    0  0.12804636811E+02  0.43729696365E+02  0.54338544744E+02  0.10722004695E+03  0.80419002446E+02 0.  1.
<mgrwt>
<rscale>  0 0.92430845E+02</rscale>
<asrwt>0</asrwt>
<pdfrwt beam="1">  1        2 0.17925719E-01 0.92430845E+02</pdfrwt>
<pdfrwt beam="2">  1       -2 0.16075538E-01 0.92430845E+02</pdfrwt>
<totfact> 0.87733965E+03</totfact>
</mgrwt>
</event>
<event>
 4    1  0.5074571E-001  0.1661604E+03  0.7546771E-02  0.1181912E+00
         -2   -1    0    0    0  501 -0.00000000000E+00  0.00000000000E+00  0.52060556318E+02  0.52060556318E+02  0.00000000000E+00 0.  1.
          2   -1    0    0  501    0  0.00000000000E+00 -0.00000000000E+00 -0.53691068662E+03  0.53691068662E+03  0.00000000000E+00 0. -1.
         24    1    1    2    0    0  0.27876733516E+02  0.14270586877E+03 -0.27502652352E+03  0.32132364035E+03  0.80419002446E+02 0. -1.
        -24    1    1    2    0    0 -0.27876733516E+02 -0.14270586877E+03 -0.20982360678E+03  0.26764760259E+03  0.80419002446E+02 0.  1.
<mgrwt>
<rscale>  0 0.16616044E+03</rscale>
<asrwt>0</asrwt>
<pdfrwt beam="1">  1        2 0.82601646E-01 0.16616044E+03</pdfrwt>
<pdfrwt beam="2">  1       -2 0.80093162E-02 0.16616044E+03</pdfrwt>
<totfact> 0.52772081E+03</totfact>
</mgrwt>
</event>
<event>
 4    1  0.5074571E-001  0.8101414E+02  0.7546771E-02  0.1326198E+00
         -1   -1    0    0    0  501 -0.00000000000E+00  0.00000000000E+00  0.25241840407E+02  0.25241840407E+02  0.00000000000E+00 0.  1.
          1   -1    0    0  501    0  0.00000000000E+00 -0.00000000000E+00 -0.37352935271E+03  0.37352935271E+03  0.00000000000E+00 0. -1.
         24    1    1    2    0    0 -0.40166698936E+01 -0.89410102644E+01 -0.64229451457E+02  0.10338623550E+03  0.80419002446E+02 0.  0.
        -24    1    1    2    0    0  0.40166698936E+01  0.89410102644E+01 -0.28405806084E+03  0.29538495762E+03  0.80419002446E+02 0. -1.
<mgrwt>
<rscale>  0 0.81014142E+02</rscale>
<asrwt>0</asrwt>
<pdfrwt beam="1">  1        1 0.57466054E-01 0.81014142E+02</pdfrwt>
<pdfrwt beam="2">  1       -1 0.38833601E-02 0.81014142E+02</pdfrwt>
<totfact> 0.15251531E+04</totfact>
</mgrwt>
</event>
<event>
 4    1  0.5074571E-001  0.8568454E+02  0.7546771E-02  0.1313652E+00
          1   -1    0    0  501    0  0.00000000000E+00  0.00000000000E+00  0.25454248729E+04  0.25454248729E+04  0.00000000000E+00 0. -1.
         -1   -1    0    0    0  501 -0.00000000000E+00 -0.00000000000E+00 -0.35953338019E+01  0.35953338019E+01  0.00000000000E+00 0.  1.
         24    1    1    2    0    0 -0.26979125139E+02  0.12113940128E+02  0.18376897501E+04  0.18396862380E+04  0.80419002446E+02 0.  0.
        -24    1    1    2    0    0  0.26979125139E+02 -0.12113940128E+02  0.70413978901E+03  0.70933396871E+03  0.80419002446E+02 0.  1.
<mgrwt>
<rscale>  0 0.85684529E+02</rscale>
<asrwt>0</asrwt>
<pdfrwt beam="1">  1        1 0.39160239E+00 0.85684540E+02</pdfrwt>
<pdfrwt beam="2">  1       -1 0.55313031E-03 0.85684540E+02</pdfrwt>
<totfact> 0.63795593E+03</totfact>
</mgrwt>
</event>
<event>
 4    1  0.5074571E-001  0.1097442E+03  0.7546771E-02  0.1261044E+00
          2   -1    0    0  501    0  0.00000000000E+00  0.00000000000E+00  0.15166567831E+02  0.15166567831E+02  0.00000000000E+00 0. -1.
         -2   -1    0    0    0  501 -0.00000000000E+00 -0.00000000000E+00 -0.11576213533E+04  0.11576213533E+04  0.00000000000E+00 0.  1.
         24    1    1    2    0    0  0.11018725104E+02 -0.73859007120E+02 -0.24262493576E+03  0.26629051925E+03  0.80419002446E+02 0. -1.
        -24    1    1    2    0    0 -0.11018725104E+02  0.73859007120E+02 -0.89982984975E+03  0.90649740192E+03  0.80419002446E+02 0.  1.
<mgrwt>
<rscale>  0 0.10974416E+03</rscale>
<asrwt>0</asrwt>
<pdfrwt beam="1">  1        2 0.23333182E-02 0.10974416E+03</pdfrwt>
<pdfrwt beam="2">  1       -2 0.17809559E+00 0.10974416E+03</pdfrwt>
<totfact> 0.84996442E+02</totfact>
</mgrwt>
</event>
<event>
 4    1  0.5074571E-001  0.1701993E+03  0.7546771E-02  0.1177640E+00
         -2   -1    0    0    0  501 -0.00000000000E+00  0.00000000000E+00  0.12461774208E+02  0.12461774208E+02  0.00000000000E+00 0.  1.
          2   -1    0    0  501    0  0.00000000000E+00 -0.00000000000E+00 -0.25601098763E+04  0.25601098763E+04  0.00000000000E+00 0. -1.
         24    1    1    2    0    0 -0.13993857795E+03 -0.54016505529E+02 -0.16640126556E+04  0.16726942107E+04  0.80419002446E+02 0.  1.
        -24    1    1    2    0    0  0.13993857795E+03  0.54016505529E+02 -0.88363544645E+03  0.89987743979E+03  0.80419002446E+02 0. -1.
<mgrwt>
<rscale>  0 0.17019931E+03</rscale>
<asrwt>0</asrwt>
<pdfrwt beam="1">  1        2 0.39386343E+00 0.17019931E+03</pdfrwt>
<pdfrwt beam="2">  1       -2 0.19171942E-02 0.17019931E+03</pdfrwt>
<totfact> 0.30789595E+03</totfact>
</mgrwt>
</event>
<event>
 4    1  0.5074571E-001  0.1022663E+03  0.7546771E-02  0.1275601E+00
          2   -1    0    0  501    0  0.00000000000E+00  0.00000000000E+00  0.10719392382E+04  0.10719392382E+04  0.00000000000E+00 0. -1.
         -2   -1    0    0    0  501 -0.00000000000E+00 -0.00000000000E+00 -0.10272896516E+02  0.10272896516E+02  0.00000000000E+00 0.  1.
         24    1    1    2    0    0  0.15981768453E+01 -0.63155530622E+02  0.65215007646E+03  0.66011977201E+03  0.80419002446E+02 0. -1.
        -24    1    1    2    0    0 -0.15981768453E+01  0.63155530622E+02  0.40951626523E+03  0.42209236271E+03  0.80419002446E+02 0.  1.
<mgrwt>
<rscale>  0 0.10226628E+03</rscale>
<asrwt>0</asrwt>
<pdfrwt beam="1">  1        2 0.16491364E+00 0.10226628E+03</pdfrwt>
<pdfrwt beam="2">  1       -2 0.15804465E-02 0.10226628E+03</pdfrwt>
<totfact> 0.24149875E+04</totfact>
</mgrwt>
</event>
<event>
 4    1  0.5074571E-001  0.8278734E+02  0.7546771E-02  0.1321322E+00
         -2   -1    0    0    0  501 -0.00000000000E+00  0.00000000000E+00  0.11836697237E+03  0.11836697237E+03  0.00000000000E+00 0.  1.
          2   -1    0    0  501    0  0.00000000000E+00 -0.00000000000E+00 -0.82084766042E+03  0.82084766042E+03  0.00000000000E+00 0. -1.
         24    1    1    2    0    0  0.15226772563E+02  0.12436766983E+02 -0.80398176872E+03  0.80823290465E+03  0.80419002446E+02 0. -1.
        -24    1    1    2    0    0 -0.15226772563E+02 -0.12436766983E+02  0.10150108067E+03  0.13098172814E+03  0.80419002446E+02 0.  1.
<mgrwt>
<rscale>  0 0.82787340E+02</rscale>
<asrwt>0</asrwt>
<pdfrwt beam="1">  1        2 0.12628426E+00 0.82787340E+02</pdfrwt>
<pdfrwt beam="2">  1       -2 0.18210302E-01 0.82787340E+02</pdfrwt>
<totfact> 0.85115986E+02</totfact>
</mgrwt>
</event>
<event>
 4    1  0.5074571E-001  0.1083846E+03  0.7546771E-02  0.1263591E+00
         -2   -1    0    0    0  501 -0.00000000000E+00  0.00000000000E+00  0.74644944472E+02  0.74644944472E+02  0.00000000000E+00 0.  1.
          2   -1    0    0  501    0  0.00000000000E+00 -0.00000000000E+00 -0.15884017359E+03  0.15884017359E+03  0.00000000000E+00 0. -1.
         24    1    1    2    0    0  0.22437075075E+02  0.69112806412E+02 -0.53311414373E+02  0.12078627904E+03  0.80419002446E+02 0.  1.
        -24    1    1    2    0    0 -0.22437075075E+02 -0.69112806412E+02 -0.30883814742E+02  0.11269883902E+03  0.80419002446E+02 0. -1.
<mgrwt>
<rscale>  0 0.10838459E+03</rscale>
<asrwt>0</asrwt>
<pdfrwt beam="1">  1        2 0.24436950E-01 0.10838459E+03</pdfrwt>
<pdfrwt beam="2">  1       -2 0.11483838E-01 0.10838459E+03</pdfrwt>
<totfact> 0.10808676E+04</totfact>
</mgrwt>
</event>
<event>
 4    1  0.5074571E-001  0.9682135E+02  0.7546771E-02  0.1287126E+00
         -2   -1    0    0    0  501 -0.00000000000E+00  0.00000000000E+00  0.15575760053E+03  0.15575760053E+03  0.00000000000E+00 0.  1.
          2   -1    0    0  501    0  0.00000000000E+00 -0.00000000000E+00 -0.13472458508E+03  0.13472458508E+03  0.00000000000E+00 0. -1.
         24    1    1    2    0    0 -0.30490425092E+02  0.44468994695E+02 -0.97516794949E+02  0.13741869874E+03  0.80419002446E+02 0. -1.
        -24    1    1    2    0    0  0.30490425092E+02 -0.44468994695E+02  0.11854981040E+03  0.15306348687E+03  0.80419002446E+02 0.  1.
<mgrwt>
<rscale>  0 0.96821348E+02</rscale>
<asrwt>0</asrwt>
<pdfrwt beam="1">  1        2 0.20726859E-01 0.96821348E+02</pdfrwt>
<pdfrwt beam="2">  1       -2 0.23962708E-01 0.96821348E+02</pdfrwt>
<totfact> 0.38334867E+03</totfact>
</mgrwt>
</event>
<event>
 4    1  0.5074571E-001  0.8882415E+02  0.7546771E-02  0.1305724E+00
         -2   -1    0    0    0  501 -0.00000000000E+00  0.00000000000E+00  0.23776617343E+02  0.23776617343E+02  0.00000000000E+00 0.  1.
          2   -1    0    0  501    0  0.00000000000E+00 -0.00000000000E+00 -0.50746648941E+03  0.50746648941E+03  0.00000000000E+00 0. -1.
         24    1    1    2    0    0  0.13401835654E+02  0.35254842476E+02 -0.39811307006E+03  0.40790163719E+03  0.80419002446E+02 0. -1.
        -24    1    1    2    0    0 -0.13401835654E+02 -0.35254842476E+02 -0.85576802003E+02  0.12334146956E+03  0.80419002446E+02 0.  1.
<mgrwt>
<rscale>  0 0.88824147E+02</rscale>
<asrwt>0</asrwt>
<pdfrwt beam="1">  1        2 0.78071761E-01 0.88824147E+02</pdfrwt>
<pdfrwt beam="2">  1       -2 0.36579414E-02 0.88824147E+02</pdfrwt>
<totfact> 0.17471343E+04</totfact>
</mgrwt>
</event>
<event>
 4    1  0.5074571E-001  0.8450122E+02  0.7546771E-02  0.1316742E+00
          2   -1    0    0  501    0  0.00000000000E+00  0.00000000000E+00  0.96440681821E+03  0.96440681821E+03  0.00000000000E+00 0. -1.
         -2   -1    0    0    0  501 -0.00000000000E+00 -0.00000000000E+00 -0.13188602114E+02  0.13188602114E+02  0.00000000000E+00 0.  1.
         24    1    1    2    0    0  0.21564573690E+02  0.14429448509E+02  0.79932722431E+03  0.80378135541E+03  0.80419002446E+02 0. -1.
        -24    1    1    2    0    0 -0.21564573690E+02 -0.14429448509E+02  0.15189099178E+03  0.17381406491E+03  0.80419002446E+02 0.  0.
<mgrwt>
<rscale>  0 0.84501218E+02</rscale>
<asrwt>0</asrwt>
<pdfrwt beam="1">  1        2 0.14837023E+00 0.84501218E+02</pdfrwt>
<pdfrwt beam="2">  1       -2 0.20290165E-02 0.84501218E+02</pdfrwt>
<totfact> 0.19182504E+04</totfact>
</mgrwt>
</event>
<event>
 4    1  0.5074571E-001  0.9333544E+02  0.7546771E-02  0.1294970E+00
         -2   -1    0    0    0  501 -0.00000000000E+00  0.00000000000E+00  0.92379603083E+02  0.92379603083E+02  0.00000000000E+00 0.  1.
          2   -1    0    0  501    0  0.00000000000E+00 -0.00000000000E+00 -0.16851551575E+03  0.16851551575E+03  0.00000000000E+00 0. -1.
         24    1    1    2    0    0  0.97181134594E+01 -0.46366431598E+02 -0.12463647264E+03  0.15571048126E+03  0.80419002446E+02 0. -1.
        -24    1    1    2    0    0 -0.97181134594E+01  0.46366431598E+02  0.48500559975E+02  0.10518463757E+03  0.80419002446E+02 0.  1.
<mgrwt>
<rscale>  0 0.93335436E+02</rscale>
<asrwt>0</asrwt>
<pdfrwt beam="1">  1        2 0.25925464E-01 0.93335436E+02</pdfrwt>
<pdfrwt beam="2">  1       -2 0.14212247E-01 0.93335436E+02</pdfrwt>
<totfact> 0.71218877E+03</totfact>
</mgrwt>
</event>
<event>
 4    1  0.5074571E-001  0.1027751E+03  0.7546771E-02  0.1274566E+00
          2   -1    0    0  501    0  0.00000000000E+00  0.00000000000E+00  0.87639626761E+03  0.87639626761E+03  0.00000000000E+00 0. -1.
         -2   -1    0    0    0  501 -0.00000000000E+00 -0.00000000000E+00 -0.16902918508E+02  0.16902918508E+02  0.00000000000E+00 0.  1.
         24    1    1    2    0    0  0.54388203143E+02  0.33725932368E+02  0.66901074292E+03  0.67685899954E+03  0.80419002446E+02 0. -1.
        -24    1    1    2    0    0 -0.54388203143E+02 -0.33725932368E+02  0.19048260618E+03  0.21644018658E+03  0.80419002446E+02 0.  0.
<mgrwt>
<rscale>  0 0.10277515E+03</rscale>
<asrwt>0</asrwt>
<pdfrwt beam="1">  1        2 0.13483016E+00 0.10277515E+03</pdfrwt>
<pdfrwt beam="2">  1       -2 0.26004497E-02 0.10277515E+03</pdfrwt>
<totfact> 0.15428238E+04</totfact>
</mgrwt>
</event>
<event>
 4    1  0.5074571E-001  0.9030886E+02  0.7546771E-02  0.1302105E+00
         -2   -1    0    0    0  501 -0.00000000000E+00  0.00000000000E+00  0.66015650287E+03  0.66015650287E+03  0.00000000000E+00 0.  1.
          2   -1    0    0  501    0  0.00000000000E+00 -0.00000000000E+00 -0.12601434482E+02  0.12601434482E+02  0.00000000000E+00 0. -1.
         24    1    1    2    0    0 -0.34080631949E+02 -0.22956159149E+02  0.27665886155E+03  0.29102545652E+03  0.80419002446E+02 0.  1.
        -24    1    1    2    0    0  0.34080631949E+02  0.22956159149E+02  0.37089620684E+03  0.38173248083E+03  0.80419002446E+02 0. -1.
<mgrwt>
<rscale>  0 0.90308863E+02</rscale>
<asrwt>0</asrwt>
<pdfrwt beam="1">  1        2 0.19386827E-02 0.90308863E+02</pdfrwt>
<pdfrwt beam="2">  1       -2 0.10156251E+00 0.90308863E+02</pdfrwt>
<totfact> 0.43032842E+03</totfact>
</mgrwt>
</event>
<event>
 4    1  0.5074571E-001  0.9852267E+02  0.7546771E-02  0.1283434E+00
         -3   -1    0    0    0  501 -0.00000000000E+00  0.00000000000E+00  0.12201493453E+02  0.12201493453E+02  0.00000000000E+00 0.  1.
          3   -1    0    0  501    0  0.00000000000E+00 -0.00000000000E+00 -0.91348064023E+03  0.91348064023E+03  0.00000000000E+00 0. -1.
         24    1    1    2    0    0 -0.51114409241E+02 -0.25036335838E+02 -0.28432784157E+03  0.30091367265E+03  0.80419002446E+02 0.  0.
        -24    1    1    2    0    0  0.51114409241E+02  0.25036335838E+02 -0.61695130521E+03  0.62476846103E+03  0.80419002446E+02 0. -1.
<mgrwt>
<rscale>  0 0.98522672E+02</rscale>
<asrwt>0</asrwt>
<pdfrwt beam="1">  1        3 0.14053546E+00 0.98522672E+02</pdfrwt>
<pdfrwt beam="2">  1       -3 0.18771531E-02 0.98522672E+02</pdfrwt>
<totfact> 0.93222236E+02</totfact>
</mgrwt>
</event>
<event>
 4    1  0.5074571E-001  0.8882195E+02  0.7546771E-02  0.1305730E+00
          2   -1    0    0  501    0  0.00000000000E+00  0.00000000000E+00  0.14843027329E+03  0.14843027329E+03  0.00000000000E+00 0. -1.
         -2   -1    0    0    0  501 -0.00000000000E+00 -0.00000000000E+00 -0.12404282111E+03  0.12404282111E+03  0.00000000000E+00 0.  1.
         24    1    1    2    0    0 -0.32392904153E+02  0.19308621032E+02  0.11518569678E+03  0.14545474823E+03  0.80419002446E+02 0. -1.
        -24    1    1    2    0    0  0.32392904153E+02 -0.19308621032E+02 -0.90798244597E+02  0.12701834616E+03  0.80419002446E+02 0.  1.
<mgrwt>
<rscale>  0 0.88821951E+02</rscale>
<asrwt>0</asrwt>
<pdfrwt beam="1">  1        2 0.22835427E-01 0.88821951E+02</pdfrwt>
<pdfrwt beam="2">  1       -2 0.19083511E-01 0.88821951E+02</pdfrwt>
<totfact> 0.50324033E+03</totfact>
</mgrwt>
</event>
<event>
 4    1  0.5074571E-001  0.8558989E+02  0.7546771E-02  0.1313897E+00
         -2   -1    0    0    0  501 -0.00000000000E+00  0.00000000000E+00  0.17283319848E+02  0.17283319848E+02  0.00000000000E+00 0.  1.
          2   -1    0    0  501    0  0.00000000000E+00 -0.00000000000E+00 -0.53830037282E+03  0.53830037282E+03  0.00000000000E+00 0. -1.
         24    1    1    2    0    0 -0.16025859356E+02 -0.24527238587E+02 -0.38859562636E+03  0.39790977669E+03  0.80419002446E+02 0. -1.
        -24    1    1    2    0    0  0.16025859356E+02  0.24527238587E+02 -0.13242142661E+03  0.15767391598E+03  0.80419002446E+02 0.  1.
<mgrwt>
<rscale>  0 0.85589892E+02</rscale>
<asrwt>0</asrwt>
<pdfrwt beam="1">  1        2 0.82815443E-01 0.85589892E+02</pdfrwt>
<pdfrwt beam="2">  1       -2 0.26589723E-02 0.85589892E+02</pdfrwt>
<totfact> 0.25960296E+04</totfact>
</mgrwt>
</event>
<event>
 4    1  0.5074571E-001  0.8419208E+02  0.7546771E-02  0.1317559E+00
         -1   -1    0    0    0  501 -0.00000000000E+00  0.00000000000E+00  0.19672772166E+02  0.19672772166E+02  0.00000000000E+00 0.  1.
          1   -1    0    0  501    0  0.00000000000E+00 -0.00000000000E+00 -0.38744007148E+03  0.38744007148E+03  0.00000000000E+00 0. -1.
         24    1    1    2    0    0 -0.24679629758E+02  0.34651050627E+01 -0.13001901237E+03  0.15489754875E+03  0.80419002446E+02 0.  0.
        -24    1    1    2    0    0  0.24679629758E+02 -0.34651050627E+01 -0.23774828695E+03  0.25221529489E+03  0.80419002446E+02 0.  0.
<mgrwt>
<rscale>  0 0.84192084E+02</rscale>
<asrwt>0</asrwt>
<pdfrwt beam="1">  1        1 0.59606161E-01 0.84192084E+02</pdfrwt>
<pdfrwt beam="2">  1       -1 0.30265805E-02 0.84192084E+02</pdfrwt>
<totfact> 0.20968755E+04</totfact>
</mgrwt>
</event>
<event>
 4    1  0.5074571E-001  0.8329855E+02  0.7546771E-02  0.1319943E+00
          2   -1    0    0  501    0  0.00000000000E+00  0.00000000000E+00  0.17702674202E+03  0.17702674202E+03  0.00000000000E+00 0. -1.
         -2   -1    0    0    0  501 -0.00000000000E+00 -0.00000000000E+00 -0.91318224444E+02  0.91318224444E+02  0.00000000000E+00 0.  1.
         24    1    1    2    0    0  0.20662289773E+02  0.66709407692E+01  0.14422167519E+03  0.16654890939E+03  0.80419002446E+02 0. -1.
        -24    1    1    2    0    0 -0.20662289773E+02 -0.66709407692E+01 -0.58513157609E+02  0.10179605708E+03  0.80419002446E+02 0.  1.
<mgrwt>
<rscale>  0 0.83298545E+02</rscale>
<asrwt>0</asrwt>
<pdfrwt beam="1">  1        2 0.27234883E-01 0.83298545E+02</pdfrwt>
<pdfrwt beam="2">  1       -2 0.14048958E-01 0.83298545E+02</pdfrwt>
<totfact> 0.68145216E+03</totfact>
</mgrwt>
</event>
<event>
 4    1  0.5074571E-001  0.8060185E+02  0.7546771E-02  0.1327352E+00
          1   -1    0    0  501    0  0.00000000000E+00  0.00000000000E+00  0.40376503384E+02  0.40376503384E+02  0.00000000000E+00 0. -1.
         -1   -1    0    0    0  501 -0.00000000000E+00 -0.00000000000E+00 -0.18302452903E+03  0.18302452903E+03  0.00000000000E+00 0.  1.
         24    1    1    2    0    0 -0.38338722239E+01  0.38398281539E+01 -0.11015855978E+03  0.13649749852E+03  0.80419002446E+02 0.  1.
        -24    1    1    2    0    0  0.38338722239E+01 -0.38398281539E+01 -0.32489465872E+02  0.86903533895E+02  0.80419002446E+02 0.  0.
<mgrwt>
<rscale>  0 0.80601854E+02</rscale>
<asrwt>0</asrwt>
<pdfrwt beam="1">  1        1 0.62117698E-02 0.80601854E+02</pdfrwt>
<pdfrwt beam="2">  1       -1 0.28157620E-01 0.80601854E+02</pdfrwt>
<totfact> 0.12437952E+04</totfact>
</mgrwt>
</event>
<event>
 4    1  0.5074571E-001  0.8355868E+02  0.7546771E-02  0.1319245E+00
         -2   -1    0    0    0  501 -0.00000000000E+00  0.00000000000E+00  0.14339242276E+02  0.14339242276E+02  0.00000000000E+00 0.  1.
          2   -1    0    0  501    0  0.00000000000E+00 -0.00000000000E+00 -0.55651130416E+03  0.55651130416E+03  0.00000000000E+00 0. -1.
         24    1    1    2    0    0  0.17426416005E+02 -0.14531240727E+02 -0.37201952403E+03  0.38128805272E+03  0.80419002446E+02 0. -1.
        -24    1    1    2    0    0 -0.17426416005E+02  0.14531240727E+02 -0.17015253785E+03  0.18956249371E+03  0.80419002446E+02 0.  0.
<mgrwt>
<rscale>  0 0.83558679E+02</rscale>
<asrwt>0</asrwt>
<pdfrwt beam="1">  1        2 0.85617104E-01 0.83558679E+02</pdfrwt>
<pdfrwt beam="2">  1       -2 0.22060378E-02 0.83558679E+02</pdfrwt>
<totfact> 0.32675641E+04</totfact>
</mgrwt>
</event>
<event>
 4    1  0.5074571E-001  0.1322628E+03  0.7546771E-02  0.1224136E+00
         -2   -1    0    0    0  501 -0.00000000000E+00  0.00000000000E+00  0.34414622950E+02  0.34414622950E+02  0.00000000000E+00 0.  1.
          2   -1    0    0  501    0  0.00000000000E+00 -0.00000000000E+00 -0.74400179073E+03  0.74400179073E+03  0.00000000000E+00 0. -1.
         24    1    1    2    0    0 -0.87653325158E+02  0.57819685412E+02 -0.57385377806E+03  0.58889862963E+03  0.80419002446E+02 0. -1.
        -24    1    1    2    0    0  0.87653325158E+02 -0.57819685412E+02 -0.13573338973E+03  0.18951778406E+03  0.80419002446E+02 0.  1.
<mgrwt>
<rscale>  0 0.13226276E+03</rscale>
<asrwt>0</asrwt>
<pdfrwt beam="1">  1        2 0.11446181E+00 0.13226276E+03</pdfrwt>
<pdfrwt beam="2">  1       -2 0.52945575E-02 0.13226276E+03</pdfrwt>
<totfact> 0.67259741E+03</totfact>
</mgrwt>
</event>
<event>
 4    1  0.5074571E-001  0.9562411E+02  0.7546771E-02  0.1289777E+00
         -2   -1    0    0    0  501 -0.00000000000E+00  0.00000000000E+00  0.16224826081E+03  0.16224826081E+03  0.00000000000E+00 0.  1.
          2   -1    0    0  501    0  0.00000000000E+00 -0.00000000000E+00 -0.10104312086E+03  0.10104312086E+03  0.00000000000E+00 0. -1.
         24    1    1    2    0    0  0.51678649039E+02 -0.24640116373E+01 -0.56943219192E+02  0.11129465525E+03  0.80419002446E+02 0. -1.
        -24    1    1    2    0    0 -0.51678649039E+02  0.24640116373E+01  0.11814835915E+03  0.15199672642E+03  0.80419002446E+02 0.  1.
<mgrwt>
<rscale>  0 0.95624108E+02</rscale>
<asrwt>0</asrwt>
<pdfrwt beam="1">  1        2 0.15545096E-01 0.95624108E+02</pdfrwt>
<pdfrwt beam="2">  1       -2 0.24961271E-01 0.95624108E+02</pdfrwt>
<totfact> 0.49458413E+03</totfact>
</mgrwt>
</event>
<event>
 4    1  0.5074571E-001  0.9374708E+02  0.7546771E-02  0.1294023E+00
          1   -1    0    0  501    0  0.00000000000E+00  0.00000000000E+00  0.29494099924E+03  0.29494099924E+03  0.00000000000E+00 0. -1.
         -1   -1    0    0    0  501 -0.00000000000E+00 -0.00000000000E+00 -0.34546780951E+02  0.34546780951E+02  0.00000000000E+00 0.  1.
         24    1    1    2    0    0 -0.22050518567E+02 -0.42837750523E+02  0.69114449301E+02  0.11647025927E+03  0.80419002446E+02 0.  1.
        -24    1    1    2    0    0  0.22050518567E+02  0.42837750523E+02  0.19127976899E+03  0.21301752092E+03  0.80419002446E+02 0. -1.
<mgrwt>
<rscale>  0 0.93747076E+02</rscale>
<asrwt>0</asrwt>
<pdfrwt beam="1">  1        1 0.45375537E-01 0.93747076E+02</pdfrwt>
<pdfrwt beam="2">  1       -1 0.53148896E-02 0.93747076E+02</pdfrwt>
<totfact> 0.13080984E+04</totfact>
</mgrwt>
</event>
<event>
 4    1  0.5074571E-001  0.8841636E+02  0.7546771E-02  0.1306733E+00
         -2   -1    0    0    0  501 -0.00000000000E+00  0.00000000000E+00  0.22095048791E+02  0.22095048791E+02  0.00000000000E+00 0.  1.
          2   -1    0    0  501    0  0.00000000000E+00 -0.00000000000E+00 -0.66852109303E+03  0.66852109303E+03  0.00000000000E+00 0. -1.
         24    1    1    2    0    0 -0.36290056836E+02  0.57679493353E+01 -0.56013484545E+03  0.56707010017E+03  0.80419002446E+02 0. -1.
        -24    1    1    2    0    0  0.36290056836E+02 -0.57679493353E+01 -0.86291198787E+02  0.12354604165E+03  0.80419002446E+02 0.  1.
<mgrwt>
<rscale>  0 0.88416364E+02</rscale>
<asrwt>0</asrwt>
<pdfrwt beam="1">  1        2 0.10284940E+00 0.88416364E+02</pdfrwt>
<pdfrwt beam="2">  1       -2 0.33992382E-02 0.88416364E+02</pdfrwt>
<totfact> 0.14307972E+04</totfact>
</mgrwt>
</event>
<event>
 4    1  0.5074571E-001  0.1061791E+03  0.7546771E-02  0.1267814E+00
         -1   -1    0    0    0  501 -0.00000000000E+00  0.00000000000E+00  0.10524074360E+02  0.10524074360E+02  0.00000000000E+00 0.  1.
          1   -1    0    0  501    0  0.00000000000E+00 -0.00000000000E+00 -0.10794762320E+04  0.10794762320E+04  0.00000000000E+00 0. -1.
         24    1    1    2    0    0  0.65607783600E+02  0.22414238118E+02 -0.48692195214E+03  0.49836430728E+03  0.80419002446E+02 0. -1.
        -24    1    1    2    0    0 -0.65607783600E+02 -0.22414238118E+02 -0.58203020549E+03  0.59163599907E+03  0.80419002446E+02 0.  1.
<mgrwt>
<rscale>  0 0.10617907E+03</rscale>
<asrwt>0</asrwt>
<pdfrwt beam="1">  1        1 0.16607325E+00 0.10617907E+03</pdfrwt>
<pdfrwt beam="2">  1       -1 0.16190885E-02 0.10617907E+03</pdfrwt>
<totfact> 0.12354524E+04</totfact>
</mgrwt>
</event>
<event>
 4    1  0.5074571E-001  0.1168573E+03  0.7546771E-02  0.1248373E+00
          2   -1    0    0  501    0  0.00000000000E+00  0.00000000000E+00  0.19278009912E+04  0.19278009912E+04  0.00000000000E+00 0. -1.
         -2   -1    0    0    0  501 -0.00000000000E+00 -0.00000000000E+00 -0.96517378539E+01  0.96517378539E+01  0.00000000000E+00 0.  1.
         24    1    1    2    0    0 -0.40510354954E+02 -0.74480420089E+02  0.14587792572E+04  0.14634522743E+04  0.80419002446E+02 0.  0.
        -24    1    1    2    0    0  0.40510354954E+02  0.74480420089E+02  0.45936999617E+03  0.47400045482E+03  0.80419002446E+02 0.  0.
<mgrwt>
<rscale>  0 0.11685734E+03</rscale>
<asrwt>0</asrwt>
<pdfrwt beam="1">  1        2 0.29658446E+00 0.11685734E+03</pdfrwt>
<pdfrwt beam="2">  1       -2 0.14848843E-02 0.11685734E+03</pdfrwt>
<totfact> 0.94921077E+03</totfact>
</mgrwt>
</event>
<event>
 4    1  0.5074571E-001  0.9853501E+02  0.7546771E-02  0.1283407E+00
         -1   -1    0    0    0  501 -0.00000000000E+00  0.00000000000E+00  0.80254811604E+02  0.80254811604E+02  0.00000000000E+00 0.  1.
          1   -1    0    0  501    0  0.00000000000E+00 -0.00000000000E+00 -0.32021981770E+03  0.32021981770E+03  0.00000000000E+00 0. -1.
         24    1    1    2    0    0 -0.55916171711E+02  0.10738433692E+02  0.37964012443E+02  0.10559552269E+03  0.80419002446E+02 0.  1.
        -24    1    1    2    0    0  0.55916171711E+02 -0.10738433692E+02 -0.27792901854E+03  0.29487910662E+03  0.80419002446E+02 0. -1.
<mgrwt>
<rscale>  0 0.98535010E+02</rscale>
<asrwt>0</asrwt>
<pdfrwt beam="1">  1        1 0.49264587E-01 0.98535010E+02</pdfrwt>
<pdfrwt beam="2">  1       -1 0.12346894E-01 0.98535010E+02</pdfrwt>
<totfact> 0.33608678E+03</totfact>
</mgrwt>
</event>
<event>
 4    1  0.5074571E-001  0.8735771E+02  0.7546771E-02  0.1309380E+00
         -2   -1    0    0    0  501 -0.00000000000E+00  0.00000000000E+00  0.48728639335E+01  0.48728639335E+01  0.00000000000E+00 0.  1.
          2   -1    0    0  501    0  0.00000000000E+00 -0.00000000000E+00 -0.17786426116E+04  0.17786426116E+04  0.00000000000E+00 0. -1.
         24    1    1    2    0    0  0.24107071776E+02  0.24145448274E+02 -0.11951541903E+04  0.11983425671E+04  0.80419002446E+02 0. -1.
        -24    1    1    2    0    0 -0.24107071776E+02 -0.24145448274E+02 -0.57861555740E+03  0.58517290847E+03  0.80419002446E+02 0.  1.
<mgrwt>
<rscale>  0 0.87357710E+02</rscale>
<asrwt>0</asrwt>
<pdfrwt beam="1">  1        2 0.27363760E+00 0.87357710E+02</pdfrwt>
<pdfrwt beam="2">  1       -2 0.74967061E-03 0.87357710E+02</pdfrwt>
<totfact> 0.29332649E+04</totfact>
</mgrwt>
</event>
<event>
 4    1  0.5074571E-001  0.1069515E+03  0.7546771E-02  0.1266322E+00
          1   -1    0    0  501    0  0.00000000000E+00  0.00000000000E+00  0.17241590217E+03  0.17241590217E+03  0.00000000000E+00 0. -1.
         -1   -1    0    0    0  501 -0.00000000000E+00 -0.00000000000E+00 -0.70272629780E+02  0.70272629780E+02  0.00000000000E+00 0.  1.
         24    1    1    2    0    0  0.32351879265E+02 -0.62647867158E+02  0.22377491386E+02  0.10926741246E+03  0.80419002446E+02 0.  0.
        -24    1    1    2    0    0 -0.32351879265E+02  0.62647867158E+02  0.79765781005E+02  0.13342111949E+03  0.80419002446E+02 0. -1.
<mgrwt>
<rscale>  0 0.10695146E+03</rscale>
<asrwt>0</asrwt>
<pdfrwt beam="1">  1        1 0.26525523E-01 0.10695146E+03</pdfrwt>
<pdfrwt beam="2">  1       -1 0.10811174E-01 0.10695146E+03</pdfrwt>
<totfact> 0.88603379E+03</totfact>
</mgrwt>
</event>
<event>
 4    1  0.5074571E-001  0.1204927E+03  0.7546771E-02  0.1242286E+00
          1   -1    0    0  501    0  0.00000000000E+00  0.00000000000E+00  0.65392904224E+02  0.65392904224E+02  0.00000000000E+00 0. -1.
         -1   -1    0    0    0  501 -0.00000000000E+00 -0.00000000000E+00 -0.62525045802E+03  0.62525045802E+03  0.00000000000E+00 0.  1.
         24    1    1    2    0    0  0.21116651162E+02  0.87208774647E+02 -0.55724404180E+03  0.57012228637E+03  0.80419002446E+02 0.  1.
        -24    1    1    2    0    0 -0.21116651162E+02 -0.87208774647E+02 -0.26135119930E+01  0.12052107588E+03  0.80419002446E+02 0. -1.
<mgrwt>
<rscale>  0 0.12049274E+03</rscale>
<asrwt>0</asrwt>
<pdfrwt beam="1">  1        1 0.10060447E-01 0.12049274E+03</pdfrwt>
<pdfrwt beam="2">  1       -1 0.96192378E-01 0.12049274E+03</pdfrwt>
<totfact> 0.69223544E+02</totfact>
</mgrwt>
</event>
<event>
 4    1  0.5074571E-001  0.9146044E+02  0.7546771E-02  0.1299353E+00
          1   -1    0    0  501    0  0.00000000000E+00  0.00000000000E+00  0.41788055610E+02  0.41788055610E+02  0.00000000000E+00 0. -1.
         -1   -1    0    0    0  501 -0.00000000000E+00 -0.00000000000E+00 -0.48857968191E+03  0.48857968191E+03  0.00000000000E+00 0.  1.
         24    1    1    2    0    0  0.20575428828E+00 -0.43563210293E+02 -0.42713706804E+03  0.43681928355E+03  0.80419002446E+02 0.  1.
        -24    1    1    2    0    0 -0.20575428828E+00  0.43563210293E+02 -0.19654558252E+02  0.93548453971E+02  0.80419002446E+02 0. -1.
<mgrwt>
<rscale>  0 0.91460437E+02</rscale>
<asrwt>0</asrwt>
<pdfrwt beam="1">  1        1 0.64289316E-02 0.91460437E+02</pdfrwt>
<pdfrwt beam="2">  1       -1 0.75166105E-01 0.91460437E+02</pdfrwt>
<totfact> 0.20729489E+03</totfact>
</mgrwt>
</event>
<event>
 4    1  0.5074571E-001  0.8222292E+02  0.7546771E-02  0.1322859E+00
          1   -1    0    0  501    0  0.00000000000E+00  0.00000000000E+00  0.37170749484E+03  0.37170749484E+03  0.00000000000E+00 0. -1.
         -1   -1    0    0    0  501 -0.00000000000E+00 -0.00000000000E+00 -0.21563545832E+02  0.21563545832E+02  0.00000000000E+00 0.  1.
         24    1    1    2    0    0  0.10309345044E+02  0.13678823841E+02  0.97272775672E+02  0.12736797737E+03  0.80419002446E+02 0.  1.
        -24    1    1    2    0    0 -0.10309345044E+02 -0.13678823841E+02  0.25287117334E+03  0.26590306331E+03  0.80419002446E+02 0. -1.
<mgrwt>
<rscale>  0 0.82222921E+02</rscale>
<asrwt>0</asrwt>
<pdfrwt beam="1">  1        1 0.57185764E-01 0.82222921E+02</pdfrwt>
<pdfrwt beam="2">  1       -1 0.33174689E-02 0.82222921E+02</pdfrwt>
<totfact> 0.19288569E+04</totfact>
</mgrwt>
</event>
<event>
 4    1  0.5074571E-001  0.1069699E+03  0.7546771E-02  0.1266286E+00
          2   -1    0    0  501    0  0.00000000000E+00  0.00000000000E+00  0.55283849591E+03  0.55283849591E+03  0.00000000000E+00 0. -1.
         -2   -1    0    0    0  501 -0.00000000000E+00 -0.00000000000E+00 -0.25997139948E+02  0.25997139948E+02  0.00000000000E+00 0.  1.
         24    1    1    2    0    0  0.60263764324E+02 -0.36655598046E+02  0.39408926137E+03  0.40834901254E+03  0.80419002446E+02 0. -1.
        -24    1    1    2    0    0 -0.60263764324E+02  0.36655598046E+02  0.13275209459E+03  0.17048662332E+03  0.80419002446E+02 0.  1.
<mgrwt>
<rscale>  0 0.10696995E+03</rscale>
<asrwt>0</asrwt>
<pdfrwt beam="1">  1        2 0.85052068E-01 0.10696995E+03</pdfrwt>
<pdfrwt beam="2">  1       -2 0.39995604E-02 0.10696995E+03</pdfrwt>
<totfact> 0.14185219E+04</totfact>
</mgrwt>
</event>
<event>
 4    1  0.5074571E-001  0.8654466E+02  0.7546771E-02  0.1311442E+00
         -2   -1    0    0    0  501 -0.00000000000E+00  0.00000000000E+00  0.14699655273E+03  0.14699655273E+03  0.00000000000E+00 0.  1.
          2   -1    0    0  501    0  0.00000000000E+00 -0.00000000000E+00 -0.74722577244E+02  0.74722577244E+02  0.00000000000E+00 0. -1.
         24    1    1    2    0    0  0.21368710560E+02  0.23793702205E+02 -0.26388067402E+02  0.90478218988E+02  0.80419002446E+02 0. -1.
        -24    1    1    2    0    0 -0.21368710560E+02 -0.23793702205E+02  0.98662042893E+02  0.13124091099E+03  0.80419002446E+02 0.  1.
<mgrwt>
<rscale>  0 0.86544659E+02</rscale>
<asrwt>0</asrwt>
<pdfrwt beam="1">  1        2 0.11495781E-01 0.86544659E+02</pdfrwt>
<pdfrwt beam="2">  1       -2 0.22614854E-01 0.86544659E+02</pdfrwt>
<totfact> 0.82765771E+03</totfact>
</mgrwt>
</event>
<event>
 4    1  0.5074571E-001  0.1030592E+03  0.7546771E-02  0.1273991E+00
          1   -1    0    0  501    0  0.00000000000E+00  0.00000000000E+00  0.50907523794E+03  0.50907523794E+03  0.00000000000E+00 0. -1.
         -1   -1    0    0    0  501 -0.00000000000E+00 -0.00000000000E+00 -0.59858630536E+02  0.59858630536E+02  0.00000000000E+00 0.  1.
         24    1    1    2    0    0 -0.40112797209E+02  0.50447492987E+02 -0.49919594340E+01  0.10318004488E+03  0.80419002446E+02 0.  1.
        -24    1    1    2    0    0  0.40112797209E+02 -0.50447492987E+02  0.45420856684E+03  0.46575382360E+03  0.80419002446E+02 0. -1.
<mgrwt>
<rscale>  0 0.10305922E+03</rscale>
<asrwt>0</asrwt>
<pdfrwt beam="1">  1        1 0.78319264E-01 0.10305922E+03</pdfrwt>
<pdfrwt beam="2">  1       -1 0.92090204E-02 0.10305922E+03</pdfrwt>
<totfact> 0.29420567E+03</totfact>
</mgrwt>
</event>
<event>
 4    1  0.5074571E-001  0.8315623E+02  0.7546771E-02  0.1320326E+00
          2   -1    0    0  501    0  0.00000000000E+00  0.00000000000E+00  0.22015280028E+04  0.22015280028E+04  0.00000000000E+00 0. -1.
         -2   -1    0    0    0  501 -0.00000000000E+00 -0.00000000000E+00 -0.55727139760E+02  0.55727139760E+02  0.00000000000E+00 0.  1.
         24    1    1    2    0    0 -0.73871526440E+01 -0.19828565845E+02  0.21692599774E+04  0.21708532441E+04  0.80419002446E+02 0. -1.
        -24    1    1    2    0    0  0.73871526440E+01  0.19828565845E+02 -0.23459114377E+02  0.86401898413E+02  0.80419002446E+02 0.  1.
<mgrwt>
<rscale>  0 0.83156226E+02</rscale>
<asrwt>0</asrwt>
<pdfrwt beam="1">  1        2 0.33869655E+00 0.83156226E+02</pdfrwt>
<pdfrwt beam="2">  1       -2 0.85734078E-02 0.83156226E+02</pdfrwt>
<totfact> 0.52265008E+02</totfact>
</mgrwt>
</event>
<event>
 4    1  0.5074571E-001  0.9728909E+02  0.7546771E-02  0.1286102E+00
          1   -1    0    0  501    0  0.00000000000E+00  0.00000000000E+00  0.30184496272E+03  0.30184496272E+03  0.00000000000E+00 0. -1.
         -1   -1    0    0    0  501 -0.00000000000E+00 -0.00000000000E+00 -0.38754502845E+02  0.38754502845E+02  0.00000000000E+00 0.  1.
         24    1    1    2    0    0  0.49312517398E+02 -0.23795510339E+02  0.57144940382E+02  0.11283045179E+03  0.80419002446E+02 0.  1.
        -24    1    1    2    0    0 -0.49312517398E+02  0.23795510339E+02  0.20594551949E+03  0.22776901378E+03  0.80419002446E+02 0. -1.
<mgrwt>
<rscale>  0 0.97289088E+02</rscale>
<asrwt>0</asrwt>
<pdfrwt beam="1">  1        1 0.46437685E-01 0.97289088E+02</pdfrwt>
<pdfrwt beam="2">  1       -1 0.59622314E-02 0.97289088E+02</pdfrwt>
<totfact> 0.10772717E+04</totfact>
</mgrwt>
</event>
<event>
 4    1  0.5074571E-001  0.8880412E+02  0.7546771E-02  0.1305774E+00
         -2   -1    0    0    0  501 -0.00000000000E+00  0.00000000000E+00  0.56571349415E+02  0.56571349415E+02  0.00000000000E+00 0.  1.
          2   -1    0    0  501    0  0.00000000000E+00 -0.00000000000E+00 -0.13987617177E+03  0.13987617177E+03  0.00000000000E+00 0. -1.
         24    1    1    2    0    0 -0.14917081872E+02 -0.34589530062E+02 -0.47370072307E+02  0.10064837121E+03  0.80419002446E+02 0.  1.
        -24    1    1    2    0    0  0.14917081872E+02  0.34589530062E+02 -0.35934750049E+02  0.95799149980E+02  0.80419002446E+02 0. -1.
<mgrwt>
<rscale>  0 0.88804115E+02</rscale>
<asrwt>0</asrwt>
<pdfrwt beam="1">  1        2 0.21519411E-01 0.88804115E+02</pdfrwt>
<pdfrwt beam="2">  1       -2 0.87032847E-02 0.88804115E+02</pdfrwt>
<totfact> 0.18782921E+04</totfact>
</mgrwt>
</event>
<event>
 4    1  0.5074571E-001  0.9614541E+02  0.7546771E-02  0.1288617E+00
         -2   -1    0    0    0  501 -0.00000000000E+00  0.00000000000E+00  0.77757251378E+02  0.77757251378E+02  0.00000000000E+00 0.  1.
          2   -1    0    0  501    0  0.00000000000E+00 -0.00000000000E+00 -0.24162722248E+03  0.24162722248E+03  0.00000000000E+00 0. -1.
         24    1    1    2    0    0  0.47144508461E+02  0.23539718358E+02 -0.19575355953E+03  0.21809033689E+03  0.80419002446E+02 0. -1.
        -24    1    1    2    0    0 -0.47144508461E+02 -0.23539718358E+02  0.31883588435E+02  0.10129413697E+03  0.80419002446E+02 0.  1.
<mgrwt>
<rscale>  0 0.96145405E+02</rscale>
<asrwt>0</asrwt>
<pdfrwt beam="1">  1        2 0.37173419E-01 0.96145405E+02</pdfrwt>
<pdfrwt beam="2">  1       -2 0.11962654E-01 0.96145405E+02</pdfrwt>
<totfact> 0.63934396E+03</totfact>
</mgrwt>
</event>
<event>
 4    1  0.5074571E-001  0.1025988E+03  0.7546771E-02  0.1274924E+00
          1   -1    0    0  501    0  0.00000000000E+00  0.00000000000E+00  0.16090255500E+03  0.16090255500E+03  0.00000000000E+00 0. -1.
         -1   -1    0    0    0  501 -0.00000000000E+00 -0.00000000000E+00 -0.75659984099E+02  0.75659984099E+02  0.00000000000E+00 0.  1.
         24    1    1    2    0    0  0.69619992637E+01 -0.63331115977E+02 -0.88949205220E+00  0.10260266485E+03  0.80419002446E+02 0.  1.
        -24    1    1    2    0    0 -0.69619992637E+01  0.63331115977E+02  0.86132062952E+02  0.13395987424E+03  0.80419002446E+02 0. -1.
<mgrwt>
<rscale>  0 0.10259881E+03</rscale>
<asrwt>0</asrwt>
<pdfrwt beam="1">  1        1 0.24754239E-01 0.10259881E+03</pdfrwt>
<pdfrwt beam="2">  1       -1 0.11639998E-01 0.10259881E+03</pdfrwt>
<totfact> 0.85962564E+03</totfact>
</mgrwt>
</event>
<event>
 4    1  0.5074571E-001  0.8529110E+02  0.7546771E-02  0.1314673E+00
          2   -1    0    0  501    0  0.00000000000E+00  0.00000000000E+00  0.44585622176E+03  0.44585622176E+03  0.00000000000E+00 0. -1.
         -2   -1    0    0    0  501 -0.00000000000E+00 -0.00000000000E+00 -0.21955349215E+02  0.21955349215E+02  0.00000000000E+00 0.  1.
         24    1    1    2    0    0 -0.75310692591E+01 -0.27397793718E+02  0.33049641949E+03  0.34132456014E+03  0.80419002446E+02 0. -1.
        -24    1    1    2    0    0  0.75310692591E+01  0.27397793718E+02  0.93404453047E+02  0.12648701083E+03  0.80419002446E+02 0.  1.
<mgrwt>
<rscale>  0 0.85291102E+02</rscale>
<asrwt>0</asrwt>
<pdfrwt beam="1">  1        2 0.68593258E-01 0.85291102E+02</pdfrwt>
<pdfrwt beam="2">  1       -2 0.33777464E-02 0.85291102E+02</pdfrwt>
<totfact> 0.22454243E+04</totfact>
</mgrwt>
</event>
<event>
 4    1  0.5074571E-001  0.8345910E+02  0.7546771E-02  0.1319512E+00
         -1   -1    0    0    0  501 -0.00000000000E+00  0.00000000000E+00  0.23408091946E+02  0.23408091946E+02  0.00000000000E+00 0.  1.
          1   -1    0    0  501    0  0.00000000000E+00 -0.00000000000E+00 -0.47514683007E+03  0.47514683007E+03  0.00000000000E+00 0. -1.
         24    1    1    2    0    0 -0.20683893537E+02  0.83894404676E+01 -0.73475073297E+02  0.11119356327E+03  0.80419002446E+02 0.  1.
        -24    1    1    2    0    0  0.20683893537E+02 -0.83894404676E+01 -0.37826366483E+03  0.38736135875E+03  0.80419002446E+02 0. -1.
<mgrwt>
<rscale>  0 0.83459104E+02</rscale>
<asrwt>0</asrwt>
<pdfrwt beam="1">  1        1 0.73099512E-01 0.83459104E+02</pdfrwt>
<pdfrwt beam="2">  1       -1 0.36012449E-02 0.83459104E+02</pdfrwt>
<totfact> 0.12636494E+04</totfact>
</mgrwt>
</event>
<event>
 4    1  0.5074571E-001  0.1032238E+03  0.7546771E-02  0.1273659E+00
          2   -1    0    0  501    0  0.00000000000E+00  0.00000000000E+00  0.35089234768E+03  0.35089234768E+03  0.00000000000E+00 0. -1.
         -2   -1    0    0    0  501 -0.00000000000E+00 -0.00000000000E+00 -0.62068869204E+02  0.62068869204E+02  0.00000000000E+00 0.  1.
         24    1    1    2    0    0 -0.41648349405E+02 -0.49531418608E+02  0.29197978135E+03  0.30968912656E+03  0.80419002446E+02 0. -1.
        -24    1    1    2    0    0  0.41648349405E+02  0.49531418608E+02 -0.31563028757E+01  0.10327209032E+03  0.80419002446E+02 0.  1.
<mgrwt>
<rscale>  0 0.10322385E+03</rscale>
<asrwt>0</asrwt>
<pdfrwt beam="1">  1        2 0.53983437E-01 0.10322385E+03</pdfrwt>
<pdfrwt beam="2">  1       -2 0.95490570E-02 0.10322385E+03</pdfrwt>
<totfact> 0.61834427E+03</totfact>
</mgrwt>
</event>
<event>
 4    1  0.5074571E-001  0.8199406E+02  0.7546771E-02  0.1323486E+00
          1   -1    0    0  501    0  0.00000000000E+00  0.00000000000E+00  0.11420894113E+04  0.11420894113E+04  0.00000000000E+00 0. -1.
         -1   -1    0    0    0  501 -0.00000000000E+00 -0.00000000000E+00 -0.11085554864E+02  0.11085554864E+02  0.00000000000E+00 0.  1.
         24    1    1    2    0    0  0.15292130657E+02  0.46861953229E+01  0.17064074858E+03  0.18931796195E+03  0.80419002446E+02 0.  1.
        -24    1    1    2    0    0 -0.15292130657E+02 -0.46861953229E+01  0.96036310787E+03  0.96385700423E+03  0.80419002446E+02 0. -1.
<mgrwt>
<rscale>  0 0.81994059E+02</rscale>
<asrwt>0</asrwt>
<pdfrwt beam="1">  1        1 0.17570597E+00 0.81994059E+02</pdfrwt>
<pdfrwt beam="2">  1       -1 0.17054709E-02 0.81994059E+02</pdfrwt>
<totfact> 0.10202864E+04</totfact>
</mgrwt>
</event>
<event>
 4    1  0.5074571E-001  0.8350037E+02  0.7546771E-02  0.1319401E+00
          2   -1    0    0  501    0  0.00000000000E+00  0.00000000000E+00  0.98859238026E+03  0.98859238026E+03  0.00000000000E+00 0. -1.
         -2   -1    0    0    0  501 -0.00000000000E+00 -0.00000000000E+00 -0.82234160274E+01  0.82234160274E+01  0.00000000000E+00 0.  1.
         24    1    1    2    0    0  0.13314334191E+02  0.18105937468E+02  0.67823390585E+03  0.68335462497E+03  0.80419002446E+02 0. -1.
        -24    1    1    2    0    0 -0.13314334191E+02 -0.18105937468E+02  0.30213505838E+03  0.31346117132E+03  0.80419002446E+02 0.  1.
<mgrwt>
<rscale>  0 0.83500374E+02</rscale>
<asrwt>0</asrwt>
<pdfrwt beam="1">  1        2 0.15209104E+00 0.83500374E+02</pdfrwt>
<pdfrwt beam="2">  1       -2 0.12651417E-02 0.83500374E+02</pdfrwt>
<totfact> 0.36356152E+04</totfact>
</mgrwt>
</event>
<event>
 4    1  0.5074571E-001  0.9816222E+02  0.7546771E-02  0.1284209E+00
          1   -1    0    0  501    0  0.00000000000E+00  0.00000000000E+00  0.37388153183E+03  0.37388153183E+03  0.00000000000E+00 0. -1.
         -1   -1    0    0    0  501 -0.00000000000E+00 -0.00000000000E+00 -0.34124539965E+02  0.34124539965E+02  0.00000000000E+00 0.  1.
         24    1    1    2    0    0  0.36718243761E+02  0.42665875345E+02  0.68952683251E+02  0.11995955496E+03  0.80419002446E+02 0.  1.
        -24    1    1    2    0    0 -0.36718243761E+02 -0.42665875345E+02  0.27080430861E+03  0.28804651684E+03  0.80419002446E+02 0. -1.
<mgrwt>
<rscale>  0 0.98162224E+02</rscale>
<asrwt>0</asrwt>
<pdfrwt beam="1">  1        1 0.57520233E-01 0.98162224E+02</pdfrwt>
<pdfrwt beam="2">  1       -1 0.52499295E-02 0.98162224E+02</pdfrwt>
<totfact> 0.99910222E+03</totfact>
</mgrwt>
</event>
<event>
 4    1  0.5074571E-001  0.8394234E+02  0.7546771E-02  0.1318222E+00
          2   -1    0    0  501    0  0.00000000000E+00  0.00000000000E+00  0.57876005253E+03  0.57876005253E+03  0.00000000000E+00 0. -1.
         -2   -1    0    0    0  501 -0.00000000000E+00 -0.00000000000E+00 -0.17521133682E+02  0.17521133682E+02  0.00000000000E+00 0.  1.
         24    1    1    2    0    0 -0.23363957821E+02  0.57642460820E+01  0.44530899167E+03  0.45315164689E+03  0.80419002446E+02 0. -1.
        -24    1    1    2    0    0  0.23363957821E+02 -0.57642460820E+01  0.11592992718E+03  0.14312953933E+03  0.80419002446E+02 0.  1.
<mgrwt>
<rscale>  0 0.83942343E+02</rscale>
<asrwt>0</asrwt>
<pdfrwt beam="1">  1        2 0.89039993E-01 0.83942343E+02</pdfrwt>
<pdfrwt beam="2">  1       -2 0.26955595E-02 0.83942343E+02</pdfrwt>
<totfact> 0.23456988E+04</totfact>
</mgrwt>
</event>
<event>
 4    1  0.5074571E-001  0.8525328E+02  0.7546771E-02  0.1314772E+00
          1   -1    0    0  501    0  0.00000000000E+00  0.00000000000E+00  0.24991411194E+03  0.24991411194E+03  0.00000000000E+00 0. -1.
         -1   -1    0    0    0  501 -0.00000000000E+00 -0.00000000000E+00 -0.29163189104E+02  0.29163189104E+02  0.00000000000E+00 0.  1.
         24    1    1    2    0    0  0.18944083261E+02 -0.21024441267E+02  0.10303460475E+03  0.13373201244E+03  0.80419002446E+02 0.  1.
        -24    1    1    2    0    0 -0.18944083261E+02  0.21024441267E+02  0.11771631809E+03  0.14534528861E+03  0.80419002446E+02 0. -1.
<mgrwt>
<rscale>  0 0.85253278E+02</rscale>
<asrwt>0</asrwt>
<pdfrwt beam="1">  1        1 0.38448323E-01 0.85253278E+02</pdfrwt>
<pdfrwt beam="2">  1       -1 0.44866446E-02 0.85253278E+02</pdfrwt>
<totfact> 0.20305296E+04</totfact>
</mgrwt>
</event>
<event>
 4    1  0.5074571E-001  0.8066892E+02  0.7546771E-02  0.1327164E+00
          1   -1    0    0  501    0  0.00000000000E+00  0.00000000000E+00  0.14604307696E+04  0.14604307696E+04  0.00000000000E+00 0. -1.
         -1   -1    0    0    0  501 -0.00000000000E+00 -0.00000000000E+00 -0.46285389137E+01  0.46285389137E+01  0.00000000000E+00 0.  1.
         24    1    1    2    0    0 -0.21766531233E+01  0.59597203311E+01  0.86939103366E+03  0.87312555881E+03  0.80419002446E+02 0.  0.
        -24    1    1    2    0    0  0.21766531233E+01 -0.59597203311E+01  0.58641119699E+03  0.59193374967E+03  0.80419002446E+02 0.  1.
<mgrwt>
<rscale>  0 0.80668914E+02</rscale>
<asrwt>0</asrwt>
<pdfrwt beam="1">  1        1 0.22468129E+00 0.80668924E+02</pdfrwt>
<pdfrwt beam="2">  1       -1 0.71208407E-03 0.80668924E+02</pdfrwt>
<totfact> 0.21552208E+04</totfact>
</mgrwt>
</event>
<event>
 4    1  0.5074571E-001  0.8687236E+02  0.7546771E-02  0.1310607E+00
         -3   -1    0    0    0  501 -0.00000000000E+00  0.00000000000E+00  0.30969551226E+02  0.30969551226E+02  0.00000000000E+00 0.  1.
          3   -1    0    0  501    0  0.00000000000E+00 -0.00000000000E+00 -0.56655853174E+03  0.56655853174E+03  0.00000000000E+00 0. -1.
         24    1    1    2    0    0 -0.28288024834E+02  0.16714624061E+02 -0.42255136159E+02  0.96603848229E+02  0.80419002446E+02 0.  1.
        -24    1    1    2    0    0  0.28288024834E+02 -0.16714624061E+02 -0.49333384436E+03  0.50092423474E+03  0.80419002446E+02 0. -1.
<mgrwt>
<rscale>  0 0.86872360E+02</rscale>
<asrwt>0</asrwt>
<pdfrwt beam="1">  1        3 0.87162849E-01 0.86872360E+02</pdfrwt>
<pdfrwt beam="2">  1       -3 0.47645464E-02 0.86872360E+02</pdfrwt>
<totfact> 0.65401233E+02</totfact>
</mgrwt>
</event>
<event>
 4    1  0.5074571E-001  0.8440510E+02  0.7546771E-02  0.1316996E+00
         -2   -1    0    0    0  501 -0.00000000000E+00  0.00000000000E+00  0.19663182909E+02  0.19663182909E+02  0.00000000000E+00 0.  1.
          2   -1    0    0  501    0  0.00000000000E+00 -0.00000000000E+00 -0.39045137072E+03  0.39045137072E+03  0.00000000000E+00 0. -1.
         24    1    1    2    0    0 -0.24615911899E+02  0.71457685194E+01 -0.24044233205E+03  0.25482687480E+03  0.80419002446E+02 0. -1.
        -24    1    1    2    0    0  0.24615911899E+02 -0.71457685194E+01 -0.13034585576E+03  0.15528767882E+03  0.80419002446E+02 0.  1.
<mgrwt>
<rscale>  0 0.84405101E+02</rscale>
<asrwt>0</asrwt>
<pdfrwt beam="1">  1        2 0.60069440E-01 0.84405101E+02</pdfrwt>
<pdfrwt beam="2">  1       -2 0.30251051E-02 0.84405101E+02</pdfrwt>
<totfact> 0.30282080E+04</totfact>
</mgrwt>
</event>
<event>
 4    1  0.5074571E-001  0.8780342E+02  0.7546771E-02  0.1308260E+00
          2   -1    0    0  501    0  0.00000000000E+00  0.00000000000E+00  0.14783942535E+04  0.14783942535E+04  0.00000000000E+00 0. -1.
         -2   -1    0    0    0  501 -0.00000000000E+00 -0.00000000000E+00 -0.61182713606E+01  0.61182713606E+01  0.00000000000E+00 0.  1.
         24    1    1    2    0    0  0.34696265456E+02 -0.61960148760E+01  0.45089708282E+03  0.45936653849E+03  0.80419002446E+02 0.  0.
        -24    1    1    2    0    0 -0.34696265456E+02  0.61960148760E+01  0.10213788993E+04  0.10251459864E+04  0.80419002446E+02 0.  0.
<mgrwt>
<rscale>  0 0.87803413E+02</rscale>
<asrwt>0</asrwt>
<pdfrwt beam="1">  1        2 0.22744499E+00 0.87803424E+02</pdfrwt>
<pdfrwt beam="2">  1       -2 0.94127370E-03 0.87803424E+02</pdfrwt>
<totfact> 0.30176084E+04</totfact>
</mgrwt>
</event>
<event>
 4    1  0.5074571E-001  0.1193323E+03  0.7546771E-02  0.1244203E+00
         -1   -1    0    0    0  501 -0.00000000000E+00  0.00000000000E+00  0.61471630875E+01  0.61471630875E+01  0.00000000000E+00 0.  1.
          1   -1    0    0  501    0  0.00000000000E+00 -0.00000000000E+00 -0.23305449874E+04  0.23305449874E+04  0.00000000000E+00 0. -1.
         24    1    1    2    0    0  0.16119425199E+02  0.86678434370E+02 -0.10716571779E+04  0.10782807194E+04  0.80419002446E+02 0.  1.
        -24    1    1    2    0    0 -0.16119425199E+02 -0.86678434370E+02 -0.12527406464E+04  0.12584114311E+04  0.80419002446E+02 0. -1.
<mgrwt>
<rscale>  0 0.11933232E+03</rscale>
<asrwt>0</asrwt>
<pdfrwt beam="1">  1        1 0.35854565E+00 0.11933232E+03</pdfrwt>
<pdfrwt beam="2">  1       -1 0.94571670E-03 0.11933232E+03</pdfrwt>
<totfact> 0.41533935E+03</totfact>
</mgrwt>
</event>
<event>
 4    1  0.5074571E-001  0.9667014E+02  0.7546771E-02  0.1287458E+00
         -2   -1    0    0    0  501 -0.00000000000E+00  0.00000000000E+00  0.13458458065E+02  0.13458458065E+02  0.00000000000E+00 0.  1.
          2   -1    0    0  501    0  0.00000000000E+00 -0.00000000000E+00 -0.80243563937E+03  0.80243563937E+03  0.00000000000E+00 0. -1.
         24    1    1    2    0    0 -0.64478745031E+01 -0.53257123168E+02 -0.24477953312E+03  0.26317699756E+03  0.80419002446E+02 0.  1.
        -24    1    1    2    0    0  0.64478745031E+01  0.53257123168E+02 -0.54419764818E+03  0.55271709988E+03  0.80419002446E+02 0. -1.
<mgrwt>
<rscale>  0 0.96670133E+02</rscale>
<asrwt>0</asrwt>
<pdfrwt beam="1">  1        2 0.12345164E+00 0.96670145E+02</pdfrwt>
<pdfrwt beam="2">  1       -2 0.20705319E-02 0.96670145E+02</pdfrwt>
<totfact> 0.23824484E+04</totfact>
</mgrwt>
</event>
<event>
 4    1  0.5074571E-001  0.8421798E+02  0.7546771E-02  0.1317490E+00
          1   -1    0    0  501    0  0.00000000000E+00  0.00000000000E+00  0.63279104500E+02  0.63279104500E+02  0.00000000000E+00 0. -1.
         -1   -1    0    0    0  501 -0.00000000000E+00 -0.00000000000E+00 -0.40406268822E+03  0.40406268822E+03  0.00000000000E+00 0.  1.
         24    1    1    2    0    0 -0.10298308995E+02  0.22790297896E+02 -0.36902631218E+03  0.37851431661E+03  0.80419002446E+02 0.  1.
        -24    1    1    2    0    0  0.10298308995E+02 -0.22790297896E+02  0.28242728459E+02  0.88827476107E+02  0.80419002446E+02 0. -1.
<mgrwt>
<rscale>  0 0.84217984E+02</rscale>
<asrwt>0</asrwt>
<pdfrwt beam="1">  1        1 0.97352467E-02 0.84217984E+02</pdfrwt>
<pdfrwt beam="2">  1       -1 0.62163491E-01 0.84217984E+02</pdfrwt>
<totfact> 0.17222947E+03</totfact>
</mgrwt>
</event>
<event>
 4    1  0.5074571E-001  0.8241892E+02  0.7546771E-02  0.1322324E+00
          2   -1    0    0  501    0  0.00000000000E+00  0.00000000000E+00  0.83424988879E+03  0.83424988879E+03  0.00000000000E+00 0. -1.
         -2   -1    0    0    0  501 -0.00000000000E+00 -0.00000000000E+00 -0.10176507179E+02  0.10176507179E+02  0.00000000000E+00 0.  1.
         24    1    1    2    0    0  0.17958908283E+02  0.17721583645E+01  0.60079617439E+03  0.60642305534E+03  0.80419002446E+02 0.  0.
        -24    1    1    2    0    0 -0.17958908283E+02 -0.17721583645E+01  0.22327720722E+03  0.23800334063E+03  0.80419002446E+02 0.  0.
<mgrwt>
<rscale>  0 0.82418923E+02</rscale>
<asrwt>0</asrwt>
<pdfrwt beam="1">  1        2 0.12834608E+00 0.82418923E+02</pdfrwt>
<pdfrwt beam="2">  1       -2 0.15656172E-02 0.82418923E+02</pdfrwt>
<totfact> 0.33350560E+04</totfact>
</mgrwt>
</event>
<event>
 4    1  0.5074571E-001  0.9746219E+02  0.7546771E-02  0.1285725E+00
          1   -1    0    0  501    0  0.00000000000E+00  0.00000000000E+00  0.72288908618E+02  0.72288908618E+02  0.00000000000E+00 0. -1.
         -1   -1    0    0    0  501 -0.00000000000E+00 -0.00000000000E+00 -0.13237206255E+03  0.13237206255E+03  0.00000000000E+00 0.  1.
         24    1    1    2    0    0  0.53885476771E+02  0.11314267867E+02 -0.21279403550E+02  0.99758138686E+02  0.80419002446E+02 0.  1.
        -24    1    1    2    0    0 -0.53885476771E+02 -0.11314267867E+02 -0.38803750379E+02  0.10490283248E+03  0.80419002446E+02 0. -1.
<mgrwt>
<rscale>  0 0.97462175E+02</rscale>
<asrwt>0</asrwt>
<pdfrwt beam="1">  1        1 0.11121371E-01 0.97462187E+02</pdfrwt>
<pdfrwt beam="2">  1       -1 0.20364932E-01 0.97462187E+02</pdfrwt>
<totfact> 0.99206579E+03</totfact>
</mgrwt>
</event>
<event>
 4    1  0.5074571E-001  0.1610830E+03  0.7546771E-02  0.1187480E+00
         -3   -1    0    0    0  501 -0.00000000000E+00  0.00000000000E+00  0.16938254945E+04  0.16938254945E+04  0.00000000000E+00 0.  1.
          3   -1    0    0  501    0  0.00000000000E+00 -0.00000000000E+00 -0.16496131833E+02  0.16496131833E+02  0.00000000000E+00 0. -1.
         24    1    1    2    0    0  0.99168511502E+02 -0.98214556912E+02  0.61022596415E+03  0.63112870014E+03  0.80419002446E+02 0. -1.
        -24    1    1    2    0    0 -0.99168511502E+02  0.98214556912E+02  0.10671033985E+04  0.10791929262E+04  0.80419002446E+02 0.  1.
<mgrwt>
<rscale>  0 0.16108295E+03</rscale>
<asrwt>0</asrwt>
<pdfrwt beam="1">  1        3 0.25378678E-02 0.16108297E+03</pdfrwt>
<pdfrwt beam="2">  1       -3 0.26058840E+00 0.16108297E+03</pdfrwt>
<totfact> 0.11491980E+02</totfact>
</mgrwt>
</event>
<event>
 4    1  0.5074571E-001  0.8288892E+02  0.7546771E-02  0.1321047E+00
          1   -1    0    0  501    0  0.00000000000E+00  0.00000000000E+00  0.31260388094E+03  0.31260388094E+03  0.00000000000E+00 0. -1.
         -1   -1    0    0    0  501 -0.00000000000E+00 -0.00000000000E+00 -0.55257280708E+02  0.55257280708E+02  0.00000000000E+00 0.  1.
         24    1    1    2    0    0  0.13922242233E+02 -0.14475082115E+02 -0.14065721536E+02  0.84073880056E+02  0.80419002446E+02 0.  1.
        -24    1    1    2    0    0 -0.13922242233E+02  0.14475082115E+02  0.27141232177E+03  0.28378728160E+03  0.80419002446E+02 0. -1.
<mgrwt>
<rscale>  0 0.82888918E+02</rscale>
<asrwt>0</asrwt>
<pdfrwt beam="1">  1        1 0.48092904E-01 0.82888918E+02</pdfrwt>
<pdfrwt beam="2">  1       -1 0.85011203E-02 0.82888918E+02</pdfrwt>
<totfact> 0.60182332E+03</totfact>
</mgrwt>
</event>
<event>
 4    1  0.5074571E-001  0.1174924E+03  0.7546771E-02  0.1247292E+00
         -1   -1    0    0    0  501 -0.00000000000E+00  0.00000000000E+00  0.34264157354E+02  0.34264157354E+02  0.00000000000E+00 0.  1.
          1   -1    0    0  501    0  0.00000000000E+00 -0.00000000000E+00 -0.78953250151E+03  0.78953250151E+03  0.00000000000E+00 0. -1.
         24    1    1    2    0    0 -0.73564670984E+02  0.43880380438E+02 -0.89388061665E+02  0.14763024801E+03  0.80419002446E+02 0.  1.
        -24    1    1    2    0    0  0.73564670984E+02 -0.43880380438E+02 -0.66588028249E+03  0.67616641086E+03  0.80419002446E+02 0. -1.
<mgrwt>
<rscale>  0 0.11749240E+03</rscale>
<asrwt>0</asrwt>
<pdfrwt beam="1">  1        1 0.12146653E+00 0.11749240E+03</pdfrwt>
<pdfrwt beam="2">  1       -1 0.52714090E-02 0.11749240E+03</pdfrwt>
<totfact> 0.37117533E+03</totfact>
</mgrwt>
</event>
<event>
 4    1  0.5074571E-001  0.8843331E+02  0.7546771E-02  0.1306691E+00
         -3   -1    0    0    0  501 -0.00000000000E+00  0.00000000000E+00  0.10448463193E+02  0.10448463193E+02  0.00000000000E+00 0.  1.
          3   -1    0    0  501    0  0.00000000000E+00 -0.00000000000E+00 -0.81791502249E+03  0.81791502249E+03  0.00000000000E+00 0. -1.
         24    1    1    2    0    0  0.26211488961E+02  0.25810699148E+02 -0.28305453939E+03  0.29654733613E+03  0.80419002446E+02 0.  1.
        -24    1    1    2    0    0 -0.26211488961E+02 -0.25810699148E+02 -0.52441201991E+03  0.53181614955E+03  0.80419002446E+02 0. -1.
<mgrwt>
<rscale>  0 0.88433310E+02</rscale>
<asrwt>0</asrwt>
<pdfrwt beam="1">  1        3 0.12583305E+00 0.88433310E+02</pdfrwt>
<pdfrwt beam="2">  1       -3 0.16074563E-02 0.88433310E+02</pdfrwt>
<totfact> 0.15015115E+03</totfact>
</mgrwt>
</event>
<event>
 4    1  0.5074571E-001  0.8946484E+02  0.7546771E-02  0.1304153E+00
          2   -1    0    0  501    0  0.00000000000E+00  0.00000000000E+00  0.79191404358E+03  0.79191404358E+03  0.00000000000E+00 0. -1.
         -2   -1    0    0    0  501 -0.00000000000E+00 -0.00000000000E+00 -0.10139665888E+02  0.10139665888E+02  0.00000000000E+00 0.  1.
         24    1    1    2    0    0  0.13518915476E+02 -0.36796483264E+02  0.41361257454E+03  0.42317764595E+03  0.80419002446E+02 0. -1.
        -24    1    1    2    0    0 -0.13518915476E+02  0.36796483264E+02  0.36816180314E+03  0.37887606351E+03  0.80419002446E+02 0.  1.
<mgrwt>
<rscale>  0 0.89464843E+02</rscale>
<asrwt>0</asrwt>
<pdfrwt beam="1">  1        2 0.12183288E+00 0.89464843E+02</pdfrwt>
<pdfrwt beam="2">  1       -2 0.15599492E-02 0.89464843E+02</pdfrwt>
<totfact> 0.36051782E+04</totfact>
</mgrwt>
</event>
<event>
 4    1  0.5074571E-001  0.1034211E+03  0.7546771E-02  0.1273262E+00
         -2   -1    0    0    0  501 -0.00000000000E+00  0.00000000000E+00  0.20770300241E+02  0.20770300241E+02  0.00000000000E+00 0.  1.
          2   -1    0    0  501    0  0.00000000000E+00 -0.00000000000E+00 -0.51532770552E+03  0.51532770552E+03  0.00000000000E+00 0. -1.
         24    1    1    2    0    0 -0.59734348102E+02  0.25700351403E+02 -0.25441888679E+03  0.27463591592E+03  0.80419002446E+02 0.  0.
        -24    1    1    2    0    0  0.59734348102E+02 -0.25700351403E+02 -0.24013851850E+03  0.26146208984E+03  0.80419002446E+02 0.  1.
<mgrwt>
<rscale>  0 0.10342106E+03</rscale>
<asrwt>0</asrwt>
<pdfrwt beam="1">  1        2 0.79281174E-01 0.10342106E+03</pdfrwt>
<pdfrwt beam="2">  1       -2 0.31954313E-02 0.10342106E+03</pdfrwt>
<totfact> 0.21247053E+04</totfact>
</mgrwt>
</event>
<event>
 4    1  0.5074571E-001  0.9701050E+02  0.7546771E-02  0.1286711E+00
          1   -1    0    0  501    0  0.00000000000E+00  0.00000000000E+00  0.17081305439E+04  0.17081305439E+04  0.00000000000E+00 0. -1.
         -1   -1    0    0    0  501 -0.00000000000E+00 -0.00000000000E+00 -0.48679962531E+02  0.48679962531E+02  0.00000000000E+00 0.  1.
         24    1    1    2    0    0 -0.27695584221E+02  0.46655927499E+02  0.25207920087E+01  0.97043244499E+02  0.80419002446E+02 0.  1.
        -24    1    1    2    0    0  0.27695584221E+02 -0.46655927499E+02  0.16569297894E+04  0.16597672620E+04  0.80419002446E+02 0. -1.
<mgrwt>
<rscale>  0 0.97010499E+02</rscale>
<asrwt>0</asrwt>
<pdfrwt beam="1">  1        1 0.26278927E+00 0.97010499E+02</pdfrwt>
<pdfrwt beam="2">  1       -1 0.74892263E-02 0.97010499E+02</pdfrwt>
<totfact> 0.51565626E+02</totfact>
</mgrwt>
</event>
<event>
 4    1  0.5074571E-001  0.1196297E+03  0.7546771E-02  0.1243709E+00
         -1   -1    0    0    0  501 -0.00000000000E+00  0.00000000000E+00  0.23089010157E+03  0.23089010157E+03  0.00000000000E+00 0.  1.
          1   -1    0    0  501    0  0.00000000000E+00 -0.00000000000E+00 -0.21900402721E+03  0.21900402721E+03  0.00000000000E+00 0. -1.
         24    1    1    2    0    0 -0.83141830303E+02  0.30520176399E+02  0.19641593408E+03  0.22997930392E+03  0.80419002446E+02 0.  1.
        -24    1    1    2    0    0  0.83141830303E+02 -0.30520176399E+02 -0.18452985972E+03  0.21991482486E+03  0.80419002446E+02 0. -1.
<mgrwt>
<rscale>  0 0.11962968E+03</rscale>
<asrwt>0</asrwt>
<pdfrwt beam="1">  1        1 0.33692927E-01 0.11962968E+03</pdfrwt>
<pdfrwt beam="2">  1       -1 0.35521554E-01 0.11962968E+03</pdfrwt>
<totfact> 0.98495340E+02</totfact>
</mgrwt>
</event>
<event>
 4    1  0.5074571E-001  0.1029905E+03  0.7546771E-02  0.1274130E+00
          2   -1    0    0  501    0  0.00000000000E+00  0.00000000000E+00  0.51219879435E+03  0.51219879435E+03  0.00000000000E+00 0. -1.
         -2   -1    0    0    0  501 -0.00000000000E+00 -0.00000000000E+00 -0.22324103257E+02  0.22324103257E+02  0.00000000000E+00 0.  1.
         24    1    1    2    0    0 -0.32212731978E+02 -0.55697079622E+02  0.17304684169E+03  0.20137589269E+03  0.80419002446E+02 0.  1.
        -24    1    1    2    0    0  0.32212731978E+02  0.55697079622E+02  0.31682784940E+03  0.33314700492E+03  0.80419002446E+02 0. -1.
<mgrwt>
<rscale>  0 0.10299050E+03</rscale>
<asrwt>0</asrwt>
<pdfrwt beam="1">  1        2 0.78799806E-01 0.10299051E+03</pdfrwt>
<pdfrwt beam="2">  1       -2 0.34344778E-02 0.10299051E+03</pdfrwt>
<totfact> 0.19236708E+04</totfact>
</mgrwt>
</event>
<event>
 4    1  0.5074571E-001  0.9653074E+02  0.7546771E-02  0.1287765E+00
          4   -1    0    0  501    0  0.00000000000E+00  0.00000000000E+00  0.12324652822E+02  0.12324652822E+02  0.00000000000E+00 0. -1.
         -4   -1    0    0    0  501 -0.00000000000E+00 -0.00000000000E+00 -0.11948097748E+04  0.11948097748E+04  0.00000000000E+00 0.  1.
         24    1    1    2    0    0 -0.27891333711E+02  0.45530673285E+02 -0.22549250334E+03  0.24528565739E+03  0.80419002446E+02 0. -1.
        -24    1    1    2    0    0  0.27891333711E+02 -0.45530673285E+02 -0.95699261862E+03  0.96184877021E+03  0.80419002446E+02 0.  1.
<mgrwt>
<rscale>  0 0.96530745E+02</rscale>
<asrwt>0</asrwt>
<pdfrwt beam="1">  1        4 0.18961001E-02 0.96530745E+02</pdfrwt>
<pdfrwt beam="2">  1       -4 0.18381693E+00 0.96530745E+02</pdfrwt>
<totfact> 0.32087469E+02</totfact>
</mgrwt>
</event>
<event>
 4    1  0.5074571E-001  0.8463848E+02  0.7546771E-02  0.1316381E+00
         -2   -1    0    0    0  501 -0.00000000000E+00  0.00000000000E+00  0.15611673603E+02  0.15611673603E+02  0.00000000000E+00 0.  1.
          2   -1    0    0  501    0  0.00000000000E+00 -0.00000000000E+00 -0.83459273765E+03  0.83459273765E+03  0.00000000000E+00 0. -1.
         24    1    1    2    0    0  0.13758937289E+02 -0.22519952835E+02 -0.69471834557E+03  0.69985516520E+03  0.80419002446E+02 0. -1.
        -24    1    1    2    0    0 -0.13758937289E+02  0.22519952835E+02 -0.12426271848E+03  0.15034924605E+03  0.80419002446E+02 0.  1.
<mgrwt>
<rscale>  0 0.84638482E+02</rscale>
<asrwt>0</asrwt>
<pdfrwt beam="1">  1        2 0.12839891E+00 0.84638482E+02</pdfrwt>
<pdfrwt beam="2">  1       -2 0.24017955E-02 0.84638482E+02</pdfrwt>
<totfact> 0.18108722E+04</totfact>
</mgrwt>
</event>
<event>
 4    1  0.5074571E-001  0.1118343E+03  0.7546771E-02  0.1257210E+00
          1   -1    0    0  501    0  0.00000000000E+00  0.00000000000E+00  0.29577855056E+02  0.29577855056E+02  0.00000000000E+00 0. -1.
         -1   -1    0    0    0  501 -0.00000000000E+00 -0.00000000000E+00 -0.61602385163E+03  0.61602385163E+03  0.00000000000E+00 0.  1.
         24    1    1    2    0    0 -0.55491229967E+02 -0.54409749329E+02 -0.47398752989E+03  0.48700214771E+03  0.80419002446E+02 0.  1.
        -24    1    1    2    0    0  0.55491229967E+02  0.54409749329E+02 -0.11245846668E+03  0.15859955898E+03  0.80419002446E+02 0. -1.
<mgrwt>
<rscale>  0 0.11183431E+03</rscale>
<asrwt>0</asrwt>
<pdfrwt beam="1">  1        1 0.45504397E-02 0.11183431E+03</pdfrwt>
<pdfrwt beam="2">  1       -1 0.94772891E-01 0.11183431E+03</pdfrwt>
<totfact> 0.20707476E+03</totfact>
</mgrwt>
</event>
<event>
 4    1  0.5074571E-001  0.8736844E+02  0.7546771E-02  0.1309352E+00
          2   -1    0    0  501    0  0.00000000000E+00  0.00000000000E+00  0.11311548760E+04  0.11311548760E+04  0.00000000000E+00 0. -1.
         -2   -1    0    0    0  501 -0.00000000000E+00 -0.00000000000E+00 -0.11396114862E+02  0.11396114862E+02  0.00000000000E+00 0.  1.
         24    1    1    2    0    0 -0.40245717614E-01  0.34147141849E+02  0.92471469225E+03  0.92883287352E+03  0.80419002446E+02 0. -1.
        -24    1    1    2    0    0  0.40245717614E-01 -0.34147141849E+02  0.19504406888E+03  0.21371811733E+03  0.80419002446E+02 0.  1.
<mgrwt>
<rscale>  0 0.87368443E+02</rscale>
<asrwt>0</asrwt>
<pdfrwt beam="1">  1        2 0.17402374E+00 0.87368443E+02</pdfrwt>
<pdfrwt beam="2">  1       -2 0.17532493E-02 0.87368443E+02</pdfrwt>
<totfact> 0.19030372E+04</totfact>
</mgrwt>
</event>
<event>
 4    1  0.5074571E-001  0.9311228E+02  0.7546771E-02  0.1295485E+00
          1   -1    0    0  501    0  0.00000000000E+00  0.00000000000E+00  0.38677744851E+02  0.38677744851E+02  0.00000000000E+00 0. -1.
         -1   -1    0    0    0  501 -0.00000000000E+00 -0.00000000000E+00 -0.23080235372E+03  0.23080235372E+03  0.00000000000E+00 0.  1.
         24    1    1    2    0    0  0.11587537200E+02  0.45479773582E+02 -0.11892500819E+03  0.15103990980E+03  0.80419002446E+02 0.  0.
        -24    1    1    2    0    0 -0.11587537200E+02 -0.45479773582E+02 -0.73199600676E+02  0.11844018877E+03  0.80419002446E+02 0. -1.
<mgrwt>
<rscale>  0 0.93112280E+02</rscale>
<asrwt>0</asrwt>
<pdfrwt beam="1">  1        1 0.59504223E-02 0.93112280E+02</pdfrwt>
<pdfrwt beam="2">  1       -1 0.35508054E-01 0.93112280E+02</pdfrwt>
<totfact> 0.90730459E+03</totfact>
</mgrwt>
</event>
<event>
 4    1  0.5074571E-001  0.8156502E+02  0.7546771E-02  0.1324668E+00
          2   -1    0    0  501    0  0.00000000000E+00  0.00000000000E+00  0.88169662586E+01  0.88169662586E+01  0.00000000000E+00 0. -1.
         -2   -1    0    0    0  501 -0.00000000000E+00 -0.00000000000E+00 -0.85412733867E+03  0.85412733867E+03  0.00000000000E+00 0.  1.
         24    1    1    2    0    0  0.57250614916E+01 -0.12363681986E+02 -0.27533271659E+03  0.28716016044E+03  0.80419002446E+02 0. -1.
        -24    1    1    2    0    0 -0.57250614916E+01  0.12363681986E+02 -0.56997765582E+03  0.57578414449E+03  0.80419002446E+02 0. -1.
<mgrwt>
<rscale>  0 0.81565023E+02</rscale>
<asrwt>0</asrwt>
<pdfrwt beam="1">  1        2 0.13564565E-02 0.81565023E+02</pdfrwt>
<pdfrwt beam="2">  1       -2 0.13140419E+00 0.81565023E+02</pdfrwt>
<totfact> 0.37573165E+03</totfact>
</mgrwt>
</event>
<event>
 4    1  0.5074571E-001  0.9893967E+02  0.7546771E-02  0.1282542E+00
         -2   -1    0    0    0  501 -0.00000000000E+00  0.00000000000E+00  0.51365667630E+01  0.51365667630E+01  0.00000000000E+00 0.  1.
          2   -1    0    0  501    0  0.00000000000E+00 -0.00000000000E+00 -0.20498811148E+04  0.20498811148E+04  0.00000000000E+00 0. -1.
         24    1    1    2    0    0  0.46718889477E+02  0.33751785471E+02 -0.74992157298E+03  0.75642013408E+03  0.80419002446E+02 0.  1.
        -24    1    1    2    0    0 -0.46718889477E+02 -0.33751785471E+02 -0.12948229751E+04  0.12985975475E+04  0.80419002446E+02 0.  1.
<mgrwt>
<rscale>  0 0.98939659E+02</rscale>
<asrwt>0</asrwt>
<pdfrwt beam="1">  1        2 0.31536697E+00 0.98939671E+02</pdfrwt>
<pdfrwt beam="2">  1       -2 0.79023942E-03 0.98939671E+02</pdfrwt>
<totfact> 0.20062703E+04</totfact>
</mgrwt>
</event>
<event>
 4    1  0.5074571E-001  0.9600202E+02  0.7546771E-02  0.1288935E+00
         -2   -1    0    0    0  501 -0.00000000000E+00  0.00000000000E+00  0.68697440206E+01  0.68697440206E+01  0.00000000000E+00 0.  1.
          2   -1    0    0  501    0  0.00000000000E+00 -0.00000000000E+00 -0.19725562357E+04  0.19725562357E+04  0.00000000000E+00 0. -1.
         24    1    1    2    0    0  0.51756464248E+02 -0.83928683518E+01 -0.15425972870E+04  0.15455816955E+04  0.80419002446E+02 0. -1.
        -24    1    1    2    0    0 -0.51756464248E+02  0.83928683518E+01 -0.42308920472E+03  0.43384428421E+03  0.80419002446E+02 0.  1.
<mgrwt>
<rscale>  0 0.96002020E+02</rscale>
<asrwt>0</asrwt>
<pdfrwt beam="1">  1        2 0.30347006E+00 0.96002020E+02</pdfrwt>
<pdfrwt beam="2">  1       -2 0.10568841E-02 0.96002020E+02</pdfrwt>
<totfact> 0.14517752E+04</totfact>
</mgrwt>
</event>
<event>
 4    1  0.5074571E-001  0.8428693E+02  0.7546771E-02  0.1317308E+00
          1   -1    0    0  501    0  0.00000000000E+00  0.00000000000E+00  0.28231541175E+02  0.28231541175E+02  0.00000000000E+00 0. -1.
         -1   -1    0    0    0  501 -0.00000000000E+00 -0.00000000000E+00 -0.25633400278E+03  0.25633400278E+03  0.00000000000E+00 0.  1.
         24    1    1    2    0    0 -0.91211709663E+01 -0.23534555940E+02 -0.13329781436E+03  0.15771047635E+03  0.80419002446E+02 0.  1.
        -24    1    1    2    0    0  0.91211709663E+01  0.23534555940E+02 -0.94804647243E+02  0.12685506760E+03  0.80419002446E+02 0. -1.
<mgrwt>
<rscale>  0 0.84286933E+02</rscale>
<asrwt>0</asrwt>
<pdfrwt beam="1">  1        1 0.43433141E-02 0.84286933E+02</pdfrwt>
<pdfrwt beam="2">  1       -1 0.39436000E-01 0.84286933E+02</pdfrwt>
<totfact> 0.11471773E+04</totfact>
</mgrwt>
</event>
<event>
 4    1  0.5074571E-001  0.1249313E+03  0.7546771E-02  0.1235177E+00
         -2   -1    0    0    0  501 -0.00000000000E+00  0.00000000000E+00  0.20520475879E+03  0.20520475879E+03  0.00000000000E+00 0.  1.
          2   -1    0    0  501    0  0.00000000000E+00 -0.00000000000E+00 -0.24758926384E+03  0.24758926384E+03  0.00000000000E+00 0. -1.
         24    1    1    2    0    0  0.87591605891E+02 -0.38318679833E+02 -0.20963272702E+03  0.24403628181E+03  0.80419002446E+02 0. -1.
        -24    1    1    2    0    0 -0.87591605891E+02  0.38318679833E+02  0.16724822197E+03  0.20875774082E+03  0.80419002446E+02 0.  1.
<mgrwt>
<rscale>  0 0.12493129E+03</rscale>
<asrwt>0</asrwt>
<pdfrwt beam="1">  1        2 0.38090656E-01 0.12493129E+03</pdfrwt>
<pdfrwt beam="2">  1       -2 0.31569963E-01 0.12493129E+03</pdfrwt>
<totfact> 0.12326026E+03</totfact>
</mgrwt>
</event>
<event>
 4    1  0.5074571E-001  0.8539287E+02  0.7546771E-02  0.1314408E+00
          2   -1    0    0  501    0  0.00000000000E+00  0.00000000000E+00  0.32896120205E+03  0.32896120205E+03  0.00000000000E+00 0. -1.
         -2   -1    0    0    0  501 -0.00000000000E+00 -0.00000000000E+00 -0.22353959530E+02  0.22353959530E+02  0.00000000000E+00 0.  1.
         24    1    1    2    0    0  0.28338122676E+02 -0.46557933816E+01  0.16938643932E+03  0.18969371995E+03  0.80419002446E+02 0. -1.
        -24    1    1    2    0    0 -0.28338122676E+02  0.46557933816E+01  0.13722080319E+03  0.16162144162E+03  0.80419002446E+02 0.  1.
<mgrwt>
<rscale>  0 0.85392866E+02</rscale>
<asrwt>0</asrwt>
<pdfrwt beam="1">  1        2 0.50609412E-01 0.85392866E+02</pdfrwt>
<pdfrwt beam="2">  1       -2 0.34390709E-02 0.85392866E+02</pdfrwt>
<totfact> 0.30096885E+04</totfact>
</mgrwt>
</event>
<event>
 4    1  0.5074571E-001  0.8368014E+02  0.7546771E-02  0.1318921E+00
          2   -1    0    0  501    0  0.00000000000E+00  0.00000000000E+00  0.38175004587E+02  0.38175004587E+02  0.00000000000E+00 0. -1.
         -2   -1    0    0    0  501 -0.00000000000E+00 -0.00000000000E+00 -0.50343555955E+03  0.50343555955E+03  0.00000000000E+00 0.  1.
         24    1    1    2    0    0 -0.11912230610E+02 -0.19830508651E+02 -0.16723995471E+02  0.85334976946E+02  0.80419002446E+02 0. -1.
        -24    1    1    2    0    0  0.11912230610E+02  0.19830508651E+02 -0.44853655950E+03  0.45627558719E+03  0.80419002446E+02 0.  1.
<mgrwt>
<rscale>  0 0.83680143E+02</rscale>
<asrwt>0</asrwt>
<pdfrwt beam="1">  1        2 0.58730782E-02 0.83680143E+02</pdfrwt>
<pdfrwt beam="2">  1       -2 0.77451616E-01 0.83680143E+02</pdfrwt>
<totfact> 0.18151401E+03</totfact>
</mgrwt>
</event>
<event>
 4    1  0.5074571E-001  0.9649499E+02  0.7546771E-02  0.1287844E+00
         -2   -1    0    0    0  501 -0.00000000000E+00  0.00000000000E+00  0.13526480711E+02  0.13526480711E+02  0.00000000000E+00 0.  1.
          2   -1    0    0  501    0  0.00000000000E+00 -0.00000000000E+00 -0.15852360631E+04  0.15852360631E+04  0.00000000000E+00 0. -1.
         24    1    1    2    0    0  0.20285997701E+02  0.49320836484E+02 -0.13871250689E+04  0.13904773422E+04  0.80419002446E+02 0. -1.
        -24    1    1    2    0    0 -0.20285997701E+02 -0.49320836484E+02 -0.18458451357E+03  0.20828520163E+03  0.80419002446E+02 0.  1.
<mgrwt>
<rscale>  0 0.96494987E+02</rscale>
<asrwt>0</asrwt>
<pdfrwt beam="1">  1        2 0.24388250E+00 0.96494987E+02</pdfrwt>
<pdfrwt beam="2">  1       -2 0.20809968E-02 0.96494987E+02</pdfrwt>
<totfact> 0.86442400E+03</totfact>
</mgrwt>
</event>
<event>
 4    1  0.5074571E-001  0.1103758E+03  0.7546771E-02  0.1259876E+00
         -1   -1    0    0    0  501 -0.00000000000E+00  0.00000000000E+00  0.12014765049E+03  0.12014765049E+03  0.00000000000E+00 0.  1.
          1   -1    0    0  501    0  0.00000000000E+00 -0.00000000000E+00 -0.11697600302E+03  0.11697600302E+03  0.00000000000E+00 0. -1.
         24    1    1    2    0    0  0.38438396308E+02  0.65100614285E+02  0.44851405597E+02  0.11914052555E+03  0.80419002446E+02 0.  1.
        -24    1    1    2    0    0 -0.38438396308E+02 -0.65100614285E+02 -0.41679758120E+02  0.11798312796E+03  0.80419002446E+02 0. -1.
<mgrwt>
<rscale>  0 0.11037580E+03</rscale>
<asrwt>0</asrwt>
<pdfrwt beam="1">  1        1 0.17996308E-01 0.11037580E+03</pdfrwt>
<pdfrwt beam="2">  1       -1 0.18484254E-01 0.11037580E+03</pdfrwt>
<totfact> 0.62901553E+03</totfact>
</mgrwt>
</event>
<event>
 4    1  0.5074571E-001  0.9036070E+02  0.7546771E-02  0.1301981E+00
         -2   -1    0    0    0  501 -0.00000000000E+00  0.00000000000E+00  0.16297878364E+02  0.16297878364E+02  0.00000000000E+00 0.  1.
          2   -1    0    0  501    0  0.00000000000E+00 -0.00000000000E+00 -0.88089461112E+03  0.88089461112E+03  0.00000000000E+00 0. -1.
         24    1    1    2    0    0  0.39703338873E+02  0.11022010521E+02 -0.72689757858E+03  0.73249242012E+03  0.80419002446E+02 0. -1.
        -24    1    1    2    0    0 -0.39703338873E+02 -0.11022010521E+02 -0.13769915418E+03  0.16470006937E+03  0.80419002446E+02 0.  1.
<mgrwt>
<rscale>  0 0.90360698E+02</rscale>
<asrwt>0</asrwt>
<pdfrwt beam="1">  1        2 0.13552224E+00 0.90360698E+02</pdfrwt>
<pdfrwt beam="2">  1       -2 0.25073661E-02 0.90360698E+02</pdfrwt>
<totfact> 0.15994840E+04</totfact>
</mgrwt>
</event>
<event>
 4    1  0.5074571E-001  0.8097153E+02  0.7546771E-02  0.1326317E+00
         -2   -1    0    0    0  501 -0.00000000000E+00  0.00000000000E+00  0.99239890562E+01  0.99239890562E+01  0.00000000000E+00 0.  1.
          2   -1    0    0  501    0  0.00000000000E+00 -0.00000000000E+00 -0.13629446085E+04  0.13629446085E+04  0.00000000000E+00 0. -1.
         24    1    1    2    0    0 -0.92155925474E+01  0.20604517323E+01 -0.11692485433E+04  0.11720488662E+04  0.80419002446E+02 0. -1.
        -24    1    1    2    0    0  0.92155925474E+01 -0.20604517323E+01 -0.18377207607E+03  0.20081973136E+03  0.80419002446E+02 0.  0.
<mgrwt>
<rscale>  0 0.80971529E+02</rscale>
<asrwt>0</asrwt>
<pdfrwt beam="1">  1        2 0.20968375E+00 0.80971529E+02</pdfrwt>
<pdfrwt beam="2">  1       -2 0.15267678E-02 0.80971529E+02</pdfrwt>
<totfact> 0.17322206E+04</totfact>
</mgrwt>
</event>
<event>
 4    1  0.5074571E-001  0.1133916E+03  0.7546771E-02  0.1254415E+00
         -2   -1    0    0    0  501 -0.00000000000E+00  0.00000000000E+00  0.39003555944E+01  0.39003555944E+01  0.00000000000E+00 0.  1.
          2   -1    0    0  501    0  0.00000000000E+00 -0.00000000000E+00 -0.34374650146E+04  0.34374650146E+04  0.00000000000E+00 0. -1.
         24    1    1    2    0    0 -0.65429655288E+01 -0.79671977961E+02 -0.13683754881E+04  0.13730655945E+04  0.80419002446E+02 0. -1.
        -24    1    1    2    0    0  0.65429655288E+01  0.79671977961E+02 -0.20651891709E+04  0.20682997757E+04  0.80419002446E+02 0.  0.
<mgrwt>
<rscale>  0 0.11339159E+03</rscale>
<asrwt>0</asrwt>
<pdfrwt beam="1">  1        2 0.52884143E+00 0.11339161E+03</pdfrwt>
<pdfrwt beam="2">  1       -2 0.60005396E-03 0.11339161E+03</pdfrwt>
<totfact> 0.50495116E+03</totfact>
</mgrwt>
</event>
<event>
 4    1  0.5074571E-001  0.8096134E+02  0.7546771E-02  0.1326345E+00
          2   -1    0    0  501    0  0.00000000000E+00  0.00000000000E+00  0.13793289278E+03  0.13793289278E+03  0.00000000000E+00 0. -1.
         -2   -1    0    0    0  501 -0.00000000000E+00 -0.00000000000E+00 -0.96816138961E+03  0.96816138961E+03  0.00000000000E+00 0.  1.
         24    1    1    2    0    0 -0.87375783942E+01  0.33433192599E+01  0.12418924428E+03  0.14824880238E+03  0.80419002446E+02 0. -1.
        -24    1    1    2    0    0  0.87375783942E+01 -0.33433192599E+01 -0.95441774111E+03  0.95784548000E+03  0.80419002446E+02 0.  1.
<mgrwt>
<rscale>  0 0.80961343E+02</rscale>
<asrwt>0</asrwt>
<pdfrwt beam="1">  1        2 0.21220445E-01 0.80961343E+02</pdfrwt>
<pdfrwt beam="2">  1       -2 0.14894791E+00 0.80961343E+02</pdfrwt>
<totfact> 0.85925347E+01</totfact>
</mgrwt>
</event>
<event>
 4    1  0.5074571E-001  0.8071065E+02  0.7546771E-02  0.1327047E+00
         -1   -1    0    0    0  501 -0.00000000000E+00  0.00000000000E+00  0.68687553747E+02  0.68687553747E+02  0.00000000000E+00 0.  1.
          1   -1    0    0  501    0  0.00000000000E+00 -0.00000000000E+00 -0.10945514896E+03  0.10945514896E+03  0.00000000000E+00 0. -1.
         24    1    1    2    0    0 -0.68517233703E+01  0.21562205011E+00  0.12165926613E+02  0.81622413164E+02  0.80419002446E+02 0.  1.
        -24    1    1    2    0    0  0.68517233703E+01 -0.21562205011E+00 -0.52933521821E+02  0.96520289540E+02  0.80419002446E+02 0.  0.
<mgrwt>
<rscale>  0 0.80710647E+02</rscale>
<asrwt>0</asrwt>
<pdfrwt beam="1">  1        1 0.16839254E-01 0.80710647E+02</pdfrwt>
<pdfrwt beam="2">  1       -1 0.10567316E-01 0.80710647E+02</pdfrwt>
<totfact> 0.15771424E+04</totfact>
</mgrwt>
</event>
<event>
 4    1  0.5074571E-001  0.1315531E+03  0.7546771E-02  0.1225169E+00
         -1   -1    0    0    0  501 -0.00000000000E+00  0.00000000000E+00  0.85891236866E+02  0.85891236866E+02  0.00000000000E+00 0.  1.
          1   -1    0    0  501    0  0.00000000000E+00 -0.00000000000E+00 -0.24226458481E+03  0.24226458481E+03  0.00000000000E+00 0. -1.
         24    1    1    2    0    0  0.57169119743E+02  0.87009743029E+02 -0.10873467216E+02  0.13200171165E+03  0.80419002446E+02 0.  1.
        -24    1    1    2    0    0 -0.57169119743E+02 -0.87009743029E+02 -0.14549988073E+03  0.19615411002E+03  0.80419002446E+02 0. -1.
<mgrwt>
<rscale>  0 0.13155311E+03</rscale>
<asrwt>0</asrwt>
<pdfrwt beam="1">  1        1 0.37271475E-01 0.13155311E+03</pdfrwt>
<pdfrwt beam="2">  1       -1 0.13214036E-01 0.13155311E+03</pdfrwt>
<totfact> 0.43343763E+03</totfact>
</mgrwt>
</event>
<event>
 4    1  0.5074571E-001  0.1028054E+03  0.7546771E-02  0.1274505E+00
          3   -1    0    0  501    0  0.00000000000E+00  0.00000000000E+00  0.42811858989E+03  0.42811858989E+03  0.00000000000E+00 0. -1.
         -3   -1    0    0    0  501 -0.00000000000E+00 -0.00000000000E+00 -0.41241364393E+02  0.41241364393E+02  0.00000000000E+00 0.  1.
         24    1    1    2    0    0  0.46846538682E+00  0.64043074862E+02  0.34212327535E+03  0.35723561747E+03  0.80419002446E+02 0.  0.
        -24    1    1    2    0    0 -0.46846538682E+00 -0.64043074862E+02  0.44753950144E+02  0.11212433681E+03  0.80419002446E+02 0.  0.
<mgrwt>
<rscale>  0 0.10280542E+03</rscale>
<asrwt>0</asrwt>
<pdfrwt beam="1">  1        3 0.65864395E-01 0.10280543E+03</pdfrwt>
<pdfrwt beam="2">  1       -3 0.63448256E-02 0.10280543E+03</pdfrwt>
<totfact> 0.77861011E+02</totfact>
</mgrwt>
</event>
<event>
 4    1  0.5074571E-001  0.9495325E+02  0.7546771E-02  0.1291281E+00
         -1   -1    0    0    0  501 -0.00000000000E+00  0.00000000000E+00  0.18024856312E+02  0.18024856312E+02  0.00000000000E+00 0.  1.
          1   -1    0    0  501    0  0.00000000000E+00 -0.00000000000E+00 -0.67725591610E+03  0.67725591610E+03  0.00000000000E+00 0. -1.
         24    1    1    2    0    0 -0.47719848945E+02 -0.16483924444E+02 -0.15186817337E+03  0.17910907790E+03  0.80419002446E+02 0.  1.
        -24    1    1    2    0    0  0.47719848945E+02  0.16483924444E+02 -0.50736288642E+03  0.51617169451E+03  0.80419002446E+02 0. -1.
<mgrwt>
<rscale>  0 0.94953250E+02</rscale>
<asrwt>0</asrwt>
<pdfrwt beam="1">  1        1 0.10419319E+00 0.94953250E+02</pdfrwt>
<pdfrwt beam="2">  1       -1 0.27730555E-02 0.94953250E+02</pdfrwt>
<totfact> 0.11651272E+04</totfact>
</mgrwt>
</event>
<event>
 4    1  0.5074571E-001  0.9699880E+02  0.7546771E-02  0.1286737E+00
          4   -1    0    0  501    0  0.00000000000E+00  0.00000000000E+00  0.45968649278E+02  0.45968649278E+02  0.00000000000E+00 0. -1.
         -4   -1    0    0    0  501 -0.00000000000E+00 -0.00000000000E+00 -0.28987211342E+03  0.28987211342E+03  0.00000000000E+00 0.  1.
         24    1    1    2    0    0  0.25097225781E+02 -0.48079948775E+02 -0.30917411530E+02  0.10180694724E+03  0.80419002446E+02 0. -1.
        -24    1    1    2    0    0 -0.25097225781E+02  0.48079948775E+02 -0.21298605261E+03  0.23403381545E+03  0.80419002446E+02 0.  1.
<mgrwt>
<rscale>  0 0.96998805E+02</rscale>
<asrwt>0</asrwt>
<pdfrwt beam="1">  1        4 0.70721000E-02 0.96998805E+02</pdfrwt>
<pdfrwt beam="2">  1       -4 0.44595709E-01 0.96998805E+02</pdfrwt>
<totfact> 0.10148349E+03</totfact>
</mgrwt>
</event>
<event>
 4    1  0.5074571E-001  0.8118748E+02  0.7546771E-02  0.1325715E+00
          2   -1    0    0  501    0  0.00000000000E+00  0.00000000000E+00  0.84964887372E+03  0.84964887372E+03  0.00000000000E+00 0. -1.
         -2   -1    0    0    0  501 -0.00000000000E+00 -0.00000000000E+00 -0.11273823125E+02  0.11273823125E+02  0.00000000000E+00 0.  1.
         24    1    1    2    0    0 -0.28368931529E+01  0.10776972523E+02  0.65958192196E+03  0.66455979327E+03  0.80419002446E+02 0.  0.
        -24    1    1    2    0    0  0.28368931529E+01 -0.10776972523E+02  0.17879312864E+03  0.19636290358E+03  0.80419002446E+02 0.  1.
<mgrwt>
<rscale>  0 0.81187481E+02</rscale>
<asrwt>0</asrwt>
<pdfrwt beam="1">  1        2 0.13071516E+00 0.81187481E+02</pdfrwt>
<pdfrwt beam="2">  1       -2 0.17344350E-02 0.81187481E+02</pdfrwt>
<totfact> 0.28130622E+04</totfact>
</mgrwt>
</event>
<event>
 4    1  0.5074571E-001  0.8322943E+02  0.7546771E-02  0.1320129E+00
         -1   -1    0    0    0  501 -0.00000000000E+00  0.00000000000E+00  0.72704144527E+02  0.72704144527E+02  0.00000000000E+00 0.  1.
          1   -1    0    0  501    0  0.00000000000E+00 -0.00000000000E+00 -0.16900213611E+03  0.16900213611E+03  0.00000000000E+00 0. -1.
         24    1    1    2    0    0  0.18744392214E+02 -0.10419711210E+02  0.31671670436E+02  0.89051857273E+02  0.80419002446E+02 0.  1.
        -24    1    1    2    0    0 -0.18744392214E+02  0.10419711210E+02 -0.12796966202E+03  0.15265442336E+03  0.80419002446E+02 0. -1.
<mgrwt>
<rscale>  0 0.83229433E+02</rscale>
<asrwt>0</asrwt>
<pdfrwt beam="1">  1        1 0.26000328E-01 0.83229433E+02</pdfrwt>
<pdfrwt beam="2">  1       -1 0.11185253E-01 0.83229433E+02</pdfrwt>
<totfact> 0.84407521E+03</totfact>
</mgrwt>
</event>
<event>
 4    1  0.5074571E-001  0.1292275E+03  0.7546771E-02  0.1228607E+00
         -2   -1    0    0    0  501 -0.00000000000E+00  0.00000000000E+00  0.72576031514E+01  0.72576031514E+01  0.00000000000E+00 0.  1.
          2   -1    0    0  501    0  0.00000000000E+00 -0.00000000000E+00 -0.23034092356E+04  0.23034092356E+04  0.00000000000E+00 0. -1.
         24    1    1    2    0    0  0.57733423582E+01 -0.10099105788E+03 -0.11854444023E+04  0.11924672625E+04  0.80419002446E+02 0.  0.
        -24    1    1    2    0    0 -0.57733423582E+01  0.10099105788E+03 -0.11107072302E+04  0.11181995763E+04  0.80419002446E+02 0.  0.
<mgrwt>
<rscale>  0 0.12922748E+03</rscale>
<asrwt>0</asrwt>
<pdfrwt beam="1">  1        2 0.35437143E+00 0.12922748E+03</pdfrwt>
<pdfrwt beam="2">  1       -2 0.11165519E-02 0.12922748E+03</pdfrwt>
<totfact> 0.91913818E+03</totfact>
</mgrwt>
</event>
<event>
 4    1  0.5074571E-001  0.8559100E+02  0.7546771E-02  0.1313894E+00
         -2   -1    0    0    0  501 -0.00000000000E+00  0.00000000000E+00  0.32135820682E+02  0.32135820682E+02  0.00000000000E+00 0.  1.
          2   -1    0    0  501    0  0.00000000000E+00 -0.00000000000E+00 -0.48018496029E+03  0.48018496029E+03  0.00000000000E+00 0. -1.
         24    1    1    2    0    0  0.23920863523E+02  0.16923239038E+02 -0.40967588654E+03  0.41852138739E+03  0.80419002446E+02 0. -1.
        -24    1    1    2    0    0 -0.23920863523E+02 -0.16923239038E+02 -0.38373253059E+02  0.93799393580E+02  0.80419002446E+02 0.  1.
<mgrwt>
<rscale>  0 0.85591002E+02</rscale>
<asrwt>0</asrwt>
<pdfrwt beam="1">  1        2 0.73874608E-01 0.85591002E+02</pdfrwt>
<pdfrwt beam="2">  1       -2 0.49439725E-02 0.85591002E+02</pdfrwt>
<totfact> 0.11857431E+04</totfact>
</mgrwt>
</event>
<event>
 4    1  0.5074571E-001  0.1144238E+03  0.7546771E-02  0.1252590E+00
         -2   -1    0    0    0  501 -0.00000000000E+00  0.00000000000E+00  0.83200158756E+01  0.83200158756E+01  0.00000000000E+00 0.  1.
          2   -1    0    0  501    0  0.00000000000E+00 -0.00000000000E+00 -0.18282161677E+04  0.18282161677E+04  0.00000000000E+00 0. -1.
         24    1    1    2    0    0  0.80361742484E+02 -0.12945160249E+02 -0.12526014862E+04  0.12578168730E+04  0.80419002446E+02 0. -1.
        -24    1    1    2    0    0 -0.80361742484E+02  0.12945160249E+02 -0.56729466566E+03  0.57871931060E+03  0.80419002446E+02 0.  1.
<mgrwt>
<rscale>  0 0.11442379E+03</rscale>
<asrwt>0</asrwt>
<pdfrwt beam="1">  1        2 0.28126402E+00 0.11442379E+03</pdfrwt>
<pdfrwt beam="2">  1       -2 0.12800025E-02 0.11442379E+03</pdfrwt>
<totfact> 0.13179492E+04</totfact>
</mgrwt>
</event>
<event>
 4    1  0.5074571E-001  0.8864921E+02  0.7546771E-02  0.1306156E+00
          3   -1    0    0  501    0  0.00000000000E+00  0.00000000000E+00  0.13375565989E+03  0.13375565989E+03  0.00000000000E+00 0. -1.
         -3   -1    0    0    0  501 -0.00000000000E+00 -0.00000000000E+00 -0.98497976738E+02  0.98497976738E+02  0.00000000000E+00 0.  1.
         24    1    1    2    0    0 -0.29344400324E+02 -0.23029809346E+02 -0.56136856438E+02  0.10492868318E+03  0.80419002446E+02 0.  1.
        -24    1    1    2    0    0  0.29344400324E+02  0.23029809346E+02  0.91394539591E+02  0.12732495345E+03  0.80419002446E+02 0. -1.
<mgrwt>
<rscale>  0 0.88649207E+02</rscale>
<asrwt>0</asrwt>
<pdfrwt beam="1">  1        3 0.20577794E-01 0.88649207E+02</pdfrwt>
<pdfrwt beam="2">  1       -3 0.15153535E-01 0.88649207E+02</pdfrwt>
<totfact> 0.16504879E+03</totfact>
</mgrwt>
</event>
<event>
 4    1  0.5074571E-001  0.1158660E+03  0.7546771E-02  0.1250077E+00
          2   -1    0    0  501    0  0.00000000000E+00  0.00000000000E+00  0.57180488225E+03  0.57180488225E+03  0.00000000000E+00 0. -1.
         -2   -1    0    0    0  501 -0.00000000000E+00 -0.00000000000E+00 -0.95464349896E+02  0.95464349896E+02  0.00000000000E+00 0.  1.
         24    1    1    2    0    0 -0.46958641930E+02 -0.68939103335E+02  0.52788799380E+03  0.54045412753E+03  0.80419002446E+02 0. -1.
        -24    1    1    2    0    0  0.46958641930E+02  0.68939103335E+02 -0.51547461446E+02  0.12681510461E+03  0.80419002446E+02 0.  1.
<mgrwt>
<rscale>  0 0.11586600E+03</rscale>
<asrwt>0</asrwt>
<pdfrwt beam="1">  1        2 0.87969980E-01 0.11586600E+03</pdfrwt>
<pdfrwt beam="2">  1       -2 0.14686823E-01 0.11586600E+03</pdfrwt>
<totfact> 0.18559912E+03</totfact>
</mgrwt>
</event>
<event>
 4    1  0.5074571E-001  0.9785228E+02  0.7546771E-02  0.1284878E+00
          2   -1    0    0  501    0  0.00000000000E+00  0.00000000000E+00  0.31331010401E+03  0.31331010401E+03  0.00000000000E+00 0.  1.
         -2   -1    0    0    0  501 -0.00000000000E+00 -0.00000000000E+00 -0.12106575000E+03  0.12106575000E+03  0.00000000000E+00 0. -1.
         24    1    1    2    0    0 -0.29598601304E+02  0.47241611255E+02 -0.91662768573E+02  0.13407880567E+03  0.80419002446E+02 0. -1.
        -24    1    1    2    0    0  0.29598601304E+02 -0.47241611255E+02  0.28390712258E+03  0.30029704834E+03  0.80419002446E+02 0.  0.
<mgrwt>
<rscale>  0 0.97852263E+02</rscale>
<asrwt>0</asrwt>
<pdfrwt beam="1">  1        2 0.48201554E-01 0.97852275E+02</pdfrwt>
<pdfrwt beam="2">  1       -2 0.18625500E-01 0.97852275E+02</pdfrwt>
<totfact> 0.23777218E+03</totfact>
</mgrwt>
</event>
<event>
 4    1  0.5074571E-001  0.9012562E+02  0.7546771E-02  0.1302548E+00
         -2   -1    0    0    0  501 -0.00000000000E+00  0.00000000000E+00  0.19667862687E+03  0.19667862687E+03  0.00000000000E+00 0.  1.
          2   -1    0    0  501    0  0.00000000000E+00 -0.00000000000E+00 -0.46297793962E+02  0.46297793962E+02  0.00000000000E+00 0. -1.
         24    1    1    2    0    0  0.66960312972E+01  0.40131970169E+02  0.35270720882E+02  0.96781462950E+02  0.80419002446E+02 0. -1.
        -24    1    1    2    0    0 -0.66960312972E+01 -0.40131970169E+02  0.11511011202E+03  0.14619495788E+03  0.80419002446E+02 0.  1.
<mgrwt>
<rscale>  0 0.90125622E+02</rscale>
<asrwt>0</asrwt>
<pdfrwt beam="1">  1        2 0.71227377E-02 0.90125622E+02</pdfrwt>
<pdfrwt beam="2">  1       -2 0.30258250E-01 0.90125622E+02</pdfrwt>
<totfact> 0.89863599E+03</totfact>
</mgrwt>
</event>
<event>
 4    1  0.5074571E-001  0.8183873E+02  0.7546771E-02  0.1323913E+00
         -1   -1    0    0    0  501 -0.00000000000E+00  0.00000000000E+00  0.89112693917E+02  0.89112693917E+02  0.00000000000E+00 0.  1.
          1   -1    0    0  501    0  0.00000000000E+00 -0.00000000000E+00 -0.13301448864E+03  0.13301448864E+03  0.00000000000E+00 0. -1.
         24    1    1    2    0    0 -0.14850891432E+02  0.31325280056E+01  0.51297199364E+02  0.96586646722E+02  0.80419002446E+02 0.  1.
        -24    1    1    2    0    0  0.14850891432E+02 -0.31325280056E+01 -0.95198994088E+02  0.12554053584E+03  0.80419002446E+02 0.  0.
<mgrwt>
<rscale>  0 0.81838730E+02</rscale>
<asrwt>0</asrwt>
<pdfrwt beam="1">  1        1 0.20463767E-01 0.81838730E+02</pdfrwt>
<pdfrwt beam="2">  1       -1 0.13709645E-01 0.81838730E+02</pdfrwt>
<totfact> 0.83171655E+03</totfact>
</mgrwt>
</event>
<event>
 4    1  0.5074571E-001  0.8445959E+02  0.7546771E-02  0.1316852E+00
          1   -1    0    0  501    0  0.00000000000E+00  0.00000000000E+00  0.85492025335E+02  0.85492025335E+02  0.00000000000E+00 0. -1.
         -1   -1    0    0    0  501 -0.00000000000E+00 -0.00000000000E+00 -0.87755673428E+02  0.87755673428E+02  0.00000000000E+00 0.  1.
         24    1    1    2    0    0  0.11276612640E+02  0.23217343832E+02 -0.20342504890E+02  0.86874855435E+02  0.80419002446E+02 0.  1.
        -24    1    1    2    0    0 -0.11276612640E+02 -0.23217343832E+02  0.18078856796E+02  0.86372843329E+02  0.80419002446E+02 0. -1.
<mgrwt>
<rscale>  0 0.84459594E+02</rscale>
<asrwt>0</asrwt>
<pdfrwt beam="1">  1        1 0.13152619E-01 0.84459594E+02</pdfrwt>
<pdfrwt beam="2">  1       -1 0.13500873E-01 0.84459594E+02</pdfrwt>
<totfact> 0.14960480E+04</totfact>
</mgrwt>
</event>
<event>
 4    1  0.5074571E-001  0.2544950E+03  0.7546771E-02  0.1110497E+00
         -2   -1    0    0    0  501 -0.00000000000E+00  0.00000000000E+00  0.12047212600E+03  0.12047212600E+03  0.00000000000E+00 0.  1.
          2   -1    0    0  501    0  0.00000000000E+00 -0.00000000000E+00 -0.82803325649E+03  0.82803325649E+03  0.00000000000E+00 0. -1.
         24    1    1    2    0    0 -0.23502434332E+03 -0.55354059327E+02 -0.63464529314E+03  0.68377070564E+03  0.80419002446E+02 0. -1.
        -24    1    1    2    0    0  0.23502434332E+03  0.55354059327E+02 -0.72915837351E+02  0.26473467685E+03  0.80419002446E+02 0.  1.
<mgrwt>
<rscale>  0 0.25449505E+03</rscale>
<asrwt>0</asrwt>
<pdfrwt beam="1">  1        2 0.12738974E+00 0.25449505E+03</pdfrwt>
<pdfrwt beam="2">  1       -2 0.18534172E-01 0.25449505E+03</pdfrwt>
<totfact> 0.81564125E+02</totfact>
</mgrwt>
</event>
<event>
 4    1  0.5074571E-001  0.8296588E+02  0.7546771E-02  0.1320839E+00
         -2   -1    0    0    0  501 -0.00000000000E+00  0.00000000000E+00  0.90903476930E+02  0.90903476930E+02  0.00000000000E+00 0.  1.
          2   -1    0    0  501    0  0.00000000000E+00 -0.00000000000E+00 -0.10315012317E+03  0.10315012317E+03  0.00000000000E+00 0. -1.
         24    1    1    2    0    0  0.14620092955E+02 -0.14225801294E+02 -0.56156698984E+02  0.10018438669E+03  0.80419002446E+02 0. -1.
        -24    1    1    2    0    0 -0.14620092955E+02  0.14225801294E+02  0.43910052744E+02  0.93869213413E+02  0.80419002446E+02 0.  1.
<mgrwt>
<rscale>  0 0.82965875E+02</rscale>
<asrwt>0</asrwt>
<pdfrwt beam="1">  1        2 0.15869250E-01 0.82965875E+02</pdfrwt>
<pdfrwt beam="2">  1       -2 0.13985150E-01 0.82965875E+02</pdfrwt>
<totfact> 0.12493072E+04</totfact>
</mgrwt>
</event>
<event>
 4    1  0.5074571E-001  0.1814087E+03  0.7546771E-02  0.1166447E+00
         -2   -1    0    0    0  501 -0.00000000000E+00  0.00000000000E+00  0.12305020531E+03  0.12305020531E+03  0.00000000000E+00 0.  1.
          2   -1    0    0  501    0  0.00000000000E+00 -0.00000000000E+00 -0.26875150880E+03  0.26875150880E+03  0.00000000000E+00 0. -1.
         24    1    1    2    0    0 -0.15654127628E+03  0.44008465869E+02 -0.86510865944E+02  0.20098075064E+03  0.80419002446E+02 0.  1.
        -24    1    1    2    0    0  0.15654127628E+03 -0.44008465869E+02 -0.59190437548E+02  0.19082096347E+03  0.80419002446E+02 0. -1.
<mgrwt>
<rscale>  0 0.18140874E+03</rscale>
<asrwt>0</asrwt>
<pdfrwt beam="1">  1        2 0.41346386E-01 0.18140874E+03</pdfrwt>
<pdfrwt beam="2">  1       -2 0.18930801E-01 0.18140874E+03</pdfrwt>
<totfact> 0.27945156E+03</totfact>
</mgrwt>
</event>
<event>
 4    1  0.5074571E-001  0.8083225E+02  0.7546771E-02  0.1326706E+00
          2   -1    0    0  501    0  0.00000000000E+00  0.00000000000E+00  0.66416509869E+03  0.66416509869E+03  0.00000000000E+00 0. -1.
         -2   -1    0    0    0  501 -0.00000000000E+00 -0.00000000000E+00 -0.47912642525E+02  0.47912642525E+02  0.00000000000E+00 0.  1.
         24    1    1    2    0    0  0.57204581494E+01 -0.58234381279E+01  0.62551533954E+03  0.63071649100E+03  0.80419002446E+02 0. -1.
        -24    1    1    2    0    0 -0.57204581494E+01  0.58234381279E+01 -0.92628833739E+01  0.81361250211E+02  0.80419002446E+02 0.  1.
<mgrwt>
<rscale>  0 0.80832246E+02</rscale>
<asrwt>0</asrwt>
<pdfrwt beam="1">  1        2 0.10217924E+00 0.80832246E+02</pdfrwt>
<pdfrwt beam="2">  1       -2 0.73711763E-02 0.80832246E+02</pdfrwt>
<totfact> 0.45407753E+03</totfact>
</mgrwt>
</event>
<event>
 4    1  0.5074571E-001  0.8263293E+02  0.7546771E-02  0.1321741E+00
         -2   -1    0    0    0  501 -0.00000000000E+00  0.00000000000E+00  0.10930471921E+02  0.10930471921E+02  0.00000000000E+00 0.  1.
          2   -1    0    0  501    0  0.00000000000E+00 -0.00000000000E+00 -0.14125670096E+04  0.14125670096E+04  0.00000000000E+00 0. -1.
         24    1    1    2    0    0  0.18752118950E+02  0.30566907004E+01 -0.12323757843E+04  0.12351430180E+04  0.80419002446E+02 0. -1.
        -24    1    1    2    0    0 -0.18752118950E+02 -0.30566907004E+01 -0.16926075333E+03  0.18835446343E+03  0.80419002446E+02 0.  1.
<mgrwt>
<rscale>  0 0.82632931E+02</rscale>
<asrwt>0</asrwt>
<pdfrwt beam="1">  1        2 0.21731789E+00 0.82632931E+02</pdfrwt>
<pdfrwt beam="2">  1       -2 0.16816119E-02 0.82632931E+02</pdfrwt>
<totfact> 0.14250286E+04</totfact>
</mgrwt>
</event>
<event>
 4    1  0.5074571E-001  0.1112496E+03  0.7546771E-02  0.1258273E+00
          2   -1    0    0  501    0  0.00000000000E+00  0.00000000000E+00  0.21409077713E+04  0.21409077713E+04  0.00000000000E+00 0. -1.
         -2   -1    0    0    0  501 -0.00000000000E+00 -0.00000000000E+00 -0.64673536199E+01  0.64673536199E+01  0.00000000000E+00 0.  1.
         24    1    1    2    0    0  0.41883753078E+02  0.64459362201E+02  0.14170085968E+04  0.14213690011E+04  0.80419002446E+02 0. -1.
        -24    1    1    2    0    0 -0.41883753078E+02 -0.64459362201E+02  0.71743182093E+03  0.72600612379E+03  0.80419002446E+02 0.  1.
<mgrwt>
<rscale>  0 0.11124960E+03</rscale>
<asrwt>0</asrwt>
<pdfrwt beam="1">  1        2 0.32936986E+00 0.11124960E+03</pdfrwt>
<pdfrwt beam="2">  1       -2 0.99497919E-03 0.11124960E+03</pdfrwt>
<totfact> 0.13080833E+04</totfact>
</mgrwt>
</event>
<event>
 4    1  0.5074571E-001  0.9983537E+02  0.7546771E-02  0.1280643E+00
          1   -1    0    0  501    0  0.00000000000E+00  0.00000000000E+00  0.60891140948E+03  0.60891140948E+03  0.00000000000E+00 0. -1.
         -1   -1    0    0    0  501 -0.00000000000E+00 -0.00000000000E+00 -0.31086275720E+02  0.31086275720E+02  0.00000000000E+00 0.  1.
         24    1    1    2    0    0  0.25789075702E+02 -0.53242923498E+02  0.68730531352E+02  0.12120638276E+03  0.80419002446E+02 0.  1.
        -24    1    1    2    0    0 -0.25789075702E+02  0.53242923498E+02  0.50909460241E+03  0.51879130244E+03  0.80419002446E+02 0. -1.
<mgrwt>
<rscale>  0 0.99835371E+02</rscale>
<asrwt>0</asrwt>
<pdfrwt beam="1">  1        1 0.93678669E-01 0.99835371E+02</pdfrwt>
<pdfrwt beam="2">  1       -1 0.47825044E-02 0.99835371E+02</pdfrwt>
<totfact> 0.61337566E+03</totfact>
</mgrwt>
</event>
<event>
 4    1  0.5074571E-001  0.8047964E+02  0.7546771E-02  0.1327696E+00
          2   -1    0    0  501    0  0.00000000000E+00  0.00000000000E+00  0.85763542023E+02  0.85763542023E+02  0.00000000000E+00 0. -1.
         -2   -1    0    0    0  501 -0.00000000000E+00 -0.00000000000E+00 -0.78882822667E+02  0.78882822667E+02  0.00000000000E+00 0.  1.
         24    1    1    2    0    0 -0.23901215407E+01  0.20107598928E+01  0.20434560870E+02  0.83033385266E+02  0.80419002446E+02 0.  0.
        -24    1    1    2    0    0  0.23901215407E+01 -0.20107598928E+01 -0.13553841514E+02  0.81612979424E+02  0.80419002446E+02 0.  1.
<mgrwt>
<rscale>  0 0.80479636E+02</rscale>
<asrwt>0</asrwt>
<pdfrwt beam="1">  1        2 0.13194391E-01 0.80479636E+02</pdfrwt>
<pdfrwt beam="2">  1       -2 0.12135819E-01 0.80479636E+02</pdfrwt>
<totfact> 0.19315035E+04</totfact>
</mgrwt>
</event>
<event>
 4    1  0.5074571E-001  0.9966098E+02  0.7546771E-02  0.1281010E+00
         -1   -1    0    0    0  501 -0.00000000000E+00  0.00000000000E+00  0.30561670599E+03  0.30561670599E+03  0.00000000000E+00 0.  1.
          1   -1    0    0  501    0  0.00000000000E+00 -0.00000000000E+00 -0.33886343214E+02  0.33886343214E+02  0.00000000000E+00 0. -1.
         24    1    1    2    0    0 -0.26890382600E+02  0.52364124698E+02  0.17020958433E+03  0.19723998780E+03  0.80419002446E+02 0.  1.
        -24    1    1    2    0    0  0.26890382600E+02 -0.52364124698E+02  0.10152077844E+03  0.14226306141E+03  0.80419002446E+02 0. -1.
<mgrwt>
<rscale>  0 0.99660976E+02</rscale>
<asrwt>0</asrwt>
<pdfrwt beam="1">  1        1 0.52132838E-02 0.99660976E+02</pdfrwt>
<pdfrwt beam="2">  1       -1 0.47017953E-01 0.99660976E+02</pdfrwt>
<totfact> 0.66853249E+03</totfact>
</mgrwt>
</event>
<event>
 4    1  0.5074571E-001  0.9767157E+02  0.7546771E-02  0.1285270E+00
         -2   -1    0    0    0  501 -0.00000000000E+00  0.00000000000E+00  0.32662043384E+02  0.32662043384E+02  0.00000000000E+00 0.  1.
          2   -1    0    0  501    0  0.00000000000E+00 -0.00000000000E+00 -0.51001229152E+03  0.51001229152E+03  0.00000000000E+00 0. -1.
         24    1    1    2    0    0 -0.47267505454E+02 -0.28953451654E+02 -0.41604737759E+03  0.42735834587E+03  0.80419002446E+02 0. -1.
        -24    1    1    2    0    0  0.47267505454E+02  0.28953451654E+02 -0.61302870549E+02  0.11531598903E+03  0.80419002446E+02 0.  1.
<mgrwt>
<rscale>  0 0.97671569E+02</rscale>
<asrwt>0</asrwt>
<pdfrwt beam="1">  1        2 0.78463430E-01 0.97671569E+02</pdfrwt>
<pdfrwt beam="2">  1       -2 0.50249297E-02 0.97671569E+02</pdfrwt>
<totfact> 0.10966115E+04</totfact>
</mgrwt>
</event>
<event>
 4    1  0.5074571E-001  0.8180593E+02  0.7546771E-02  0.1324003E+00
         -2   -1    0    0    0  501 -0.00000000000E+00  0.00000000000E+00  0.22477515350E+03  0.22477515350E+03  0.00000000000E+00 0.  1.
          2   -1    0    0  501    0  0.00000000000E+00 -0.00000000000E+00 -0.89441844325E+02  0.89441844325E+02  0.00000000000E+00 0. -1.
         24    1    1    2    0    0  0.81104625210E+01  0.12618011756E+02 -0.60656036075E+02  0.10183989636E+03  0.80419002446E+02 0. -1.
        -24    1    1    2    0    0 -0.81104625210E+01 -0.12618011756E+02  0.19598934524E+03  0.21237710147E+03  0.80419002446E+02 0.  0.
<mgrwt>
<rscale>  0 0.81805928E+02</rscale>
<asrwt>0</asrwt>
<pdfrwt beam="1">  1        2 0.13760284E-01 0.81805928E+02</pdfrwt>
<pdfrwt beam="2">  1       -2 0.34580793E-01 0.81805928E+02</pdfrwt>
<totfact> 0.31572211E+03</totfact>
</mgrwt>
</event>
<event>
 4    1  0.5074571E-001  0.1174125E+03  0.7546771E-02  0.1247428E+00
          2   -1    0    0  501    0  0.00000000000E+00  0.00000000000E+00  0.27061331865E+03  0.27061331865E+03  0.00000000000E+00 0. -1.
         -2   -1    0    0    0  501 -0.00000000000E+00 -0.00000000000E+00 -0.50957148804E+02  0.50957148804E+02  0.00000000000E+00 0.  1.
         24    1    1    2    0    0 -0.85471472774E+02 -0.36203222764E+01  0.11256231939E+03  0.16265291603E+03  0.80419002446E+02 0.  0.
        -24    1    1    2    0    0  0.85471472774E+02  0.36203222764E+01  0.10709385046E+03  0.15891755143E+03  0.80419002446E+02 0.  1.
<mgrwt>
<rscale>  0 0.11741250E+03</rscale>
<asrwt>0</asrwt>
<pdfrwt beam="1">  1        2 0.41632817E-01 0.11741250E+03</pdfrwt>
<pdfrwt beam="2">  1       -2 0.78395615E-02 0.11741250E+03</pdfrwt>
<totfact> 0.11131631E+04</totfact>
</mgrwt>
</event>
<event>
 4    1  0.5074571E-001  0.1030294E+03  0.7546771E-02  0.1274052E+00
          1   -1    0    0  501    0  0.00000000000E+00  0.00000000000E+00  0.17978606877E+04  0.17978606877E+04  0.00000000000E+00 0. -1.
         -1   -1    0    0    0  501 -0.00000000000E+00 -0.00000000000E+00 -0.31774359955E+02  0.31774359955E+02  0.00000000000E+00 0.  1.
         24    1    1    2    0    0 -0.59099021177E+02  0.25595831049E+02  0.57585070280E+02  0.11803006882E+03  0.80419002446E+02 0.  1.
        -24    1    1    2    0    0  0.59099021177E+02 -0.25595831049E+02  0.17085012575E+04  0.17116049789E+04  0.80419002446E+02 0. -1.
<mgrwt>
<rscale>  0 0.10302940E+03</rscale>
<asrwt>0</asrwt>
<pdfrwt beam="1">  1        1 0.27659387E+00 0.10302940E+03</pdfrwt>
<pdfrwt beam="2">  1       -1 0.48883645E-02 0.10302940E+03</pdfrwt>
<totfact> 0.84937036E+02</totfact>
</mgrwt>
</event>
<event>
 4    1  0.5074571E-001  0.8392530E+02  0.7546771E-02  0.1318267E+00
          2   -1    0    0  501    0  0.00000000000E+00  0.00000000000E+00  0.38867381974E+03  0.38867381974E+03  0.00000000000E+00 0. -1.
         -2   -1    0    0    0  501 -0.00000000000E+00 -0.00000000000E+00 -0.18246747514E+02  0.18246747514E+02  0.00000000000E+00 0.  1.
         24    1    1    2    0    0 -0.23096013682E+02 -0.65432308787E+01  0.20205234310E+03  0.21878895088E+03  0.80419002446E+02 0.  1.
        -24    1    1    2    0    0  0.23096013682E+02  0.65432308787E+01  0.16837472912E+03  0.18813161637E+03  0.80419002446E+02 0. -1.
<mgrwt>
<rscale>  0 0.83925298E+02</rscale>
<asrwt>0</asrwt>
<pdfrwt beam="1">  1        2 0.59795966E-01 0.83925298E+02</pdfrwt>
<pdfrwt beam="2">  1       -2 0.28071922E-02 0.83925298E+02</pdfrwt>
<totfact> 0.33886637E+04</totfact>
</mgrwt>
</event>
<event>
 4    1  0.5074571E-001  0.9003954E+02  0.7546771E-02  0.1302756E+00
         -2   -1    0    0    0  501 -0.00000000000E+00  0.00000000000E+00  0.17210937957E+02  0.17210937957E+02  0.00000000000E+00 0.  1.
          2   -1    0    0  501    0  0.00000000000E+00 -0.00000000000E+00 -0.86613564585E+03  0.86613564585E+03  0.00000000000E+00 0. -1.
         24    1    1    2    0    0 -0.35065299768E+02 -0.20256534497E+02 -0.72276479499E+03  0.72835160965E+03  0.80419002446E+02 0. -1.
        -24    1    1    2    0    0  0.35065299768E+02  0.20256534497E+02 -0.12615991290E+03  0.15499497416E+03  0.80419002446E+02 0.  1.
<mgrwt>
<rscale>  0 0.90039538E+02</rscale>
<asrwt>0</asrwt>
<pdfrwt beam="1">  1        2 0.13325165E+00 0.90039538E+02</pdfrwt>
<pdfrwt beam="2">  1       -2 0.26478363E-02 0.90039538E+02</pdfrwt>
<totfact> 0.15097225E+04</totfact>
</mgrwt>
</event>
<event>
 4    1  0.5074571E-001  0.1731654E+03  0.7546771E-02  0.1174587E+00
         -2   -1    0    0    0  501 -0.00000000000E+00  0.00000000000E+00  0.59671862996E+02  0.59671862996E+02  0.00000000000E+00 0.  1.
          2   -1    0    0  501    0  0.00000000000E+00 -0.00000000000E+00 -0.63840612530E+03  0.63840612530E+03  0.00000000000E+00 0. -1.
         24    1    1    2    0    0  0.15136314875E+03  0.24662282068E+02 -0.45039999929E+03  0.48254161092E+03  0.80419002446E+02 0. -1.
        -24    1    1    2    0    0 -0.15136314875E+03 -0.24662282068E+02 -0.12833426302E+03  0.21553637738E+03  0.80419002446E+02 0.  1.
<mgrwt>
<rscale>  0 0.17316537E+03</rscale>
<asrwt>0</asrwt>
<pdfrwt beam="1">  1        2 0.98216330E-01 0.17316537E+03</pdfrwt>
<pdfrwt beam="2">  1       -2 0.91802863E-02 0.17316537E+03</pdfrwt>
<totfact> 0.35057160E+03</totfact>
</mgrwt>
</event>
<event>
 4    1  0.5074571E-001  0.1430511E+03  0.7546771E-02  0.1209281E+00
          1   -1    0    0  501    0  0.00000000000E+00  0.00000000000E+00  0.21094187580E+03  0.21094187580E+03  0.00000000000E+00 0. -1.
         -1   -1    0    0    0  501 -0.00000000000E+00 -0.00000000000E+00 -0.98652685785E+02  0.98652685785E+02  0.00000000000E+00 0.  1.
         24    1    1    2    0    0  0.10832537175E+03 -0.47560645472E+02  0.36173826946E+02  0.14755393208E+03  0.80419002446E+02 0. -1.
        -24    1    1    2    0    0 -0.10832537175E+03  0.47560645472E+02  0.76115363072E+02  0.16204062951E+03  0.80419002446E+02 0.  1.
<mgrwt>
<rscale>  0 0.14305110E+03</rscale>
<asrwt>0</asrwt>
<pdfrwt beam="1">  1        1 0.32452596E-01 0.14305110E+03</pdfrwt>
<pdfrwt beam="2">  1       -1 0.15177336E-01 0.14305110E+03</pdfrwt>
<totfact> 0.41638279E+03</totfact>
</mgrwt>
</event>
<event>
 4    1  0.5074571E-001  0.9380680E+02  0.7546771E-02  0.1293886E+00
         -1   -1    0    0    0  501 -0.00000000000E+00  0.00000000000E+00  0.36105249312E+02  0.36105249312E+02  0.00000000000E+00 0.  1.
          1   -1    0    0  501    0  0.00000000000E+00 -0.00000000000E+00 -0.66297016511E+03  0.66297016511E+03  0.00000000000E+00 0. -1.
         24    1    1    2    0    0  0.13329257955E+02 -0.46420163575E+02 -0.35472922184E+02  0.10028980440E+03  0.80419002446E+02 0.  1.
        -24    1    1    2    0    0 -0.13329257955E+02  0.46420163575E+02 -0.59139199361E+03  0.59878561002E+03  0.80419002446E+02 0. -1.
<mgrwt>
<rscale>  0 0.93806805E+02</rscale>
<asrwt>0</asrwt>
<pdfrwt beam="1">  1        1 0.10199541E+00 0.93806805E+02</pdfrwt>
<pdfrwt beam="2">  1       -1 0.55546537E-02 0.93806805E+02</pdfrwt>
<totfact> 0.43684824E+03</totfact>
</mgrwt>
</event>
<event>
 4    1  0.5074571E-001  0.9034164E+02  0.7546771E-02  0.1302026E+00
         -1   -1    0    0    0  501 -0.00000000000E+00  0.00000000000E+00  0.30983987793E+02  0.30983987793E+02  0.00000000000E+00 0.  1.
          1   -1    0    0  501    0  0.00000000000E+00 -0.00000000000E+00 -0.64956160283E+03  0.64956160283E+03  0.00000000000E+00 0. -1.
         24    1    1    2    0    0  0.40168612915E+02 -0.89932933229E+01 -0.46931122585E+02  0.10180443512E+03  0.80419002446E+02 0.  0.
        -24    1    1    2    0    0 -0.40168612915E+02  0.89932933229E+01 -0.57164649245E+03  0.57874115551E+03  0.80419002446E+02 0.  0.
<mgrwt>
<rscale>  0 0.90341645E+02</rscale>
<asrwt>0</asrwt>
<pdfrwt beam="1">  1        1 0.99932568E-01 0.90341645E+02</pdfrwt>
<pdfrwt beam="2">  1       -1 0.47667667E-02 0.90341645E+02</pdfrwt>
<totfact> 0.56102784E+03</totfact>
</mgrwt>
</event>
<event>
 4    1  0.5074571E-001  0.1179168E+03  0.7546771E-02  0.1246574E+00
          1   -1    0    0  501    0  0.00000000000E+00  0.00000000000E+00  0.21008588673E+03  0.21008588673E+03  0.00000000000E+00 0. -1.
         -1   -1    0    0    0  501 -0.00000000000E+00 -0.00000000000E+00 -0.56893910656E+03  0.56893910656E+03  0.00000000000E+00 0.  1.
         24    1    1    2    0    0 -0.85066876531E+02  0.14169909075E+02 -0.54558302036E+03  0.55818026466E+03  0.80419002446E+02 0.  1.
        -24    1    1    2    0    0  0.85066876531E+02 -0.14169909075E+02  0.18672980052E+03  0.22084472863E+03  0.80419002446E+02 0. -1.
<mgrwt>
<rscale>  0 0.11791682E+03</rscale>
<asrwt>0</asrwt>
<pdfrwt beam="1">  1        1 0.32320906E-01 0.11791682E+03</pdfrwt>
<pdfrwt beam="2">  1       -1 0.87529093E-01 0.11791682E+03</pdfrwt>
<totfact> 0.19098003E+02</totfact>
</mgrwt>
</event>
<event>
 4    1  0.5074571E-001  0.1038643E+03  0.7546771E-02  0.1272374E+00
          2   -1    0    0  501    0  0.00000000000E+00  0.00000000000E+00  0.96908564529E+03  0.96908564529E+03  0.00000000000E+00 0. -1.
         -2   -1    0    0    0  501 -0.00000000000E+00 -0.00000000000E+00 -0.22592888716E+02  0.22592888716E+02  0.00000000000E+00 0.  1.
         24    1    1    2    0    0 -0.58767801318E+02 -0.29443476154E+02  0.82640157738E+03  0.83290296903E+03  0.80419002446E+02 0. -1.
        -24    1    1    2    0    0  0.58767801318E+02  0.29443476154E+02  0.12009117919E+03  0.15877556497E+03  0.80419002446E+02 0.  1.
<mgrwt>
<rscale>  0 0.10386428E+03</rscale>
<asrwt>0</asrwt>
<pdfrwt beam="1">  1        2 0.14909007E+00 0.10386428E+03</pdfrwt>
<pdfrwt beam="2">  1       -2 0.34758298E-02 0.10386428E+03</pdfrwt>
<totfact> 0.88663287E+03</totfact>
</mgrwt>
</event>
<event>
 4    1  0.5074571E-001  0.8947772E+02  0.7546771E-02  0.1304121E+00
         -2   -1    0    0    0  501 -0.00000000000E+00  0.00000000000E+00  0.29336996946E+02  0.29336996946E+02  0.00000000000E+00 0.  1.
          2   -1    0    0  501    0  0.00000000000E+00 -0.00000000000E+00 -0.12529576678E+04  0.12529576678E+04  0.00000000000E+00 0. -1.
         24    1    1    2    0    0  0.17572430551E+02 -0.35075012295E+02 -0.11788506979E+04  0.11822416126E+04  0.80419002446E+02 0. -1.
        -24    1    1    2    0    0 -0.17572430551E+02  0.35075012295E+02 -0.44769972984E+02  0.10005305212E+03  0.80419002446E+02 0.  1.
<mgrwt>
<rscale>  0 0.89477722E+02</rscale>
<asrwt>0</asrwt>
<pdfrwt beam="1">  1        2 0.19276267E+00 0.89477722E+02</pdfrwt>
<pdfrwt beam="2">  1       -2 0.45133854E-02 0.89477722E+02</pdfrwt>
<totfact> 0.41487013E+03</totfact>
</mgrwt>
</event>
<event>
 4    1  0.5074571E-001  0.8370821E+02  0.7546771E-02  0.1318846E+00
         -3   -1    0    0    0  501 -0.00000000000E+00  0.00000000000E+00  0.42534126061E+02  0.42534126061E+02  0.00000000000E+00 0.  1.
          3   -1    0    0  501    0  0.00000000000E+00 -0.00000000000E+00 -0.18814269402E+03  0.18814269402E+03  0.00000000000E+00 0. -1.
         24    1    1    2    0    0  0.13831790761E+01 -0.23193440497E+02 -0.32125800049E+02  0.89661205934E+02  0.80419002446E+02 0.  0.
        -24    1    1    2    0    0 -0.13831790761E+01  0.23193440497E+02 -0.11348276791E+03  0.14101561415E+03  0.80419002446E+02 0.  0.
<mgrwt>
<rscale>  0 0.83708212E+02</rscale>
<asrwt>0</asrwt>
<pdfrwt beam="1">  1        3 0.28945029E-01 0.83708212E+02</pdfrwt>
<pdfrwt beam="2">  1       -3 0.65437118E-02 0.83708212E+02</pdfrwt>
<totfact> 0.35075445E+03</totfact>
</mgrwt>
</event>
<event>
 4    1  0.5074571E-001  0.8214864E+02  0.7546771E-02  0.1323062E+00
         -2   -1    0    0    0  501 -0.00000000000E+00  0.00000000000E+00  0.67055534084E+02  0.67055534084E+02  0.00000000000E+00 0.  1.
          2   -1    0    0  501    0  0.00000000000E+00 -0.00000000000E+00 -0.31381800634E+04  0.31381800634E+04  0.00000000000E+00 0. -1.
         24    1    1    2    0    0  0.11371254568E+02 -0.12323895338E+02 -0.31122733220E+04  0.31133572925E+04  0.80419002446E+02 0. -1.
        -24    1    1    2    0    0 -0.11371254568E+02  0.12323895338E+02  0.41148792724E+02  0.91878304968E+02  0.80419002446E+02 0.  1.
<mgrwt>
<rscale>  0 0.82148644E+02</rscale>
<asrwt>0</asrwt>
<pdfrwt beam="1">  1        2 0.48279691E+00 0.82148644E+02</pdfrwt>
<pdfrwt beam="2">  1       -2 0.10316236E-01 0.82148644E+02</pdfrwt>
<totfact> 0.12306432E+02</totfact>
</mgrwt>
</event>
<event>
 4    1  0.5074571E-001  0.8180218E+02  0.7546771E-02  0.1324014E+00
          2   -1    0    0  501    0  0.00000000000E+00  0.00000000000E+00  0.20716813917E+04  0.20716813917E+04  0.00000000000E+00 0. -1.
         -2   -1    0    0    0  501 -0.00000000000E+00 -0.00000000000E+00 -0.34289792716E+01  0.34289792716E+01  0.00000000000E+00 0.  1.
         24    1    1    2    0    0  0.12047086762E+02 -0.89021128948E+01  0.12840447405E+04  0.12866477729E+04  0.80419002446E+02 0. -1.
        -24    1    1    2    0    0 -0.12047086762E+02  0.89021128948E+01  0.78420767191E+03  0.78846259806E+03  0.80419002446E+02 0.  1.
<mgrwt>
<rscale>  0 0.81802175E+02</rscale>
<asrwt>0</asrwt>
<pdfrwt beam="1">  1        2 0.31871921E+00 0.81802175E+02</pdfrwt>
<pdfrwt beam="2">  1       -2 0.52753693E-03 0.81802175E+02</pdfrwt>
<totfact> 0.34092738E+04</totfact>
</mgrwt>
</event>
<event>
 4    1  0.5074571E-001  0.8494547E+02  0.7546771E-02  0.1315575E+00
         -1   -1    0    0    0  501 -0.00000000000E+00  0.00000000000E+00  0.49414855280E+02  0.49414855280E+02  0.00000000000E+00 0.  1.
          1   -1    0    0  501    0  0.00000000000E+00 -0.00000000000E+00 -0.30627663697E+03  0.30627663697E+03  0.00000000000E+00 0. -1.
         24    1    1    2    0    0 -0.16568561514E+02 -0.21771543067E+02  0.21316689357E+00  0.84945739815E+02  0.80419002446E+02 0.  1.
        -24    1    1    2    0    0  0.16568561514E+02  0.21771543067E+02 -0.25707494859E+03  0.27074575244E+03  0.80419002446E+02 0. -1.
<mgrwt>
<rscale>  0 0.84945472E+02</rscale>
<asrwt>0</asrwt>
<pdfrwt beam="1">  1        1 0.47119482E-01 0.84945472E+02</pdfrwt>
<pdfrwt beam="2">  1       -1 0.76022855E-02 0.84945472E+02</pdfrwt>
<totfact> 0.73012807E+03</totfact>
</mgrwt>
</event>
<event>
 4    1  0.5074571E-001  0.9422598E+02  0.7546771E-02  0.1292929E+00
         -2   -1    0    0    0  501 -0.00000000000E+00  0.00000000000E+00  0.26158123687E+02  0.26158123687E+02  0.00000000000E+00 0.  1.
          2   -1    0    0  501    0  0.00000000000E+00 -0.00000000000E+00 -0.35584263861E+03  0.35584263861E+03  0.00000000000E+00 0. -1.
         24    1    1    2    0    0 -0.49060238379E+02 -0.20995368114E+01 -0.12380704337E+03  0.15558507315E+03  0.80419002446E+02 0.  1.
        -24    1    1    2    0    0  0.49060238379E+02  0.20995368114E+01 -0.20587747156E+03  0.22641568915E+03  0.80419002446E+02 0. -1.
<mgrwt>
<rscale>  0 0.94225969E+02</rscale>
<asrwt>0</asrwt>
<pdfrwt beam="1">  1        2 0.54745020E-01 0.94225981E+02</pdfrwt>
<pdfrwt beam="2">  1       -2 0.40243268E-02 0.94225981E+02</pdfrwt>
<totfact> 0.22264274E+04</totfact>
</mgrwt>
</event>
<event>
 4    1  0.5074571E-001  0.9605158E+02  0.7546771E-02  0.1288825E+00
          1   -1    0    0  501    0  0.00000000000E+00  0.00000000000E+00  0.14837820337E+02  0.14837820337E+02  0.00000000000E+00 0. -1.
         -1   -1    0    0    0  501 -0.00000000000E+00 -0.00000000000E+00 -0.64039662823E+03  0.64039662823E+03  0.00000000000E+00 0.  1.
         24    1    1    2    0    0  0.46301092620E+02  0.24797140801E+02 -0.36863375789E+03  0.38094192836E+03  0.80419002446E+02 0.  1.
        -24    1    1    2    0    0 -0.46301092620E+02 -0.24797140801E+02 -0.25692505000E+03  0.27429252021E+03  0.80419002446E+02 0. -1.
<mgrwt>
<rscale>  0 0.96051576E+02</rscale>
<asrwt>0</asrwt>
<pdfrwt beam="1">  1        1 0.22827418E-02 0.96051576E+02</pdfrwt>
<pdfrwt beam="2">  1       -1 0.98522547E-01 0.96051576E+02</pdfrwt>
<totfact> 0.48563034E+03</totfact>
</mgrwt>
</event>
<event>
 4    1  0.5074571E-001  0.8575988E+02  0.7546771E-02  0.1313457E+00
         -2   -1    0    0    0  501 -0.00000000000E+00  0.00000000000E+00  0.32705859021E+02  0.32705859021E+02  0.00000000000E+00 0.  1.
          2   -1    0    0  501    0  0.00000000000E+00 -0.00000000000E+00 -0.53552389779E+03  0.53552389779E+03  0.00000000000E+00 0. -1.
         24    1    1    2    0    0 -0.29789638603E+02  0.34446677235E+00 -0.46779986193E+03  0.47559590831E+03  0.80419002446E+02 0. -1.
        -24    1    1    2    0    0  0.29789638603E+02 -0.34446677235E+00 -0.35018176846E+02  0.92633848508E+02  0.80419002446E+02 0.  1.
<mgrwt>
<rscale>  0 0.85759881E+02</rscale>
<asrwt>0</asrwt>
<pdfrwt beam="1">  1        2 0.82388293E-01 0.85759881E+02</pdfrwt>
<pdfrwt beam="2">  1       -2 0.50316705E-02 0.85759881E+02</pdfrwt>
<totfact> 0.10269356E+04</totfact>
</mgrwt>
</event>
<event>
 4    1  0.5074571E-001  0.1385947E+03  0.7546771E-02  0.1215232E+00
          1   -1    0    0  501    0  0.00000000000E+00  0.00000000000E+00  0.89221249243E+03  0.89221249243E+03  0.00000000000E+00 0. -1.
         -1   -1    0    0    0  501 -0.00000000000E+00 -0.00000000000E+00 -0.22304966327E+03  0.22304966327E+03  0.00000000000E+00 0.  1.
         24    1    1    2    0    0 -0.11106455507E+03  0.20148227362E+02 -0.19545523947E+03  0.23960645452E+03  0.80419002446E+02 0.  1.
        -24    1    1    2    0    0  0.11106455507E+03 -0.20148227362E+02  0.86461806863E+03  0.87565570118E+03  0.80419002446E+02 0. -1.
<mgrwt>
<rscale>  0 0.13859474E+03</rscale>
<asrwt>0</asrwt>
<pdfrwt beam="1">  1        1 0.13726346E+00 0.13859474E+03</pdfrwt>
<pdfrwt beam="2">  1       -1 0.34315333E-01 0.13859474E+03</pdfrwt>
<totfact> 0.16367422E+02</totfact>
</mgrwt>
</event>
<event>
 4    1  0.5074571E-001  0.8747786E+02  0.7546771E-02  0.1309077E+00
          1   -1    0    0  501    0  0.00000000000E+00  0.00000000000E+00  0.15033167176E+04  0.15033167176E+04  0.00000000000E+00 0. -1.
         -1   -1    0    0    0  501 -0.00000000000E+00 -0.00000000000E+00 -0.10209021460E+02  0.10209021460E+02  0.00000000000E+00 0.  1.
         24    1    1    2    0    0  0.19136879060E+02  0.28617111908E+02  0.21069881068E+03  0.22813672218E+03  0.80419002446E+02 0. -1.
        -24    1    1    2    0    0 -0.19136879060E+02 -0.28617111908E+02  0.12824088854E+04  0.12853890169E+04  0.80419002446E+02 0.  0.
<mgrwt>
<rscale>  0 0.87477855E+02</rscale>
<asrwt>0</asrwt>
<pdfrwt beam="1">  1        1 0.23127932E+00 0.87477855E+02</pdfrwt>
<pdfrwt beam="2">  1       -1 0.15706199E-02 0.87477855E+02</pdfrwt>
<totfact> 0.66759700E+03</totfact>
</mgrwt>
</event>
<event>
 4    1  0.5074571E-001  0.8323341E+02  0.7546771E-02  0.1320118E+00
         -1   -1    0    0    0  501 -0.00000000000E+00  0.00000000000E+00  0.12164526902E+02  0.12164526902E+02  0.00000000000E+00 0.  1.
          1   -1    0    0  501    0  0.00000000000E+00 -0.00000000000E+00 -0.10777310398E+04  0.10777310398E+04  0.00000000000E+00 0. -1.
         24    1    1    2    0    0 -0.15200241616E+02 -0.15150502951E+02 -0.15856353515E+03  0.17908153372E+03  0.80419002446E+02 0. -1.
        -24    1    1    2    0    0  0.15200241616E+02  0.15150502951E+02 -0.90700297771E+03  0.91081403295E+03  0.80419002446E+02 0. -1.
<mgrwt>
<rscale>  0 0.83233413E+02</rscale>
<asrwt>0</asrwt>
<pdfrwt beam="1">  1        1 0.16580480E+00 0.83233413E+02</pdfrwt>
<pdfrwt beam="2">  1       -1 0.18714654E-02 0.83233413E+02</pdfrwt>
<totfact> 0.99127014E+03</totfact>
</mgrwt>
</event>
<event>
 4    1  0.5074571E-001  0.8195295E+02  0.7546771E-02  0.1323599E+00
          1   -1    0    0  501    0  0.00000000000E+00  0.00000000000E+00  0.16128105643E+03  0.16128105643E+03  0.00000000000E+00 0. -1.
         -1   -1    0    0    0  501 -0.00000000000E+00 -0.00000000000E+00 -0.36028908768E+03  0.36028908768E+03  0.00000000000E+00 0.  1.
         24    1    1    2    0    0  0.96250206310E+01 -0.12507164777E+02 -0.34475525965E+03  0.35436206795E+03  0.80419002446E+02 0.  1.
        -24    1    1    2    0    0 -0.96250206310E+01  0.12507164777E+02  0.14574722840E+03  0.16720807616E+03  0.80419002446E+02 0. -1.
<mgrwt>
<rscale>  0 0.81952951E+02</rscale>
<asrwt>0</asrwt>
<pdfrwt beam="1">  1        1 0.24812471E-01 0.81952951E+02</pdfrwt>
<pdfrwt beam="2">  1       -1 0.55429090E-01 0.81952951E+02</pdfrwt>
<totfact> 0.64831298E+02</totfact>
</mgrwt>
</event>
<event>
 4    1  0.5074571E-001  0.8431622E+02  0.7546771E-02  0.1317230E+00
          2   -1    0    0  501    0  0.00000000000E+00  0.00000000000E+00  0.34773072540E+04  0.34773072540E+04  0.00000000000E+00 0. -1.
         -2   -1    0    0    0  501 -0.00000000000E+00 -0.00000000000E+00 -0.22544185627E+01  0.22544185627E+01  0.00000000000E+00 0.  1.
         24    1    1    2    0    0 -0.17874365642E+02  0.17958741168E+02  0.22684612008E+04  0.22700276309E+04  0.80419002446E+02 0.  0.
        -24    1    1    2    0    0  0.17874365642E+02 -0.17958741168E+02  0.12065916345E+04  0.12095340416E+04  0.80419002446E+02 0. -1.
<mgrwt>
<rscale>  0 0.84316222E+02</rscale>
<asrwt>0</asrwt>
<pdfrwt beam="1">  1        2 0.53496605E+00 0.84316222E+02</pdfrwt>
<pdfrwt beam="2">  1       -2 0.34683641E-03 0.84316222E+02</pdfrwt>
<totfact> 0.10271700E+04</totfact>
</mgrwt>
</event>
<event>
 4    1  0.5074571E-001  0.1024526E+03  0.7546771E-02  0.1275221E+00
          3   -1    0    0  501    0  0.00000000000E+00  0.00000000000E+00  0.11748426426E+04  0.11748426426E+04  0.00000000000E+00 0. -1.
         -3   -1    0    0    0  501 -0.00000000000E+00 -0.00000000000E+00 -0.89738658596E+01  0.89738658596E+01  0.00000000000E+00 0.  1.
         24    1    1    2    0    0 -0.46572875806E+02  0.43130984976E+02  0.54368813293E+03  0.55325700761E+03  0.80419002446E+02 0. -1.
        -24    1    1    2    0    0  0.46572875806E+02 -0.43130984976E+02  0.62218064382E+03  0.63055950086E+03  0.80419002446E+02 0.  1.
<mgrwt>
<rscale>  0 0.10245258E+03</rscale>
<asrwt>0</asrwt>
<pdfrwt beam="1">  1        3 0.18074490E+00 0.10245258E+03</pdfrwt>
<pdfrwt beam="2">  1       -3 0.13805957E-02 0.10245258E+03</pdfrwt>
<totfact> 0.79173023E+02</totfact>
</mgrwt>
</event>
<event>
 4    1  0.5074571E-001  0.8503099E+02  0.7546771E-02  0.1315352E+00
         -2   -1    0    0    0  501 -0.00000000000E+00  0.00000000000E+00  0.15071904868E+02  0.15071904868E+02  0.00000000000E+00 0.  1.
          2   -1    0    0  501    0  0.00000000000E+00 -0.00000000000E+00 -0.51724675572E+03  0.51724675572E+03  0.00000000000E+00 0. -1.
         24    1    1    2    0    0 -0.27294859908E+02  0.42477941044E+01 -0.32277979917E+03  0.33379195292E+03  0.80419002446E+02 0.  0.
        -24    1    1    2    0    0  0.27294859908E+02 -0.42477941044E+01 -0.17939505169E+03  0.19852670766E+03  0.80419002446E+02 0.  0.
<mgrwt>
<rscale>  0 0.85030989E+02</rscale>
<asrwt>0</asrwt>
<pdfrwt beam="1">  1        2 0.79576418E-01 0.85030989E+02</pdfrwt>
<pdfrwt beam="2">  1       -2 0.23187548E-02 0.85030989E+02</pdfrwt>
<totfact> 0.33007265E+04</totfact>
</mgrwt>
</event>
<event>
 4    1  0.5074571E-001  0.8174743E+02  0.7546771E-02  0.1324164E+00
         -2   -1    0    0    0  501 -0.00000000000E+00  0.00000000000E+00  0.37744269356E+02  0.37744269356E+02  0.00000000000E+00 0.  1.
          2   -1    0    0  501    0  0.00000000000E+00 -0.00000000000E+00 -0.90908439309E+03  0.90908439309E+03  0.00000000000E+00 0. -1.
         24    1    1    2    0    0  0.31107005808E+01 -0.14343993959E+02 -0.86048999676E+03  0.86436431966E+03  0.80419002446E+02 0. -1.
        -24    1    1    2    0    0 -0.31107005808E+01  0.14343993959E+02 -0.10850126968E+02  0.82464342782E+02  0.80419002446E+02 0.  1.
<mgrwt>
<rscale>  0 0.81747432E+02</rscale>
<asrwt>0</asrwt>
<pdfrwt beam="1">  1        2 0.13985913E+00 0.81747432E+02</pdfrwt>
<pdfrwt beam="2">  1       -2 0.58068111E-02 0.81747432E+02</pdfrwt>
<totfact> 0.44547651E+03</totfact>
</mgrwt>
</event>
<event>
 4    1  0.5074571E-001  0.8065463E+02  0.7546771E-02  0.1327204E+00
          1   -1    0    0  501    0  0.00000000000E+00  0.00000000000E+00  0.74652076277E+03  0.74652076277E+03  0.00000000000E+00 0. -1.
         -1   -1    0    0    0  501 -0.00000000000E+00 -0.00000000000E+00 -0.91843762987E+01  0.91843762987E+01  0.00000000000E+00 0.  1.
         24    1    1    2    0    0  0.57871654102E+01  0.21124905946E+01  0.28315606292E+03  0.29441896308E+03  0.80419002446E+02 0.  0.
        -24    1    1    2    0    0 -0.57871654102E+01 -0.21124905946E+01  0.45418032355E+03  0.46128617599E+03  0.80419002446E+02 0. -1.
<mgrwt>
<rscale>  0 0.80654633E+02</rscale>
<asrwt>0</asrwt>
<pdfrwt beam="1">  1        1 0.11484930E+00 0.80654633E+02</pdfrwt>
<pdfrwt beam="2">  1       -1 0.14129816E-02 0.80654633E+02</pdfrwt>
<totfact> 0.26147641E+04</totfact>
</mgrwt>
</event>
<event>
 4    1  0.5074571E-001  0.9438234E+02  0.7546771E-02  0.1292573E+00
          1   -1    0    0  501    0  0.00000000000E+00  0.00000000000E+00  0.30954160264E+03  0.30954160264E+03  0.00000000000E+00 0. -1.
         -1   -1    0    0    0  501 -0.00000000000E+00 -0.00000000000E+00 -0.28851605223E+02  0.28851605223E+02  0.00000000000E+00 0.  1.
         24    1    1    2    0    0  0.38933969595E+02 -0.30413092607E+02  0.13180614812E+03  0.16211380826E+03  0.80419002446E+02 0. -1.
        -24    1    1    2    0    0 -0.38933969595E+02  0.30413092607E+02  0.14888384930E+03  0.17627939961E+03  0.80419002446E+02 0.  1.
<mgrwt>
<rscale>  0 0.94382340E+02</rscale>
<asrwt>0</asrwt>
<pdfrwt beam="1">  1        1 0.47621783E-01 0.94382340E+02</pdfrwt>
<pdfrwt beam="2">  1       -1 0.44387087E-02 0.94382340E+02</pdfrwt>
<totfact> 0.16059855E+04</totfact>
</mgrwt>
</event>
<event>
 4    1  0.5074571E-001  0.1260443E+03  0.7546771E-02  0.1233446E+00
          1   -1    0    0  501    0  0.00000000000E+00  0.00000000000E+00  0.23839389094E+03  0.23839389094E+03  0.00000000000E+00 0. -1.
         -1   -1    0    0    0  501 -0.00000000000E+00 -0.00000000000E+00 -0.10471084932E+03  0.10471084932E+03  0.00000000000E+00 0.  1.
         24    1    1    2    0    0  0.97007428667E+02 -0.30822952796E+01 -0.36597184422E+02  0.13124980618E+03  0.80419002446E+02 0. -1.
        -24    1    1    2    0    0 -0.97007428667E+02  0.30822952796E+01  0.17028022604E+03  0.21185493408E+03  0.80419002446E+02 0.  0.
<mgrwt>
<rscale>  0 0.12604427E+03</rscale>
<asrwt>0</asrwt>
<pdfrwt beam="1">  1        1 0.36675983E-01 0.12604427E+03</pdfrwt>
<pdfrwt beam="2">  1       -1 0.16109361E-01 0.12604427E+03</pdfrwt>
<totfact> 0.32372549E+03</totfact>
</mgrwt>
</event>
<event>
 4    1  0.5074571E-001  0.8066075E+02  0.7546771E-02  0.1327187E+00
          3   -1    0    0  501    0  0.00000000000E+00  0.00000000000E+00  0.23135566517E+01  0.23135566517E+01  0.00000000000E+00 0. -1.
         -3   -1    0    0    0  501 -0.00000000000E+00 -0.00000000000E+00 -0.28465171305E+04  0.28465171305E+04  0.00000000000E+00 0.  1.
         24    1    1    2    0    0 -0.80567451085E+00 -0.61877688297E+01 -0.12656723298E+04  0.12682399615E+04  0.80419002446E+02 0. -1.
        -24    1    1    2    0    0  0.80567451085E+00  0.61877688297E+01 -0.15785312440E+04  0.15805907256E+04  0.80419002446E+02 0.  0.
<mgrwt>
<rscale>  0 0.80660741E+02</rscale>
<asrwt>0</asrwt>
<pdfrwt beam="1">  1        3 0.35593178E-03 0.80660751E+02</pdfrwt>
<pdfrwt beam="2">  1       -3 0.43792573E+00 0.80660751E+02</pdfrwt>
<totfact> 0.24007129E+02</totfact>
</mgrwt>
</event>
<event>
 4    1  0.5074571E-001  0.9331326E+02  0.7546771E-02  0.1295021E+00
          1   -1    0    0  501    0  0.00000000000E+00  0.00000000000E+00  0.12270839661E+04  0.12270839661E+04  0.00000000000E+00 0. -1.
         -1   -1    0    0    0  501 -0.00000000000E+00 -0.00000000000E+00 -0.72145233007E+01  0.72145233007E+01  0.00000000000E+00 0.  1.
         24    1    1    2    0    0 -0.20508232923E+02  0.42656322445E+02  0.53082648506E+03  0.53896578988E+03  0.80419002446E+02 0.  0.
        -24    1    1    2    0    0  0.20508232923E+02 -0.42656322445E+02  0.68904295770E+03  0.69533269948E+03  0.80419002446E+02 0.  1.
<mgrwt>
<rscale>  0 0.93313265E+02</rscale>
<asrwt>0</asrwt>
<pdfrwt beam="1">  1        1 0.18878198E+00 0.93313265E+02</pdfrwt>
<pdfrwt beam="2">  1       -1 0.11099276E-02 0.93313265E+02</pdfrwt>
<totfact> 0.16579565E+04</totfact>
</mgrwt>
</event>
<event>
 4    1  0.5074571E-001  0.8165446E+02  0.7546771E-02  0.1324421E+00
          2   -1    0    0  501    0  0.00000000000E+00  0.00000000000E+00  0.17402527211E+03  0.17402527211E+03  0.00000000000E+00 0. -1.
         -2   -1    0    0    0  501 -0.00000000000E+00 -0.00000000000E+00 -0.80483879522E+02  0.80483879522E+02  0.00000000000E+00 0.  1.
         24    1    1    2    0    0  0.11743981125E+02 -0.78939379472E+01  0.13888448871E+03  0.16110975298E+03  0.80419002446E+02 0.  0.
        -24    1    1    2    0    0 -0.11743981125E+02  0.78939379472E+01 -0.45343096114E+02  0.93399398652E+02  0.80419002446E+02 0.  0.
<mgrwt>
<rscale>  0 0.81654463E+02</rscale>
<asrwt>0</asrwt>
<pdfrwt beam="1">  1        2 0.26773119E-01 0.81654463E+02</pdfrwt>
<pdfrwt beam="2">  1       -2 0.12382135E-01 0.81654463E+02</pdfrwt>
<totfact> 0.84721177E+03</totfact>
</mgrwt>
</event>
<event>
 4    1  0.5074571E-001  0.8379390E+02  0.7546771E-02  0.1318617E+00
         -1   -1    0    0    0  501 -0.00000000000E+00  0.00000000000E+00  0.68695665895E+01  0.68695665895E+01  0.00000000000E+00 0.  1.
          1   -1    0    0  501    0  0.00000000000E+00 -0.00000000000E+00 -0.10683127411E+04  0.10683127411E+04  0.00000000000E+00 0. -1.
         24    1    1    2    0    0  0.23423504998E+02  0.23531676540E+01 -0.64252712189E+03  0.64796799019E+03  0.80419002446E+02 0.  0.
        -24    1    1    2    0    0 -0.23423504998E+02 -0.23531676540E+01 -0.41891605262E+03  0.42721431751E+03  0.80419002446E+02 0.  0.
<mgrwt>
<rscale>  0 0.83793888E+02</rscale>
<asrwt>0</asrwt>
<pdfrwt beam="1">  1        1 0.16435576E+00 0.83793899E+02</pdfrwt>
<pdfrwt beam="2">  1       -1 0.10568567E-02 0.83793899E+02</pdfrwt>
<totfact> 0.22595364E+04</totfact>
</mgrwt>
</event>
<event>
 4    1  0.5074571E-001  0.1557157E+03  0.7546771E-02  0.1193620E+00
          2   -1    0    0  501    0  0.00000000000E+00  0.00000000000E+00  0.28864924591E+04  0.28864924591E+04  0.00000000000E+00 0. -1.
         -2   -1    0    0    0  501 -0.00000000000E+00 -0.00000000000E+00 -0.84049170891E+01  0.84049170891E+01  0.00000000000E+00 0.  1.
         24    1    1    2    0    0  0.11371585089E+03  0.69633752134E+02  0.14050774116E+04  0.14136795616E+04  0.80419002446E+02 0.  1.
        -24    1    1    2    0    0 -0.11371585089E+03 -0.69633752134E+02  0.14730101303E+04  0.14812178146E+04  0.80419002446E+02 0. -1.
<mgrwt>
<rscale>  0 0.15571569E+03</rscale>
<asrwt>0</asrwt>
<pdfrwt beam="1">  1        2 0.44407497E+00 0.15571571E+03</pdfrwt>
<pdfrwt beam="2">  1       -2 0.12930665E-02 0.15571571E+03</pdfrwt>
<totfact> 0.35947997E+03</totfact>
</mgrwt>
</event>
<event>
 4    1  0.5074571E-001  0.1003031E+03  0.7546771E-02  0.1279660E+00
          1   -1    0    0  501    0  0.00000000000E+00  0.00000000000E+00  0.53254631660E+03  0.53254631660E+03  0.00000000000E+00 0. -1.
         -1   -1    0    0    0  501 -0.00000000000E+00 -0.00000000000E+00 -0.19386414683E+02  0.19386414683E+02  0.00000000000E+00 0.  1.
         24    1    1    2    0    0 -0.50932924534E+02  0.31612295029E+02  0.21249645960E+03  0.23497970401E+03  0.80419002446E+02 0.  1.
        -24    1    1    2    0    0  0.50932924534E+02 -0.31612295029E+02  0.30066344232E+03  0.31695302728E+03  0.80419002446E+02 0. -1.
<mgrwt>
<rscale>  0 0.10030312E+03</rscale>
<asrwt>0</asrwt>
<pdfrwt beam="1">  1        1 0.81930191E-01 0.10030312E+03</pdfrwt>
<pdfrwt beam="2">  1       -1 0.29825257E-02 0.10030312E+03</pdfrwt>
<totfact> 0.14564496E+04</totfact>
</mgrwt>
</event>
<event>
 4    1  0.5074571E-001  0.8744549E+02  0.7546771E-02  0.1309158E+00
         -1   -1    0    0    0  501 -0.00000000000E+00  0.00000000000E+00  0.15217776261E+02  0.15217776261E+02  0.00000000000E+00 0.  1.
          1   -1    0    0  501    0  0.00000000000E+00 -0.00000000000E+00 -0.57126176680E+03  0.57126176680E+03  0.00000000000E+00 0. -1.
         24    1    1    2    0    0  0.29240244363E+02  0.18014057323E+02 -0.17627440383E+03  0.19677240546E+03  0.80419002446E+02 0.  1.
        -24    1    1    2    0    0 -0.29240244363E+02 -0.18014057323E+02 -0.37976958671E+03  0.38970713760E+03  0.80419002446E+02 0. -1.
<mgrwt>
<rscale>  0 0.87445492E+02</rscale>
<asrwt>0</asrwt>
<pdfrwt beam="1">  1        1 0.87886404E-01 0.87445492E+02</pdfrwt>
<pdfrwt beam="2">  1       -1 0.23411969E-02 0.87445492E+02</pdfrwt>
<totfact> 0.18570146E+04</totfact>
</mgrwt>
</event>
<event>
 4    1  0.5074571E-001  0.8470661E+02  0.7546771E-02  0.1316202E+00
         -3   -1    0    0    0  501 -0.00000000000E+00  0.00000000000E+00  0.26192077428E+02  0.26192077428E+02  0.00000000000E+00 0.  1.
          3   -1    0    0  501    0  0.00000000000E+00 -0.00000000000E+00 -0.27611658741E+03  0.27611658741E+03  0.00000000000E+00 0. -1.
         24    1    1    2    0    0 -0.25460132606E+02 -0.77314073967E+01 -0.11155976681E+03  0.14007423224E+03  0.80419002446E+02 0.  1.
        -24    1    1    2    0    0  0.25460132606E+02  0.77314073967E+01 -0.13836474316E+03  0.16223443259E+03  0.80419002446E+02 0. -1.
<mgrwt>
<rscale>  0 0.84706605E+02</rscale>
<asrwt>0</asrwt>
<pdfrwt beam="1">  1        3 0.42479475E-01 0.84706605E+02</pdfrwt>
<pdfrwt beam="2">  1       -3 0.40295504E-02 0.84706605E+02</pdfrwt>
<totfact> 0.36704543E+03</totfact>
</mgrwt>
</event>
<event>
 4    1  0.5074571E-001  0.8612086E+02  0.7546771E-02  0.1312527E+00
          1   -1    0    0  501    0  0.00000000000E+00  0.00000000000E+00  0.13792954121E+04  0.13792954121E+04  0.00000000000E+00 0. -1.
         -1   -1    0    0    0  501 -0.00000000000E+00 -0.00000000000E+00 -0.86791303818E+01  0.86791303818E+01  0.00000000000E+00 0.  1.
         24    1    1    2    0    0 -0.19820483256E+02 -0.23595242946E+02  0.25725794655E+03  0.27129035011E+03  0.80419002446E+02 0.  1.
        -24    1    1    2    0    0  0.19820483256E+02  0.23595242946E+02  0.11133583351E+04  0.11166841924E+04  0.80419002446E+02 0. -1.
<mgrwt>
<rscale>  0 0.86120863E+02</rscale>
<asrwt>0</asrwt>
<pdfrwt beam="1">  1        1 0.21219912E+00 0.86120863E+02</pdfrwt>
<pdfrwt beam="2">  1       -1 0.13352519E-02 0.86120863E+02</pdfrwt>
<totfact> 0.10083303E+04</totfact>
</mgrwt>
</event>
<event>
 4    1  0.5074571E-001  0.8574726E+02  0.7546771E-02  0.1313490E+00
         -2   -1    0    0    0  501 -0.00000000000E+00  0.00000000000E+00  0.29033931627E+02  0.29033931627E+02  0.00000000000E+00 0.  1.
          2   -1    0    0  501    0  0.00000000000E+00 -0.00000000000E+00 -0.27436709280E+03  0.27436709280E+03  0.00000000000E+00 0. -1.
         24    1    1    2    0    0 -0.28601963510E+02 -0.82039162109E+01 -0.16476122678E+03  0.18573867223E+03  0.80419002446E+02 0. -1.
        -24    1    1    2    0    0  0.28601963510E+02  0.82039162109E+01 -0.80571934390E+02  0.11766235219E+03  0.80419002446E+02 0.  1.
<mgrwt>
<rscale>  0 0.85747260E+02</rscale>
<asrwt>0</asrwt>
<pdfrwt beam="1">  1        2 0.42210323E-01 0.85747260E+02</pdfrwt>
<pdfrwt beam="2">  1       -2 0.44667586E-02 0.85747260E+02</pdfrwt>
<totfact> 0.24795461E+04</totfact>
</mgrwt>
</event>
<event>
 4    1  0.5074571E-001  0.8246971E+02  0.7546771E-02  0.1322185E+00
         -1   -1    0    0    0  501 -0.00000000000E+00  0.00000000000E+00  0.11550534897E+02  0.11550534897E+02  0.00000000000E+00 0.  1.
          1   -1    0    0  501    0  0.00000000000E+00 -0.00000000000E+00 -0.61659503487E+03  0.61659503487E+03  0.00000000000E+00 0. -1.
         24    1    1    2    0    0 -0.18117306691E+02 -0.24084743009E+01 -0.23587045099E+03  0.24987221365E+03  0.80419002446E+02 0.  0.
        -24    1    1    2    0    0  0.18117306691E+02  0.24084743009E+01 -0.36917404899E+03  0.37827335612E+03  0.80419002446E+02 0.  0.
<mgrwt>
<rscale>  0 0.82469713E+02</rscale>
<asrwt>0</asrwt>
<pdfrwt beam="1">  1        1 0.94860774E-01 0.82469713E+02</pdfrwt>
<pdfrwt beam="2">  1       -1 0.17770054E-02 0.82469713E+02</pdfrwt>
<totfact> 0.24694631E+04</totfact>
</mgrwt>
</event>
<event>
 4    1  0.5074571E-001  0.9850332E+02  0.7546771E-02  0.1283475E+00
         -1   -1    0    0    0  501 -0.00000000000E+00  0.00000000000E+00  0.51005258102E+02  0.51005258102E+02  0.00000000000E+00 0.  1.
          1   -1    0    0  501    0  0.00000000000E+00 -0.00000000000E+00 -0.23400519488E+03  0.23400519488E+03  0.00000000000E+00 0. -1.
         24    1    1    2    0    0  0.44489470995E+02 -0.35445375858E+02 -0.29866696667E+02  0.10293164345E+03  0.80419002446E+02 0.  1.
        -24    1    1    2    0    0 -0.44489470995E+02  0.35445375858E+02 -0.15313324011E+03  0.18207880953E+03  0.80419002446E+02 0. -1.
<mgrwt>
<rscale>  0 0.98503318E+02</rscale>
<asrwt>0</asrwt>
<pdfrwt beam="1">  1        1 0.36000799E-01 0.98503318E+02</pdfrwt>
<pdfrwt beam="2">  1       -1 0.78469629E-02 0.98503318E+02</pdfrwt>
<totfact> 0.97923828E+03</totfact>
</mgrwt>
</event>
<event>
 4    1  0.5074571E-001  0.9483671E+02  0.7546771E-02  0.1291544E+00
         -4   -1    0    0    0  501 -0.00000000000E+00  0.00000000000E+00  0.32786871852E+03  0.32786871852E+03  0.00000000000E+00 0.  1.
          4   -1    0    0  501    0  0.00000000000E+00 -0.00000000000E+00 -0.46521578929E+02  0.46521578929E+02  0.00000000000E+00 0. -1.
         24    1    1    2    0    0  0.49903103541E+02 -0.60387724624E+01  0.20759887259E+02  0.97082312443E+02  0.80419002446E+02 0. -1.
        -24    1    1    2    0    0 -0.49903103541E+02  0.60387724624E+01  0.26058725233E+03  0.27730798501E+03  0.80419002446E+02 0.  1.
<mgrwt>
<rscale>  0 0.94836715E+02</rscale>
<asrwt>0</asrwt>
<pdfrwt beam="1">  1        4 0.71571662E-02 0.94836715E+02</pdfrwt>
<pdfrwt beam="2">  1       -4 0.50441340E-01 0.94836715E+02</pdfrwt>
<totfact> 0.77335610E+02</totfact>
</mgrwt>
</event>
<event>
 4    1  0.5074571E-001  0.9056348E+02  0.7546771E-02  0.1301493E+00
          2   -1    0    0  501    0  0.00000000000E+00  0.00000000000E+00  0.58973435776E+03  0.58973435776E+03  0.00000000000E+00 0. -1.
         -2   -1    0    0    0  501 -0.00000000000E+00 -0.00000000000E+00 -0.13928665503E+02  0.13928665503E+02  0.00000000000E+00 0.  1.
         24    1    1    2    0    0 -0.15632768414E+02  0.38602385509E+02  0.29966259478E+03  0.31304858134E+03  0.80419002446E+02 0.  0.
        -24    1    1    2    0    0  0.15632768414E+02 -0.38602385509E+02  0.27614309747E+03  0.29061444192E+03  0.80419002446E+02 0.  1.
<mgrwt>
<rscale>  0 0.90563478E+02</rscale>
<asrwt>0</asrwt>
<pdfrwt beam="1">  1        2 0.90728343E-01 0.90563478E+02</pdfrwt>
<pdfrwt beam="2">  1       -2 0.21428721E-02 0.90563478E+02</pdfrwt>
<totfact> 0.32246796E+04</totfact>
</mgrwt>
</event>
<event>
 4    1  0.5074571E-001  0.9249291E+02  0.7546771E-02  0.1296925E+00
         -2   -1    0    0    0  501 -0.00000000000E+00  0.00000000000E+00  0.46703092812E+01  0.46703092812E+01  0.00000000000E+00 0.  1.
          2   -1    0    0  501    0  0.00000000000E+00 -0.00000000000E+00 -0.18501492522E+04  0.18501492522E+04  0.00000000000E+00 0. -1.
         24    1    1    2    0    0 -0.23628523824E+01  0.45630462575E+02 -0.10151704959E+04  0.10193753352E+04  0.80419002446E+02 0.  0.
        -24    1    1    2    0    0  0.23628523824E+01 -0.45630462575E+02 -0.83030844703E+03  0.83544422635E+03  0.80419002446E+02 0. -1.
<mgrwt>
<rscale>  0 0.92492909E+02</rscale>
<asrwt>0</asrwt>
<pdfrwt beam="1">  1        2 0.28463866E+00 0.92492909E+02</pdfrwt>
<pdfrwt beam="2">  1       -2 0.71850833E-03 0.92492909E+02</pdfrwt>
<totfact> 0.28795998E+04</totfact>
</mgrwt>
</event>
<event>
 4    1  0.5074571E-001  0.9644686E+02  0.7546771E-02  0.1287950E+00
          4   -1    0    0  501    0  0.00000000000E+00  0.00000000000E+00  0.24648272825E+02  0.24648272825E+02  0.00000000000E+00 0. -1.
         -4   -1    0    0    0  501 -0.00000000000E+00 -0.00000000000E+00 -0.56803986393E+03  0.56803986393E+03  0.00000000000E+00 0.  1.
         24    1    1    2    0    0 -0.45982928602E+02  0.26839356054E+02 -0.10001339663E+03  0.13894126894E+03  0.80419002446E+02 0. -1.
        -24    1    1    2    0    0  0.45982928602E+02 -0.26839356054E+02 -0.44337819447E+03  0.45374686781E+03  0.80419002446E+02 0.  1.
<mgrwt>
<rscale>  0 0.96446860E+02</rscale>
<asrwt>0</asrwt>
<pdfrwt beam="1">  1        4 0.37920417E-02 0.96446860E+02</pdfrwt>
<pdfrwt beam="2">  1       -4 0.87390754E-01 0.96446860E+02</pdfrwt>
<totfact> 0.66815734E+02</totfact>
</mgrwt>
</event>
<event>
 4    1  0.5074571E-001  0.9475483E+02  0.7546771E-02  0.1291729E+00
         -2   -1    0    0    0  501 -0.00000000000E+00  0.00000000000E+00  0.71930713122E+01  0.71930713122E+01  0.00000000000E+00 0.  1.
          2   -1    0    0  501    0  0.00000000000E+00 -0.00000000000E+00 -0.13210574222E+04  0.13210574222E+04  0.00000000000E+00 0. -1.
         24    1    1    2    0    0  0.50084836213E+02  0.16645943004E+01 -0.81288397537E+03  0.81838794900E+03  0.80419002446E+02 0. -1.
        -24    1    1    2    0    0 -0.50084836213E+02 -0.16645943004E+01 -0.50098037549E+03  0.50986254449E+03  0.80419002446E+02 0.  1.
<mgrwt>
<rscale>  0 0.94754829E+02</rscale>
<asrwt>0</asrwt>
<pdfrwt beam="1">  1        2 0.20323964E+00 0.94754829E+02</pdfrwt>
<pdfrwt beam="2">  1       -2 0.11066262E-02 0.94754829E+02</pdfrwt>
<totfact> 0.29146554E+04</totfact>
</mgrwt>
</event>
<event>
 4    1  0.5074571E-001  0.1110913E+03  0.7546771E-02  0.1258562E+00
          2   -1    0    0  501    0  0.00000000000E+00  0.00000000000E+00  0.22056119180E+04  0.22056119180E+04  0.00000000000E+00 0. -1.
         -2   -1    0    0    0  501 -0.00000000000E+00 -0.00000000000E+00 -0.55962355584E+01  0.55962355584E+01  0.00000000000E+00 0.  1.
         24    1    1    2    0    0  0.59341795638E+02 -0.48503773174E+02  0.10864974000E+04  0.10921620214E+04  0.80419002446E+02 0.  1.
        -24    1    1    2    0    0 -0.59341795638E+02  0.48503773174E+02  0.11135182824E+04  0.11190461322E+04  0.80419002446E+02 0. -1.
<mgrwt>
<rscale>  0 0.11109133E+03</rscale>
<asrwt>0</asrwt>
<pdfrwt beam="1">  1        2 0.33932422E+00 0.11109134E+03</pdfrwt>
<pdfrwt beam="2">  1       -2 0.86096107E-03 0.11109134E+03</pdfrwt>
<totfact> 0.14885506E+04</totfact>
</mgrwt>
</event>
<event>
 4    1  0.5074571E-001  0.9010608E+02  0.7546771E-02  0.1302595E+00
          1   -1    0    0  501    0  0.00000000000E+00  0.00000000000E+00  0.19057355546E+03  0.19057355546E+03  0.00000000000E+00 0. -1.
         -1   -1    0    0    0  501 -0.00000000000E+00 -0.00000000000E+00 -0.80575240488E+02  0.80575240488E+02  0.00000000000E+00 0.  1.
         24    1    1    2    0    0 -0.18708793801E+02  0.36081453896E+02 -0.38070252016E+02  0.97818455946E+02  0.80419002446E+02 0.  1.
        -24    1    1    2    0    0  0.18708793801E+02 -0.36081453896E+02  0.14806856699E+03  0.17333034000E+03  0.80419002446E+02 0. -1.
<mgrwt>
<rscale>  0 0.90106083E+02</rscale>
<asrwt>0</asrwt>
<pdfrwt beam="1">  1        1 0.29319008E-01 0.90106083E+02</pdfrwt>
<pdfrwt beam="2">  1       -1 0.12396191E-01 0.90106083E+02</pdfrwt>
<totfact> 0.62677375E+03</totfact>
</mgrwt>
</event>
<event>
 4    1  0.5074571E-001  0.1175869E+03  0.7546771E-02  0.1247132E+00
          1   -1    0    0  501    0  0.00000000000E+00  0.00000000000E+00  0.18675637164E+03  0.18675637164E+03  0.00000000000E+00 0. -1.
         -1   -1    0    0    0  501 -0.00000000000E+00 -0.00000000000E+00 -0.82560222346E+02  0.82560222346E+02  0.00000000000E+00 0.  1.
         24    1    1    2    0    0  0.77130300986E+02 -0.37555054758E+02  0.95367077885E+02  0.15139868218E+03  0.80419002446E+02 0. -1.
        -24    1    1    2    0    0 -0.77130300986E+02  0.37555054758E+02  0.88290714102E+01  0.11791791180E+03  0.80419002446E+02 0.  1.
<mgrwt>
<rscale>  0 0.11758692E+03</rscale>
<asrwt>0</asrwt>
<pdfrwt beam="1">  1        1 0.28731749E-01 0.11758694E+03</pdfrwt>
<pdfrwt beam="2">  1       -1 0.12701573E-01 0.11758694E+03</pdfrwt>
<totfact> 0.63129757E+03</totfact>
</mgrwt>
</event>
<event>
 4    1  0.5074571E-001  0.8482518E+02  0.7546771E-02  0.1315890E+00
          1   -1    0    0  501    0  0.00000000000E+00  0.00000000000E+00  0.51566575903E+03  0.51566575903E+03  0.00000000000E+00 0. -1.
         -1   -1    0    0    0  501 -0.00000000000E+00 -0.00000000000E+00 -0.16953495638E+02  0.16953495638E+02  0.00000000000E+00 0.  1.
         24    1    1    2    0    0 -0.85655770503E+00  0.26969651316E+02  0.13732936011E+03  0.16141457458E+03  0.80419002446E+02 0.  1.
        -24    1    1    2    0    0  0.85655770503E+00 -0.26969651316E+02  0.36138290328E+03  0.37120468009E+03  0.80419002446E+02 0. -1.
<mgrwt>
<rscale>  0 0.84825183E+02</rscale>
<asrwt>0</asrwt>
<pdfrwt beam="1">  1        1 0.79333182E-01 0.84825183E+02</pdfrwt>
<pdfrwt beam="2">  1       -1 0.26082305E-02 0.84825183E+02</pdfrwt>
<totfact> 0.18128195E+04</totfact>
</mgrwt>
</event>
<event>
 4    1  0.5074571E-001  0.8093952E+02  0.7546771E-02  0.1326406E+00
          1   -1    0    0  501    0  0.00000000000E+00  0.00000000000E+00  0.44795171142E+03  0.44795171142E+03  0.00000000000E+00 0. -1.
         -1   -1    0    0    0  501 -0.00000000000E+00 -0.00000000000E+00 -0.21832387784E+02  0.21832387784E+02  0.00000000000E+00 0.  1.
         24    1    1    2    0    0  0.51543984549E+01  0.75777582905E+01  0.78097342093E+02  0.11247400162E+03  0.80419002446E+02 0.  1.
        -24    1    1    2    0    0 -0.51543984549E+01 -0.75777582905E+01  0.34802198154E+03  0.35731009758E+03  0.80419002446E+02 0.  0.
<mgrwt>
<rscale>  0 0.80939522E+02</rscale>
<asrwt>0</asrwt>
<pdfrwt beam="1">  1        1 0.68915641E-01 0.80939522E+02</pdfrwt>
<pdfrwt beam="2">  1       -1 0.33588292E-02 0.80939522E+02</pdfrwt>
<totfact> 0.15007207E+04</totfact>
</mgrwt>
</event>
<event>
 4    1  0.5074571E-001  0.1437417E+03  0.7546771E-02  0.1208381E+00
         -2   -1    0    0    0  501 -0.00000000000E+00  0.00000000000E+00  0.19474321171E+03  0.19474321171E+03  0.00000000000E+00 0.  1.
          2   -1    0    0  501    0  0.00000000000E+00 -0.00000000000E+00 -0.13926594523E+03  0.13926594523E+03  0.00000000000E+00 0. -1.
         24    1    1    2    0    0 -0.10893914106E+03  0.48236003301E+02 -0.53764057706E+02  0.15346738522E+03  0.80419002446E+02 0. -1.
        -24    1    1    2    0    0  0.10893914106E+03 -0.48236003301E+02  0.10924132419E+03  0.18054177172E+03  0.80419002446E+02 0.  1.
<mgrwt>
<rscale>  0 0.14374166E+03</rscale>
<asrwt>0</asrwt>
<pdfrwt beam="1">  1        2 0.21425530E-01 0.14374166E+03</pdfrwt>
<pdfrwt beam="2">  1       -2 0.29960494E-01 0.14374166E+03</pdfrwt>
<totfact> 0.25496173E+03</totfact>
</mgrwt>
</event>
<event>
 4    1  0.5074571E-001  0.8314904E+02  0.7546771E-02  0.1320345E+00
          2   -1    0    0  501    0  0.00000000000E+00  0.00000000000E+00  0.78853781818E+03  0.78853781818E+03  0.00000000000E+00 0. -1.
         -2   -1    0    0    0  501 -0.00000000000E+00 -0.00000000000E+00 -0.87685538482E+01  0.87685538482E+01  0.00000000000E+00 0.  1.
         24    1    1    2    0    0 -0.12015662434E+02 -0.17383039392E+02  0.39351740116E+03  0.40220605064E+03  0.80419002446E+02 0.  0.
        -24    1    1    2    0    0  0.12015662434E+02  0.17383039392E+02  0.38625186318E+03  0.39510032139E+03  0.80419002446E+02 0.  1.
<mgrwt>
<rscale>  0 0.83149036E+02</rscale>
<asrwt>0</asrwt>
<pdfrwt beam="1">  1        2 0.12131345E+00 0.83149036E+02</pdfrwt>
<pdfrwt beam="2">  1       -2 0.13490089E-02 0.83149036E+02</pdfrwt>
<totfact> 0.44198672E+04</totfact>
</mgrwt>
</event>
<event>
 4    1  0.5074571E-001  0.9267139E+02  0.7546771E-02  0.1296509E+00
         -1   -1    0    0    0  501 -0.00000000000E+00  0.00000000000E+00  0.29414244953E+03  0.29414244953E+03  0.00000000000E+00 0.  1.
          1   -1    0    0  501    0  0.00000000000E+00 -0.00000000000E+00 -0.29201080286E+02  0.29201080286E+02  0.00000000000E+00 0. -1.
         24    1    1    2    0    0 -0.73695177885E+01 -0.45458295233E+02  0.13048559849E+03  0.16004522412E+03  0.80419002446E+02 0.  0.
        -24    1    1    2    0    0  0.73695177885E+01  0.45458295233E+02  0.13445577076E+03  0.16329830570E+03  0.80419002446E+02 0. -1.
<mgrwt>
<rscale>  0 0.92671379E+02</rscale>
<asrwt>0</asrwt>
<pdfrwt beam="1">  1        1 0.44924741E-02 0.92671391E+02</pdfrwt>
<pdfrwt beam="2">  1       -1 0.45252683E-01 0.92671391E+02</pdfrwt>
<totfact> 0.86979895E+03</totfact>
</mgrwt>
</event>
<event>
 4    1  0.5074571E-001  0.8106882E+02  0.7546771E-02  0.1326045E+00
         -1   -1    0    0    0  501 -0.00000000000E+00  0.00000000000E+00  0.44663442324E+03  0.44663442324E+03  0.00000000000E+00 0.  1.
          1   -1    0    0  501    0  0.00000000000E+00 -0.00000000000E+00 -0.21077664763E+02  0.21077664763E+02  0.00000000000E+00 0. -1.
         24    1    1    2    0    0  0.95348801539E+01  0.37448287309E+01  0.34126631952E+03  0.35076324561E+03  0.80419002446E+02 0.  1.
        -24    1    1    2    0    0 -0.95348801539E+01 -0.37448287309E+01  0.84290438955E+02  0.11694884239E+03  0.80419002446E+02 0. -1.
<mgrwt>
<rscale>  0 0.81068820E+02</rscale>
<asrwt>0</asrwt>
<pdfrwt beam="1">  1        1 0.32427180E-02 0.81068820E+02</pdfrwt>
<pdfrwt beam="2">  1       -1 0.68712981E-01 0.81068820E+02</pdfrwt>
<totfact> 0.61791275E+03</totfact>
</mgrwt>
</event>
<event>
 4    1  0.5074571E-001  0.1000997E+03  0.7546771E-02  0.1280086E+00
          2   -1    0    0  501    0  0.00000000000E+00  0.00000000000E+00  0.14974071462E+04  0.14974071462E+04  0.00000000000E+00 0. -1.
         -2   -1    0    0    0  501 -0.00000000000E+00 -0.00000000000E+00 -0.23865874789E+02  0.23865874789E+02  0.00000000000E+00 0.  1.
         24    1    1    2    0    0 -0.80001564345E+01 -0.59065525714E+02  0.13820213494E+04  0.13856417159E+04  0.80419002446E+02 0. -1.
        -24    1    1    2    0    0  0.80001564345E+01  0.59065525714E+02  0.91519922051E+02  0.13563130508E+03  0.80419002446E+02 0.  1.
<mgrwt>
<rscale>  0 0.10009972E+03</rscale>
<asrwt>0</asrwt>
<pdfrwt beam="1">  1        2 0.23037026E+00 0.10009972E+03</pdfrwt>
<pdfrwt beam="2">  1       -2 0.36716742E-02 0.10009972E+03</pdfrwt>
<totfact> 0.42041432E+03</totfact>
</mgrwt>
</event>
<event>
 4    1  0.5074571E-001  0.1193947E+03  0.7546771E-02  0.1244099E+00
          1   -1    0    0  501    0  0.00000000000E+00  0.00000000000E+00  0.16201395861E+03  0.16201395861E+03  0.00000000000E+00 0. -1.
         -1   -1    0    0    0  501 -0.00000000000E+00 -0.00000000000E+00 -0.92151378825E+02  0.92151378825E+02  0.00000000000E+00 0.  1.
         24    1    1    2    0    0 -0.68065030587E+02 -0.56169621373E+02  0.79153146266E+01  0.11965677128E+03  0.80419002446E+02 0.  1.
        -24    1    1    2    0    0  0.68065030587E+02  0.56169621373E+02  0.61947265163E+02  0.13450856616E+03  0.80419002446E+02 0. -1.
<mgrwt>
<rscale>  0 0.11939468E+03</rscale>
<asrwt>0</asrwt>
<pdfrwt beam="1">  1        1 0.24925224E-01 0.11939468E+03</pdfrwt>
<pdfrwt beam="2">  1       -1 0.14177135E-01 0.11939468E+03</pdfrwt>
<totfact> 0.63625751E+03</totfact>
</mgrwt>
</event>
<event>
 4    1  0.5074571E-001  0.1331923E+03  0.7546771E-02  0.1222794E+00
          2   -1    0    0  501    0  0.00000000000E+00  0.00000000000E+00  0.13617970935E+03  0.13617970935E+03  0.00000000000E+00 0. -1.
         -2   -1    0    0    0  501 -0.00000000000E+00 -0.00000000000E+00 -0.18731351251E+03  0.18731351251E+03  0.00000000000E+00 0.  1.
         24    1    1    2    0    0 -0.50439715860E+02 -0.93428066599E+02  0.63692148823E+02  0.14763764540E+03  0.80419002446E+02 0. -1.
        -24    1    1    2    0    0  0.50439715860E+02  0.93428066599E+02 -0.11482595199E+03  0.17585557645E+03  0.80419002446E+02 0.  1.
<mgrwt>
<rscale>  0 0.13319228E+03</rscale>
<asrwt>0</asrwt>
<pdfrwt beam="1">  1        2 0.20950725E-01 0.13319228E+03</pdfrwt>
<pdfrwt beam="2">  1       -2 0.28817463E-01 0.13319228E+03</pdfrwt>
<totfact> 0.27931276E+03</totfact>
</mgrwt>
</event>
<event>
 4    1  0.5074571E-001  0.8115610E+02  0.7546771E-02  0.1325802E+00
          2   -1    0    0  501    0  0.00000000000E+00  0.00000000000E+00  0.25621577228E+03  0.25621577228E+03  0.00000000000E+00 0. -1.
         -2   -1    0    0    0  501 -0.00000000000E+00 -0.00000000000E+00 -0.31339867663E+02  0.31339867663E+02  0.00000000000E+00 0.  1.
         24    1    1    2    0    0 -0.10910030953E+02  0.26052475293E+00  0.17339755514E+03  0.19144979690E+03  0.80419002446E+02 0. -1.
        -24    1    1    2    0    0  0.10910030953E+02 -0.26052475293E+00  0.51478349475E+02  0.96105843046E+02  0.80419002446E+02 0.  1.
<mgrwt>
<rscale>  0 0.81156100E+02</rscale>
<asrwt>0</asrwt>
<pdfrwt beam="1">  1        2 0.39417810E-01 0.81156100E+02</pdfrwt>
<pdfrwt beam="2">  1       -2 0.48215183E-02 0.81156100E+02</pdfrwt>
<totfact> 0.23640080E+04</totfact>
</mgrwt>
</event>
<event>
 4    1  0.5074571E-001  0.1526521E+03  0.7546771E-02  0.1197252E+00
          1   -1    0    0  501    0  0.00000000000E+00  0.00000000000E+00  0.10570033237E+03  0.10570033237E+03  0.00000000000E+00 0. -1.
         -1   -1    0    0    0  501 -0.00000000000E+00 -0.00000000000E+00 -0.22098531308E+03  0.22098531308E+03  0.00000000000E+00 0.  1.
         24    1    1    2    0    0  0.65349544154E+02 -0.11209314015E+03 -0.65609599136E+02  0.16615435728E+03  0.80419002446E+02 0. -1.
        -24    1    1    2    0    0 -0.65349544154E+02  0.11209314015E+03 -0.49675381575E+02  0.16053128816E+03  0.80419002446E+02 0.  1.
<mgrwt>
<rscale>  0 0.15265206E+03</rscale>
<asrwt>0</asrwt>
<pdfrwt beam="1">  1        1 0.16261590E-01 0.15265206E+03</pdfrwt>
<pdfrwt beam="2">  1       -1 0.33997740E-01 0.15265206E+03</pdfrwt>
<totfact> 0.26812625E+03</totfact>
</mgrwt>
</event>
<event>
 4    1  0.5074571E-001  0.9130608E+02  0.7546771E-02  0.1299719E+00
          2   -1    0    0  501    0  0.00000000000E+00  0.00000000000E+00  0.11205919538E+04  0.11205919538E+04  0.00000000000E+00 0. -1.
         -2   -1    0    0    0  501 -0.00000000000E+00 -0.00000000000E+00 -0.74456750926E+01  0.74456750926E+01  0.00000000000E+00 0.  1.
         24    1    1    2    0    0 -0.38616917624E+02  0.19450377272E+02  0.57263234917E+03  0.57986602485E+03  0.80419002446E+02 0. -1.
        -24    1    1    2    0    0  0.38616917624E+02 -0.19450377272E+02  0.54051392957E+03  0.54817160407E+03  0.80419002446E+02 0.  0.
<mgrwt>
<rscale>  0 0.91306076E+02</rscale>
<asrwt>0</asrwt>
<pdfrwt beam="1">  1        2 0.17239863E+00 0.91306076E+02</pdfrwt>
<pdfrwt beam="2">  1       -2 0.11454894E-02 0.91306076E+02</pdfrwt>
<totfact> 0.35506727E+04</totfact>
</mgrwt>
</event>
<event>
 4    1  0.5074571E-001  0.1095627E+03  0.7546771E-02  0.1261382E+00
          2   -1    0    0  501    0  0.00000000000E+00  0.00000000000E+00  0.12606784976E+03  0.12606784976E+03  0.00000000000E+00 0. -1.
         -2   -1    0    0    0  501 -0.00000000000E+00 -0.00000000000E+00 -0.95844905007E+02  0.95844905007E+02  0.00000000000E+00 0.  1.
         24    1    1    2    0    0  0.71395294911E+02  0.20964014668E+02  0.24081393656E+02  0.11217801710E+03  0.80419002446E+02 0. -1.
        -24    1    1    2    0    0 -0.71395294911E+02 -0.20964014668E+02  0.61415511004E+01  0.10973473767E+03  0.80419002446E+02 0.  1.
<mgrwt>
<rscale>  0 0.10956274E+03</rscale>
<asrwt>0</asrwt>
<pdfrwt beam="1">  1        2 0.19395054E-01 0.10956274E+03</pdfrwt>
<pdfrwt beam="2">  1       -2 0.14745370E-01 0.10956274E+03</pdfrwt>
<totfact> 0.93752020E+03</totfact>
</mgrwt>
</event>
<event>
 4    1  0.5074571E-001  0.9090798E+02  0.7546771E-02  0.1300668E+00
         -1   -1    0    0    0  501 -0.00000000000E+00  0.00000000000E+00  0.41062152562E+02  0.41062152562E+02  0.00000000000E+00 0.  1.
          1   -1    0    0  501    0  0.00000000000E+00 -0.00000000000E+00 -0.22262366670E+03  0.22262366670E+03  0.00000000000E+00 0. -1.
         24    1    1    2    0    0  0.13161871306E+02 -0.40296516346E+02 -0.49940691585E+02  0.10372238291E+03  0.80419002446E+02 0.  1.
        -24    1    1    2    0    0 -0.13161871306E+02  0.40296516346E+02 -0.13162082255E+03  0.15996343635E+03  0.80419002446E+02 0. -1.
<mgrwt>
<rscale>  0 0.90907976E+02</rscale>
<asrwt>0</asrwt>
<pdfrwt beam="1">  1        1 0.34249795E-01 0.90907976E+02</pdfrwt>
<pdfrwt beam="2">  1       -1 0.63172543E-02 0.90907976E+02</pdfrwt>
<totfact> 0.14258861E+04</totfact>
</mgrwt>
</event>
<event>
 4    1  0.5074571E-001  0.9960600E+02  0.7546771E-02  0.1281127E+00
          1   -1    0    0  501    0  0.00000000000E+00  0.00000000000E+00  0.67711262986E+02  0.67711262986E+02  0.00000000000E+00 0. -1.
         -1   -1    0    0    0  501 -0.00000000000E+00 -0.00000000000E+00 -0.31584097122E+03  0.31584097122E+03  0.00000000000E+00 0.  1.
         24    1    1    2    0    0 -0.46445771195E+02  0.36012912997E+02 -0.26447870733E+03  0.28261341467E+03  0.80419002446E+02 0.  1.
        -24    1    1    2    0    0  0.46445771195E+02 -0.36012912997E+02  0.16348999094E+02  0.10093881954E+03  0.80419002446E+02 0. -1.
<mgrwt>
<rscale>  0 0.99606001E+02</rscale>
<asrwt>0</asrwt>
<pdfrwt beam="1">  1        1 0.10417118E-01 0.99606001E+02</pdfrwt>
<pdfrwt beam="2">  1       -1 0.48590918E-01 0.99606001E+02</pdfrwt>
<totfact> 0.25043911E+03</totfact>
</mgrwt>
</event>
<event>
 4    1  0.5074571E-001  0.8586919E+02  0.7546771E-02  0.1313175E+00
         -2   -1    0    0    0  501 -0.00000000000E+00  0.00000000000E+00  0.18584365250E+03  0.18584365250E+03  0.00000000000E+00 0.  1.
          2   -1    0    0  501    0  0.00000000000E+00 -0.00000000000E+00 -0.51205295738E+02  0.51205295738E+02  0.00000000000E+00 0. -1.
         24    1    1    2    0    0 -0.29094106857E+02 -0.77352527863E+01  0.11078109024E+02  0.86580838777E+02  0.80419002446E+02 0. -1.
        -24    1    1    2    0    0  0.29094106857E+02  0.77352527863E+01  0.12356024774E+03  0.15046810946E+03  0.80419002446E+02 0.  1.
<mgrwt>
<rscale>  0 0.85869186E+02</rscale>
<asrwt>0</asrwt>
<pdfrwt beam="1">  1        2 0.78777379E-02 0.85869186E+02</pdfrwt>
<pdfrwt beam="2">  1       -2 0.28591331E-01 0.85869186E+02</pdfrwt>
<totfact> 0.87219679E+03</totfact>
</mgrwt>
</event>
<event>
 4    1  0.5074571E-001  0.1179216E+03  0.7546771E-02  0.1246566E+00
         -2   -1    0    0    0  501 -0.00000000000E+00  0.00000000000E+00  0.72808786769E+01  0.72808786769E+01  0.00000000000E+00 0.  1.
          2   -1    0    0  501    0  0.00000000000E+00 -0.00000000000E+00 -0.19138188091E+04  0.19138188091E+04  0.00000000000E+00 0. -1.
         24    1    1    2    0    0  0.84998473397E+02 -0.14612805590E+02 -0.90960594278E+03  0.91721778312E+03  0.80419002446E+02 0. -1.
        -24    1    1    2    0    0 -0.84998473397E+02  0.14612805590E+02 -0.99693198762E+03  0.10038819046E+04  0.80419002446E+02 0.  0.
<mgrwt>
<rscale>  0 0.11792156E+03</rscale>
<asrwt>0</asrwt>
<pdfrwt beam="1">  1        2 0.29443399E+00 0.11792157E+03</pdfrwt>
<pdfrwt beam="2">  1       -2 0.11201339E-02 0.11792157E+03</pdfrwt>
<totfact> 0.14451941E+04</totfact>
</mgrwt>
</event>
<event>
 4    1  0.5074571E-001  0.8339701E+02  0.7546771E-02  0.1319679E+00
          1   -1    0    0  501    0  0.00000000000E+00  0.00000000000E+00  0.22207838061E+04  0.22207838061E+04  0.00000000000E+00 0. -1.
         -1   -1    0    0    0  501 -0.00000000000E+00 -0.00000000000E+00 -0.17285535309E+02  0.17285535309E+02  0.00000000000E+00 0.  1.
         24    1    1    2    0    0  0.18716062042E+02  0.11728375207E+02  0.89149925042E+02  0.12207690548E+03  0.80419002446E+02 0.  1.
        -24    1    1    2    0    0 -0.18716062042E+02 -0.11728375207E+02  0.21143483458E+04  0.21159924359E+04  0.80419002446E+02 0. -1.
<mgrwt>
<rscale>  0 0.83397013E+02</rscale>
<asrwt>0</asrwt>
<pdfrwt beam="1">  1        1 0.34165882E+00 0.83397013E+02</pdfrwt>
<pdfrwt beam="2">  1       -1 0.26593149E-02 0.83397013E+02</pdfrwt>
<totfact> 0.11168236E+03</totfact>
</mgrwt>
</event>
<event>
 4    1  0.5074571E-001  0.8129337E+02  0.7546771E-02  0.1325421E+00
          1   -1    0    0  501    0  0.00000000000E+00  0.00000000000E+00  0.58264347996E+03  0.58264347996E+03  0.00000000000E+00 0. -1.
         -1   -1    0    0    0  501 -0.00000000000E+00 -0.00000000000E+00 -0.31862331634E+02  0.31862331634E+02  0.00000000000E+00 0.  1.
         24    1    1    2    0    0  0.59068896237E+01 -0.10320109194E+02  0.28818145395E+02  0.86250202650E+02  0.80419002446E+02 0.  1.
        -24    1    1    2    0    0 -0.59068896237E+01  0.10320109194E+02  0.52196300293E+03  0.52825560894E+03  0.80419002446E+02 0. -1.
<mgrwt>
<rscale>  0 0.81293370E+02</rscale>
<asrwt>0</asrwt>
<pdfrwt beam="1">  1        1 0.89637450E-01 0.81293370E+02</pdfrwt>
<pdfrwt beam="2">  1       -1 0.49018976E-02 0.81293370E+02</pdfrwt>
<totfact> 0.61923675E+03</totfact>
</mgrwt>
</event>
<event>
 4    1  0.5074571E-001  0.8541319E+02  0.7546771E-02  0.1314356E+00
          2   -1    0    0  501    0  0.00000000000E+00  0.00000000000E+00  0.92859792541E+03  0.92859792541E+03  0.00000000000E+00 0. -1.
         -2   -1    0    0    0  501 -0.00000000000E+00 -0.00000000000E+00 -0.11492263371E+02  0.11492263371E+02  0.00000000000E+00 0.  1.
         24    1    1    2    0    0  0.28757344232E+02  0.11007423787E+01  0.72294103832E+03  0.72796920080E+03  0.80419002446E+02 0. -1.
        -24    1    1    2    0    0 -0.28757344232E+02 -0.11007423787E+01  0.19416462372E+03  0.21212098797E+03  0.80419002446E+02 0.  1.
<mgrwt>
<rscale>  0 0.85413187E+02</rscale>
<asrwt>0</asrwt>
<pdfrwt beam="1">  1        2 0.14286116E+00 0.85413187E+02</pdfrwt>
<pdfrwt beam="2">  1       -2 0.17680413E-02 0.85413187E+02</pdfrwt>
<totfact> 0.24571871E+04</totfact>
</mgrwt>
</event>
<event>
 4    1  0.5074571E-001  0.1006943E+03  0.7546771E-02  0.1278843E+00
         -2   -1    0    0    0  501 -0.00000000000E+00  0.00000000000E+00  0.67676817019E+02  0.67676817019E+02  0.00000000000E+00 0.  1.
          2   -1    0    0  501    0  0.00000000000E+00 -0.00000000000E+00 -0.15100643220E+03  0.15100643220E+03  0.00000000000E+00 0. -1.
         24    1    1    2    0    0 -0.60597934744E+02 -0.12908278025E+00 -0.31972995787E+02  0.10564854363E+03  0.80419002446E+02 0.  0.
        -24    1    1    2    0    0  0.60597934744E+02  0.12908278025E+00 -0.51356619398E+02  0.11303470559E+03  0.80419002446E+02 0.  0.
<mgrwt>
<rscale>  0 0.10069431E+03</rscale>
<asrwt>0</asrwt>
<pdfrwt beam="1">  1        2 0.23231759E-01 0.10069433E+03</pdfrwt>
<pdfrwt beam="2">  1       -2 0.10411818E-01 0.10069433E+03</pdfrwt>
<totfact> 0.13240816E+04</totfact>
</mgrwt>
</event>
<event>
 4    1  0.5074571E-001  0.9500452E+02  0.7546771E-02  0.1291166E+00
         -3   -1    0    0    0  501 -0.00000000000E+00  0.00000000000E+00  0.45354486130E+02  0.45354486130E+02  0.00000000000E+00 0.  1.
          3   -1    0    0  501    0  0.00000000000E+00 -0.00000000000E+00 -0.28439958508E+03  0.28439958508E+03  0.00000000000E+00 0. -1.
         24    1    1    2    0    0  0.13916786425E+02 -0.48630914087E+02 -0.29177188619E+02  0.99383937532E+02  0.80419002446E+02 0.  1.
        -24    1    1    2    0    0 -0.13916786425E+02  0.48630914087E+02 -0.20986791033E+03  0.23037013368E+03  0.80419002446E+02 0. -1.
<mgrwt>
<rscale>  0 0.95004519E+02</rscale>
<asrwt>0</asrwt>
<pdfrwt beam="1">  1        3 0.43753781E-01 0.95004519E+02</pdfrwt>
<pdfrwt beam="2">  1       -3 0.69776134E-02 0.95004519E+02</pdfrwt>
<totfact> 0.14976998E+03</totfact>
</mgrwt>
</event>
<event>
 4    1  0.5074571E-001  0.8758149E+02  0.7546771E-02  0.1308816E+00
          2   -1    0    0  501    0  0.00000000000E+00  0.00000000000E+00  0.52463621695E+03  0.52463621695E+03  0.00000000000E+00 0. -1.
         -2   -1    0    0    0  501 -0.00000000000E+00 -0.00000000000E+00 -0.15176880694E+02  0.15176880694E+02  0.00000000000E+00 0.  1.
         24    1    1    2    0    0  0.32683745725E+02  0.11622126996E+02  0.30640148298E+03  0.31867285074E+03  0.80419002446E+02 0. -1.
        -24    1    1    2    0    0 -0.32683745725E+02 -0.11622126996E+02  0.20305785328E+03  0.22114024691E+03  0.80419002446E+02 0.  1.
<mgrwt>
<rscale>  0 0.87581488E+02</rscale>
<asrwt>0</asrwt>
<pdfrwt beam="1">  1        2 0.80713250E-01 0.87581488E+02</pdfrwt>
<pdfrwt beam="2">  1       -2 0.23349051E-02 0.87581488E+02</pdfrwt>
<totfact> 0.32289080E+04</totfact>
</mgrwt>
</event>
<event>
 4    1  0.5074571E-001  0.8402871E+02  0.7546771E-02  0.1317992E+00
         -3   -1    0    0    0  501 -0.00000000000E+00  0.00000000000E+00  0.37114538071E+02  0.37114538071E+02  0.00000000000E+00 0.  1.
          3   -1    0    0  501    0  0.00000000000E+00 -0.00000000000E+00 -0.20268658409E+03  0.20268658409E+03  0.00000000000E+00 0. -1.
         24    1    1    2    0    0  0.18180318480E+02  0.16219871940E+02 -0.53078859624E+02  0.99389081488E+02  0.80419002446E+02 0.  1.
        -24    1    1    2    0    0 -0.18180318480E+02 -0.16219871940E+02 -0.11249318639E+03  0.14041204067E+03  0.80419002446E+02 0.  1.
<mgrwt>
<rscale>  0 0.84028710E+02</rscale>
<asrwt>0</asrwt>
<pdfrwt beam="1">  1        3 0.31182551E-01 0.84028710E+02</pdfrwt>
<pdfrwt beam="2">  1       -3 0.57099291E-02 0.84028710E+02</pdfrwt>
<totfact> 0.38005843E+03</totfact>
</mgrwt>
</event>
<event>
 4    1  0.5074571E-001  0.8774880E+02  0.7546771E-02  0.1308397E+00
         -4   -1    0    0    0  501 -0.00000000000E+00  0.00000000000E+00  0.53352666562E+01  0.53352666562E+01  0.00000000000E+00 0.  1.
          4   -1    0    0  501    0  0.00000000000E+00 -0.00000000000E+00 -0.15805868499E+04  0.15805868499E+04  0.00000000000E+00 0. -1.
         24    1    1    2    0    0 -0.17456995898E+02  0.30461265372E+02 -0.10214109232E+04  0.10251732173E+04  0.80419002446E+02 0.  0.
        -24    1    1    2    0    0  0.17456995898E+02 -0.30461265372E+02 -0.55384066007E+03  0.56074889933E+03  0.80419002446E+02 0.  0.
<mgrwt>
<rscale>  0 0.87748797E+02</rscale>
<asrwt>0</asrwt>
<pdfrwt beam="1">  1        4 0.24316746E+00 0.87748797E+02</pdfrwt>
<pdfrwt beam="2">  1       -4 0.82080942E-03 0.87748797E+02</pdfrwt>
<totfact> 0.49037756E+02</totfact>
</mgrwt>
</event>
<event>
 4    1  0.5074571E-001  0.8348470E+02  0.7546771E-02  0.1319443E+00
         -1   -1    0    0    0  501 -0.00000000000E+00  0.00000000000E+00  0.20160326249E+02  0.20160326249E+02  0.00000000000E+00 0.  1.
          1   -1    0    0  501    0  0.00000000000E+00 -0.00000000000E+00 -0.36262830450E+03  0.36262830450E+03  0.00000000000E+00 0. -1.
         24    1    1    2    0    0 -0.11945390981E+02 -0.18968032840E+02 -0.12989753895E+03  0.15441199829E+03  0.80419002446E+02 0.  1.
        -24    1    1    2    0    0  0.11945390981E+02  0.18968032840E+02 -0.21257043930E+03  0.22837663246E+03  0.80419002446E+02 0. -1.
<mgrwt>
<rscale>  0 0.83484697E+02</rscale>
<asrwt>0</asrwt>
<pdfrwt beam="1">  1        1 0.55788970E-01 0.83484697E+02</pdfrwt>
<pdfrwt beam="2">  1       -1 0.31015886E-02 0.83484697E+02</pdfrwt>
<totfact> 0.21942686E+04</totfact>
</mgrwt>
</event>
<event>
 4    1  0.5074571E-001  0.9302881E+02  0.7546771E-02  0.1295678E+00
         -1   -1    0    0    0  501 -0.00000000000E+00  0.00000000000E+00  0.32979538513E+02  0.32979538513E+02  0.00000000000E+00 0.  1.
          1   -1    0    0  501    0  0.00000000000E+00 -0.00000000000E+00 -0.94788562154E+03  0.94788562154E+03  0.00000000000E+00 0. -1.
         24    1    1    2    0    0  0.22606807027E+02 -0.40939899758E+02 -0.40396010704E+02  0.10142088913E+03  0.80419002446E+02 0.  1.
        -24    1    1    2    0    0 -0.22606807027E+02  0.40939899758E+02 -0.87451007232E+03  0.87944427093E+03  0.80419002446E+02 0. -1.
<mgrwt>
<rscale>  0 0.93028808E+02</rscale>
<asrwt>0</asrwt>
<pdfrwt beam="1">  1        1 0.14582857E+00 0.93028808E+02</pdfrwt>
<pdfrwt beam="2">  1       -1 0.50737747E-02 0.93028808E+02</pdfrwt>
<totfact> 0.29337417E+03</totfact>
</mgrwt>
</event>
<event>
 4    1  0.5074571E-001  0.8297537E+02  0.7546771E-02  0.1320814E+00
         -1   -1    0    0    0  501 -0.00000000000E+00  0.00000000000E+00  0.93782298556E+01  0.93782298556E+01  0.00000000000E+00 0.  1.
          1   -1    0    0  501    0  0.00000000000E+00 -0.00000000000E+00 -0.22497017348E+04  0.22497017348E+04  0.00000000000E+00 0. -1.
         24    1    1    2    0    0  0.44103721494E+01 -0.19956058894E+02 -0.19306237555E+03  0.21013803196E+03  0.80419002446E+02 0.  0.
        -24    1    1    2    0    0 -0.44103721494E+01  0.19956058894E+02 -0.20472611293E+04  0.20489419326E+04  0.80419002446E+02 0.  0.
<mgrwt>
<rscale>  0 0.82975368E+02</rscale>
<asrwt>0</asrwt>
<pdfrwt beam="1">  1        1 0.34610823E+00 0.82975368E+02</pdfrwt>
<pdfrwt beam="2">  1       -1 0.14428035E-02 0.82975368E+02</pdfrwt>
<totfact> 0.25564312E+03</totfact>
</mgrwt>
</event>
<event>
 4    1  0.5074571E-001  0.9584677E+02  0.7546771E-02  0.1289280E+00
          2   -1    0    0  501    0  0.00000000000E+00  0.00000000000E+00  0.58552463117E+03  0.58552463117E+03  0.00000000000E+00 0. -1.
         -2   -1    0    0    0  501 -0.00000000000E+00 -0.00000000000E+00 -0.16213227850E+02  0.16213227850E+02  0.00000000000E+00 0.  1.
         24    1    1    2    0    0  0.51589769596E+02  0.76077323499E+01  0.23058164681E+03  0.24970881786E+03  0.80419002446E+02 0. -1.
        -24    1    1    2    0    0 -0.51589769596E+02 -0.76077323499E+01  0.33872975651E+03  0.35202904116E+03  0.80419002446E+02 0.  0.
<mgrwt>
<rscale>  0 0.95846754E+02</rscale>
<asrwt>0</asrwt>
<pdfrwt beam="1">  1        2 0.90080696E-01 0.95846766E+02</pdfrwt>
<pdfrwt beam="2">  1       -2 0.24943432E-02 0.95846766E+02</pdfrwt>
<totfact> 0.26264039E+04</totfact>
</mgrwt>
</event>
<event>
 4    1  0.5074571E-001  0.9204788E+02  0.7546771E-02  0.1297967E+00
          2   -1    0    0  501    0  0.00000000000E+00  0.00000000000E+00  0.91142698907E+03  0.91142698907E+03  0.00000000000E+00 0. -1.
         -2   -1    0    0    0  501 -0.00000000000E+00 -0.00000000000E+00 -0.10454382474E+02  0.10454382474E+02  0.00000000000E+00 0.  1.
         24    1    1    2    0    0 -0.17490774556E+02 -0.41227046667E+02  0.60390677986E+03  0.61088150347E+03  0.80419002446E+02 0.  0.
        -24    1    1    2    0    0  0.17490774556E+02  0.41227046667E+02  0.29706582674E+03  0.31099986808E+03  0.80419002446E+02 0.  0.
<mgrwt>
<rscale>  0 0.92047882E+02</rscale>
<asrwt>0</asrwt>
<pdfrwt beam="1">  1        2 0.14021947E+00 0.92047882E+02</pdfrwt>
<pdfrwt beam="2">  1       -2 0.16083672E-02 0.92047882E+02</pdfrwt>
<totfact> 0.29028065E+04</totfact>
</mgrwt>
</event>
<event>
 4    1  0.5074571E-001  0.8559804E+02  0.7546771E-02  0.1313876E+00
         -2   -1    0    0    0  501 -0.00000000000E+00  0.00000000000E+00  0.81353505249E+02  0.81353505249E+02  0.00000000000E+00 0.  1.
          2   -1    0    0  501    0  0.00000000000E+00 -0.00000000000E+00 -0.27692925371E+03  0.27692925371E+03  0.00000000000E+00 0. -1.
         24    1    1    2    0    0 -0.16584997638E+02 -0.24181535956E+02 -0.24494311567E+03  0.25946898600E+03  0.80419002446E+02 0. -1.
        -24    1    1    2    0    0  0.16584997638E+02  0.24181535956E+02  0.49367367205E+02  0.98813772962E+02  0.80419002446E+02 0.  1.
<mgrwt>
<rscale>  0 0.85598042E+02</rscale>
<asrwt>0</asrwt>
<pdfrwt beam="1">  1        2 0.42604501E-01 0.85598042E+02</pdfrwt>
<pdfrwt beam="2">  1       -2 0.12515924E-01 0.85598042E+02</pdfrwt>
<totfact> 0.51150245E+03</totfact>
</mgrwt>
</event>
<event>
 4    1  0.5074571E-001  0.1064358E+03  0.7546771E-02  0.1267316E+00
         -2   -1    0    0    0  501 -0.00000000000E+00  0.00000000000E+00  0.72074690272E+01  0.72074690272E+01  0.00000000000E+00 0.  1.
          2   -1    0    0  501    0  0.00000000000E+00 -0.00000000000E+00 -0.29517804945E+04  0.29517804945E+04  0.00000000000E+00 0. -1.
         24    1    1    2    0    0 -0.25338222656E+02  0.64956436038E+02 -0.24838898700E+04  0.24861692352E+04  0.80419002446E+02 0. -1.
        -24    1    1    2    0    0  0.25338222656E+02 -0.64956436038E+02 -0.46068315550E+03  0.47281872829E+03  0.80419002446E+02 0.  1.
<mgrwt>
<rscale>  0 0.10643580E+03</rscale>
<asrwt>0</asrwt>
<pdfrwt beam="1">  1        2 0.45412044E+00 0.10643580E+03</pdfrwt>
<pdfrwt beam="2">  1       -2 0.11088405E-02 0.10643580E+03</pdfrwt>
<totfact> 0.41285919E+03</totfact>
</mgrwt>
</event>
<event>
 4    1  0.5074571E-001  0.8900835E+02  0.7546771E-02  0.1305271E+00
         -2   -1    0    0    0  501 -0.00000000000E+00  0.00000000000E+00  0.82434193747E+01  0.82434193747E+01  0.00000000000E+00 0.  1.
          2   -1    0    0  501    0  0.00000000000E+00 -0.00000000000E+00 -0.20771905565E+04  0.20771905565E+04  0.00000000000E+00 0. -1.
         24    1    1    2    0    0  0.23367852662E+02  0.30153184872E+02 -0.17988093846E+04  0.18010101857E+04  0.80419002446E+02 0. -1.
        -24    1    1    2    0    0 -0.23367852662E+02 -0.30153184872E+02 -0.27013775255E+03  0.28442379015E+03  0.80419002446E+02 0.  1.
<mgrwt>
<rscale>  0 0.89008354E+02</rscale>
<asrwt>0</asrwt>
<pdfrwt beam="1">  1        2 0.31956833E+00 0.89008354E+02</pdfrwt>
<pdfrwt beam="2">  1       -2 0.12682162E-02 0.89008354E+02</pdfrwt>
<totfact> 0.98930251E+03</totfact>
</mgrwt>
</event>
<event>
 4    1  0.5074571E-001  0.8183589E+02  0.7546771E-02  0.1323921E+00
         -1   -1    0    0    0  501 -0.00000000000E+00  0.00000000000E+00  0.48569311343E+01  0.48569311343E+01  0.00000000000E+00 0.  1.
          1   -1    0    0  501    0  0.00000000000E+00 -0.00000000000E+00 -0.14860783196E+04  0.14860783196E+04  0.00000000000E+00 0. -1.
         24    1    1    2    0    0 -0.14217607510E+02 -0.52684135438E+01 -0.54039080115E+03  0.54655222117E+03  0.80419002446E+02 0.  1.
        -24    1    1    2    0    0  0.14217607510E+02  0.52684135438E+01 -0.94083058731E+03  0.94438302956E+03  0.80419002446E+02 0. -1.
<mgrwt>
<rscale>  0 0.81835888E+02</rscale>
<asrwt>0</asrwt>
<pdfrwt beam="1">  1        1 0.22862751E+00 0.81835888E+02</pdfrwt>
<pdfrwt beam="2">  1       -1 0.74721993E-03 0.81835888E+02</pdfrwt>
<totfact> 0.19425333E+04</totfact>
</mgrwt>
</event>
<event>
 4    1  0.5074571E-001  0.9219103E+02  0.7546771E-02  0.1297631E+00
         -1   -1    0    0    0  501 -0.00000000000E+00  0.00000000000E+00  0.37472359757E+02  0.37472359757E+02  0.00000000000E+00 0.  1.
          1   -1    0    0  501    0  0.00000000000E+00 -0.00000000000E+00 -0.25943643103E+03  0.25943643103E+03  0.00000000000E+00 0. -1.
         24    1    1    2    0    0 -0.77467816430E+01 -0.44406729614E+02 -0.58338129984E+02  0.10909868755E+03  0.80419002446E+02 0.  1.
        -24    1    1    2    0    0  0.77467816430E+01  0.44406729614E+02 -0.16362594129E+03  0.18781010324E+03  0.80419002446E+02 0. -1.
<mgrwt>
<rscale>  0 0.92191031E+02</rscale>
<asrwt>0</asrwt>
<pdfrwt beam="1">  1        1 0.39913298E-01 0.92191031E+02</pdfrwt>
<pdfrwt beam="2">  1       -1 0.57649783E-02 0.92191031E+02</pdfrwt>
<totfact> 0.13553449E+04</totfact>
</mgrwt>
</event>
<event>
 4    1  0.5074571E-001  0.9504017E+02  0.7546771E-02  0.1291086E+00
          1   -1    0    0  501    0  0.00000000000E+00  0.00000000000E+00  0.56297507001E+02  0.56297507001E+02  0.00000000000E+00 0. -1.
         -1   -1    0    0    0  501 -0.00000000000E+00 -0.00000000000E+00 -0.29569187498E+03  0.29569187498E+03  0.00000000000E+00 0.  1.
         24    1    1    2    0    0 -0.47303743107E+02 -0.18104531669E+02 -0.23872378828E+03  0.25694684513E+03  0.80419002446E+02 0.  1.
        -24    1    1    2    0    0  0.47303743107E+02  0.18104531669E+02 -0.67057969883E+00  0.95042536848E+02  0.80419002446E+02 0. -1.
<mgrwt>
<rscale>  0 0.95040171E+02</rscale>
<asrwt>0</asrwt>
<pdfrwt beam="1">  1        1 0.86611549E-02 0.95040171E+02</pdfrwt>
<pdfrwt beam="2">  1       -1 0.45491058E-01 0.95040171E+02</pdfrwt>
<totfact> 0.35824491E+03</totfact>
</mgrwt>
</event>
<event>
 4    1  0.5074571E-001  0.1053627E+03  0.7546771E-02  0.1269407E+00
         -1   -1    0    0    0  501 -0.00000000000E+00  0.00000000000E+00  0.21056457910E+03  0.21056457910E+03  0.00000000000E+00 0.  1.
          1   -1    0    0  501    0  0.00000000000E+00 -0.00000000000E+00 -0.10017598773E+03  0.10017598773E+03  0.00000000000E+00 0. -1.
         24    1    1    2    0    0 -0.56631006984E+02 -0.37775727388E+02  0.16213044087E+03  0.19335866245E+03  0.80419002446E+02 0.  1.
        -24    1    1    2    0    0  0.56631006984E+02  0.37775727388E+02 -0.51741849506E+02  0.11738190438E+03  0.80419002446E+02 0. -1.
<mgrwt>
<rscale>  0 0.10536267E+03</rscale>
<asrwt>0</asrwt>
<pdfrwt beam="1">  1        1 0.15411691E-01 0.10536267E+03</pdfrwt>
<pdfrwt beam="2">  1       -1 0.32394550E-01 0.10536267E+03</pdfrwt>
<totfact> 0.30605356E+03</totfact>
</mgrwt>
</event>
<event>
 4    1  0.5074571E-001  0.8048977E+02  0.7546771E-02  0.1327667E+00
         -1   -1    0    0    0  501 -0.00000000000E+00  0.00000000000E+00  0.15836281631E+02  0.15836281631E+02  0.00000000000E+00 0.  1.
          1   -1    0    0  501    0  0.00000000000E+00 -0.00000000000E+00 -0.43459503706E+03  0.43459503706E+03  0.00000000000E+00 0. -1.
         24    1    1    2    0    0 -0.27874986321E+01 -0.19017413793E+01 -0.15482936801E+03  0.17450139232E+03  0.80419002446E+02 0.  0.
        -24    1    1    2    0    0  0.27874986321E+01  0.19017413793E+01 -0.26392938742E+03  0.27592992637E+03  0.80419002446E+02 0. -1.
<mgrwt>
<rscale>  0 0.80489768E+02</rscale>
<asrwt>0</asrwt>
<pdfrwt beam="1">  1        1 0.66860759E-01 0.80489768E+02</pdfrwt>
<pdfrwt beam="2">  1       -1 0.24363516E-02 0.80489768E+02</pdfrwt>
<totfact> 0.24685214E+04</totfact>
</mgrwt>
</event>
<event>
 4    1  0.5074571E-001  0.8874104E+02  0.7546771E-02  0.1305929E+00
         -2   -1    0    0    0  501 -0.00000000000E+00  0.00000000000E+00  0.10895555783E+02  0.10895555783E+02  0.00000000000E+00 0.  1.
          2   -1    0    0  501    0  0.00000000000E+00 -0.00000000000E+00 -0.12795081160E+04  0.12795081160E+04  0.00000000000E+00 0. -1.
         24    1    1    2    0    0  0.60201685618E+01 -0.37033962994E+02 -0.10599045346E+04  0.10636129913E+04  0.80419002446E+02 0. -1.
        -24    1    1    2    0    0 -0.60201685618E+01  0.37033962994E+02 -0.20870802568E+03  0.22679068054E+03  0.80419002446E+02 0.  1.
<mgrwt>
<rscale>  0 0.88741043E+02</rscale>
<asrwt>0</asrwt>
<pdfrwt beam="1">  1        2 0.19684755E+00 0.88741043E+02</pdfrwt>
<pdfrwt beam="2">  1       -2 0.16762381E-02 0.88741043E+02</pdfrwt>
<totfact> 0.16884861E+04</totfact>
</mgrwt>
</event>
<event>
 4    1  0.5074571E-001  0.8164561E+02  0.7546771E-02  0.1324445E+00
         -1   -1    0    0    0  501 -0.00000000000E+00  0.00000000000E+00  0.42161251391E+03  0.42161251391E+03  0.00000000000E+00 0.  1.
          1   -1    0    0  501    0  0.00000000000E+00 -0.00000000000E+00 -0.66850015336E+03  0.66850015336E+03  0.00000000000E+00 0. -1.
         24    1    1    2    0    0  0.41204038828E+01 -0.13483773204E+02  0.41512836410E+03  0.42308103775E+03  0.80419002446E+02 0.  1.
        -24    1    1    2    0    0 -0.41204038828E+01  0.13483773204E+02 -0.66201600356E+03  0.66703162952E+03  0.80419002446E+02 0. -1.
<mgrwt>
<rscale>  0 0.81645611E+02</rscale>
<asrwt>0</asrwt>
<pdfrwt beam="1">  1        1 0.10284618E+00 0.81645611E+02</pdfrwt>
<pdfrwt beam="2">  1       -1 0.64863464E-01 0.81645611E+02</pdfrwt>
<totfact> 0.81833029E+01</totfact>
</mgrwt>
</event>
<event>
 4    1  0.5074571E-001  0.9005409E+02  0.7546771E-02  0.1302721E+00
          2   -1    0    0  501    0  0.00000000000E+00  0.00000000000E+00  0.18067219130E+03  0.18067219130E+03  0.00000000000E+00 0. -1.
         -2   -1    0    0    0  501 -0.00000000000E+00 -0.00000000000E+00 -0.45780134165E+02  0.45780134165E+02  0.00000000000E+00 0.  1.
         24    1    1    2    0    0 -0.35751756984E+02  0.19087583450E+02  0.83265477707E+02  0.12264941786E+03  0.80419002446E+02 0. -1.
        -24    1    1    2    0    0  0.35751756984E+02 -0.19087583450E+02  0.51626579428E+02  0.10380290760E+03  0.80419002446E+02 0.  1.
<mgrwt>
<rscale>  0 0.90054094E+02</rscale>
<asrwt>0</asrwt>
<pdfrwt beam="1">  1        2 0.27795721E-01 0.90054094E+02</pdfrwt>
<pdfrwt beam="2">  1       -2 0.70430977E-02 0.90054094E+02</pdfrwt>
<totfact> 0.19649390E+04</totfact>
</mgrwt>
</event>
<event>
 4    1  0.5074571E-001  0.1981482E+03  0.7546771E-02  0.1151311E+00
          1   -1    0    0  501    0  0.00000000000E+00  0.00000000000E+00  0.27403265621E+03  0.27403265621E+03  0.00000000000E+00 0. -1.
         -1   -1    0    0    0  501 -0.00000000000E+00 -0.00000000000E+00 -0.24795202622E+03  0.24795202622E+03  0.00000000000E+00 0.  1.
         24    1    1    2    0    0  0.60688653850E+02 -0.17062350073E+03 -0.15653572201E+03  0.25251958325E+03  0.80419002446E+02 0.  1.
        -24    1    1    2    0    0 -0.60688653850E+02  0.17062350073E+03  0.18261635200E+03  0.26946509918E+03  0.80419002446E+02 0. -1.
<mgrwt>
<rscale>  0 0.19814820E+03</rscale>
<asrwt>0</asrwt>
<pdfrwt beam="1">  1        1 0.42158870E-01 0.19814820E+03</pdfrwt>
<pdfrwt beam="2">  1       -1 0.38146465E-01 0.19814820E+03</pdfrwt>
<totfact> 0.66254123E+02</totfact>
</mgrwt>
</event>
<event>
 4    1  0.5074571E-001  0.8141676E+02  0.7546771E-02  0.1325078E+00
          2   -1    0    0  501    0  0.00000000000E+00  0.00000000000E+00  0.70356489542E+03  0.70356489542E+03  0.00000000000E+00 0. -1.
         -2   -1    0    0    0  501 -0.00000000000E+00 -0.00000000000E+00 -0.11591054779E+03  0.11591054779E+03  0.00000000000E+00 0.  1.
         24    1    1    2    0    0 -0.32512535892E+01  0.12284223595E+02  0.68655962653E+03  0.69137024056E+03  0.80419002446E+02 0. -1.
        -24    1    1    2    0    0  0.32512535892E+01 -0.12284223595E+02 -0.98905278892E+02  0.12810520265E+03  0.80419002446E+02 0.  1.
<mgrwt>
<rscale>  0 0.81416760E+02</rscale>
<asrwt>0</asrwt>
<pdfrwt beam="1">  1        2 0.10824075E+00 0.81416760E+02</pdfrwt>
<pdfrwt beam="2">  1       -2 0.17832392E-01 0.81416760E+02</pdfrwt>
<totfact> 0.10589775E+03</totfact>
</mgrwt>
</event>
<event>
 4    1  0.5074571E-001  0.9899497E+02  0.7546771E-02  0.1282424E+00
         -2   -1    0    0    0  501 -0.00000000000E+00  0.00000000000E+00  0.25533545876E+02  0.25533545876E+02  0.00000000000E+00 0.  1.
          2   -1    0    0  501    0  0.00000000000E+00 -0.00000000000E+00 -0.41379447552E+03  0.41379447552E+03  0.00000000000E+00 0. -1.
         24    1    1    2    0    0 -0.14840108287E+02 -0.55790308349E+02 -0.25326244763E+03  0.27192254532E+03  0.80419002446E+02 0. -1.
        -24    1    1    2    0    0  0.14840108287E+02  0.55790308349E+02 -0.13499848201E+03  0.16740547607E+03  0.80419002446E+02 0.  1.
<mgrwt>
<rscale>  0 0.98994966E+02</rscale>
<asrwt>0</asrwt>
<pdfrwt beam="1">  1        2 0.63660683E-01 0.98994966E+02</pdfrwt>
<pdfrwt beam="2">  1       -2 0.39282382E-02 0.98994966E+02</pdfrwt>
<totfact> 0.19779505E+04</totfact>
</mgrwt>
</event>
<event>
 4    1  0.5074571E-001  0.1204964E+03  0.7546771E-02  0.1242280E+00
         -3   -1    0    0    0  501 -0.00000000000E+00  0.00000000000E+00  0.42182209913E+02  0.42182209913E+02  0.00000000000E+00 0.  1.
          3   -1    0    0  501    0  0.00000000000E+00 -0.00000000000E+00 -0.34427852831E+03  0.34427852831E+03  0.00000000000E+00 0. -1.
         24    1    1    2    0    0 -0.75584687057E+02  0.48364507545E+02 -0.15384510755E+03  0.19541674334E+03  0.80419002446E+02 0.  1.
        -24    1    1    2    0    0  0.75584687057E+02 -0.48364507545E+02 -0.14825121085E+03  0.19104399488E+03  0.80419002446E+02 0. -1.
<mgrwt>
<rscale>  0 0.12049643E+03</rscale>
<asrwt>0</asrwt>
<pdfrwt beam="1">  1        3 0.52965927E-01 0.12049645E+03</pdfrwt>
<pdfrwt beam="2">  1       -3 0.64895708E-02 0.12049645E+03</pdfrwt>
<totfact> 0.12045696E+03</totfact>
</mgrwt>
</event>
<event>
 4    1  0.5074571E-001  0.8182932E+02  0.7546771E-02  0.1323939E+00
          2   -1    0    0  501    0  0.00000000000E+00  0.00000000000E+00  0.12682289328E+04  0.12682289328E+04  0.00000000000E+00 0. -1.
         -2   -1    0    0    0  501 -0.00000000000E+00 -0.00000000000E+00 -0.60852682167E+01  0.60852682167E+01  0.00000000000E+00 0.  1.
         24    1    1    2    0    0  0.11857048071E+01  0.15080300193E+02  0.86287635293E+03  0.86674773594E+03  0.80419002446E+02 0. -1.
        -24    1    1    2    0    0 -0.11857048071E+01 -0.15080300193E+02  0.39926731168E+03  0.40756646511E+03  0.80419002446E+02 0.  0.
<mgrwt>
<rscale>  0 0.81829318E+02</rscale>
<asrwt>0</asrwt>
<pdfrwt beam="1">  1        2 0.19511193E+00 0.81829318E+02</pdfrwt>
<pdfrwt beam="2">  1       -2 0.93619612E-03 0.81829318E+02</pdfrwt>
<totfact> 0.38849017E+04</totfact>
</mgrwt>
</event>
<event>
 4    1  0.5074571E-001  0.8863904E+02  0.7546771E-02  0.1306181E+00
         -2   -1    0    0    0  501 -0.00000000000E+00  0.00000000000E+00  0.26816464725E+02  0.26816464725E+02  0.00000000000E+00 0.  1.
          2   -1    0    0  501    0  0.00000000000E+00 -0.00000000000E+00 -0.19641732096E+04  0.19641732096E+04  0.00000000000E+00 0. -1.
         24    1    1    2    0    0 -0.27456241911E+02  0.25215419769E+02 -0.18869296208E+04  0.18890103950E+04  0.80419002446E+02 0. -1.
        -24    1    1    2    0    0  0.27456241911E+02 -0.25215419769E+02 -0.50427124068E+02  0.10197927932E+03  0.80419002446E+02 0.  1.
<mgrwt>
<rscale>  0 0.88639035E+02</rscale>
<asrwt>0</asrwt>
<pdfrwt beam="1">  1        2 0.30218034E+00 0.88639035E+02</pdfrwt>
<pdfrwt beam="2">  1       -2 0.41256121E-02 0.88639035E+02</pdfrwt>
<totfact> 0.20566086E+03</totfact>
</mgrwt>
</event>
<event>
 4    1  0.5074571E-001  0.9645826E+02  0.7546771E-02  0.1287925E+00
          2   -1    0    0  501    0  0.00000000000E+00  0.00000000000E+00  0.34643279606E+03  0.34643279606E+03  0.00000000000E+00 0. -1.
         -2   -1    0    0    0  501 -0.00000000000E+00 -0.00000000000E+00 -0.30639501293E+02  0.30639501293E+02  0.00000000000E+00 0.  1.
         24    1    1    2    0    0  0.11236060419E+02 -0.52064684339E+02  0.22413887308E+03  0.24401317749E+03  0.80419002446E+02 0.  0.
        -24    1    1    2    0    0 -0.11236060419E+02  0.52064684339E+02  0.91654421684E+02  0.13305911986E+03  0.80419002446E+02 0.  1.
<mgrwt>
<rscale>  0 0.96458262E+02</rscale>
<asrwt>0</asrwt>
<pdfrwt beam="1">  1        2 0.53297351E-01 0.96458262E+02</pdfrwt>
<pdfrwt beam="2">  1       -2 0.47137697E-02 0.96458262E+02</pdfrwt>
<totfact> 0.18170112E+04</totfact>
</mgrwt>
</event>
<event>
 4    1  0.5074571E-001  0.1102719E+03  0.7546771E-02  0.1260067E+00
         -1   -1    0    0    0  501 -0.00000000000E+00  0.00000000000E+00  0.57918533841E+02  0.57918533841E+02  0.00000000000E+00 0.  1.
          1   -1    0    0  501    0  0.00000000000E+00 -0.00000000000E+00 -0.43057216404E+03  0.43057216404E+03  0.00000000000E+00 0. -1.
         24    1    1    2    0    0 -0.74572518538E+02  0.11472036284E+02 -0.11491241638E+02  0.11086898902E+03  0.80419002446E+02 0.  1.
        -24    1    1    2    0    0  0.74572518538E+02 -0.11472036284E+02 -0.36116238856E+03  0.37762170886E+03  0.80419002446E+02 0. -1.
<mgrwt>
<rscale>  0 0.11027186E+03</rscale>
<asrwt>0</asrwt>
<pdfrwt beam="1">  1        1 0.66241873E-01 0.11027186E+03</pdfrwt>
<pdfrwt beam="2">  1       -1 0.89105434E-02 0.11027186E+03</pdfrwt>
<totfact> 0.38424837E+03</totfact>
</mgrwt>
</event>
<event>
 4    1  0.5074571E-001  0.8882324E+02  0.7546771E-02  0.1305727E+00
          3   -1    0    0  501    0  0.00000000000E+00  0.00000000000E+00  0.87416019940E+02  0.87416019940E+02  0.00000000000E+00 0. -1.
         -3   -1    0    0    0  501 -0.00000000000E+00 -0.00000000000E+00 -0.12146265939E+03  0.12146265939E+03  0.00000000000E+00 0.  1.
         24    1    1    2    0    0 -0.35630157621E+02  0.12363002964E+02 -0.69963626363E+02  0.11306846131E+03  0.80419002446E+02 0.  0.
        -24    1    1    2    0    0  0.35630157621E+02 -0.12363002964E+02  0.35916986911E+02  0.95810218023E+02  0.80419002446E+02 0.  0.
<mgrwt>
<rscale>  0 0.88823240E+02</rscale>
<asrwt>0</asrwt>
<pdfrwt beam="1">  1        3 0.13448618E-01 0.88823240E+02</pdfrwt>
<pdfrwt beam="2">  1       -3 0.18686563E-01 0.88823240E+02</pdfrwt>
<totfact> 0.23877628E+03</totfact>
</mgrwt>
</event>
<event>
 4    1  0.5074571E-001  0.8102236E+02  0.7546771E-02  0.1326175E+00
         -1   -1    0    0    0  501 -0.00000000000E+00  0.00000000000E+00  0.19005053048E+03  0.19005053048E+03  0.00000000000E+00 0.  1.
          1   -1    0    0  501    0  0.00000000000E+00 -0.00000000000E+00 -0.98773434760E+02  0.98773434760E+02  0.00000000000E+00 0. -1.
         24    1    1    2    0    0 -0.92569850553E+01 -0.34227278907E+01  0.16209372209E+03  0.18121533471E+03  0.80419002446E+02 0.  1.
        -24    1    1    2    0    0  0.92569850553E+01  0.34227278907E+01 -0.70816626374E+02  0.10760863053E+03  0.80419002446E+02 0. -1.
<mgrwt>
<rscale>  0 0.81022360E+02</rscale>
<asrwt>0</asrwt>
<pdfrwt beam="1">  1        1 0.15195913E-01 0.81022360E+02</pdfrwt>
<pdfrwt beam="2">  1       -1 0.29238543E-01 0.81022360E+02</pdfrwt>
<totfact> 0.36365459E+03</totfact>
</mgrwt>
</event>
<event>
 4    1  0.5074571E-001  0.1138915E+03  0.7546771E-02  0.1253528E+00
         -2   -1    0    0    0  501 -0.00000000000E+00  0.00000000000E+00  0.16050773776E+02  0.16050773776E+02  0.00000000000E+00 0.  1.
          2   -1    0    0  501    0  0.00000000000E+00 -0.00000000000E+00 -0.84187528832E+03  0.84187528832E+03  0.00000000000E+00 0. -1.
         24    1    1    2    0    0 -0.74892923060E+02 -0.29918468728E+02 -0.49878095112E+03  0.51161872312E+03  0.80419002446E+02 0.  1.
        -24    1    1    2    0    0  0.74892923060E+02  0.29918468728E+02 -0.32704356343E+03  0.34630733898E+03  0.80419002446E+02 0.  0.
<mgrwt>
<rscale>  0 0.11389153E+03</rscale>
<asrwt>0</asrwt>
<pdfrwt beam="1">  1        2 0.12951930E+00 0.11389153E+03</pdfrwt>
<pdfrwt beam="2">  1       -2 0.24693493E-02 0.11389153E+03</pdfrwt>
<totfact> 0.17642648E+04</totfact>
</mgrwt>
</event>
<event>
 4    1  0.5074571E-001  0.8748416E+02  0.7546771E-02  0.1309061E+00
         -2   -1    0    0    0  501 -0.00000000000E+00  0.00000000000E+00  0.38690518817E+02  0.38690518817E+02  0.00000000000E+00 0.  1.
          2   -1    0    0  501    0  0.00000000000E+00 -0.00000000000E+00 -0.20555797924E+03  0.20555797924E+03  0.00000000000E+00 0. -1.
         24    1    1    2    0    0 -0.12959630368E+02  0.31910981411E+02 -0.10713934963E+03  0.13831962604E+03  0.80419002446E+02 0.  1.
        -24    1    1    2    0    0  0.12959630368E+02 -0.31910981411E+02 -0.59728110791E+02  0.10592887202E+03  0.80419002446E+02 0.  0.
<mgrwt>
<rscale>  0 0.87484163E+02</rscale>
<asrwt>0</asrwt>
<pdfrwt beam="1">  1        2 0.31624305E-01 0.87484163E+02</pdfrwt>
<pdfrwt beam="2">  1       -2 0.59523873E-02 0.87484163E+02</pdfrwt>
<totfact> 0.21982083E+04</totfact>
</mgrwt>
</event>
<event>
 4    1  0.5074571E-001  0.9123624E+02  0.7546771E-02  0.1299885E+00
          1   -1    0    0  501    0  0.00000000000E+00  0.00000000000E+00  0.60456978456E+03  0.60456978456E+03  0.00000000000E+00 0. -1.
         -1   -1    0    0    0  501 -0.00000000000E+00 -0.00000000000E+00 -0.43644958700E+02  0.43644958700E+02  0.00000000000E+00 0.  1.
         24    1    1    2    0    0 -0.28356647653E+02  0.32445902458E+02  0.12307332824E+02  0.92062600702E+02  0.80419002446E+02 0.  1.
        -24    1    1    2    0    0  0.28356647653E+02 -0.32445902458E+02  0.54861749303E+03  0.55615214255E+03  0.80419002446E+02 0. -1.
<mgrwt>
<rscale>  0 0.91236243E+02</rscale>
<asrwt>0</asrwt>
<pdfrwt beam="1">  1        1 0.93010730E-01 0.91236243E+02</pdfrwt>
<pdfrwt beam="2">  1       -1 0.67146095E-02 0.91236243E+02</pdfrwt>
<totfact> 0.37390537E+03</totfact>
</mgrwt>
</event>
<event>
 4    1  0.5074571E-001  0.8692639E+02  0.7546771E-02  0.1310470E+00
          2   -1    0    0  501    0  0.00000000000E+00  0.00000000000E+00  0.21380476974E+03  0.21380476974E+03  0.00000000000E+00 0. -1.
         -2   -1    0    0    0  501 -0.00000000000E+00 -0.00000000000E+00 -0.82459137989E+02  0.82459137989E+02  0.00000000000E+00 0.  1.
         24    1    1    2    0    0 -0.86024469663E+01  0.31858731444E+02  0.17764773989E+03  0.19777491324E+03  0.80419002446E+02 0. -1.
        -24    1    1    2    0    0  0.86024469663E+01 -0.31858731444E+02 -0.46302108141E+02  0.98488994490E+02  0.80419002446E+02 0.  1.
<mgrwt>
<rscale>  0 0.86926387E+02</rscale>
<asrwt>0</asrwt>
<pdfrwt beam="1">  1        2 0.32893041E-01 0.86926387E+02</pdfrwt>
<pdfrwt beam="2">  1       -2 0.12686021E-01 0.86926387E+02</pdfrwt>
<totfact> 0.65788385E+03</totfact>
</mgrwt>
</event>
<event>
 4    1  0.5074571E-001  0.9219520E+02  0.7546771E-02  0.1297621E+00
          2   -1    0    0  501    0  0.00000000000E+00  0.00000000000E+00  0.10920383354E+04  0.10920383354E+04  0.00000000000E+00 0. -1.
         -2   -1    0    0    0  501 -0.00000000000E+00 -0.00000000000E+00 -0.28956668449E+02  0.28956668449E+02  0.00000000000E+00 0.  1.
         24    1    1    2    0    0  0.32851200562E+02  0.30879415689E+02  0.10108233690E+04  0.10150191323E+04  0.80419002446E+02 0. -1.
        -24    1    1    2    0    0 -0.32851200562E+02 -0.30879415689E+02  0.52258297981E+02  0.10597587157E+03  0.80419002446E+02 0.  1.
<mgrwt>
<rscale>  0 0.92195204E+02</rscale>
<asrwt>0</asrwt>
<pdfrwt beam="1">  1        2 0.16800587E+00 0.92195204E+02</pdfrwt>
<pdfrwt beam="2">  1       -2 0.44548729E-02 0.92195204E+02</pdfrwt>
<totfact> 0.51880639E+03</totfact>
</mgrwt>
</event>
<event>
 4    1  0.5074571E-001  0.8551421E+02  0.7546771E-02  0.1314093E+00
         -1   -1    0    0    0  501 -0.00000000000E+00  0.00000000000E+00  0.19250001017E+02  0.19250001017E+02  0.00000000000E+00 0.  1.
          1   -1    0    0  501    0  0.00000000000E+00 -0.00000000000E+00 -0.84083856269E+03  0.84083856269E+03  0.00000000000E+00 0. -1.
         24    1    1    2    0    0  0.23923101999E+02  0.16527238804E+02 -0.92383286551E+02  0.12588626621E+03  0.80419002446E+02 0.  1.
        -24    1    1    2    0    0 -0.23923101999E+02 -0.16527238804E+02 -0.72920527512E+03  0.73420229750E+03  0.80419002446E+02 0. -1.
<mgrwt>
<rscale>  0 0.85514212E+02</rscale>
<asrwt>0</asrwt>
<pdfrwt beam="1">  1        1 0.12935982E+00 0.85514212E+02</pdfrwt>
<pdfrwt beam="2">  1       -1 0.29615376E-02 0.85514212E+02</pdfrwt>
<totfact> 0.76893376E+03</totfact>
</mgrwt>
</event>
<event>
 4    1  0.5074571E-001  0.1198241E+03  0.7546771E-02  0.1243388E+00
          2   -1    0    0  501    0  0.00000000000E+00  0.00000000000E+00  0.97496886237E+03  0.97496886237E+03  0.00000000000E+00 0. -1.
         -2   -1    0    0    0  501 -0.00000000000E+00 -0.00000000000E+00 -0.15423368714E+02  0.15423368714E+02  0.00000000000E+00 0.  1.
         24    1    1    2    0    0  0.83630410688E+02  0.29942423583E+02  0.37450749341E+03  0.39320945169E+03  0.80419002446E+02 0.  0.
        -24    1    1    2    0    0 -0.83630410688E+02 -0.29942423583E+02  0.58503800024E+03  0.59718277939E+03  0.80419002446E+02 0.  0.
<mgrwt>
<rscale>  0 0.11982410E+03</rscale>
<asrwt>0</asrwt>
<pdfrwt beam="1">  1        2 0.14999516E+00 0.11982411E+03</pdfrwt>
<pdfrwt beam="2">  1       -2 0.23728267E-02 0.11982411E+03</pdfrwt>
<totfact> 0.15500165E+04</totfact>
</mgrwt>
</event>
<event>
 4    1  0.5074571E-001  0.1569052E+03  0.7546771E-02  0.1192236E+00
          1   -1    0    0  501    0  0.00000000000E+00  0.00000000000E+00  0.12577992405E+04  0.12577992405E+04  0.00000000000E+00 0. -1.
         -1   -1    0    0    0  501 -0.00000000000E+00 -0.00000000000E+00 -0.48774396017E+02  0.48774396017E+02  0.00000000000E+00 0.  1.
         24    1    1    2    0    0  0.76500125753E+02 -0.11090426874E+03  0.99028022453E+02  0.18554188543E+03  0.80419002446E+02 0.  1.
        -24    1    1    2    0    0 -0.76500125753E+02  0.11090426874E+03  0.11099968221E+04  0.11210317511E+04  0.80419002446E+02 0. -1.
<mgrwt>
<rscale>  0 0.15690520E+03</rscale>
<asrwt>0</asrwt>
<pdfrwt beam="1">  1        1 0.19350755E+00 0.15690520E+03</pdfrwt>
<pdfrwt beam="2">  1       -1 0.75037542E-02 0.15690520E+03</pdfrwt>
<totfact> 0.99880814E+02</totfact>
</mgrwt>
</event>
<event>
 4    1  0.5074571E-001  0.9408427E+02  0.7546771E-02  0.1293252E+00
         -1   -1    0    0    0  501 -0.00000000000E+00  0.00000000000E+00  0.11954605252E+02  0.11954605252E+02  0.00000000000E+00 0.  1.
          1   -1    0    0  501    0  0.00000000000E+00 -0.00000000000E+00 -0.16944725232E+04  0.16944725232E+04  0.00000000000E+00 0. -1.
         24    1    1    2    0    0 -0.38805903574E+02  0.29643483693E+02 -0.20105463290E+03  0.22197931355E+03  0.80419002446E+02 0.  1.
        -24    1    1    2    0    0  0.38805903574E+02 -0.29643483693E+02 -0.14814632850E+04  0.14844478149E+04  0.80419002446E+02 0. -1.
<mgrwt>
<rscale>  0 0.94084272E+02</rscale>
<asrwt>0</asrwt>
<pdfrwt beam="1">  1        1 0.26068800E+00 0.94084272E+02</pdfrwt>
<pdfrwt beam="2">  1       -1 0.18391706E-02 0.94084272E+02</pdfrwt>
<totfact> 0.40481370E+03</totfact>
</mgrwt>
</event>
<event>
 4    1  0.5074571E-001  0.8383588E+02  0.7546771E-02  0.1318505E+00
         -2   -1    0    0    0  501 -0.00000000000E+00  0.00000000000E+00  0.35074264131E+01  0.35074264131E+01  0.00000000000E+00 0.  1.
          2   -1    0    0  501    0  0.00000000000E+00 -0.00000000000E+00 -0.24215342580E+04  0.24215342580E+04  0.00000000000E+00 0. -1.
         24    1    1    2    0    0 -0.23973410313E+01 -0.23568859652E+02 -0.17125759867E+04  0.17146267712E+04  0.80419002446E+02 0. -1.
        -24    1    1    2    0    0  0.23973410313E+01  0.23568859652E+02 -0.70545084489E+03  0.71041491321E+03  0.80419002446E+02 0.  1.
<mgrwt>
<rscale>  0 0.83835877E+02</rscale>
<asrwt>0</asrwt>
<pdfrwt beam="1">  1        2 0.37254459E+00 0.83835877E+02</pdfrwt>
<pdfrwt beam="2">  1       -2 0.53960283E-03 0.83835877E+02</pdfrwt>
<totfact> 0.21956173E+04</totfact>
</mgrwt>
</event>
<event>
 4    1  0.5074571E-001  0.9606940E+02  0.7546771E-02  0.1288786E+00
          2   -1    0    0  501    0  0.00000000000E+00  0.00000000000E+00  0.11893269584E+04  0.11893269584E+04  0.00000000000E+00 0. -1.
         -2   -1    0    0    0  501 -0.00000000000E+00 -0.00000000000E+00 -0.82717312954E+01  0.82717312954E+01  0.00000000000E+00 0.  1.
         24    1    1    2    0    0 -0.26990695546E+02  0.45095586062E+02  0.44160824601E+03  0.45193712884E+03  0.80419002446E+02 0.  0.
        -24    1    1    2    0    0  0.26990695546E+02 -0.45095586062E+02  0.73944698107E+03  0.74566156083E+03  0.80419002446E+02 0.  1.
<mgrwt>
<rscale>  0 0.96069390E+02</rscale>
<asrwt>0</asrwt>
<pdfrwt beam="1">  1        2 0.18297324E+00 0.96069403E+02</pdfrwt>
<pdfrwt beam="2">  1       -2 0.12725750E-02 0.96069403E+02</pdfrwt>
<totfact> 0.28149966E+04</totfact>
</mgrwt>
</event>
<event>
 4    1  0.5074571E-001  0.8511689E+02  0.7546771E-02  0.1315127E+00
         -1   -1    0    0    0  501 -0.00000000000E+00  0.00000000000E+00  0.21593402775E+02  0.21593402775E+02  0.00000000000E+00 0.  1.
          1   -1    0    0  501    0  0.00000000000E+00 -0.00000000000E+00 -0.40999968821E+03  0.40999968821E+03  0.00000000000E+00 0. -1.
         24    1    1    2    0    0  0.62524063654E+00  0.27879704806E+02 -0.10222392781E+03  0.13302111199E+03  0.80419002446E+02 0.  1.
        -24    1    1    2    0    0 -0.62524063654E+00 -0.27879704806E+02 -0.28618235763E+03  0.29857197899E+03  0.80419002446E+02 0. -1.
<mgrwt>
<rscale>  0 0.85116889E+02</rscale>
<asrwt>0</asrwt>
<pdfrwt beam="1">  1        1 0.63076877E-01 0.85116889E+02</pdfrwt>
<pdfrwt beam="2">  1       -1 0.33220619E-02 0.85116889E+02</pdfrwt>
<totfact> 0.17115243E+04</totfact>
</mgrwt>
</event>
<event>
 4    1  0.5074571E-001  0.8131905E+02  0.7546771E-02  0.1325349E+00
          2   -1    0    0  501    0  0.00000000000E+00  0.00000000000E+00  0.51397461398E+03  0.51397461398E+03  0.00000000000E+00 0. -1.
         -2   -1    0    0    0  501 -0.00000000000E+00 -0.00000000000E+00 -0.16179826207E+02  0.16179826207E+02  0.00000000000E+00 0.  1.
         24    1    1    2    0    0  0.94996795542E+01 -0.74380645203E+01  0.12893310991E+03  0.15243533548E+03  0.80419002446E+02 0.  1.
        -24    1    1    2    0    0 -0.94996795542E+01  0.74380645203E+01  0.36886167786E+03  0.37771910471E+03  0.80419002446E+02 0.  0.
<mgrwt>
<rscale>  0 0.81319040E+02</rscale>
<asrwt>0</asrwt>
<pdfrwt beam="1">  1        2 0.79073005E-01 0.81319051E+02</pdfrwt>
<pdfrwt beam="2">  1       -2 0.24892044E-02 0.81319051E+02</pdfrwt>
<totfact> 0.29854084E+04</totfact>
</mgrwt>
</event>
<event>
 4    1  0.5074571E-001  0.1201183E+03  0.7546771E-02  0.1242902E+00
          2   -1    0    0  501    0  0.00000000000E+00  0.00000000000E+00  0.28190468836E+03  0.28190468836E+03  0.00000000000E+00 0. -1.
         -2   -1    0    0    0  501 -0.00000000000E+00 -0.00000000000E+00 -0.51817544736E+02  0.51817544736E+02  0.00000000000E+00 0.  1.
         24    1    1    2    0    0  0.84335304861E+02  0.29133131490E+02  0.13352546765E+03  0.17960358978E+03  0.80419002446E+02 0.  1.
        -24    1    1    2    0    0 -0.84335304861E+02 -0.29133131490E+02  0.96561675973E+02  0.15411864332E+03  0.80419002446E+02 0.  0.
<mgrwt>
<rscale>  0 0.12011827E+03</rscale>
<asrwt>0</asrwt>
<pdfrwt beam="1">  1        2 0.43369951E-01 0.12011827E+03</pdfrwt>
<pdfrwt beam="2">  1       -2 0.79719301E-02 0.12011827E+03</pdfrwt>
<totfact> 0.10409535E+04</totfact>
</mgrwt>
</event>
<event>
 4    1  0.5074571E-001  0.9130275E+02  0.7546771E-02  0.1299727E+00
         -2   -1    0    0    0  501 -0.00000000000E+00  0.00000000000E+00  0.53524051945E+02  0.53524051945E+02  0.00000000000E+00 0.  1.
          2   -1    0    0  501    0  0.00000000000E+00 -0.00000000000E+00 -0.16166306981E+04  0.16166306981E+04  0.00000000000E+00 0. -1.
         24    1    1    2    0    0 -0.34162445338E+02  0.26493474196E+02 -0.15753863753E+04  0.15780299187E+04  0.80419002446E+02 0. -1.
        -24    1    1    2    0    0  0.34162445338E+02 -0.26493474196E+02  0.12279729161E+02  0.92124831338E+02  0.80419002446E+02 0.  1.
<mgrwt>
<rscale>  0 0.91302754E+02</rscale>
<asrwt>0</asrwt>
<pdfrwt beam="1">  1        2 0.24871239E+00 0.91302754E+02</pdfrwt>
<pdfrwt beam="2">  1       -2 0.82344705E-02 0.91302754E+02</pdfrwt>
<totfact> 0.10905358E+03</totfact>
</mgrwt>
</event>
<event>
 4    1  0.5074571E-001  0.8891515E+02  0.7546771E-02  0.1305500E+00
         -2   -1    0    0    0  501 -0.00000000000E+00  0.00000000000E+00  0.29406400983E+01  0.29406400983E+01  0.00000000000E+00 0.  1.
          2   -1    0    0  501    0  0.00000000000E+00 -0.00000000000E+00 -0.28943148920E+04  0.28943148920E+04  0.00000000000E+00 0. -1.
         24    1    1    2    0    0 -0.17938434498E+02  0.33420012858E+02 -0.10593859824E+04  0.10631107940E+04  0.80419002446E+02 0. -1.
        -24    1    1    2    0    0  0.17938434498E+02 -0.33420012858E+02 -0.18319882695E+04  0.18341447381E+04  0.80419002446E+02 0. -1.
<mgrwt>
<rscale>  0 0.88915143E+02</rscale>
<asrwt>0</asrwt>
<pdfrwt beam="1">  1        2 0.44527622E+00 0.88915154E+02</pdfrwt>
<pdfrwt beam="2">  1       -2 0.45240921E-03 0.88915154E+02</pdfrwt>
<totfact> 0.15712978E+04</totfact>
</mgrwt>
</event>
<event>
 4    1  0.5074571E-001  0.1496619E+03  0.7546771E-02  0.1200889E+00
          2   -1    0    0  501    0  0.00000000000E+00  0.00000000000E+00  0.26213052184E+04  0.26213052184E+04  0.00000000000E+00 0. -1.
         -2   -1    0    0    0  501 -0.00000000000E+00 -0.00000000000E+00 -0.15042912948E+02  0.15042912948E+02  0.00000000000E+00 0.  1.
         24    1    1    2    0    0 -0.12128681263E+03 -0.34942506673E+02  0.21694912084E+04  0.21746472792E+04  0.80419002446E+02 0. -1.
        -24    1    1    2    0    0  0.12128681263E+03  0.34942506673E+02  0.43677109705E+03  0.46170085214E+03  0.80419002446E+02 0.  1.
<mgrwt>
<rscale>  0 0.14966190E+03</rscale>
<asrwt>0</asrwt>
<pdfrwt beam="1">  1        2 0.40327736E+00 0.14966190E+03</pdfrwt>
<pdfrwt beam="2">  1       -2 0.23142964E-02 0.14966190E+03</pdfrwt>
<totfact> 0.21712771E+03</totfact>
</mgrwt>
</event>
<event>
 4    1  0.5074571E-001  0.1622965E+03  0.7546771E-02  0.1186128E+00
          2   -1    0    0  501    0  0.00000000000E+00  0.00000000000E+00  0.91063533021E+03  0.91063533021E+03  0.00000000000E+00 0. -1.
         -2   -1    0    0    0  501 -0.00000000000E+00 -0.00000000000E+00 -0.38478759172E+02  0.38478759172E+02  0.00000000000E+00 0.  1.
         24    1    1    2    0    0 -0.13275805087E+03  0.47415539041E+02  0.67254198507E+03  0.69184743336E+03  0.80419002446E+02 0. -1.
        -24    1    1    2    0    0  0.13275805087E+03 -0.47415539041E+02  0.19961458597E+03  0.25726665602E+03  0.80419002446E+02 0.  1.
<mgrwt>
<rscale>  0 0.16229649E+03</rscale>
<asrwt>0</asrwt>
<pdfrwt beam="1">  1        2 0.14009773E+00 0.16229649E+03</pdfrwt>
<pdfrwt beam="2">  1       -2 0.59198098E-02 0.16229649E+03</pdfrwt>
<totfact> 0.44393231E+03</totfact>
</mgrwt>
</event>
<event>
 4    1  0.5074571E-001  0.8229306E+02  0.7546771E-02  0.1322667E+00
         -2   -1    0    0    0  501 -0.00000000000E+00  0.00000000000E+00  0.23980353679E+03  0.23980353679E+03  0.00000000000E+00 0.  1.
          2   -1    0    0  501    0  0.00000000000E+00 -0.00000000000E+00 -0.31135411484E+02  0.31135411484E+02  0.00000000000E+00 0. -1.
         24    1    1    2    0    0  0.14585497275E+02  0.96018273462E+01  0.63025575133E+02  0.10365505725E+03  0.80419002446E+02 0. -1.
        -24    1    1    2    0    0 -0.14585497275E+02 -0.96018273462E+01  0.14564255017E+03  0.16728389102E+03  0.80419002446E+02 0.  1.
<mgrwt>
<rscale>  0 0.82293060E+02</rscale>
<asrwt>0</asrwt>
<pdfrwt beam="1">  1        2 0.47900635E-02 0.82293060E+02</pdfrwt>
<pdfrwt beam="2">  1       -2 0.36892851E-01 0.82293060E+02</pdfrwt>
<totfact> 0.10290805E+04</totfact>
</mgrwt>
</event>
<event>
 4    1  0.5074571E-001  0.1537830E+03  0.7546771E-02  0.1195900E+00
         -2   -1    0    0    0  501 -0.00000000000E+00  0.00000000000E+00  0.45067530566E+02  0.45067530566E+02  0.00000000000E+00 0.  1.
          2   -1    0    0  501    0  0.00000000000E+00 -0.00000000000E+00 -0.53164546539E+03  0.53164546539E+03  0.00000000000E+00 0. -1.
         24    1    1    2    0    0 -0.69560779959E+02 -0.11110043630E+03 -0.27612673935E+03  0.31606202112E+03  0.80419002446E+02 0. -1.
        -24    1    1    2    0    0  0.69560779959E+02  0.11110043630E+03 -0.21045119547E+03  0.26065097484E+03  0.80419002446E+02 0.  1.
<mgrwt>
<rscale>  0 0.15378305E+03</rscale>
<asrwt>0</asrwt>
<pdfrwt beam="1">  1        2 0.81791611E-01 0.15378305E+03</pdfrwt>
<pdfrwt beam="2">  1       -2 0.69334661E-02 0.15378305E+03</pdfrwt>
<totfact> 0.66394493E+03</totfact>
</mgrwt>
</event>
<event>
 4    1  0.5074571E-001  0.8624696E+02  0.7546771E-02  0.1312203E+00
         -1   -1    0    0    0  501 -0.00000000000E+00  0.00000000000E+00  0.12075408393E+02  0.12075408393E+02  0.00000000000E+00 0.  1.
          1   -1    0    0  501    0  0.00000000000E+00 -0.00000000000E+00 -0.61906716542E+03  0.61906716542E+03  0.00000000000E+00 0. -1.
         24    1    1    2    0    0 -0.27240424331E+02 -0.15142058225E+02 -0.28130950355E+03  0.29423387872E+03  0.80419002446E+02 0.  1.
        -24    1    1    2    0    0  0.27240424331E+02  0.15142058225E+02 -0.32568225348E+03  0.33690869509E+03  0.80419002446E+02 0.  0.
<mgrwt>
<rscale>  0 0.86246963E+02</rscale>
<asrwt>0</asrwt>
<pdfrwt beam="1">  1        1 0.95241139E-01 0.86246963E+02</pdfrwt>
<pdfrwt beam="2">  1       -1 0.18577544E-02 0.86246963E+02</pdfrwt>
<totfact> 0.23168464E+04</totfact>
</mgrwt>
</event>
<event>
 4    1  0.5074571E-001  0.8195063E+02  0.7546771E-02  0.1323605E+00
         -2   -1    0    0    0  501 -0.00000000000E+00  0.00000000000E+00  0.83537090915E+01  0.83537090915E+01  0.00000000000E+00 0.  1.
          2   -1    0    0  501    0  0.00000000000E+00 -0.00000000000E+00 -0.15584590487E+04  0.15584590487E+04  0.00000000000E+00 0. -1.
         24    1    1    2    0    0 -0.10874818985E+02 -0.11420534416E+02 -0.13201494748E+04  0.13226906449E+04  0.80419002446E+02 0. -1.
        -24    1    1    2    0    0  0.10874818985E+02  0.11420534416E+02 -0.22995586474E+03  0.24412211284E+03  0.80419002446E+02 0.  0.
<mgrwt>
<rscale>  0 0.81950633E+02</rscale>
<asrwt>0</asrwt>
<pdfrwt beam="1">  1        2 0.23976318E+00 0.81950633E+02</pdfrwt>
<pdfrwt beam="2">  1       -2 0.12851847E-02 0.81950633E+02</pdfrwt>
<totfact> 0.17589792E+04</totfact>
</mgrwt>
</event>
<event>
 4    1  0.5074571E-001  0.8557189E+02  0.7546771E-02  0.1313944E+00
         -2   -1    0    0    0  501 -0.00000000000E+00  0.00000000000E+00  0.10092949681E+02  0.10092949681E+02  0.00000000000E+00 0.  1.
          2   -1    0    0  501    0  0.00000000000E+00 -0.00000000000E+00 -0.14842622410E+04  0.14842622410E+04  0.00000000000E+00 0. -1.
         24    1    1    2    0    0  0.29102239692E+02 -0.28968130900E+01 -0.12713022270E+04  0.12741789122E+04  0.80419002446E+02 0. -1.
        -24    1    1    2    0    0 -0.29102239692E+02  0.28968130900E+01 -0.20286706433E+03  0.22017627853E+03  0.80419002446E+02 0.  1.
<mgrwt>
<rscale>  0 0.85571887E+02</rscale>
<asrwt>0</asrwt>
<pdfrwt beam="1">  1        2 0.22834791E+00 0.85571887E+02</pdfrwt>
<pdfrwt beam="2">  1       -2 0.15527624E-02 0.85571887E+02</pdfrwt>
<totfact> 0.14704106E+04</totfact>
</mgrwt>
</event>
<event>
 4    1  0.5074571E-001  0.8141122E+02  0.7546771E-02  0.1325094E+00
         -2   -1    0    0    0  501 -0.00000000000E+00  0.00000000000E+00  0.12797018940E+03  0.12797018940E+03  0.00000000000E+00 0.  1.
          2   -1    0    0  501    0  0.00000000000E+00 -0.00000000000E+00 -0.64148008029E+02  0.64148008029E+02  0.00000000000E+00 0. -1.
         24    1    1    2    0    0 -0.42704977429E+01 -0.11930343231E+02 -0.10248104156E+02  0.82053700914E+02  0.80419002446E+02 0.  0.
        -24    1    1    2    0    0  0.42704977429E+01  0.11930343231E+02  0.74070285524E+02  0.11006449651E+03  0.80419002446E+02 0.  1.
<mgrwt>
<rscale>  0 0.81411217E+02</rscale>
<asrwt>0</asrwt>
<pdfrwt beam="1">  1        2 0.98689243E-02 0.81411217E+02</pdfrwt>
<pdfrwt beam="2">  1       -2 0.19687721E-01 0.81411217E+02</pdfrwt>
<totfact> 0.12478573E+04</totfact>
</mgrwt>
</event>
<event>
 4    1  0.5074571E-001  0.8115439E+02  0.7546771E-02  0.1325807E+00
          1   -1    0    0  501    0  0.00000000000E+00  0.00000000000E+00  0.24679027755E+04  0.24679027755E+04  0.00000000000E+00 0. -1.
         -1   -1    0    0    0  501 -0.00000000000E+00 -0.00000000000E+00 -0.61370056806E+01  0.61370056806E+01  0.00000000000E+00 0.  1.
         24    1    1    2    0    0 -0.84116154361E+01 -0.69328462164E+01  0.30093515514E+03  0.31168574428E+03  0.80419002446E+02 0.  1.
        -24    1    1    2    0    0  0.84116154361E+01  0.69328462164E+01  0.21608306147E+04  0.21623540369E+04  0.80419002446E+02 0.  0.
<mgrwt>
<rscale>  0 0.81154394E+02</rscale>
<asrwt>0</asrwt>
<pdfrwt beam="1">  1        1 0.37967656E+00 0.81154394E+02</pdfrwt>
<pdfrwt beam="2">  1       -1 0.94415669E-03 0.81154394E+02</pdfrwt>
<totfact> 0.33772175E+03</totfact>
</mgrwt>
</event>
<event>
 4    1  0.5074571E-001  0.8877195E+02  0.7546771E-02  0.1305853E+00
          1   -1    0    0  501    0  0.00000000000E+00  0.00000000000E+00  0.18465876519E+03  0.18465876519E+03  0.00000000000E+00 0. -1.
         -1   -1    0    0    0  501 -0.00000000000E+00 -0.00000000000E+00 -0.90422128949E+02  0.90422128949E+02  0.00000000000E+00 0.  1.
         24    1    1    2    0    0 -0.20103300156E+02  0.31766349905E+02 -0.52827144605E+02  0.10330133990E+03  0.80419002446E+02 0.  1.
        -24    1    1    2    0    0  0.20103300156E+02 -0.31766349905E+02  0.14706378084E+03  0.17177955424E+03  0.80419002446E+02 0. -1.
<mgrwt>
<rscale>  0 0.88771953E+02</rscale>
<asrwt>0</asrwt>
<pdfrwt beam="1">  1        1 0.28409041E-01 0.88771953E+02</pdfrwt>
<pdfrwt beam="2">  1       -1 0.13911097E-01 0.88771953E+02</pdfrwt>
<totfact> 0.54523283E+03</totfact>
</mgrwt>
</event>
<event>
 4    1  0.5074571E-001  0.1103084E+03  0.7546771E-02  0.1260000E+00
         -2   -1    0    0    0  501 -0.00000000000E+00  0.00000000000E+00  0.73556525584E+02  0.73556525584E+02  0.00000000000E+00 0.  1.
          2   -1    0    0  501    0  0.00000000000E+00 -0.00000000000E+00 -0.18966598454E+03  0.18966598454E+03  0.00000000000E+00 0. -1.
         24    1    1    2    0    0  0.18236359994E+02 -0.73267755603E+02 -0.10510811779E+03  0.15236686391E+03  0.80419002446E+02 0. -1.
        -24    1    1    2    0    0 -0.18236359994E+02  0.73267755603E+02 -0.11001341167E+02  0.11085564622E+03  0.80419002446E+02 0.  0.
<mgrwt>
<rscale>  0 0.11030841E+03</rscale>
<asrwt>0</asrwt>
<pdfrwt beam="1">  1        2 0.29179382E-01 0.11030841E+03</pdfrwt>
<pdfrwt beam="2">  1       -2 0.11316389E-01 0.11030841E+03</pdfrwt>
<totfact> 0.91345367E+03</totfact>
</mgrwt>
</event>
<event>
 4    1  0.5074571E-001  0.1508717E+03  0.7546771E-02  0.1199406E+00
         -2   -1    0    0    0  501 -0.00000000000E+00  0.00000000000E+00  0.57161817636E+02  0.57161817636E+02  0.00000000000E+00 0.  1.
          2   -1    0    0  501    0  0.00000000000E+00 -0.00000000000E+00 -0.40992729826E+03  0.40992729826E+03  0.00000000000E+00 0. -1.
         24    1    1    2    0    0  0.12324316677E+03  0.33259408095E+02 -0.21587123851E+03  0.26336794404E+03  0.80419002446E+02 0.  1.
        -24    1    1    2    0    0 -0.12324316677E+03 -0.33259408095E+02 -0.13689424212E+03  0.20372117185E+03  0.80419002446E+02 0. -1.
<mgrwt>
<rscale>  0 0.15087174E+03</rscale>
<asrwt>0</asrwt>
<pdfrwt beam="1">  1        2 0.63065737E-01 0.15087174E+03</pdfrwt>
<pdfrwt beam="2">  1       -2 0.87941259E-02 0.15087174E+03</pdfrwt>
<totfact> 0.61011281E+03</totfact>
</mgrwt>
</event>
<event>
 4    1  0.5074571E-001  0.8700666E+02  0.7546771E-02  0.1310267E+00
         -1   -1    0    0    0  501 -0.00000000000E+00  0.00000000000E+00  0.20421606913E+04  0.20421606913E+04  0.00000000000E+00 0.  1.
          1   -1    0    0  501    0  0.00000000000E+00 -0.00000000000E+00 -0.77249233543E+02  0.77249233543E+02  0.00000000000E+00 0. -1.
         24    1    1    2    0    0  0.30987161601E+02 -0.11947340590E+02  0.20164222457E+04  0.20182984993E+04  0.80419002446E+02 0.  1.
        -24    1    1    2    0    0 -0.30987161601E+02  0.11947340590E+02 -0.51510788032E+02  0.10111142551E+03  0.80419002446E+02 0. -1.
<mgrwt>
<rscale>  0 0.87006661E+02</rscale>
<asrwt>0</asrwt>
<pdfrwt beam="1">  1        1 0.11884499E-01 0.87006661E+02</pdfrwt>
<pdfrwt beam="2">  1       -1 0.31417853E+00 0.87006661E+02</pdfrwt>
<totfact> 0.17539537E+01</totfact>
</mgrwt>
</event>
<event>
 4    1  0.5074571E-001  0.8305489E+02  0.7546771E-02  0.1320599E+00
          1   -1    0    0  501    0  0.00000000000E+00  0.00000000000E+00  0.50099609630E+01  0.50099609630E+01  0.00000000000E+00 0. -1.
         -1   -1    0    0    0  501 -0.00000000000E+00 -0.00000000000E+00 -0.27174643355E+04  0.27174643355E+04  0.00000000000E+00 0.  1.
         24    1    1    2    0    0  0.10515939353E+02 -0.17897294276E+02 -0.23123176096E+04  0.23138087306E+04  0.80419002446E+02 0.  1.
        -24    1    1    2    0    0 -0.10515939353E+02  0.17897294276E+02 -0.40013676490E+03  0.40866556583E+03  0.80419002446E+02 0. -1.
<mgrwt>
<rscale>  0 0.83054886E+02</rscale>
<asrwt>0</asrwt>
<pdfrwt beam="1">  1        1 0.77075900E-03 0.83054886E+02</pdfrwt>
<pdfrwt beam="2">  1       -1 0.41807373E+00 0.83054886E+02</pdfrwt>
<totfact> 0.15784782E+02</totfact>
</mgrwt>
</event>
<event>
 4    1  0.5074571E-001  0.8977200E+02  0.7546771E-02  0.1303405E+00
          2   -1    0    0  501    0  0.00000000000E+00  0.00000000000E+00  0.70459674249E+03  0.70459674249E+03  0.00000000000E+00 0. -1.
         -2   -1    0    0    0  501 -0.00000000000E+00 -0.00000000000E+00 -0.23804903281E+02  0.23804903281E+02  0.00000000000E+00 0.  1.
         24    1    1    2    0    0  0.35452016983E+02  0.18301663837E+02  0.60290377894E+03  0.60955063697E+03  0.80419002446E+02 0. -1.
        -24    1    1    2    0    0 -0.35452016983E+02 -0.18301663837E+02  0.77888060261E+02  0.11885100880E+03  0.80419002446E+02 0.  1.
<mgrwt>
<rscale>  0 0.89772002E+02</rscale>
<asrwt>0</asrwt>
<pdfrwt beam="1">  1        2 0.10839948E+00 0.89772002E+02</pdfrwt>
<pdfrwt beam="2">  1       -2 0.36622934E-02 0.89772002E+02</pdfrwt>
<totfact> 0.12088093E+04</totfact>
</mgrwt>
</event>
<event>
 4    1  0.5074571E-001  0.9460315E+02  0.7546771E-02  0.1292072E+00
          2   -1    0    0  501    0  0.00000000000E+00  0.00000000000E+00  0.30033769121E+02  0.30033769121E+02  0.00000000000E+00 0. -1.
         -2   -1    0    0    0  501 -0.00000000000E+00 -0.00000000000E+00 -0.72223962544E+03  0.72223962544E+03  0.00000000000E+00 0.  1.
         24    1    1    2    0    0  0.45457937758E+02 -0.20398912820E+02 -0.57822003413E+02  0.11087443250E+03  0.80419002446E+02 0. -1.
        -24    1    1    2    0    0 -0.45457937758E+02  0.20398912820E+02 -0.63438385291E+03  0.64139896206E+03  0.80419002446E+02 0.  1.
<mgrwt>
<rscale>  0 0.94603148E+02</rscale>
<asrwt>0</asrwt>
<pdfrwt beam="1">  1        2 0.46205803E-02 0.94603148E+02</pdfrwt>
<pdfrwt beam="2">  1       -2 0.11111378E+00 0.94603148E+02</pdfrwt>
<totfact> 0.11074940E+03</totfact>
</mgrwt>
</event>
<event>
 4    1  0.5074571E-001  0.1085877E+03  0.7546771E-02  0.1263208E+00
          2   -1    0    0  501    0  0.00000000000E+00  0.00000000000E+00  0.33213115914E+02  0.33213115914E+02  0.00000000000E+00 0. -1.
         -2   -1    0    0    0  501 -0.00000000000E+00 -0.00000000000E+00 -0.38972384308E+03  0.38972384308E+03  0.00000000000E+00 0.  1.
         24    1    1    2    0    0  0.39692700352E+01  0.72858192407E+02 -0.11515059399E+03  0.15827490817E+03  0.80419002446E+02 0. -1.
        -24    1    1    2    0    0 -0.39692700352E+01 -0.72858192407E+02 -0.24136013317E+03  0.26466205082E+03  0.80419002446E+02 0.  1.
<mgrwt>
<rscale>  0 0.10858769E+03</rscale>
<asrwt>0</asrwt>
<pdfrwt beam="1">  1        2 0.51097102E-02 0.10858769E+03</pdfrwt>
<pdfrwt beam="2">  1       -2 0.59957513E-01 0.10858769E+03</pdfrwt>
<totfact> 0.37869488E+03</totfact>
</mgrwt>
</event>
<event>
 4    1  0.5074571E-001  0.9345698E+02  0.7546771E-02  0.1294690E+00
          1   -1    0    0  501    0  0.00000000000E+00  0.00000000000E+00  0.91159613396E+02  0.91159613396E+02  0.00000000000E+00 0. -1.
         -1   -1    0    0    0  501 -0.00000000000E+00 -0.00000000000E+00 -0.17145012602E+03  0.17145012602E+03  0.00000000000E+00 0.  1.
         24    1    1    2    0    0  0.20398632937E+02  0.43021926645E+02 -0.12735833801E+03  0.15796946734E+03  0.80419002446E+02 0.  1.
        -24    1    1    2    0    0 -0.20398632937E+02 -0.43021926645E+02  0.47067825387E+02  0.10464027207E+03  0.80419002446E+02 0. -1.
<mgrwt>
<rscale>  0 0.93456976E+02</rscale>
<asrwt>0</asrwt>
<pdfrwt beam="1">  1        1 0.14024556E-01 0.93456976E+02</pdfrwt>
<pdfrwt beam="2">  1       -1 0.26376942E-01 0.93456976E+02</pdfrwt>
<totfact> 0.48218290E+03</totfact>
</mgrwt>
</event>
<event>
 4    1  0.5074571E-001  0.2137578E+03  0.7546771E-02  0.1138624E+00
         -1   -1    0    0    0  501 -0.00000000000E+00  0.00000000000E+00  0.22883691961E+03  0.22883691961E+03  0.00000000000E+00 0.  1.
          1   -1    0    0  501    0  0.00000000000E+00 -0.00000000000E+00 -0.24030776058E+03  0.24030776058E+03  0.00000000000E+00 0. -1.
         24    1    1    2    0    0  0.15741044253E+03 -0.12019626592E+03  0.90724127730E+02  0.23221385201E+03  0.80419002446E+02 0.  1.
        -24    1    1    2    0    0 -0.15741044253E+03  0.12019626592E+03 -0.10219496870E+03  0.23693082818E+03  0.80419002446E+02 0.  0.
<mgrwt>
<rscale>  0 0.21375782E+03</rscale>
<asrwt>0</asrwt>
<pdfrwt beam="1">  1        1 0.36970424E-01 0.21375782E+03</pdfrwt>
<pdfrwt beam="2">  1       -1 0.35205680E-01 0.21375782E+03</pdfrwt>
<totfact> 0.89865168E+02</totfact>
</mgrwt>
</event>
<event>
 4    1  0.5074571E-001  0.1173353E+03  0.7546771E-02  0.1247559E+00
          1   -1    0    0  501    0  0.00000000000E+00  0.00000000000E+00  0.92526718074E+03  0.92526718074E+03  0.00000000000E+00 0. -1.
         -1   -1    0    0    0  501 -0.00000000000E+00 -0.00000000000E+00 -0.33659048801E+02  0.33659048801E+02  0.00000000000E+00 0.  1.
         24    1    1    2    0    0 -0.81630616844E+02 -0.25235094658E+02  0.87669715617E+02  0.14647034717E+03  0.80419002446E+02 0.  1.
        -24    1    1    2    0    0  0.81630616844E+02  0.25235094658E+02  0.80393841632E+03  0.81245588237E+03  0.80419002446E+02 0. -1.
<mgrwt>
<rscale>  0 0.11733535E+03</rscale>
<asrwt>0</asrwt>
<pdfrwt beam="1">  1        1 0.14234878E+00 0.11733535E+03</pdfrwt>
<pdfrwt beam="2">  1       -1 0.51783159E-02 0.11733535E+03</pdfrwt>
<totfact> 0.29821618E+03</totfact>
</mgrwt>
</event>
<event>
 4    1  0.5074571E-001  0.8271238E+02  0.7546771E-02  0.1321526E+00
          1   -1    0    0  501    0  0.00000000000E+00  0.00000000000E+00  0.52781171431E+03  0.52781171431E+03  0.00000000000E+00 0. -1.
         -1   -1    0    0    0  501 -0.00000000000E+00 -0.00000000000E+00 -0.16236071976E+02  0.16236071976E+02  0.00000000000E+00 0.  1.
         24    1    1    2    0    0  0.13988367583E+02  0.13358398932E+02  0.13362738862E+03  0.15715475237E+03  0.80419002446E+02 0.  0.
        -24    1    1    2    0    0 -0.13988367583E+02 -0.13358398932E+02  0.37794825372E+03  0.38689303392E+03  0.80419002446E+02 0. -1.
<mgrwt>
<rscale>  0 0.82712376E+02</rscale>
<asrwt>0</asrwt>
<pdfrwt beam="1">  1        1 0.81201789E-01 0.82712376E+02</pdfrwt>
<pdfrwt beam="2">  1       -1 0.24978576E-02 0.82712376E+02</pdfrwt>
<totfact> 0.18666485E+04</totfact>
</mgrwt>
</event>
<event>
 4    1  0.5074571E-001  0.8650841E+02  0.7546771E-02  0.1311534E+00
         -2   -1    0    0    0  501 -0.00000000000E+00  0.00000000000E+00  0.60462524164E+03  0.60462524164E+03  0.00000000000E+00 0.  1.
          2   -1    0    0  501    0  0.00000000000E+00 -0.00000000000E+00 -0.41525548822E+02  0.41525548822E+02  0.00000000000E+00 0. -1.
         24    1    1    2    0    0  0.26132187855E+02 -0.18264642081E+02  0.10872763632E+02  0.87188997791E+02  0.80419002446E+02 0. -1.
        -24    1    1    2    0    0 -0.26132187855E+02  0.18264642081E+02  0.55222692919E+03  0.55896179267E+03  0.80419002446E+02 0.  1.
<mgrwt>
<rscale>  0 0.86508406E+02</rscale>
<asrwt>0</asrwt>
<pdfrwt beam="1">  1        2 0.63885464E-02 0.86508406E+02</pdfrwt>
<pdfrwt beam="2">  1       -2 0.93019262E-01 0.86508406E+02</pdfrwt>
<totfact> 0.10934733E+03</totfact>
</mgrwt>
</event>
<event>
 4    1  0.5074571E-001  0.8349938E+02  0.7546771E-02  0.1319404E+00
         -1   -1    0    0    0  501 -0.00000000000E+00  0.00000000000E+00  0.13413554917E+02  0.13413554917E+02  0.00000000000E+00 0.  1.
          1   -1    0    0  501    0  0.00000000000E+00 -0.00000000000E+00 -0.57577188762E+03  0.57577188762E+03  0.00000000000E+00 0. -1.
         24    1    1    2    0    0  0.12794901602E+02  0.18472151291E+02 -0.18931515938E+03  0.20691151589E+03  0.80419002446E+02 0.  1.
        -24    1    1    2    0    0 -0.12794901602E+02 -0.18472151291E+02 -0.37304317332E+03  0.38227392665E+03  0.80419002446E+02 0. -1.
<mgrwt>
<rscale>  0 0.83499376E+02</rscale>
<asrwt>0</asrwt>
<pdfrwt beam="1">  1        1 0.88580306E-01 0.83499376E+02</pdfrwt>
<pdfrwt beam="2">  1       -1 0.20636235E-02 0.83499376E+02</pdfrwt>
<totfact> 0.21901794E+04</totfact>
</mgrwt>
</event>
<event>
 4    1  0.5074571E-001  0.9637328E+02  0.7546771E-02  0.1288113E+00
         -4   -1    0    0    0  501 -0.00000000000E+00  0.00000000000E+00  0.20289045097E+02  0.20289045097E+02  0.00000000000E+00 0.  1.
          4   -1    0    0  501    0  0.00000000000E+00 -0.00000000000E+00 -0.59474918011E+03  0.59474918011E+03  0.00000000000E+00 0. -1.
         24    1    1    2    0    0  0.47454024255E+02 -0.23847630316E+02 -0.43480926657E+03  0.44536154767E+03  0.80419002446E+02 0. -1.
        -24    1    1    2    0    0 -0.47454024255E+02  0.23847630316E+02 -0.13965086844E+03  0.16967667753E+03  0.80419002446E+02 0.  1.
<mgrwt>
<rscale>  0 0.96373284E+02</rscale>
<asrwt>0</asrwt>
<pdfrwt beam="1">  1        4 0.91499882E-01 0.96373284E+02</pdfrwt>
<pdfrwt beam="2">  1       -4 0.31213913E-02 0.96373284E+02</pdfrwt>
<totfact> 0.81735684E+02</totfact>
</mgrwt>
</event>
<event>
 4    1  0.5074571E-001  0.8530736E+02  0.7546771E-02  0.1314631E+00
         -3   -1    0    0    0  501 -0.00000000000E+00  0.00000000000E+00  0.11808200557E+03  0.11808200557E+03  0.00000000000E+00 0.  1.
          3   -1    0    0  501    0  0.00000000000E+00 -0.00000000000E+00 -0.19706074408E+03  0.19706074408E+03  0.00000000000E+00 0. -1.
         24    1    1    2    0    0  0.24453682268E+02 -0.14565262313E+02  0.91138714920E+02  0.12483433324E+03  0.80419002446E+02 0.  1.
        -24    1    1    2    0    0 -0.24453682268E+02  0.14565262313E+02 -0.17011745343E+03  0.19030841642E+03  0.80419002446E+02 0. -1.
<mgrwt>
<rscale>  0 0.85307358E+02</rscale>
<asrwt>0</asrwt>
<pdfrwt beam="1">  1        3 0.30317037E-01 0.85307358E+02</pdfrwt>
<pdfrwt beam="2">  1       -3 0.18166463E-01 0.85307358E+02</pdfrwt>
<totfact> 0.60100669E+02</totfact>
</mgrwt>
</event>
<event>
 4    1  0.5074571E-001  0.1071690E+03  0.7546771E-02  0.1265904E+00
         -1   -1    0    0    0  501 -0.00000000000E+00  0.00000000000E+00  0.44098889576E+02  0.44098889576E+02  0.00000000000E+00 0.  1.
          1   -1    0    0  501    0  0.00000000000E+00 -0.00000000000E+00 -0.26124295242E+03  0.26124295242E+03  0.00000000000E+00 0. -1.
         24    1    1    2    0    0 -0.22469807945E+02 -0.67179501712E+02 -0.10011739932E+03  0.14665840351E+03  0.80419002446E+02 0.  1.
        -24    1    1    2    0    0  0.22469807945E+02  0.67179501712E+02 -0.11702666352E+03  0.15868343848E+03  0.80419002446E+02 0. -1.
<mgrwt>
<rscale>  0 0.10716900E+03</rscale>
<asrwt>0</asrwt>
<pdfrwt beam="1">  1        1 0.40191225E-01 0.10716900E+03</pdfrwt>
<pdfrwt beam="2">  1       -1 0.67844443E-02 0.10716900E+03</pdfrwt>
<totfact> 0.10706273E+04</totfact>
</mgrwt>
</event>
<event>
 4    1  0.5074571E-001  0.9327727E+02  0.7546771E-02  0.1295104E+00
          3   -1    0    0  501    0  0.00000000000E+00  0.00000000000E+00  0.10454501353E+04  0.10454501353E+04  0.00000000000E+00 0. -1.
         -3   -1    0    0    0  501 -0.00000000000E+00 -0.00000000000E+00 -0.19158572727E+02  0.19158572727E+02  0.00000000000E+00 0.  1.
         24    1    1    2    0    0  0.37334440141E+02  0.28975373969E+02  0.11281728235E+03  0.14638438396E+03  0.80419002446E+02 0.  1.
        -24    1    1    2    0    0 -0.37334440141E+02 -0.28975373969E+02  0.91347428025E+03  0.91822432409E+03  0.80419002446E+02 0. -1.
<mgrwt>
<rscale>  0 0.93277268E+02</rscale>
<asrwt>0</asrwt>
<pdfrwt beam="1">  1        3 0.16083844E+00 0.93277268E+02</pdfrwt>
<pdfrwt beam="2">  1       -3 0.29474735E-02 0.93277268E+02</pdfrwt>
<totfact> 0.33381067E+02</totfact>
</mgrwt>
</event>
<event>
 4    1  0.5074571E-001  0.8323648E+02  0.7546771E-02  0.1320110E+00
          4   -1    0    0  501    0  0.00000000000E+00  0.00000000000E+00  0.66409550361E+02  0.66409550361E+02  0.00000000000E+00 0. -1.
         -4   -1    0    0    0  501 -0.00000000000E+00 -0.00000000000E+00 -0.24490055503E+03  0.24490055503E+03  0.00000000000E+00 0.  1.
         24    1    1    2    0    0 -0.35980527570E+01  0.21169548361E+02  0.28683355603E+02  0.88040028422E+02  0.80419002446E+02 0. -1.
        -24    1    1    2    0    0  0.35980527570E+01 -0.21169548361E+02 -0.20717436027E+03  0.22327007697E+03  0.80419002446E+02 0.  0.
<mgrwt>
<rscale>  0 0.83236481E+02</rscale>
<asrwt>0</asrwt>
<pdfrwt beam="1">  1        4 0.10216854E-01 0.83236481E+02</pdfrwt>
<pdfrwt beam="2">  1       -4 0.37677008E-01 0.83236481E+02</pdfrwt>
<totfact> 0.74116823E+02</totfact>
</mgrwt>
</event>
<event>
 4    1  0.5074571E-001  0.8988044E+02  0.7546771E-02  0.1303141E+00
         -2   -1    0    0    0  501 -0.00000000000E+00  0.00000000000E+00  0.19869446468E+02  0.19869446468E+02  0.00000000000E+00 0.  1.
          2   -1    0    0  501    0  0.00000000000E+00 -0.00000000000E+00 -0.73489318777E+03  0.73489318777E+03  0.00000000000E+00 0. -1.
         24    1    1    2    0    0 -0.11393613920E+02  0.38489782757E+02 -0.60975149274E+03  0.61634030913E+03  0.80419002446E+02 0. -1.
        -24    1    1    2    0    0  0.11393613920E+02 -0.38489782757E+02 -0.10527224857E+03  0.13842232510E+03  0.80419002446E+02 0.  1.
<mgrwt>
<rscale>  0 0.89880442E+02</rscale>
<asrwt>0</asrwt>
<pdfrwt beam="1">  1        2 0.11306047E+00 0.89880442E+02</pdfrwt>
<pdfrwt beam="2">  1       -2 0.30568384E-02 0.89880442E+02</pdfrwt>
<totfact> 0.14977118E+04</totfact>
</mgrwt>
</event>
<event>
 4    1  0.5074571E-001  0.1556154E+03  0.7546771E-02  0.1193738E+00
         -1   -1    0    0    0  501 -0.00000000000E+00  0.00000000000E+00  0.32649125218E+02  0.32649125218E+02  0.00000000000E+00 0.  1.
          1   -1    0    0  501    0  0.00000000000E+00 -0.00000000000E+00 -0.80421814028E+03  0.80421814028E+03  0.00000000000E+00 0. -1.
         24    1    1    2    0    0 -0.42577259749E+01  0.13315702573E+03 -0.26912699082E+03  0.31087855325E+03  0.80419002446E+02 0.  1.
        -24    1    1    2    0    0  0.42577259749E+01 -0.13315702573E+03 -0.50244202424E+03  0.52598871225E+03  0.80419002446E+02 0. -1.
<mgrwt>
<rscale>  0 0.15561535E+03</rscale>
<asrwt>0</asrwt>
<pdfrwt beam="1">  1        1 0.12372586E+00 0.15561535E+03</pdfrwt>
<pdfrwt beam="2">  1       -1 0.50229425E-02 0.15561535E+03</pdfrwt>
<totfact> 0.39189133E+03</totfact>
</mgrwt>
</event>
<event>
 4    1  0.5074571E-001  0.8057792E+02  0.7546771E-02  0.1327419E+00
         -2   -1    0    0    0  501 -0.00000000000E+00  0.00000000000E+00  0.17471986206E+02  0.17471986206E+02  0.00000000000E+00 0.  1.
          2   -1    0    0  501    0  0.00000000000E+00 -0.00000000000E+00 -0.39559201378E+03  0.39559201378E+03  0.00000000000E+00 0. -1.
         24    1    1    2    0    0  0.45927825287E+01 -0.21193296352E+01 -0.23990961696E+03  0.25307987963E+03  0.80419002446E+02 0. -1.
        -24    1    1    2    0    0 -0.45927825287E+01  0.21193296352E+01 -0.13821041062E+03  0.15998412036E+03  0.80419002446E+02 0.  1.
<mgrwt>
<rscale>  0 0.80577920E+02</rscale>
<asrwt>0</asrwt>
<pdfrwt beam="1">  1        2 0.60860307E-01 0.80577920E+02</pdfrwt>
<pdfrwt beam="2">  1       -2 0.26879980E-02 0.80577920E+02</pdfrwt>
<totfact> 0.35245035E+04</totfact>
</mgrwt>
</event>
<event>
 4    1  0.5074571E-001  0.8103000E+02  0.7546771E-02  0.1326154E+00
         -2   -1    0    0    0  501 -0.00000000000E+00  0.00000000000E+00  0.41962834739E+02  0.41962834739E+02  0.00000000000E+00 0.  1.
          2   -1    0    0  501    0  0.00000000000E+00 -0.00000000000E+00 -0.33405597428E+03  0.33405597428E+03  0.00000000000E+00 0. -1.
         24    1    1    2    0    0  0.88475891568E+01 -0.45127447574E+01 -0.28312721855E+03  0.29449428269E+03  0.80419002446E+02 0. -1.
        -24    1    1    2    0    0 -0.88475891568E+01  0.45127447574E+01 -0.89659209889E+01  0.81524526326E+02  0.80419002446E+02 0.  0.
<mgrwt>
<rscale>  0 0.81029998E+02</rscale>
<asrwt>0</asrwt>
<pdfrwt beam="1">  1        2 0.51393228E-01 0.81029998E+02</pdfrwt>
<pdfrwt beam="2">  1       -2 0.64558206E-02 0.81029998E+02</pdfrwt>
<totfact> 0.11608395E+04</totfact>
</mgrwt>
</event>
<event>
 4    1  0.5074571E-001  0.1234944E+03  0.7546771E-02  0.1237441E+00
          1   -1    0    0  501    0  0.00000000000E+00  0.00000000000E+00  0.18709416866E+04  0.18709416866E+04  0.00000000000E+00 0. -1.
         -1   -1    0    0    0  501 -0.00000000000E+00 -0.00000000000E+00 -0.89488204684E+01  0.89488204684E+01  0.00000000000E+00 0.  1.
         24    1    1    2    0    0  0.62058195616E+02  0.70231220793E+02  0.12115745254E+04  0.12178520807E+04  0.80419002446E+02 0. -1.
        -24    1    1    2    0    0 -0.62058195616E+02 -0.70231220793E+02  0.65041834073E+03  0.66203842633E+03  0.80419002446E+02 0.  1.
<mgrwt>
<rscale>  0 0.12349439E+03</rscale>
<asrwt>0</asrwt>
<pdfrwt beam="1">  1        1 0.28783687E+00 0.12349440E+03</pdfrwt>
<pdfrwt beam="2">  1       -1 0.13767431E-02 0.12349440E+03</pdfrwt>
<totfact> 0.47706318E+03</totfact>
</mgrwt>
</event>
<event>
 4    1  0.5074571E-001  0.8829056E+02  0.7546771E-02  0.1307045E+00
         -1   -1    0    0    0  501 -0.00000000000E+00  0.00000000000E+00  0.88405216449E+03  0.88405216449E+03  0.00000000000E+00 0.  1.
          1   -1    0    0  501    0  0.00000000000E+00 -0.00000000000E+00 -0.29360733459E+02  0.29360733459E+02  0.00000000000E+00 0. -1.
         24    1    1    2    0    0 -0.29581171457E+02 -0.21282875830E+02  0.80936649704E+03  0.81416788747E+03  0.80419002446E+02 0.  1.
        -24    1    1    2    0    0  0.29581171457E+02  0.21282875830E+02  0.45324933991E+02  0.99245010474E+02  0.80419002446E+02 0. -1.
<mgrwt>
<rscale>  0 0.88290557E+02</rscale>
<asrwt>0</asrwt>
<pdfrwt beam="1">  1        1 0.45170366E-02 0.88290557E+02</pdfrwt>
<pdfrwt beam="2">  1       -1 0.13600800E+00 0.88290557E+02</pdfrwt>
<totfact> 0.90535632E+02</totfact>
</mgrwt>
</event>
<event>
 4    1  0.5074571E-001  0.1994170E+03  0.7546771E-02  0.1150232E+00
          1   -1    0    0  501    0  0.00000000000E+00  0.00000000000E+00  0.29413215371E+03  0.29413215371E+03  0.00000000000E+00 0. -1.
         -1   -1    0    0    0  501 -0.00000000000E+00 -0.00000000000E+00 -0.15267066423E+03  0.15267066423E+03  0.00000000000E+00 0.  1.
         24    1    1    2    0    0 -0.14607633793E+03  0.10936915441E+03  0.14629971380E+03  0.24732717330E+03  0.80419002446E+02 0. -1.
        -24    1    1    2    0    0  0.14607633793E+03 -0.10936915441E+03 -0.48382243220E+01  0.19947564465E+03  0.80419002446E+02 0.  1.
<mgrwt>
<rscale>  0 0.19941699E+03</rscale>
<asrwt>0</asrwt>
<pdfrwt beam="1">  1        1 0.45251100E-01 0.19941701E+03</pdfrwt>
<pdfrwt beam="2">  1       -1 0.23487795E-01 0.19941701E+03</pdfrwt>
<totfact> 0.13809661E+03</totfact>
</mgrwt>
</event>
<event>
 4    1  0.5074571E-001  0.8602304E+02  0.7546771E-02  0.1312779E+00
          2   -1    0    0  501    0  0.00000000000E+00  0.00000000000E+00  0.81367886803E+03  0.81367886803E+03  0.00000000000E+00 0. -1.
         -2   -1    0    0    0  501 -0.00000000000E+00 -0.00000000000E+00 -0.97289762919E+02  0.97289762919E+02  0.00000000000E+00 0.  1.
         24    1    1    2    0    0  0.27588281474E+02  0.13100922861E+02  0.79186776992E+03  0.79652653970E+03  0.80419002446E+02 0. -1.
        -24    1    1    2    0    0 -0.27588281474E+02 -0.13100922861E+02 -0.75478664807E+02  0.11444209125E+03  0.80419002446E+02 0.  1.
<mgrwt>
<rscale>  0 0.86023040E+02</rscale>
<asrwt>0</asrwt>
<pdfrwt beam="1">  1        2 0.12518136E+00 0.86023040E+02</pdfrwt>
<pdfrwt beam="2">  1       -2 0.14967656E-01 0.86023040E+02</pdfrwt>
<totfact> 0.11854869E+03</totfact>
</mgrwt>
</event>
<event>
 4    1  0.5074571E-001  0.8395676E+02  0.7546771E-02  0.1318184E+00
          2   -1    0    0  501    0  0.00000000000E+00  0.00000000000E+00  0.69374817808E+03  0.69374817808E+03  0.00000000000E+00 0. -1.
         -2   -1    0    0    0  501 -0.00000000000E+00 -0.00000000000E+00 -0.10160389808E+02  0.10160389808E+02  0.00000000000E+00 0.  1.
         24    1    1    2    0    0 -0.15454062891E+02 -0.18511865873E+02  0.34122024629E+03  0.35139719644E+03  0.80419002446E+02 0.  1.
        -24    1    1    2    0    0  0.15454062891E+02  0.18511865873E+02  0.34236754198E+03  0.35251137144E+03  0.80419002446E+02 0.  0.
<mgrwt>
<rscale>  0 0.83956745E+02</rscale>
<asrwt>0</asrwt>
<pdfrwt beam="1">  1        2 0.10673045E+00 0.83956755E+02</pdfrwt>
<pdfrwt beam="2">  1       -2 0.15631374E-02 0.83956755E+02</pdfrwt>
<totfact> 0.41756984E+04</totfact>
</mgrwt>
</event>
<event>
 4    1  0.5074571E-001  0.9780599E+02  0.7546771E-02  0.1284978E+00
         -1   -1    0    0    0  501 -0.00000000000E+00  0.00000000000E+00  0.58973755384E+01  0.58973755384E+01  0.00000000000E+00 0.  1.
          1   -1    0    0  501    0  0.00000000000E+00 -0.00000000000E+00 -0.24768434920E+04  0.24768434920E+04  0.00000000000E+00 0. -1.
         24    1    1    2    0    0 -0.50832929677E+01 -0.55434239430E+02 -0.50622500619E+03  0.51558681870E+03  0.80419002446E+02 0.  1.
        -24    1    1    2    0    0  0.50832929677E+01  0.55434239430E+02 -0.19647211102E+04  0.19671540488E+04  0.80419002446E+02 0. -1.
<mgrwt>
<rscale>  0 0.97805985E+02</rscale>
<asrwt>0</asrwt>
<pdfrwt beam="1">  1        1 0.38105328E+00 0.97805985E+02</pdfrwt>
<pdfrwt beam="2">  1       -1 0.90728752E-03 0.97805985E+02</pdfrwt>
<totfact> 0.35358391E+03</totfact>
</mgrwt>
</event>
<event>
 4    1  0.5074571E-001  0.8093470E+02  0.7546771E-02  0.1326420E+00
         -2   -1    0    0    0  501 -0.00000000000E+00  0.00000000000E+00  0.60244711539E+02  0.60244711539E+02  0.00000000000E+00 0.  1.
          2   -1    0    0  501    0  0.00000000000E+00 -0.00000000000E+00 -0.15637570131E+03  0.15637570131E+03  0.00000000000E+00 0. -1.
         24    1    1    2    0    0  0.87644326866E+01  0.25287252148E+01 -0.10785090784E+03  0.13484155149E+03  0.80419002446E+02 0.  1.
        -24    1    1    2    0    0 -0.87644326866E+01 -0.25287252148E+01  0.11719918070E+02  0.81778861361E+02  0.80419002446E+02 0.  1.
<mgrwt>
<rscale>  0 0.80934700E+02</rscale>
<asrwt>0</asrwt>
<pdfrwt beam="1">  1        2 0.24057800E-01 0.80934700E+02</pdfrwt>
<pdfrwt beam="2">  1       -2 0.92684172E-02 0.80934700E+02</pdfrwt>
<totfact> 0.14934258E+04</totfact>
</mgrwt>
</event>
<event>
 4    1  0.5074571E-001  0.8874146E+02  0.7546771E-02  0.1305928E+00
          1   -1    0    0  501    0  0.00000000000E+00  0.00000000000E+00  0.18147503333E+02  0.18147503333E+02  0.00000000000E+00 0. -1.
         -1   -1    0    0    0  501 -0.00000000000E+00 -0.00000000000E+00 -0.60550738396E+03  0.60550738396E+03  0.00000000000E+00 0.  1.
         24    1    1    2    0    0 -0.55576940701E+01  0.37107172006E+02 -0.45966297860E+03  0.46815072362E+03  0.80419002446E+02 0.  1.
        -24    1    1    2    0    0  0.55576940701E+01 -0.37107172006E+02 -0.12769690203E+03  0.15550416367E+03  0.80419002446E+02 0. -1.
<mgrwt>
<rscale>  0 0.88741457E+02</rscale>
<asrwt>0</asrwt>
<pdfrwt beam="1">  1        1 0.27919238E-02 0.88741457E+02</pdfrwt>
<pdfrwt beam="2">  1       -1 0.93154976E-01 0.88741457E+02</pdfrwt>
<totfact> 0.41259963E+03</totfact>
</mgrwt>
</event>
<event>
 4    1  0.5074571E-001  0.8323134E+02  0.7546771E-02  0.1320124E+00
         -2   -1    0    0    0  501 -0.00000000000E+00  0.00000000000E+00  0.22553699995E+03  0.22553699995E+03  0.00000000000E+00 0.  1.
          2   -1    0    0  501    0  0.00000000000E+00 -0.00000000000E+00 -0.49975613478E+02  0.49975613478E+02  0.00000000000E+00 0. -1.
         24    1    1    2    0    0 -0.13423344506E+02 -0.16734802220E+02  0.22615889601E+01  0.83262059319E+02  0.80419002446E+02 0.  0.
        -24    1    1    2    0    0  0.13423344506E+02  0.16734802220E+02  0.17329979752E+03  0.19225055411E+03  0.80419002446E+02 0.  0.
<mgrwt>
<rscale>  0 0.83231339E+02</rscale>
<asrwt>0</asrwt>
<pdfrwt beam="1">  1        2 0.76885560E-02 0.83231339E+02</pdfrwt>
<pdfrwt beam="2">  1       -2 0.34697999E-01 0.83231339E+02</pdfrwt>
<totfact> 0.63322781E+03</totfact>
</mgrwt>
</event>
<event>
 4    1  0.5074571E-001  0.1095299E+03  0.7546771E-02  0.1261443E+00
          1   -1    0    0  501    0  0.00000000000E+00  0.00000000000E+00  0.58201813222E+02  0.58201813222E+02  0.00000000000E+00 0. -1.
         -1   -1    0    0    0  501 -0.00000000000E+00 -0.00000000000E+00 -0.22499869714E+03  0.22499869714E+03  0.00000000000E+00 0.  1.
         24    1    1    2    0    0 -0.55109055168E+02  0.49925638727E+02 -0.12441068125E+03  0.16575527421E+03  0.80419002446E+02 0.  1.
        -24    1    1    2    0    0  0.55109055168E+02 -0.49925638727E+02 -0.42386202663E+02  0.11744523615E+03  0.80419002446E+02 0. -1.
<mgrwt>
<rscale>  0 0.10952987E+03</rscale>
<asrwt>0</asrwt>
<pdfrwt beam="1">  1        1 0.89541251E-02 0.10952987E+03</pdfrwt>
<pdfrwt beam="2">  1       -1 0.34615184E-01 0.10952987E+03</pdfrwt>
<totfact> 0.55683986E+03</totfact>
</mgrwt>
</event>
<event>
 4    1  0.5074571E-001  0.8481739E+02  0.7546771E-02  0.1315911E+00
          2   -1    0    0  501    0  0.00000000000E+00  0.00000000000E+00  0.29329429993E+04  0.29329429993E+04  0.00000000000E+00 0. -1.
         -2   -1    0    0    0  501 -0.00000000000E+00 -0.00000000000E+00 -0.55106027308E+01  0.55106027308E+01  0.00000000000E+00 0.  1.
         24    1    1    2    0    0 -0.15731163501E+02  0.21892929166E+02  0.36927485157E+03  0.37889035592E+03  0.80419002446E+02 0.  0.
        -24    1    1    2    0    0  0.15731163501E+02 -0.21892929166E+02  0.25581575450E+04  0.25595632461E+04  0.80419002446E+02 0. -1.
<mgrwt>
<rscale>  0 0.84817378E+02</rscale>
<asrwt>0</asrwt>
<pdfrwt beam="1">  1        2 0.45122075E+00 0.84817389E+02</pdfrwt>
<pdfrwt beam="2">  1       -2 0.84778738E-03 0.84817389E+02</pdfrwt>
<totfact> 0.61857920E+03</totfact>
</mgrwt>
</event>
<event>
 4    1  0.5074571E-001  0.1387189E+03  0.7546771E-02  0.1215063E+00
          2   -1    0    0  501    0  0.00000000000E+00  0.00000000000E+00  0.97650305663E+03  0.97650305663E+03  0.00000000000E+00 0. -1.
         -2   -1    0    0    0  501 -0.00000000000E+00 -0.00000000000E+00 -0.19773112032E+02  0.19773112032E+02  0.00000000000E+00 0.  1.
         24    1    1    2    0    0  0.67986936911E+02 -0.90296578385E+02  0.44933121334E+03  0.47025679250E+03  0.80419002446E+02 0.  0.
        -24    1    1    2    0    0 -0.67986936911E+02  0.90296578385E+02  0.50739873126E+03  0.52601937616E+03  0.80419002446E+02 0.  0.
<mgrwt>
<rscale>  0 0.13871884E+03</rscale>
<asrwt>0</asrwt>
<pdfrwt beam="1">  1        2 0.15023120E+00 0.13871886E+03</pdfrwt>
<pdfrwt beam="2">  1       -2 0.30420180E-02 0.13871886E+03</pdfrwt>
<totfact> 0.10856306E+04</totfact>
</mgrwt>
</event>
<event>
 4    1  0.5074571E-001  0.8060413E+02  0.7546771E-02  0.1327346E+00
          2   -1    0    0  501    0  0.00000000000E+00  0.00000000000E+00  0.23811801982E+03  0.23811801982E+03  0.00000000000E+00 0. -1.
         -2   -1    0    0    0  501 -0.00000000000E+00 -0.00000000000E+00 -0.32703696551E+02  0.32703696551E+02  0.00000000000E+00 0.  1.
         24    1    1    2    0    0 -0.35316569226E+01 -0.41637276907E+01  0.15782684182E+03  0.17721833196E+03  0.80419002446E+02 0.  0.
        -24    1    1    2    0    0  0.35316569226E+01  0.41637276907E+01  0.47587481454E+02  0.93603384418E+02  0.80419002446E+02 0.  1.
<mgrwt>
<rscale>  0 0.80604126E+02</rscale>
<asrwt>0</asrwt>
<pdfrwt beam="1">  1        2 0.36633540E-01 0.80604126E+02</pdfrwt>
<pdfrwt beam="2">  1       -2 0.50313381E-02 0.80604126E+02</pdfrwt>
<totfact> 0.23948340E+04</totfact>
</mgrwt>
</event>
<event>
 4    1  0.5074571E-001  0.8632691E+02  0.7546771E-02  0.1311999E+00
          2   -1    0    0  501    0  0.00000000000E+00  0.00000000000E+00  0.15938134163E+04  0.15938134163E+04  0.00000000000E+00 0. -1.
         -2   -1    0    0    0  501 -0.00000000000E+00 -0.00000000000E+00 -0.72954641412E+01  0.72954641412E+01  0.00000000000E+00 0.  1.
         24    1    1    2    0    0 -0.33988404122E+01 -0.31202049710E+02  0.12729792669E+04  0.12759030331E+04  0.80419002446E+02 0. -1.
        -24    1    1    2    0    0  0.33988404122E+01  0.31202049710E+02  0.31353868530E+03  0.32520584736E+03  0.80419002446E+02 0.  1.
<mgrwt>
<rscale>  0 0.86326913E+02</rscale>
<asrwt>0</asrwt>
<pdfrwt beam="1">  1        2 0.24520179E+00 0.86326913E+02</pdfrwt>
<pdfrwt beam="2">  1       -2 0.11223804E-02 0.86326913E+02</pdfrwt>
<totfact> 0.20528720E+04</totfact>
</mgrwt>
</event>
<event>
 4    1  0.5074571E-001  0.8265231E+02  0.7546771E-02  0.1321689E+00
         -2   -1    0    0    0  501 -0.00000000000E+00  0.00000000000E+00  0.75364241926E+01  0.75364241926E+01  0.00000000000E+00 0.  1.
          2   -1    0    0  501    0  0.00000000000E+00 -0.00000000000E+00 -0.97361358987E+03  0.97361358987E+03  0.00000000000E+00 0. -1.
         24    1    1    2    0    0 -0.95264944144E+01  0.16535866829E+02 -0.61188530623E+03  0.61744233165E+03  0.80419002446E+02 0. -1.
        -24    1    1    2    0    0  0.95264944144E+01 -0.16535866829E+02 -0.35419185945E+03  0.36370768241E+03  0.80419002446E+02 0.  1.
<mgrwt>
<rscale>  0 0.82652314E+02</rscale>
<asrwt>0</asrwt>
<pdfrwt beam="1">  1        2 0.14978668E+00 0.82652314E+02</pdfrwt>
<pdfrwt beam="2">  1       -2 0.11594501E-02 0.82652314E+02</pdfrwt>
<totfact> 0.41937482E+04</totfact>
</mgrwt>
</event>
<event>
 4    1  0.5074571E-001  0.1525512E+03  0.7546771E-02  0.1197373E+00
         -2   -1    0    0    0  501 -0.00000000000E+00  0.00000000000E+00  0.20301624347E+02  0.20301624347E+02  0.00000000000E+00 0.  1.
          2   -1    0    0  501    0  0.00000000000E+00 -0.00000000000E+00 -0.16501866538E+04  0.16501866538E+04  0.00000000000E+00 0. -1.
         24    1    1    2    0    0  0.71499290795E+02 -0.10813183074E+03 -0.12764843714E+04  0.12855676598E+04  0.80419002446E+02 0. -1.
        -24    1    1    2    0    0 -0.71499290795E+02  0.10813183074E+03 -0.35340065807E+03  0.38492061841E+03  0.80419002446E+02 0.  1.
<mgrwt>
<rscale>  0 0.15255116E+03</rscale>
<asrwt>0</asrwt>
<pdfrwt beam="1">  1        2 0.25387494E+00 0.15255116E+03</pdfrwt>
<pdfrwt beam="2">  1       -2 0.31233260E-02 0.15255116E+03</pdfrwt>
<totfact> 0.44913781E+03</totfact>
</mgrwt>
</event>
<event>
 4    1  0.5074571E-001  0.8596516E+02  0.7546771E-02  0.1312928E+00
         -1   -1    0    0    0  501 -0.00000000000E+00  0.00000000000E+00  0.23837121195E+02  0.23837121195E+02  0.00000000000E+00 0.  1.
          1   -1    0    0  501    0  0.00000000000E+00 -0.00000000000E+00 -0.80907947023E+03  0.80907947023E+03  0.00000000000E+00 0. -1.
         24    1    1    2    0    0  0.29930419573E+02 -0.51925150384E+01 -0.65542942387E+02  0.10810127418E+03  0.80419002446E+02 0.  1.
        -24    1    1    2    0    0 -0.29930419573E+02  0.51925150384E+01 -0.71969940665E+03  0.72481531725E+03  0.80419002446E+02 0. -1.
<mgrwt>
<rscale>  0 0.85965157E+02</rscale>
<asrwt>0</asrwt>
<pdfrwt beam="1">  1        1 0.12447374E+00 0.85965157E+02</pdfrwt>
<pdfrwt beam="2">  1       -1 0.36672500E-02 0.85965157E+02</pdfrwt>
<totfact> 0.59879255E+03</totfact>
</mgrwt>
</event>
<event>
 4    1  0.5074571E-001  0.8185597E+02  0.7546771E-02  0.1323865E+00
         -2   -1    0    0    0  501 -0.00000000000E+00  0.00000000000E+00  0.26079441790E+02  0.26079441790E+02  0.00000000000E+00 0.  1.
          2   -1    0    0  501    0  0.00000000000E+00 -0.00000000000E+00 -0.26413031710E+03  0.26413031710E+03  0.00000000000E+00 0. -1.
         24    1    1    2    0    0 -0.39491648994E+01 -0.14750862378E+02 -0.14299552787E+03  0.16476686799E+03  0.80419002446E+02 0.  0.
        -24    1    1    2    0    0  0.39491648994E+01  0.14750862378E+02 -0.95055347444E+02  0.12544289090E+03  0.80419002446E+02 0.  0.
<mgrwt>
<rscale>  0 0.81855970E+02</rscale>
<asrwt>0</asrwt>
<pdfrwt beam="1">  1        2 0.40635431E-01 0.81855970E+02</pdfrwt>
<pdfrwt beam="2">  1       -2 0.40122220E-02 0.81855970E+02</pdfrwt>
<totfact> 0.30044546E+04</totfact>
</mgrwt>
</event>
<event>
 4    1  0.5074571E-001  0.8241358E+02  0.7546771E-02  0.1322338E+00
          1   -1    0    0  501    0  0.00000000000E+00  0.00000000000E+00  0.12129949839E+04  0.12129949839E+04  0.00000000000E+00 0. -1.
         -1   -1    0    0    0  501 -0.00000000000E+00 -0.00000000000E+00 -0.71125129002E+01  0.71125129002E+01  0.00000000000E+00 0.  1.
         24    1    1    2    0    0  0.40800838572E+01  0.17553765831E+02  0.32155832307E+03  0.33195143150E+03  0.80419002446E+02 0.  1.
        -24    1    1    2    0    0 -0.40800838572E+01 -0.17553765831E+02  0.88432414792E+03  0.88815606530E+03  0.80419002446E+02 0.  0.
<mgrwt>
<rscale>  0 0.82413577E+02</rscale>
<asrwt>0</asrwt>
<pdfrwt beam="1">  1        1 0.18661445E+00 0.82413577E+02</pdfrwt>
<pdfrwt beam="2">  1       -1 0.10942337E-02 0.82413577E+02</pdfrwt>
<totfact> 0.17117240E+04</totfact>
</mgrwt>
</event>
<event>
 4    1  0.5074571E-001  0.1192606E+03  0.7546771E-02  0.1244322E+00
         -1   -1    0    0    0  501 -0.00000000000E+00  0.00000000000E+00  0.14894700370E+03  0.14894700370E+03  0.00000000000E+00 0.  1.
          1   -1    0    0  501    0  0.00000000000E+00 -0.00000000000E+00 -0.12814105171E+03  0.12814105171E+03  0.00000000000E+00 0. -1.
         24    1    1    2    0    0 -0.24888500548E+02 -0.84477407188E+02  0.80336621216E+02  0.14379519619E+03  0.80419002446E+02 0.  1.
        -24    1    1    2    0    0  0.24888500548E+02  0.84477407188E+02 -0.59530669225E+02  0.13329285921E+03  0.80419002446E+02 0. -1.
<mgrwt>
<rscale>  0 0.11926058E+03</rscale>
<asrwt>0</asrwt>
<pdfrwt beam="1">  1        1 0.19714008E-01 0.11926058E+03</pdfrwt>
<pdfrwt beam="2">  1       -1 0.22914924E-01 0.11926058E+03</pdfrwt>
<totfact> 0.39904057E+03</totfact>
</mgrwt>
</event>
<event>
 4    1  0.5074571E-001  0.8921984E+02  0.7546771E-02  0.1304752E+00
         -1   -1    0    0    0  501 -0.00000000000E+00  0.00000000000E+00  0.20240715207E+03  0.20240715207E+03  0.00000000000E+00 0.  1.
          1   -1    0    0  501    0  0.00000000000E+00 -0.00000000000E+00 -0.84853420719E+02  0.84853420719E+02  0.00000000000E+00 0. -1.
         24    1    1    2    0    0  0.30493180217E+02 -0.23730344999E+02  0.16398284786E+03  0.18668302992E+03  0.80419002446E+02 0.  1.
        -24    1    1    2    0    0 -0.30493180217E+02  0.23730344999E+02 -0.46429116516E+02  0.10057754286E+03  0.80419002446E+02 0. -1.
<mgrwt>
<rscale>  0 0.89219837E+02</rscale>
<asrwt>0</asrwt>
<pdfrwt beam="1">  1        1 0.13054372E-01 0.89219837E+02</pdfrwt>
<pdfrwt beam="2">  1       -1 0.31139562E-01 0.89219837E+02</pdfrwt>
<totfact> 0.40059127E+03</totfact>
</mgrwt>
</event>
<event>
 4    1  0.5074571E-001  0.9064567E+02  0.7546771E-02  0.1301296E+00
          2   -1    0    0  501    0  0.00000000000E+00  0.00000000000E+00  0.11228972086E+02  0.11228972086E+02  0.00000000000E+00 0. -1.
         -2   -1    0    0    0  501 -0.00000000000E+00 -0.00000000000E+00 -0.91825739729E+03  0.91825739729E+03  0.00000000000E+00 0.  1.
         24    1    1    2    0    0  0.41391983301E+02 -0.60104039024E+01 -0.24405678935E+03  0.26034660285E+03  0.80419002446E+02 0. -1.
        -24    1    1    2    0    0 -0.41391983301E+02  0.60104039024E+01 -0.66297163586E+03  0.66913976652E+03  0.80419002446E+02 0.  1.
<mgrwt>
<rscale>  0 0.90645668E+02</rscale>
<asrwt>0</asrwt>
<pdfrwt beam="1">  1        2 0.17275345E-02 0.90645668E+02</pdfrwt>
<pdfrwt beam="2">  1       -2 0.14127034E+00 0.90645668E+02</pdfrwt>
<totfact> 0.22901205E+03</totfact>
</mgrwt>
</event>
<event>
 4    1  0.5074571E-001  0.8461671E+02  0.7546771E-02  0.1316438E+00
         -2   -1    0    0    0  501 -0.00000000000E+00  0.00000000000E+00  0.97611474491E+01  0.97611474491E+01  0.00000000000E+00 0.  1.
          2   -1    0    0  501    0  0.00000000000E+00 -0.00000000000E+00 -0.11924412169E+04  0.11924412169E+04  0.00000000000E+00 0. -1.
         24    1    1    2    0    0 -0.11922017883E+01 -0.26293546443E+02 -0.96424536978E+03  0.96795099102E+03  0.80419002446E+02 0. -1.
        -24    1    1    2    0    0  0.11922017883E+01  0.26293546443E+02 -0.21843469967E+03  0.23425137333E+03  0.80419002446E+02 0.  1.
<mgrwt>
<rscale>  0 0.84616712E+02</rscale>
<asrwt>0</asrwt>
<pdfrwt beam="1">  1        2 0.18345237E+00 0.84616712E+02</pdfrwt>
<pdfrwt beam="2">  1       -2 0.15017160E-02 0.84616712E+02</pdfrwt>
<totfact> 0.21911224E+04</totfact>
</mgrwt>
</event>
<event>
 4    1  0.5074571E-001  0.8243479E+02  0.7546771E-02  0.1322281E+00
          1   -1    0    0  501    0  0.00000000000E+00  0.00000000000E+00  0.23325325174E+02  0.23325325174E+02  0.00000000000E+00 0. -1.
         -1   -1    0    0    0  501 -0.00000000000E+00 -0.00000000000E+00 -0.29170473053E+03  0.29170473053E+03  0.00000000000E+00 0.  1.
         24    1    1    2    0    0 -0.16585760936E+02  0.72929910878E+01 -0.12858434611E+03  0.15273973028E+03  0.80419002446E+02 0. -1.
        -24    1    1    2    0    0  0.16585760936E+02 -0.72929910878E+01 -0.13979505924E+03  0.16229032543E+03  0.80419002446E+02 0.  0.
<mgrwt>
<rscale>  0 0.82434779E+02</rscale>
<asrwt>0</asrwt>
<pdfrwt beam="1">  1        1 0.35885116E-02 0.82434790E+02</pdfrwt>
<pdfrwt beam="2">  1       -1 0.44877650E-01 0.82434790E+02</pdfrwt>
<totfact> 0.11831844E+04</totfact>
</mgrwt>
</event>
<event>
 4    1  0.5074571E-001  0.8352764E+02  0.7546771E-02  0.1319328E+00
         -2   -1    0    0    0  501 -0.00000000000E+00  0.00000000000E+00  0.64789957712E+01  0.64789957712E+01  0.00000000000E+00 0.  1.
          2   -1    0    0  501    0  0.00000000000E+00 -0.00000000000E+00 -0.11355631241E+04  0.11355631241E+04  0.00000000000E+00 0. -1.
         24    1    1    2    0    0  0.21547969661E+02 -0.67332177954E+01 -0.69439045837E+03  0.69939615087E+03  0.80419002446E+02 0.  1.
        -24    1    1    2    0    0 -0.21547969661E+02  0.67332177954E+01 -0.43469366994E+03  0.44264596898E+03  0.80419002446E+02 0. -1.
<mgrwt>
<rscale>  0 0.83527643E+02</rscale>
<asrwt>0</asrwt>
<pdfrwt beam="1">  1        2 0.17470183E+00 0.83527643E+02</pdfrwt>
<pdfrwt beam="2">  1       -2 0.99676967E-03 0.83527643E+02</pdfrwt>
<totfact> 0.42031613E+04</totfact>
</mgrwt>
</event>
<event>
 4    1  0.5074571E-001  0.1075332E+03  0.7546771E-02  0.1265207E+00
         -1   -1    0    0    0  501 -0.00000000000E+00  0.00000000000E+00  0.34393124810E+02  0.34393124810E+02  0.00000000000E+00 0.  1.
          1   -1    0    0  501    0  0.00000000000E+00 -0.00000000000E+00 -0.39782126907E+03  0.39782126907E+03  0.00000000000E+00 0. -1.
         24    1    1    2    0    0  0.39545483918E+01 -0.71277853157E+02 -0.96669285144E+02  0.14459715574E+03  0.80419002446E+02 0. -1.
        -24    1    1    2    0    0 -0.39545483918E+01  0.71277853157E+02 -0.26675885911E+03  0.28761723814E+03  0.80419002446E+02 0.  1.
<mgrwt>
<rscale>  0 0.10753319E+03</rscale>
<asrwt>0</asrwt>
<pdfrwt beam="1">  1        1 0.61203266E-01 0.10753319E+03</pdfrwt>
<pdfrwt beam="2">  1       -1 0.52912505E-02 0.10753319E+03</pdfrwt>
<totfact> 0.92099177E+03</totfact>
</mgrwt>
</event>
<event>
 4    1  0.5074571E-001  0.8565839E+02  0.7546771E-02  0.1313720E+00
         -2   -1    0    0    0  501 -0.00000000000E+00  0.00000000000E+00  0.10020394791E+02  0.10020394791E+02  0.00000000000E+00 0.  1.
          2   -1    0    0  501    0  0.00000000000E+00 -0.00000000000E+00 -0.21583627992E+04  0.21583627992E+04  0.00000000000E+00 0. -1.
         24    1    1    2    0    0  0.16354179792E+02  0.24549652430E+02 -0.19554673446E+04  0.19573425598E+04  0.80419002446E+02 0. -1.
        -24    1    1    2    0    0 -0.16354179792E+02 -0.24549652430E+02 -0.19287505979E+03  0.21104063418E+03  0.80419002446E+02 0.  1.
<mgrwt>
<rscale>  0 0.85658395E+02</rscale>
<asrwt>0</asrwt>
<pdfrwt beam="1">  1        2 0.33205634E+00 0.85658395E+02</pdfrwt>
<pdfrwt beam="2">  1       -2 0.15415968E-02 0.85658395E+02</pdfrwt>
<totfact> 0.68106541E+03</totfact>
</mgrwt>
</event>
<event>
 4    1  0.5074571E-001  0.8147643E+02  0.7546771E-02  0.1324913E+00
         -2   -1    0    0    0  501 -0.00000000000E+00  0.00000000000E+00  0.27146915691E+02  0.27146915691E+02  0.00000000000E+00 0.  1.
          2   -1    0    0  501    0  0.00000000000E+00 -0.00000000000E+00 -0.11123484821E+04  0.11123484821E+04  0.00000000000E+00 0. -1.
         24    1    1    2    0    0  0.20111180948E+01  0.12928553540E+02 -0.10458406072E+04  0.10490095251E+04  0.80419002446E+02 0. -1.
        -24    1    1    2    0    0 -0.20111180948E+01 -0.12928553540E+02 -0.39360959183E+02  0.90485872681E+02  0.80419002446E+02 0.  0.
<mgrwt>
<rscale>  0 0.81476426E+02</rscale>
<asrwt>0</asrwt>
<pdfrwt beam="1">  1        2 0.17113051E+00 0.81476426E+02</pdfrwt>
<pdfrwt beam="2">  1       -2 0.41764492E-02 0.81476426E+02</pdfrwt>
<totfact> 0.55261501E+03</totfact>
</mgrwt>
</event>
<event>
 4    1  0.5074571E-001  0.8094929E+02  0.7546771E-02  0.1326379E+00
         -2   -1    0    0    0  501 -0.00000000000E+00  0.00000000000E+00  0.20406366995E+02  0.20406366995E+02  0.00000000000E+00 0.  1.
          2   -1    0    0  501    0  0.00000000000E+00 -0.00000000000E+00 -0.84486169303E+03  0.84486169303E+03  0.00000000000E+00 0. -1.
         24    1    1    2    0    0 -0.25307377735E+01  0.88975442428E+01 -0.75286212913E+03  0.75720154012E+03  0.80419002446E+02 0. -1.
        -24    1    1    2    0    0  0.25307377735E+01 -0.88975442428E+01 -0.71593196907E+02  0.10806651991E+03  0.80419002446E+02 0.  1.
<mgrwt>
<rscale>  0 0.80949286E+02</rscale>
<asrwt>0</asrwt>
<pdfrwt beam="1">  1        2 0.12997871E+00 0.80949286E+02</pdfrwt>
<pdfrwt beam="2">  1       -2 0.31394414E-02 0.80949286E+02</pdfrwt>
<totfact> 0.12063974E+04</totfact>
</mgrwt>
</event>
<event>
 4    1  0.5074571E-001  0.1010960E+03  0.7546771E-02  0.1278008E+00
          1   -1    0    0  501    0  0.00000000000E+00  0.00000000000E+00  0.41387303906E+03  0.41387303906E+03  0.00000000000E+00 0. -1.
         -1   -1    0    0    0  501 -0.00000000000E+00 -0.00000000000E+00 -0.51789750575E+02  0.51789750575E+02  0.00000000000E+00 0.  1.
         24    1    1    2    0    0 -0.26603164845E+02 -0.55185684021E+02  0.12632410224E+02  0.10188219591E+03  0.80419002446E+02 0.  1.
        -24    1    1    2    0    0  0.26603164845E+02  0.55185684021E+02  0.34945087826E+03  0.36378059372E+03  0.80419002446E+02 0. -1.
<mgrwt>
<rscale>  0 0.10109601E+03</rscale>
<asrwt>0</asrwt>
<pdfrwt beam="1">  1        1 0.63672773E-01 0.10109601E+03</pdfrwt>
<pdfrwt beam="2">  1       -1 0.79676542E-02 0.10109601E+03</pdfrwt>
<totfact> 0.47539023E+03</totfact>
</mgrwt>
</event>
<event>
 4    1  0.5074571E-001  0.8703957E+02  0.7546771E-02  0.1310183E+00
         -1   -1    0    0    0  501 -0.00000000000E+00  0.00000000000E+00  0.12196991706E+03  0.12196991706E+03  0.00000000000E+00 0.  1.
          1   -1    0    0  501    0  0.00000000000E+00 -0.00000000000E+00 -0.17709804096E+03  0.17709804096E+03  0.00000000000E+00 0. -1.
         24    1    1    2    0    0  0.19678165511E+02  0.26859632969E+02  0.92926816284E+02  0.12732352187E+03  0.80419002446E+02 0.  1.
        -24    1    1    2    0    0 -0.19678165511E+02 -0.26859632969E+02 -0.14805494018E+03  0.17174443615E+03  0.80419002446E+02 0. -1.
<mgrwt>
<rscale>  0 0.87039566E+02</rscale>
<asrwt>0</asrwt>
<pdfrwt beam="1">  1        1 0.27245852E-01 0.87039566E+02</pdfrwt>
<pdfrwt beam="2">  1       -1 0.18764603E-01 0.87039566E+02</pdfrwt>
<totfact> 0.35958531E+03</totfact>
</mgrwt>
</event>
<event>
 4    1  0.5074571E-001  0.8675735E+02  0.7546771E-02  0.1310900E+00
          2   -1    0    0  501    0  0.00000000000E+00  0.00000000000E+00  0.13199491666E+04  0.13199491666E+04  0.00000000000E+00 0. -1.
         -2   -1    0    0    0  501 -0.00000000000E+00 -0.00000000000E+00 -0.67741163714E+01  0.67741163714E+01  0.00000000000E+00 0.  1.
         24    1    1    2    0    0 -0.20524277646E+02  0.25266111755E+02  0.92044540585E+03  0.92452505833E+03  0.80419002446E+02 0.  0.
        -24    1    1    2    0    0  0.20524277646E+02 -0.25266111755E+02  0.39272964437E+03  0.40219822463E+03  0.80419002446E+02 0. -1.
<mgrwt>
<rscale>  0 0.86757353E+02</rscale>
<asrwt>0</asrwt>
<pdfrwt beam="1">  1        2 0.20306890E+00 0.86757353E+02</pdfrwt>
<pdfrwt beam="2">  1       -2 0.10421728E-02 0.86757353E+02</pdfrwt>
<totfact> 0.31530976E+04</totfact>
</mgrwt>
</event>
<event>
 4    1  0.5074571E-001  0.8927732E+02  0.7546771E-02  0.1304611E+00
         -1   -1    0    0    0  501 -0.00000000000E+00  0.00000000000E+00  0.18116399108E+02  0.18116399108E+02  0.00000000000E+00 0.  1.
          1   -1    0    0  501    0  0.00000000000E+00 -0.00000000000E+00 -0.48306232781E+03  0.48306232781E+03  0.00000000000E+00 0. -1.
         24    1    1    2    0    0 -0.38176601190E+02  0.67653931800E+01 -0.15761711328E+03  0.18114522842E+03  0.80419002446E+02 0.  1.
        -24    1    1    2    0    0  0.38176601190E+02 -0.67653931800E+01 -0.30732881542E+03  0.32003349850E+03  0.80419002446E+02 0. -1.
<mgrwt>
<rscale>  0 0.89277317E+02</rscale>
<asrwt>0</asrwt>
<pdfrwt beam="1">  1        1 0.74317293E-01 0.89277317E+02</pdfrwt>
<pdfrwt beam="2">  1       -1 0.27871379E-02 0.89277317E+02</pdfrwt>
<totfact> 0.18014494E+04</totfact>
</mgrwt>
</event>
<event>
 4    1  0.5074571E-001  0.9615705E+02  0.7546771E-02  0.1288591E+00
          2   -1    0    0  501    0  0.00000000000E+00  0.00000000000E+00  0.11836410507E+03  0.11836410507E+03  0.00000000000E+00 0. -1.
         -2   -1    0    0    0  501 -0.00000000000E+00 -0.00000000000E+00 -0.82529931139E+02  0.82529931139E+02  0.00000000000E+00 0.  1.
         24    1    1    2    0    0 -0.41369677271E+02 -0.32672796822E+02  0.41145759619E+02  0.10459039793E+03  0.80419002446E+02 0. -1.
        -24    1    1    2    0    0  0.41369677271E+02  0.32672796822E+02 -0.53115856870E+01  0.96303638283E+02  0.80419002446E+02 0.  1.
<mgrwt>
<rscale>  0 0.96157048E+02</rscale>
<asrwt>0</asrwt>
<pdfrwt beam="1">  1        2 0.18209862E-01 0.96157048E+02</pdfrwt>
<pdfrwt beam="2">  1       -2 0.12696912E-01 0.96157048E+02</pdfrwt>
<totfact> 0.12649939E+04</totfact>
</mgrwt>
</event>
<event>
 4    1  0.5074571E-001  0.1023049E+03  0.7546771E-02  0.1275522E+00
          2   -1    0    0  501    0  0.00000000000E+00  0.00000000000E+00  0.44081580117E+03  0.44081580117E+03  0.00000000000E+00 0. -1.
         -2   -1    0    0    0  501 -0.00000000000E+00 -0.00000000000E+00 -0.11136613125E+03  0.11136613125E+03  0.00000000000E+00 0.  1.
         24    1    1    2    0    0  0.61905173036E+02  0.12916500875E+02  0.40962266805E+03  0.42220496513E+03  0.80419002446E+02 0. -1.
        -24    1    1    2    0    0 -0.61905173036E+02 -0.12916500875E+02 -0.80172998127E+02  0.12997696729E+03  0.80419002446E+02 0.  1.
<mgrwt>
<rscale>  0 0.10230495E+03</rscale>
<asrwt>0</asrwt>
<pdfrwt beam="1">  1        2 0.67817815E-01 0.10230495E+03</pdfrwt>
<pdfrwt beam="2">  1       -2 0.17133251E-01 0.10230495E+03</pdfrwt>
<totfact> 0.19082638E+03</totfact>
</mgrwt>
</event>
<event>
 4    1  0.5074571E-001  0.9160878E+02  0.7546771E-02  0.1299002E+00
          2   -1    0    0  501    0  0.00000000000E+00  0.00000000000E+00  0.34751381172E+03  0.34751381172E+03  0.00000000000E+00 0. -1.
         -2   -1    0    0    0  501 -0.00000000000E+00 -0.00000000000E+00 -0.30955435882E+02  0.30955435882E+02  0.00000000000E+00 0.  1.
         24    1    1    2    0    0  0.10832997523E+02  0.42515861170E+02  0.24701251519E+03  0.26345274890E+03  0.80419002446E+02 0. -1.
        -24    1    1    2    0    0 -0.10832997523E+02 -0.42515861170E+02  0.69545860642E+02  0.11501649870E+03  0.80419002446E+02 0.  1.
<mgrwt>
<rscale>  0 0.91608778E+02</rscale>
<asrwt>0</asrwt>
<pdfrwt beam="1">  1        2 0.53463660E-01 0.91608778E+02</pdfrwt>
<pdfrwt beam="2">  1       -2 0.47623750E-02 0.91608778E+02</pdfrwt>
<totfact> 0.17747274E+04</totfact>
</mgrwt>
</event>
<event>
 4    1  0.5074571E-001  0.8378115E+02  0.7546771E-02  0.1318651E+00
          2   -1    0    0  501    0  0.00000000000E+00  0.00000000000E+00  0.62046236023E+02  0.62046236023E+02  0.00000000000E+00 0. -1.
         -2   -1    0    0    0  501 -0.00000000000E+00 -0.00000000000E+00 -0.11451408843E+03  0.11451408843E+03  0.00000000000E+00 0.  1.
         24    1    1    2    0    0 -0.20554638884E+02 -0.11382832835E+02 -0.35940089672E+02  0.91164510984E+02  0.80419002446E+02 0.  1.
        -24    1    1    2    0    0  0.20554638884E+02  0.11382832835E+02 -0.16527762737E+02  0.85395813471E+02  0.80419002446E+02 0. -1.
<mgrwt>
<rscale>  0 0.83781142E+02</rscale>
<asrwt>0</asrwt>
<pdfrwt beam="1">  1        2 0.95455748E-02 0.83781153E+02</pdfrwt>
<pdfrwt beam="2">  1       -2 0.17617552E-01 0.83781153E+02</pdfrwt>
<totfact> 0.15666910E+04</totfact>
</mgrwt>
</event>
<event>
 4    1  0.5074571E-001  0.8742179E+02  0.7546771E-02  0.1309218E+00
         -2   -1    0    0    0  501 -0.00000000000E+00  0.00000000000E+00  0.22014413524E+01  0.22014413524E+01  0.00000000000E+00 0.  1.
          2   -1    0    0  501    0  0.00000000000E+00 -0.00000000000E+00 -0.35082974506E+04  0.35082974506E+04  0.00000000000E+00 0. -1.
         24    1    1    2    0    0 -0.32806522766E+02  0.99541403221E+01 -0.19325162418E+04  0.19344925933E+04  0.80419002446E+02 0.  0.
        -24    1    1    2    0    0  0.32806522766E+02 -0.99541403221E+01 -0.15735797675E+04  0.15760062986E+04  0.80419002446E+02 0.  1.
<mgrwt>
<rscale>  0 0.87421787E+02</rscale>
<asrwt>0</asrwt>
<pdfrwt beam="1">  1        2 0.53973607E+00 0.87421787E+02</pdfrwt>
<pdfrwt beam="2">  1       -2 0.33868454E-03 0.87421787E+02</pdfrwt>
<totfact> 0.10151310E+04</totfact>
</mgrwt>
</event>
<event>
 4    1  0.5074571E-001  0.1224161E+03  0.7546771E-02  0.1239164E+00
         -2   -1    0    0    0  501 -0.00000000000E+00  0.00000000000E+00  0.43707088584E+02  0.43707088584E+02  0.00000000000E+00 0.  1.
          2   -1    0    0  501    0  0.00000000000E+00 -0.00000000000E+00 -0.38714523187E+03  0.38714523187E+03  0.00000000000E+00 0. -1.
         24    1    1    2    0    0  0.58804988982E+02 -0.71136780130E+02 -0.98863888811E+02  0.15735232023E+03  0.80419002446E+02 0.  0.
        -24    1    1    2    0    0 -0.58804988982E+02  0.71136780130E+02 -0.24457425447E+03  0.27350000022E+03  0.80419002446E+02 0.  0.
<mgrwt>
<rscale>  0 0.12241604E+03</rscale>
<asrwt>0</asrwt>
<pdfrwt beam="1">  1        2 0.59560805E-01 0.12241606E+03</pdfrwt>
<pdfrwt beam="2">  1       -2 0.67241675E-02 0.12241606E+03</pdfrwt>
<totfact> 0.96728819E+03</totfact>
</mgrwt>
</event>
<event>
 4    1  0.5074571E-001  0.9496346E+02  0.7546771E-02  0.1291258E+00
         -2   -1    0    0    0  501 -0.00000000000E+00  0.00000000000E+00  0.13834412063E+02  0.13834412063E+02  0.00000000000E+00 0.  1.
          2   -1    0    0  501    0  0.00000000000E+00 -0.00000000000E+00 -0.72398106926E+03  0.72398106926E+03  0.00000000000E+00 0. -1.
         24    1    1    2    0    0 -0.47884674053E+02 -0.16059263256E+02 -0.47151123026E+03  0.48097910366E+03  0.80419002446E+02 0.  0.
        -24    1    1    2    0    0  0.47884674053E+02  0.16059263256E+02 -0.23863542693E+03  0.25683637766E+03  0.80419002446E+02 0.  1.
<mgrwt>
<rscale>  0 0.94963456E+02</rscale>
<asrwt>0</asrwt>
<pdfrwt beam="1">  1        2 0.11138171E+00 0.94963456E+02</pdfrwt>
<pdfrwt beam="2">  1       -2 0.21283710E-02 0.94963456E+02</pdfrwt>
<totfact> 0.25871181E+04</totfact>
</mgrwt>
</event>
<event>
 4    1  0.5074571E-001  0.8856222E+02  0.7546771E-02  0.1306371E+00
         -1   -1    0    0    0  501 -0.00000000000E+00  0.00000000000E+00  0.21469277775E+03  0.21469277775E+03  0.00000000000E+00 0.  1.
          1   -1    0    0  501    0  0.00000000000E+00 -0.00000000000E+00 -0.12121118351E+03  0.12121118351E+03  0.00000000000E+00 0. -1.
         24    1    1    2    0    0 -0.27143385916E+02  0.25284129198E+02  0.18711936294E+03  0.20701913566E+03  0.80419002446E+02 0.  1.
        -24    1    1    2    0    0  0.27143385916E+02 -0.25284129198E+02 -0.93637768705E+02  0.12888482560E+03  0.80419002446E+02 0. -1.
<mgrwt>
<rscale>  0 0.88562218E+02</rscale>
<asrwt>0</asrwt>
<pdfrwt beam="1">  1        1 0.18647874E-01 0.88562218E+02</pdfrwt>
<pdfrwt beam="2">  1       -1 0.33029658E-01 0.88562218E+02</pdfrwt>
<totfact> 0.23025798E+03</totfact>
</mgrwt>
</event>
<event>
 4    1  0.5074571E-001  0.1037607E+03  0.7546771E-02  0.1272581E+00
          2   -1    0    0  501    0  0.00000000000E+00  0.00000000000E+00  0.60364985254E+03  0.60364985254E+03  0.00000000000E+00 0. -1.
         -2   -1    0    0    0  501 -0.00000000000E+00 -0.00000000000E+00 -0.34837726087E+02  0.34837726087E+02  0.00000000000E+00 0.  1.
         24    1    1    2    0    0  0.44698665853E+02 -0.47969686230E+02  0.50743077050E+03  0.51793075245E+03  0.80419002446E+02 0. -1.
        -24    1    1    2    0    0 -0.44698665853E+02  0.47969686230E+02  0.61381355958E+02  0.12055682618E+03  0.80419002446E+02 0.  1.
<mgrwt>
<rscale>  0 0.10376067E+03</rscale>
<asrwt>0</asrwt>
<pdfrwt beam="1">  1        2 0.92869201E-01 0.10376067E+03</pdfrwt>
<pdfrwt beam="2">  1       -2 0.53596506E-02 0.10376067E+03</pdfrwt>
<totfact> 0.83034403E+03</totfact>
</mgrwt>
</event>
<event>
 4    1  0.5074571E-001  0.1038483E+03  0.7546771E-02  0.1272406E+00
          2   -1    0    0  501    0  0.00000000000E+00  0.00000000000E+00  0.34933475346E+02  0.34933475346E+02  0.00000000000E+00 0. -1.
         -2   -1    0    0    0  501 -0.00000000000E+00 -0.00000000000E+00 -0.49424148402E+03  0.49424148402E+03  0.00000000000E+00 0.  1.
         24    1    1    2    0    0 -0.38982770816E+02 -0.52892281583E+02 -0.67546400388E+02  0.12388293680E+03  0.80419002446E+02 0. -1.
        -24    1    1    2    0    0  0.38982770816E+02  0.52892281583E+02 -0.39176160829E+03  0.40529202257E+03  0.80419002446E+02 0.  1.
<mgrwt>
<rscale>  0 0.10384828E+03</rscale>
<asrwt>0</asrwt>
<pdfrwt beam="1">  1        2 0.53743810E-02 0.10384828E+03</pdfrwt>
<pdfrwt beam="2">  1       -2 0.76037149E-01 0.10384828E+03</pdfrwt>
<totfact> 0.21479594E+03</totfact>
</mgrwt>
</event>
<event>
 4    1  0.5074571E-001  0.1859077E+03  0.7546771E-02  0.1162205E+00
         -2   -1    0    0    0  501 -0.00000000000E+00  0.00000000000E+00  0.26461216296E+02  0.26461216296E+02  0.00000000000E+00 0.  1.
          2   -1    0    0  501    0  0.00000000000E+00 -0.00000000000E+00 -0.19595543041E+04  0.19595543041E+04  0.00000000000E+00 0. -1.
         24    1    1    2    0    0  0.68706201248E+02  0.15288524987E+03 -0.15399671231E+04  0.15511480902E+04  0.80419002446E+02 0. -1.
        -24    1    1    2    0    0 -0.68706201248E+02 -0.15288524987E+03 -0.39312596470E+03  0.43486743013E+03  0.80419002446E+02 0.  1.
<mgrwt>
<rscale>  0 0.18590766E+03</rscale>
<asrwt>0</asrwt>
<pdfrwt beam="1">  1        2 0.30146983E+00 0.18590766E+03</pdfrwt>
<pdfrwt beam="2">  1       -2 0.40709572E-02 0.18590766E+03</pdfrwt>
<totfact> 0.20979178E+03</totfact>
</mgrwt>
</event>
<event>
 4    1  0.5074571E-001  0.1130629E+03  0.7546771E-02  0.1255001E+00
         -4   -1    0    0    0  501 -0.00000000000E+00  0.00000000000E+00  0.87417996650E+03  0.87417996650E+03  0.00000000000E+00 0.  1.
          4   -1    0    0  501    0  0.00000000000E+00 -0.00000000000E+00 -0.14922359278E+02  0.14922359278E+02  0.00000000000E+00 0. -1.
         24    1    1    2    0    0  0.67679960508E+02 -0.41658399708E+02  0.49258400608E+03  0.50539313244E+03  0.80419002446E+02 0.  1.
        -24    1    1    2    0    0 -0.67679960508E+02  0.41658399708E+02  0.36667360114E+03  0.38370919334E+03  0.80419002446E+02 0. -1.
<mgrwt>
<rscale>  0 0.11306290E+03</rscale>
<asrwt>0</asrwt>
<pdfrwt beam="1">  1        4 0.22957483E-02 0.11306291E+03</pdfrwt>
<pdfrwt beam="2">  1       -4 0.13448919E+00 0.11306291E+03</pdfrwt>
<totfact> 0.55192118E+02</totfact>
</mgrwt>
</event>
<event>
 4    1  0.5074571E-001  0.8232658E+02  0.7546771E-02  0.1322576E+00
          2   -1    0    0  501    0  0.00000000000E+00  0.00000000000E+00  0.22246377900E+04  0.22246377900E+04  0.00000000000E+00 0. -1.
         -2   -1    0    0    0  501 -0.00000000000E+00 -0.00000000000E+00 -0.51289665338E+01  0.51289665338E+01  0.00000000000E+00 0.  1.
         24    1    1    2    0    0 -0.14421987487E+02 -0.10122059373E+02  0.18201318267E+04  0.18219927366E+04  0.80419002446E+02 0. -1.
        -24    1    1    2    0    0  0.14421987487E+02  0.10122059373E+02  0.39937699678E+03  0.40777401992E+03  0.80419002446E+02 0.  0.
<mgrwt>
<rscale>  0 0.82326580E+02</rscale>
<asrwt>0</asrwt>
<pdfrwt beam="1">  1        2 0.34225120E+00 0.82326580E+02</pdfrwt>
<pdfrwt beam="2">  1       -2 0.78907355E-03 0.82326580E+02</pdfrwt>
<totfact> 0.16237285E+04</totfact>
</mgrwt>
</event>
<event>
 4    1  0.5074571E-001  0.1310687E+03  0.7546771E-02  0.1225879E+00
          2   -1    0    0  501    0  0.00000000000E+00  0.00000000000E+00  0.31912483282E+03  0.31912483282E+03  0.00000000000E+00 0. -1.
         -2   -1    0    0    0  501 -0.00000000000E+00 -0.00000000000E+00 -0.64989058240E+02  0.64989058240E+02  0.00000000000E+00 0.  1.
         24    1    1    2    0    0  0.39724078029E+02  0.95570784282E+02  0.20664587824E+03  0.24470699241E+03  0.80419002446E+02 0. -1.
        -24    1    1    2    0    0 -0.39724078029E+02 -0.95570784282E+02  0.47489896335E+02  0.13940689865E+03  0.80419002446E+02 0.  1.
<mgrwt>
<rscale>  0 0.13106866E+03</rscale>
<asrwt>0</asrwt>
<pdfrwt beam="1">  1        2 0.49096127E-01 0.13106866E+03</pdfrwt>
<pdfrwt beam="2">  1       -2 0.99983168E-02 0.13106866E+03</pdfrwt>
<totfact> 0.64624674E+03</totfact>
</mgrwt>
</event>
<event>
 4    1  0.5074571E-001  0.9193706E+02  0.7546771E-02  0.1298227E+00
         -1   -1    0    0    0  501 -0.00000000000E+00  0.00000000000E+00  0.17894344908E+03  0.17894344908E+03  0.00000000000E+00 0.  1.
          1   -1    0    0  501    0  0.00000000000E+00 -0.00000000000E+00 -0.16013721698E+03  0.16013721698E+03  0.00000000000E+00 0. -1.
         24    1    1    2    0    0 -0.44507187085E+02  0.20777494208E+01  0.15175978528E+03  0.17743577748E+03  0.80419002446E+02 0.  1.
        -24    1    1    2    0    0  0.44507187085E+02 -0.20777494208E+01 -0.13295355318E+03  0.16164488858E+03  0.80419002446E+02 0. -1.
<mgrwt>
<rscale>  0 0.91937058E+02</rscale>
<asrwt>0</asrwt>
<pdfrwt beam="1">  1        1 0.24636495E-01 0.91937058E+02</pdfrwt>
<pdfrwt beam="2">  1       -1 0.27529761E-01 0.91937058E+02</pdfrwt>
<totfact> 0.22050011E+03</totfact>
</mgrwt>
</event>
<event>
 4    1  0.5074571E-001  0.1028140E+03  0.7546771E-02  0.1274487E+00
          2   -1    0    0  501    0  0.00000000000E+00  0.00000000000E+00  0.88727707979E+03  0.88727707979E+03  0.00000000000E+00 0. -1.
         -2   -1    0    0    0  501 -0.00000000000E+00 -0.00000000000E+00 -0.12900602159E+02  0.12900602159E+02  0.00000000000E+00 0.  1.
         24    1    1    2    0    0  0.91739747287E+01 -0.63398195566E+02  0.56168017155E+03  0.57101254284E+03  0.80419002446E+02 0. -1.
        -24    1    1    2    0    0 -0.91739747287E+01  0.63398195566E+02  0.31269630608E+03  0.32916513911E+03  0.80419002446E+02 0.  1.
<mgrwt>
<rscale>  0 0.10281395E+03</rscale>
<asrwt>0</asrwt>
<pdfrwt beam="1">  1        2 0.13650412E+00 0.10281395E+03</pdfrwt>
<pdfrwt beam="2">  1       -2 0.19847087E-02 0.10281395E+03</pdfrwt>
<totfact> 0.22449746E+04</totfact>
</mgrwt>
</event>
<event>
 4    1  0.5074571E-001  0.8450578E+02  0.7546771E-02  0.1316730E+00
          1   -1    0    0  501    0  0.00000000000E+00  0.00000000000E+00  0.45668529038E+03  0.45668529038E+03  0.00000000000E+00 0. -1.
         -1   -1    0    0    0  501 -0.00000000000E+00 -0.00000000000E+00 -0.15938381047E+02  0.15938381047E+02  0.00000000000E+00 0.  1.
         24    1    1    2    0    0 -0.24651793400E+02 -0.81422230613E+01  0.25286470740E+03  0.26661167063E+03  0.80419002446E+02 0.  0.
        -24    1    1    2    0    0  0.24651793400E+02  0.81422230613E+01  0.18788220194E+03  0.20601200080E+03  0.80419002446E+02 0. -1.
<mgrwt>
<rscale>  0 0.84505766E+02</rscale>
<asrwt>0</asrwt>
<pdfrwt beam="1">  1        1 0.70259265E-01 0.84505776E+02</pdfrwt>
<pdfrwt beam="2">  1       -1 0.24520590E-02 0.84505776E+02</pdfrwt>
<totfact> 0.23108826E+04</totfact>
</mgrwt>
</event>
<event>
 4    1  0.5074571E-001  0.9840618E+02  0.7546771E-02  0.1283684E+00
          1   -1    0    0  501    0  0.00000000000E+00  0.00000000000E+00  0.21141321059E+03  0.21141321059E+03  0.00000000000E+00 0. -1.
         -1   -1    0    0    0  501 -0.00000000000E+00 -0.00000000000E+00 -0.62992055332E+02  0.62992055332E+02  0.00000000000E+00 0.  1.
         24    1    1    2    0    0  0.20592506253E+02 -0.52844199076E+02  0.25433473693E+01  0.98439043372E+02  0.80419002446E+02 0.  1.
        -24    1    1    2    0    0 -0.20592506253E+02  0.52844199076E+02  0.14587780789E+03  0.17596622255E+03  0.80419002446E+02 0. -1.
<mgrwt>
<rscale>  0 0.98406182E+02</rscale>
<asrwt>0</asrwt>
<pdfrwt beam="1">  1        1 0.32525109E-01 0.98406182E+02</pdfrwt>
<pdfrwt beam="2">  1       -1 0.96910855E-02 0.98406182E+02</pdfrwt>
<totfact> 0.80764525E+03</totfact>
</mgrwt>
</event>
<event>
 4    1  0.5074571E-001  0.8290989E+02  0.7546771E-02  0.1320991E+00
          1   -1    0    0  501    0  0.00000000000E+00  0.00000000000E+00  0.28328618122E+03  0.28328618122E+03  0.00000000000E+00 0. -1.
         -1   -1    0    0    0  501 -0.00000000000E+00 -0.00000000000E+00 -0.26399546585E+02  0.26399546585E+02  0.00000000000E+00 0.  1.
         24    1    1    2    0    0 -0.61346947332E+01  0.19214557642E+02  0.84417634015E+02  0.11832322930E+03  0.80419002446E+02 0.  0.
        -24    1    1    2    0    0  0.61346947332E+01 -0.19214557642E+02  0.17246900062E+03  0.19136249850E+03  0.80419002446E+02 0.  0.
<mgrwt>
<rscale>  0 0.82909889E+02</rscale>
<asrwt>0</asrwt>
<pdfrwt beam="1">  1        1 0.43582487E-01 0.82909889E+02</pdfrwt>
<pdfrwt beam="2">  1       -1 0.40614689E-02 0.82909889E+02</pdfrwt>
<totfact> 0.20084438E+04</totfact>
</mgrwt>
</event>
<event>
 4    1  0.5074571E-001  0.8403774E+02  0.7546771E-02  0.1317968E+00
          1   -1    0    0  501    0  0.00000000000E+00  0.00000000000E+00  0.19797117758E+04  0.19797117758E+04  0.00000000000E+00 0. -1.
         -1   -1    0    0    0  501 -0.00000000000E+00 -0.00000000000E+00 -0.47025928579E+01  0.47025928579E+01  0.00000000000E+00 0.  1.
         24    1    1    2    0    0  0.24164274583E+02 -0.33487202347E+01  0.50000259300E+03  0.50701571480E+03  0.80419002446E+02 0.  1.
        -24    1    1    2    0    0 -0.24164274583E+02  0.33487202347E+01  0.14750065900E+04  0.14773986539E+04  0.80419002446E+02 0. -1.
<mgrwt>
<rscale>  0 0.84037742E+02</rscale>
<asrwt>0</asrwt>
<pdfrwt beam="1">  1        1 0.30457038E+00 0.84037742E+02</pdfrwt>
<pdfrwt beam="2">  1       -1 0.72347740E-03 0.84037742E+02</pdfrwt>
<totfact> 0.99802862E+03</totfact>
</mgrwt>
</event>
<event>
 4    1  0.5074571E-001  0.1243320E+03  0.7546771E-02  0.1236117E+00
         -1   -1    0    0    0  501 -0.00000000000E+00  0.00000000000E+00  0.84058834991E+02  0.84058834991E+02  0.00000000000E+00 0.  1.
          1   -1    0    0  501    0  0.00000000000E+00 -0.00000000000E+00 -0.22430289683E+03  0.22430289683E+03  0.00000000000E+00 0. -1.
         24    1    1    2    0    0  0.92334281638E+02 -0.21577855006E+02 -0.46858357916E+01  0.12442024113E+03  0.80419002446E+02 0.  1.
        -24    1    1    2    0    0 -0.92334281638E+02  0.21577855006E+02 -0.13555822604E+03  0.18394149068E+03  0.80419002446E+02 0. -1.
<mgrwt>
<rscale>  0 0.12433197E+03</rscale>
<asrwt>0</asrwt>
<pdfrwt beam="1">  1        1 0.34508138E-01 0.12433197E+03</pdfrwt>
<pdfrwt beam="2">  1       -1 0.12932128E-01 0.12433197E+03</pdfrwt>
<totfact> 0.49125637E+03</totfact>
</mgrwt>
</event>
<event>
 4    1  0.5074571E-001  0.9288317E+02  0.7546771E-02  0.1296016E+00
          1   -1    0    0  501    0  0.00000000000E+00  0.00000000000E+00  0.15475469880E+04  0.15475469880E+04  0.00000000000E+00 0. -1.
         -1   -1    0    0    0  501 -0.00000000000E+00 -0.00000000000E+00 -0.56087485379E+01  0.56087485379E+01  0.00000000000E+00 0.  1.
         24    1    1    2    0    0  0.37846718918E+02 -0.26975718397E+02  0.83137824304E+03  0.83655069330E+03  0.80419002446E+02 0.  1.
        -24    1    1    2    0    0 -0.37846718918E+02  0.26975718397E+02  0.71055999642E+03  0.71660504323E+03  0.80419002446E+02 0. -1.
<mgrwt>
<rscale>  0 0.92883161E+02</rscale>
<asrwt>0</asrwt>
<pdfrwt beam="1">  1        1 0.23808381E+00 0.92883173E+02</pdfrwt>
<pdfrwt beam="2">  1       -1 0.86288562E-03 0.92883173E+02</pdfrwt>
<totfact> 0.14639081E+04</totfact>
</mgrwt>
</event>
<event>
 4    1  0.5074571E-001  0.9540817E+02  0.7546771E-02  0.1290259E+00
          1   -1    0    0  501    0  0.00000000000E+00  0.00000000000E+00  0.49315038999E+03  0.49315038999E+03  0.00000000000E+00 0. -1.
         -1   -1    0    0    0  501 -0.00000000000E+00 -0.00000000000E+00 -0.42362263663E+02  0.42362263663E+02  0.00000000000E+00 0.  1.
         24    1    1    2    0    0  0.45578367449E+02  0.23624466123E+02  0.24260243130E+02  0.98444290489E+02  0.80419002446E+02 0.  1.
        -24    1    1    2    0    0 -0.45578367449E+02 -0.23624466123E+02  0.42652788320E+03  0.43706836316E+03  0.80419002446E+02 0. -1.
<mgrwt>
<rscale>  0 0.95408170E+02</rscale>
<asrwt>0</asrwt>
<pdfrwt beam="1">  1        1 0.75869287E-01 0.95408170E+02</pdfrwt>
<pdfrwt beam="2">  1       -1 0.65172717E-02 0.95408170E+02</pdfrwt>
<totfact> 0.51168040E+03</totfact>
</mgrwt>
</event>
<event>
 4    1  0.5074571E-001  0.8319813E+02  0.7546771E-02  0.1320213E+00
         -1   -1    0    0    0  501 -0.00000000000E+00  0.00000000000E+00  0.24803864124E+02  0.24803864124E+02  0.00000000000E+00 0.  1.
          1   -1    0    0  501    0  0.00000000000E+00 -0.00000000000E+00 -0.27984031090E+03  0.27984031090E+03  0.00000000000E+00 0. -1.
         24    1    1    2    0    0 -0.16542457936E+02 -0.13455738919E+02 -0.13552845689E+03  0.15902794851E+03  0.80419002446E+02 0. -1.
        -24    1    1    2    0    0  0.16542457936E+02  0.13455738919E+02 -0.11950798988E+03  0.14561622652E+03  0.80419002446E+02 0.  1.
<mgrwt>
<rscale>  0 0.83198122E+02</rscale>
<asrwt>0</asrwt>
<pdfrwt beam="1">  1        1 0.43052357E-01 0.83198132E+02</pdfrwt>
<pdfrwt beam="2">  1       -1 0.38159790E-02 0.83198132E+02</pdfrwt>
<totfact> 0.22319840E+04</totfact>
</mgrwt>
</event>
<event>
 4    1  0.5074571E-001  0.8471213E+02  0.7546771E-02  0.1316187E+00
         -2   -1    0    0    0  501 -0.00000000000E+00  0.00000000000E+00  0.20144480793E+02  0.20144480793E+02  0.00000000000E+00 0.  1.
          2   -1    0    0  501    0  0.00000000000E+00 -0.00000000000E+00 -0.38841826756E+03  0.38841826756E+03  0.00000000000E+00 0. -1.
         24    1    1    2    0    0  0.19867220100E+02  0.17726347179E+02 -0.24294021154E+03  0.25728601236E+03  0.80419002446E+02 0.  0.
        -24    1    1    2    0    0 -0.19867220100E+02 -0.17726347179E+02 -0.12533357522E+03  0.15127673599E+03  0.80419002446E+02 0. -1.
<mgrwt>
<rscale>  0 0.84712135E+02</rscale>
<asrwt>0</asrwt>
<pdfrwt beam="1">  1        2 0.59756656E-01 0.84712135E+02</pdfrwt>
<pdfrwt beam="2">  1       -2 0.30991509E-02 0.84712135E+02</pdfrwt>
<totfact> 0.29409946E+04</totfact>
</mgrwt>
</event>
<event>
 4    1  0.5074571E-001  0.9561433E+02  0.7546771E-02  0.1289798E+00
         -1   -1    0    0    0  501 -0.00000000000E+00  0.00000000000E+00  0.25937730477E+02  0.25937730477E+02  0.00000000000E+00 0.  1.
          1   -1    0    0  501    0  0.00000000000E+00 -0.00000000000E+00 -0.53418728749E+03  0.53418728749E+03  0.00000000000E+00 0. -1.
         24    1    1    2    0    0  0.51546548241E+02  0.42233807449E+01 -0.90776612531E+02  0.13184268246E+03  0.80419002446E+02 0.  1.
        -24    1    1    2    0    0 -0.51546548241E+02 -0.42233807449E+01 -0.41747294448E+03  0.42828233551E+03  0.80419002446E+02 0. -1.
<mgrwt>
<rscale>  0 0.95614327E+02</rscale>
<asrwt>0</asrwt>
<pdfrwt beam="1">  1        1 0.82182664E-01 0.95614327E+02</pdfrwt>
<pdfrwt beam="2">  1       -1 0.39904199E-02 0.95614327E+02</pdfrwt>
<totfact> 0.94761148E+03</totfact>
</mgrwt>
</event>
<event>
 4    1  0.5074571E-001  0.8406934E+02  0.7546771E-02  0.1317884E+00
          2   -1    0    0  501    0  0.00000000000E+00  0.00000000000E+00  0.25507387833E+04  0.25507387833E+04  0.00000000000E+00 0. -1.
         -2   -1    0    0    0  501 -0.00000000000E+00 -0.00000000000E+00 -0.60816505348E+01  0.60816505348E+01  0.00000000000E+00 0.  1.
         24    1    1    2    0    0 -0.82548983308E+01 -0.23071518514E+02  0.22155801889E+04  0.22171746047E+04  0.80419002446E+02 0. -1.
        -24    1    1    2    0    0  0.82548983308E+01  0.23071518514E+02  0.32907694388E+03  0.33964582915E+03  0.80419002446E+02 0.  1.
<mgrwt>
<rscale>  0 0.84069342E+02</rscale>
<asrwt>0</asrwt>
<pdfrwt beam="1">  1        2 0.39242050E+00 0.84069342E+02</pdfrwt>
<pdfrwt beam="2">  1       -2 0.93564058E-03 0.84069342E+02</pdfrwt>
<totfact> 0.86758289E+03</totfact>
</mgrwt>
</event>
<event>
 4    1  0.5074571E-001  0.8701765E+02  0.7546771E-02  0.1310239E+00
         -1   -1    0    0    0  501 -0.00000000000E+00  0.00000000000E+00  0.70313164694E+02  0.70313164694E+02  0.00000000000E+00 0.  1.
          1   -1    0    0  501    0  0.00000000000E+00 -0.00000000000E+00 -0.44764125215E+03  0.44764125215E+03  0.00000000000E+00 0. -1.
         24    1    1    2    0    0 -0.33093511121E+02  0.31104417179E+01  0.37021839057E+02  0.94565785819E+02  0.80419002446E+02 0.  1.
        -24    1    1    2    0    0  0.33093511121E+02 -0.31104417179E+01 -0.41434992652E+03  0.42338863103E+03  0.80419002446E+02 0. -1.
<mgrwt>
<rscale>  0 0.87017649E+02</rscale>
<asrwt>0</asrwt>
<pdfrwt beam="1">  1        1 0.68867884E-01 0.87017649E+02</pdfrwt>
<pdfrwt beam="2">  1       -1 0.10817410E-01 0.87017649E+02</pdfrwt>
<totfact> 0.26973214E+03</totfact>
</mgrwt>
</event>
<event>
 4    1  0.5074571E-001  0.8083412E+02  0.7546771E-02  0.1326701E+00
         -2   -1    0    0    0  501 -0.00000000000E+00  0.00000000000E+00  0.18717668628E+02  0.18717668628E+02  0.00000000000E+00 0.  1.
          2   -1    0    0  501    0  0.00000000000E+00 -0.00000000000E+00 -0.45691351298E+03  0.45691351298E+03  0.00000000000E+00 0. -1.
         24    1    1    2    0    0  0.67881388462E+01  0.45672550480E+01 -0.33462390357E+03  0.34424890914E+03  0.80419002446E+02 0.  0.
        -24    1    1    2    0    0 -0.67881388462E+01 -0.45672550480E+01 -0.10357194078E+03  0.13138227247E+03  0.80419002446E+02 0.  1.
<mgrwt>
<rscale>  0 0.80834118E+02</rscale>
<asrwt>0</asrwt>
<pdfrwt beam="1">  1        2 0.70294385E-01 0.80834118E+02</pdfrwt>
<pdfrwt beam="2">  1       -2 0.28796414E-02 0.80834118E+02</pdfrwt>
<totfact> 0.27420436E+04</totfact>
</mgrwt>
</event>
<event>
 4    1  0.5074571E-001  0.8532393E+02  0.7546771E-02  0.1314588E+00
         -2   -1    0    0    0  501 -0.00000000000E+00  0.00000000000E+00  0.18769716769E+02  0.18769716769E+02  0.00000000000E+00 0.  1.
          2   -1    0    0  501    0  0.00000000000E+00 -0.00000000000E+00 -0.59607134061E+03  0.59607134061E+03  0.00000000000E+00 0. -1.
         24    1    1    2    0    0 -0.28486183465E+02 -0.12206365371E+01 -0.10696215666E+03  0.13682496670E+03  0.80419002446E+02 0.  1.
        -24    1    1    2    0    0  0.28486183465E+02  0.12206365371E+01 -0.47033946718E+03  0.47801609068E+03  0.80419002446E+02 0. -1.
<mgrwt>
<rscale>  0 0.85323914E+02</rscale>
<asrwt>0</asrwt>
<pdfrwt beam="1">  1        2 0.91703263E-01 0.85323925E+02</pdfrwt>
<pdfrwt beam="2">  1       -2 0.28876494E-02 0.85323925E+02</pdfrwt>
<totfact> 0.20583376E+04</totfact>
</mgrwt>
</event>
<event>
 4    1  0.5074571E-001  0.1513751E+03  0.7546771E-02  0.1198793E+00
          1   -1    0    0  501    0  0.00000000000E+00  0.00000000000E+00  0.12794700950E+03  0.12794700950E+03  0.00000000000E+00 0. -1.
         -1   -1    0    0    0  501 -0.00000000000E+00 -0.00000000000E+00 -0.24582725325E+03  0.24582725325E+03  0.00000000000E+00 0.  1.
         24    1    1    2    0    0 -0.12703133589E+03 -0.17614152526E+02 -0.15631305581E+03  0.21759642928E+03  0.80419002446E+02 0. -1.
        -24    1    1    2    0    0  0.12703133589E+03  0.17614152526E+02  0.38432812055E+02  0.15617783346E+03  0.80419002446E+02 0.  1.
<mgrwt>
<rscale>  0 0.15137515E+03</rscale>
<asrwt>0</asrwt>
<pdfrwt beam="1">  1        1 0.19684155E-01 0.15137515E+03</pdfrwt>
<pdfrwt beam="2">  1       -1 0.37819577E-01 0.15137515E+03</pdfrwt>
<totfact> 0.17447902E+03</totfact>
</mgrwt>
</event>
<event>
 4    1  0.5074571E-001  0.8232733E+02  0.7546771E-02  0.1322574E+00
          2   -1    0    0  501    0  0.00000000000E+00  0.00000000000E+00  0.26352803875E+04  0.26352803875E+04  0.00000000000E+00 0. -1.
         -2   -1    0    0    0  501 -0.00000000000E+00 -0.00000000000E+00 -0.88043927838E+01  0.88043927838E+01  0.00000000000E+00 0.  1.
         24    1    1    2    0    0  0.17403739457E+02  0.27717223299E+01  0.24255461023E+04  0.24269428677E+04  0.80419002446E+02 0. -1.
        -24    1    1    2    0    0 -0.17403739457E+02 -0.27717223299E+01  0.20092989237E+03  0.21714191257E+03  0.80419002446E+02 0.  1.
<mgrwt>
<rscale>  0 0.82327326E+02</rscale>
<asrwt>0</asrwt>
<pdfrwt beam="1">  1        2 0.40542712E+00 0.82327326E+02</pdfrwt>
<pdfrwt beam="2">  1       -2 0.13545241E-02 0.82327326E+02</pdfrwt>
<totfact> 0.46347898E+03</totfact>
</mgrwt>
</event>
<event>
 4    1  0.5074571E-001  0.8222878E+02  0.7546771E-02  0.1322843E+00
         -2   -1    0    0    0  501 -0.00000000000E+00  0.00000000000E+00  0.60178158024E+02  0.60178158024E+02  0.00000000000E+00 0.  1.
          2   -1    0    0  501    0  0.00000000000E+00 -0.00000000000E+00 -0.13801554862E+04  0.13801554862E+04  0.00000000000E+00 0. -1.
         24    1    1    2    0    0  0.12377467582E+02  0.11880868689E+02 -0.13502186629E+04  0.13527202262E+04  0.80419002446E+02 0. -1.
        -24    1    1    2    0    0 -0.12377467582E+02 -0.11880868689E+02  0.30241334702E+02  0.87613418056E+02  0.80419002446E+02 0.  1.
<mgrwt>
<rscale>  0 0.82228783E+02</rscale>
<asrwt>0</asrwt>
<pdfrwt beam="1">  1        2 0.21233159E+00 0.82228783E+02</pdfrwt>
<pdfrwt beam="2">  1       -2 0.92581791E-02 0.82228783E+02</pdfrwt>
<totfact> 0.12036024E+03</totfact>
</mgrwt>
</event>
<event>
 4    1  0.5074571E-001  0.8329682E+02  0.7546771E-02  0.1319948E+00
          2   -1    0    0  501    0  0.00000000000E+00  0.00000000000E+00  0.98840814328E+02  0.98840814328E+02  0.00000000000E+00 0. -1.
         -2   -1    0    0    0  501 -0.00000000000E+00 -0.00000000000E+00 -0.10980560300E+03  0.10980560300E+03  0.00000000000E+00 0.  1.
         24    1    1    2    0    0  0.18168798147E+02  0.11876016011E+02  0.57173460109E+02  0.10103051756E+03  0.80419002446E+02 0. -1.
        -24    1    1    2    0    0 -0.18168798147E+02 -0.11876016011E+02 -0.68138248782E+02  0.10761589977E+03  0.80419002446E+02 0.  1.
<mgrwt>
<rscale>  0 0.83296824E+02</rscale>
<asrwt>0</asrwt>
<pdfrwt beam="1">  1        2 0.15206279E-01 0.83296824E+02</pdfrwt>
<pdfrwt beam="2">  1       -2 0.16893170E-01 0.83296824E+02</pdfrwt>
<totfact> 0.96677219E+03</totfact>
</mgrwt>
</event>
<event>
 4    1  0.5074571E-001  0.8351629E+02  0.7546771E-02  0.1319359E+00
         -2   -1    0    0    0  501 -0.00000000000E+00  0.00000000000E+00  0.33468339904E+01  0.33468339904E+01  0.00000000000E+00 0.  1.
          2   -1    0    0  501    0  0.00000000000E+00 -0.00000000000E+00 -0.24003884998E+04  0.24003884998E+04  0.00000000000E+00 0. -1.
         24    1    1    2    0    0  0.22213847303E+02  0.37810128120E+01 -0.76221362158E+03  0.76677543775E+03  0.80419002446E+02 0.  1.
        -24    1    1    2    0    0 -0.22213847303E+02 -0.37810128120E+01 -0.16348280443E+04  0.16369598961E+04  0.80419002446E+02 0. -1.
<mgrwt>
<rscale>  0 0.83516278E+02</rscale>
<asrwt>0</asrwt>
<pdfrwt beam="1">  1        2 0.36929140E+00 0.83516289E+02</pdfrwt>
<pdfrwt beam="2">  1       -2 0.51489634E-03 0.83516289E+02</pdfrwt>
<totfact> 0.24036911E+04</totfact>
</mgrwt>
</event>
<event>
 4    1  0.5074571E-001  0.8126358E+02  0.7546771E-02  0.1325503E+00
          1   -1    0    0  501    0  0.00000000000E+00  0.00000000000E+00  0.12849984121E+04  0.12849984121E+04  0.00000000000E+00 0. -1.
         -1   -1    0    0    0  501 -0.00000000000E+00 -0.00000000000E+00 -0.82790630329E+01  0.82790630329E+01  0.00000000000E+00 0.  1.
         24    1    1    2    0    0  0.97036366582E+01 -0.65110003032E+01  0.24013190186E+03  0.25350956577E+03  0.80419002446E+02 0.  1.
        -24    1    1    2    0    0 -0.97036366582E+01  0.65110003032E+01  0.10365874472E+04  0.10397679094E+04  0.80419002446E+02 0. -1.
<mgrwt>
<rscale>  0 0.81263581E+02</rscale>
<asrwt>0</asrwt>
<pdfrwt beam="1">  1        1 0.19769191E+00 0.81263581E+02</pdfrwt>
<pdfrwt beam="2">  1       -1 0.12737030E-02 0.81263581E+02</pdfrwt>
<totfact> 0.12368382E+04</totfact>
</mgrwt>
</event>
<event>
 4    1  0.5074571E-001  0.8401317E+02  0.7546771E-02  0.1318034E+00
          1   -1    0    0  501    0  0.00000000000E+00  0.00000000000E+00  0.26771707947E+04  0.26771707947E+04  0.00000000000E+00 0. -1.
         -1   -1    0    0    0  501 -0.00000000000E+00 -0.00000000000E+00 -0.66527538862E+01  0.66527538862E+01  0.00000000000E+00 0.  1.
         24    1    1    2    0    0 -0.47763298893E+01  0.23836607622E+02  0.29261322499E+03  0.30443507121E+03  0.80419002446E+02 0.  1.
        -24    1    1    2    0    0  0.47763298893E+01 -0.23836607622E+02  0.23779048159E+04  0.23793884774E+04  0.80419002446E+02 0. -1.
<mgrwt>
<rscale>  0 0.84013172E+02</rscale>
<asrwt>0</asrwt>
<pdfrwt beam="1">  1        1 0.41187157E+00 0.84013172E+02</pdfrwt>
<pdfrwt beam="2">  1       -1 0.10235027E-02 0.84013172E+02</pdfrwt>
<totfact> 0.22092644E+03</totfact>
</mgrwt>
</event>
<event>
 4    1  0.5074571E-001  0.8976298E+02  0.7546771E-02  0.1303427E+00
         -2   -1    0    0    0  501 -0.00000000000E+00  0.00000000000E+00  0.12786676444E+02  0.12786676444E+02  0.00000000000E+00 0.  1.
          2   -1    0    0  501    0  0.00000000000E+00 -0.00000000000E+00 -0.63578316449E+03  0.63578316449E+03  0.00000000000E+00 0. -1.
         24    1    1    2    0    0 -0.35736306277E+02 -0.17694448673E+02 -0.34205050440E+03  0.35363249372E+03  0.80419002446E+02 0.  1.
        -24    1    1    2    0    0  0.35736306277E+02  0.17694448673E+02 -0.28094598364E+03  0.29493734721E+03  0.80419002446E+02 0. -1.
<mgrwt>
<rscale>  0 0.89762983E+02</rscale>
<asrwt>0</asrwt>
<pdfrwt beam="1">  1        2 0.97812802E-01 0.89762983E+02</pdfrwt>
<pdfrwt beam="2">  1       -2 0.19671808E-02 0.89762983E+02</pdfrwt>
<totfact> 0.33476319E+04</totfact>
</mgrwt>
</event>
<event>
 4    1  0.5074571E-001  0.1380667E+03  0.7546771E-02  0.1215954E+00
          2   -1    0    0  501    0  0.00000000000E+00  0.00000000000E+00  0.56255265603E+03  0.56255265603E+03  0.00000000000E+00 0. -1.
         -2   -1    0    0    0  501 -0.00000000000E+00 -0.00000000000E+00 -0.45970759649E+02  0.45970759649E+02  0.00000000000E+00 0.  1.
         24    1    1    2    0    0  0.48493668311E+02 -0.10121054630E+03  0.41429393123E+03  0.43669427287E+03  0.80419002446E+02 0. -1.
        -24    1    1    2    0    0 -0.48493668311E+02  0.10121054630E+03  0.10228796515E+03  0.17182914281E+03  0.80419002446E+02 0.  1.
<mgrwt>
<rscale>  0 0.13806675E+03</rscale>
<asrwt>0</asrwt>
<pdfrwt beam="1">  1        2 0.86546558E-01 0.13806675E+03</pdfrwt>
<pdfrwt beam="2">  1       -2 0.70724250E-02 0.13806675E+03</pdfrwt>
<totfact> 0.60107655E+03</totfact>
</mgrwt>
</event>
<event>
 4    1  0.5074571E-001  0.9086634E+02  0.7546771E-02  0.1300767E+00
         -2   -1    0    0    0  501 -0.00000000000E+00  0.00000000000E+00  0.41637239844E+01  0.41637239844E+01  0.00000000000E+00 0.  1.
          2   -1    0    0  501    0  0.00000000000E+00 -0.00000000000E+00 -0.20281361861E+04  0.20281361861E+04  0.00000000000E+00 0. -1.
         24    1    1    2    0    0 -0.36754230480E+02 -0.20942826341E+02 -0.11635658433E+04  0.11671084624E+04  0.80419002446E+02 0. -1.
        -24    1    1    2    0    0  0.36754230480E+02  0.20942826341E+02 -0.86040661879E+03  0.86519144763E+03  0.80419002446E+02 0.  1.
<mgrwt>
<rscale>  0 0.90866338E+02</rscale>
<asrwt>0</asrwt>
<pdfrwt beam="1">  1        2 0.31202121E+00 0.90866338E+02</pdfrwt>
<pdfrwt beam="2">  1       -2 0.64057240E-03 0.90866338E+02</pdfrwt>
<totfact> 0.27516254E+04</totfact>
</mgrwt>
</event>
<event>
 4    1  0.5074571E-001  0.1006879E+03  0.7546771E-02  0.1278856E+00
         -2   -1    0    0    0  501 -0.00000000000E+00  0.00000000000E+00  0.15139159166E+02  0.15139159166E+02  0.00000000000E+00 0.  1.
          2   -1    0    0  501    0  0.00000000000E+00 -0.00000000000E+00 -0.14328725284E+04  0.14328725284E+04  0.00000000000E+00 0. -1.
         24    1    1    2    0    0 -0.51016778253E+02  0.32682117643E+02 -0.12372654661E+04  0.12413556630E+04  0.80419002446E+02 0. -1.
        -24    1    1    2    0    0  0.51016778253E+02 -0.32682117643E+02 -0.18046790312E+03  0.20665602456E+03  0.80419002446E+02 0.  1.
<mgrwt>
<rscale>  0 0.10068788E+03</rscale>
<asrwt>0</asrwt>
<pdfrwt beam="1">  1        2 0.22044189E+00 0.10068788E+03</pdfrwt>
<pdfrwt beam="2">  1       -2 0.23291018E-02 0.10068788E+03</pdfrwt>
<totfact> 0.88123285E+03</totfact>
</mgrwt>
</event>
<event>
 4    1  0.5074571E-001  0.1401179E+03  0.7546771E-02  0.1213170E+00
          1   -1    0    0  501    0  0.00000000000E+00  0.00000000000E+00  0.19025994477E+03  0.19025994477E+03  0.00000000000E+00 0. -1.
         -1   -1    0    0    0  501 -0.00000000000E+00 -0.00000000000E+00 -0.13859582122E+03  0.13859582122E+03  0.00000000000E+00 0.  1.
         24    1    1    2    0    0  0.64359768298E+02  0.94992859252E+02 -0.57274251212E+02  0.15137165815E+03  0.80419002446E+02 0.  1.
        -24    1    1    2    0    0 -0.64359768298E+02 -0.94992859252E+02  0.10893837476E+03  0.17748410784E+03  0.80419002446E+02 0. -1.
<mgrwt>
<rscale>  0 0.14011795E+03</rscale>
<asrwt>0</asrwt>
<pdfrwt beam="1">  1        1 0.29270761E-01 0.14011795E+03</pdfrwt>
<pdfrwt beam="2">  1       -1 0.21322434E-01 0.14011795E+03</pdfrwt>
<totfact> 0.27523296E+03</totfact>
</mgrwt>
</event>
<event>
 4    1  0.5074571E-001  0.8232749E+02  0.7546771E-02  0.1322573E+00
         -3   -1    0    0    0  501 -0.00000000000E+00  0.00000000000E+00  0.25583237853E+03  0.25583237853E+03  0.00000000000E+00 0.  1.
          3   -1    0    0  501    0  0.00000000000E+00 -0.00000000000E+00 -0.26994768794E+02  0.26994768794E+02  0.00000000000E+00 0. -1.
         24    1    1    2    0    0  0.25971366894E+01  0.17431446530E+02  0.13369493627E+03  0.15701003913E+03  0.80419002446E+02 0.  1.
        -24    1    1    2    0    0 -0.25971366894E+01 -0.17431446530E+02  0.95142673461E+02  0.12581710820E+03  0.80419002446E+02 0. -1.
<mgrwt>
<rscale>  0 0.82327495E+02</rscale>
<asrwt>0</asrwt>
<pdfrwt beam="1">  1        3 0.41530415E-02 0.82327495E+02</pdfrwt>
<pdfrwt beam="2">  1       -3 0.39358826E-01 0.82327495E+02</pdfrwt>
<totfact> 0.40255349E+03</totfact>
</mgrwt>
</event>
<event>
 4    1  0.5074571E-001  0.8998733E+02  0.7546771E-02  0.1302882E+00
          2   -1    0    0  501    0  0.00000000000E+00  0.00000000000E+00  0.28354021386E+03  0.28354021386E+03  0.00000000000E+00 0. -1.
         -2   -1    0    0    0  501 -0.00000000000E+00 -0.00000000000E+00 -0.47031937751E+02  0.47031937751E+02  0.00000000000E+00 0.  1.
         24    1    1    2    0    0  0.23395903648E+02 -0.32911027392E+02  0.22184080919E+03  0.23939729449E+03  0.80419002446E+02 0.  0.
        -24    1    1    2    0    0 -0.23395903648E+02  0.32911027392E+02  0.14667466920E+02  0.91174857125E+02  0.80419002446E+02 0.  0.
<mgrwt>
<rscale>  0 0.89987332E+02</rscale>
<asrwt>0</asrwt>
<pdfrwt beam="1">  1        2 0.43621570E-01 0.89987332E+02</pdfrwt>
<pdfrwt beam="2">  1       -2 0.72356829E-02 0.89987332E+02</pdfrwt>
<totfact> 0.11707207E+04</totfact>
</mgrwt>
</event>
<event>
 4    1  0.5074571E-001  0.8659614E+02  0.7546771E-02  0.1311310E+00
          2   -1    0    0  501    0  0.00000000000E+00  0.00000000000E+00  0.12425980423E+04  0.12425980423E+04  0.00000000000E+00 0. -1.
         -2   -1    0    0    0  501 -0.00000000000E+00 -0.00000000000E+00 -0.76605482903E+01  0.76605482903E+01  0.00000000000E+00 0.  1.
         24    1    1    2    0    0 -0.17097356070E+00  0.32119245188E+02  0.90544725768E+03  0.90957881876E+03  0.80419002446E+02 0. -1.
        -24    1    1    2    0    0  0.17097356070E+00 -0.32119245188E+02  0.32949023635E+03  0.34067977185E+03  0.80419002446E+02 0.  1.
<mgrwt>
<rscale>  0 0.86596138E+02</rscale>
<asrwt>0</asrwt>
<pdfrwt beam="1">  1        2 0.19116877E+00 0.86596138E+02</pdfrwt>
<pdfrwt beam="2">  1       -2 0.11785469E-02 0.86596138E+02</pdfrwt>
<totfact> 0.29109451E+04</totfact>
</mgrwt>
</event>
<event>
 4    1  0.5074571E-001  0.8534266E+02  0.7546771E-02  0.1314539E+00
         -1   -1    0    0    0  501 -0.00000000000E+00  0.00000000000E+00  0.13017012393E+02  0.13017012393E+02  0.00000000000E+00 0.  1.
          1   -1    0    0  501    0  0.00000000000E+00 -0.00000000000E+00 -0.12171141847E+04  0.12171141847E+04  0.00000000000E+00 0. -1.
         24    1    1    2    0    0 -0.22874732460E+02 -0.17114320190E+02 -0.14995071635E+03  0.17253575464E+03  0.80419002446E+02 0.  0.
        -24    1    1    2    0    0  0.22874732460E+02  0.17114320190E+02 -0.10541464560E+04  0.10575954425E+04  0.80419002446E+02 0.  0.
<mgrwt>
<rscale>  0 0.85342658E+02</rscale>
<asrwt>0</asrwt>
<pdfrwt beam="1">  1        1 0.18724834E+00 0.85342658E+02</pdfrwt>
<pdfrwt beam="2">  1       -1 0.20026172E-02 0.85342658E+02</pdfrwt>
<totfact> 0.72456835E+03</totfact>
</mgrwt>
</event>
<event>
 4    1  0.5074571E-001  0.8688308E+02  0.7546771E-02  0.1310580E+00
          2   -1    0    0  501    0  0.00000000000E+00  0.00000000000E+00  0.80637915578E+03  0.80637915578E+03  0.00000000000E+00 0. -1.
         -2   -1    0    0    0  501 -0.00000000000E+00 -0.00000000000E+00 -0.13175315138E+02  0.13175315138E+02  0.00000000000E+00 0.  1.
         24    1    1    2    0    0 -0.29955838343E+02  0.13568426802E+02  0.61707961309E+03  0.62316604472E+03  0.80419002446E+02 0. -1.
        -24    1    1    2    0    0  0.29955838343E+02 -0.13568426802E+02  0.17612422756E+03  0.19638842620E+03  0.80419002446E+02 0. -1.
<mgrwt>
<rscale>  0 0.86883085E+02</rscale>
<asrwt>0</asrwt>
<pdfrwt beam="1">  1        2 0.12405829E+00 0.86883085E+02</pdfrwt>
<pdfrwt beam="2">  1       -2 0.20269722E-02 0.86883085E+02</pdfrwt>
<totfact> 0.24170200E+04</totfact>
</mgrwt>
</event>
<event>
 4    1  0.5074571E-001  0.1795210E+03  0.7546771E-02  0.1168267E+00
          2   -1    0    0  501    0  0.00000000000E+00  0.00000000000E+00  0.13811916705E+04  0.13811916705E+04  0.00000000000E+00 0. -1.
         -2   -1    0    0    0  501 -0.00000000000E+00 -0.00000000000E+00 -0.34332786758E+02  0.34332786758E+02  0.00000000000E+00 0.  1.
         24    1    1    2    0    0  0.13775489980E+03  0.82365961433E+02  0.10740366628E+04  0.10889364229E+04  0.80419002446E+02 0. -1.
        -24    1    1    2    0    0 -0.13775489980E+03 -0.82365961433E+02  0.27282222094E+03  0.32658803440E+03  0.80419002446E+02 0.  1.
<mgrwt>
<rscale>  0 0.17952097E+03</rscale>
<asrwt>0</asrwt>
<pdfrwt beam="1">  1        2 0.21249098E+00 0.17952097E+03</pdfrwt>
<pdfrwt beam="2">  1       -2 0.52819682E-02 0.17952097E+03</pdfrwt>
<totfact> 0.28407420E+03</totfact>
</mgrwt>
</event>
<event>
 4    1  0.5074571E-001  0.1150817E+03  0.7546771E-02  0.1251439E+00
          1   -1    0    0  501    0  0.00000000000E+00  0.00000000000E+00  0.19649704133E+03  0.19649704133E+03  0.00000000000E+00 0. -1.
         -1   -1    0    0    0  501 -0.00000000000E+00 -0.00000000000E+00 -0.80633614940E+02  0.80633614940E+02  0.00000000000E+00 0.  1.
         24    1    1    2    0    0 -0.81171297070E+02 -0.13703750570E+02  0.17952378765E+01  0.11509566057E+03  0.80419002446E+02 0. -1.
        -24    1    1    2    0    0  0.81171297070E+02  0.13703750570E+02  0.11406818851E+03  0.16203499570E+03  0.80419002446E+02 0.  1.
<mgrwt>
<rscale>  0 0.11508166E+03</rscale>
<asrwt>0</asrwt>
<pdfrwt beam="1">  1        1 0.30230314E-01 0.11508166E+03</pdfrwt>
<pdfrwt beam="2">  1       -1 0.12405172E-01 0.11508166E+03</pdfrwt>
<totfact> 0.61381570E+03</totfact>
</mgrwt>
</event>
<event>
 4    1  0.5074571E-001  0.8730037E+02  0.7546771E-02  0.1309524E+00
          2   -1    0    0  501    0  0.00000000000E+00  0.00000000000E+00  0.93186154012E+03  0.93186154012E+03  0.00000000000E+00 0. -1.
         -2   -1    0    0    0  501 -0.00000000000E+00 -0.00000000000E+00 -0.72937649927E+02  0.72937649927E+02  0.00000000000E+00 0.  1.
         24    1    1    2    0    0  0.33351467858E+02 -0.64666430517E+01  0.90285678553E+03  0.90706765405E+03  0.80419002446E+02 0. -1.
        -24    1    1    2    0    0 -0.33351467858E+02  0.64666430517E+01 -0.43932895344E+02  0.97731535997E+02  0.80419002446E+02 0.  1.
<mgrwt>
<rscale>  0 0.87300366E+02</rscale>
<asrwt>0</asrwt>
<pdfrwt beam="1">  1        2 0.14336331E+00 0.87300366E+02</pdfrwt>
<pdfrwt beam="2">  1       -2 0.11221178E-01 0.87300366E+02</pdfrwt>
<totfact> 0.15803316E+03</totfact>
</mgrwt>
</event>
<event>
 4    1  0.5074571E-001  0.9821464E+02  0.7546771E-02  0.1284096E+00
          2   -1    0    0  501    0  0.00000000000E+00  0.00000000000E+00  0.11275309798E+04  0.11275309798E+04  0.00000000000E+00 0. -1.
         -2   -1    0    0    0  501 -0.00000000000E+00 -0.00000000000E+00 -0.88694395428E+01  0.88694395428E+01  0.00000000000E+00 0.  1.
         24    1    1    2    0    0  0.56225535856E+02 -0.41938729295E+01  0.66630226151E+03  0.67350190728E+03  0.80419002446E+02 0. -1.
        -24    1    1    2    0    0 -0.56225535856E+02  0.41938729295E+01  0.45235927870E+03  0.46289851202E+03  0.80419002446E+02 0.  1.
<mgrwt>
<rscale>  0 0.98214639E+02</rscale>
<asrwt>0</asrwt>
<pdfrwt beam="1">  1        2 0.17346619E+00 0.98214639E+02</pdfrwt>
<pdfrwt beam="2">  1       -2 0.13645301E-02 0.98214639E+02</pdfrwt>
<totfact> 0.27621108E+04</totfact>
</mgrwt>
</event>
<event>
 4    1  0.5074571E-001  0.1028726E+03  0.7546771E-02  0.1274369E+00
          1   -1    0    0  501    0  0.00000000000E+00  0.00000000000E+00  0.13490450314E+04  0.13490450314E+04  0.00000000000E+00 0. -1.
         -1   -1    0    0    0  501 -0.00000000000E+00 -0.00000000000E+00 -0.84928247666E+01  0.84928247666E+01  0.00000000000E+00 0.  1.
         24    1    1    2    0    0  0.61116714835E+02 -0.19501201067E+02  0.48275635278E+03  0.49359544344E+03  0.80419002446E+02 0. -1.
        -24    1    1    2    0    0 -0.61116714835E+02  0.19501201067E+02  0.85779585383E+03  0.86394241271E+03  0.80419002446E+02 0.  1.
<mgrwt>
<rscale>  0 0.10287257E+03</rscale>
<asrwt>0</asrwt>
<pdfrwt beam="1">  1        1 0.20754522E+00 0.10287257E+03</pdfrwt>
<pdfrwt beam="2">  1       -1 0.13065895E-02 0.10287257E+03</pdfrwt>
<totfact> 0.10999625E+04</totfact>
</mgrwt>
</event>
<event>
 4    1  0.5074571E-001  0.8699223E+02  0.7546771E-02  0.1310303E+00
          1   -1    0    0  501    0  0.00000000000E+00  0.00000000000E+00  0.23455326476E+04  0.23455326476E+04  0.00000000000E+00 0. -1.
         -1   -1    0    0    0  501 -0.00000000000E+00 -0.00000000000E+00 -0.17520536747E+02  0.17520536747E+02  0.00000000000E+00 0.  1.
         24    1    1    2    0    0 -0.18624396515E+02 -0.27451125466E+02  0.96799161803E+02  0.13014501956E+03  0.80419002446E+02 0.  1.
        -24    1    1    2    0    0  0.18624396515E+02  0.27451125466E+02  0.22312129491E+04  0.22329081648E+04  0.80419002446E+02 0. -1.
<mgrwt>
<rscale>  0 0.86992232E+02</rscale>
<asrwt>0</asrwt>
<pdfrwt beam="1">  1        1 0.36085093E+00 0.86992232E+02</pdfrwt>
<pdfrwt beam="2">  1       -1 0.26954690E-02 0.86992232E+02</pdfrwt>
<totfact> 0.91275682E+02</totfact>
</mgrwt>
</event>
<event>
 4    1  0.5074571E-001  0.8194880E+02  0.7546771E-02  0.1323610E+00
          2   -1    0    0  501    0  0.00000000000E+00  0.00000000000E+00  0.82794918886E+03  0.82794918886E+03  0.00000000000E+00 0. -1.
         -2   -1    0    0    0  501 -0.00000000000E+00 -0.00000000000E+00 -0.53465362745E+02  0.53465362745E+02  0.00000000000E+00 0.  1.
         24    1    1    2    0    0 -0.14266502017E+02  0.66975445932E+01  0.79314547145E+03  0.79736776020E+03  0.80419002446E+02 0. -1.
        -24    1    1    2    0    0  0.14266502017E+02 -0.66975445932E+01 -0.18661645334E+02  0.84046791398E+02  0.80419002446E+02 0.  1.
<mgrwt>
<rscale>  0 0.81948802E+02</rscale>
<asrwt>0</asrwt>
<pdfrwt beam="1">  1        2 0.12737679E+00 0.81948802E+02</pdfrwt>
<pdfrwt beam="2">  1       -2 0.82254410E-02 0.81948802E+02</pdfrwt>
<totfact> 0.29623538E+03</totfact>
</mgrwt>
</event>
<event>
 4    1  0.5074571E-001  0.8315008E+02  0.7546771E-02  0.1320342E+00
         -2   -1    0    0    0  501 -0.00000000000E+00  0.00000000000E+00  0.27953230937E+02  0.27953230937E+02  0.00000000000E+00 0.  1.
          2   -1    0    0  501    0  0.00000000000E+00 -0.00000000000E+00 -0.25285681766E+03  0.25285681766E+03  0.00000000000E+00 0. -1.
         24    1    1    2    0    0  0.92215076221E+01 -0.19017966911E+02 -0.13319201772E+03  0.15701607818E+03  0.80419002446E+02 0. -1.
        -24    1    1    2    0    0 -0.92215076221E+01  0.19017966911E+02 -0.91711568998E+02  0.12379397041E+03  0.80419002446E+02 0. -1.
<mgrwt>
<rscale>  0 0.83150077E+02</rscale>
<asrwt>0</asrwt>
<pdfrwt beam="1">  1        2 0.38901048E-01 0.83150077E+02</pdfrwt>
<pdfrwt beam="2">  1       -2 0.43004971E-02 0.83150077E+02</pdfrwt>
<totfact> 0.28453209E+04</totfact>
</mgrwt>
</event>
<event>
 4    1  0.5074571E-001  0.8219915E+02  0.7546771E-02  0.1322924E+00
          2   -1    0    0  501    0  0.00000000000E+00  0.00000000000E+00  0.13680145671E+04  0.13680145671E+04  0.00000000000E+00 0. -1.
         -2   -1    0    0    0  501 -0.00000000000E+00 -0.00000000000E+00 -0.62582753506E+01  0.62582753506E+01  0.00000000000E+00 0.  1.
         24    1    1    2    0    0 -0.15382712493E+02 -0.72702404100E+01  0.99635985512E+03  0.99974479798E+03  0.80419002446E+02 0. -1.
        -24    1    1    2    0    0  0.15382712493E+02  0.72702404100E+01  0.36539643664E+03  0.37452804448E+03  0.80419002446E+02 0.  0.
<mgrwt>
<rscale>  0 0.82199150E+02</rscale>
<asrwt>0</asrwt>
<pdfrwt beam="1">  1        2 0.21046354E+00 0.82199150E+02</pdfrwt>
<pdfrwt beam="2">  1       -2 0.96281268E-03 0.82199150E+02</pdfrwt>
<totfact> 0.33119964E+04</totfact>
</mgrwt>
</event>
<event>
 4    1  0.5074571E-001  0.8123230E+02  0.7546771E-02  0.1325590E+00
          2   -1    0    0  501    0  0.00000000000E+00  0.00000000000E+00  0.21643637653E+04  0.21643637653E+04  0.00000000000E+00 0. -1.
         -2   -1    0    0    0  501 -0.00000000000E+00 -0.00000000000E+00 -0.66939538093E+01  0.66939538093E+01  0.00000000000E+00 0.  1.
         24    1    1    2    0    0  0.29925934927E+01 -0.11068676164E+02  0.18798830856E+04  0.18816373462E+04  0.80419002446E+02 0. -1.
        -24    1    1    2    0    0 -0.29925934927E+01  0.11068676164E+02  0.27778672587E+03  0.28942037287E+03  0.80419002446E+02 0.  0.
<mgrwt>
<rscale>  0 0.81232304E+02</rscale>
<asrwt>0</asrwt>
<pdfrwt beam="1">  1        2 0.33297848E+00 0.81232304E+02</pdfrwt>
<pdfrwt beam="2">  1       -2 0.10298408E-02 0.81232304E+02</pdfrwt>
<totfact> 0.11961556E+04</totfact>
</mgrwt>
</event>
<event>
 4    1  0.5074571E-001  0.8646889E+02  0.7546771E-02  0.1311635E+00
         -1   -1    0    0    0  501 -0.00000000000E+00  0.00000000000E+00  0.53744750797E+03  0.53744750797E+03  0.00000000000E+00 0.  1.
          1   -1    0    0  501    0  0.00000000000E+00 -0.00000000000E+00 -0.21344931042E+02  0.21344931042E+02  0.00000000000E+00 0. -1.
         24    1    1    2    0    0  0.27625984385E+02  0.15698974804E+02  0.42292776077E+03  0.43167668411E+03  0.80419002446E+02 0.  1.
        -24    1    1    2    0    0 -0.27625984385E+02 -0.15698974804E+02  0.93174816161E+02  0.12711575490E+03  0.80419002446E+02 0. -1.
<mgrwt>
<rscale>  0 0.86468889E+02</rscale>
<asrwt>0</asrwt>
<pdfrwt beam="1">  1        1 0.32838359E-02 0.86468889E+02</pdfrwt>
<pdfrwt beam="2">  1       -1 0.82684222E-01 0.86468889E+02</pdfrwt>
<totfact> 0.42273493E+03</totfact>
</mgrwt>
</event>
<event>
 4    1  0.5074571E-001  0.8903606E+02  0.7546771E-02  0.1305203E+00
         -1   -1    0    0    0  501 -0.00000000000E+00  0.00000000000E+00  0.54780796496E+02  0.54780796496E+02  0.00000000000E+00 0.  1.
          1   -1    0    0  501    0  0.00000000000E+00 -0.00000000000E+00 -0.19088773025E+03  0.19088773025E+03  0.00000000000E+00 0. -1.
         24    1    1    2    0    0  0.22353226588E+00  0.38211951118E+02 -0.76392600140E+01  0.89363177108E+02  0.80419002446E+02 0.  1.
        -24    1    1    2    0    0 -0.22353226588E+00 -0.38211951118E+02 -0.12846767374E+03  0.15630534964E+03  0.80419002446E+02 0. -1.
<mgrwt>
<rscale>  0 0.89036055E+02</rscale>
<asrwt>0</asrwt>
<pdfrwt beam="1">  1        1 0.29367344E-01 0.89036055E+02</pdfrwt>
<pdfrwt beam="2">  1       -1 0.84278147E-02 0.89036055E+02</pdfrwt>
<totfact> 0.11195772E+04</totfact>
</mgrwt>
</event>
<event>
 4    1  0.5074571E-001  0.8141039E+02  0.7546771E-02  0.1325096E+00
          1   -1    0    0  501    0  0.00000000000E+00  0.00000000000E+00  0.64909151803E+02  0.64909151803E+02  0.00000000000E+00 0. -1.
         -1   -1    0    0    0  501 -0.00000000000E+00 -0.00000000000E+00 -0.10212246247E+03  0.10212246247E+03  0.00000000000E+00 0.  1.
         24    1    1    2    0    0 -0.11927911960E+02  0.42610604594E+01 -0.17563205168E+02  0.83283334768E+02  0.80419002446E+02 0.  1.
        -24    1    1    2    0    0  0.11927911960E+02 -0.42610604594E+01 -0.19650105503E+02  0.83748279508E+02  0.80419002446E+02 0.  0.
<mgrwt>
<rscale>  0 0.81410376E+02</rscale>
<asrwt>0</asrwt>
<pdfrwt beam="1">  1        1 0.99860234E-02 0.81410386E+02</pdfrwt>
<pdfrwt beam="2">  1       -1 0.15711148E-01 0.81410386E+02</pdfrwt>
<totfact> 0.16848781E+04</totfact>
</mgrwt>
</event>
<event>
 4    1  0.5074571E-001  0.8925997E+02  0.7546771E-02  0.1304654E+00
          2   -1    0    0  501    0  0.00000000000E+00  0.00000000000E+00  0.93704630295E+03  0.93704630295E+03  0.00000000000E+00 0. -1.
         -2   -1    0    0    0  501 -0.00000000000E+00 -0.00000000000E+00 -0.89756866238E+01  0.89756866238E+01  0.00000000000E+00 0.  1.
         24    1    1    2    0    0  0.11691466484E+02 -0.36924686534E+02  0.35544192624E+03  0.36647824185E+03  0.80419002446E+02 0.  1.
        -24    1    1    2    0    0 -0.11691466484E+02  0.36924686534E+02  0.57262869008E+03  0.57954374772E+03  0.80419002446E+02 0. -1.
<mgrwt>
<rscale>  0 0.89259962E+02</rscale>
<asrwt>0</asrwt>
<pdfrwt beam="1">  1        2 0.14416089E+00 0.89259973E+02</pdfrwt>
<pdfrwt beam="2">  1       -2 0.13808756E-02 0.89259973E+02</pdfrwt>
<totfact> 0.34698497E+04</totfact>
</mgrwt>
</event>
<event>
 4    1  0.5074571E-001  0.8096991E+02  0.7546771E-02  0.1326321E+00
         -1   -1    0    0    0  501 -0.00000000000E+00  0.00000000000E+00  0.24284566125E+03  0.24284566125E+03  0.00000000000E+00 0.  1.
          1   -1    0    0  501    0  0.00000000000E+00 -0.00000000000E+00 -0.51663047223E+02  0.51663047223E+02  0.00000000000E+00 0. -1.
         24    1    1    2    0    0 -0.78566141753E+01  0.52137568779E+01  0.19733960284E+03  0.21330505022E+03  0.80419002446E+02 0.  1.
        -24    1    1    2    0    0  0.78566141753E+01 -0.52137568779E+01 -0.61569888156E+01  0.81203658247E+02  0.80419002446E+02 0.  0.
<mgrwt>
<rscale>  0 0.80969906E+02</rscale>
<asrwt>0</asrwt>
<pdfrwt beam="1">  1        1 0.79481613E-02 0.80969906E+02</pdfrwt>
<pdfrwt beam="2">  1       -1 0.37360870E-01 0.80969906E+02</pdfrwt>
<totfact> 0.55862568E+03</totfact>
</mgrwt>
</event>
<event>
 4    1  0.5074571E-001  0.8624602E+02  0.7546771E-02  0.1312206E+00
          2   -1    0    0  501    0  0.00000000000E+00  0.00000000000E+00  0.31891455743E+03  0.31891455743E+03  0.00000000000E+00 0. -1.
         -2   -1    0    0    0  501 -0.00000000000E+00 -0.00000000000E+00 -0.42949289090E+02  0.42949289090E+02  0.00000000000E+00 0.  1.
         24    1    1    2    0    0  0.23099715680E+02 -0.20918013689E+02  0.26028779723E+03  0.27420451036E+03  0.80419002446E+02 0. -1.
        -24    1    1    2    0    0 -0.23099715680E+02  0.20918013689E+02  0.15677471110E+02  0.87659336160E+02  0.80419002446E+02 0.  1.
<mgrwt>
<rscale>  0 0.86246021E+02</rscale>
<asrwt>0</asrwt>
<pdfrwt beam="1">  1        2 0.49063777E-01 0.86246021E+02</pdfrwt>
<pdfrwt beam="2">  1       -2 0.66075831E-02 0.86246021E+02</pdfrwt>
<totfact> 0.11832794E+04</totfact>
</mgrwt>
</event>
<event>
 4    1  0.5074571E-001  0.8521234E+02  0.7546771E-02  0.1314878E+00
         -2   -1    0    0    0  501 -0.00000000000E+00  0.00000000000E+00  0.32245010183E+02  0.32245010183E+02  0.00000000000E+00 0.  1.
          2   -1    0    0  501    0  0.00000000000E+00 -0.00000000000E+00 -0.22976879148E+03  0.22976879148E+03  0.00000000000E+00 0. -1.
         24    1    1    2    0    0  0.26979213059E+02 -0.81271008691E+01 -0.11726250190E+03  0.14495391686E+03  0.80419002446E+02 0. -1.
        -24    1    1    2    0    0 -0.26979213059E+02  0.81271008691E+01 -0.80261279396E+02  0.11705988480E+03  0.80419002446E+02 0.  1.
<mgrwt>
<rscale>  0 0.85212345E+02</rscale>
<asrwt>0</asrwt>
<pdfrwt beam="1">  1        2 0.35349046E-01 0.85212345E+02</pdfrwt>
<pdfrwt beam="2">  1       -2 0.49607707E-02 0.85212345E+02</pdfrwt>
<totfact> 0.25555486E+04</totfact>
</mgrwt>
</event>
<event>
 4    1  0.5074571E-001  0.9845330E+02  0.7546771E-02  0.1283582E+00
         -1   -1    0    0    0  501 -0.00000000000E+00  0.00000000000E+00  0.47585960399E+01  0.47585960399E+01  0.00000000000E+00 0.  1.
          1   -1    0    0  501    0  0.00000000000E+00 -0.00000000000E+00 -0.21687103250E+04  0.21687103250E+04  0.00000000000E+00 0. -1.
         24    1    1    2    0    0  0.42690887581E+02  0.37460905612E+02 -0.13498349039E+04  0.13534205980E+04  0.80419002446E+02 0. -1.
        -24    1    1    2    0    0 -0.42690887581E+02 -0.37460905612E+02 -0.81411682512E+03  0.82004832311E+03  0.80419002446E+02 0.  1.
<mgrwt>
<rscale>  0 0.98453287E+02</rscale>
<asrwt>0</asrwt>
<pdfrwt beam="1">  1        1 0.33364799E+00 0.98453299E+02</pdfrwt>
<pdfrwt beam="2">  1       -1 0.73209115E-03 0.98453299E+02</pdfrwt>
<totfact> 0.75223264E+03</totfact>
</mgrwt>
</event>
<event>
 4    1  0.5074571E-001  0.8357924E+02  0.7546771E-02  0.1319190E+00
         -1   -1    0    0    0  501 -0.00000000000E+00  0.00000000000E+00  0.55286341400E+01  0.55286341400E+01  0.00000000000E+00 0.  1.
          1   -1    0    0  501    0  0.00000000000E+00 -0.00000000000E+00 -0.13517659050E+04  0.13517659050E+04  0.00000000000E+00 0. -1.
         24    1    1    2    0    0  0.21539741505E+02 -0.73697708191E+01 -0.49971314782E+03  0.50665443850E+03  0.80419002446E+02 0. -1.
        -24    1    1    2    0    0 -0.21539741505E+02  0.73697708191E+01 -0.84652412306E+03  0.85064010066E+03  0.80419002446E+02 0. -1.
<mgrwt>
<rscale>  0 0.83579243E+02</rscale>
<asrwt>0</asrwt>
<pdfrwt beam="1">  1        1 0.20796408E+00 0.83579243E+02</pdfrwt>
<pdfrwt beam="2">  1       -1 0.85055871E-03 0.83579243E+02</pdfrwt>
<totfact> 0.19791824E+04</totfact>
</mgrwt>
</event>
<event>
 4    1  0.5074571E-001  0.1389274E+03  0.7546771E-02  0.1214780E+00
          2   -1    0    0  501    0  0.00000000000E+00  0.00000000000E+00  0.17732638087E+04  0.17732638087E+04  0.00000000000E+00 0. -1.
         -2   -1    0    0    0  501 -0.00000000000E+00 -0.00000000000E+00 -0.11047312039E+02  0.11047312039E+02  0.00000000000E+00 0.  1.
         24    1    1    2    0    0  0.77268970393E+02 -0.82843792893E+02  0.77274783312E+03  0.78513694178E+03  0.80419002446E+02 0.  1.
        -24    1    1    2    0    0 -0.77268970393E+02  0.82843792893E+02  0.98946866355E+03  0.99917417896E+03  0.80419002446E+02 0. -1.
<mgrwt>
<rscale>  0 0.13892735E+03</rscale>
<asrwt>0</asrwt>
<pdfrwt beam="1">  1        2 0.27280959E+00 0.13892737E+03</pdfrwt>
<pdfrwt beam="2">  1       -2 0.16995879E-02 0.13892737E+03</pdfrwt>
<totfact> 0.94210978E+03</totfact>
</mgrwt>
</event>
<event>
 4    1  0.5074571E-001  0.1203732E+03  0.7546771E-02  0.1242483E+00
          2   -1    0    0  501    0  0.00000000000E+00  0.00000000000E+00  0.15822913549E+04  0.15822913549E+04  0.00000000000E+00 0. -1.
         -2   -1    0    0    0  501 -0.00000000000E+00 -0.00000000000E+00 -0.95436760966E+01  0.95436760966E+01  0.00000000000E+00 0.  1.
         24    1    1    2    0    0 -0.86909364571E+02  0.21662016898E+02  0.94649598997E+03  0.95411967573E+03  0.80419002446E+02 0. -1.
        -24    1    1    2    0    0  0.86909364571E+02 -0.21662016898E+02  0.62625168888E+03  0.63771535531E+03  0.80419002446E+02 0.  1.
<mgrwt>
<rscale>  0 0.12037316E+03</rscale>
<asrwt>0</asrwt>
<pdfrwt beam="1">  1        2 0.24342923E+00 0.12037316E+03</pdfrwt>
<pdfrwt beam="2">  1       -2 0.14682591E-02 0.12037316E+03</pdfrwt>
<totfact> 0.14480372E+04</totfact>
</mgrwt>
</event>
<event>
 4    1  0.5074571E-001  0.8090428E+02  0.7546771E-02  0.1326505E+00
          2   -1    0    0  501    0  0.00000000000E+00  0.00000000000E+00  0.21081574540E+04  0.21081574540E+04  0.00000000000E+00 0. -1.
         -2   -1    0    0    0  501 -0.00000000000E+00 -0.00000000000E+00 -0.39951500841E+01  0.39951500841E+01  0.00000000000E+00 0.  1.
         24    1    1    2    0    0  0.35102028504E+01  0.81218796632E+01  0.15506190089E+04  0.15527281839E+04  0.80419002446E+02 0.  0.
        -24    1    1    2    0    0 -0.35102028504E+01 -0.81218796632E+01  0.55354329500E+03  0.55942442014E+03  0.80419002446E+02 0.  1.
<mgrwt>
<rscale>  0 0.80904279E+02</rscale>
<asrwt>0</asrwt>
<pdfrwt beam="1">  1        2 0.32433103E+00 0.80904279E+02</pdfrwt>
<pdfrwt beam="2">  1       -2 0.61464016E-03 0.80904279E+02</pdfrwt>
<totfact> 0.26370874E+04</totfact>
</mgrwt>
</event>
<event>
 4    1  0.5074571E-001  0.8419117E+02  0.7546771E-02  0.1317561E+00
         -1   -1    0    0    0  501 -0.00000000000E+00  0.00000000000E+00  0.25157322092E+03  0.25157322092E+03  0.00000000000E+00 0.  1.
          1   -1    0    0  501    0  0.00000000000E+00 -0.00000000000E+00 -0.33241237575E+02  0.33241237575E+02  0.00000000000E+00 0. -1.
         24    1    1    2    0    0  0.81679788421E+01  0.23541902139E+02  0.16475936378E+03  0.18502378480E+03  0.80419002446E+02 0.  1.
        -24    1    1    2    0    0 -0.81679788421E+01 -0.23541902139E+02  0.53572619565E+02  0.99790673693E+02  0.80419002446E+02 0. -1.
<mgrwt>
<rscale>  0 0.84191169E+02</rscale>
<asrwt>0</asrwt>
<pdfrwt beam="1">  1        1 0.51140367E-02 0.84191169E+02</pdfrwt>
<pdfrwt beam="2">  1       -1 0.38703571E-01 0.84191169E+02</pdfrwt>
<totfact> 0.95026748E+03</totfact>
</mgrwt>
</event>
<event>
 4    1  0.5074571E-001  0.9703918E+02  0.7546771E-02  0.1286648E+00
          2   -1    0    0  501    0  0.00000000000E+00  0.00000000000E+00  0.18839078070E+04  0.18839078070E+04  0.00000000000E+00 0. -1.
         -2   -1    0    0    0  501 -0.00000000000E+00 -0.00000000000E+00 -0.54551322678E+01  0.54551322678E+01  0.00000000000E+00 0.  1.
         24    1    1    2    0    0  0.48518608113E+02  0.24399410467E+02  0.12125605424E+04  0.12164372863E+04  0.80419002446E+02 0.  1.
        -24    1    1    2    0    0 -0.48518608113E+02 -0.24399410467E+02  0.66589213237E+03  0.67292565300E+03  0.80419002446E+02 0.  0.
<mgrwt>
<rscale>  0 0.97039180E+02</rscale>
<asrwt>0</asrwt>
<pdfrwt beam="1">  1        2 0.28983145E+00 0.97039180E+02</pdfrwt>
<pdfrwt beam="2">  1       -2 0.83925262E-03 0.97039180E+02</pdfrwt>
<totfact> 0.22314963E+04</totfact>
</mgrwt>
</event>
<event>
 4    1  0.5074571E-001  0.1180351E+03  0.7546771E-02  0.1246374E+00
         -3   -1    0    0    0  501 -0.00000000000E+00  0.00000000000E+00  0.55498650515E+03  0.55498650515E+03  0.00000000000E+00 0.  1.
          3   -1    0    0  501    0  0.00000000000E+00 -0.00000000000E+00 -0.27915620098E+02  0.27915620098E+02  0.00000000000E+00 0. -1.
         24    1    1    2    0    0  0.46627430642E+02  0.72738960426E+02  0.35603359795E+03  0.37508960593E+03  0.80419002446E+02 0.  1.
        -24    1    1    2    0    0 -0.46627430642E+02 -0.72738960426E+02  0.17103728710E+03  0.20781251932E+03  0.80419002446E+02 0. -1.
<mgrwt>
<rscale>  0 0.11803512E+03</rscale>
<asrwt>0</asrwt>
<pdfrwt beam="1">  1        3 0.42947112E-02 0.11803512E+03</pdfrwt>
<pdfrwt beam="2">  1       -3 0.85382531E-01 0.11803512E+03</pdfrwt>
<totfact> 0.84689031E+02</totfact>
</mgrwt>
</event>
<event>
 4    1  0.5074571E-001  0.9076522E+02  0.7546771E-02  0.1301009E+00
          2   -1    0    0  501    0  0.00000000000E+00  0.00000000000E+00  0.36813861656E+04  0.36813861656E+04  0.00000000000E+00 0. -1.
         -2   -1    0    0    0  501 -0.00000000000E+00 -0.00000000000E+00 -0.11134243672E+02  0.11134243672E+02  0.00000000000E+00 0.  1.
         24    1    1    2    0    0 -0.38569333681E+02  0.16837914843E+02  0.34854528529E+04  0.34866344682E+04  0.80419002446E+02 0. -1.
        -24    1    1    2    0    0  0.38569333681E+02 -0.16837914843E+02  0.18479906905E+03  0.20588594113E+03  0.80419002446E+02 0.  1.
<mgrwt>
<rscale>  0 0.90765218E+02</rscale>
<asrwt>0</asrwt>
<pdfrwt beam="1">  1        2 0.56636613E+00 0.90765218E+02</pdfrwt>
<pdfrwt beam="2">  1       -2 0.17129635E-02 0.90765218E+02</pdfrwt>
<totfact> 0.79537829E+02</totfact>
</mgrwt>
</event>
<event>
 4    1  0.5074571E-001  0.8931743E+02  0.7546771E-02  0.1304513E+00
         -1   -1    0    0    0  501 -0.00000000000E+00  0.00000000000E+00  0.12942136545E+03  0.12942136545E+03  0.00000000000E+00 0.  1.
          1   -1    0    0  501    0  0.00000000000E+00 -0.00000000000E+00 -0.44580876650E+03  0.44580876650E+03  0.00000000000E+00 0. -1.
         24    1    1    2    0    0 -0.36998309204E+02 -0.11895923241E+02  0.10879817532E+03  0.14076450825E+03  0.80419002446E+02 0.  1.
        -24    1    1    2    0    0  0.36998309204E+02  0.11895923241E+02 -0.42518557637E+03  0.43446562370E+03  0.80419002446E+02 0. -1.
<mgrwt>
<rscale>  0 0.89317433E+02</rscale>
<asrwt>0</asrwt>
<pdfrwt beam="1">  1        1 0.68585965E-01 0.89317433E+02</pdfrwt>
<pdfrwt beam="2">  1       -1 0.19910979E-01 0.89317433E+02</pdfrwt>
<totfact> 0.10554205E+03</totfact>
</mgrwt>
</event>
<event>
 4    1  0.5074571E-001  0.1023959E+03  0.7546771E-02  0.1275337E+00
          1   -1    0    0  501    0  0.00000000000E+00  0.00000000000E+00  0.14573897088E+04  0.14573897088E+04  0.00000000000E+00 0. -1.
         -1   -1    0    0    0  501 -0.00000000000E+00 -0.00000000000E+00 -0.17869809373E+02  0.17869809373E+02  0.00000000000E+00 0.  1.
         24    1    1    2    0    0  0.45182328426E+02 -0.44455143073E+02  0.14963178275E+03  0.18131351000E+03  0.80419002446E+02 0.  1.
        -24    1    1    2    0    0 -0.45182328426E+02  0.44455143073E+02  0.12898881167E+04  0.12939460082E+04  0.80419002446E+02 0. -1.
<mgrwt>
<rscale>  0 0.10239589E+03</rscale>
<asrwt>0</asrwt>
<pdfrwt beam="1">  1        1 0.22421371E+00 0.10239589E+03</pdfrwt>
<pdfrwt beam="2">  1       -1 0.27492026E-02 0.10239589E+03</pdfrwt>
<totfact> 0.32266343E+03</totfact>
</mgrwt>
</event>
<event>
 4    1  0.5074571E-001  0.8484162E+02  0.7546771E-02  0.1315847E+00
         -1   -1    0    0    0  501 -0.00000000000E+00  0.00000000000E+00  0.20358162433E+02  0.20358162433E+02  0.00000000000E+00 0.  1.
          1   -1    0    0  501    0  0.00000000000E+00 -0.00000000000E+00 -0.42676195769E+03  0.42676195769E+03  0.00000000000E+00 0. -1.
         24    1    1    2    0    0 -0.23511149865E+02  0.13345800093E+02 -0.11062053346E+03  0.13940947933E+03  0.80419002446E+02 0.  1.
        -24    1    1    2    0    0  0.23511149865E+02 -0.13345800093E+02 -0.29578326180E+03  0.30771064080E+03  0.80419002446E+02 0.  0.
<mgrwt>
<rscale>  0 0.84841620E+02</rscale>
<asrwt>0</asrwt>
<pdfrwt beam="1">  1        1 0.65655679E-01 0.84841620E+02</pdfrwt>
<pdfrwt beam="2">  1       -1 0.31320253E-02 0.84841620E+02</pdfrwt>
<totfact> 0.17717725E+04</totfact>
</mgrwt>
</event>
<event>
 4    1  0.5074571E-001  0.1020216E+03  0.7546771E-02  0.1276101E+00
          2   -1    0    0  501    0  0.00000000000E+00  0.00000000000E+00  0.87776033714E+02  0.87776033714E+02  0.00000000000E+00 0. -1.
         -2   -1    0    0    0  501 -0.00000000000E+00 -0.00000000000E+00 -0.11860790755E+03  0.11860790755E+03  0.00000000000E+00 0.  1.
         24    1    1    2    0    0 -0.55565075247E+02  0.29218112853E+02 -0.17027772363E+02  0.10343276411E+03  0.80419002446E+02 0.  0.
        -24    1    1    2    0    0  0.55565075247E+02 -0.29218112853E+02 -0.13804101478E+02  0.10295117716E+03  0.80419002446E+02 0.  1.
<mgrwt>
<rscale>  0 0.10202154E+03</rscale>
<asrwt>0</asrwt>
<pdfrwt beam="1">  1        2 0.13504005E-01 0.10202155E+03</pdfrwt>
<pdfrwt beam="2">  1       -2 0.18247370E-01 0.10202155E+03</pdfrwt>
<totfact> 0.99629387E+03</totfact>
</mgrwt>
</event>
<event>
 4    1  0.5074571E-001  0.1451277E+03  0.7546771E-02  0.1206591E+00
         -2   -1    0    0    0  501 -0.00000000000E+00  0.00000000000E+00  0.19815377931E+02  0.19815377931E+02  0.00000000000E+00 0.  1.
          2   -1    0    0  501    0  0.00000000000E+00 -0.00000000000E+00 -0.10656125398E+04  0.10656125398E+04  0.00000000000E+00 0. -1.
         24    1    1    2    0    0  0.45781520321E+02 -0.11179839162E+03 -0.49558803133E+03  0.51640056228E+03  0.80419002446E+02 0.  1.
        -24    1    1    2    0    0 -0.45781520321E+02  0.11179839162E+03 -0.55020913058E+03  0.56902735549E+03  0.80419002446E+02 0. -1.
<mgrwt>
<rscale>  0 0.14512770E+03</rscale>
<asrwt>0</asrwt>
<pdfrwt beam="1">  1        2 0.16394033E+00 0.14512772E+03</pdfrwt>
<pdfrwt beam="2">  1       -2 0.30485207E-02 0.14512772E+03</pdfrwt>
<totfact> 0.96059704E+03</totfact>
</mgrwt>
</event>
<event>
 4    1  0.5074571E-001  0.9074702E+02  0.7546771E-02  0.1301053E+00
         -2   -1    0    0    0  501 -0.00000000000E+00  0.00000000000E+00  0.14281890737E+02  0.14281890737E+02  0.00000000000E+00 0.  1.
          2   -1    0    0  501    0  0.00000000000E+00 -0.00000000000E+00 -0.12202716616E+04  0.12202716616E+04  0.00000000000E+00 0. -1.
         24    1    1    2    0    0  0.38368078338E+02 -0.17195797327E+02 -0.10513084893E+04  0.10552177788E+04  0.80419002446E+02 0.  0.
        -24    1    1    2    0    0 -0.38368078338E+02  0.17195797327E+02 -0.15468128155E+03  0.17933577362E+03  0.80419002446E+02 0.  1.
<mgrwt>
<rscale>  0 0.90747016E+02</rscale>
<asrwt>0</asrwt>
<pdfrwt beam="1">  1        2 0.18773413E+00 0.90747016E+02</pdfrwt>
<pdfrwt beam="2">  1       -2 0.21972136E-02 0.90747016E+02</pdfrwt>
<totfact> 0.12339279E+04</totfact>
</mgrwt>
</event>
<event>
 4    1  0.5074571E-001  0.2038398E+03  0.7546771E-02  0.1146539E+00
          1   -1    0    0  501    0  0.00000000000E+00  0.00000000000E+00  0.11692660438E+03  0.11692660438E+03  0.00000000000E+00 0. -1.
         -1   -1    0    0    0  501 -0.00000000000E+00 -0.00000000000E+00 -0.38308844118E+03  0.38308844118E+03  0.00000000000E+00 0.  1.
         24    1    1    2    0    0 -0.14906340516E+03 -0.11341753567E+03 -0.65815455848E+02  0.21420160209E+03  0.80419002446E+02 0.  1.
        -24    1    1    2    0    0  0.14906340516E+03  0.11341753567E+03 -0.20034638096E+03  0.28581344348E+03  0.80419002446E+02 0.  0.
<mgrwt>
<rscale>  0 0.20383980E+03</rscale>
<asrwt>0</asrwt>
<pdfrwt beam="1">  1        1 0.17988708E-01 0.20383982E+03</pdfrwt>
<pdfrwt beam="2">  1       -1 0.58936684E-01 0.20383982E+03</pdfrwt>
<totfact> 0.87997376E+02</totfact>
</mgrwt>
</event>
<event>
 4    1  0.5074571E-001  0.1590008E+03  0.7546771E-02  0.1189829E+00
         -1   -1    0    0    0  501 -0.00000000000E+00  0.00000000000E+00  0.13698560632E+03  0.13698560632E+03  0.00000000000E+00 0.  1.
          1   -1    0    0  501    0  0.00000000000E+00 -0.00000000000E+00 -0.23569915152E+03  0.23569915152E+03  0.00000000000E+00 0. -1.
         24    1    1    2    0    0  0.13337039944E+03  0.32037092178E+02  0.37446171454E+02  0.16335075890E+03  0.80419002446E+02 0. -1.
        -24    1    1    2    0    0 -0.13337039944E+03 -0.32037092178E+02 -0.13615971666E+03  0.20933399895E+03  0.80419002446E+02 0.  1.
<mgrwt>
<rscale>  0 0.15900080E+03</rscale>
<asrwt>0</asrwt>
<pdfrwt beam="1">  1        1 0.36261407E-01 0.15900080E+03</pdfrwt>
<pdfrwt beam="2">  1       -1 0.21074709E-01 0.15900080E+03</pdfrwt>
<totfact> 0.21596369E+03</totfact>
</mgrwt>
</event>
<event>
 4    1  0.5074571E-001  0.1099239E+03  0.7546771E-02  0.1260711E+00
          1   -1    0    0  501    0  0.00000000000E+00  0.00000000000E+00  0.33261296681E+03  0.33261296681E+03  0.00000000000E+00 0. -1.
         -1   -1    0    0    0  501 -0.00000000000E+00 -0.00000000000E+00 -0.10159762696E+03  0.10159762696E+03  0.00000000000E+00 0.  1.
         24    1    1    2    0    0 -0.37069852111E+02  0.65129726866E+02 -0.58505904835E+02  0.12452394192E+03  0.80419002446E+02 0.  1.
        -24    1    1    2    0    0  0.37069852111E+02 -0.65129726866E+02  0.28952124468E+03  0.30968665185E+03  0.80419002446E+02 0. -1.
<mgrwt>
<rscale>  0 0.10992393E+03</rscale>
<asrwt>0</asrwt>
<pdfrwt beam="1">  1        1 0.51171225E-01 0.10992393E+03</pdfrwt>
<pdfrwt beam="2">  1       -1 0.15630404E-01 0.10992393E+03</pdfrwt>
<totfact> 0.22383088E+03</totfact>
</mgrwt>
</event>
<event>
 4    1  0.5074571E-001  0.8313356E+02  0.7546771E-02  0.1320387E+00
          2   -1    0    0  501    0  0.00000000000E+00  0.00000000000E+00  0.43232258247E+02  0.43232258247E+02  0.00000000000E+00 0. -1.
         -2   -1    0    0    0  501 -0.00000000000E+00 -0.00000000000E+00 -0.17542575514E+03  0.17542575514E+03  0.00000000000E+00 0.  1.
         24    1    1    2    0    0  0.54145499540E-01 -0.21070591665E+02 -0.33531977098E+02  0.89641408999E+02  0.80419002446E+02 0. -1.
        -24    1    1    2    0    0 -0.54145499540E-01  0.21070591665E+02 -0.98661519794E+02  0.12901660439E+03  0.80419002446E+02 0.  1.
<mgrwt>
<rscale>  0 0.83133560E+02</rscale>
<asrwt>0</asrwt>
<pdfrwt beam="1">  1        2 0.66511168E-02 0.83133560E+02</pdfrwt>
<pdfrwt beam="2">  1       -2 0.26988577E-01 0.83133560E+02</pdfrwt>
<totfact> 0.11883299E+04</totfact>
</mgrwt>
</event>
<event>
 4    1  0.5074571E-001  0.8706687E+02  0.7546771E-02  0.1310114E+00
          1   -1    0    0  501    0  0.00000000000E+00  0.00000000000E+00  0.53135881843E+03  0.53135881843E+03  0.00000000000E+00 0. -1.
         -1   -1    0    0    0  501 -0.00000000000E+00 -0.00000000000E+00 -0.33921545801E+02  0.33921545801E+02  0.00000000000E+00 0.  1.
         24    1    1    2    0    0  0.12441843908E+02 -0.30961652144E+02  0.33572805320E+02  0.93315446710E+02  0.80419002446E+02 0.  1.
        -24    1    1    2    0    0 -0.12441843908E+02  0.30961652144E+02  0.46386446731E+03  0.47196491752E+03  0.80419002446E+02 0. -1.
<mgrwt>
<rscale>  0 0.87066867E+02</rscale>
<asrwt>0</asrwt>
<pdfrwt beam="1">  1        1 0.81747505E-01 0.87066867E+02</pdfrwt>
<pdfrwt beam="2">  1       -1 0.52186997E-02 0.87066867E+02</pdfrwt>
<totfact> 0.64065947E+03</totfact>
</mgrwt>
</event>
<event>
 4    1  0.5074571E-001  0.8176151E+02  0.7546771E-02  0.1324126E+00
          4   -1    0    0  501    0  0.00000000000E+00  0.00000000000E+00  0.11185090211E+02  0.11185090211E+02  0.00000000000E+00 0. -1.
         -4   -1    0    0    0  501 -0.00000000000E+00 -0.00000000000E+00 -0.12081144429E+04  0.12081144429E+04  0.00000000000E+00 0.  1.
         24    1    1    2    0    0 -0.13971947814E+02 -0.47448235143E+01 -0.16510252354E+03  0.18423839966E+03  0.80419002446E+02 0. -1.
        -24    1    1    2    0    0  0.13971947814E+02  0.47448235143E+01 -0.10318268292E+04  0.10350611335E+04  0.80419002446E+02 0.  0.
<mgrwt>
<rscale>  0 0.81761511E+02</rscale>
<asrwt>0</asrwt>
<pdfrwt beam="1">  1        4 0.17207851E-02 0.81761511E+02</pdfrwt>
<pdfrwt beam="2">  1       -4 0.18586355E+00 0.81761511E+02</pdfrwt>
<totfact> 0.34863743E+02</totfact>
</mgrwt>
</event>
<event>
 4    1  0.5074571E-001  0.8059245E+02  0.7546771E-02  0.1327379E+00
          4   -1    0    0  501    0  0.00000000000E+00  0.00000000000E+00  0.18340130538E+04  0.18340130538E+04  0.00000000000E+00 0. -1.
         -4   -1    0    0    0  501 -0.00000000000E+00 -0.00000000000E+00 -0.96309127712E+01  0.96309127712E+01  0.00000000000E+00 0.  1.
         24    1    1    2    0    0 -0.22525696994E+01 -0.47804270962E+01  0.16451866056E+04  0.16471594063E+04  0.80419002446E+02 0. -1.
        -24    1    1    2    0    0  0.22525696994E+01  0.47804270962E+01  0.17919553541E+03  0.19648456026E+03  0.80419002446E+02 0.  0.
<mgrwt>
<rscale>  0 0.80592447E+02</rscale>
<asrwt>0</asrwt>
<pdfrwt beam="1">  1        4 0.28215558E+00 0.80592447E+02</pdfrwt>
<pdfrwt beam="2">  1       -4 0.14816803E-02 0.80592447E+02</pdfrwt>
<totfact> 0.12046854E+02</totfact>
</mgrwt>
</event>
<event>
 4    1  0.5074571E-001  0.1098756E+03  0.7546771E-02  0.1260800E+00
         -2   -1    0    0    0  501 -0.00000000000E+00  0.00000000000E+00  0.31000444211E+02  0.31000444211E+02  0.00000000000E+00 0.  1.
          2   -1    0    0  501    0  0.00000000000E+00 -0.00000000000E+00 -0.18172930765E+04  0.18172930765E+04  0.00000000000E+00 0. -1.
         24    1    1    2    0    0 -0.13995021417E+01 -0.74856313788E+02 -0.17123106928E+04  0.17158323202E+04  0.80419002446E+02 0. -1.
        -24    1    1    2    0    0  0.13995021417E+01  0.74856313788E+02 -0.73981939463E+02  0.13246120051E+03  0.80419002446E+02 0.  1.
<mgrwt>
<rscale>  0 0.10987558E+03</rscale>
<asrwt>0</asrwt>
<pdfrwt beam="1">  1        2 0.27958359E+00 0.10987558E+03</pdfrwt>
<pdfrwt beam="2">  1       -2 0.47692984E-02 0.10987558E+03</pdfrwt>
<totfact> 0.19659450E+03</totfact>
</mgrwt>
</event>
<event>
 4    1  0.5074571E-001  0.8198253E+02  0.7546771E-02  0.1323518E+00
         -2   -1    0    0    0  501 -0.00000000000E+00  0.00000000000E+00  0.56573492031E+01  0.56573492031E+01  0.00000000000E+00 0.  1.
          2   -1    0    0  501    0  0.00000000000E+00 -0.00000000000E+00 -0.11957431901E+04  0.11957431901E+04  0.00000000000E+00 0. -1.
         24    1    1    2    0    0 -0.15494442003E+02 -0.37205236704E+01 -0.64326873839E+03  0.64847190052E+03  0.80419002446E+02 0. -1.
        -24    1    1    2    0    0  0.15494442003E+02  0.37205236704E+01 -0.54681710246E+03  0.55292863873E+03  0.80419002446E+02 0.  1.
<mgrwt>
<rscale>  0 0.81982535E+02</rscale>
<asrwt>0</asrwt>
<pdfrwt beam="1">  1        2 0.18396053E+00 0.81982535E+02</pdfrwt>
<pdfrwt beam="2">  1       -2 0.87036123E-03 0.81982535E+02</pdfrwt>
<totfact> 0.47085174E+04</totfact>
</mgrwt>
</event>
<event>
 4    1  0.5074571E-001  0.8343878E+02  0.7546771E-02  0.1319567E+00
          2   -1    0    0  501    0  0.00000000000E+00  0.00000000000E+00  0.41363390312E+03  0.41363390312E+03  0.00000000000E+00 0. -1.
         -2   -1    0    0    0  501 -0.00000000000E+00 -0.00000000000E+00 -0.72393751653E+02  0.72393751653E+02  0.00000000000E+00 0.  1.
         24    1    1    2    0    0 -0.85861829321E+01 -0.20520510878E+02  0.38351770578E+03  0.39248931260E+03  0.80419002446E+02 0.  0.
        -24    1    1    2    0    0  0.85861829321E+01  0.20520510878E+02 -0.42277554310E+02  0.93538342175E+02  0.80419002446E+02 0.  1.
<mgrwt>
<rscale>  0 0.83438779E+02</rscale>
<asrwt>0</asrwt>
<pdfrwt beam="1">  1        2 0.63635984E-01 0.83438779E+02</pdfrwt>
<pdfrwt beam="2">  1       -2 0.11137500E-01 0.83438779E+02</pdfrwt>
<totfact> 0.40357600E+03</totfact>
</mgrwt>
</event>
<event>
 4    1  0.5074571E-001  0.1299078E+03  0.7546771E-02  0.1227593E+00
          2   -1    0    0  501    0  0.00000000000E+00  0.00000000000E+00  0.70786785517E+03  0.70786785517E+03  0.00000000000E+00 0. -1.
         -2   -1    0    0    0  501 -0.00000000000E+00 -0.00000000000E+00 -0.31350237027E+02  0.31350237027E+02  0.00000000000E+00 0.  1.
         24    1    1    2    0    0 -0.94006814995E+02 -0.39642559636E+02  0.51915532649E+03  0.53516192201E+03  0.80419002446E+02 0. -1.
        -24    1    1    2    0    0  0.94006814995E+02  0.39642559636E+02  0.15736229165E+03  0.20405617018E+03  0.80419002446E+02 0.  1.
<mgrwt>
<rscale>  0 0.12990777E+03</rscale>
<asrwt>0</asrwt>
<pdfrwt beam="1">  1        2 0.10890273E+00 0.12990777E+03</pdfrwt>
<pdfrwt beam="2">  1       -2 0.48231139E-02 0.12990777E+03</pdfrwt>
<totfact> 0.82041715E+03</totfact>
</mgrwt>
</event>
<event>
 4    1  0.5074571E-001  0.8389632E+02  0.7546771E-02  0.1318344E+00
          1   -1    0    0  501    0  0.00000000000E+00  0.00000000000E+00  0.14893409958E+04  0.14893409958E+04  0.00000000000E+00 0. -1.
         -1   -1    0    0    0  501 -0.00000000000E+00 -0.00000000000E+00 -0.49120500276E+02  0.49120500276E+02  0.00000000000E+00 0.  1.
         24    1    1    2    0    0 -0.22973532904E+02  0.66024827901E+01 -0.11180268465E+02  0.84637995903E+02  0.80419002446E+02 0.  1.
        -24    1    1    2    0    0  0.22973532904E+02 -0.66024827901E+01  0.14514007640E+04  0.14538235002E+04  0.80419002446E+02 0. -1.
<mgrwt>
<rscale>  0 0.83896317E+02</rscale>
<asrwt>0</asrwt>
<pdfrwt beam="1">  1        1 0.22912935E+00 0.83896317E+02</pdfrwt>
<pdfrwt beam="2">  1       -1 0.75570012E-02 0.83896317E+02</pdfrwt>
<totfact> 0.70215561E+02</totfact>
</mgrwt>
</event>
<event>
 4    1  0.5074571E-001  0.8191015E+02  0.7546771E-02  0.1323716E+00
          1   -1    0    0  501    0  0.00000000000E+00  0.00000000000E+00  0.16745566079E+04  0.16745566079E+04  0.00000000000E+00 0. -1.
         -1   -1    0    0    0  501 -0.00000000000E+00 -0.00000000000E+00 -0.79546407648E+01  0.79546407648E+01  0.00000000000E+00 0.  1.
         24    1    1    2    0    0 -0.98040647527E+01 -0.12080419596E+02  0.24063675272E+03  0.25419543453E+03  0.80419002446E+02 0.  1.
        -24    1    1    2    0    0  0.98040647527E+01  0.12080419596E+02  0.14259652144E+04  0.14283158141E+04  0.80419002446E+02 0. -1.
<mgrwt>
<rscale>  0 0.81910147E+02</rscale>
<asrwt>0</asrwt>
<pdfrwt beam="1">  1        1 0.25762381E+00 0.81910147E+02</pdfrwt>
<pdfrwt beam="2">  1       -1 0.12237922E-02 0.81910147E+02</pdfrwt>
<totfact> 0.73840085E+03</totfact>
</mgrwt>
</event>
<event>
 4    1  0.5074571E-001  0.8176875E+02  0.7546771E-02  0.1324106E+00
          1   -1    0    0  501    0  0.00000000000E+00  0.00000000000E+00  0.64724871584E+03  0.64724871584E+03  0.00000000000E+00 0. -1.
         -1   -1    0    0    0  501 -0.00000000000E+00 -0.00000000000E+00 -0.17754351667E+02  0.17754351667E+02  0.00000000000E+00 0.  1.
         24    1    1    2    0    0 -0.10654436655E+02  0.10266213938E+02  0.99732407976E+02  0.12896775304E+03  0.80419002446E+02 0.  0.
        -24    1    1    2    0    0  0.10654436655E+02 -0.10266213938E+02  0.52976195620E+03  0.53603531447E+03  0.80419002446E+02 0. -1.
<mgrwt>
<rscale>  0 0.81768748E+02</rscale>
<asrwt>0</asrwt>
<pdfrwt beam="1">  1        1 0.99576708E-01 0.81768748E+02</pdfrwt>
<pdfrwt beam="2">  1       -1 0.27314392E-02 0.81768748E+02</pdfrwt>
<totfact> 0.12517595E+04</totfact>
</mgrwt>
</event>
<event>
 4    1  0.5074571E-001  0.8819630E+02  0.7546771E-02  0.1307279E+00
         -2   -1    0    0    0  501 -0.00000000000E+00  0.00000000000E+00  0.49424709956E+02  0.49424709956E+02  0.00000000000E+00 0.  1.
          2   -1    0    0  501    0  0.00000000000E+00 -0.00000000000E+00 -0.23620369462E+03  0.23620369462E+03  0.00000000000E+00 0. -1.
         24    1    1    2    0    0 -0.20097427729E+02 -0.30124153837E+02 -0.17588862948E+03  0.19676228597E+03  0.80419002446E+02 0. -1.
        -24    1    1    2    0    0  0.20097427729E+02  0.30124153837E+02 -0.10890355184E+02  0.88866118606E+02  0.80419002446E+02 0.  1.
<mgrwt>
<rscale>  0 0.88196299E+02</rscale>
<asrwt>0</asrwt>
<pdfrwt beam="1">  1        2 0.36339030E-01 0.88196299E+02</pdfrwt>
<pdfrwt beam="2">  1       -2 0.76038015E-02 0.88196299E+02</pdfrwt>
<totfact> 0.13123625E+04</totfact>
</mgrwt>
</event>
<event>
 4    1  0.5074571E-001  0.9015542E+02  0.7546771E-02  0.1302476E+00
          2   -1    0    0  501    0  0.00000000000E+00  0.00000000000E+00  0.51941328032E+03  0.51941328032E+03  0.00000000000E+00 0. -1.
         -2   -1    0    0    0  501 -0.00000000000E+00 -0.00000000000E+00 -0.15666739721E+02  0.15666739721E+02  0.00000000000E+00 0.  1.
         24    1    1    2    0    0  0.37606963099E+02 -0.15700314517E+02  0.26102083416E+03  0.27615190633E+03  0.80419002446E+02 0.  1.
        -24    1    1    2    0    0 -0.37606963099E+02  0.15700314517E+02  0.24272570644E+03  0.25892811371E+03  0.80419002446E+02 0. -1.
<mgrwt>
<rscale>  0 0.90155419E+02</rscale>
<asrwt>0</asrwt>
<pdfrwt beam="1">  1        2 0.79909722E-01 0.90155419E+02</pdfrwt>
<pdfrwt beam="2">  1       -2 0.24102680E-02 0.90155419E+02</pdfrwt>
<totfact> 0.31283337E+04</totfact>
</mgrwt>
</event>
<event>
 4    1  0.5074571E-001  0.1619364E+03  0.7546771E-02  0.1186528E+00
         -4   -1    0    0    0  501 -0.00000000000E+00  0.00000000000E+00  0.14638981849E+03  0.14638981849E+03  0.00000000000E+00 0.  1.
          4   -1    0    0  501    0  0.00000000000E+00 -0.00000000000E+00 -0.18821795683E+03  0.18821795683E+03  0.00000000000E+00 0. -1.
         24    1    1    2    0    0 -0.11485261523E+03 -0.81025032771E+02 -0.57668763280E+02  0.17189846239E+03  0.80419002446E+02 0. -1.
        -24    1    1    2    0    0  0.11485261523E+03  0.81025032771E+02  0.15840624941E+02  0.16270931293E+03  0.80419002446E+02 0.  1.
<mgrwt>
<rscale>  0 0.16193639E+03</rscale>
<asrwt>0</asrwt>
<pdfrwt beam="1">  1        4 0.28956609E-01 0.16193639E+03</pdfrwt>
<pdfrwt beam="2">  1       -4 0.22521511E-01 0.16193639E+03</pdfrwt>
<totfact> 0.35477348E+02</totfact>
</mgrwt>
</event>
<event>
 4    1  0.5074571E-001  0.8489829E+02  0.7546771E-02  0.1315699E+00
          1   -1    0    0  501    0  0.00000000000E+00  0.00000000000E+00  0.24619832289E+03  0.24619832289E+03  0.00000000000E+00 0. -1.
         -1   -1    0    0    0  501 -0.00000000000E+00 -0.00000000000E+00 -0.29310142813E+02  0.29310142813E+02  0.00000000000E+00 0.  1.
         24    1    1    2    0    0 -0.16756688698E+02  0.21440931957E+02  0.11314176351E+03  0.14145237638E+03  0.80419002446E+02 0.  0.
        -24    1    1    2    0    0  0.16756688698E+02 -0.21440931957E+02  0.10374641657E+03  0.13405608932E+03  0.80419002446E+02 0. -1.
<mgrwt>
<rscale>  0 0.84898280E+02</rscale>
<asrwt>0</asrwt>
<pdfrwt beam="1">  1        1 0.37876664E-01 0.84898291E+02</pdfrwt>
<pdfrwt beam="2">  1       -1 0.45092529E-02 0.84898291E+02</pdfrwt>
<totfact> 0.20518910E+04</totfact>
</mgrwt>
</event>
<event>
 4    1  0.5074571E-001  0.8856911E+02  0.7546771E-02  0.1306354E+00
         -2   -1    0    0    0  501 -0.00000000000E+00  0.00000000000E+00  0.26603524790E+03  0.26603524790E+03  0.00000000000E+00 0.  1.
          2   -1    0    0  501    0  0.00000000000E+00 -0.00000000000E+00 -0.59297442177E+02  0.59297442177E+02  0.00000000000E+00 0. -1.
         24    1    1    2    0    0  0.50197299399E+01 -0.36770559423E+02 -0.11967526506E+02  0.89373986003E+02  0.80419002446E+02 0. -1.
        -24    1    1    2    0    0 -0.50197299399E+01  0.36770559423E+02  0.21870533222E+03  0.23595870407E+03  0.80419002446E+02 0.  1.
<mgrwt>
<rscale>  0 0.88569112E+02</rscale>
<asrwt>0</asrwt>
<pdfrwt beam="1">  1        2 0.91226836E-02 0.88569112E+02</pdfrwt>
<pdfrwt beam="2">  1       -2 0.40928499E-01 0.88569112E+02</pdfrwt>
<totfact> 0.37970331E+03</totfact>
</mgrwt>
</event>
<event>
 4    1  0.5074571E-001  0.9057984E+02  0.7546771E-02  0.1301454E+00
         -4   -1    0    0    0  501 -0.00000000000E+00  0.00000000000E+00  0.30700464480E+02  0.30700464480E+02  0.00000000000E+00 0.  1.
          4   -1    0    0  501    0  0.00000000000E+00 -0.00000000000E+00 -0.26734333147E+03  0.26734333147E+03  0.00000000000E+00 0. -1.
         24    1    1    2    0    0  0.25720021122E+02  0.32802019335E+02 -0.12110154993E+03  0.15122927398E+03  0.80419002446E+02 0.  1.
        -24    1    1    2    0    0 -0.25720021122E+02 -0.32802019335E+02 -0.11554131707E+03  0.14681452197E+03  0.80419002446E+02 0.  0.
<mgrwt>
<rscale>  0 0.90579843E+02</rscale>
<asrwt>0</asrwt>
<pdfrwt beam="1">  1        4 0.41129743E-01 0.90579843E+02</pdfrwt>
<pdfrwt beam="2">  1       -4 0.47231484E-02 0.90579843E+02</pdfrwt>
<totfact> 0.22402439E+03</totfact>
</mgrwt>
</event>
<event>
 4    1  0.5074571E-001  0.9047710E+02  0.7546771E-02  0.1301700E+00
          2   -1    0    0  501    0  0.00000000000E+00  0.00000000000E+00  0.12654526232E+03  0.12654526232E+03  0.00000000000E+00 0. -1.
         -2   -1    0    0    0  501 -0.00000000000E+00 -0.00000000000E+00 -0.68106306770E+02  0.68106306770E+02  0.00000000000E+00 0.  1.
         24    1    1    2    0    0  0.41327023862E+02 -0.33115615082E+01  0.51019994147E+02  0.10387080965E+03  0.80419002446E+02 0. -1.
        -24    1    1    2    0    0 -0.41327023862E+02  0.33115615082E+01  0.74189613997E+01  0.90780759435E+02  0.80419002446E+02 0.  1.
<mgrwt>
<rscale>  0 0.90477098E+02</rscale>
<asrwt>0</asrwt>
<pdfrwt beam="1">  1        2 0.19468502E-01 0.90477098E+02</pdfrwt>
<pdfrwt beam="2">  1       -2 0.10477893E-01 0.90477098E+02</pdfrwt>
<totfact> 0.15785051E+04</totfact>
</mgrwt>
</event>
<event>
 4    1  0.5074571E-001  0.8856104E+02  0.7546771E-02  0.1306374E+00
         -2   -1    0    0    0  501 -0.00000000000E+00  0.00000000000E+00  0.75222389077E+02  0.75222389077E+02  0.00000000000E+00 0.  1.
          2   -1    0    0  501    0  0.00000000000E+00 -0.00000000000E+00 -0.30426440070E+03  0.30426440070E+03  0.00000000000E+00 0. -1.
         24    1    1    2    0    0 -0.18210159944E+02 -0.32314579473E+02 -0.26835613026E+03  0.28259170295E+03  0.80419002446E+02 0. -1.
        -24    1    1    2    0    0  0.18210159944E+02  0.32314579473E+02  0.39314118643E+02  0.96895086825E+02  0.80419002446E+02 0.  1.
<mgrwt>
<rscale>  0 0.88561041E+02</rscale>
<asrwt>0</asrwt>
<pdfrwt beam="1">  1        2 0.46809907E-01 0.88561041E+02</pdfrwt>
<pdfrwt beam="2">  1       -2 0.11572675E-01 0.88561041E+02</pdfrwt>
<totfact> 0.52599537E+03</totfact>
</mgrwt>
</event>
<event>
 4    1  0.5074571E-001  0.9871509E+02  0.7546771E-02  0.1283021E+00
          1   -1    0    0  501    0  0.00000000000E+00  0.00000000000E+00  0.28813099980E+03  0.28813099980E+03  0.00000000000E+00 0. -1.
         -1   -1    0    0    0  501 -0.00000000000E+00 -0.00000000000E+00 -0.33828158132E+02  0.33828158132E+02  0.00000000000E+00 0.  1.
         24    1    1    2    0    0 -0.53276679043E+02  0.20953351735E+02  0.12961221032E+03  0.16292325954E+03  0.80419002446E+02 0.  1.
        -24    1    1    2    0    0  0.53276679043E+02 -0.20953351735E+02  0.12469063134E+03  0.15903589839E+03  0.80419002446E+02 0. -1.
<mgrwt>
<rscale>  0 0.98715074E+02</rscale>
<asrwt>0</asrwt>
<pdfrwt beam="1">  1        1 0.44327844E-01 0.98715087E+02</pdfrwt>
<pdfrwt beam="2">  1       -1 0.52043322E-02 0.98715087E+02</pdfrwt>
<totfact> 0.13948780E+04</totfact>
</mgrwt>
</event>
<event>
 4    1  0.5074571E-001  0.1250469E+03  0.7546771E-02  0.1234996E+00
          2   -1    0    0  501    0  0.00000000000E+00  0.00000000000E+00  0.33363925413E+04  0.33363925413E+04  0.00000000000E+00 0. -1.
         -2   -1    0    0    0  501 -0.00000000000E+00 -0.00000000000E+00 -0.60480994663E+01  0.60480994663E+01  0.00000000000E+00 0.  1.
         24    1    1    2    0    0  0.45957496006E+02  0.84008404655E+02  0.24580654577E+04  0.24612440987E+04  0.80419002446E+02 0. -1.
        -24    1    1    2    0    0 -0.45957496006E+02 -0.84008404655E+02  0.87227898416E+03  0.88119654201E+03  0.80419002446E+02 0.  1.
<mgrwt>
<rscale>  0 0.12504687E+03</rscale>
<asrwt>0</asrwt>
<pdfrwt beam="1">  1        2 0.51328969E+00 0.12504687E+03</pdfrwt>
<pdfrwt beam="2">  1       -2 0.93047950E-03 0.12504687E+03</pdfrwt>
<totfact> 0.31300099E+03</totfact>
</mgrwt>
</event>
<event>
 4    1  0.5074571E-001  0.8374206E+02  0.7546771E-02  0.1318755E+00
          1   -1    0    0  501    0  0.00000000000E+00  0.00000000000E+00  0.16783763450E+03  0.16783763450E+03  0.00000000000E+00 0. -1.
         -1   -1    0    0    0  501 -0.00000000000E+00 -0.00000000000E+00 -0.42281388321E+02  0.42281388321E+02  0.00000000000E+00 0.  1.
         24    1    1    2    0    0  0.16752362943E+02 -0.16274889128E+02  0.74186482463E+02  0.11187655615E+03  0.80419002446E+02 0.  0.
        -24    1    1    2    0    0 -0.16752362943E+02  0.16274889128E+02  0.51369763721E+02  0.98242466680E+02  0.80419002446E+02 0.  0.
<mgrwt>
<rscale>  0 0.83742053E+02</rscale>
<asrwt>0</asrwt>
<pdfrwt beam="1">  1        1 0.25821174E-01 0.83742063E+02</pdfrwt>
<pdfrwt beam="2">  1       -1 0.65048290E-02 0.83742063E+02</pdfrwt>
<totfact> 0.19146360E+04</totfact>
</mgrwt>
</event>
<event>
 4    1  0.5074571E-001  0.9356140E+02  0.7546771E-02  0.1294449E+00
          2   -1    0    0  501    0  0.00000000000E+00  0.00000000000E+00  0.98167991409E+03  0.98167991409E+03  0.00000000000E+00 0. -1.
         -2   -1    0    0    0  501 -0.00000000000E+00 -0.00000000000E+00 -0.94180240155E+01  0.94180240155E+01  0.00000000000E+00 0.  1.
         24    1    1    2    0    0  0.91541469410E+01  0.46933149555E+02  0.60041719021E+03  0.60766317741E+03  0.80419002446E+02 0. -1.
        -24    1    1    2    0    0 -0.91541469410E+01 -0.46933149555E+02  0.37184469987E+03  0.38343476070E+03  0.80419002446E+02 0.  1.
<mgrwt>
<rscale>  0 0.93561396E+02</rscale>
<asrwt>0</asrwt>
<pdfrwt beam="1">  1        2 0.15102760E+00 0.93561396E+02</pdfrwt>
<pdfrwt beam="2">  1       -2 0.14489275E-02 0.93561396E+02</pdfrwt>
<totfact> 0.30608969E+04</totfact>
</mgrwt>
</event>
<event>
 4    1  0.5074571E-001  0.8749954E+02  0.7546771E-02  0.1309022E+00
         -2   -1    0    0    0  501 -0.00000000000E+00  0.00000000000E+00  0.32302794659E+02  0.32302794659E+02  0.00000000000E+00 0.  1.
          2   -1    0    0  501    0  0.00000000000E+00 -0.00000000000E+00 -0.60948774231E+03  0.60948774231E+03  0.00000000000E+00 0. -1.
         24    1    1    2    0    0  0.11525427552E+02  0.32497960448E+02 -0.53945135546E+03  0.54650154051E+03  0.80419002446E+02 0. -1.
        -24    1    1    2    0    0 -0.11525427552E+02 -0.32497960448E+02 -0.37733592196E+02  0.95288996468E+02  0.80419002446E+02 0.  1.
<mgrwt>
<rscale>  0 0.87499536E+02</rscale>
<asrwt>0</asrwt>
<pdfrwt beam="1">  1        2 0.93767341E-01 0.87499536E+02</pdfrwt>
<pdfrwt beam="2">  1       -2 0.49696609E-02 0.87499536E+02</pdfrwt>
<totfact> 0.90813676E+03</totfact>
</mgrwt>
</event>
<event>
 4    1  0.5074571E-001  0.8178597E+02  0.7546771E-02  0.1324058E+00
          2   -1    0    0  501    0  0.00000000000E+00  0.00000000000E+00  0.54660089672E+02  0.54660089672E+02  0.00000000000E+00 0. -1.
         -2   -1    0    0    0  501 -0.00000000000E+00 -0.00000000000E+00 -0.13206664680E+03  0.13206664680E+03  0.00000000000E+00 0.  1.
         24    1    1    2    0    0 -0.38883243231E+01 -0.14373951871E+02 -0.13409557289E+02  0.82877993095E+02  0.80419002446E+02 0. -1.
        -24    1    1    2    0    0  0.38883243231E+01  0.14373951871E+02 -0.63996999842E+02  0.10384874338E+03  0.80419002446E+02 0.  1.
<mgrwt>
<rscale>  0 0.81785974E+02</rscale>
<asrwt>0</asrwt>
<pdfrwt beam="1">  1        2 0.84092446E-02 0.81785974E+02</pdfrwt>
<pdfrwt beam="2">  1       -2 0.20317946E-01 0.81785974E+02</pdfrwt>
<totfact> 0.14397388E+04</totfact>
</mgrwt>
</event>
<event>
 4    1  0.5074571E-001  0.8190112E+02  0.7546771E-02  0.1323741E+00
          1   -1    0    0  501    0  0.00000000000E+00  0.00000000000E+00  0.10431366476E+04  0.10431366476E+04  0.00000000000E+00 0. -1.
         -1   -1    0    0    0  501 -0.00000000000E+00 -0.00000000000E+00 -0.21186844839E+03  0.21186844839E+03  0.00000000000E+00 0.  1.
         24    1    1    2    0    0 -0.15494763292E+02 -0.70020928534E+00 -0.20227242751E+03  0.21822449191E+03  0.80419002446E+02 0.  1.
        -24    1    1    2    0    0  0.15494763292E+02  0.70020928534E+00  0.10335406268E+04  0.10367806041E+04  0.80419002446E+02 0. -1.
<mgrwt>
<rscale>  0 0.81901123E+02</rscale>
<asrwt>0</asrwt>
<pdfrwt beam="1">  1        1 0.16048256E+00 0.81901123E+02</pdfrwt>
<pdfrwt beam="2">  1       -1 0.32595147E-01 0.81901123E+02</pdfrwt>
<totfact> 0.14186385E+02</totfact>
</mgrwt>
</event>
<event>
 4    1  0.5074571E-001  0.8049549E+02  0.7546771E-02  0.1327651E+00
          1   -1    0    0  501    0  0.00000000000E+00  0.00000000000E+00  0.11033864142E+04  0.11033864142E+04  0.00000000000E+00 0. -1.
         -1   -1    0    0    0  501 -0.00000000000E+00 -0.00000000000E+00 -0.79067485416E+01  0.79067485416E+01  0.00000000000E+00 0.  1.
         24    1    1    2    0    0 -0.19663413518E+01 -0.29053798835E+01  0.26589334672E+03  0.27781071886E+03  0.80419002446E+02 0.  0.
        -24    1    1    2    0    0  0.19663413518E+01  0.29053798835E+01  0.82958631894E+03  0.83348244388E+03  0.80419002446E+02 0. -1.
<mgrwt>
<rscale>  0 0.80495489E+02</rscale>
<asrwt>0</asrwt>
<pdfrwt beam="1">  1        1 0.16975163E+00 0.80495489E+02</pdfrwt>
<pdfrwt beam="2">  1       -1 0.12164237E-02 0.80495489E+02</pdfrwt>
<totfact> 0.17461964E+04</totfact>
</mgrwt>
</event>
<event>
 4    1  0.5074571E-001  0.8129538E+02  0.7546771E-02  0.1325415E+00
         -2   -1    0    0    0  501 -0.00000000000E+00  0.00000000000E+00  0.64609399216E+02  0.64609399216E+02  0.00000000000E+00 0.  1.
          2   -1    0    0  501    0  0.00000000000E+00 -0.00000000000E+00 -0.34426015342E+03  0.34426015342E+03  0.00000000000E+00 0. -1.
         24    1    1    2    0    0  0.38106826099E+01  0.11278400834E+02 -0.31121782567E+03  0.32166049586E+03  0.80419002446E+02 0. -1.
        -24    1    1    2    0    0 -0.38106826099E+01 -0.11278400834E+02  0.31567071471E+02  0.87209056771E+02  0.80419002446E+02 0.  1.
<mgrwt>
<rscale>  0 0.81295385E+02</rscale>
<asrwt>0</asrwt>
<pdfrwt beam="1">  1        2 0.52963101E-01 0.81295385E+02</pdfrwt>
<pdfrwt beam="2">  1       -2 0.99399074E-02 0.81295385E+02</pdfrwt>
<totfact> 0.58283049E+03</totfact>
</mgrwt>
</event>
<event>
 4    1  0.5074571E-001  0.9523259E+02  0.7546771E-02  0.1290653E+00
          2   -1    0    0  501    0  0.00000000000E+00  0.00000000000E+00  0.56289141685E+03  0.56289141685E+03  0.00000000000E+00 0. -1.
         -2   -1    0    0    0  501 -0.00000000000E+00 -0.00000000000E+00 -0.16366382034E+02  0.16366382034E+02  0.00000000000E+00 0.  1.
         24    1    1    2    0    0 -0.36744168945E+02 -0.35382140020E+02  0.30937862248E+03  0.32370415163E+03  0.80419002446E+02 0. -1.
        -24    1    1    2    0    0  0.36744168945E+02  0.35382140020E+02  0.23714641233E+03  0.25555364725E+03  0.80419002446E+02 0.  1.
<mgrwt>
<rscale>  0 0.95232588E+02</rscale>
<asrwt>0</asrwt>
<pdfrwt beam="1">  1        2 0.86598665E-01 0.95232588E+02</pdfrwt>
<pdfrwt beam="2">  1       -2 0.25179054E-02 0.95232588E+02</pdfrwt>
<totfact> 0.27050289E+04</totfact>
</mgrwt>
</event>
<event>
 4    1  0.5074571E-001  0.9457581E+02  0.7546771E-02  0.1292134E+00
          2   -1    0    0  501    0  0.00000000000E+00  0.00000000000E+00  0.56950919238E+03  0.56950919238E+03  0.00000000000E+00 0. -1.
         -2   -1    0    0    0  501 -0.00000000000E+00 -0.00000000000E+00 -0.54944224750E+02  0.54944224750E+02  0.00000000000E+00 0.  1.
         24    1    1    2    0    0  0.38945105301E+02  0.30994312894E+02  0.52113724350E+03  0.52964951730E+03  0.80419002446E+02 0. -1.
        -24    1    1    2    0    0 -0.38945105301E+02 -0.30994312894E+02 -0.65722758686E+01  0.94803899831E+02  0.80419002446E+02 0.  1.
<mgrwt>
<rscale>  0 0.94575814E+02</rscale>
<asrwt>0</asrwt>
<pdfrwt beam="1">  1        2 0.87616795E-01 0.94575814E+02</pdfrwt>
<pdfrwt beam="2">  1       -2 0.84529581E-02 0.94575814E+02</pdfrwt>
<totfact> 0.44185818E+03</totfact>
</mgrwt>
</event>
<event>
 4    1  0.5074571E-001  0.9084521E+02  0.7546771E-02  0.1300818E+00
         -2   -1    0    0    0  501 -0.00000000000E+00  0.00000000000E+00  0.17370323088E+02  0.17370323088E+02  0.00000000000E+00 0.  1.
          2   -1    0    0  501    0  0.00000000000E+00 -0.00000000000E+00 -0.68256221382E+03  0.68256221382E+03  0.00000000000E+00 0. -1.
         24    1    1    2    0    0  0.27116768561E+02  0.32408608873E+02 -0.52553127586E+03  0.53332539310E+03  0.80419002446E+02 0. -1.
        -24    1    1    2    0    0 -0.27116768561E+02 -0.32408608873E+02 -0.13966061487E+03  0.16660714380E+03  0.80419002446E+02 0.  1.
<mgrwt>
<rscale>  0 0.90845215E+02</rscale>
<asrwt>0</asrwt>
<pdfrwt beam="1">  1        2 0.10500956E+00 0.90845215E+02</pdfrwt>
<pdfrwt beam="2">  1       -2 0.26723577E-02 0.90845215E+02</pdfrwt>
<totfact> 0.19867274E+04</totfact>
</mgrwt>
</event>
<event>
 4    1  0.5074571E-001  0.8402536E+02  0.7546771E-02  0.1318001E+00
         -1   -1    0    0    0  501 -0.00000000000E+00  0.00000000000E+00  0.10683214305E+02  0.10683214305E+02  0.00000000000E+00 0.  1.
          1   -1    0    0  501    0  0.00000000000E+00 -0.00000000000E+00 -0.67300414103E+03  0.67300414103E+03  0.00000000000E+00 0. -1.
         24    1    1    2    0    0  0.13752429960E+02  0.20097644846E+02 -0.28526727958E+03  0.29738473635E+03  0.80419002446E+02 0.  0.
        -24    1    1    2    0    0 -0.13752429960E+02 -0.20097644846E+02 -0.37705364715E+03  0.38630261899E+03  0.80419002446E+02 0.  1.
<mgrwt>
<rscale>  0 0.84025357E+02</rscale>
<asrwt>0</asrwt>
<pdfrwt beam="1">  1        1 0.10353909E+00 0.84025357E+02</pdfrwt>
<pdfrwt beam="2">  1       -1 0.16435716E-02 0.84025357E+02</pdfrwt>
<totfact> 0.24531824E+04</totfact>
</mgrwt>
</event>
<event>
 4    1  0.5074571E-001  0.9042464E+02  0.7546771E-02  0.1301827E+00
         -2   -1    0    0    0  501 -0.00000000000E+00  0.00000000000E+00  0.17998797109E+02  0.17998797109E+02  0.00000000000E+00 0.  1.
          2   -1    0    0  501    0  0.00000000000E+00 -0.00000000000E+00 -0.45563760429E+03  0.45563760429E+03  0.00000000000E+00 0. -1.
         24    1    1    2    0    0 -0.31432553950E+02  0.26858782330E+02 -0.23171390804E+03  0.24873268938E+03  0.80419002446E+02 0. -1.
        -24    1    1    2    0    0  0.31432553950E+02 -0.26858782330E+02 -0.20592489914E+03  0.22490371201E+03  0.80419002446E+02 0.  1.
<mgrwt>
<rscale>  0 0.90424640E+02</rscale>
<asrwt>0</asrwt>
<pdfrwt beam="1">  1        2 0.70098093E-01 0.90424640E+02</pdfrwt>
<pdfrwt beam="2">  1       -2 0.27690457E-02 0.90424640E+02</pdfrwt>
<totfact> 0.29479158E+04</totfact>
</mgrwt>
</event>
<event>
 4    1  0.5074571E-001  0.8092912E+02  0.7546771E-02  0.1326435E+00
         -1   -1    0    0    0  501 -0.00000000000E+00  0.00000000000E+00  0.92013558872E+01  0.92013558872E+01  0.00000000000E+00 0.  1.
          1   -1    0    0  501    0  0.00000000000E+00 -0.00000000000E+00 -0.11207788379E+04  0.11207788379E+04  0.00000000000E+00 0. -1.
         24    1    1    2    0    0 -0.60051231043E+01 -0.68004072583E+01 -0.21449257049E+03  0.22925223182E+03  0.80419002446E+02 0.  1.
        -24    1    1    2    0    0  0.60051231043E+01  0.68004072583E+01 -0.89708491151E+03  0.90072796196E+03  0.80419002446E+02 0.  0.
<mgrwt>
<rscale>  0 0.80929123E+02</rscale>
<asrwt>0</asrwt>
<pdfrwt beam="1">  1        1 0.17242738E+00 0.80929123E+02</pdfrwt>
<pdfrwt beam="2">  1       -1 0.14155943E-02 0.80929123E+02</pdfrwt>
<totfact> 0.13721357E+04</totfact>
</mgrwt>
</event>
<event>
 4    1  0.5074571E-001  0.8155540E+02  0.7546771E-02  0.1324694E+00
         -1   -1    0    0    0  501 -0.00000000000E+00  0.00000000000E+00  0.10111810667E+03  0.10111810667E+03  0.00000000000E+00 0.  1.
          1   -1    0    0  501    0  0.00000000000E+00 -0.00000000000E+00 -0.68943377861E+02  0.68943377861E+02  0.00000000000E+00 0. -1.
         24    1    1    2    0    0 -0.11962469052E+02  0.64005550405E+01  0.34308912557E+02  0.88478162311E+02  0.80419002446E+02 0.  0.
        -24    1    1    2    0    0  0.11962469052E+02 -0.64005550405E+01 -0.21341837436E+01  0.81583322225E+02  0.80419002446E+02 0.  0.
<mgrwt>
<rscale>  0 0.81555403E+02</rscale>
<asrwt>0</asrwt>
<pdfrwt beam="1">  1        1 0.10606673E-01 0.81555403E+02</pdfrwt>
<pdfrwt beam="2">  1       -1 0.15556632E-01 0.81555403E+02</pdfrwt>
<totfact> 0.15819300E+04</totfact>
</mgrwt>
</event>
<event>
 4    1  0.5074571E-001  0.8359286E+02  0.7546771E-02  0.1319154E+00
          1   -1    0    0  501    0  0.00000000000E+00  0.00000000000E+00  0.21898548020E+02  0.21898548020E+02  0.00000000000E+00 0. -1.
         -1   -1    0    0    0  501 -0.00000000000E+00 -0.00000000000E+00 -0.95187707865E+03  0.95187707865E+03  0.00000000000E+00 0.  1.
         24    1    1    2    0    0  0.20376854876E+02 -0.10263263960E+02 -0.86196574703E+03  0.86600965111E+03  0.80419002446E+02 0.  1.
        -24    1    1    2    0    0 -0.20376854876E+02  0.10263263960E+02 -0.68012783600E+02  0.10776597556E+03  0.80419002446E+02 0. -1.
<mgrwt>
<rscale>  0 0.83592863E+02</rscale>
<asrwt>0</asrwt>
<pdfrwt beam="1">  1        1 0.33690071E-02 0.83592863E+02</pdfrwt>
<pdfrwt beam="2">  1       -1 0.14644264E+00 0.83592863E+02</pdfrwt>
<totfact> 0.11190247E+03</totfact>
</mgrwt>
</event>
<event>
 4    1  0.5074571E-001  0.1255072E+03  0.7546771E-02  0.1234279E+00
          4   -1    0    0  501    0  0.00000000000E+00  0.00000000000E+00  0.45243243626E+02  0.45243243626E+02  0.00000000000E+00 0. -1.
         -4   -1    0    0    0  501 -0.00000000000E+00 -0.00000000000E+00 -0.38764122650E+03  0.38764122650E+03  0.00000000000E+00 0.  1.
         24    1    1    2    0    0  0.90787881323E+02  0.32286309895E+02 -0.10212711393E+03  0.16180855526E+03  0.80419002446E+02 0. -1.
        -24    1    1    2    0    0 -0.90787881323E+02 -0.32286309895E+02 -0.24027086895E+03  0.27107591487E+03  0.80419002446E+02 0.  1.
<mgrwt>
<rscale>  0 0.12550722E+03</rscale>
<asrwt>0</asrwt>
<pdfrwt beam="1">  1        4 0.69604991E-02 0.12550722E+03</pdfrwt>
<pdfrwt beam="2">  1       -4 0.59637111E-01 0.12550722E+03</pdfrwt>
<totfact> 0.60993530E+02</totfact>
</mgrwt>
</event>
<event>
 4    1  0.5074571E-001  0.9449223E+02  0.7546771E-02  0.1292324E+00
          2   -1    0    0  501    0  0.00000000000E+00  0.00000000000E+00  0.43261553145E+03  0.43261553145E+03  0.00000000000E+00 0. -1.
         -2   -1    0    0    0  501 -0.00000000000E+00 -0.00000000000E+00 -0.20848862158E+02  0.20848862158E+02  0.00000000000E+00 0.  1.
         24    1    1    2    0    0  0.48081953091E+02  0.12234837025E+02  0.22862742820E+03  0.24738488703E+03  0.80419002446E+02 0.  1.
        -24    1    1    2    0    0 -0.48081953091E+02 -0.12234837025E+02  0.18313924109E+03  0.20607950658E+03  0.80419002446E+02 0. -1.
<mgrwt>
<rscale>  0 0.94492229E+02</rscale>
<asrwt>0</asrwt>
<pdfrwt beam="1">  1        2 0.66556229E-01 0.94492229E+02</pdfrwt>
<pdfrwt beam="2">  1       -2 0.32075176E-02 0.94492229E+02</pdfrwt>
<totfact> 0.25275043E+04</totfact>
</mgrwt>
</event>
<event>
 4    1  0.5074571E-001  0.8476650E+02  0.7546771E-02  0.1316044E+00
          2   -1    0    0  501    0  0.00000000000E+00  0.00000000000E+00  0.10030702915E+04  0.10030702915E+04  0.00000000000E+00 0. -1.
         -2   -1    0    0    0  501 -0.00000000000E+00 -0.00000000000E+00 -0.21746700322E+02  0.21746700322E+02  0.00000000000E+00 0.  1.
         24    1    1    2    0    0 -0.26729517433E+02 -0.19174448961E+01  0.91027394348E+03  0.91421223566E+03  0.80419002446E+02 0. -1.
        -24    1    1    2    0    0  0.26729517433E+02  0.19174448961E+01  0.71049647748E+02  0.11060475621E+03  0.80419002446E+02 0.  1.
<mgrwt>
<rscale>  0 0.84766501E+02</rscale>
<asrwt>0</asrwt>
<pdfrwt beam="1">  1        2 0.15431847E+00 0.84766501E+02</pdfrwt>
<pdfrwt beam="2">  1       -2 0.33456470E-02 0.84766501E+02</pdfrwt>
<totfact> 0.88399334E+03</totfact>
</mgrwt>
</event>
<event>
 4    1  0.5074571E-001  0.1584558E+03  0.7546771E-02  0.1190451E+00
          3   -1    0    0  501    0  0.00000000000E+00  0.00000000000E+00  0.80326290967E+02  0.80326290967E+02  0.00000000000E+00 0. -1.
         -3   -1    0    0    0  501 -0.00000000000E+00 -0.00000000000E+00 -0.42284463303E+03  0.42284463303E+03  0.00000000000E+00 0.  1.
         24    1    1    2    0    0  0.13459189319E+03 -0.22936013641E+02 -0.29973357837E+03  0.33904051733E+03  0.80419002446E+02 0.  1.
        -24    1    1    2    0    0 -0.13459189319E+03  0.22936013641E+02 -0.42784763687E+02  0.16413040666E+03  0.80419002446E+02 0. -1.
<mgrwt>
<rscale>  0 0.15845584E+03</rscale>
<asrwt>0</asrwt>
<pdfrwt beam="1">  1        3 0.12357891E-01 0.15845584E+03</pdfrwt>
<pdfrwt beam="2">  1       -3 0.65053020E-01 0.15845584E+03</pdfrwt>
<totfact> 0.28557079E+02</totfact>
</mgrwt>
</event>
<event>
 4    1  0.5074571E-001  0.9429145E+02  0.7546771E-02  0.1292780E+00
         -1   -1    0    0    0  501 -0.00000000000E+00  0.00000000000E+00  0.25261072548E+02  0.25261072548E+02  0.00000000000E+00 0.  1.
          1   -1    0    0  501    0  0.00000000000E+00 -0.00000000000E+00 -0.65597483441E+03  0.65597483441E+03  0.00000000000E+00 0. -1.
         24    1    1    2    0    0  0.29127644778E+02  0.39689325423E+02 -0.83472452739E+02  0.12593064982E+03  0.80419002446E+02 0.  1.
        -24    1    1    2    0    0 -0.29127644778E+02 -0.39689325423E+02 -0.54724130912E+03  0.55530525714E+03  0.80419002446E+02 0. -1.
<mgrwt>
<rscale>  0 0.94291453E+02</rscale>
<asrwt>0</asrwt>
<pdfrwt beam="1">  1        1 0.10091920E+00 0.94291453E+02</pdfrwt>
<pdfrwt beam="2">  1       -1 0.38863190E-02 0.94291453E+02</pdfrwt>
<totfact> 0.74725327E+03</totfact>
</mgrwt>
</event>
<event>
 4    1  0.5074571E-001  0.1087466E+03  0.7546771E-02  0.1262909E+00
         -1   -1    0    0    0  501 -0.00000000000E+00  0.00000000000E+00  0.49712609198E+03  0.49712609198E+03  0.00000000000E+00 0.  1.
          1   -1    0    0  501    0  0.00000000000E+00 -0.00000000000E+00 -0.66495517395E+02  0.66495517395E+02  0.00000000000E+00 0. -1.
         24    1    1    2    0    0  0.63312898883E+02  0.36743358007E+02  0.44116097258E+03  0.45436639093E+03  0.80419002446E+02 0.  1.
        -24    1    1    2    0    0 -0.63312898883E+02 -0.36743358007E+02 -0.10530397991E+02  0.10925521845E+03  0.80419002446E+02 0. -1.
<mgrwt>
<rscale>  0 0.10874656E+03</rscale>
<asrwt>0</asrwt>
<pdfrwt beam="1">  1        1 0.10230080E-01 0.10874656E+03</pdfrwt>
<pdfrwt beam="2">  1       -1 0.76480935E-01 0.10874656E+03</pdfrwt>
<totfact> 0.10888687E+03</totfact>
</mgrwt>
</event>
<event>
 4    1  0.5074571E-001  0.8179240E+02  0.7546771E-02  0.1324040E+00
          2   -1    0    0  501    0  0.00000000000E+00  0.00000000000E+00  0.18844599103E+04  0.18844599103E+04  0.00000000000E+00 0. -1.
         -2   -1    0    0    0  501 -0.00000000000E+00 -0.00000000000E+00 -0.19715354491E+02  0.19715354491E+02  0.00000000000E+00 0.  1.
         24    1    1    2    0    0  0.10804579644E+02 -0.10297677046E+02  0.17944890086E+04  0.17963520810E+04  0.80419002446E+02 0.  1.
        -24    1    1    2    0    0 -0.10804579644E+02  0.10297677046E+02  0.70255547290E+02  0.10782318384E+03  0.80419002446E+02 0.  1.
<mgrwt>
<rscale>  0 0.81792402E+02</rscale>
<asrwt>0</asrwt>
<pdfrwt beam="1">  1        2 0.28991677E+00 0.81792402E+02</pdfrwt>
<pdfrwt beam="2">  1       -2 0.30331329E-02 0.81792402E+02</pdfrwt>
<totfact> 0.35309564E+03</totfact>
</mgrwt>
</event>
<event>
 4    1  0.5074571E-001  0.1241318E+03  0.7546771E-02  0.1236432E+00
          2   -1    0    0  501    0  0.00000000000E+00  0.00000000000E+00  0.14815697210E+03  0.14815697210E+03  0.00000000000E+00 0. -1.
         -2   -1    0    0    0  501 -0.00000000000E+00 -0.00000000000E+00 -0.13884201143E+03  0.13884201143E+03  0.00000000000E+00 0.  1.
         24    1    1    2    0    0  0.29331380474E+02  0.89895236725E+02 -0.67225450709E+02  0.14116642888E+03  0.80419002446E+02 0.  1.
        -24    1    1    2    0    0 -0.29331380474E+02 -0.89895236725E+02  0.76540411385E+02  0.14583255465E+03  0.80419002446E+02 0. -1.
<mgrwt>
<rscale>  0 0.12413180E+03</rscale>
<asrwt>0</asrwt>
<pdfrwt beam="1">  1        2 0.22793380E-01 0.12413181E+03</pdfrwt>
<pdfrwt beam="2">  1       -2 0.21360309E-01 0.12413181E+03</pdfrwt>
<totfact> 0.42667298E+03</totfact>
</mgrwt>
</event>
<event>
 4    1  0.5074571E-001  0.9504109E+02  0.7546771E-02  0.1291084E+00
         -1   -1    0    0    0  501 -0.00000000000E+00  0.00000000000E+00  0.35123796120E+02  0.35123796120E+02  0.00000000000E+00 0.  1.
          1   -1    0    0  501    0  0.00000000000E+00 -0.00000000000E+00 -0.32543294924E+03  0.32543294924E+03  0.00000000000E+00 0. -1.
         24    1    1    2    0    0 -0.18523272963E+02  0.47143195572E+02 -0.62588164177E+02  0.11379844805E+03  0.80419002446E+02 0.  1.
        -24    1    1    2    0    0  0.18523272963E+02 -0.47143195572E+02 -0.22772098894E+03  0.24675829731E+03  0.80419002446E+02 0. -1.
<mgrwt>
<rscale>  0 0.95041088E+02</rscale>
<asrwt>0</asrwt>
<pdfrwt beam="1">  1        1 0.50066607E-01 0.95041088E+02</pdfrwt>
<pdfrwt beam="2">  1       -1 0.54036610E-02 0.95041088E+02</pdfrwt>
<totfact> 0.11331990E+04</totfact>
</mgrwt>
</event>
<event>
 4    1  0.5074571E-001  0.9786164E+02  0.7546771E-02  0.1284858E+00
          2   -1    0    0  501    0  0.00000000000E+00  0.00000000000E+00  0.19471335110E+04  0.19471335110E+04  0.00000000000E+00 0. -1.
         -2   -1    0    0    0  501 -0.00000000000E+00 -0.00000000000E+00 -0.10684878283E+02  0.10684878283E+02  0.00000000000E+00 0.  1.
         24    1    1    2    0    0  0.46895220301E+02  0.30174857933E+02  0.16873597067E+04  0.16901951602E+04  0.80419002446E+02 0. -1.
        -24    1    1    2    0    0 -0.46895220301E+02 -0.30174857933E+02  0.24908892603E+03  0.26762322912E+03  0.80419002446E+02 0.  1.
<mgrwt>
<rscale>  0 0.97861635E+02</rscale>
<asrwt>0</asrwt>
<pdfrwt beam="1">  1        2 0.29955872E+00 0.97861635E+02</pdfrwt>
<pdfrwt beam="2">  1       -2 0.16438290E-02 0.97861635E+02</pdfrwt>
<totfact> 0.79730059E+03</totfact>
</mgrwt>
</event>
<event>
 4    1  0.5074571E-001  0.8890381E+02  0.7546771E-02  0.1305528E+00
          1   -1    0    0  501    0  0.00000000000E+00  0.00000000000E+00  0.88475320917E+03  0.88475320917E+03  0.00000000000E+00 0. -1.
         -1   -1    0    0    0  501 -0.00000000000E+00 -0.00000000000E+00 -0.97641303417E+01  0.97641303417E+01  0.00000000000E+00 0.  1.
         24    1    1    2    0    0  0.19664274645E+02  0.32403510373E+02  0.30703906024E+03  0.31965117183E+03  0.80419002446E+02 0.  0.
        -24    1    1    2    0    0 -0.19664274645E+02 -0.32403510373E+02  0.56795001858E+03  0.57486616768E+03  0.80419002446E+02 0.  1.
<mgrwt>
<rscale>  0 0.88903808E+02</rscale>
<asrwt>0</asrwt>
<pdfrwt beam="1">  1        1 0.13611581E+00 0.88903808E+02</pdfrwt>
<pdfrwt beam="2">  1       -1 0.15021746E-02 0.88903808E+02</pdfrwt>
<totfact> 0.18795835E+04</totfact>
</mgrwt>
</event>
<event>
 4    1  0.5074571E-001  0.8352679E+02  0.7546771E-02  0.1319331E+00
         -1   -1    0    0    0  501 -0.00000000000E+00  0.00000000000E+00  0.45842314057E+02  0.45842314057E+02  0.00000000000E+00 0.  1.
          1   -1    0    0  501    0  0.00000000000E+00 -0.00000000000E+00 -0.17125973072E+03  0.17125973072E+03  0.00000000000E+00 0. -1.
         24    1    1    2    0    0  0.13589385833E+02  0.18023246089E+02 -0.26485843403E+02  0.87625479525E+02  0.80419002446E+02 0.  1.
        -24    1    1    2    0    0 -0.13589385833E+02 -0.18023246089E+02 -0.98931573256E+02  0.12947656525E+03  0.80419002446E+02 0. -1.
<mgrwt>
<rscale>  0 0.83526791E+02</rscale>
<asrwt>0</asrwt>
<pdfrwt beam="1">  1        1 0.26347650E-01 0.83526791E+02</pdfrwt>
<pdfrwt beam="2">  1       -1 0.70526638E-02 0.83526791E+02</pdfrwt>
<totfact> 0.16567726E+04</totfact>
</mgrwt>
</event>
<event>
 4    1  0.5074571E-001  0.9741522E+02  0.7546771E-02  0.1285827E+00
          4   -1    0    0  501    0  0.00000000000E+00  0.00000000000E+00  0.86533031259E+02  0.86533031259E+02  0.00000000000E+00 0. -1.
         -4   -1    0    0    0  501 -0.00000000000E+00 -0.00000000000E+00 -0.11063738425E+03  0.11063738425E+03  0.00000000000E+00 0.  1.
         24    1    1    2    0    0 -0.54781917486E+02 -0.46313929618E+01 -0.28142426136E+01  0.97455857700E+02  0.80419002446E+02 0.  1.
        -24    1    1    2    0    0  0.54781917486E+02  0.46313929618E+01 -0.21290110373E+02  0.99714557805E+02  0.80419002446E+02 0. -1.
<mgrwt>
<rscale>  0 0.97415216E+02</rscale>
<asrwt>0</asrwt>
<pdfrwt beam="1">  1        4 0.13312774E-01 0.97415216E+02</pdfrwt>
<pdfrwt beam="2">  1       -4 0.17021136E-01 0.97415216E+02</pdfrwt>
<totfact> 0.21201252E+03</totfact>
</mgrwt>
</event>
<event>
 4    1  0.5074571E-001  0.1072321E+03  0.7546771E-02  0.1265783E+00
         -2   -1    0    0    0  501 -0.00000000000E+00  0.00000000000E+00  0.53275610169E+02  0.53275610169E+02  0.00000000000E+00 0.  1.
          2   -1    0    0  501    0  0.00000000000E+00 -0.00000000000E+00 -0.23160753720E+03  0.23160753720E+03  0.00000000000E+00 0. -1.
         24    1    1    2    0    0 -0.70219530612E+02  0.10036443694E+02 -0.12633783928E+03  0.16571052552E+03  0.80419002446E+02 0. -1.
        -24    1    1    2    0    0  0.70219530612E+02 -0.10036443694E+02 -0.51994087749E+02  0.11917262184E+03  0.80419002446E+02 0.  1.
<mgrwt>
<rscale>  0 0.10723213E+03</rscale>
<asrwt>0</asrwt>
<pdfrwt beam="1">  1        2 0.35631928E-01 0.10723213E+03</pdfrwt>
<pdfrwt beam="2">  1       -2 0.81962478E-02 0.10723213E+03</pdfrwt>
<totfact> 0.12164258E+04</totfact>
</mgrwt>
</event>
<event>
 4    1  0.5074571E-001  0.8397774E+02  0.7546771E-02  0.1318128E+00
          2   -1    0    0  501    0  0.00000000000E+00  0.00000000000E+00  0.38748604200E+04  0.38748604200E+04  0.00000000000E+00 0. -1.
         -2   -1    0    0    0  501 -0.00000000000E+00 -0.00000000000E+00 -0.21033302705E+01  0.21033302705E+01  0.00000000000E+00 0.  1.
         24    1    1    2    0    0  0.11838400519E+02  0.21092603862E+02  0.26478400396E+04  0.26491714057E+04  0.80419002446E+02 0. -1.
        -24    1    1    2    0    0 -0.11838400519E+02 -0.21092603862E+02  0.12249170501E+04  0.12277923445E+04  0.80419002446E+02 0.  0.
<mgrwt>
<rscale>  0 0.83977745E+02</rscale>
<asrwt>0</asrwt>
<pdfrwt beam="1">  1        2 0.59612666E+00 0.83977745E+02</pdfrwt>
<pdfrwt beam="2">  1       -2 0.32359237E-03 0.83977745E+02</pdfrwt>
<totfact> 0.61370378E+03</totfact>
</mgrwt>
</event>
<event>
 4    1  0.5074571E-001  0.8261966E+02  0.7546771E-02  0.1321777E+00
          2   -1    0    0  501    0  0.00000000000E+00  0.00000000000E+00  0.39699556871E+04  0.39699556871E+04  0.00000000000E+00 0. -1.
         -2   -1    0    0    0  501 -0.00000000000E+00 -0.00000000000E+00 -0.23821000014E+01  0.23821000014E+01  0.00000000000E+00 0.  1.
         24    1    1    2    0    0  0.82315686345E+01  0.17059697866E+02  0.30313716367E+04  0.30324973220E+04  0.80419002446E+02 0. -1.
        -24    1    1    2    0    0 -0.82315686345E+01 -0.17059697866E+02  0.93620195042E+03  0.93984046515E+03  0.80419002446E+02 0.  1.
<mgrwt>
<rscale>  0 0.82619658E+02</rscale>
<asrwt>0</asrwt>
<pdfrwt beam="1">  1        2 0.61075712E+00 0.82619658E+02</pdfrwt>
<pdfrwt beam="2">  1       -2 0.36648010E-03 0.82619658E+02</pdfrwt>
<totfact> 0.44103895E+03</totfact>
</mgrwt>
</event>
<event>
 4    1  0.5074571E-001  0.8463551E+02  0.7546771E-02  0.1316388E+00
         -3   -1    0    0    0  501 -0.00000000000E+00  0.00000000000E+00  0.32932988112E+03  0.32932988112E+03  0.00000000000E+00 0.  1.
          3   -1    0    0  501    0  0.00000000000E+00 -0.00000000000E+00 -0.34869680595E+02  0.34869680595E+02  0.00000000000E+00 0. -1.
         24    1    1    2    0    0  0.26306085774E+02 -0.19860015520E+01  0.25892535849E+03  0.27240688606E+03  0.80419002446E+02 0.  1.
        -24    1    1    2    0    0 -0.26306085774E+02  0.19860015520E+01  0.35534842040E+02  0.91792675656E+02  0.80419002446E+02 0. -1.
<mgrwt>
<rscale>  0 0.84635514E+02</rscale>
<asrwt>0</asrwt>
<pdfrwt beam="1">  1        3 0.53645665E-02 0.84635514E+02</pdfrwt>
<pdfrwt beam="2">  1       -3 0.50666133E-01 0.84635514E+02</pdfrwt>
<totfact> 0.16651575E+03</totfact>
</mgrwt>
</event>
<event>
 4    1  0.5074571E-001  0.1021650E+03  0.7546771E-02  0.1275808E+00
         -1   -1    0    0    0  501 -0.00000000000E+00  0.00000000000E+00  0.83001601530E+02  0.83001601530E+02  0.00000000000E+00 0.  1.
          1   -1    0    0  501    0  0.00000000000E+00 -0.00000000000E+00 -0.13266065585E+03  0.13266065585E+03  0.00000000000E+00 0. -1.
         24    1    1    2    0    0  0.55685575854E+02 -0.29488708658E+02 -0.22330611506E+00  0.10216522459E+03  0.80419002446E+02 0. -1.
        -24    1    1    2    0    0 -0.55685575854E+02  0.29488708658E+02 -0.49435748210E+02  0.11349703279E+03  0.80419002446E+02 0.  1.
<mgrwt>
<rscale>  0 0.10216498E+03</rscale>
<asrwt>0</asrwt>
<pdfrwt beam="1">  1        1 0.20409332E-01 0.10216498E+03</pdfrwt>
<pdfrwt beam="2">  1       -1 0.12769477E-01 0.10216498E+03</pdfrwt>
<totfact> 0.94930965E+03</totfact>
</mgrwt>
</event>
<event>
 4    1  0.5074571E-001  0.1240085E+03  0.7546771E-02  0.1236627E+00
          2   -1    0    0  501    0  0.00000000000E+00  0.00000000000E+00  0.12945130513E+02  0.12945130513E+02  0.00000000000E+00 0. -1.
         -2   -1    0    0    0  501 -0.00000000000E+00 -0.00000000000E+00 -0.15391080377E+04  0.15391080377E+04  0.00000000000E+00 0.  1.
         24    1    1    2    0    0  0.61372472814E+02 -0.71723890085E+02 -0.11337587446E+04  0.11405204968E+04  0.80419002446E+02 0.  0.
        -24    1    1    2    0    0 -0.61372472814E+02  0.71723890085E+02 -0.39240416262E+03  0.41153267139E+03  0.80419002446E+02 0.  0.
<mgrwt>
<rscale>  0 0.12400853E+03</rscale>
<asrwt>0</asrwt>
<pdfrwt beam="1">  1        2 0.19915585E-02 0.12400855E+03</pdfrwt>
<pdfrwt beam="2">  1       -2 0.23678586E+00 0.12400855E+03</pdfrwt>
<totfact> 0.46288283E+02</totfact>
</mgrwt>
</event>
<event>
 4    1  0.5074571E-001  0.1053609E+03  0.7546771E-02  0.1269410E+00
         -2   -1    0    0    0  501 -0.00000000000E+00  0.00000000000E+00  0.30867249892E+03  0.30867249892E+03  0.00000000000E+00 0.  1.
          2   -1    0    0  501    0  0.00000000000E+00 -0.00000000000E+00 -0.69865417516E+03  0.69865417516E+03  0.00000000000E+00 0. -1.
         24    1    1    2    0    0 -0.39183777466E+01  0.67958373498E+02 -0.68551982277E+03  0.69356927381E+03  0.80419002446E+02 0. -1.
        -24    1    1    2    0    0  0.39183777466E+01 -0.67958373498E+02  0.29553814653E+03  0.31375740027E+03  0.80419002446E+02 0.  1.
<mgrwt>
<rscale>  0 0.10536086E+03</rscale>
<asrwt>0</asrwt>
<pdfrwt beam="1">  1        2 0.10748526E+00 0.10536086E+03</pdfrwt>
<pdfrwt beam="2">  1       -2 0.47488077E-01 0.10536086E+03</pdfrwt>
<totfact> 0.18620010E+02</totfact>
</mgrwt>
</event>
<event>
 4    1  0.5074571E-001  0.8724361E+02  0.7546771E-02  0.1309667E+00
         -2   -1    0    0    0  501 -0.00000000000E+00  0.00000000000E+00  0.13638412427E+02  0.13638412427E+02  0.00000000000E+00 0.  1.
          2   -1    0    0  501    0  0.00000000000E+00 -0.00000000000E+00 -0.60028363481E+03  0.60028363481E+03  0.00000000000E+00 0. -1.
         24    1    1    2    0    0  0.33798471936E+02  0.13763215499E+01 -0.37470566614E+03  0.38472819387E+03  0.80419002446E+02 0. -1.
        -24    1    1    2    0    0 -0.33798471936E+02 -0.13763215499E+01 -0.21193955624E+03  0.22919385337E+03  0.80419002446E+02 0.  1.
<mgrwt>
<rscale>  0 0.87243607E+02</rscale>
<asrwt>0</asrwt>
<pdfrwt beam="1">  1        2 0.92351327E-01 0.87243607E+02</pdfrwt>
<pdfrwt beam="2">  1       -2 0.20982173E-02 0.87243607E+02</pdfrwt>
<totfact> 0.32451172E+04</totfact>
</mgrwt>
</event>
<event>
 4    1  0.5074571E-001  0.8104968E+02  0.7546771E-02  0.1326099E+00
          2   -1    0    0  501    0  0.00000000000E+00  0.00000000000E+00  0.29436824323E+04  0.29436824323E+04  0.00000000000E+00 0. -1.
         -2   -1    0    0    0  501 -0.00000000000E+00 -0.00000000000E+00 -0.22598368899E+01  0.22598368899E+01  0.00000000000E+00 0.  1.
         24    1    1    2    0    0 -0.49796960594E+01 -0.87771203616E+01  0.16354320590E+04  0.16374391808E+04  0.80419002446E+02 0.  1.
        -24    1    1    2    0    0  0.49796960594E+01  0.87771203616E+01  0.13059905365E+04  0.13085030885E+04  0.80419002446E+02 0.  1.
<mgrwt>
<rscale>  0 0.81049683E+02</rscale>
<asrwt>0</asrwt>
<pdfrwt beam="1">  1        2 0.45287115E+00 0.81049683E+02</pdfrwt>
<pdfrwt beam="2">  1       -2 0.34766957E-03 0.81049683E+02</pdfrwt>
<totfact> 0.21211239E+04</totfact>
</mgrwt>
</event>
