<event>
 4    2  0.3179755E-007  0.7300982E+03  0.7818608E-02  0.9889790E-01
         -1   -1    0    0    0  501 -0.00000000000E+00  0.00000000000E+00  0.99713582379E+03  0.99713582380E+03  0.50400000000E-02 0.  1.
          1   -1    0    0  501    0  0.00000000000E+00 -0.00000000000E+00 -0.30599669002E+03  0.30599669006E+03  0.50400000000E-02 0. -1.
    8880023    1    1    2    0    0 -0.11547693539E+03  0.29308413485E+03  0.33369900599E+03  0.80274433388E+03  0.65864270000E+03 0.  0.
    8880022    1    1    2    0    0  0.11547693539E+03 -0.29308413485E+03  0.35744012778E+03  0.50038817999E+03  0.15294330000E+03 0. -1.
<mgrwt>
<rscale>  0 0.60758676E+03</rscale>
<asrwt>0</asrwt>
<pdfrwt beam="1">  1        1 0.47076415E-01 0.73009824E+03</pdfrwt>
<pdfrwt beam="2">  1       -1 0.15340551E+00 0.73009824E+03</pdfrwt>
<totfact> 0.28752544E+01</totfact>
</mgrwt>
</event>
<event>
 4    2  0.3179755E-007  0.6904324E+03  0.7818608E-02  0.1003948E+00
          1   -1    0    0  501    0  0.00000000000E+00  0.00000000000E+00  0.60870159114E+03  0.60870159116E+03  0.50400000000E-02 0. -1.
         -1   -1    0    0    0  501 -0.00000000000E+00 -0.00000000000E+00 -0.75205454662E+03  0.75205454663E+03  0.50400000000E-02 0.  1.
    8880023    1    1    2    0    0  0.19583522465E+03 -0.67344128275E+02  0.37229671944E+03  0.78441170338E+03  0.65864270000E+03 0. -1.
    8880022    1    1    2    0    0 -0.19583522465E+03  0.67344128275E+02 -0.51564967492E+03  0.57634443442E+03  0.15294330000E+03 0.  0.
<mgrwt>
<rscale>  0 0.53952590E+03</rscale>
<asrwt>0</asrwt>
<pdfrwt beam="1">  1        1 0.93646399E-01 0.69043238E+03</pdfrwt>
<pdfrwt beam="2">  1       -1 0.11570070E+00 0.69043238E+03</pdfrwt>
<totfact> 0.23424418E+01</totfact>
</mgrwt>
</event>
<event>
 4    2  0.3179755E-007  0.7203964E+03  0.7818608E-02  0.9921247E-01
          1   -1    0    0  501    0  0.00000000000E+00  0.00000000000E+00  0.32337659690E+03  0.32337659694E+03  0.50400000000E-02 0. -1.
         -1   -1    0    0    0  501 -0.00000000000E+00 -0.00000000000E+00 -0.16887628263E+04  0.16887628263E+04  0.50400000000E-02 0.  1.
    8880023    1    1    2    0    0 -0.38119398841E+02  0.28932277716E+03 -0.12804914811E+03  0.73168814979E+03  0.65864270000E+03 0. -1.
    8880022    1    1    2    0    0  0.38119398841E+02 -0.28932277716E+03 -0.12373370813E+04  0.12804512735E+04  0.15294330000E+03 0.  0.
<mgrwt>
<rscale>  0 0.59242528E+03</rscale>
<asrwt>0</asrwt>
<pdfrwt beam="1">  1        1 0.49750247E-01 0.72039639E+03</pdfrwt>
<pdfrwt beam="2">  1       -1 0.25980966E+00 0.72039639E+03</pdfrwt>
<totfact> 0.49968511E+00</totfact>
</mgrwt>
</event>
<event>
 4    2  0.3179755E-007  0.6778245E+03  0.7818608E-02  0.1010582E+00
          1   -1    0    0  501    0  0.00000000000E+00  0.00000000000E+00  0.17083482032E+04  0.17083482032E+04  0.50400000000E-02 0. -1.
         -1   -1    0    0    0  501 -0.00000000000E+00 -0.00000000000E+00 -0.23165341188E+03  0.23165341194E+03  0.50400000000E-02 0.  1.
    8880023    1    1    2    0    0  0.45404906850E+02  0.15353895192E+03  0.15619889313E+04  0.17027200132E+04  0.65864270000E+03 0. -1.
    8880022    1    1    2    0    0 -0.45404906850E+02 -0.15353895192E+03 -0.85294139994E+02  0.23728160201E+03  0.15294330000E+03 0.  0.
<mgrwt>
<rscale>  0 0.51243982E+03</rscale>
<asrwt>0</asrwt>
<pdfrwt beam="1">  1        1 0.26282280E+00 0.67782448E+03</pdfrwt>
<pdfrwt beam="2">  1       -1 0.35638987E-01 0.67782448E+03</pdfrwt>
<totfact> 0.36819889E+01</totfact>
</mgrwt>
</event>
<event>
 4    2  0.3179755E-007  0.8418443E+03  0.7818608E-02  0.9626712E-01
         -1   -1    0    0    0  501 -0.00000000000E+00  0.00000000000E+00  0.83079497097E+03  0.83079497099E+03  0.50400000000E-02 0.  1.
          1   -1    0    0  501    0  0.00000000000E+00 -0.00000000000E+00 -0.80102962150E+03  0.80102962151E+03  0.50400000000E-02 0. -1.
    8880023    1    1    2    0    0  0.25168985918E+02  0.52369659545E+03 -0.40457798029E+03  0.93401560498E+03  0.65864270000E+03 0. -1.
    8880022    1    1    2    0    0 -0.25168985918E+02 -0.52369659545E+03  0.43434332977E+03  0.69780898752E+03  0.15294330000E+03 0.  0.
<mgrwt>
<rscale>  0 0.75553126E+03</rscale>
<asrwt>0</asrwt>
<pdfrwt beam="1">  1        1 0.12323533E+00 0.84184429E+03</pdfrwt>
<pdfrwt beam="2">  1       -1 0.12781461E+00 0.84184429E+03</pdfrwt>
<totfact> 0.11897636E+01</totfact>
</mgrwt>
</event>
<event>
 4    2  0.3179755E-007  0.1063602E+04  0.7818608E-02  0.9302706E-01
          1   -1    0    0  501    0  0.00000000000E+00  0.00000000000E+00  0.39913306142E+03  0.39913306145E+03  0.50400000000E-02 0. -1.
         -1   -1    0    0    0  501 -0.00000000000E+00 -0.00000000000E+00 -0.30357638149E+04  0.30357638149E+04  0.50400000000E-02 0.  1.
    8880023    1    1    2    0    0 -0.72102538458E+03 -0.42137995539E+03 -0.58349768080E+03  0.12131440235E+04  0.65864270000E+03 0.  0.
    8880022    1    1    2    0    0  0.72102538458E+03  0.42137995539E+03 -0.20531330727E+04  0.22217528529E+04  0.15294330000E+03 0.  0.
<mgrwt>
<rscale>  0 0.10053411E+04</rscale>
<asrwt>0</asrwt>
<pdfrwt beam="1">  1        1 0.61405088E-01 0.10636018E+04</pdfrwt>
<pdfrwt beam="2">  1       -1 0.46704057E+00 0.10636018E+04</pdfrwt>
<totfact> 0.15110814E-01</totfact>
</mgrwt>
</event>
<event>
 4    2  0.3179755E-007  0.8244861E+03  0.7818608E-02  0.9660157E-01
          1   -1    0    0  501    0  0.00000000000E+00  0.00000000000E+00  0.16647323947E+04  0.16647323947E+04  0.50400000000E-02 0. -1.
         -1   -1    0    0    0  501 -0.00000000000E+00 -0.00000000000E+00 -0.27135810499E+03  0.27135810503E+03  0.50400000000E-02 0.  1.
    8880023    1    1    2    0    0  0.46700759897E+03  0.16694625320E+03  0.82352308286E+03  0.11653186788E+04  0.65864270000E+03 0.  0.
    8880022    1    1    2    0    0 -0.46700759897E+03 -0.16694625320E+03  0.56985120685E+03  0.77077182091E+03  0.15294330000E+03 0. -1.
<mgrwt>
<rscale>  0 0.73439364E+03</rscale>
<asrwt>0</asrwt>
<pdfrwt beam="1">  1        1 0.25611267E+00 0.82448612E+03</pdfrwt>
<pdfrwt beam="2">  1       -1 0.41747402E-01 0.82448612E+03</pdfrwt>
<totfact> 0.29065139E+01</totfact>
</mgrwt>
</event>
<event>
 4    2  0.3179755E-007  0.7567798E+03  0.7818608E-02  0.9813517E-01
         -1   -1    0    0    0  501 -0.00000000000E+00  0.00000000000E+00  0.53125363257E+03  0.53125363259E+03  0.50400000000E-02 0.  1.
          1   -1    0    0  501    0  0.00000000000E+00 -0.00000000000E+00 -0.64568962966E+03  0.64568962968E+03  0.50400000000E-02 0. -1.
    8880023    1    1    2    0    0  0.21300013814E+03 -0.30583717799E+03 -0.15350775726E+03  0.77219186482E+03  0.65864270000E+03 0. -1.
    8880022    1    1    2    0    0 -0.21300013814E+03  0.30583717799E+03  0.39071760166E+02  0.40475139746E+03  0.15294330000E+03 0.  1.
<mgrwt>
<rscale>  0 0.64642179E+03</rscale>
<asrwt>0</asrwt>
<pdfrwt beam="1">  1        1 0.99336866E-01 0.75677979E+03</pdfrwt>
<pdfrwt beam="2">  1       -1 0.81731328E-01 0.75677979E+03</pdfrwt>
<totfact> 0.46829486E+01</totfact>
</mgrwt>
</event>
<event>
 4    2  0.3179755E-007  0.8191899E+03  0.7818608E-02  0.9670743E-01
          1   -1    0    0  501    0  0.00000000000E+00  0.00000000000E+00  0.24717647724E+04  0.24717647724E+04  0.50400000000E-02 0. -1.
         -1   -1    0    0    0  501 -0.00000000000E+00 -0.00000000000E+00 -0.65516570718E+03  0.65516570720E+03  0.50400000000E-02 0.  1.
    8880023    1    1    2    0    0 -0.93624171212E+02 -0.47801291654E+03  0.22891174959E+04  0.24312817505E+04  0.65864270000E+03 0.  0.
    8880022    1    1    2    0    0  0.93624171212E+02  0.47801291654E+03 -0.47251843077E+03  0.69564872906E+03  0.15294330000E+03 0.  0.
<mgrwt>
<rscale>  0 0.72785752E+03</rscale>
<asrwt>0</asrwt>
<pdfrwt beam="1">  1        1 0.38027151E+00 0.81918987E+03</pdfrwt>
<pdfrwt beam="2">  1       -1 0.10079472E+00 0.81918987E+03</pdfrwt>
<totfact> 0.13934203E+00</totfact>
</mgrwt>
</event>
<event>
 4    2  0.3179755E-007  0.7908719E+03  0.7818608E-02  0.9730892E-01
         -1   -1    0    0    0  501 -0.00000000000E+00  0.00000000000E+00  0.46827269301E+03  0.46827269303E+03  0.50400000000E-02 0.  1.
          1   -1    0    0  501    0  0.00000000000E+00 -0.00000000000E+00 -0.18543596731E+04  0.18543596731E+04  0.50400000000E-02 0. -1.
    8880023    1    1    2    0    0 -0.37105696680E+03  0.23234655106E+03 -0.16203643587E+04  0.18030693425E+04  0.65864270000E+03 0.  0.
    8880022    1    1    2    0    0  0.37105696680E+03 -0.23234655106E+03  0.23427737865E+03  0.51956302367E+03  0.15294330000E+03 0.  0.
<mgrwt>
<rscale>  0 0.69206922E+03</rscale>
<asrwt>0</asrwt>
<pdfrwt beam="1">  1        1 0.28528610E+00 0.79087192E+03</pdfrwt>
<pdfrwt beam="2">  1       -1 0.72041954E-01 0.79087192E+03</pdfrwt>
<totfact> 0.75553470E+00</totfact>
</mgrwt>
</event>
<event>
 4    2  0.3179755E-007  0.1103597E+04  0.7818608E-02  0.9257061E-01
         -1   -1    0    0    0  501 -0.00000000000E+00  0.00000000000E+00  0.73469325298E+03  0.73469325300E+03  0.50400000000E-02 0.  1.
          1   -1    0    0  501    0  0.00000000000E+00 -0.00000000000E+00 -0.16310958478E+04  0.16310958478E+04  0.50400000000E-02 0. -1.
    8880023    1    1    2    0    0 -0.20339243700E+03  0.86182859235E+03 -0.10116984397E+02  0.11036437676E+04  0.65864270000E+03 0.  0.
    8880022    1    1    2    0    0  0.20339243700E+03 -0.86182859235E+03 -0.88628561042E+03  0.12621453333E+04  0.15294330000E+03 0.  0.
<mgrwt>
<rscale>  0 0.10483382E+04</rscale>
<asrwt>0</asrwt>
<pdfrwt beam="1">  1        1 0.25093782E+00 0.11035974E+04</pdfrwt>
<pdfrwt beam="2">  1       -1 0.11302973E+00 0.11035974E+04</pdfrwt>
<totfact> 0.37782348E+00</totfact>
</mgrwt>
</event>
<event>
 4    2  0.3179755E-007  0.7354999E+03  0.7818608E-02  0.9873255E-01
          1   -1    0    0  501    0  0.00000000000E+00  0.00000000000E+00  0.88848564648E+03  0.88848564649E+03  0.50400000000E-02 0. -1.
         -1   -1    0    0    0  501 -0.00000000000E+00 -0.00000000000E+00 -0.59791160899E+03  0.59791160901E+03  0.50400000000E-02 0.  1.
    8880023    1    1    2    0    0  0.32615207019E+03  0.27832974645E+02  0.64648394830E+03  0.97923518576E+03  0.65864270000E+03 0. -1.
    8880022    1    1    2    0    0 -0.32615207019E+03 -0.27832974645E+02 -0.35590991080E+03  0.50716206974E+03  0.15294330000E+03 0.  0.
<mgrwt>
<rscale>  0 0.61575156E+03</rscale>
<asrwt>0</asrwt>
<pdfrwt beam="1">  1        1 0.13669010E+00 0.73549987E+03</pdfrwt>
<pdfrwt beam="2">  1       -1 0.91986402E-01 0.73549987E+03</pdfrwt>
<totfact> 0.22034304E+01</totfact>
</mgrwt>
</event>
<event>
 4    2  0.3179755E-007  0.1630049E+04  0.7818608E-02  0.8822875E-01
          1   -1    0    0  501    0  0.00000000000E+00  0.00000000000E+00  0.37841870334E+04  0.37841870334E+04  0.50400000000E-02 0. -1.
         -1   -1    0    0    0  501 -0.00000000000E+00 -0.00000000000E+00 -0.99040046793E+03  0.99040046794E+03  0.50400000000E-02 0.  1.
    8880023    1    1    2    0    0 -0.13482265359E+04  0.63681661510E+03  0.29773281203E+02  0.16303210874E+04  0.65864270000E+03 0.  0.
    8880022    1    1    2    0    0  0.13482265359E+04 -0.63681661510E+03  0.27640132843E+04  0.31442664140E+04  0.15294330000E+03 0.  0.
<mgrwt>
<rscale>  0 0.15962182E+04</rscale>
<asrwt>0</asrwt>
<pdfrwt beam="1">  1        1 0.58218262E+00 0.16300492E+04</pdfrwt>
<pdfrwt beam="2">  1       -1 0.15236930E+00 0.16300492E+04</pdfrwt>
<totfact> 0.46304130E-02</totfact>
</mgrwt>
</event>
<event>
 4    2  0.3179755E-007  0.1363833E+04  0.7818608E-02  0.9012308E-01
         -1   -1    0    0    0  501 -0.00000000000E+00  0.00000000000E+00  0.17827486017E+04  0.17827486017E+04  0.50400000000E-02 0.  1.
          1   -1    0    0  501    0  0.00000000000E+00 -0.00000000000E+00 -0.11440806809E+04  0.11440806809E+04  0.50400000000E-02 0. -1.
    8880023    1    1    2    0    0  0.89964662628E+03  0.78540780415E+03  0.97526966696E+03  0.16766605502E+04  0.65864270000E+03 0.  0.
    8880022    1    1    2    0    0 -0.89964662628E+03 -0.78540780415E+03 -0.33660174616E+03  0.12501687324E+04  0.15294330000E+03 0.  0.
<mgrwt>
<rscale>  0 0.13219884E+04</rscale>
<asrwt>0</asrwt>
<pdfrwt beam="1">  1        1 0.17601241E+00 0.13638327E+04</pdfrwt>
<pdfrwt beam="2">  1       -1 0.27426901E+00 0.13638327E+04</pdfrwt>
<totfact> 0.54881907E-01</totfact>
</mgrwt>
</event>
<event>
 4    2  0.3179755E-007  0.6691581E+03  0.7818608E-02  0.1016274E+00
         -1   -1    0    0    0  501 -0.00000000000E+00  0.00000000000E+00  0.51422283042E+03  0.51422283045E+03  0.50400000000E-02 0.  1.
          1   -1    0    0  501    0  0.00000000000E+00 -0.00000000000E+00 -0.41758561140E+03  0.41758561143E+03  0.50400000000E-02 0. -1.
    8880023    1    1    2    0    0 -0.73078834736E+02 -0.92853707087E+02 -0.74971266920E+02  0.67334480330E+03  0.65864270000E+03 0. -1.
    8880022    1    1    2    0    0  0.73078834736E+02  0.92853707087E+02  0.17160848594E+03  0.25846363858E+03  0.15294330000E+03 0. -1.
<mgrwt>
<rscale>  0 0.49055607E+03</rscale>
<asrwt>0</asrwt>
<pdfrwt beam="1">  1        1 0.64243940E-01 0.66915808E+03</pdfrwt>
<pdfrwt beam="2">  1       -1 0.79111205E-01 0.66915808E+03</pdfrwt>
<totfact> 0.92619022E+01</totfact>
</mgrwt>
</event>
<event>
 4    2  0.3179755E-007  0.9710223E+03  0.7818608E-02  0.9420492E-01
         -1   -1    0    0    0  501 -0.00000000000E+00  0.00000000000E+00  0.12034321049E+04  0.12034321050E+04  0.50400000000E-02 0.  1.
          1   -1    0    0  501    0  0.00000000000E+00 -0.00000000000E+00 -0.13357196007E+04  0.13357196007E+04  0.50400000000E-02 0. -1.
    8880023    1    1    2    0    0 -0.12549176666E+03 -0.70237159304E+03 -0.10077596444E+04  0.13994512301E+04  0.65864270000E+03 0. -1.
    8880022    1    1    2    0    0  0.12549176666E+03  0.70237159304E+03  0.87547214859E+03  0.11397004756E+04  0.15294330000E+03 0.  0.
<mgrwt>
<rscale>  0 0.90408309E+03</rscale>
<asrwt>0</asrwt>
<pdfrwt beam="1">  1        1 0.20549532E+00 0.97102227E+03</pdfrwt>
<pdfrwt beam="2">  1       -1 0.18514340E+00 0.97102227E+03</pdfrwt>
<totfact> 0.16464936E+00</totfact>
</mgrwt>
</event>
<event>
 4    2  0.3179755E-007  0.6692767E+03  0.7818608E-02  0.1016187E+00
          1   -1    0    0  501    0  0.00000000000E+00  0.00000000000E+00  0.50803579169E+03  0.50803579172E+03  0.50400000000E-02 0. -1.
         -1   -1    0    0    0  501 -0.00000000000E+00 -0.00000000000E+00 -0.15249294443E+04  0.15249294443E+04  0.50400000000E-02 0.  1.
    8880023    1    1    2    0    0  0.84932519331E+02 -0.83111978575E+02  0.27723432888E+03  0.72442405620E+03  0.65864270000E+03 0. -1.
    8880022    1    1    2    0    0 -0.84932519331E+02  0.83111978575E+02 -0.12941279815E+04  0.13085411798E+04  0.15294330000E+03 0.  0.
<mgrwt>
<rscale>  0 0.49088155E+03</rscale>
<asrwt>0</asrwt>
<pdfrwt beam="1">  1        1 0.78159353E-01 0.66927673E+03</pdfrwt>
<pdfrwt beam="2">  1       -1 0.23460453E+00 0.66927673E+03</pdfrwt>
<totfact> 0.40182820E+00</totfact>
</mgrwt>
</event>
<event>
 4    2  0.3179755E-007  0.7097804E+03  0.7818608E-02  0.9958817E-01
         -1   -1    0    0    0  501 -0.00000000000E+00  0.00000000000E+00  0.30161488701E+03  0.30161488705E+03  0.50400000000E-02 0.  1.
          1   -1    0    0  501    0  0.00000000000E+00 -0.00000000000E+00 -0.10798100405E+04  0.10798100405E+04  0.50400000000E-02 0. -1.
    8880023    1    1    2    0    0  0.81577498262E+02 -0.25164089423E+03 -0.80673839257E+03  0.10745301616E+04  0.65864270000E+03 0. -1.
    8880022    1    1    2    0    0 -0.81577498262E+02  0.25164089423E+03  0.28543239075E+02  0.30689476597E+03  0.15294330000E+03 0.  1.
<mgrwt>
<rscale>  0 0.57493499E+03</rscale>
<asrwt>0</asrwt>
<pdfrwt beam="1">  1        1 0.16612462E+00 0.70978041E+03</pdfrwt>
<pdfrwt beam="2">  1       -1 0.46402291E-01 0.70978041E+03</pdfrwt>
<totfact> 0.62366668E+01</totfact>
</mgrwt>
</event>
<event>
 4    2  0.3179755E-007  0.1026054E+04  0.7818608E-02  0.9348238E-01
         -1   -1    0    0    0  501 -0.00000000000E+00  0.00000000000E+00  0.17417963811E+04  0.17417963811E+04  0.50400000000E-02 0.  1.
          1   -1    0    0  501    0  0.00000000000E+00 -0.00000000000E+00 -0.57834880612E+03  0.57834880615E+03  0.50400000000E-02 0. -1.
    8880023    1    1    2    0    0  0.46742526452E+03  0.63284272443E+03  0.16408124521E+03  0.10390905413E+04  0.65864270000E+03 0.  0.
    8880022    1    1    2    0    0 -0.46742526452E+03 -0.63284272443E+03  0.99936632976E+03  0.12810546459E+04  0.15294330000E+03 0.  0.
<mgrwt>
<rscale>  0 0.96460742E+03</rscale>
<asrwt>0</asrwt>
<pdfrwt beam="1">  1        1 0.88976741E-01 0.10260538E+04</pdfrwt>
<pdfrwt beam="2">  1       -1 0.26796867E+00 0.10260538E+04</pdfrwt>
<totfact> 0.19367046E+00</totfact>
</mgrwt>
</event>
<event>
 4    2  0.3179755E-007  0.9964626E+03  0.7818608E-02  0.9386200E-01
         -1   -1    0    0    0  501 -0.00000000000E+00  0.00000000000E+00  0.74435545745E+03  0.74435545746E+03  0.50400000000E-02 0.  1.
          1   -1    0    0  501    0  0.00000000000E+00 -0.00000000000E+00 -0.18220590397E+04  0.18220590397E+04  0.50400000000E-02 0. -1.
    8880023    1    1    2    0    0  0.68882094035E+03 -0.29095239641E+03  0.25684655851E+03  0.10290325290E+04  0.65864270000E+03 0.  1.
    8880022    1    1    2    0    0 -0.68882094035E+03  0.29095239641E+03 -0.13345501408E+04  0.15373819682E+04  0.15294330000E+03 0.  0.
<mgrwt>
<rscale>  0 0.93220097E+03</rscale>
<asrwt>0</asrwt>
<pdfrwt beam="1">  1        1 0.28031677E+00 0.99646264E+03</pdfrwt>
<pdfrwt beam="2">  1       -1 0.11451622E+00 0.99646264E+03</pdfrwt>
<totfact> 0.27543477E+00</totfact>
</mgrwt>
</event>
<event>
 4    2  0.3179755E-007  0.6941900E+03  0.7818608E-02  0.1002221E+00
          1   -1    0    0  501    0  0.00000000000E+00  0.00000000000E+00  0.12976772880E+04  0.12976772880E+04  0.50400000000E-02 0. -1.
         -1   -1    0    0    0  501 -0.00000000000E+00 -0.00000000000E+00 -0.25901094312E+03  0.25901094316E+03  0.50400000000E-02 0.  1.
    8880023    1    1    2    0    0  0.18748755377E+03 -0.11374508523E+03  0.10822947967E+04  0.12857922695E+04  0.65864270000E+03 0. -1.
    8880022    1    1    2    0    0 -0.18748755377E+03  0.11374508523E+03 -0.43628451751E+02  0.27089596167E+03  0.15294330000E+03 0.  0.
<mgrwt>
<rscale>  0 0.54686826E+03</rscale>
<asrwt>0</asrwt>
<pdfrwt beam="1">  1        1 0.19964266E+00 0.69418998E+03</pdfrwt>
<pdfrwt beam="2">  1       -1 0.39847837E-01 0.69418998E+03</pdfrwt>
<totfact> 0.57438527E+01</totfact>
</mgrwt>
</event>
<event>
 4    2  0.3179755E-007  0.7075389E+03  0.7818608E-02  0.9967256E-01
         -1   -1    0    0    0  501 -0.00000000000E+00  0.00000000000E+00  0.24342168562E+03  0.24342168567E+03  0.50400000000E-02 0.  1.
          1   -1    0    0  501    0  0.00000000000E+00 -0.00000000000E+00 -0.18286784496E+04  0.18286784496E+04  0.50400000000E-02 0. -1.
    8880023    1    1    2    0    0  0.62471584310E+02  0.25079539375E+03 -0.16219390005E+04  0.17695472178E+04  0.65864270000E+03 0. -1.
    8880022    1    1    2    0    0 -0.62471584310E+02 -0.25079539375E+03  0.36682236539E+02  0.30255291746E+03  0.15294330000E+03 0.  0.
<mgrwt>
<rscale>  0 0.57109602E+03</rscale>
<asrwt>0</asrwt>
<pdfrwt beam="1">  1        1 0.28133514E+00 0.70753886E+03</pdfrwt>
<pdfrwt beam="2">  1       -1 0.37449491E-01 0.70753886E+03</pdfrwt>
<totfact> 0.27876507E+01</totfact>
</mgrwt>
</event>
<event>
 4    2  0.3179755E-007  0.8914971E+03  0.7818608E-02  0.9539822E-01
          1   -1    0    0  501    0  0.00000000000E+00  0.00000000000E+00  0.20999433798E+04  0.20999433798E+04  0.50400000000E-02 0. -1.
         -1   -1    0    0    0  501 -0.00000000000E+00 -0.00000000000E+00 -0.34934511710E+03  0.34934511714E+03  0.50400000000E-02 0.  1.
    8880023    1    1    2    0    0  0.58366659286E+03 -0.14244382999E+03  0.15667754260E+04  0.18026514855E+04  0.65864270000E+03 0. -1.
    8880022    1    1    2    0    0 -0.58366659286E+03  0.14244382999E+03  0.18382283674E+03  0.64663701151E+03  0.15294330000E+03 0.  0.
<mgrwt>
<rscale>  0 0.81410538E+03</rscale>
<asrwt>0</asrwt>
<pdfrwt beam="1">  1        1 0.32306821E+00 0.89149714E+03</pdfrwt>
<pdfrwt beam="2">  1       -1 0.53745404E-01 0.89149714E+03</pdfrwt>
<totfact> 0.91398534E+00</totfact>
</mgrwt>
</event>
<event>
 4    2  0.3179755E-007  0.8525695E+03  0.7818608E-02  0.9606920E-01
          1   -1    0    0  501    0  0.00000000000E+00  0.00000000000E+00  0.11993599930E+04  0.11993599930E+04  0.50400000000E-02 0. -1.
         -1   -1    0    0    0  501 -0.00000000000E+00 -0.00000000000E+00 -0.51072659068E+03  0.51072659071E+03  0.50400000000E-02 0.  1.
    8880023    1    1    2    0    0 -0.53805872909E+03  0.59642901824E+02  0.42850961240E+02  0.85364564242E+03  0.65864270000E+03 0.  0.
    8880022    1    1    2    0    0  0.53805872909E+03 -0.59642901824E+02  0.64578244103E+03  0.85644094125E+03  0.15294330000E+03 0.  1.
<mgrwt>
<rscale>  0 0.76839851E+03</rscale>
<asrwt>0</asrwt>
<pdfrwt beam="1">  1        1 0.18451692E+00 0.85256946E+03</pdfrwt>
<pdfrwt beam="2">  1       -1 0.78573322E-01 0.85256946E+03</pdfrwt>
<totfact> 0.17668674E+01</totfact>
</mgrwt>
</event>
<event>
 4    2  0.3730343E-007  0.1076222E+04  0.7818608E-02  0.9288004E-01
         -1   -1    0    0    0  501 -0.00000000000E+00  0.00000000000E+00  0.99770046571E+03  0.99770046572E+03  0.50400000000E-02 0.  1.
          1   -1    0    0  501    0  0.00000000000E+00 -0.00000000000E+00 -0.21685719277E+04  0.21685719277E+04  0.50400000000E-02 0. -1.
    8880023    1    1    2    0    0 -0.77302403248E+03  0.35619712773E+03 -0.17997660618E+04  0.20970003891E+04  0.65864270000E+03 0. -1.
    8880022    1    1    2    0    0  0.77302403248E+03 -0.35619712773E+03  0.62889459977E+03  0.10692720043E+04  0.15294330000E+03 0.  0.
<mgrwt>
<rscale>  0 0.10189478E+04</rscale>
<asrwt>0</asrwt>
<pdfrwt beam="1">  1        1 0.33362645E+00 0.10762215E+04</pdfrwt>
<pdfrwt beam="2">  1       -1 0.15349238E+00 0.10762215E+04</pdfrwt>
<totfact> 0.75117397E-01</totfact>
</mgrwt>
</event>
<event>
 4    2  0.3179755E-007  0.8439366E+03  0.7818608E-02  0.9622802E-01
          1   -1    0    0  501    0  0.00000000000E+00  0.00000000000E+00  0.39967051457E+03  0.39967051460E+03  0.50400000000E-02 0. -1.
         -1   -1    0    0    0  501 -0.00000000000E+00 -0.00000000000E+00 -0.15818137638E+04  0.15818137638E+04  0.50400000000E-02 0.  1.
    8880023    1    1    2    0    0  0.48719815157E+03  0.20262476872E+03 -0.11562746669E+04  0.14315027584E+04  0.65864270000E+03 0.  1.
    8880022    1    1    2    0    0 -0.48719815157E+03 -0.20262476872E+03 -0.25868582359E+02  0.54998152002E+03  0.15294330000E+03 0.  0.
<mgrwt>
<rscale>  0 0.75805230E+03</rscale>
<asrwt>0</asrwt>
<pdfrwt beam="1">  1        1 0.61487772E-01 0.84393663E+03</pdfrwt>
<pdfrwt beam="2">  1       -1 0.24335596E+00 0.84393663E+03</pdfrwt>
<totfact> 0.47504574E+00</totfact>
</mgrwt>
</event>
<event>
 4    2  0.3179755E-007  0.6795059E+03  0.7818608E-02  0.1009605E+00
          1   -1    0    0  501    0  0.00000000000E+00  0.00000000000E+00  0.76258329030E+03  0.76258329031E+03  0.50400000000E-02 0. -1.
         -1   -1    0    0    0  501 -0.00000000000E+00 -0.00000000000E+00 -0.14277212010E+04  0.14277212010E+04  0.50400000000E-02 0.  1.
    8880023    1    1    2    0    0  0.14581329341E+03 -0.81587787713E+02  0.59912265290E+03  0.90591182966E+03  0.65864270000E+03 0. -1.
    8880022    1    1    2    0    0 -0.14581329341E+03  0.81587787713E+02 -0.12642605636E+04  0.12843926617E+04  0.15294330000E+03 0.  0.
<mgrwt>
<rscale>  0 0.51632114E+03</rscale>
<asrwt>0</asrwt>
<pdfrwt beam="1">  1        1 0.11732051E+00 0.67950592E+03</pdfrwt>
<pdfrwt beam="2">  1       -1 0.21964942E+00 0.67950592E+03</pdfrwt>
<totfact> 0.27842090E+00</totfact>
</mgrwt>
</event>
<event>
 4    2  0.3179755E-007  0.7150986E+03  0.7818608E-02  0.9939533E-01
         -1   -1    0    0    0  501 -0.00000000000E+00  0.00000000000E+00  0.55102086091E+03  0.55102086093E+03  0.50400000000E-02 0.  1.
          1   -1    0    0  501    0  0.00000000000E+00 -0.00000000000E+00 -0.72241049529E+03  0.72241049531E+03  0.50400000000E-02 0. -1.
    8880023    1    1    2    0    0 -0.76454946749E+02  0.26778809189E+03 -0.45496825523E+03  0.84756247001E+03  0.65864270000E+03 0.  0.
    8880022    1    1    2    0    0  0.76454946749E+02 -0.26778809189E+03  0.28357862085E+03  0.42586888623E+03  0.15294330000E+03 0.  0.
<mgrwt>
<rscale>  0 0.58382997E+03</rscale>
<asrwt>0</asrwt>
<pdfrwt beam="1">  1        1 0.11114008E+00 0.71509861E+03</pdfrwt>
<pdfrwt beam="2">  1       -1 0.84772440E-01 0.71509861E+03</pdfrwt>
<totfact> 0.36737057E+01</totfact>
</mgrwt>
</event>
<event>
 4    2  0.3179755E-007  0.1097262E+04  0.7818608E-02  0.9264111E-01
         -1   -1    0    0    0  501 -0.00000000000E+00  0.00000000000E+00  0.15348639843E+04  0.15348639843E+04  0.50400000000E-02 0.  1.
          1   -1    0    0  501    0  0.00000000000E+00 -0.00000000000E+00 -0.13453329902E+04  0.13453329902E+04  0.50400000000E-02 0. -1.
    8880023    1    1    2    0    0  0.76970632267E+02 -0.87421319628E+03 -0.93777502871E+03  0.14434006379E+04  0.65864270000E+03 0.  0.
    8880022    1    1    2    0    0 -0.76970632267E+02  0.87421319628E+03  0.11273060228E+04  0.14367963366E+04  0.15294330000E+03 0.  0.
<mgrwt>
<rscale>  0 0.10415509E+04</rscale>
<asrwt>0</asrwt>
<pdfrwt beam="1">  1        1 0.20697431E+00 0.10972618E+04</pdfrwt>
<pdfrwt beam="2">  1       -1 0.23613292E+00 0.10972618E+04</pdfrwt>
<totfact> 0.71770427E-01</totfact>
</mgrwt>
</event>
<event>
 4    2  0.3596980E-007  0.9238285E+03  0.7818608E-02  0.9488814E-01
         -1   -1    0    0    0  501 -0.00000000000E+00  0.00000000000E+00  0.11169728193E+04  0.11169728193E+04  0.50400000000E-02 0.  1.
          1   -1    0    0  501    0  0.00000000000E+00 -0.00000000000E+00 -0.16963329037E+04  0.16963329038E+04  0.50400000000E-02 0. -1.
    8880023    1    1    2    0    0 -0.48473979278E+03 -0.42973972267E+03 -0.14488330771E+04  0.17183062555E+04  0.65864270000E+03 0. -1.
    8880022    1    1    2    0    0  0.48473979278E+03  0.42973972267E+03  0.86947299273E+03  0.10949994676E+04  0.15294330000E+03 0.  0.
<mgrwt>
<rscale>  0 0.85113599E+03</rscale>
<asrwt>0</asrwt>
<pdfrwt beam="1">  1        1 0.26097429E+00 0.92382850E+03</pdfrwt>
<pdfrwt beam="2">  1       -1 0.17184197E+00 0.92382850E+03</pdfrwt>
<totfact> 0.11663722E+00</totfact>
</mgrwt>
</event>
<event>
 4    2  0.3179755E-007  0.6801607E+03  0.7818608E-02  0.1009233E+00
         -1   -1    0    0    0  501 -0.00000000000E+00  0.00000000000E+00  0.20797872684E+03  0.20797872690E+03  0.50400000000E-02 0.  1.
          1   -1    0    0  501    0  0.00000000000E+00 -0.00000000000E+00 -0.17294983859E+04  0.17294983859E+04  0.50400000000E-02 0. -1.
    8880023    1    1    2    0    0 -0.18756945272E+01 -0.16971996370E+03 -0.15636294692E+04  0.17051556256E+04  0.65864270000E+03 0.  0.
    8880022    1    1    2    0    0  0.18756945272E+01  0.16971996370E+03  0.42109810117E+02  0.23232148723E+03  0.15294330000E+03 0.  0.
<mgrwt>
<rscale>  0 0.51780651E+03</rscale>
<asrwt>0</asrwt>
<pdfrwt beam="1">  1        1 0.26607667E+00 0.68016071E+03</pdfrwt>
<pdfrwt beam="2">  1       -1 0.31996728E-01 0.68016071E+03</pdfrwt>
<totfact> 0.43109881E+01</totfact>
</mgrwt>
</event>
<event>
 4    2  0.3179755E-007  0.8137076E+03  0.7818608E-02  0.9681905E-01
          1   -1    0    0  501    0  0.00000000000E+00  0.00000000000E+00  0.45529154924E+03  0.45529154926E+03  0.50400000000E-02 0. -1.
         -1   -1    0    0    0  501 -0.00000000000E+00 -0.00000000000E+00 -0.16720519438E+04  0.16720519438E+04  0.50400000000E-02 0.  1.
    8880023    1    1    2    0    0 -0.15638347808E+03  0.45150196322E+03 -0.27068443625E+01  0.81371207947E+03  0.65864270000E+03 0.  0.
    8880022    1    1    2    0    0  0.15638347808E+03 -0.45150196322E+03 -0.12140535502E+04  0.13136314136E+04  0.15294330000E+03 0.  0.
<mgrwt>
<rscale>  0 0.72104437E+03</rscale>
<asrwt>0</asrwt>
<pdfrwt beam="1">  1        1 0.70044855E-01 0.81370758E+03</pdfrwt>
<pdfrwt beam="2">  1       -1 0.25723876E+00 0.81370758E+03</pdfrwt>
<totfact> 0.32572022E+00</totfact>
</mgrwt>
</event>
<event>
 4    2  0.3179755E-007  0.1184290E+04  0.7818608E-02  0.9172547E-01
          1   -1    0    0  501    0  0.00000000000E+00  0.00000000000E+00  0.23636553054E+04  0.23636553054E+04  0.50400000000E-02 0. -1.
         -1   -1    0    0    0  501 -0.00000000000E+00 -0.00000000000E+00 -0.11783931165E+04  0.11783931165E+04  0.50400000000E-02 0.  1.
    8880023    1    1    2    0    0 -0.97151934993E+03 -0.15774034202E+03  0.19532952547E+04  0.22842732807E+04  0.65864270000E+03 0. -1.
    8880022    1    1    2    0    0  0.97151934993E+03  0.15774034202E+03 -0.76803306576E+03  0.12577751412E+04  0.15294330000E+03 0.  0.
<mgrwt>
<rscale>  0 0.11341335E+04</rscale>
<asrwt>0</asrwt>
<pdfrwt beam="1">  1        1 0.36363927E+00 0.11842897E+04</pdfrwt>
<pdfrwt beam="2">  1       -1 0.18129125E+00 0.11842897E+04</pdfrwt>
<totfact> 0.33834876E-01</totfact>
</mgrwt>
</event>
<event>
 4    2  0.3179755E-007  0.7951130E+03  0.7818608E-02  0.9721464E-01
          1   -1    0    0  501    0  0.00000000000E+00  0.00000000000E+00  0.10945063946E+04  0.10945063946E+04  0.50400000000E-02 0. -1.
         -1   -1    0    0    0  501 -0.00000000000E+00 -0.00000000000E+00 -0.75382046563E+03  0.75382046565E+03  0.50400000000E-02 0.  1.
    8880023    1    1    2    0    0  0.32734206641E+03 -0.30206245420E+03  0.84365729020E+03  0.11592939163E+04  0.65864270000E+03 0. -1.
    8880022    1    1    2    0    0 -0.32734206641E+03  0.30206245420E+03 -0.50297136124E+03  0.68903294400E+03  0.15294330000E+03 0.  0.
<mgrwt>
<rscale>  0 0.69753094E+03</rscale>
<asrwt>0</asrwt>
<pdfrwt beam="1">  1        1 0.16838560E+00 0.79511305E+03</pdfrwt>
<pdfrwt beam="2">  1       -1 0.11597238E+00 0.79511305E+03</pdfrwt>
<totfact> 0.88479955E+00</totfact>
</mgrwt>
</event>
<event>
 4    2  0.3179755E-007  0.1246979E+04  0.7818608E-02  0.9112756E-01
         -1   -1    0    0    0  501 -0.00000000000E+00  0.00000000000E+00  0.25349089249E+04  0.25349089249E+04  0.50400000000E-02 0.  1.
          1   -1    0    0  501    0  0.00000000000E+00 -0.00000000000E+00 -0.14039578279E+04  0.14039578279E+04  0.50400000000E-02 0. -1.
    8880023    1    1    2    0    0  0.89910208393E+03  0.55925046592E+03 -0.97091997846E+03  0.15803928157E+04  0.65864270000E+03 0. -1.
    8880022    1    1    2    0    0 -0.89910208393E+03 -0.55925046592E+03  0.21018710755E+04  0.23584739371E+04  0.15294330000E+03 0.  0.
<mgrwt>
<rscale>  0 0.12001154E+04</rscale>
<asrwt>0</asrwt>
<pdfrwt beam="1">  1        1 0.21599351E+00 0.12469787E+04</pdfrwt>
<pdfrwt beam="2">  1       -1 0.38998599E+00 0.12469787E+04</pdfrwt>
<totfact> 0.62805407E-02</totfact>
</mgrwt>
</event>
<event>
 4    2  0.3179755E-007  0.6640165E+03  0.7818608E-02  0.1020373E+00
          1   -1    0    0  501    0  0.00000000000E+00  0.00000000000E+00  0.52936550276E+03  0.52936550278E+03  0.50400000000E-02 0. -1.
         -1   -1    0    0    0  501 -0.00000000000E+00 -0.00000000000E+00 -0.86878003549E+03  0.86878003550E+03  0.50400000000E-02 0.  1.
    8880023    1    1    2    0    0 -0.53982205856E+02 -0.64758140494E+02  0.30483500605E+03  0.73064511391E+03  0.65864270000E+03 0. -1.
    8880022    1    1    2    0    0  0.53982205856E+02  0.64758140494E+02 -0.64424953878E+03  0.66750042437E+03  0.15294330000E+03 0.  0.
<mgrwt>
<rscale>  0 0.47552184E+03</rscale>
<asrwt>0</asrwt>
<pdfrwt beam="1">  1        1 0.81440847E-01 0.66401649E+03</pdfrwt>
<pdfrwt beam="2">  1       -1 0.13365847E+00 0.66401649E+03</pdfrwt>
<totfact> 0.20049190E+01</totfact>
</mgrwt>
</event>
<event>
 4    2  0.3179755E-007  0.6826539E+03  0.7818608E-02  0.1007861E+00
          1   -1    0    0  501    0  0.00000000000E+00  0.00000000000E+00  0.30973960330E+04  0.30973960330E+04  0.50400000000E-02 0. -1.
         -1   -1    0    0    0  501 -0.00000000000E+00 -0.00000000000E+00 -0.15609145447E+03  0.15609145455E+03  0.50400000000E-02 0.  1.
    8880023    1    1    2    0    0 -0.17834580583E+03  0.19972738197E+02  0.29394603547E+04  0.30176884399E+04  0.65864270000E+03 0. -1.
    8880022    1    1    2    0    0  0.17834580583E+03 -0.19972738197E+02  0.18442238113E+01  0.23579904772E+03  0.15294330000E+03 0.  0.
<mgrwt>
<rscale>  0 0.52333842E+03</rscale>
<asrwt>0</asrwt>
<pdfrwt beam="1">  1        1 0.47652242E+00 0.68265390E+03</pdfrwt>
<pdfrwt beam="2">  1       -1 0.24014072E-01 0.68265390E+03</pdfrwt>
<totfact> 0.82052667E+00</totfact>
</mgrwt>
</event>
<event>
 4    2  0.3179755E-007  0.1384631E+04  0.7818608E-02  0.8995718E-01
          1   -1    0    0  501    0  0.00000000000E+00  0.00000000000E+00  0.17730500909E+04  0.17730500909E+04  0.50400000000E-02 0. -1.
         -1   -1    0    0    0  501 -0.00000000000E+00 -0.00000000000E+00 -0.11805380479E+04  0.11805380479E+04  0.50400000000E-02 0.  1.
    8880023    1    1    2    0    0 -0.11656844929E+04  0.35294777092E+03  0.94511453580E+03  0.16764379374E+04  0.65864270000E+03 0.  1.
    8880022    1    1    2    0    0  0.11656844929E+04 -0.35294777092E+03 -0.35260249282E+03  0.12771502014E+04  0.15294330000E+03 0.  0.
<mgrwt>
<rscale>  0 0.13435595E+04</rscale>
<asrwt>0</asrwt>
<pdfrwt beam="1">  1        1 0.27277693E+00 0.13846309E+04</pdfrwt>
<pdfrwt beam="2">  1       -1 0.18162124E+00 0.13846309E+04</pdfrwt>
<totfact> 0.82595859E-01</totfact>
</mgrwt>
</event>
<event>
 4    2  0.3179755E-007  0.9431091E+03  0.7818608E-02  0.9460099E-01
          1   -1    0    0  501    0  0.00000000000E+00  0.00000000000E+00  0.14766134339E+04  0.14766134339E+04  0.50400000000E-02 0. -1.
         -1   -1    0    0    0  501 -0.00000000000E+00 -0.00000000000E+00 -0.58567776577E+03  0.58567776580E+03  0.50400000000E-02 0.  1.
    8880023    1    1    2    0    0  0.13615930669E+03 -0.66113939400E+03  0.11518401415E+02  0.94317948183E+03  0.65864270000E+03 0.  1.
    8880022    1    1    2    0    0 -0.13615930669E+03  0.66113939400E+03  0.87941726674E+03  0.11191117179E+04  0.15294330000E+03 0.  0.
<mgrwt>
<rscale>  0 0.87290609E+03</rscale>
<asrwt>0</asrwt>
<pdfrwt beam="1">  1        1 0.22717130E+00 0.94310915E+03</pdfrwt>
<pdfrwt beam="2">  1       -1 0.90104272E-01 0.94310915E+03</pdfrwt>
<totfact> 0.82823044E+00</totfact>
</mgrwt>
</event>
<event>
 4    2  0.3179755E-007  0.6836488E+03  0.7818608E-02  0.1007331E+00
          1   -1    0    0  501    0  0.00000000000E+00  0.00000000000E+00  0.15642549667E+04  0.15642549667E+04  0.50400000000E-02 0. -1.
         -1   -1    0    0    0  501 -0.00000000000E+00 -0.00000000000E+00 -0.24665025181E+03  0.24665025186E+03  0.50400000000E-02 0.  1.
    8880023    1    1    2    0    0  0.16337116148E+03 -0.82917278111E+02  0.14003440828E+04  0.15583129236E+04  0.65864270000E+03 0. -1.
    8880022    1    1    2    0    0 -0.16337116148E+03  0.82917278111E+02 -0.82739367978E+02  0.25259229489E+03  0.15294330000E+03 0.  0.
<mgrwt>
<rscale>  0 0.52549455E+03</rscale>
<asrwt>0</asrwt>
<pdfrwt beam="1">  1        1 0.24065461E+00 0.68364875E+03</pdfrwt>
<pdfrwt beam="2">  1       -1 0.37946193E-01 0.68364875E+03</pdfrwt>
<totfact> 0.41125740E+01</totfact>
</mgrwt>
</event>
<event>
 4    2  0.3179755E-007  0.1195322E+04  0.7818608E-02  0.9161683E-01
         -1   -1    0    0    0  501 -0.00000000000E+00  0.00000000000E+00  0.12198630017E+04  0.12198630017E+04  0.50400000000E-02 0.  1.
          1   -1    0    0  501    0  0.00000000000E+00 -0.00000000000E+00 -0.13520513019E+04  0.13520513019E+04  0.50400000000E-02 0. -1.
    8880023    1    1    2    0    0 -0.11714631718E+03  0.99058677680E+03  0.58801792457E+03  0.13321263858E+04  0.65864270000E+03 0.  0.
    8880022    1    1    2    0    0  0.11714631718E+03 -0.99058677680E+03 -0.72020622476E+03  0.12397879178E+04  0.15294330000E+03 0.  0.
<mgrwt>
<rscale>  0 0.11457830E+04</rscale>
<asrwt>0</asrwt>
<pdfrwt beam="1">  1        1 0.20800789E+00 0.11953224E+04</pdfrwt>
<pdfrwt beam="2">  1       -1 0.18767123E+00 0.11953224E+04</pdfrwt>
<totfact> 0.14943249E+00</totfact>
</mgrwt>
</event>
<event>
 4    2  0.3179755E-007  0.1489299E+04  0.7818608E-02  0.8917230E-01
         -1   -1    0    0    0  501 -0.00000000000E+00  0.00000000000E+00  0.30426110553E+04  0.30426110553E+04  0.50400000000E-02 0.  1.
          1   -1    0    0  501    0  0.00000000000E+00 -0.00000000000E+00 -0.74152156981E+03  0.74152156982E+03  0.50400000000E-02 0. -1.
    8880023    1    1    2    0    0  0.27539620565E+03 -0.13070413194E+04  0.18302052983E+04  0.23595893119E+04  0.65864270000E+03 0.  0.
    8880022    1    1    2    0    0 -0.27539620565E+03  0.13070413194E+04  0.47088418725E+03  0.14245433133E+04  0.15294330000E+03 0.  0.
<mgrwt>
<rscale>  0 0.14516900E+04</rscale>
<asrwt>0</asrwt>
<pdfrwt beam="1">  1        1 0.11408024E+00 0.14892986E+04</pdfrwt>
<pdfrwt beam="2">  1       -1 0.46809401E+00 0.14892986E+04</pdfrwt>
<totfact> 0.57923056E-02</totfact>
</mgrwt>
</event>
<event>
 4    2  0.3722568E-007  0.7537846E+03  0.7818608E-02  0.9821473E-01
          1   -1    0    0  501    0  0.00000000000E+00  0.00000000000E+00  0.26980766550E+04  0.26980766550E+04  0.50400000000E-02 0. -1.
         -1   -1    0    0    0  501 -0.00000000000E+00 -0.00000000000E+00 -0.13728655656E+04  0.13728655656E+04  0.50400000000E-02 0.  1.
    8880023    1    1    2    0    0 -0.45211725084E+02  0.36378143273E+03  0.26149494657E+04  0.27214246168E+04  0.65864270000E+03 0. -1.
    8880022    1    1    2    0    0  0.45211725084E+02 -0.36378143273E+03 -0.12897383763E+04  0.13495176038E+04  0.15294330000E+03 0.  0.
<mgrwt>
<rscale>  0 0.64222828E+03</rscale>
<asrwt>0</asrwt>
<pdfrwt beam="1">  1        1 0.41508871E+00 0.75378461E+03</pdfrwt>
<pdfrwt beam="2">  1       -1 0.21121009E+00 0.75378461E+03</pdfrwt>
<totfact> 0.13474217E-01</totfact>
</mgrwt>
</event>
<event>
 4    2  0.3179755E-007  0.6639846E+03  0.7818608E-02  0.1020401E+00
         -1   -1    0    0    0  501 -0.00000000000E+00  0.00000000000E+00  0.16400265189E+03  0.16400265197E+03  0.50400000000E-02 0.  1.
          1   -1    0    0  501    0  0.00000000000E+00 -0.00000000000E+00 -0.13095850972E+04  0.13095850972E+04  0.50400000000E-02 0. -1.
    8880023    1    1    2    0    0 -0.25372237259E+02  0.80134653248E+02 -0.11130622000E+04  0.12960644199E+04  0.65864270000E+03 0. -1.
    8880022    1    1    2    0    0  0.25372237259E+02 -0.80134653248E+02 -0.32520245269E+02  0.17752332929E+03  0.15294330000E+03 0.  0.
<mgrwt>
<rscale>  0 0.47542205E+03</rscale>
<asrwt>0</asrwt>
<pdfrwt beam="1">  1        1 0.20147462E+00 0.66398458E+03</pdfrwt>
<pdfrwt beam="2">  1       -1 0.25231178E-01 0.66398458E+03</pdfrwt>
<totfact> 0.12603049E+02</totfact>
</mgrwt>
</event>
<event>
 4    2  0.3179755E-007  0.7754302E+03  0.7818608E-02  0.9766683E-01
         -1   -1    0    0    0  501 -0.00000000000E+00  0.00000000000E+00  0.37755888283E+03  0.37755888287E+03  0.50400000000E-02 0.  1.
          1   -1    0    0  501    0  0.00000000000E+00 -0.00000000000E+00 -0.23463304566E+04  0.23463304566E+04  0.50400000000E-02 0. -1.
    8880023    1    1    2    0    0 -0.94033117358E+02 -0.39829582785E+03 -0.21233094079E+04  0.22604722608E+04  0.65864270000E+03 0. -1.
    8880022    1    1    2    0    0  0.94033117358E+02  0.39829582785E+03  0.15453783416E+03  0.46341707871E+03  0.15294330000E+03 0.  0.
<mgrwt>
<rscale>  0 0.67181582E+03</rscale>
<asrwt>0</asrwt>
<pdfrwt beam="1">  1        1 0.36097391E+00 0.77543020E+03</pdfrwt>
<pdfrwt beam="2">  1       -1 0.58085983E-01 0.77543020E+03</pdfrwt>
<totfact> 0.54578350E+00</totfact>
</mgrwt>
</event>
<event>
 4    2  0.3179755E-007  0.6599990E+03  0.7818608E-02  0.1024157E+00
         -1   -1    0    0    0  501 -0.00000000000E+00  0.00000000000E+00  0.85483139113E+03  0.85483139115E+03  0.50400000000E-02 0.  1.
          1   -1    0    0  501    0  0.00000000000E+00 -0.00000000000E+00 -0.39202847123E+03  0.39202847126E+03  0.50400000000E-02 0. -1.
    8880023    1    1    2    0    0 -0.40177675534E+02  0.13197532203E+02 -0.95112455879E+02  0.66681707086E+03  0.65864270000E+03 0. -1.
    8880022    1    1    2    0    0  0.40177675534E+02 -0.13197532203E+02  0.55791537578E+03  0.58004279154E+03  0.15294330000E+03 0.  0.
<mgrwt>
<rscale>  0 0.46215703E+03</rscale>
<asrwt>0</asrwt>
<pdfrwt beam="1">  1        1 0.60312073E-01 0.65999896E+03</pdfrwt>
<pdfrwt beam="2">  1       -1 0.13151252E+00 0.65999896E+03</pdfrwt>
<totfact> 0.31332758E+01</totfact>
</mgrwt>
</event>
<event>
 4    2  0.3179755E-007  0.7391277E+03  0.7818608E-02  0.9862495E-01
         -1   -1    0    0    0  501 -0.00000000000E+00  0.00000000000E+00  0.19313700831E+03  0.19313700838E+03  0.50400000000E-02 0.  1.
          1   -1    0    0  501    0  0.00000000000E+00 -0.00000000000E+00 -0.28735395029E+04  0.28735395029E+04  0.50400000000E-02 0. -1.
    8880023    1    1    2    0    0 -0.15267442301E+03  0.29864696369E+03 -0.25811821510E+04  0.26849229023E+04  0.65864270000E+03 0. -1.
    8880022    1    1    2    0    0  0.15267442301E+03 -0.29864696369E+03 -0.99220343553E+02  0.38175360895E+03  0.15294330000E+03 0.  0.
<mgrwt>
<rscale>  0 0.62113855E+03</rscale>
<asrwt>0</asrwt>
<pdfrwt beam="1">  1        1 0.44208297E+00 0.73912766E+03</pdfrwt>
<pdfrwt beam="2">  1       -1 0.29713388E-01 0.73912766E+03</pdfrwt>
<totfact> 0.81449640E+00</totfact>
</mgrwt>
</event>
<event>
 4    2  0.6393455E-007  0.7250894E+03  0.7818608E-02  0.9905727E-01
         -1   -1    0    0    0  501 -0.00000000000E+00  0.00000000000E+00  0.10944778613E+04  0.10944778613E+04  0.50400000000E-02 0.  1.
          1   -1    0    0  501    0  0.00000000000E+00 -0.00000000000E+00 -0.18137081417E+04  0.18137081417E+04  0.50400000000E-02 0. -1.
    8880023    1    1    2    0    0  0.14453184395E+03  0.26656138472E+03 -0.17118473680E+04  0.18590793537E+04  0.65864270000E+03 0. -1.
    8880022    1    1    2    0    0 -0.14453184395E+03 -0.26656138472E+03  0.99261708769E+03  0.10491066493E+04  0.15294330000E+03 0.  0.
<mgrwt>
<rscale>  0 0.59984537E+03</rscale>
<asrwt>0</asrwt>
<pdfrwt beam="1">  1        1 0.27903202E+00 0.72508940E+03</pdfrwt>
<pdfrwt beam="2">  1       -1 0.16838121E+00 0.72508940E+03</pdfrwt>
<totfact> 0.10702844E+00</totfact>
</mgrwt>
</event>
<event>
 4    2  0.3179755E-007  0.8582276E+03  0.7818608E-02  0.9596724E-01
         -1   -1    0    0    0  501 -0.00000000000E+00  0.00000000000E+00  0.81129463510E+03  0.81129463511E+03  0.50400000000E-02 0.  1.
          1   -1    0    0  501    0  0.00000000000E+00 -0.00000000000E+00 -0.81096294580E+03  0.81096294582E+03  0.50400000000E-02 0. -1.
    8880023    1    1    2    0    0  0.54046856399E+03 -0.10314140419E+03 -0.37741365804E+03  0.93754770196E+03  0.65864270000E+03 0. -1.
    8880022    1    1    2    0    0 -0.54046856399E+03  0.10314140419E+03  0.37774534733E+03  0.68470987897E+03  0.15294330000E+03 0.  0.
<mgrwt>
<rscale>  0 0.77513387E+03</rscale>
<asrwt>0</asrwt>
<pdfrwt beam="1">  1        1 0.12476353E+00 0.85822761E+03</pdfrwt>
<pdfrwt beam="2">  1       -1 0.12481456E+00 0.85822761E+03</pdfrwt>
<totfact> 0.12353575E+01</totfact>
</mgrwt>
</event>
<event>
 4    2  0.3179755E-007  0.8307997E+03  0.7818608E-02  0.9647778E-01
         -1   -1    0    0    0  501 -0.00000000000E+00  0.00000000000E+00  0.53461248642E+03  0.53461248645E+03  0.50400000000E-02 0.  1.
          1   -1    0    0  501    0  0.00000000000E+00 -0.00000000000E+00 -0.13706225594E+04  0.13706225594E+04  0.50400000000E-02 0. -1.
    8880023    1    1    2    0    0 -0.50257092910E+03 -0.61971419485E+02 -0.10462730974E+04  0.13360073339E+04  0.65864270000E+03 0. -1.
    8880022    1    1    2    0    0  0.50257092910E+03  0.61971419485E+02  0.21026302443E+03  0.56922771196E+03  0.15294330000E+03 0.  0.
<mgrwt>
<rscale>  0 0.74213019E+03</rscale>
<asrwt>0</asrwt>
<pdfrwt beam="1">  1        1 0.21086501E+00 0.83079974E+03</pdfrwt>
<pdfrwt beam="2">  1       -1 0.82248075E-01 0.83079974E+03</pdfrwt>
<totfact> 0.12135980E+01</totfact>
</mgrwt>
</event>
<event>
 4    2  0.3179755E-007  0.8083710E+03  0.7818608E-02  0.9692980E-01
         -1   -1    0    0    0  501 -0.00000000000E+00  0.00000000000E+00  0.18603579815E+04  0.18603579816E+04  0.50400000000E-02 0.  1.
          1   -1    0    0  501    0  0.00000000000E+00 -0.00000000000E+00 -0.26908333654E+03  0.26908333659E+03  0.50400000000E-02 0. -1.
    8880023    1    1    2    0    0 -0.23761625343E+03  0.40397033839E+03  0.55110580618E+03  0.97835644530E+03  0.65864270000E+03 0.  0.
    8880022    1    1    2    0    0  0.23761625343E+03 -0.40397033839E+03  0.10401688388E+04  0.11510848728E+04  0.15294330000E+03 0.  0.
<mgrwt>
<rscale>  0 0.71436296E+03</rscale>
<asrwt>0</asrwt>
<pdfrwt beam="1">  1        1 0.41397434E-01 0.80837103E+03</pdfrwt>
<pdfrwt beam="2">  1       -1 0.28620894E+00 0.80837103E+03</pdfrwt>
<totfact> 0.42471074E+00</totfact>
</mgrwt>
</event>
<event>
 4    2  0.3179755E-007  0.1475923E+04  0.7818608E-02  0.8926827E-01
         -1   -1    0    0    0  501 -0.00000000000E+00  0.00000000000E+00  0.23720588507E+04  0.23720588507E+04  0.50400000000E-02 0.  1.
          1   -1    0    0  501    0  0.00000000000E+00 -0.00000000000E+00 -0.10452536056E+04  0.10452536057E+04  0.50400000000E-02 0. -1.
    8880023    1    1    2    0    0 -0.96876817667E+03 -0.89779007472E+03 -0.84467515372E+02  0.14783381771E+04  0.65864270000E+03 0.  0.
    8880022    1    1    2    0    0  0.96876817667E+03  0.89779007472E+03  0.14112727604E+04  0.19389742793E+04  0.15294330000E+03 0.  0.
<mgrwt>
<rscale>  0 0.14379075E+04</rscale>
<asrwt>0</asrwt>
<pdfrwt beam="1">  1        1 0.16080825E+00 0.14759231E+04</pdfrwt>
<pdfrwt beam="2">  1       -1 0.36493213E+00 0.14759231E+04</pdfrwt>
<totfact> 0.16461669E-01</totfact>
</mgrwt>
</event>
<event>
 4    2  0.3179755E-007  0.7100037E+03  0.7818608E-02  0.9957987E-01
         -1   -1    0    0    0  501 -0.00000000000E+00  0.00000000000E+00  0.45442565890E+03  0.45442565892E+03  0.50400000000E-02 0.  1.
          1   -1    0    0  501    0  0.00000000000E+00 -0.00000000000E+00 -0.93766883835E+03  0.93766883837E+03  0.50400000000E-02 0. -1.
    8880023    1    1    2    0    0  0.20555977889E+02  0.26433403222E+03 -0.71540663530E+03  0.10079245452E+04  0.65864270000E+03 0. -1.
    8880022    1    1    2    0    0 -0.20555977889E+02 -0.26433403222E+03  0.23216345584E+03  0.38416995205E+03  0.15294330000E+03 0.  0.
<mgrwt>
<rscale>  0 0.57531432E+03</rscale>
<asrwt>0</asrwt>
<pdfrwt beam="1">  1        1 0.14425674E+00 0.71000369E+03</pdfrwt>
<pdfrwt beam="2">  1       -1 0.69911640E-01 0.71000369E+03</pdfrwt>
<totfact> 0.36129017E+01</totfact>
</mgrwt>
</event>
<event>
 4    2  0.3179755E-007  0.6870833E+03  0.7818608E-02  0.1005571E+00
          1   -1    0    0  501    0  0.00000000000E+00  0.00000000000E+00  0.47476750746E+03  0.47476750749E+03  0.50400000000E-02 0. -1.
         -1   -1    0    0    0  501 -0.00000000000E+00 -0.00000000000E+00 -0.10161757675E+04  0.10161757675E+04  0.50400000000E-02 0.  1.
    8880023    1    1    2    0    0  0.17000627661E+02 -0.19489561126E+03  0.19465130329E+03  0.71412369851E+03  0.65864270000E+03 0. -1.
    8880022    1    1    2    0    0 -0.17000627661E+02  0.19489561126E+03 -0.73605956334E+03  0.77681957650E+03  0.15294330000E+03 0.  0.
<mgrwt>
<rscale>  0 0.53273580E+03</rscale>
<asrwt>0</asrwt>
<pdfrwt beam="1">  1        1 0.73041155E-01 0.68708335E+03</pdfrwt>
<pdfrwt beam="2">  1       -1 0.15633473E+00 0.68708335E+03</pdfrwt>
<totfact> 0.15359243E+01</totfact>
</mgrwt>
</event>
<event>
 4    2  0.3179755E-007  0.7828728E+03  0.7818608E-02  0.9749132E-01
          1   -1    0    0  501    0  0.00000000000E+00  0.00000000000E+00  0.56979548177E+03  0.56979548179E+03  0.50400000000E-02 0. -1.
         -1   -1    0    0    0  501 -0.00000000000E+00 -0.00000000000E+00 -0.98366332259E+03  0.98366332260E+03  0.50400000000E-02 0.  1.
    8880023    1    1    2    0    0  0.37236192347E+03  0.20106266548E+03  0.18495040985E+03  0.80442305901E+03  0.65864270000E+03 0. -1.
    8880022    1    1    2    0    0 -0.37236192347E+03 -0.20106266548E+03 -0.59881825067E+03  0.74903574538E+03  0.15294330000E+03 0.  0.
<mgrwt>
<rscale>  0 0.68165374E+03</rscale>
<asrwt>0</asrwt>
<pdfrwt beam="1">  1        1 0.87660843E-01 0.78287279E+03</pdfrwt>
<pdfrwt beam="2">  1       -1 0.15133282E+00 0.78287279E+03</pdfrwt>
<totfact> 0.12879002E+01</totfact>
</mgrwt>
</event>
<event>
 4    2  0.3179755E-007  0.6640641E+03  0.7818608E-02  0.1020332E+00
         -1   -1    0    0    0  501 -0.00000000000E+00  0.00000000000E+00  0.56912350342E+03  0.56912350344E+03  0.50400000000E-02 0.  1.
          1   -1    0    0  501    0  0.00000000000E+00 -0.00000000000E+00 -0.92120279003E+03  0.92120279004E+03  0.50400000000E-02 0. -1.
    8880023    1    1    2    0    0  0.15162281700E+02 -0.83312543611E+02 -0.78217980323E+03  0.10260537635E+04  0.65864270000E+03 0. -1.
    8880022    1    1    2    0    0 -0.15162281700E+02  0.83312543611E+02  0.43010051662E+03  0.46427253001E+03  0.15294330000E+03 0.  0.
<mgrwt>
<rscale>  0 0.47567042E+03</rscale>
<asrwt>0</asrwt>
<pdfrwt beam="1">  1        1 0.14172351E+00 0.66406406E+03</pdfrwt>
<pdfrwt beam="2">  1       -1 0.87557462E-01 0.66406406E+03</pdfrwt>
<totfact> 0.23306773E+01</totfact>
</mgrwt>
</event>
<event>
 4    2  0.3179755E-007  0.6910268E+03  0.7818608E-02  0.1003668E+00
         -1   -1    0    0    0  501 -0.00000000000E+00  0.00000000000E+00  0.52445033816E+03  0.52445033819E+03  0.50400000000E-02 0.  1.
          1   -1    0    0  501    0  0.00000000000E+00 -0.00000000000E+00 -0.94911528760E+03  0.94911528762E+03  0.50400000000E-02 0. -1.
    8880023    1    1    2    0    0  0.81684241120E+02 -0.19244604375E+03 -0.77469645804E+03  0.10381101114E+04  0.65864270000E+03 0. -1.
    8880022    1    1    2    0    0 -0.81684241120E+02  0.19244604375E+03  0.35003150860E+03  0.43545551441E+03  0.15294330000E+03 0.  0.
<mgrwt>
<rscale>  0 0.54070579E+03</rscale>
<asrwt>0</asrwt>
<pdfrwt beam="1">  1        1 0.14601774E+00 0.69102677E+03</pdfrwt>
<pdfrwt beam="2">  1       -1 0.80684667E-01 0.69102677E+03</pdfrwt>
<totfact> 0.26307483E+01</totfact>
</mgrwt>
</event>
<event>
 4    2  0.3179755E-007  0.7281921E+03  0.7818608E-02  0.9895783E-01
         -1   -1    0    0    0  501 -0.00000000000E+00  0.00000000000E+00  0.50475310573E+03  0.50475310575E+03  0.50400000000E-02 0.  1.
          1   -1    0    0  501    0  0.00000000000E+00 -0.00000000000E+00 -0.18512763900E+04  0.18512763900E+04  0.50400000000E-02 0. -1.
    8880023    1    1    2    0    0  0.14929789952E+03 -0.27232995358E+03 -0.17072491411E+04  0.18560612335E+04  0.65864270000E+03 0. -1.
    8880022    1    1    2    0    0 -0.14929789952E+03  0.27232995358E+03  0.36072585686E+03  0.49996826224E+03  0.15294330000E+03 0.  0.
<mgrwt>
<rscale>  0 0.60466105E+03</rscale>
<asrwt>0</asrwt>
<pdfrwt beam="1">  1        1 0.28481175E+00 0.72819206E+03</pdfrwt>
<pdfrwt beam="2">  1       -1 0.77654325E-01 0.72819206E+03</pdfrwt>
<totfact> 0.65587914E+00</totfact>
</mgrwt>
</event>
<event>
 4    2  0.3179755E-007  0.7563376E+03  0.7818608E-02  0.9814683E-01
          1   -1    0    0  501    0  0.00000000000E+00  0.00000000000E+00  0.13717256316E+04  0.13717256317E+04  0.50400000000E-02 0. -1.
         -1   -1    0    0    0  501 -0.00000000000E+00 -0.00000000000E+00 -0.59894907379E+03  0.59894907382E+03  0.50400000000E-02 0.  1.
    8880023    1    1    2    0    0 -0.36686691440E+03 -0.60373559689E+02 -0.30868456226E+03  0.81690431804E+03  0.65864270000E+03 0.  1.
    8880022    1    1    2    0    0  0.36686691440E+03  0.60373559689E+02  0.10814611201E+04  0.11537703874E+04  0.15294330000E+03 0.  0.
<mgrwt>
<rscale>  0 0.64580486E+03</rscale>
<asrwt>0</asrwt>
<pdfrwt beam="1">  1        1 0.21103471E+00 0.75633756E+03</pdfrwt>
<pdfrwt beam="2">  1       -1 0.92146013E-01 0.75633756E+03</pdfrwt>
<totfact> 0.95531137E+00</totfact>
</mgrwt>
</event>
<event>
 4    2  0.3179755E-007  0.8466155E+03  0.7818608E-02  0.9617830E-01
          1   -1    0    0  501    0  0.00000000000E+00  0.00000000000E+00  0.55424689902E+03  0.55424689904E+03  0.50400000000E-02 0. -1.
         -1   -1    0    0    0  501 -0.00000000000E+00 -0.00000000000E+00 -0.13298369638E+04  0.13298369638E+04  0.50400000000E-02 0.  1.
    8880023    1    1    2    0    0  0.31451473900E+03  0.42898485737E+03  0.95546376316E+02  0.85198993257E+03  0.65864270000E+03 0.  0.
    8880022    1    1    2    0    0 -0.31451473900E+03 -0.42898485737E+03 -0.87113644111E+03  0.10320939303E+04  0.15294330000E+03 0.  0.
<mgrwt>
<rscale>  0 0.76127219E+03</rscale>
<asrwt>0</asrwt>
<pdfrwt beam="1">  1        1 0.85268754E-01 0.84661546E+03</pdfrwt>
<pdfrwt beam="2">  1       -1 0.20459030E+00 0.84661546E+03</pdfrwt>
<totfact> 0.54904443E+00</totfact>
</mgrwt>
</event>
<event>
 4    2  0.3179755E-007  0.6678459E+03  0.7818608E-02  0.1017256E+00
         -1   -1    0    0    0  501 -0.00000000000E+00  0.00000000000E+00  0.31065507105E+03  0.31065507109E+03  0.50400000000E-02 0.  1.
          1   -1    0    0  501    0  0.00000000000E+00 -0.00000000000E+00 -0.60258017893E+03  0.60258017895E+03  0.50400000000E-02 0. -1.
    8880023    1    1    2    0    0  0.10545485230E+03  0.32973829376E+02 -0.28003961013E+03  0.72418256593E+03  0.65864270000E+03 0. -1.
    8880022    1    1    2    0    0 -0.10545485230E+03 -0.32973829376E+02 -0.11885497746E+02  0.18905268411E+03  0.15294330000E+03 0.  1.
<mgrwt>
<rscale>  0 0.48689794E+03</rscale>
<asrwt>0</asrwt>
<pdfrwt beam="1">  1        1 0.92704642E-01 0.66784594E+03</pdfrwt>
<pdfrwt beam="2">  1       -1 0.47793088E-01 0.66784594E+03</pdfrwt>
<totfact> 0.15191334E+02</totfact>
</mgrwt>
</event>
<event>
 4    2  0.3179755E-007  0.7462743E+03  0.7818608E-02  0.9842034E-01
          1   -1    0    0  501    0  0.00000000000E+00  0.00000000000E+00  0.26633275153E+04  0.26633275153E+04  0.50400000000E-02 0. -1.
         -1   -1    0    0    0  501 -0.00000000000E+00 -0.00000000000E+00 -0.48049586966E+03  0.48049586969E+03  0.50400000000E-02 0.  1.
    8880023    1    1    2    0    0 -0.32750344065E+03 -0.12592281775E+03  0.25234264009E+04  0.26314646239E+04  0.65864270000E+03 0. -1.
    8880022    1    1    2    0    0  0.32750344065E+03  0.12592281775E+03 -0.34059475532E+03  0.51235876106E+03  0.15294330000E+03 0.  0.
<mgrwt>
<rscale>  0 0.63154752E+03</rscale>
<asrwt>0</asrwt>
<pdfrwt beam="1">  1        1 0.40974270E+00 0.74627426E+03</pdfrwt>
<pdfrwt beam="2">  1       -1 0.73922441E-01 0.74627426E+03</pdfrwt>
<totfact> 0.20502259E+00</totfact>
</mgrwt>
</event>
<event>
 4    2  0.3600281E-007  0.7724528E+03  0.7818608E-02  0.9773874E-01
          1   -1    0    0  501    0  0.00000000000E+00  0.00000000000E+00  0.21938563112E+04  0.21938563112E+04  0.50400000000E-02 0. -1.
         -1   -1    0    0    0  501 -0.00000000000E+00 -0.00000000000E+00 -0.76229889169E+03  0.76229889171E+03  0.50400000000E-02 0.  1.
    8880023    1    1    2    0    0 -0.34061012357E+03  0.21646682985E+03  0.20564330686E+04  0.21967249069E+04  0.65864270000E+03 0. -1.
    8880022    1    1    2    0    0  0.34061012357E+03 -0.21646682985E+03 -0.62487564908E+03  0.75943029603E+03  0.15294330000E+03 0.  0.
<mgrwt>
<rscale>  0 0.66783676E+03</rscale>
<asrwt>0</asrwt>
<pdfrwt beam="1">  1        1 0.33751636E+00 0.77245281E+03</pdfrwt>
<pdfrwt beam="2">  1       -1 0.11727675E+00 0.77245281E+03</pdfrwt>
<totfact> 0.15188436E+00</totfact>
</mgrwt>
</event>
<event>
 4    2  0.3179755E-007  0.9149108E+03  0.7818608E-02  0.9502507E-01
          1   -1    0    0  501    0  0.00000000000E+00  0.00000000000E+00  0.20071159900E+04  0.20071159900E+04  0.50400000000E-02 0. -1.
         -1   -1    0    0    0  501 -0.00000000000E+00 -0.00000000000E+00 -0.57450065697E+03  0.57450065699E+03  0.50400000000E-02 0.  1.
    8880023    1    1    2    0    0 -0.41648206458E+02  0.63365361483E+03  0.16554705789E+04  0.18914662357E+04  0.65864270000E+03 0. -1.
    8880022    1    1    2    0    0  0.41648206458E+02 -0.63365361483E+03 -0.22285524587E+03  0.69015041137E+03  0.15294330000E+03 0.  0.
<mgrwt>
<rscale>  0 0.84099254E+03</rscale>
<asrwt>0</asrwt>
<pdfrwt beam="1">  1        1 0.30878707E+00 0.91491075E+03</pdfrwt>
<pdfrwt beam="2">  1       -1 0.88384717E-01 0.91491075E+03</pdfrwt>
<totfact> 0.37917926E+00</totfact>
</mgrwt>
</event>
<event>
 4    2  0.3179755E-007  0.6597139E+03  0.7818608E-02  0.1024451E+00
          1   -1    0    0  501    0  0.00000000000E+00  0.00000000000E+00  0.28153605822E+03  0.28153605827E+03  0.50400000000E-02 0. -1.
         -1   -1    0    0    0  501 -0.00000000000E+00 -0.00000000000E+00 -0.96841223870E+03  0.96841223872E+03  0.50400000000E-02 0.  1.
    8880023    1    1    2    0    0 -0.99714255764E+01 -0.36232314913E+02 -0.13152469098E+03  0.67269693070E+03  0.65864270000E+03 0. -1.
    8880022    1    1    2    0    0  0.99714255764E+01  0.36232314913E+02 -0.55535148950E+03  0.57725136629E+03  0.15294330000E+03 0.  0.
<mgrwt>
<rscale>  0 0.46113877E+03</rscale>
<asrwt>0</asrwt>
<pdfrwt beam="1">  1        1 0.43313240E-01 0.65971389E+03</pdfrwt>
<pdfrwt beam="2">  1       -1 0.14898650E+00 0.65971389E+03</pdfrwt>
<totfact> 0.34882884E+01</totfact>
</mgrwt>
</event>
<event>
 4    2  0.3179755E-007  0.6900582E+03  0.7818608E-02  0.1004125E+00
          1   -1    0    0  501    0  0.00000000000E+00  0.00000000000E+00  0.12476898349E+04  0.12476898349E+04  0.50400000000E-02 0. -1.
         -1   -1    0    0    0  501 -0.00000000000E+00 -0.00000000000E+00 -0.70978323916E+03  0.70978323918E+03  0.50400000000E-02 0.  1.
    8880023    1    1    2    0    0  0.63030799498E+02  0.19595198246E+03  0.11233274198E+04  0.13183492555E+04  0.65864270000E+03 0. -1.
    8880022    1    1    2    0    0 -0.63030799498E+02 -0.19595198246E+03 -0.58542082411E+03  0.63912381855E+03  0.15294330000E+03 0.  0.
<mgrwt>
<rscale>  0 0.53877931E+03</rscale>
<asrwt>0</asrwt>
<pdfrwt beam="1">  1        1 0.19195228E+00 0.69005816E+03</pdfrwt>
<pdfrwt beam="2">  1       -1 0.10919742E+00 0.69005816E+03</pdfrwt>
<totfact> 0.80133385E+00</totfact>
</mgrwt>
</event>
<event>
 4    2  0.3179755E-007  0.7255666E+03  0.7818608E-02  0.9904182E-01
          1   -1    0    0  501    0  0.00000000000E+00  0.00000000000E+00  0.44064837915E+03  0.44064837917E+03  0.50400000000E-02 0. -1.
         -1   -1    0    0    0  501 -0.00000000000E+00 -0.00000000000E+00 -0.79610520480E+03  0.79610520482E+03  0.50400000000E-02 0.  1.
    8880023    1    1    2    0    0 -0.28321054587E+03 -0.11148335711E+03  0.25120891619E+02  0.72600138957E+03  0.65864270000E+03 0.  0.
    8880022    1    1    2    0    0  0.28321054587E+03  0.11148335711E+03 -0.38057771727E+03  0.51075219442E+03  0.15294330000E+03 0.  0.
<mgrwt>
<rscale>  0 0.60059059E+03</rscale>
<asrwt>0</asrwt>
<pdfrwt beam="1">  1        1 0.67792059E-01 0.72556665E+03</pdfrwt>
<pdfrwt beam="2">  1       -1 0.12247772E+00 0.72556665E+03</pdfrwt>
<totfact> 0.31809079E+01</totfact>
</mgrwt>
</event>
<event>
 4    2  0.3179755E-007  0.9364256E+03  0.7818608E-02  0.9469920E-01
          1   -1    0    0  501    0  0.00000000000E+00  0.00000000000E+00  0.10871144761E+04  0.10871144761E+04  0.50400000000E-02 0. -1.
         -1   -1    0    0    0  501 -0.00000000000E+00 -0.00000000000E+00 -0.12226658414E+04  0.12226658414E+04  0.50400000000E-02 0.  1.
    8880023    1    1    2    0    0 -0.66192462644E+03  0.70273929714E+02  0.74413028582E+03  0.11960864203E+04  0.65864270000E+03 0.  0.
    8880022    1    1    2    0    0  0.66192462644E+03 -0.70273929714E+02 -0.87968165113E+03  0.11136938972E+04  0.15294330000E+03 0.  0.
<mgrwt>
<rscale>  0 0.86538310E+03</rscale>
<asrwt>0</asrwt>
<pdfrwt beam="1">  1        1 0.16724838E+00 0.93642557E+03</pdfrwt>
<pdfrwt beam="2">  1       -1 0.18810244E+00 0.93642557E+03</pdfrwt>
<totfact> 0.23924588E+00</totfact>
</mgrwt>
</event>
<event>
 4    2  0.3179755E-007  0.8796153E+03  0.7818608E-02  0.9559581E-01
         -1   -1    0    0    0  501 -0.00000000000E+00  0.00000000000E+00  0.82724554971E+03  0.82724554973E+03  0.50400000000E-02 0.  1.
          1   -1    0    0  501    0  0.00000000000E+00 -0.00000000000E+00 -0.13835238436E+04  0.13835238436E+04  0.50400000000E-02 0. -1.
    8880023    1    1    2    0    0  0.41733581620E+03  0.40711622664E+03 -0.10934879362E+04  0.14033669792E+04  0.65864270000E+03 0. -1.
    8880022    1    1    2    0    0 -0.41733581620E+03 -0.40711622664E+03  0.53720964233E+03  0.80740241410E+03  0.15294330000E+03 0.  0.
<mgrwt>
<rscale>  0 0.80030109E+03</rscale>
<asrwt>0</asrwt>
<pdfrwt beam="1">  1        1 0.21284982E+00 0.87961526E+03</pdfrwt>
<pdfrwt beam="2">  1       -1 0.12726855E+00 0.87961526E+03</pdfrwt>
<totfact> 0.43083432E+00</totfact>
</mgrwt>
</event>
<event>
 4    2  0.3179755E-007  0.7407116E+03  0.7818608E-02  0.9857879E-01
         -1   -1    0    0    0  501 -0.00000000000E+00  0.00000000000E+00  0.25494351281E+03  0.25494351286E+03  0.50400000000E-02 0.  1.
          1   -1    0    0  501    0  0.00000000000E+00 -0.00000000000E+00 -0.18110773956E+04  0.18110773957E+04  0.50400000000E-02 0. -1.
    8880023    1    1    2    0    0  0.27660484492E+03  0.19578856767E+03 -0.15219824672E+04  0.16926559722E+04  0.65864270000E+03 0. -1.
    8880022    1    1    2    0    0 -0.27660484492E+03 -0.19578856767E+03 -0.34151415617E+02  0.37336493631E+03  0.15294330000E+03 0.  0.
<mgrwt>
<rscale>  0 0.62346792E+03</rscale>
<asrwt>0</asrwt>
<pdfrwt beam="1">  1        1 0.27862728E+00 0.74071156E+03</pdfrwt>
<pdfrwt beam="2">  1       -1 0.39222080E-01 0.74071156E+03</pdfrwt>
<totfact> 0.26231874E+01</totfact>
</mgrwt>
</event>
<event>
 4    2  0.3179755E-007  0.7398035E+03  0.7818608E-02  0.9860520E-01
          1   -1    0    0  501    0  0.00000000000E+00  0.00000000000E+00  0.10153121462E+04  0.10153121463E+04  0.50400000000E-02 0. -1.
         -1   -1    0    0    0  501 -0.00000000000E+00 -0.00000000000E+00 -0.68458779893E+03  0.68458779895E+03  0.50400000000E-02 0.  1.
    8880023    1    1    2    0    0  0.27730616695E+02 -0.33575286089E+03  0.80831816393E+03  0.10957588380E+04  0.65864270000E+03 0. -1.
    8880022    1    1    2    0    0 -0.27730616695E+02  0.33575286089E+03 -0.47759381662E+03  0.60414110718E+03  0.15294330000E+03 0.  0.
<mgrwt>
<rscale>  0 0.62213407E+03</rscale>
<asrwt>0</asrwt>
<pdfrwt beam="1">  1        1 0.15620187E+00 0.73980347E+03</pdfrwt>
<pdfrwt beam="2">  1       -1 0.10532120E+00 0.73980347E+03</pdfrwt>
<totfact> 0.12852454E+01</totfact>
</mgrwt>
</event>
<event>
 4    2  0.3179755E-007  0.1151888E+04  0.7818608E-02  0.9205371E-01
          1   -1    0    0  501    0  0.00000000000E+00  0.00000000000E+00  0.19807171314E+04  0.19807171314E+04  0.50400000000E-02 0. -1.
         -1   -1    0    0    0  501 -0.00000000000E+00 -0.00000000000E+00 -0.10106977485E+04  0.10106977485E+04  0.50400000000E-02 0.  1.
    8880023    1    1    2    0    0  0.67064576340E+03  0.66578555905E+03  0.15046456136E+04  0.18949418934E+04  0.65864270000E+03 0. -1.
    8880022    1    1    2    0    0 -0.67064576340E+03 -0.66578555905E+03 -0.53462623067E+03  0.10964729865E+04  0.15294330000E+03 0.  0.
<mgrwt>
<rscale>  0 0.10998160E+04</rscale>
<asrwt>0</asrwt>
<pdfrwt beam="1">  1        1 0.30472571E+00 0.11518882E+04</pdfrwt>
<pdfrwt beam="2">  1       -1 0.15549196E+00 0.11518882E+04</pdfrwt>
<totfact> 0.96070469E-01</totfact>
</mgrwt>
</event>
<event>
 4    2  0.3675489E-007  0.7135160E+03  0.7818608E-02  0.9945169E-01
          1   -1    0    0  501    0  0.00000000000E+00  0.00000000000E+00  0.22473290268E+04  0.22473290268E+04  0.50400000000E-02 0. -1.
         -1   -1    0    0    0  501 -0.00000000000E+00 -0.00000000000E+00 -0.81340339943E+03  0.81340339944E+03  0.50400000000E-02 0.  1.
    8880023    1    1    2    0    0  0.23312738771E+03  0.14472898204E+03  0.21572226986E+04  0.22721608294E+04  0.65864270000E+03 0. -1.
    8880022    1    1    2    0    0 -0.23312738771E+03 -0.14472898204E+03 -0.72329707120E+03  0.78857159685E+03  0.15294330000E+03 0.  0.
<mgrwt>
<rscale>  0 0.58121258E+03</rscale>
<asrwt>0</asrwt>
<pdfrwt beam="1">  1        1 0.34574292E+00 0.71351599E+03</pdfrwt>
<pdfrwt beam="2">  1       -1 0.12513899E+00 0.71351599E+03</pdfrwt>
<totfact> 0.12078343E+00</totfact>
</mgrwt>
</event>
<event>
 4    2  0.3179755E-007  0.1418173E+04  0.7818608E-02  0.8969689E-01
         -1   -1    0    0    0  501 -0.00000000000E+00  0.00000000000E+00  0.10884604289E+04  0.10884604290E+04  0.50400000000E-02 0.  1.
          1   -1    0    0  501    0  0.00000000000E+00 -0.00000000000E+00 -0.17096438464E+04  0.17096438464E+04  0.50400000000E-02 0. -1.
    8880023    1    1    2    0    0 -0.95488840268E+03 -0.81583931456E+03 -0.58004291354E+03  0.15322093971E+04  0.65864270000E+03 0. -1.
    8880022    1    1    2    0    0  0.95488840268E+03  0.81583931456E+03 -0.41140503923E+02  0.12658948783E+04  0.15294330000E+03 0.  0.
<mgrwt>
<rscale>  0 0.13782851E+04</rscale>
<asrwt>0</asrwt>
<pdfrwt beam="1">  1        1 0.26302213E+00 0.14181734E+04</pdfrwt>
<pdfrwt beam="2">  1       -1 0.16745545E+00 0.14181734E+04</pdfrwt>
<totfact> 0.11542409E+00</totfact>
</mgrwt>
</event>
<event>
 4    2  0.3179755E-007  0.6680750E+03  0.7818608E-02  0.1017082E+00
          1   -1    0    0  501    0  0.00000000000E+00  0.00000000000E+00  0.17862049239E+04  0.17862049239E+04  0.50400000000E-02 0. -1.
         -1   -1    0    0    0  501 -0.00000000000E+00 -0.00000000000E+00 -0.17283868113E+03  0.17283868121E+03  0.50400000000E-02 0.  1.
    8880023    1    1    2    0    0  0.81618908520E+02 -0.76500740236E+02  0.16370108709E+04  0.17680861990E+04  0.65864270000E+03 0.  0.
    8880022    1    1    2    0    0 -0.81618908520E+02  0.76500740236E+02 -0.23644628129E+02  0.19095740609E+03  0.15294330000E+03 0.  0.
<mgrwt>
<rscale>  0 0.48754453E+03</rscale>
<asrwt>0</asrwt>
<pdfrwt beam="1">  1        1 0.27480076E+00 0.66807501E+03</pdfrwt>
<pdfrwt beam="2">  1       -1 0.26590566E-01 0.66807501E+03</pdfrwt>
<totfact> 0.54537082E+01</totfact>
</mgrwt>
</event>
<event>
 4    2  0.3179755E-007  0.8673483E+03  0.7818608E-02  0.9580623E-01
         -1   -1    0    0    0  501 -0.00000000000E+00  0.00000000000E+00  0.19819281217E+03  0.19819281223E+03  0.50400000000E-02 0.  1.
          1   -1    0    0  501    0  0.00000000000E+00 -0.00000000000E+00 -0.29991293820E+04  0.29991293820E+04  0.50400000000E-02 0. -1.
    8880023    1    1    2    0    0 -0.21175227904E+03  0.52310984486E+03 -0.21710026672E+04  0.23378506635E+04  0.65864270000E+03 0.  0.
    8880022    1    1    2    0    0  0.21175227904E+03 -0.52310984486E+03 -0.62993390259E+03  0.85947153072E+03  0.15294330000E+03 0.  0.
<mgrwt>
<rscale>  0 0.78592032E+03</rscale>
<asrwt>0</asrwt>
<pdfrwt beam="1">  1        1 0.46140449E+00 0.86734834E+03</pdfrwt>
<pdfrwt beam="2">  1       -1 0.30491204E-01 0.86734834E+03</pdfrwt>
<totfact> 0.62038503E+00</totfact>
</mgrwt>
</event>
<event>
 4    2  0.3179755E-007  0.8455184E+03  0.7818608E-02  0.9619861E-01
         -1   -1    0    0    0  501 -0.00000000000E+00  0.00000000000E+00  0.56860197145E+03  0.56860197147E+03  0.50400000000E-02 0.  1.
          1   -1    0    0  501    0  0.00000000000E+00 -0.00000000000E+00 -0.22245793995E+04  0.22245793995E+04  0.50400000000E-02 0. -1.
    8880023    1    1    2    0    0  0.28526441556E+03 -0.44689520627E+03 -0.19802140712E+04  0.21531718664E+04  0.65864270000E+03 0.  0.
    8880022    1    1    2    0    0 -0.28526441556E+03  0.44689520627E+03  0.32423664316E+03  0.64000950458E+03  0.15294330000E+03 0.  0.
<mgrwt>
<rscale>  0 0.75995456E+03</rscale>
<asrwt>0</asrwt>
<pdfrwt beam="1">  1        1 0.34224298E+00 0.84551837E+03</pdfrwt>
<pdfrwt beam="2">  1       -1 0.87477227E-01 0.84551837E+03</pdfrwt>
<totfact> 0.27999308E+00</totfact>
</mgrwt>
</event>
<event>
 4    2  0.3179755E-007  0.9538648E+03  0.7818608E-02  0.9444575E-01
         -1   -1    0    0    0  501 -0.00000000000E+00  0.00000000000E+00  0.96583463428E+03  0.96583463430E+03  0.50400000000E-02 0.  1.
          1   -1    0    0  501    0  0.00000000000E+00 -0.00000000000E+00 -0.14154027001E+04  0.14154027001E+04  0.50400000000E-02 0. -1.
    8880023    1    1    2    0    0 -0.17790271086E+03 -0.66663213888E+03 -0.10752410205E+04  0.14373591206E+04  0.65864270000E+03 0.  0.
    8880022    1    1    2    0    0  0.17790271086E+03  0.66663213888E+03  0.62567295474E+03  0.94387821377E+03  0.15294330000E+03 0.  0.
<mgrwt>
<rscale>  0 0.88496370E+03</rscale>
<asrwt>0</asrwt>
<pdfrwt beam="1">  1        1 0.21775426E+00 0.95386476E+03</pdfrwt>
<pdfrwt beam="2">  1       -1 0.14858994E+00 0.95386476E+03</pdfrwt>
<totfact> 0.27118677E+00</totfact>
</mgrwt>
</event>
<event>
 4    2  0.3179755E-007  0.7100566E+03  0.7818608E-02  0.9957791E-01
         -1   -1    0    0    0  501 -0.00000000000E+00  0.00000000000E+00  0.30612338976E+03  0.30612338981E+03  0.50400000000E-02 0.  1.
          1   -1    0    0  501    0  0.00000000000E+00 -0.00000000000E+00 -0.15507704518E+04  0.15507704518E+04  0.50400000000E-02 0. -1.
    8880023    1    1    2    0    0  0.26296668579E+03 -0.34909079984E+02 -0.13563347329E+04  0.15309553343E+04  0.65864270000E+03 0. -1.
    8880022    1    1    2    0    0 -0.26296668579E+03  0.34909079984E+02  0.11168767088E+03  0.32593850730E+03  0.15294330000E+03 0.  0.
<mgrwt>
<rscale>  0 0.57540408E+03</rscale>
<asrwt>0</asrwt>
<pdfrwt beam="1">  1        1 0.23858006E+00 0.71005657E+03</pdfrwt>
<pdfrwt beam="2">  1       -1 0.47095907E-01 0.71005657E+03</pdfrwt>
<totfact> 0.28162537E+01</totfact>
</mgrwt>
</event>
<event>
 4    2  0.3179755E-007  0.7910576E+03  0.7818608E-02  0.9730476E-01
          1   -1    0    0  501    0  0.00000000000E+00  0.00000000000E+00  0.21564770663E+04  0.21564770663E+04  0.50400000000E-02 0. -1.
         -1   -1    0    0    0  501 -0.00000000000E+00 -0.00000000000E+00 -0.20532376314E+03  0.20532376320E+03  0.50400000000E-02 0.  1.
    8880023    1    1    2    0    0 -0.15347600881E+03  0.41037425014E+03  0.82106226461E+03  0.11401383070E+04  0.65864270000E+03 0. -1.
    8880022    1    1    2    0    0  0.15347600881E+03 -0.41037425014E+03  0.11300910385E+04  0.12216625225E+04  0.15294330000E+03 0.  0.
<mgrwt>
<rscale>  0 0.69230917E+03</rscale>
<asrwt>0</asrwt>
<pdfrwt beam="1">  1        1 0.33176573E+00 0.79105759E+03</pdfrwt>
<pdfrwt beam="2">  1       -1 0.31588269E-01 0.79105759E+03</pdfrwt>
<totfact> 0.22515006E+01</totfact>
</mgrwt>
</event>
<event>
 4    2  0.3179755E-007  0.8717643E+03  0.7818608E-02  0.9572970E-01
         -1   -1    0    0    0  501 -0.00000000000E+00  0.00000000000E+00  0.17320413616E+04  0.17320413616E+04  0.50400000000E-02 0.  1.
          1   -1    0    0  501    0  0.00000000000E+00 -0.00000000000E+00 -0.67791614208E+03  0.67791614210E+03  0.50400000000E-02 0. -1.
    8880023    1    1    2    0    0  0.53250279285E+03 -0.20640648307E+03 -0.30838348145E+03  0.92470181061E+03  0.65864270000E+03 0.  0.
    8880022    1    1    2    0    0 -0.53250279285E+03  0.20640648307E+03  0.13625087010E+04  0.14852556931E+04  0.15294330000E+03 0.  0.
<mgrwt>
<rscale>  0 0.79111331E+03</rscale>
<asrwt>0</asrwt>
<pdfrwt beam="1">  1        1 0.10429479E+00 0.87176434E+03</pdfrwt>
<pdfrwt beam="2">  1       -1 0.26646790E+00 0.87176434E+03</pdfrwt>
<totfact> 0.16018665E+00</totfact>
</mgrwt>
</event>
<event>
 4    2  0.3179755E-007  0.9800148E+03  0.7818608E-02  0.9408184E-01
         -1   -1    0    0    0  501 -0.00000000000E+00  0.00000000000E+00  0.19089886111E+04  0.19089886111E+04  0.50400000000E-02 0.  1.
          1   -1    0    0  501    0  0.00000000000E+00 -0.00000000000E+00 -0.75300140783E+03  0.75300140785E+03  0.50400000000E-02 0. -1.
    8880023    1    1    2    0    0  0.19977720481E+03  0.69764457171E+03 -0.30261570847E+03  0.10256731220E+04  0.65864270000E+03 0.  0.
    8880022    1    1    2    0    0 -0.19977720481E+03 -0.69764457171E+03  0.14586029117E+04  0.16363168969E+04  0.15294330000E+03 0.  0.
<mgrwt>
<rscale>  0 0.91405192E+03</rscale>
<asrwt>0</asrwt>
<pdfrwt beam="1">  1        1 0.11584637E+00 0.98001484E+03</pdfrwt>
<pdfrwt beam="2">  1       -1 0.29369055E+00 0.98001484E+03</pdfrwt>
<totfact> 0.89736261E-01</totfact>
</mgrwt>
</event>
<event>
 4    2  0.3179755E-007  0.8354689E+03  0.7818608E-02  0.9638784E-01
         -1   -1    0    0    0  501 -0.00000000000E+00  0.00000000000E+00  0.92399820769E+03  0.92399820770E+03  0.50400000000E-02 0.  1.
          1   -1    0    0  501    0  0.00000000000E+00 -0.00000000000E+00 -0.52293246265E+03  0.52293246268E+03  0.50400000000E-02 0. -1.
    8880023    1    1    2    0    0 -0.46108367140E+03  0.22715617656E+03  0.12826319459E+03  0.84525719987E+03  0.65864270000E+03 0.  1.
    8880022    1    1    2    0    0  0.46108367140E+03 -0.22715617656E+03  0.27280255045E+03  0.60167347052E+03  0.15294330000E+03 0.  0.
<mgrwt>
<rscale>  0 0.74781537E+03</rscale>
<asrwt>0</asrwt>
<pdfrwt beam="1">  1        1 0.80451149E-01 0.83546890E+03</pdfrwt>
<pdfrwt beam="2">  1       -1 0.14215357E+00 0.83546890E+03</pdfrwt>
<totfact> 0.17066890E+01</totfact>
</mgrwt>
</event>
<event>
 4    2  0.3179755E-007  0.1087592E+04  0.7818608E-02  0.9274998E-01
          1   -1    0    0  501    0  0.00000000000E+00  0.00000000000E+00  0.49340510391E+03  0.49340510393E+03  0.50400000000E-02 0. -1.
         -1   -1    0    0    0  501 -0.00000000000E+00 -0.00000000000E+00 -0.22793095554E+04  0.22793095555E+04  0.50400000000E-02 0.  1.
    8880023    1    1    2    0    0 -0.84425562143E+03  0.19047175860E+03 -0.45752663252E+03  0.11799101113E+04  0.65864270000E+03 0.  0.
    8880022    1    1    2    0    0  0.84425562143E+03 -0.19047175860E+03 -0.13283778190E+04  0.15928045480E+04  0.15294330000E+03 0.  0.
<mgrwt>
<rscale>  0 0.10311756E+04</rscale>
<asrwt>0</asrwt>
<pdfrwt beam="1">  1        1 0.75908479E-01 0.10875924E+04</pdfrwt>
<pdfrwt beam="2">  1       -1 0.35066300E+00 0.10875924E+04</pdfrwt>
<totfact> 0.70046370E-01</totfact>
</mgrwt>
</event>
<event>
 4    2  0.3179755E-007  0.6628072E+03  0.7818608E-02  0.1021449E+00
         -1   -1    0    0    0  501 -0.00000000000E+00  0.00000000000E+00  0.85604882480E+03  0.85604882481E+03  0.50400000000E-02 0.  1.
          1   -1    0    0  501    0  0.00000000000E+00 -0.00000000000E+00 -0.14716307419E+04  0.14716307419E+04  0.50400000000E-02 0. -1.
    8880023    1    1    2    0    0  0.19277489155E+02 -0.71634725316E+02 -0.13872783868E+04  0.15374832305E+04  0.65864270000E+03 0. -1.
    8880022    1    1    2    0    0 -0.19277489155E+02  0.71634725316E+02  0.77169646966E+03  0.79019633621E+03  0.15294330000E+03 0.  0.
<mgrwt>
<rscale>  0 0.47167503E+03</rscale>
<asrwt>0</asrwt>
<pdfrwt beam="1">  1        1 0.22640473E+00 0.66280718E+03</pdfrwt>
<pdfrwt beam="2">  1       -1 0.13169982E+00 0.66280718E+03</pdfrwt>
<totfact> 0.35626323E+00</totfact>
</mgrwt>
</event>
<event>
 4    2  0.3179755E-007  0.7004385E+03  0.7818608E-02  0.9995387E-01
         -1   -1    0    0    0  501 -0.00000000000E+00  0.00000000000E+00  0.33471538050E+03  0.33471538054E+03  0.50400000000E-02 0.  1.
          1   -1    0    0  501    0  0.00000000000E+00 -0.00000000000E+00 -0.98512369423E+03  0.98512369424E+03  0.50400000000E-02 0. -1.
    8880023    1    1    2    0    0 -0.13436981536E+02  0.23795671103E+03 -0.74375915025E+03  0.10216613082E+04  0.65864270000E+03 0.  0.
    8880022    1    1    2    0    0  0.13436981536E+02 -0.23795671103E+03  0.93350836525E+02  0.29817776660E+03  0.15294330000E+03 0.  0.
<mgrwt>
<rscale>  0 0.55852980E+03</rscale>
<asrwt>0</asrwt>
<pdfrwt beam="1">  1        1 0.15155749E+00 0.70043854E+03</pdfrwt>
<pdfrwt beam="2">  1       -1 0.51494674E-01 0.70043854E+03</pdfrwt>
<totfact> 0.60603643E+01</totfact>
</mgrwt>
</event>
<event>
 4    2  0.3179755E-007  0.9290793E+03  0.7818608E-02  0.9480876E-01
          1   -1    0    0  501    0  0.00000000000E+00  0.00000000000E+00  0.35858482497E+04  0.35858482497E+04  0.50400000000E-02 0. -1.
         -1   -1    0    0    0  501 -0.00000000000E+00 -0.00000000000E+00 -0.40440566462E+03  0.40440566465E+03  0.50400000000E-02 0.  1.
    8880023    1    1    2    0    0  0.64966303842E+03 -0.85534060532E+02  0.31846068286E+04  0.33173647671E+04  0.65864270000E+03 0.  0.
    8880022    1    1    2    0    0 -0.64966303842E+03  0.85534060532E+02 -0.31642435523E+01  0.67288914722E+03  0.15294330000E+03 0.  0.
<mgrwt>
<rscale>  0 0.85708574E+03</rscale>
<asrwt>0</asrwt>
<pdfrwt beam="1">  1        1 0.55166896E+00 0.92907930E+03</pdfrwt>
<pdfrwt beam="2">  1       -1 0.62216256E-01 0.92907930E+03</pdfrwt>
<totfact> 0.59077360E-01</totfact>
</mgrwt>
</event>
<event>
 4    2  0.3179755E-007  0.8137762E+03  0.7818608E-02  0.9681764E-01
          1   -1    0    0  501    0  0.00000000000E+00  0.00000000000E+00  0.14559296000E+04  0.14559296000E+04  0.50400000000E-02 0. -1.
         -1   -1    0    0    0  501 -0.00000000000E+00 -0.00000000000E+00 -0.46336696102E+03  0.46336696105E+03  0.50400000000E-02 0.  1.
    8880023    1    1    2    0    0  0.28503758142E+03 -0.38363412590E+03  0.11359895612E+04  0.13973918759E+04  0.65864270000E+03 0. -1.
    8880022    1    1    2    0    0 -0.28503758142E+03  0.38363412590E+03 -0.14342692221E+03  0.52190468518E+03  0.15294330000E+03 0.  0.
<mgrwt>
<rscale>  0 0.72113001E+03</rscale>
<asrwt>0</asrwt>
<pdfrwt beam="1">  1        1 0.22398917E+00 0.81377624E+03</pdfrwt>
<pdfrwt beam="2">  1       -1 0.71287225E-01 0.81377624E+03</pdfrwt>
<totfact> 0.14329071E+01</totfact>
</mgrwt>
</event>
<event>
 4    2  0.3179755E-007  0.9326249E+03  0.7818608E-02  0.9475566E-01
          1   -1    0    0  501    0  0.00000000000E+00  0.00000000000E+00  0.39456051246E+03  0.39456051249E+03  0.50400000000E-02 0. -1.
         -1   -1    0    0    0  501 -0.00000000000E+00 -0.00000000000E+00 -0.25114053645E+04  0.25114053645E+04  0.50400000000E-02 0.  1.
    8880023    1    1    2    0    0 -0.65783057251E+03 -0.56903088358E+02 -0.20152954767E+04  0.22206316868E+04  0.65864270000E+03 0.  0.
    8880022    1    1    2    0    0  0.65783057251E+03  0.56903088358E+02 -0.10154937528E+03  0.68533419018E+03  0.15294330000E+03 0.  0.
<mgrwt>
<rscale>  0 0.86109421E+03</rscale>
<asrwt>0</asrwt>
<pdfrwt beam="1">  1        1 0.60701619E-01 0.93262491E+03</pdfrwt>
<pdfrwt beam="2">  1       -1 0.38637005E+00 0.93262491E+03</pdfrwt>
<totfact> 0.56056381E-01</totfact>
</mgrwt>
</event>
<event>
 4    2  0.3179755E-007  0.7252440E+03  0.7818608E-02  0.9905226E-01
          1   -1    0    0  501    0  0.00000000000E+00  0.00000000000E+00  0.11732439202E+04  0.11732439203E+04  0.50400000000E-02 0. -1.
         -1   -1    0    0    0  501 -0.00000000000E+00 -0.00000000000E+00 -0.51506742716E+03  0.51506742718E+03  0.50400000000E-02 0.  1.
    8880023    1    1    2    0    0 -0.25057560812E+03  0.17140735539E+03  0.98068780131E+03  0.12197243077E+04  0.65864270000E+03 0. -1.
    8880022    1    1    2    0    0  0.25057560812E+03 -0.17140735539E+03 -0.32251130822E+03  0.46858703974E+03  0.15294330000E+03 0.  0.
<mgrwt>
<rscale>  0 0.60008693E+03</rscale>
<asrwt>0</asrwt>
<pdfrwt beam="1">  1        1 0.18049906E+00 0.72524397E+03</pdfrwt>
<pdfrwt beam="2">  1       -1 0.79241144E-01 0.72524397E+03</pdfrwt>
<totfact> 0.18413773E+01</totfact>
</mgrwt>
</event>
<event>
 4    2  0.3179755E-007  0.1030932E+04  0.7818608E-02  0.9342163E-01
         -1   -1    0    0    0  501 -0.00000000000E+00  0.00000000000E+00  0.12647639179E+04  0.12647639179E+04  0.50400000000E-02 0.  1.
          1   -1    0    0  501    0  0.00000000000E+00 -0.00000000000E+00 -0.96337110018E+03  0.96337110019E+03  0.50400000000E-02 0. -1.
    8880023    1    1    2    0    0 -0.77002180622E+03 -0.18994009341E+03 -0.45008858295E+03  0.11249003333E+04  0.65864270000E+03 0.  0.
    8880022    1    1    2    0    0  0.77002180622E+03  0.18994009341E+03  0.75148140065E+03  0.11032346848E+04  0.15294330000E+03 0.  0.
<mgrwt>
<rscale>  0 0.96992243E+03</rscale>
<asrwt>0</asrwt>
<pdfrwt beam="1">  1        1 0.14821094E+00 0.10309321E+04</pdfrwt>
<pdfrwt beam="2">  1       -1 0.19457906E+00 0.10309321E+04</pdfrwt>
<totfact> 0.26544102E+00</totfact>
</mgrwt>
</event>
<event>
 4    2  0.3179755E-007  0.7845885E+03  0.7818608E-02  0.9745167E-01
          1   -1    0    0  501    0  0.00000000000E+00  0.00000000000E+00  0.16673955171E+04  0.16673955171E+04  0.50400000000E-02 0. -1.
         -1   -1    0    0    0  501 -0.00000000000E+00 -0.00000000000E+00 -0.26156186835E+03  0.26156186840E+03  0.50400000000E-02 0.  1.
    8880023    1    1    2    0    0  0.22114302913E+03 -0.36450609616E+03  0.11945145938E+04  0.14291410898E+04  0.65864270000E+03 0. -1.
    8880022    1    1    2    0    0 -0.22114302913E+03  0.36450609616E+03  0.21131905497E+03  0.49981629573E+03  0.15294330000E+03 0.  1.
<mgrwt>
<rscale>  0 0.68390094E+03</rscale>
<asrwt>0</asrwt>
<pdfrwt beam="1">  1        1 0.25652239E+00 0.78458852E+03</pdfrwt>
<pdfrwt beam="2">  1       -1 0.40240287E-01 0.78458852E+03</pdfrwt>
<totfact> 0.31102626E+01</totfact>
</mgrwt>
</event>
<event>
 4    2  0.3179755E-007  0.9944156E+03  0.7818608E-02  0.9388900E-01
          1   -1    0    0  501    0  0.00000000000E+00  0.00000000000E+00  0.13226255207E+04  0.13226255207E+04  0.50400000000E-02 0. -1.
         -1   -1    0    0    0  501 -0.00000000000E+00 -0.00000000000E+00 -0.77947416049E+03  0.77947416051E+03  0.50400000000E-02 0.  1.
    8880023    1    1    2    0    0 -0.56586046190E+03  0.48461757667E+03  0.82389721415E+03  0.12913826248E+04  0.65864270000E+03 0. -1.
    8880022    1    1    2    0    0  0.56586046190E+03 -0.48461757667E+03 -0.28074585397E+03  0.81071705637E+03  0.15294330000E+03 0.  0.
<mgrwt>
<rscale>  0 0.92994790E+03</rscale>
<asrwt>0</asrwt>
<pdfrwt beam="1">  1        1 0.20348085E+00 0.99441564E+03</pdfrwt>
<pdfrwt beam="2">  1       -1 0.11991910E+00 0.99441564E+03</pdfrwt>
<totfact> 0.54299729E+00</totfact>
</mgrwt>
</event>
<event>
 4    2  0.3179755E-007  0.7695145E+03  0.7818608E-02  0.9781070E-01
         -1   -1    0    0    0  501 -0.00000000000E+00  0.00000000000E+00  0.31383913223E+03  0.31383913227E+03  0.50400000000E-02 0.  1.
          1   -1    0    0  501    0  0.00000000000E+00 -0.00000000000E+00 -0.22744350875E+04  0.22744350875E+04  0.50400000000E-02 0. -1.
    8880023    1    1    2    0    0  0.38635559371E+03 -0.95245216917E+02 -0.20164842402E+04  0.21583236999E+04  0.65864270000E+03 0.  0.
    8880022    1    1    2    0    0 -0.38635559371E+03  0.95245216917E+02  0.55888284967E+02  0.42995051989E+03  0.15294330000E+03 0.  0.
<mgrwt>
<rscale>  0 0.66388384E+03</rscale>
<asrwt>0</asrwt>
<pdfrwt beam="1">  1        1 0.34991308E+00 0.76951446E+03</pdfrwt>
<pdfrwt beam="2">  1       -1 0.48282945E-01 0.76951446E+03</pdfrwt>
<totfact> 0.87089338E+00</totfact>
</mgrwt>
</event>
<event>
 4    2  0.3179755E-007  0.8778100E+03  0.7818608E-02  0.9562636E-01
          1   -1    0    0  501    0  0.00000000000E+00  0.00000000000E+00  0.25138716598E+03  0.25138716603E+03  0.50400000000E-02 0. -1.
         -1   -1    0    0    0  501 -0.00000000000E+00 -0.00000000000E+00 -0.23033820137E+04  0.23033820137E+04  0.50400000000E-02 0.  1.
    8880023    1    1    2    0    0  0.12899683217E+03 -0.56577388967E+03 -0.15075326507E+04  0.17444784826E+04  0.65864270000E+03 0.  1.
    8880022    1    1    2    0    0 -0.12899683217E+03  0.56577388967E+03 -0.54446219704E+03  0.81029069719E+03  0.15294330000E+03 0. -1.
<mgrwt>
<rscale>  0 0.79819337E+03</rscale>
<asrwt>0</asrwt>
<pdfrwt beam="1">  1        1 0.38674950E-01 0.87781005E+03</pdfrwt>
<pdfrwt beam="2">  1       -1 0.35436645E+00 0.87781005E+03</pdfrwt>
<totfact> 0.16658382E+00</totfact>
</mgrwt>
</event>
<event>
 4    2  0.3179755E-007  0.9285070E+03  0.7818608E-02  0.9481736E-01
         -1   -1    0    0    0  501 -0.00000000000E+00  0.00000000000E+00  0.10334667668E+04  0.10334667668E+04  0.50400000000E-02 0.  1.
          1   -1    0    0  501    0  0.00000000000E+00 -0.00000000000E+00 -0.11319628738E+04  0.11319628738E+04  0.50400000000E-02 0. -1.
    8880023    1    1    2    0    0  0.42553775031E+03 -0.49722505195E+03 -0.77676267056E+03  0.12105724191E+04  0.65864270000E+03 0. -1.
    8880022    1    1    2    0    0 -0.42553775031E+03  0.49722505195E+03  0.67826656358E+03  0.95485722153E+03  0.15294330000E+03 0.  0.
<mgrwt>
<rscale>  0 0.85643810E+03</rscale>
<asrwt>0</asrwt>
<pdfrwt beam="1">  1        1 0.17414813E+00 0.92850705E+03</pdfrwt>
<pdfrwt beam="2">  1       -1 0.15899489E+00 0.92850705E+03</pdfrwt>
<totfact> 0.36127000E+00</totfact>
</mgrwt>
</event>
<event>
 4    2  0.3179755E-007  0.1140851E+04  0.7818608E-02  0.9216881E-01
         -1   -1    0    0    0  501 -0.00000000000E+00  0.00000000000E+00  0.62724991917E+03  0.62724991919E+03  0.50400000000E-02 0.  1.
          1   -1    0    0  501    0  0.00000000000E+00 -0.00000000000E+00 -0.21416793401E+04  0.21416793402E+04  0.50400000000E-02 0. -1.
    8880023    1    1    2    0    0  0.92623333266E+03  0.99108787442E+02 -0.14180903098E+04  0.18200332610E+04  0.65864270000E+03 0. -1.
    8880022    1    1    2    0    0 -0.92623333266E+03 -0.99108787442E+02 -0.96339111206E+02  0.94889599833E+03  0.15294330000E+03 0.  0.
<mgrwt>
<rscale>  0 0.10880876E+04</rscale>
<asrwt>0</asrwt>
<pdfrwt beam="1">  1        1 0.32948913E+00 0.11408510E+04</pdfrwt>
<pdfrwt beam="2">  1       -1 0.96499989E-01 0.11408510E+04</pdfrwt>
<totfact> 0.24539002E+00</totfact>
</mgrwt>
</event>
<event>
 4    2  0.3179755E-007  0.8557342E+03  0.7818608E-02  0.9601197E-01
         -1   -1    0    0    0  501 -0.00000000000E+00  0.00000000000E+00  0.45794157986E+03  0.45794157989E+03  0.50400000000E-02 0.  1.
          1   -1    0    0  501    0  0.00000000000E+00 -0.00000000000E+00 -0.14920341250E+04  0.14920341250E+04  0.50400000000E-02 0. -1.
    8880023    1    1    2    0    0  0.27709154802E+03  0.47084091426E+03 -0.10833022847E+04  0.13805161857E+04  0.65864270000E+03 0.  0.
    8880022    1    1    2    0    0 -0.27709154802E+03 -0.47084091426E+03  0.49209739629E+02  0.56945951920E+03  0.15294330000E+03 0.  0.
<mgrwt>
<rscale>  0 0.77217012E+03</rscale>
<asrwt>0</asrwt>
<pdfrwt beam="1">  1        1 0.22954371E+00 0.85573425E+03</pdfrwt>
<pdfrwt beam="2">  1       -1 0.70452551E-01 0.85573425E+03</pdfrwt>
<totfact> 0.13790174E+01</totfact>
</mgrwt>
</event>
<event>
 4    2  0.3179755E-007  0.8347274E+03  0.7818608E-02  0.9640203E-01
         -1   -1    0    0    0  501 -0.00000000000E+00  0.00000000000E+00  0.65610340089E+03  0.65610340091E+03  0.50400000000E-02 0.  1.
          1   -1    0    0  501    0  0.00000000000E+00 -0.00000000000E+00 -0.19345502459E+04  0.19345502459E+04  0.50400000000E-02 0. -1.
    8880023    1    1    2    0    0 -0.44364262687E+03 -0.25717869047E+03 -0.17102252831E+04  0.19030607937E+04  0.65864270000E+03 0. -1.
    8880022    1    1    2    0    0  0.44364262687E+03  0.25717869047E+03  0.43177843803E+03  0.68759285320E+03  0.15294330000E+03 0.  0.
<mgrwt>
<rscale>  0 0.74691453E+03</rscale>
<asrwt>0</asrwt>
<pdfrwt beam="1">  1        1 0.29762311E+00 0.83472742E+03</pdfrwt>
<pdfrwt beam="2">  1       -1 0.10093899E+00 0.83472742E+03</pdfrwt>
<totfact> 0.31888076E+00</totfact>
</mgrwt>
</event>
<event>
 4    2  0.3179755E-007  0.1037746E+04  0.7818608E-02  0.9333760E-01
          1   -1    0    0  501    0  0.00000000000E+00  0.00000000000E+00  0.16440575944E+04  0.16440575944E+04  0.50400000000E-02 0. -1.
         -1   -1    0    0    0  501 -0.00000000000E+00 -0.00000000000E+00 -0.65865841093E+03  0.65865841095E+03  0.50400000000E-02 0.  1.
    8880023    1    1    2    0    0 -0.67431716870E+03 -0.43405302900E+03  0.10593890989E+04  0.14829771222E+04  0.65864270000E+03 0.  0.
    8880022    1    1    2    0    0  0.67431716870E+03  0.43405302900E+03 -0.73989915347E+02  0.81973888317E+03  0.15294330000E+03 0.  0.
<mgrwt>
<rscale>  0 0.97733392E+03</rscale>
<asrwt>0</asrwt>
<pdfrwt beam="1">  1        1 0.25293193E+00 0.10377456E+04</pdfrwt>
<pdfrwt beam="2">  1       -1 0.10133207E+00 0.10377456E+04</pdfrwt>
<totfact> 0.48233025E+00</totfact>
</mgrwt>
</event>
<event>
 4    2  0.3179755E-007  0.8434398E+03  0.7818608E-02  0.9623728E-01
          1   -1    0    0  501    0  0.00000000000E+00  0.00000000000E+00  0.18071691371E+04  0.18071691372E+04  0.50400000000E-02 0. -1.
         -1   -1    0    0    0  501 -0.00000000000E+00 -0.00000000000E+00 -0.27801738419E+03  0.27801738423E+03  0.50400000000E-02 0.  1.
    8880023    1    1    2    0    0 -0.47914003273E+03 -0.21910131544E+03  0.72782981998E+03  0.11140588003E+04  0.65864270000E+03 0.  0.
    8880022    1    1    2    0    0  0.47914003273E+03  0.21910131544E+03  0.80132193298E+03  0.97112772110E+03  0.15294330000E+03 0.  0.
<mgrwt>
<rscale>  0 0.75745421E+03</rscale>
<asrwt>0</asrwt>
<pdfrwt beam="1">  1        1 0.27802602E+00 0.84343984E+03</pdfrwt>
<pdfrwt beam="2">  1       -1 0.42771905E-01 0.84343984E+03</pdfrwt>
<totfact> 0.22235831E+01</totfact>
</mgrwt>
</event>
<event>
 4    2  0.3179755E-007  0.8544823E+03  0.7818608E-02  0.9603455E-01
          1   -1    0    0  501    0  0.00000000000E+00  0.00000000000E+00  0.84284178345E+03  0.84284178347E+03  0.50400000000E-02 0. -1.
         -1   -1    0    0    0  501 -0.00000000000E+00 -0.00000000000E+00 -0.69256230401E+03  0.69256230402E+03  0.50400000000E-02 0.  1.
    8880023    1    1    2    0    0  0.24532571405E+03 -0.48594755272E+03 -0.19016348126E+03  0.87538682069E+03  0.65864270000E+03 0.  0.
    8880022    1    1    2    0    0 -0.24532571405E+03  0.48594755272E+03  0.34044296071E+03  0.66001726680E+03  0.15294330000E+03 0.  0.
<mgrwt>
<rscale>  0 0.77067940E+03</rscale>
<asrwt>0</asrwt>
<pdfrwt beam="1">  1        1 0.12966797E+00 0.85448226E+03</pdfrwt>
<pdfrwt beam="2">  1       -1 0.10654805E+00 0.85448226E+03</pdfrwt>
<totfact> 0.16985880E+01</totfact>
</mgrwt>
</event>
<event>
 4    2  0.3179755E-007  0.7841813E+03  0.7818608E-02  0.9746105E-01
          1   -1    0    0  501    0  0.00000000000E+00  0.00000000000E+00  0.14231477788E+04  0.14231477788E+04  0.50400000000E-02 0. -1.
         -1   -1    0    0    0  501 -0.00000000000E+00 -0.00000000000E+00 -0.40517721522E+03  0.40517721525E+03  0.50400000000E-02 0.  1.
    8880023    1    1    2    0    0  0.17463794931E+03  0.38811295993E+03  0.11175681364E+04  0.13652468014E+04  0.65864270000E+03 0. -1.
    8880022    1    1    2    0    0 -0.17463794931E+03 -0.38811295993E+03 -0.99597572791E+02  0.46307819267E+03  0.15294330000E+03 0.  0.
<mgrwt>
<rscale>  0 0.68336824E+03</rscale>
<asrwt>0</asrwt>
<pdfrwt beam="1">  1        1 0.21894581E+00 0.78418129E+03</pdfrwt>
<pdfrwt beam="2">  1       -1 0.62334956E-01 0.78418129E+03</pdfrwt>
<totfact> 0.19882390E+01</totfact>
</mgrwt>
</event>
<event>
 4    2  0.3179755E-007  0.7585868E+03  0.7818608E-02  0.9808780E-01
         -1   -1    0    0    0  501 -0.00000000000E+00  0.00000000000E+00  0.60421235245E+03  0.60421235247E+03  0.50400000000E-02 0.  1.
          1   -1    0    0  501    0  0.00000000000E+00 -0.00000000000E+00 -0.84166842466E+03  0.84166842467E+03  0.50400000000E-02 0. -1.
    8880023    1    1    2    0    0 -0.27733930172E+03  0.25441444446E+03 -0.54692357038E+03  0.93518949734E+03  0.65864270000E+03 0. -1.
    8880022    1    1    2    0    0  0.27733930172E+03 -0.25441444446E+03  0.30946749817E+03  0.51069127980E+03  0.15294330000E+03 0.  0.
<mgrwt>
<rscale>  0 0.64893491E+03</rscale>
<asrwt>0</asrwt>
<pdfrwt beam="1">  1        1 0.12948745E+00 0.75858685E+03</pdfrwt>
<pdfrwt beam="2">  1       -1 0.92955746E-01 0.75858685E+03</pdfrwt>
<totfact> 0.23481623E+01</totfact>
</mgrwt>
</event>
<event>
 4    2  0.3179755E-007  0.7031959E+03  0.7818608E-02  0.9984193E-01
          1   -1    0    0  501    0  0.00000000000E+00  0.00000000000E+00  0.17260104179E+04  0.17260104179E+04  0.50400000000E-02 0. -1.
         -1   -1    0    0    0  501 -0.00000000000E+00 -0.00000000000E+00 -0.17671579652E+03  0.17671579660E+03  0.50400000000E-02 0.  1.
    8880023    1    1    2    0    0  0.23716145643E+03  0.66548269714E+02  0.14213973573E+04  0.15858293988E+04  0.65864270000E+03 0. -1.
    8880022    1    1    2    0    0 -0.23716145643E+03 -0.66548269714E+02  0.12789726412E+03  0.31689681570E+03  0.15294330000E+03 0.  0.
<mgrwt>
<rscale>  0 0.56348804E+03</rscale>
<asrwt>0</asrwt>
<pdfrwt beam="1">  1        1 0.26554008E+00 0.70319587E+03</pdfrwt>
<pdfrwt beam="2">  1       -1 0.27187044E-01 0.70319587E+03</pdfrwt>
<totfact> 0.57358021E+01</totfact>
</mgrwt>
</event>
<event>
 4    2  0.3179755E-007  0.8578191E+03  0.7818608E-02  0.9597455E-01
          1   -1    0    0  501    0  0.00000000000E+00  0.00000000000E+00  0.76483568032E+03  0.76483568034E+03  0.50400000000E-02 0. -1.
         -1   -1    0    0    0  501 -0.00000000000E+00 -0.00000000000E+00 -0.21210971167E+04  0.21210971167E+04  0.50400000000E-02 0.  1.
    8880023    1    1    2    0    0  0.21721613677E+03  0.50483719761E+03  0.46616879318E+03  0.97630271748E+03  0.65864270000E+03 0.  0.
    8880022    1    1    2    0    0 -0.21721613677E+03 -0.50483719761E+03 -0.18224302295E+04  0.19096300796E+04  0.15294330000E+03 0.  1.
<mgrwt>
<rscale>  0 0.77464878E+03</rscale>
<asrwt>0</asrwt>
<pdfrwt beam="1">  1        1 0.11766703E+00 0.85781913E+03</pdfrwt>
<pdfrwt beam="2">  1       -1 0.32632263E+00 0.85781913E+03</pdfrwt>
<totfact> 0.55056973E-01</totfact>
</mgrwt>
</event>
<event>
 4    2  0.3179755E-007  0.9625206E+03  0.7818608E-02  0.9432324E-01
          1   -1    0    0  501    0  0.00000000000E+00  0.00000000000E+00  0.15421860642E+04  0.15421860642E+04  0.50400000000E-02 0. -1.
         -1   -1    0    0    0  501 -0.00000000000E+00 -0.00000000000E+00 -0.67645958280E+03  0.67645958282E+03  0.50400000000E-02 0.  1.
    8880023    1    1    2    0    0 -0.56436075564E+03 -0.41729198436E+03  0.11013165154E+04  0.14626496286E+04  0.65864270000E+03 0. -1.
    8880022    1    1    2    0    0  0.56436075564E+03  0.41729198436E+03 -0.23559003400E+03  0.75599601841E+03  0.15294330000E+03 0.  0.
<mgrwt>
<rscale>  0 0.89462618E+03</rscale>
<asrwt>0</asrwt>
<pdfrwt beam="1">  1        1 0.23725939E+00 0.96252058E+03</pdfrwt>
<pdfrwt beam="2">  1       -1 0.10407071E+00 0.96252058E+03</pdfrwt>
<totfact> 0.53727188E+00</totfact>
</mgrwt>
</event>
<event>
 4    2  0.3179755E-007  0.8842701E+03  0.7818608E-02  0.9551770E-01
         -1   -1    0    0    0  501 -0.00000000000E+00  0.00000000000E+00  0.15598924787E+04  0.15598924787E+04  0.50400000000E-02 0.  1.
          1   -1    0    0  501    0  0.00000000000E+00 -0.00000000000E+00 -0.10700777411E+04  0.10700777412E+04  0.50400000000E-02 0. -1.
    8880023    1    1    2    0    0 -0.58862955285E+03  0.40480624446E+02 -0.80693654780E+03  0.11971132903E+04  0.65864270000E+03 0.  0.
    8880022    1    1    2    0    0  0.58862955285E+03 -0.40480624446E+02  0.12967512853E+04  0.14328569295E+04  0.15294330000E+03 0.  0.
<mgrwt>
<rscale>  0 0.80572301E+03</rscale>
<asrwt>0</asrwt>
<pdfrwt beam="1">  1        1 0.16462735E+00 0.88427012E+03</pdfrwt>
<pdfrwt beam="2">  1       -1 0.23998346E+00 0.88427012E+03</pdfrwt>
<totfact> 0.11110710E+00</totfact>
</mgrwt>
</event>
<event>
 4    2  0.3179755E-007  0.6719057E+03  0.7818608E-02  0.1014332E+00
         -1   -1    0    0    0  501 -0.00000000000E+00  0.00000000000E+00  0.29251525060E+03  0.29251525064E+03  0.50400000000E-02 0.  1.
          1   -1    0    0  501    0  0.00000000000E+00 -0.00000000000E+00 -0.87262701290E+03  0.87262701291E+03  0.50400000000E-02 0. -1.
    8880023    1    1    2    0    0 -0.87015723981E+01  0.13255709589E+03 -0.66513541464E+03  0.94544297930E+03  0.65864270000E+03 0. -1.
    8880022    1    1    2    0    0  0.87015723981E+01 -0.13255709589E+03  0.85023652342E+02  0.21969928426E+03  0.15294330000E+03 0.  0.
<mgrwt>
<rscale>  0 0.49788670E+03</rscale>
<asrwt>0</asrwt>
<pdfrwt beam="1">  1        1 0.13425031E+00 0.67190573E+03</pdfrwt>
<pdfrwt beam="2">  1       -1 0.45002347E-01 0.67190573E+03</pdfrwt>
<totfact> 0.96287111E+01</totfact>
</mgrwt>
</event>
<event>
 4    2  0.3179755E-007  0.8652154E+03  0.7818608E-02  0.9584353E-01
         -1   -1    0    0    0  501 -0.00000000000E+00  0.00000000000E+00  0.11715780606E+04  0.11715780607E+04  0.50400000000E-02 0.  1.
          1   -1    0    0  501    0  0.00000000000E+00 -0.00000000000E+00 -0.53268245035E+03  0.53268245038E+03  0.50400000000E-02 0. -1.
    8880023    1    1    2    0    0  0.45719854670E+03 -0.32520296814E+03  0.35052025453E+02  0.86592513091E+03  0.65864270000E+03 0. -1.
    8880022    1    1    2    0    0 -0.45719854670E+03  0.32520296814E+03  0.60384358484E+03  0.83833538012E+03  0.15294330000E+03 0.  0.
<mgrwt>
<rscale>  0 0.78340535E+03</rscale>
<asrwt>0</asrwt>
<pdfrwt beam="1">  1        1 0.81951147E-01 0.86521540E+03</pdfrwt>
<pdfrwt beam="2">  1       -1 0.18024278E+00 0.86521540E+03</pdfrwt>
<totfact> 0.85589232E+00</totfact>
</mgrwt>
</event>
<event>
 4    2  0.3179755E-007  0.7330663E+03  0.7818608E-02  0.9880625E-01
         -1   -1    0    0    0  501 -0.00000000000E+00  0.00000000000E+00  0.94580813839E+03  0.94580813840E+03  0.50400000000E-02 0.  1.
          1   -1    0    0  501    0  0.00000000000E+00 -0.00000000000E+00 -0.51311799546E+03  0.51311799549E+03  0.50400000000E-02 0. -1.
    8880023    1    1    2    0    0 -0.54795975563E+02 -0.31713314777E+03 -0.17573691729E+03  0.75383665519E+03  0.65864270000E+03 0.  0.
    8880022    1    1    2    0    0  0.54795975563E+02  0.31713314777E+03  0.60842706022E+03  0.70508947870E+03  0.15294330000E+03 0.  0.
<mgrwt>
<rscale>  0 0.61209538E+03</rscale>
<asrwt>0</asrwt>
<pdfrwt beam="1">  1        1 0.78941230E-01 0.73306633E+03</pdfrwt>
<pdfrwt beam="2">  1       -1 0.14550894E+00 0.73306633E+03</pdfrwt>
<totfact> 0.16656810E+01</totfact>
</mgrwt>
</event>
<event>
 4    2  0.3179755E-007  0.7404107E+03  0.7818608E-02  0.9858752E-01
          1   -1    0    0  501    0  0.00000000000E+00  0.00000000000E+00  0.18567183903E+04  0.18567183903E+04  0.50400000000E-02 0. -1.
         -1   -1    0    0    0  501 -0.00000000000E+00 -0.00000000000E+00 -0.27920712824E+03  0.27920712828E+03  0.50400000000E-02 0.  1.
    8880023    1    1    2    0    0  0.12288701203E+03 -0.31511351915E+03  0.16010664546E+04  0.17639789528E+04  0.65864270000E+03 0. -1.
    8880022    1    1    2    0    0 -0.12288701203E+03  0.31511351915E+03 -0.23555192533E+02  0.37194656577E+03  0.15294330000E+03 0.  0.
<mgrwt>
<rscale>  0 0.62302644E+03</rscale>
<asrwt>0</asrwt>
<pdfrwt beam="1">  1        1 0.28564899E+00 0.74041067E+03</pdfrwt>
<pdfrwt beam="2">  1       -1 0.42954941E-01 0.74041067E+03</pdfrwt>
<totfact> 0.20709220E+01</totfact>
</mgrwt>
</event>
<event>
 4    2  0.3179755E-007  0.6905394E+03  0.7818608E-02  0.1003897E+00
          1   -1    0    0  501    0  0.00000000000E+00  0.00000000000E+00  0.61641416855E+03  0.61641416857E+03  0.50400000000E-02 0. -1.
         -1   -1    0    0    0  501 -0.00000000000E+00 -0.00000000000E+00 -0.73751461652E+03  0.73751461654E+03  0.50400000000E-02 0.  1.
    8880023    1    1    2    0    0  0.19274262087E+03  0.76711675619E+02  0.38163360395E+03  0.78897960240E+03  0.65864270000E+03 0. -1.
    8880022    1    1    2    0    0 -0.19274262087E+03 -0.76711675619E+02 -0.50273405192E+03  0.56494918271E+03  0.15294330000E+03 0.  0.
<mgrwt>
<rscale>  0 0.53973879E+03</rscale>
<asrwt>0</asrwt>
<pdfrwt beam="1">  1        1 0.94832949E-01 0.69053936E+03</pdfrwt>
<pdfrwt beam="2">  1       -1 0.11346379E+00 0.69053936E+03</pdfrwt>
<totfact> 0.24098507E+01</totfact>
</mgrwt>
</event>
<event>
 4    2  0.3179755E-007  0.7295002E+03  0.7818608E-02  0.9891661E-01
          1   -1    0    0  501    0  0.00000000000E+00  0.00000000000E+00  0.58214332640E+03  0.58214332642E+03  0.50400000000E-02 0. -1.
         -1   -1    0    0    0  501 -0.00000000000E+00 -0.00000000000E+00 -0.72171900502E+03  0.72171900504E+03  0.50400000000E-02 0.  1.
    8880023    1    1    2    0    0 -0.31349003132E+03  0.91841957528E+01 -0.43267869354E+03  0.84816354985E+03  0.65864270000E+03 0.  1.
    8880022    1    1    2    0    0  0.31349003132E+03 -0.91841957528E+01  0.29310301492E+03  0.45569878161E+03  0.15294330000E+03 0.  0.
<mgrwt>
<rscale>  0 0.60667148E+03</rscale>
<asrwt>0</asrwt>
<pdfrwt beam="1">  1        1 0.89560511E-01 0.72950021E+03</pdfrwt>
<pdfrwt beam="2">  1       -1 0.11103369E+00 0.72950021E+03</pdfrwt>
<totfact> 0.27420805E+01</totfact>
</mgrwt>
</event>
<event>
 4    2  0.3179755E-007  0.7341027E+03  0.7818608E-02  0.9877471E-01
          1   -1    0    0  501    0  0.00000000000E+00  0.00000000000E+00  0.10058413500E+04  0.10058413500E+04  0.50400000000E-02 0. -1.
         -1   -1    0    0    0  501 -0.00000000000E+00 -0.00000000000E+00 -0.46780395652E+03  0.46780395655E+03  0.50400000000E-02 0.  1.
    8880023    1    1    2    0    0  0.20526912620E+03  0.25092069203E+03  0.75628374937E+03  0.10539790907E+04  0.65864270000E+03 0. -1.
    8880022    1    1    2    0    0 -0.20526912620E+03 -0.25092069203E+03 -0.21824635587E+03  0.41966621585E+03  0.15294330000E+03 0.  0.
<mgrwt>
<rscale>  0 0.61365681E+03</rscale>
<asrwt>0</asrwt>
<pdfrwt beam="1">  1        1 0.15474482E+00 0.73410273E+03</pdfrwt>
<pdfrwt beam="2">  1       -1 0.71969840E-01 0.73410273E+03</pdfrwt>
<totfact> 0.30015622E+01</totfact>
</mgrwt>
</event>
<event>
 4    2  0.3179755E-007  0.1038413E+04  0.7818608E-02  0.9332942E-01
          1   -1    0    0  501    0  0.00000000000E+00  0.00000000000E+00  0.15386157338E+04  0.15386157338E+04  0.50400000000E-02 0. -1.
         -1   -1    0    0    0  501 -0.00000000000E+00 -0.00000000000E+00 -0.71342181119E+03  0.71342181121E+03  0.50400000000E-02 0.  1.
    8880023    1    1    2    0    0 -0.16185310771E+03  0.78631683204E+03  0.97126002212E+03  0.14218462736E+04  0.65864270000E+03 0.  0.
    8880022    1    1    2    0    0  0.16185310771E+03 -0.78631683204E+03 -0.14606609948E+03  0.83019127149E+03  0.15294330000E+03 0.  0.
<mgrwt>
<rscale>  0 0.97805879E+03</rscale>
<asrwt>0</asrwt>
<pdfrwt beam="1">  1        1 0.23671011E+00 0.10384126E+04</pdfrwt>
<pdfrwt beam="2">  1       -1 0.10975720E+00 0.10384126E+04</pdfrwt>
<totfact> 0.47245247E+00</totfact>
</mgrwt>
</event>
<event>
 4    2  0.3179755E-007  0.7091667E+03  0.7818608E-02  0.9961108E-01
          1   -1    0    0  501    0  0.00000000000E+00  0.00000000000E+00  0.40899930448E+03  0.40899930451E+03  0.50400000000E-02 0. -1.
         -1   -1    0    0    0  501 -0.00000000000E+00 -0.00000000000E+00 -0.13689948431E+04  0.13689948431E+04  0.50400000000E-02 0.  1.
    8880023    1    1    2    0    0 -0.89787345286E+02 -0.24707367729E+03  0.61839986845E+02  0.71185782262E+03  0.65864270000E+03 0. -1.
    8880022    1    1    2    0    0  0.89787345286E+02  0.24707367729E+03 -0.10218355254E+04  0.10661363250E+04  0.15294330000E+03 0.  0.
<mgrwt>
<rscale>  0 0.57388948E+03</rscale>
<asrwt>0</asrwt>
<pdfrwt beam="1">  1        1 0.62922971E-01 0.70916668E+03</pdfrwt>
<pdfrwt beam="2">  1       -1 0.21061459E+00 0.70916668E+03</pdfrwt>
<totfact> 0.77074697E+00</totfact>
</mgrwt>
</event>
<event>
 4    2  0.3179755E-007  0.6912961E+03  0.7818608E-02  0.1003543E+00
          1   -1    0    0  501    0  0.00000000000E+00  0.00000000000E+00  0.12039989400E+03  0.12039989410E+03  0.50400000000E-02 0. -1.
         -1   -1    0    0    0  501 -0.00000000000E+00 -0.00000000000E+00 -0.28442099361E+04  0.28442099361E+04  0.50400000000E-02 0.  1.
    8880023    1    1    2    0    0 -0.76842322788E+02 -0.19538525211E+03 -0.96692830524E+03  0.11886297544E+04  0.65864270000E+03 0. -1.
    8880022    1    1    2    0    0  0.76842322788E+02  0.19538525211E+03 -0.17568817368E+04  0.17759800758E+04  0.15294330000E+03 0.  0.
<mgrwt>
<rscale>  0 0.54123812E+03</rscale>
<asrwt>0</asrwt>
<pdfrwt beam="1">  1        1 0.18523063E-01 0.69129613E+03</pdfrwt>
<pdfrwt beam="2">  1       -1 0.43757071E+00 0.69129613E+03</pdfrwt>
<totfact> 0.12326924E+00</totfact>
</mgrwt>
</event>
<event>
 4    2  0.3179755E-007  0.8796405E+03  0.7818608E-02  0.9559539E-01
          1   -1    0    0  501    0  0.00000000000E+00  0.00000000000E+00  0.27127384976E+04  0.27127384976E+04  0.50400000000E-02 0. -1.
         -1   -1    0    0    0  501 -0.00000000000E+00 -0.00000000000E+00 -0.26929774602E+03  0.26929774607E+03  0.50400000000E-02 0.  1.
    8880023    1    1    2    0    0  0.45821768006E+03 -0.36054651554E+03  0.21259620547E+04  0.23007568530E+04  0.65864270000E+03 0.  0.
    8880022    1    1    2    0    0 -0.45821768006E+03  0.36054651554E+03  0.31747869683E+03  0.68127939066E+03  0.15294330000E+03 0.  0.
<mgrwt>
<rscale>  0 0.80033056E+03</rscale>
<asrwt>0</asrwt>
<pdfrwt beam="1">  1        1 0.41734437E+00 0.87964052E+03</pdfrwt>
<pdfrwt beam="2">  1       -1 0.41430424E-01 0.87964052E+03</pdfrwt>
<totfact> 0.57023597E+00</totfact>
</mgrwt>
</event>
<event>
 4    2  0.3179755E-007  0.7487579E+03  0.7818608E-02  0.9835133E-01
          1   -1    0    0  501    0  0.00000000000E+00  0.00000000000E+00  0.43347337519E+03  0.43347337522E+03  0.50400000000E-02 0. -1.
         -1   -1    0    0    0  501 -0.00000000000E+00 -0.00000000000E+00 -0.11109182062E+04  0.11109182062E+04  0.50400000000E-02 0.  1.
    8880023    1    1    2    0    0  0.34449057479E+03 -0.90301731175E+02  0.17177171034E+02  0.74895488532E+03  0.65864270000E+03 0.  1.
    8880022    1    1    2    0    0 -0.34449057479E+03  0.90301731175E+02 -0.69462200203E+03  0.79543669609E+03  0.15294330000E+03 0.  0.
<mgrwt>
<rscale>  0 0.63510708E+03</rscale>
<asrwt>0</asrwt>
<pdfrwt beam="1">  1        1 0.66688212E-01 0.74875788E+03</pdfrwt>
<pdfrwt beam="2">  1       -1 0.17091049E+00 0.74875788E+03</pdfrwt>
<totfact> 0.13426530E+01</totfact>
</mgrwt>
</event>
<event>
 4    2  0.3179755E-007  0.6646602E+03  0.7818608E-02  0.1019820E+00
         -1   -1    0    0    0  501 -0.00000000000E+00  0.00000000000E+00  0.81784195757E+02  0.81784195912E+02  0.50400000000E-02 0.  1.
          1   -1    0    0  501    0  0.00000000000E+00 -0.00000000000E+00 -0.25023207366E+04  0.25023207366E+04  0.50400000000E-02 0. -1.
    8880023    1    1    2    0    0  0.39439994231E+01 -0.89148484186E+02 -0.22161828721E+04  0.23137069253E+04  0.65864270000E+03 0.  0.
    8880022    1    1    2    0    0 -0.39439994231E+01  0.89148484186E+02 -0.20435366878E+03  0.27039800724E+03  0.15294330000E+03 0.  0.
<mgrwt>
<rscale>  0 0.47751556E+03</rscale>
<asrwt>0</asrwt>
<pdfrwt beam="1">  1        1 0.38497236E+00 0.66466022E+03</pdfrwt>
<pdfrwt beam="2">  1       -1 0.12582186E-01 0.66466022E+03</pdfrwt>
<totfact> 0.62214900E+01</totfact>
</mgrwt>
</event>
<event>
 4    2  0.3179755E-007  0.6678630E+03  0.7818608E-02  0.1017243E+00
         -1   -1    0    0    0  501 -0.00000000000E+00  0.00000000000E+00  0.21944065584E+03  0.21944065590E+03  0.50400000000E-02 0.  1.
          1   -1    0    0  501    0  0.00000000000E+00 -0.00000000000E+00 -0.84955710170E+03  0.84955710172E+03  0.50400000000E-02 0. -1.
    8880023    1    1    2    0    0  0.10543125766E+03  0.33392040752E+02 -0.54473220995E+03  0.86184346914E+03  0.65864270000E+03 0.  0.
    8880022    1    1    2    0    0 -0.10543125766E+03 -0.33392040752E+02 -0.85384235918E+02  0.20715428848E+03  0.15294330000E+03 0.  0.
<mgrwt>
<rscale>  0 0.48694620E+03</rscale>
<asrwt>0</asrwt>
<pdfrwt beam="1">  1        1 0.13070109E+00 0.66786300E+03</pdfrwt>
<pdfrwt beam="2">  1       -1 0.33760101E-01 0.66786300E+03</pdfrwt>
<totfact> 0.16927885E+02</totfact>
</mgrwt>
</event>
<event>
 4    2  0.3179755E-007  0.7416307E+03  0.7818608E-02  0.9855222E-01
          1   -1    0    0  501    0  0.00000000000E+00  0.00000000000E+00  0.17753180165E+04  0.17753180165E+04  0.50400000000E-02 0. -1.
         -1   -1    0    0    0  501 -0.00000000000E+00 -0.00000000000E+00 -0.19587850685E+03  0.19587850691E+03  0.50400000000E-02 0.  1.
    8880023    1    1    2    0    0  0.61313671320E+02 -0.33533054868E+03  0.13273298316E+04  0.15204672411E+04  0.65864270000E+03 0.  1.
    8880022    1    1    2    0    0 -0.61313671320E+02  0.33533054868E+03  0.25210967812E+03  0.45072928237E+03  0.15294330000E+03 0.  0.
<mgrwt>
<rscale>  0 0.62481368E+03</rscale>
<asrwt>0</asrwt>
<pdfrwt beam="1">  1        1 0.27312585E+00 0.74163074E+03</pdfrwt>
<pdfrwt beam="2">  1       -1 0.30135154E-01 0.74163074E+03</pdfrwt>
<totfact> 0.44270097E+01</totfact>
</mgrwt>
</event>
<event>
 4    2  0.3179755E-007  0.6688384E+03  0.7818608E-02  0.1016510E+00
          1   -1    0    0  501    0  0.00000000000E+00  0.00000000000E+00  0.96679155323E+03  0.96679155324E+03  0.50400000000E-02 0. -1.
         -1   -1    0    0    0  501 -0.00000000000E+00 -0.00000000000E+00 -0.35301754396E+03  0.35301754400E+03  0.50400000000E-02 0.  1.
    8880023    1    1    2    0    0  0.10838054302E+03 -0.42288429538E+02  0.80643125037E+03  0.10477004444E+04  0.65864270000E+03 0. -1.
    8880022    1    1    2    0    0 -0.10838054302E+03  0.42288429538E+02 -0.19265724111E+03  0.27210865283E+03  0.15294330000E+03 0.  0.
<mgrwt>
<rscale>  0 0.48967497E+03</rscale>
<asrwt>0</asrwt>
<pdfrwt beam="1">  1        1 0.14873716E+00 0.66883844E+03</pdfrwt>
<pdfrwt beam="2">  1       -1 0.54310392E-01 0.66883844E+03</pdfrwt>
<totfact> 0.56756937E+01</totfact>
</mgrwt>
</event>
<event>
 4    2  0.3179755E-007  0.6775249E+03  0.7818608E-02  0.1010760E+00
          1   -1    0    0  501    0  0.00000000000E+00  0.00000000000E+00  0.28039132991E+04  0.28039132991E+04  0.50400000000E-02 0. -1.
         -1   -1    0    0    0  501 -0.00000000000E+00 -0.00000000000E+00 -0.48482014153E+03  0.48482014156E+03  0.50400000000E-02 0.  1.
    8880023    1    1    2    0    0 -0.11509610980E+03  0.10946516409E+03  0.27351722228E+04  0.28178372968E+04  0.65864270000E+03 0. -1.
    8880022    1    1    2    0    0  0.11509610980E+03 -0.10946516409E+03 -0.41607906530E+03  0.47089614379E+03  0.15294330000E+03 0.  0.
<mgrwt>
<rscale>  0 0.51173763E+03</rscale>
<asrwt>0</asrwt>
<pdfrwt beam="1">  1        1 0.43137127E+00 0.67752487E+03</pdfrwt>
<pdfrwt beam="2">  1       -1 0.74587715E-01 0.67752487E+03</pdfrwt>
<totfact> 0.16312710E+00</totfact>
</mgrwt>
</event>
<event>
 4    2  0.3179755E-007  0.1170966E+04  0.7818608E-02  0.9185875E-01
          1   -1    0    0  501    0  0.00000000000E+00  0.00000000000E+00  0.10879708276E+04  0.10879708276E+04  0.50400000000E-02 0. -1.
         -1   -1    0    0    0  501 -0.00000000000E+00 -0.00000000000E+00 -0.18948960756E+04  0.18948960756E+04  0.50400000000E-02 0.  1.
    8880023    1    1    2    0    0 -0.83460497715E+03  0.49070004195E+03  0.56229067246E+03  0.12989738279E+04  0.65864270000E+03 0.  0.
    8880022    1    1    2    0    0  0.83460497715E+03 -0.49070004195E+03 -0.13692159205E+04  0.16838930753E+04  0.15294330000E+03 0.  0.
<mgrwt>
<rscale>  0 0.11200419E+04</rscale>
<asrwt>0</asrwt>
<pdfrwt beam="1">  1        1 0.16738013E+00 0.11709664E+04</pdfrwt>
<pdfrwt beam="2">  1       -1 0.29152247E+00 0.11709664E+04</pdfrwt>
<totfact> 0.47944826E-01</totfact>
</mgrwt>
</event>
<event>
 4    2  0.3179755E-007  0.6767943E+03  0.7818608E-02  0.1011198E+00
          1   -1    0    0  501    0  0.00000000000E+00  0.00000000000E+00  0.37324456813E+04  0.37324456813E+04  0.50400000000E-02 0. -1.
         -1   -1    0    0    0  501 -0.00000000000E+00 -0.00000000000E+00 -0.21497542284E+03  0.21497542290E+03  0.50400000000E-02 0.  1.
    8880023    1    1    2    0    0  0.98282091889E+02  0.12075159549E+03  0.36364189211E+04  0.36988637571E+04  0.65864270000E+03 0.  0.
    8880022    1    1    2    0    0 -0.98282091889E+02 -0.12075159549E+03 -0.11894866271E+03  0.24855734705E+03  0.15294330000E+03 0.  0.
<mgrwt>
<rscale>  0 0.51001135E+03</rscale>
<asrwt>0</asrwt>
<pdfrwt beam="1">  1        1 0.57422239E+00 0.67679430E+03</pdfrwt>
<pdfrwt beam="2">  1       -1 0.33073143E-01 0.67679430E+03</pdfrwt>
<totfact> 0.15500837E+00</totfact>
</mgrwt>
</event>
<event>
 4    2  0.3179755E-007  0.8559712E+03  0.7818608E-02  0.9600771E-01
         -1   -1    0    0    0  501 -0.00000000000E+00  0.00000000000E+00  0.36687586306E+03  0.36687586310E+03  0.50400000000E-02 0.  1.
          1   -1    0    0  501    0  0.00000000000E+00 -0.00000000000E+00 -0.16044623216E+04  0.16044623216E+04  0.50400000000E-02 0. -1.
    8880023    1    1    2    0    0 -0.31855412279E+03  0.44429685163E+03 -0.10878532681E+04  0.13842367430E+04  0.65864270000E+03 0.  0.
    8880022    1    1    2    0    0  0.31855412279E+03 -0.44429685163E+03 -0.14973319043E+03  0.58710144170E+03  0.15294330000E+03 0. -1.
<mgrwt>
<rscale>  0 0.77245201E+03</rscale>
<asrwt>0</asrwt>
<pdfrwt beam="1">  1        1 0.24684035E+00 0.85597116E+03</pdfrwt>
<pdfrwt beam="2">  1       -1 0.56442441E-01 0.85597116E+03</pdfrwt>
<totfact> 0.17999219E+01</totfact>
</mgrwt>
</event>
<event>
 4    2  0.3179755E-007  0.6803274E+03  0.7818608E-02  0.1009139E+00
          1   -1    0    0  501    0  0.00000000000E+00  0.00000000000E+00  0.25317734754E+03  0.25317734759E+03  0.50400000000E-02 0. -1.
         -1   -1    0    0    0  501 -0.00000000000E+00 -0.00000000000E+00 -0.15484912575E+04  0.15484912575E+04  0.50400000000E-02 0.  1.
    8880023    1    1    2    0    0 -0.12783991925E+03 -0.11265932425E+03 -0.23940787981E+03  0.72122223168E+03  0.65864270000E+03 0. -1.
    8880022    1    1    2    0    0  0.12783991925E+03  0.11265932425E+03 -0.10559060301E+04  0.10804463734E+04  0.15294330000E+03 0.  0.
<mgrwt>
<rscale>  0 0.51818241E+03</rscale>
<asrwt>0</asrwt>
<pdfrwt beam="1">  1        1 0.38950362E-01 0.68032740E+03</pdfrwt>
<pdfrwt beam="2">  1       -1 0.23822942E+00 0.68032740E+03</pdfrwt>
<totfact> 0.95038165E+00</totfact>
</mgrwt>
</event>
<event>
 4    2  0.3179755E-007  0.8293209E+03  0.7818608E-02  0.9650655E-01
          1   -1    0    0  501    0  0.00000000000E+00  0.00000000000E+00  0.11548483715E+04  0.11548483715E+04  0.50400000000E-02 0. -1.
         -1   -1    0    0    0  501 -0.00000000000E+00 -0.00000000000E+00 -0.81130757320E+03  0.81130757321E+03  0.50400000000E-02 0.  1.
    8880023    1    1    2    0    0  0.50354964263E+03 -0.20016581692E+02  0.88359783420E+03  0.12118243458E+04  0.65864270000E+03 0.  0.
    8880022    1    1    2    0    0 -0.50354964263E+03  0.20016581692E+02 -0.54005703590E+03  0.75433159895E+03  0.15294330000E+03 0.  0.
<mgrwt>
<rscale>  0 0.74032320E+03</rscale>
<asrwt>0</asrwt>
<pdfrwt beam="1">  1        1 0.17766898E+00 0.82932087E+03</pdfrwt>
<pdfrwt beam="2">  1       -1 0.12481655E+00 0.82932087E+03</pdfrwt>
<totfact> 0.66380320E+00</totfact>
</mgrwt>
</event>
<event>
 4    2  0.3179755E-007  0.6800686E+03  0.7818608E-02  0.1009285E+00
         -1   -1    0    0    0  501 -0.00000000000E+00  0.00000000000E+00  0.18193839746E+03  0.18193839753E+03  0.50400000000E-02 0.  1.
          1   -1    0    0  501    0  0.00000000000E+00 -0.00000000000E+00 -0.22431937792E+04  0.22431937792E+04  0.50400000000E-02 0. -1.
    8880023    1    1    2    0    0 -0.17159205468E+02  0.16848939833E+03 -0.20874484465E+04  0.21954348860E+04  0.65864270000E+03 0. -1.
    8880022    1    1    2    0    0  0.17159205468E+02 -0.16848939833E+03  0.26193064811E+02  0.22969729067E+03  0.15294330000E+03 0.  0.
<mgrwt>
<rscale>  0 0.51759845E+03</rscale>
<asrwt>0</asrwt>
<pdfrwt beam="1">  1        1 0.34510672E+00 0.68006862E+03</pdfrwt>
<pdfrwt beam="2">  1       -1 0.27990524E-01 0.68006862E+03</pdfrwt>
<totfact> 0.24691538E+01</totfact>
</mgrwt>
</event>
<event>
 4    2  0.3179755E-007  0.8457914E+03  0.7818608E-02  0.9619355E-01
          1   -1    0    0  501    0  0.00000000000E+00  0.00000000000E+00  0.10068518063E+04  0.10068518064E+04  0.50400000000E-02 0. -1.
         -1   -1    0    0    0  501 -0.00000000000E+00 -0.00000000000E+00 -0.65943794758E+03  0.65943794760E+03  0.50400000000E-02 0.  1.
    8880023    1    1    2    0    0 -0.39946581645E+03 -0.34925626382E+03  0.62170252354E+03  0.10497033440E+04  0.65864270000E+03 0. -1.
    8880022    1    1    2    0    0  0.39946581645E+03  0.34925626382E+03 -0.27428866478E+03  0.61658640998E+03  0.15294330000E+03 0.  1.
<mgrwt>
<rscale>  0 0.76028260E+03</rscale>
<asrwt>0</asrwt>
<pdfrwt beam="1">  1        1 0.15490028E+00 0.84579139E+03</pdfrwt>
<pdfrwt beam="2">  1       -1 0.10145199E+00 0.84579139E+03</pdfrwt>
<totfact> 0.14041559E+01</totfact>
</mgrwt>
</event>
<event>
 4    2  0.3179755E-007  0.7375341E+03  0.7818608E-02  0.9867189E-01
          1   -1    0    0  501    0  0.00000000000E+00  0.00000000000E+00  0.52527785728E+03  0.52527785730E+03  0.50400000000E-02 0. -1.
         -1   -1    0    0    0  501 -0.00000000000E+00 -0.00000000000E+00 -0.77593367171E+03  0.77593367172E+03  0.50400000000E-02 0.  1.
    8880023    1    1    2    0    0  0.30304044246E+03 -0.13532476033E+03  0.15666841521E+03  0.75399038397E+03  0.65864270000E+03 0. -1.
    8880022    1    1    2    0    0 -0.30304044246E+03  0.13532476033E+03 -0.40732422965E+03  0.54722114506E+03  0.15294330000E+03 0.  0.
<mgrwt>
<rscale>  0 0.61878126E+03</rscale>
<asrwt>0</asrwt>
<pdfrwt beam="1">  1        1 0.80811978E-01 0.73753407E+03</pdfrwt>
<pdfrwt beam="2">  1       -1 0.11937441E+00 0.73753407E+03</pdfrwt>
<totfact> 0.26621493E+01</totfact>
</mgrwt>
</event>
<event>
 4    2  0.3179755E-007  0.1082680E+04  0.7818608E-02  0.9280590E-01
         -1   -1    0    0    0  501 -0.00000000000E+00  0.00000000000E+00  0.90762703443E+03  0.90762703444E+03  0.50400000000E-02 0.  1.
          1   -1    0    0  501    0  0.00000000000E+00 -0.00000000000E+00 -0.24323603689E+04  0.24323603689E+04  0.50400000000E-02 0. -1.
    8880023    1    1    2    0    0  0.64462281791E+03  0.56819573715E+03 -0.20521287659E+04  0.23202214659E+04  0.65864270000E+03 0.  0.
    8880022    1    1    2    0    0 -0.64462281791E+03 -0.56819573715E+03  0.52739543137E+03  0.10197659374E+04  0.15294330000E+03 0.  0.
<mgrwt>
<rscale>  0 0.10258962E+04</rscale>
<asrwt>0</asrwt>
<pdfrwt beam="1">  1        1 0.37420929E+00 0.10826796E+04</pdfrwt>
<pdfrwt beam="2">  1       -1 0.13963493E+00 0.10826796E+04</pdfrwt>
<totfact> 0.63929071E-01</totfact>
</mgrwt>
</event>
<event>
 4    2  0.3179755E-007  0.8818026E+03  0.7818608E-02  0.9555899E-01
         -1   -1    0    0    0  501 -0.00000000000E+00  0.00000000000E+00  0.10286817843E+04  0.10286817843E+04  0.50400000000E-02 0.  1.
          1   -1    0    0  501    0  0.00000000000E+00 -0.00000000000E+00 -0.17261413039E+04  0.17261413039E+04  0.50400000000E-02 0. -1.
    8880023    1    1    2    0    0  0.59336446414E+02  0.58330508102E+03 -0.15055559189E+04  0.17447849330E+04  0.65864270000E+03 0. -1.
    8880022    1    1    2    0    0 -0.59336446414E+02 -0.58330508102E+03  0.80809639925E+03  0.10100381552E+04  0.15294330000E+03 0.  0.
<mgrwt>
<rscale>  0 0.80285118E+03</rscale>
<asrwt>0</asrwt>
<pdfrwt beam="1">  1        1 0.26556020E+00 0.88180261E+03</pdfrwt>
<pdfrwt beam="2">  1       -1 0.15825874E+00 0.88180261E+03</pdfrwt>
<totfact> 0.14152326E+00</totfact>
</mgrwt>
</event>
<event>
 4    2  0.3179755E-007  0.7409442E+03  0.7818608E-02  0.9857205E-01
          1   -1    0    0  501    0  0.00000000000E+00  0.00000000000E+00  0.16135829166E+04  0.16135829166E+04  0.50400000000E-02 0. -1.
         -1   -1    0    0    0  501 -0.00000000000E+00 -0.00000000000E+00 -0.40196431064E+03  0.40196431067E+03  0.50400000000E-02 0.  1.
    8880023    1    1    2    0    0 -0.23173792192E+03  0.24796289792E+03  0.14106612744E+04  0.15934125330E+04  0.65864270000E+03 0. -1.
    8880022    1    1    2    0    0  0.23173792192E+03 -0.24796289792E+03 -0.19904266841E+03  0.42213469423E+03  0.15294330000E+03 0.  0.
<mgrwt>
<rscale>  0 0.62380891E+03</rscale>
<asrwt>0</asrwt>
<pdfrwt beam="1">  1        1 0.24824352E+00 0.74094417E+03</pdfrwt>
<pdfrwt beam="2">  1       -1 0.61840665E-01 0.74094417E+03</pdfrwt>
<totfact> 0.15051306E+01</totfact>
</mgrwt>
</event>
<event>
 4    2  0.3179755E-007  0.7813718E+03  0.7818608E-02  0.9752625E-01
         -1   -1    0    0    0  501 -0.00000000000E+00  0.00000000000E+00  0.62933088422E+03  0.62933088424E+03  0.50400000000E-02 0.  1.
          1   -1    0    0  501    0  0.00000000000E+00 -0.00000000000E+00 -0.63392638231E+03  0.63392638233E+03  0.50400000000E-02 0. -1.
    8880023    1    1    2    0    0 -0.15387957245E+03  0.39121949211E+03  0.13855301131E+03  0.79356080865E+03  0.65864270000E+03 0.  1.
    8880022    1    1    2    0    0  0.15387957245E+03 -0.39121949211E+03 -0.14314850941E+03  0.46969645792E+03  0.15294330000E+03 0. -1.
<mgrwt>
<rscale>  0 0.67968155E+03</rscale>
<asrwt>0</asrwt>
<pdfrwt beam="1">  1        1 0.97527136E-01 0.78137176E+03</pdfrwt>
<pdfrwt beam="2">  1       -1 0.96820135E-01 0.78137176E+03</pdfrwt>
<totfact> 0.33102370E+01</totfact>
</mgrwt>
</event>
<event>
 4    2  0.3179755E-007  0.6605043E+03  0.7818608E-02  0.1023646E+00
          1   -1    0    0  501    0  0.00000000000E+00  0.00000000000E+00  0.16371596552E+03  0.16371596559E+03  0.50400000000E-02 0. -1.
         -1   -1    0    0    0  501 -0.00000000000E+00 -0.00000000000E+00 -0.13632580381E+04  0.13632580381E+04  0.50400000000E-02 0.  1.
    8880023    1    1    2    0    0  0.34388472656E+02 -0.35681298259E+02 -0.55512071077E+03  0.86280063276E+03  0.65864270000E+03 0.  0.
    8880022    1    1    2    0    0 -0.34388472656E+02  0.35681298259E+02 -0.64442136183E+03  0.66417337096E+03  0.15294330000E+03 0.  1.
<mgrwt>
<rscale>  0 0.46393677E+03</rscale>
<asrwt>0</asrwt>
<pdfrwt beam="1">  1        1 0.25187073E-01 0.66050430E+03</pdfrwt>
<pdfrwt beam="2">  1       -1 0.20973200E+00 0.66050430E+03</pdfrwt>
<totfact> 0.25835654E+01</totfact>
</mgrwt>
</event>
<event>
 4    2  0.3179755E-007  0.7018448E+03  0.7818608E-02  0.9989633E-01
          1   -1    0    0  501    0  0.00000000000E+00  0.00000000000E+00  0.18490803239E+04  0.18490803239E+04  0.50400000000E-02 0. -1.
         -1   -1    0    0    0  501 -0.00000000000E+00 -0.00000000000E+00 -0.15728134442E+03  0.15728134451E+03  0.50400000000E-02 0.  1.
    8880023    1    1    2    0    0  0.18563347869E+03 -0.15593613303E+03  0.15147405290E+04  0.16694385112E+04  0.65864270000E+03 0. -1.
    8880022    1    1    2    0    0 -0.18563347869E+03  0.15593613303E+03  0.17705845042E+03  0.33692315723E+03  0.15294330000E+03 0.  1.
<mgrwt>
<rscale>  0 0.56107164E+03</rscale>
<asrwt>0</asrwt>
<pdfrwt beam="1">  1        1 0.28447388E+00 0.70184476E+03</pdfrwt>
<pdfrwt beam="2">  1       -1 0.24197131E-01 0.70184476E+03</pdfrwt>
<totfact> 0.57905534E+01</totfact>
</mgrwt>
</event>
<event>
 4    2  0.3179755E-007  0.7644511E+03  0.7818608E-02  0.9793717E-01
          1   -1    0    0  501    0  0.00000000000E+00  0.00000000000E+00  0.16799773120E+04  0.16799773120E+04  0.50400000000E-02 0. -1.
         -1   -1    0    0    0  501 -0.00000000000E+00 -0.00000000000E+00 -0.34245872582E+03  0.34245872586E+03  0.50400000000E-02 0.  1.
    8880023    1    1    2    0    0 -0.38786804123E+03 -0.11559468977E+02  0.14054003752E+04  0.15998548871E+04  0.65864270000E+03 0.  0.
    8880022    1    1    2    0    0  0.38786804123E+03  0.11559468977E+02 -0.67881789026E+02  0.42258115082E+03  0.15294330000E+03 0.  0.
<mgrwt>
<rscale>  0 0.65700791E+03</rscale>
<asrwt>0</asrwt>
<pdfrwt beam="1">  1        1 0.25845804E+00 0.76445107E+03</pdfrwt>
<pdfrwt beam="2">  1       -1 0.52685959E-01 0.76445107E+03</pdfrwt>
<totfact> 0.18488780E+01</totfact>
</mgrwt>
</event>
<event>
 4    2  0.3179755E-007  0.6618632E+03  0.7818608E-02  0.1022324E+00
         -1   -1    0    0    0  501 -0.00000000000E+00  0.00000000000E+00  0.79006643370E+03  0.79006643372E+03  0.50400000000E-02 0.  1.
          1   -1    0    0  501    0  0.00000000000E+00 -0.00000000000E+00 -0.38362306349E+03  0.38362306352E+03  0.50400000000E-02 0. -1.
    8880023    1    1    2    0    0 -0.58520214773E+02 -0.28775986945E+02 -0.73339449768E+02  0.66591407412E+03  0.65864270000E+03 0. -1.
    8880022    1    1    2    0    0  0.58520214773E+02  0.28775986945E+02  0.47978281998E+03  0.50777542312E+03  0.15294330000E+03 0.  0.
<mgrwt>
<rscale>  0 0.46857263E+03</rscale>
<asrwt>0</asrwt>
<pdfrwt beam="1">  1        1 0.59018934E-01 0.66186319E+03</pdfrwt>
<pdfrwt beam="2">  1       -1 0.12154868E+00 0.66186319E+03</pdfrwt>
<totfact> 0.39202494E+01</totfact>
</mgrwt>
</event>
<event>
 4    2  0.3179755E-007  0.7016269E+03  0.7818608E-02  0.9990518E-01
         -1   -1    0    0    0  501 -0.00000000000E+00  0.00000000000E+00  0.80149662063E+03  0.80149662065E+03  0.50400000000E-02 0.  1.
          1   -1    0    0  501    0  0.00000000000E+00 -0.00000000000E+00 -0.30833094979E+03  0.30833094984E+03  0.50400000000E-02 0. -1.
    8880023    1    1    2    0    0 -0.83360539447E+02  0.22698273838E+03  0.29143712976E+03  0.75974729346E+03  0.65864270000E+03 0.  0.
    8880022    1    1    2    0    0  0.83360539447E+02 -0.22698273838E+03  0.20172854108E+03  0.35008027702E+03  0.15294330000E+03 0.  1.
<mgrwt>
<rscale>  0 0.56067972E+03</rscale>
<asrwt>0</asrwt>
<pdfrwt beam="1">  1        1 0.47435532E-01 0.70162693E+03</pdfrwt>
<pdfrwt beam="2">  1       -1 0.12330717E+00 0.70162693E+03</pdfrwt>
<totfact> 0.50150883E+01</totfact>
</mgrwt>
</event>
<event>
 4    2  0.3179755E-007  0.8547940E+03  0.7818608E-02  0.9602892E-01
          1   -1    0    0  501    0  0.00000000000E+00  0.00000000000E+00  0.20661994872E+04  0.20661994872E+04  0.50400000000E-02 0. -1.
         -1   -1    0    0    0  501 -0.00000000000E+00 -0.00000000000E+00 -0.53109536181E+03  0.53109536184E+03  0.50400000000E-02 0.  1.
    8880023    1    1    2    0    0 -0.15545018087E+03  0.52220472776E+03  0.17846555002E+04  0.19788046890E+04  0.65864270000E+03 0.  0.
    8880022    1    1    2    0    0  0.15545018087E+03 -0.52220472776E+03 -0.24955137481E+03  0.61849016008E+03  0.15294330000E+03 0.  0.
<mgrwt>
<rscale>  0 0.77105071E+03</rscale>
<asrwt>0</asrwt>
<pdfrwt beam="1">  1        1 0.31787685E+00 0.85479398E+03</pdfrwt>
<pdfrwt beam="2">  1       -1 0.81706978E-01 0.85479398E+03</pdfrwt>
<totfact> 0.41406561E+00</totfact>
</mgrwt>
</event>
<event>
 4    2  0.3179755E-007  0.6762609E+03  0.7818608E-02  0.1011523E+00
          1   -1    0    0  501    0  0.00000000000E+00  0.00000000000E+00  0.20046079931E+03  0.20046079937E+03  0.50400000000E-02 0. -1.
         -1   -1    0    0    0  501 -0.00000000000E+00 -0.00000000000E+00 -0.20715107403E+04  0.20715107403E+04  0.50400000000E-02 0.  1.
    8880023    1    1    2    0    0  0.12651664801E+03  0.86672881702E+02 -0.40133485169E+03  0.78638318910E+03  0.65864270000E+03 0. -1.
    8880022    1    1    2    0    0 -0.12651664801E+03 -0.86672881702E+02 -0.14697150893E+04  0.14855883505E+04  0.15294330000E+03 0.  0.
<mgrwt>
<rscale>  0 0.50873809E+03</rscale>
<asrwt>0</asrwt>
<pdfrwt beam="1">  1        1 0.30840124E-01 0.67626094E+03</pdfrwt>
<pdfrwt beam="2">  1       -1 0.31869394E+00 0.67626094E+03</pdfrwt>
<totfact> 0.39276305E+00</totfact>
</mgrwt>
</event>
<event>
 4    2  0.3179755E-007  0.7785005E+03  0.7818608E-02  0.9759371E-01
         -1   -1    0    0    0  501 -0.00000000000E+00  0.00000000000E+00  0.27794855797E+03  0.27794855801E+03  0.50400000000E-02 0.  1.
          1   -1    0    0  501    0  0.00000000000E+00 -0.00000000000E+00 -0.31141032073E+04  0.31141032073E+04  0.50400000000E-02 0. -1.
    8880023    1    1    2    0    0  0.31840959906E+03  0.26621086840E+03 -0.28450557605E+04  0.29496449593E+04  0.65864270000E+03 0. -1.
    8880022    1    1    2    0    0 -0.31840959906E+03 -0.26621086840E+03  0.89011111712E+01  0.44240680603E+03  0.15294330000E+03 0.  0.
<mgrwt>
<rscale>  0 0.67589255E+03</rscale>
<asrwt>0</asrwt>
<pdfrwt beam="1">  1        1 0.47909278E+00 0.77850055E+03</pdfrwt>
<pdfrwt beam="2">  1       -1 0.42761319E-01 0.77850055E+03</pdfrwt>
<totfact> 0.28353823E+00</totfact>
</mgrwt>
</event>
<event>
 4    2  0.3179755E-007  0.7086698E+03  0.7818608E-02  0.9962974E-01
          1   -1    0    0  501    0  0.00000000000E+00  0.00000000000E+00  0.20541799075E+04  0.20541799075E+04  0.50400000000E-02 0. -1.
         -1   -1    0    0    0  501 -0.00000000000E+00 -0.00000000000E+00 -0.17127490654E+03  0.17127490661E+03  0.50400000000E-02 0.  1.
    8880023    1    1    2    0    0 -0.21039549084E+03 -0.15535915148E+03  0.17621309497E+04  0.18992941896E+04  0.65864270000E+03 0. -1.
    8880022    1    1    2    0    0  0.21039549084E+03  0.15535915148E+03  0.12077405127E+03  0.32616062452E+03  0.15294330000E+03 0.  0.
<mgrwt>
<rscale>  0 0.57304005E+03</rscale>
<asrwt>0</asrwt>
<pdfrwt beam="1">  1        1 0.31602766E+00 0.70866983E+03</pdfrwt>
<pdfrwt beam="2">  1       -1 0.26349987E-01 0.70866983E+03</pdfrwt>
<totfact> 0.36502439E+01</totfact>
</mgrwt>
</event>
<event>
 4    2  0.3179755E-007  0.8587355E+03  0.7818608E-02  0.9595817E-01
          1   -1    0    0  501    0  0.00000000000E+00  0.00000000000E+00  0.33226563821E+04  0.33226563821E+04  0.50400000000E-02 0. -1.
         -1   -1    0    0    0  501 -0.00000000000E+00 -0.00000000000E+00 -0.30966523585E+03  0.30966523589E+03  0.50400000000E-02 0.  1.
    8880023    1    1    2    0    0  0.16918072046E+03 -0.52439904155E+03  0.38193905051E+03  0.93984260146E+03  0.65864270000E+03 0.  0.
    8880022    1    1    2    0    0 -0.16918072046E+03  0.52439904155E+03  0.26310520957E+04  0.26924790165E+04  0.15294330000E+03 0.  0.
<mgrwt>
<rscale>  0 0.77573678E+03</rscale>
<asrwt>0</asrwt>
<pdfrwt beam="1">  1        1 0.51117788E+00 0.85873551E+03</pdfrwt>
<pdfrwt beam="2">  1       -1 0.47640808E-01 0.85873551E+03</pdfrwt>
<totfact> 0.16005745E+00</totfact>
</mgrwt>
</event>
<event>
 4    2  0.3179755E-007  0.8319032E+03  0.7818608E-02  0.9645641E-01
         -1   -1    0    0    0  501 -0.00000000000E+00  0.00000000000E+00  0.50378368526E+03  0.50378368529E+03  0.50400000000E-02 0.  1.
          1   -1    0    0  501    0  0.00000000000E+00 -0.00000000000E+00 -0.95009434126E+03  0.95009434128E+03  0.50400000000E-02 0. -1.
    8880023    1    1    2    0    0  0.39322260237E+03  0.32191416266E+03 -0.39435086262E+03  0.92063866541E+03  0.65864270000E+03 0.  0.
    8880022    1    1    2    0    0 -0.39322260237E+03 -0.32191416266E+03 -0.51959793380E+02  0.53323936115E+03  0.15294330000E+03 0.  0.
<mgrwt>
<rscale>  0 0.74347649E+03</rscale>
<asrwt>0</asrwt>
<pdfrwt beam="1">  1        1 0.14616836E+00 0.83190321E+03</pdfrwt>
<pdfrwt beam="2">  1       -1 0.77505182E-01 0.83190321E+03</pdfrwt>
<totfact> 0.28151080E+01</totfact>
</mgrwt>
</event>
<event>
 4    2  0.3179755E-007  0.8620949E+03  0.7818608E-02  0.9589848E-01
         -1   -1    0    0    0  501 -0.00000000000E+00  0.00000000000E+00  0.22684708201E+03  0.22684708207E+03  0.50400000000E-02 0.  1.
          1   -1    0    0  501    0  0.00000000000E+00 -0.00000000000E+00 -0.26569921459E+04  0.26569921459E+04  0.50400000000E-02 0. -1.
    8880023    1    1    2    0    0  0.48560236224E+03  0.27127048009E+03 -0.19544103626E+04  0.21361009806E+04  0.65864270000E+03 0.  0.
    8880022    1    1    2    0    0 -0.48560236224E+03 -0.27127048009E+03 -0.47573470131E+03  0.74773824740E+03  0.15294330000E+03 0.  0.
<mgrwt>
<rscale>  0 0.77971772E+03</rscale>
<asrwt>0</asrwt>
<pdfrwt beam="1">  1        1 0.40876800E+00 0.86209485E+03</pdfrwt>
<pdfrwt beam="2">  1       -1 0.34899553E-01 0.86209485E+03</pdfrwt>
<totfact> 0.85261248E+00</totfact>
</mgrwt>
</event>
<event>
 4    2  0.3179755E-007  0.8058155E+03  0.7818608E-02  0.9698360E-01
          1   -1    0    0  501    0  0.00000000000E+00  0.00000000000E+00  0.84623144554E+03  0.84623144556E+03  0.50400000000E-02 0. -1.
         -1   -1    0    0    0  501 -0.00000000000E+00 -0.00000000000E+00 -0.11054676656E+04  0.11054676656E+04  0.50400000000E-02 0.  1.
    8880023    1    1    2    0    0 -0.46364565920E+03 -0.23686897329E+02  0.57145020198E+03  0.98787342611E+03  0.65864270000E+03 0. -1.
    8880022    1    1    2    0    0  0.46364565920E+03  0.23686897329E+02 -0.83068642202E+03  0.96382568504E+03  0.15294330000E+03 0.  0.
<mgrwt>
<rscale>  0 0.71114518E+03</rscale>
<asrwt>0</asrwt>
<pdfrwt beam="1">  1        1 0.13018945E+00 0.80581547E+03</pdfrwt>
<pdfrwt beam="2">  1       -1 0.17007195E+00 0.80581547E+03</pdfrwt>
<totfact> 0.50941070E+00</totfact>
</mgrwt>
</event>
<event>
 4    2  0.3179755E-007  0.9171506E+03  0.7818608E-02  0.9499042E-01
          1   -1    0    0  501    0  0.00000000000E+00  0.00000000000E+00  0.11540629169E+04  0.11540629169E+04  0.50400000000E-02 0. -1.
         -1   -1    0    0    0  501 -0.00000000000E+00 -0.00000000000E+00 -0.34242269472E+04  0.34242269472E+04  0.50400000000E-02 0.  1.
    8880023    1    1    2    0    0 -0.85298742774E+02  0.63251814023E+03  0.93316383239E+03  0.13084188999E+04  0.65864270000E+03 0.  0.
    8880022    1    1    2    0    0  0.85298742774E+02 -0.63251814023E+03 -0.32033278627E+04  0.32698709642E+04  0.15294330000E+03 0.  0.
<mgrwt>
<rscale>  0 0.84354499E+03</rscale>
<asrwt>0</asrwt>
<pdfrwt beam="1">  1        1 0.17754814E+00 0.91715063E+03</pdfrwt>
<pdfrwt beam="2">  1       -1 0.52680414E+00 0.91715063E+03</pdfrwt>
<totfact> 0.12058125E-02</totfact>
</mgrwt>
</event>
<event>
 4    2  0.3179755E-007  0.6925589E+03  0.7818608E-02  0.1002959E+00
         -1   -1    0    0    0  501 -0.00000000000E+00  0.00000000000E+00  0.51083253768E+03  0.51083253770E+03  0.50400000000E-02 0.  1.
          1   -1    0    0  501    0  0.00000000000E+00 -0.00000000000E+00 -0.73553162186E+03  0.73553162188E+03  0.50400000000E-02 0. -1.
    8880023    1    1    2    0    0  0.20918219719E+03 -0.45501772578E+02 -0.50863688002E+03  0.85927253238E+03  0.65864270000E+03 0. -1.
    8880022    1    1    2    0    0 -0.20918219719E+03  0.45501772578E+02  0.28393779583E+03  0.38709162720E+03  0.15294330000E+03 0.  0.
<mgrwt>
<rscale>  0 0.54371447E+03</rscale>
<asrwt>0</asrwt>
<pdfrwt beam="1">  1        1 0.11315871E+00 0.69255888E+03</pdfrwt>
<pdfrwt beam="2">  1       -1 0.78589621E-01 0.69255888E+03</pdfrwt>
<totfact> 0.42100181E+01</totfact>
</mgrwt>
</event>
<event>
 4    2  0.3179755E-007  0.6804899E+03  0.7818608E-02  0.1009048E+00
         -1   -1    0    0    0  501 -0.00000000000E+00  0.00000000000E+00  0.54619684374E+03  0.54619684376E+03  0.50400000000E-02 0.  1.
          1   -1    0    0  501    0  0.00000000000E+00 -0.00000000000E+00 -0.23016450801E+04  0.23016450802E+04  0.50400000000E-02 0. -1.
    8880023    1    1    2    0    0  0.25117813979E+02 -0.16919029818E+03 -0.22241871598E+04  0.23259567901E+04  0.65864270000E+03 0. -1.
    8880022    1    1    2    0    0 -0.25117813979E+02  0.16919029818E+03  0.46873892336E+03  0.52188513378E+03  0.15294330000E+03 0.  0.
<mgrwt>
<rscale>  0 0.51854792E+03</rscale>
<asrwt>0</asrwt>
<pdfrwt beam="1">  1        1 0.35409924E+00 0.68048987E+03</pdfrwt>
<pdfrwt beam="2">  1       -1 0.84030285E-01 0.68048987E+03</pdfrwt>
<totfact> 0.27972250E+00</totfact>
</mgrwt>
</event>
<event>
 4    2  0.3179755E-007  0.6639193E+03  0.7818608E-02  0.1020458E+00
          1   -1    0    0  501    0  0.00000000000E+00  0.00000000000E+00  0.73039381464E+03  0.73039381465E+03  0.50400000000E-02 0. -1.
         -1   -1    0    0    0  501 -0.00000000000E+00 -0.00000000000E+00 -0.25633489860E+03  0.25633489865E+03  0.50400000000E-02 0.  1.
    8880023    1    1    2    0    0  0.80506984392E+02  0.22299985827E+02  0.46811802074E+03  0.81235666521E+03  0.65864270000E+03 0. -1.
    8880022    1    1    2    0    0 -0.80506984392E+02 -0.22299985827E+02  0.59408952944E+01  0.17437204809E+03  0.15294330000E+03 0.  0.
<mgrwt>
<rscale>  0 0.47521774E+03</rscale>
<asrwt>0</asrwt>
<pdfrwt beam="1">  1        1 0.11236828E+00 0.66391933E+03</pdfrwt>
<pdfrwt beam="2">  1       -1 0.39436138E-01 0.66391933E+03</pdfrwt>
<totfact> 0.16283261E+02</totfact>
</mgrwt>
</event>
<event>
 4    2  0.3179755E-007  0.9059262E+03  0.7818608E-02  0.9516584E-01
         -1   -1    0    0    0  501 -0.00000000000E+00  0.00000000000E+00  0.12468754123E+04  0.12468754124E+04  0.50400000000E-02 0.  1.
          1   -1    0    0  501    0  0.00000000000E+00 -0.00000000000E+00 -0.13979996714E+04  0.13979996714E+04  0.50400000000E-02 0. -1.
    8880023    1    1    2    0    0  0.39461742854E+02  0.62075346952E+03 -0.11464953743E+04  0.14612165988E+04  0.65864270000E+03 0. -1.
    8880022    1    1    2    0    0 -0.39461742854E+02 -0.62075346952E+03  0.99537111520E+03  0.11836584850E+04  0.15294330000E+03 0.  0.
<mgrwt>
<rscale>  0 0.83072094E+03</rscale>
<asrwt>0</asrwt>
<pdfrwt beam="1">  1        1 0.21507687E+00 0.90592621E+03</pdfrwt>
<pdfrwt beam="2">  1       -1 0.19182699E+00 0.90592621E+03</pdfrwt>
<totfact> 0.13495116E+00</totfact>
</mgrwt>
</event>
<event>
 4    2  0.3179755E-007  0.8279719E+03  0.7818608E-02  0.9653291E-01
         -1   -1    0    0    0  501 -0.00000000000E+00  0.00000000000E+00  0.53372936014E+03  0.53372936016E+03  0.50400000000E-02 0.  1.
          1   -1    0    0  501    0  0.00000000000E+00 -0.00000000000E+00 -0.34182350451E+04  0.34182350451E+04  0.50400000000E-02 0. -1.
    8880023    1    1    2    0    0 -0.47614629059E+03 -0.15815168539E+03 -0.32230365460E+04  0.33276871892E+04  0.65864270000E+03 0.  0.
    8880022    1    1    2    0    0  0.47614629059E+03  0.15815168539E+03  0.33853086107E+03  0.62427721611E+03  0.15294330000E+03 0.  0.
<mgrwt>
<rscale>  0 0.73867219E+03</rscale>
<asrwt>0</asrwt>
<pdfrwt beam="1">  1        1 0.52588230E+00 0.82797189E+03</pdfrwt>
<pdfrwt beam="2">  1       -1 0.82112211E-01 0.82797189E+03</pdfrwt>
<totfact> 0.45887337E-01</totfact>
</mgrwt>
</event>
<event>
 4    2  0.3179755E-007  0.8285754E+03  0.7818608E-02  0.9652111E-01
          1   -1    0    0  501    0  0.00000000000E+00  0.00000000000E+00  0.95076663581E+03  0.95076663583E+03  0.50400000000E-02 0. -1.
         -1   -1    0    0    0  501 -0.00000000000E+00 -0.00000000000E+00 -0.72019542790E+03  0.72019542792E+03  0.50400000000E-02 0.  1.
    8880023    1    1    2    0    0  0.49691579096E+03  0.76168327260E+02  0.60482255418E+03  0.10258398733E+04  0.65864270000E+03 0. -1.
    8880022    1    1    2    0    0 -0.49691579096E+03 -0.76168327260E+02 -0.37425134626E+03  0.64512219043E+03  0.15294330000E+03 0.  0.
<mgrwt>
<rscale>  0 0.73941109E+03</rscale>
<asrwt>0</asrwt>
<pdfrwt beam="1">  1        1 0.14627179E+00 0.82857536E+03</pdfrwt>
<pdfrwt beam="2">  1       -1 0.11079930E+00 0.82857536E+03</pdfrwt>
<totfact> 0.12676742E+01</totfact>
</mgrwt>
</event>
<event>
 4    2  0.3179755E-007  0.8325123E+03  0.7818608E-02  0.9644464E-01
         -1   -1    0    0    0  501 -0.00000000000E+00  0.00000000000E+00  0.30523515880E+03  0.30523515884E+03  0.50400000000E-02 0.  1.
          1   -1    0    0  501    0  0.00000000000E+00 -0.00000000000E+00 -0.19467197889E+04  0.19467197889E+04  0.50400000000E-02 0. -1.
    8880023    1    1    2    0    0 -0.47279910547E+03  0.18901738959E+03 -0.14769473394E+04  0.16954203660E+04  0.65864270000E+03 0.  0.
    8880022    1    1    2    0    0  0.47279910547E+03 -0.18901738959E+03 -0.16453729073E+03  0.55653458181E+03  0.15294330000E+03 0.  0.
<mgrwt>
<rscale>  0 0.74421892E+03</rscale>
<asrwt>0</asrwt>
<pdfrwt beam="1">  1        1 0.29949534E+00 0.83251233E+03</pdfrwt>
<pdfrwt beam="2">  1       -1 0.46959256E-01 0.83251233E+03</pdfrwt>
<totfact> 0.15086921E+01</totfact>
</mgrwt>
</event>
<event>
 4    2  0.3179755E-007  0.8050610E+03  0.7818608E-02  0.9699958E-01
         -1   -1    0    0    0  501 -0.00000000000E+00  0.00000000000E+00  0.47547418531E+03  0.47547418534E+03  0.50400000000E-02 0.  1.
          1   -1    0    0  501    0  0.00000000000E+00 -0.00000000000E+00 -0.11446305218E+04  0.11446305218E+04  0.50400000000E-02 0. -1.
    8880023    1    1    2    0    0  0.43769051734E+03 -0.15079777106E+03 -0.77909034402E+03  0.11203146554E+04  0.65864270000E+03 0. -1.
    8880022    1    1    2    0    0 -0.43769051734E+03  0.15079777106E+03  0.10993400757E+03  0.49979005169E+03  0.15294330000E+03 0.  0.
<mgrwt>
<rscale>  0 0.71019282E+03</rscale>
<asrwt>0</asrwt>
<pdfrwt beam="1">  1        1 0.17609700E+00 0.80506097E+03</pdfrwt>
<pdfrwt beam="2">  1       -1 0.73149875E-01 0.80506097E+03</pdfrwt>
<totfact> 0.22628040E+01</totfact>
</mgrwt>
</event>
<event>
 4    2  0.3179755E-007  0.6610114E+03  0.7818608E-02  0.1023143E+00
         -1   -1    0    0    0  501 -0.00000000000E+00  0.00000000000E+00  0.31450696872E+03  0.31450696876E+03  0.50400000000E-02 0.  1.
          1   -1    0    0  501    0  0.00000000000E+00 -0.00000000000E+00 -0.77588059739E+03  0.77588059740E+03  0.50400000000E-02 0. -1.
    8880023    1    1    2    0    0  0.41687548043E+02  0.37256018996E+02 -0.58754191591E+03  0.88438768186E+03  0.65864270000E+03 0. -1.
    8880022    1    1    2    0    0 -0.41687548043E+02 -0.37256018996E+02  0.12616828724E+03  0.20599988431E+03  0.15294330000E+03 0.  0.
<mgrwt>
<rscale>  0 0.46569150E+03</rscale>
<asrwt>0</asrwt>
<pdfrwt beam="1">  1        1 0.11936625E+00 0.66101140E+03</pdfrwt>
<pdfrwt beam="2">  1       -1 0.48385688E-01 0.66101140E+03</pdfrwt>
<totfact> 0.10173266E+02</totfact>
</mgrwt>
</event>
<event>
 4    2  0.3179755E-007  0.7329803E+03  0.7818608E-02  0.9880888E-01
         -1   -1    0    0    0  501 -0.00000000000E+00  0.00000000000E+00  0.77204045107E+03  0.77204045109E+03  0.50400000000E-02 0.  1.
          1   -1    0    0  501    0  0.00000000000E+00 -0.00000000000E+00 -0.77703633694E+03  0.77703633696E+03  0.50400000000E-02 0. -1.
    8880023    1    1    2    0    0  0.47979877144E+01  0.32160056662E+03 -0.53715788798E+03  0.90873469617E+03  0.65864270000E+03 0. -1.
    8880022    1    1    2    0    0 -0.47979877144E+01 -0.32160056662E+03  0.53216200211E+03  0.64034209188E+03  0.15294330000E+03 0.  0.
<mgrwt>
<rscale>  0 0.61196551E+03</rscale>
<asrwt>0</asrwt>
<pdfrwt beam="1">  1        1 0.11954405E+00 0.73298032E+03</pdfrwt>
<pdfrwt beam="2">  1       -1 0.11877545E+00 0.73298032E+03</pdfrwt>
<totfact> 0.15159384E+01</totfact>
</mgrwt>
</event>
<event>
 4    2  0.3179755E-007  0.7780746E+03  0.7818608E-02  0.9760379E-01
          1   -1    0    0  501    0  0.00000000000E+00  0.00000000000E+00  0.36717962133E+03  0.36717962136E+03  0.50400000000E-02 0. -1.
         -1   -1    0    0    0  501 -0.00000000000E+00 -0.00000000000E+00 -0.15031855685E+04  0.15031855685E+04  0.50400000000E-02 0.  1.
    8880023    1    1    2    0    0  0.14572515353E+03 -0.38775517264E+03 -0.15333060707E+03  0.79303869742E+03  0.65864270000E+03 0.  0.
    8880022    1    1    2    0    0 -0.14572515353E+03  0.38775517264E+03 -0.98267534010E+03  0.10773264924E+04  0.15294330000E+03 0.  0.
<mgrwt>
<rscale>  0 0.67532857E+03</rscale>
<asrwt>0</asrwt>
<pdfrwt beam="1">  1        1 0.56489173E-01 0.77807461E+03</pdfrwt>
<pdfrwt beam="2">  1       -1 0.23125931E+00 0.77807461E+03</pdfrwt>
<totfact> 0.64269073E+00</totfact>
</mgrwt>
</event>
<event>
 4    2  0.3179755E-007  0.7381717E+03  0.7818608E-02  0.9865305E-01
         -1   -1    0    0    0  501 -0.00000000000E+00  0.00000000000E+00  0.39861667448E+03  0.39861667451E+03  0.50400000000E-02 0.  1.
          1   -1    0    0  501    0  0.00000000000E+00 -0.00000000000E+00 -0.22016676127E+04  0.22016676127E+04  0.50400000000E-02 0. -1.
    8880023    1    1    2    0    0  0.32622226801E+03 -0.68310148544E+02 -0.20361028711E+04  0.21657821572E+04  0.65864270000E+03 0. -1.
    8880022    1    1    2    0    0 -0.32622226801E+03  0.68310148544E+02  0.23305193288E+03  0.43450213000E+03  0.15294330000E+03 0.  0.
<mgrwt>
<rscale>  0 0.61972613E+03</rscale>
<asrwt>0</asrwt>
<pdfrwt beam="1">  1        1 0.33871809E+00 0.73817169E+03</pdfrwt>
<pdfrwt beam="2">  1       -1 0.61325644E-01 0.73817169E+03</pdfrwt>
<totfact> 0.61779580E+00</totfact>
</mgrwt>
</event>
<event>
 4    2  0.3559398E-007  0.7262991E+03  0.7818608E-02  0.9901821E-01
         -1   -1    0    0    0  501 -0.00000000000E+00  0.00000000000E+00  0.70548745558E+03  0.70548745560E+03  0.50400000000E-02 0.  1.
          1   -1    0    0  501    0  0.00000000000E+00 -0.00000000000E+00 -0.11625767395E+04  0.11625767395E+04  0.50400000000E-02 0. -1.
    8880023    1    1    2    0    0 -0.28349523800E+03 -0.11545807757E+03 -0.99418548877E+03  0.12312250444E+04  0.65864270000E+03 0. -1.
    8880022    1    1    2    0    0  0.28349523800E+03  0.11545807757E+03  0.53709620483E+03  0.63683915072E+03  0.15294330000E+03 0.  0.
<mgrwt>
<rscale>  0 0.60173103E+03</rscale>
<asrwt>0</asrwt>
<pdfrwt beam="1">  1        1 0.17885796E+00 0.72629906E+03</pdfrwt>
<pdfrwt beam="2">  1       -1 0.10853653E+00 0.72629906E+03</pdfrwt>
<totfact> 0.93108016E+00</totfact>
</mgrwt>
</event>
<event>
 4    2  0.3179755E-007  0.6822121E+03  0.7818608E-02  0.1008099E+00
         -1   -1    0    0    0  501 -0.00000000000E+00  0.00000000000E+00  0.11079336006E+04  0.11079336006E+04  0.50400000000E-02 0.  1.
          1   -1    0    0  501    0  0.00000000000E+00 -0.00000000000E+00 -0.10598715739E+04  0.10598715739E+04  0.50400000000E-02 0. -1.
    8880023    1    1    2    0    0  0.86251116658E+02 -0.15544738913E+03 -0.93484920016E+03  0.11573056550E+04  0.65864270000E+03 0. -1.
    8880022    1    1    2    0    0 -0.86251116658E+02  0.15544738913E+03  0.98291122691E+03  0.10104995195E+04  0.15294330000E+03 0.  0.
<mgrwt>
<rscale>  0 0.52237185E+03</rscale>
<asrwt>0</asrwt>
<pdfrwt beam="1">  1        1 0.16305717E+00 0.68221210E+03</pdfrwt>
<pdfrwt beam="2">  1       -1 0.17045132E+00 0.68221210E+03</pdfrwt>
<totfact> 0.34937602E+00</totfact>
</mgrwt>
</event>
<event>
 4    2  0.3179755E-007  0.6617176E+03  0.7818608E-02  0.1022462E+00
         -1   -1    0    0    0  501 -0.00000000000E+00  0.00000000000E+00  0.33205794043E+03  0.33205794047E+03  0.50400000000E-02 0.  1.
          1   -1    0    0  501    0  0.00000000000E+00 -0.00000000000E+00 -0.83865047618E+03  0.83865047619E+03  0.50400000000E-02 0. -1.
    8880023    1    1    2    0    0  0.16064873983E+02 -0.61659269359E+02 -0.66738635493E+03  0.93982695146E+03  0.65864270000E+03 0. -1.
    8880022    1    1    2    0    0 -0.16064873983E+02  0.61659269359E+02  0.16079381918E+03  0.23088146520E+03  0.15294330000E+03 0.  0.
<mgrwt>
<rscale>  0 0.46808579E+03</rscale>
<asrwt>0</asrwt>
<pdfrwt beam="1">  1        1 0.12902315E+00 0.66171758E+03</pdfrwt>
<pdfrwt beam="2">  1       -1 0.51085837E-01 0.66171758E+03</pdfrwt>
<totfact> 0.81094812E+01</totfact>
</mgrwt>
</event>
<event>
 4    2  0.3179755E-007  0.7122567E+03  0.7818608E-02  0.9949714E-01
         -1   -1    0    0    0  501 -0.00000000000E+00  0.00000000000E+00  0.61642386832E+03  0.61642386834E+03  0.50400000000E-02 0.  1.
          1   -1    0    0  501    0  0.00000000000E+00 -0.00000000000E+00 -0.65187954584E+03  0.65187954586E+03  0.50400000000E-02 0. -1.
    8880023    1    1    2    0    0  0.12513311287E+03 -0.24050181914E+03 -0.37726349666E+03  0.80600085181E+03  0.65864270000E+03 0. -1.
    8880022    1    1    2    0    0 -0.12513311287E+03  0.24050181914E+03  0.34180781914E+03  0.46230256239E+03  0.15294330000E+03 0.  0.
<mgrwt>
<rscale>  0 0.57911243E+03</rscale>
<asrwt>0</asrwt>
<pdfrwt beam="1">  1        1 0.10028916E+00 0.71225671E+03</pdfrwt>
<pdfrwt beam="2">  1       -1 0.94834442E-01 0.71225671E+03</pdfrwt>
<totfact> 0.33512652E+01</totfact>
</mgrwt>
</event>
<event>
 4    2  0.3179755E-007  0.8518233E+03  0.7818608E-02  0.9608277E-01
          1   -1    0    0  501    0  0.00000000000E+00  0.00000000000E+00  0.45481002931E+03  0.45481002934E+03  0.50400000000E-02 0. -1.
         -1   -1    0    0    0  501 -0.00000000000E+00 -0.00000000000E+00 -0.14508957948E+04  0.14508957948E+04  0.50400000000E-02 0.  1.
    8880023    1    1    2    0    0  0.27566408247E+03 -0.46454490716E+03 -0.10379466447E+04  0.13427345608E+04  0.65864270000E+03 0.  0.
    8880022    1    1    2    0    0 -0.27566408247E+03  0.46454490716E+03  0.41860879269E+02  0.56297126335E+03  0.15294330000E+03 0.  0.
<mgrwt>
<rscale>  0 0.76750762E+03</rscale>
<asrwt>0</asrwt>
<pdfrwt beam="1">  1        1 0.69970774E-01 0.85182326E+03</pdfrwt>
<pdfrwt beam="2">  1       -1 0.22321474E+00 0.85182326E+03</pdfrwt>
<totfact> 0.54079894E+00</totfact>
</mgrwt>
</event>
<event>
 4    2  0.3179755E-007  0.8953413E+03  0.7818608E-02  0.9533552E-01
          1   -1    0    0  501    0  0.00000000000E+00  0.00000000000E+00  0.19111469044E+04  0.19111469044E+04  0.50400000000E-02 0. -1.
         -1   -1    0    0    0  501 -0.00000000000E+00 -0.00000000000E+00 -0.49804030732E+03  0.49804030735E+03  0.50400000000E-02 0.  1.
    8880023    1    1    2    0    0 -0.56675423892E+03  0.21590614638E+03  0.15301568627E+04  0.17728553416E+04  0.65864270000E+03 0.  0.
    8880022    1    1    2    0    0  0.56675423892E+03 -0.21590614638E+03 -0.11705026559E+03  0.63633187023E+03  0.15294330000E+03 0.  0.
<mgrwt>
<rscale>  0 0.81854723E+03</rscale>
<asrwt>0</asrwt>
<pdfrwt beam="1">  1        1 0.29402259E+00 0.89534130E+03</pdfrwt>
<pdfrwt beam="2">  1       -1 0.76621587E-01 0.89534130E+03</pdfrwt>
<totfact> 0.59944418E+00</totfact>
</mgrwt>
</event>
<event>
 4    2  0.3179755E-007  0.9492466E+03  0.7818608E-02  0.9451199E-01
          1   -1    0    0  501    0  0.00000000000E+00  0.00000000000E+00  0.14203329586E+04  0.14203329586E+04  0.50400000000E-02 0. -1.
         -1   -1    0    0    0  501 -0.00000000000E+00 -0.00000000000E+00 -0.12771308025E+04  0.12771308025E+04  0.50400000000E-02 0.  1.
    8880023    1    1    2    0    0 -0.38379166222E+03  0.56565259852E+03  0.11372872843E+04  0.14813816104E+04  0.65864270000E+03 0. -1.
    8880022    1    1    2    0    0  0.38379166222E+03 -0.56565259852E+03 -0.99408512819E+03  0.12160821507E+04  0.15294330000E+03 0.  0.
<mgrwt>
<rscale>  0 0.87979365E+03</rscale>
<asrwt>0</asrwt>
<pdfrwt beam="1">  1        1 0.21851276E+00 0.94924660E+03</pdfrwt>
<pdfrwt beam="2">  1       -1 0.19648166E+00 0.94924660E+03</pdfrwt>
<totfact> 0.12002735E+00</totfact>
</mgrwt>
</event>
<event>
 4    2  0.3179755E-007  0.1105204E+04  0.7818608E-02  0.9255284E-01
         -1   -1    0    0    0  501 -0.00000000000E+00  0.00000000000E+00  0.24556689611E+04  0.24556689611E+04  0.50400000000E-02 0.  1.
          1   -1    0    0  501    0  0.00000000000E+00 -0.00000000000E+00 -0.51509096860E+03  0.51509096862E+03  0.50400000000E-02 0. -1.
    8880023    1    1    2    0    0  0.35839566517E+03  0.81192262811E+03  0.37952127875E+03  0.11685514170E+04  0.65864270000E+03 0.  0.
    8880022    1    1    2    0    0 -0.35839566517E+03 -0.81192262811E+03  0.15610567138E+04  0.18022085127E+04  0.15294330000E+03 0.  0.
<mgrwt>
<rscale>  0 0.10500580E+04</rscale>
<asrwt>0</asrwt>
<pdfrwt beam="1">  1        1 0.79244764E-01 0.11052041E+04</pdfrwt>
<pdfrwt beam="2">  1       -1 0.37779523E+00 0.11052041E+04</pdfrwt>
<totfact> 0.43437310E-01</totfact>
</mgrwt>
</event>
<event>
 4    2  0.3179755E-007  0.6851753E+03  0.7818608E-02  0.1006536E+00
          1   -1    0    0  501    0  0.00000000000E+00  0.00000000000E+00  0.58151422729E+03  0.58151422731E+03  0.50400000000E-02 0. -1.
         -1   -1    0    0    0  501 -0.00000000000E+00 -0.00000000000E+00 -0.37059786595E+03  0.37059786598E+03  0.50400000000E-02 0.  1.
    8880023    1    1    2    0    0 -0.17965485435E+03  0.58129630922E+02  0.14527140249E+03  0.70040624449E+03  0.65864270000E+03 0. -1.
    8880022    1    1    2    0    0  0.17965485435E+03 -0.58129630922E+02  0.65644958847E+02  0.25170584880E+03  0.15294330000E+03 0.  1.
<mgrwt>
<rscale>  0 0.52875025E+03</rscale>
<asrwt>0</asrwt>
<pdfrwt beam="1">  1        1 0.89463728E-01 0.68517525E+03</pdfrwt>
<pdfrwt beam="2">  1       -1 0.57015056E-01 0.68517525E+03</pdfrwt>
<totfact> 0.11402537E+02</totfact>
</mgrwt>
</event>
<event>
 4    2  0.3179755E-007  0.8037401E+03  0.7818608E-02  0.9702767E-01
          1   -1    0    0  501    0  0.00000000000E+00  0.00000000000E+00  0.83169790507E+03  0.83169790509E+03  0.50400000000E-02 0. -1.
         -1   -1    0    0    0  501 -0.00000000000E+00 -0.00000000000E+00 -0.63356625403E+03  0.63356625405E+03  0.50400000000E-02 0.  1.
    8880023    1    1    2    0    0  0.91181756681E+02  0.45152382201E+03 -0.21043374544E+03  0.83083117544E+03  0.65864270000E+03 0.  0.
    8880022    1    1    2    0    0 -0.91181756681E+02 -0.45152382201E+03  0.40856539648E+03  0.63443298370E+03  0.15294330000E+03 0.  0.
<mgrwt>
<rscale>  0 0.70852292E+03</rscale>
<asrwt>0</asrwt>
<pdfrwt beam="1">  1        1 0.12795352E+00 0.80374006E+03</pdfrwt>
<pdfrwt beam="2">  1       -1 0.97471732E-01 0.80374006E+03</pdfrwt>
<totfact> 0.21421244E+01</totfact>
</mgrwt>
</event>
<event>
 4    2  0.3179755E-007  0.7509688E+03  0.7818608E-02  0.9829076E-01
          1   -1    0    0  501    0  0.00000000000E+00  0.00000000000E+00  0.19976743559E+04  0.19976743559E+04  0.50400000000E-02 0. -1.
         -1   -1    0    0    0  501 -0.00000000000E+00 -0.00000000000E+00 -0.25960116404E+03  0.25960116408E+03  0.50400000000E-02 0.  1.
    8880023    1    1    2    0    0  0.35954487904E+03 -0.29519227786E+02  0.17061886592E+04  0.18641442680E+04  0.65864270000E+03 0.  0.
    8880022    1    1    2    0    0 -0.35954487904E+03  0.29519227786E+02  0.31884532657E+02  0.39313125199E+03  0.15294330000E+03 0.  0.
<mgrwt>
<rscale>  0 0.63825251E+03</rscale>
<asrwt>0</asrwt>
<pdfrwt beam="1">  1        1 0.30733453E+00 0.75096878E+03</pdfrwt>
<pdfrwt beam="2">  1       -1 0.39938639E-01 0.75096878E+03</pdfrwt>
<totfact> 0.19018697E+01</totfact>
</mgrwt>
</event>
<event>
 4    2  0.3179755E-007  0.6894365E+03  0.7818608E-02  0.1004422E+00
         -1   -1    0    0    0  501 -0.00000000000E+00  0.00000000000E+00  0.36185736376E+03  0.36185736380E+03  0.50400000000E-02 0.  1.
          1   -1    0    0  501    0  0.00000000000E+00 -0.00000000000E+00 -0.15303402417E+04  0.15303402417E+04  0.50400000000E-02 0. -1.
    8880023    1    1    2    0    0  0.87283527648E+02 -0.18410326286E+03 -0.13919373933E+04  0.15533229989E+04  0.65864270000E+03 0. -1.
    8880022    1    1    2    0    0 -0.87283527648E+02  0.18410326286E+03  0.22345451536E+03  0.33887460667E+03  0.15294330000E+03 0.  0.
<mgrwt>
<rscale>  0 0.53753245E+03</rscale>
<asrwt>0</asrwt>
<pdfrwt beam="1">  1        1 0.23543696E+00 0.68943646E+03</pdfrwt>
<pdfrwt beam="2">  1       -1 0.55670364E-01 0.68943646E+03</pdfrwt>
<totfact> 0.21218144E+01</totfact>
</mgrwt>
</event>
<event>
 4    2  0.3179755E-007  0.1147551E+04  0.7818608E-02  0.9209873E-01
         -1   -1    0    0    0  501 -0.00000000000E+00  0.00000000000E+00  0.65633762220E+03  0.65633762222E+03  0.50400000000E-02 0.  1.
          1   -1    0    0  501    0  0.00000000000E+00 -0.00000000000E+00 -0.24103259481E+04  0.24103259481E+04  0.50400000000E-02 0. -1.
    8880023    1    1    2    0    0  0.71207761206E+03 -0.61319568487E+03 -0.91929253036E+02  0.11512274612E+04  0.65864270000E+03 0.  1.
    8880022    1    1    2    0    0 -0.71207761206E+03  0.61319568487E+03 -0.16620590728E+04  0.19154361091E+04  0.15294330000E+03 0.  0.
<mgrwt>
<rscale>  0 0.10952098E+04</rscale>
<asrwt>0</asrwt>
<pdfrwt beam="1">  1        1 0.37081937E+00 0.11475512E+04</pdfrwt>
<pdfrwt beam="2">  1       -1 0.10097502E+00 0.11475512E+04</pdfrwt>
<totfact> 0.14509238E+00</totfact>
</mgrwt>
</event>
<event>
 4    2  0.3179755E-007  0.9569448E+03  0.7818608E-02  0.9440192E-01
          1   -1    0    0  501    0  0.00000000000E+00  0.00000000000E+00  0.12484481016E+04  0.12484481016E+04  0.50400000000E-02 0. -1.
         -1   -1    0    0    0  501 -0.00000000000E+00 -0.00000000000E+00 -0.70426720162E+03  0.70426720164E+03  0.50400000000E-02 0.  1.
    8880023    1    1    2    0    0 -0.50246016776E+03  0.47902704694E+03  0.74644186683E+03  0.12136386607E+04  0.65864270000E+03 0. -1.
    8880022    1    1    2    0    0  0.50246016776E+03 -0.47902704694E+03 -0.20226096683E+03  0.73907664258E+03  0.15294330000E+03 0.  0.
<mgrwt>
<rscale>  0 0.88840601E+03</rscale>
<asrwt>0</asrwt>
<pdfrwt beam="1">  1        1 0.19206894E+00 0.95694479E+03</pdfrwt>
<pdfrwt beam="2">  1       -1 0.10834880E+00 0.95694479E+03</pdfrwt>
<totfact> 0.78595629E+00</totfact>
</mgrwt>
</event>
<event>
 4    2  0.3179755E-007  0.6711695E+03  0.7818608E-02  0.1014838E+00
         -1   -1    0    0    0  501 -0.00000000000E+00  0.00000000000E+00  0.68995222064E+03  0.68995222066E+03  0.50400000000E-02 0.  1.
          1   -1    0    0  501    0  0.00000000000E+00 -0.00000000000E+00 -0.57758327200E+03  0.57758327202E+03  0.50400000000E-02 0. -1.
    8880023    1    1    2    0    0  0.11277683933E+03  0.62767018926E+02 -0.35489245713E+03  0.75922142787E+03  0.65864270000E+03 0. -1.
    8880022    1    1    2    0    0 -0.11277683933E+03 -0.62767018926E+02  0.46726140576E+03  0.50831406481E+03  0.15294330000E+03 0.  0.
<mgrwt>
<rscale>  0 0.49596318E+03</rscale>
<asrwt>0</asrwt>
<pdfrwt beam="1">  1        1 0.88858966E-01 0.67116952E+03</pdfrwt>
<pdfrwt beam="2">  1       -1 0.10614649E+00 0.67116952E+03</pdfrwt>
<totfact> 0.31008095E+01</totfact>
</mgrwt>
</event>
<event>
 4    2  0.3179755E-007  0.6897821E+03  0.7818608E-02  0.1004256E+00
         -1   -1    0    0    0  501 -0.00000000000E+00  0.00000000000E+00  0.45849096643E+03  0.45849096646E+03  0.50400000000E-02 0.  1.
          1   -1    0    0  501    0  0.00000000000E+00 -0.00000000000E+00 -0.61116527199E+03  0.61116527201E+03  0.50400000000E-02 0. -1.
    8880023    1    1    2    0    0 -0.10301275377E+03  0.17713685123E+03 -0.32377831948E+03  0.76199192773E+03  0.65864270000E+03 0. -1.
    8880022    1    1    2    0    0  0.10301275377E+03 -0.17713685123E+03  0.17110401392E+03  0.30766431073E+03  0.15294330000E+03 0.  0.
<mgrwt>
<rscale>  0 0.53822660E+03</rscale>
<asrwt>0</asrwt>
<pdfrwt beam="1">  1        1 0.94025427E-01 0.68978207E+03</pdfrwt>
<pdfrwt beam="2">  1       -1 0.70537072E-01 0.68978207E+03</pdfrwt>
<totfact> 0.69433326E+01</totfact>
</mgrwt>
</event>
<event>
 4    2  0.3179755E-007  0.9460655E+03  0.7818608E-02  0.9455798E-01
         -1   -1    0    0    0  501 -0.00000000000E+00  0.00000000000E+00  0.14590397892E+04  0.14590397892E+04  0.50400000000E-02 0.  1.
          1   -1    0    0  501    0  0.00000000000E+00 -0.00000000000E+00 -0.51087448804E+03  0.51087448807E+03  0.50400000000E-02 0. -1.
    8880023    1    1    2    0    0 -0.67904583913E+03  0.11243983442E+02  0.23819425530E+03  0.97559027687E+03  0.65864270000E+03 0.  0.
    8880022    1    1    2    0    0  0.67904583913E+03 -0.11243983442E+02  0.70997104583E+03  0.99432400038E+03  0.15294330000E+03 0.  0.
<mgrwt>
<rscale>  0 0.87622615E+03</rscale>
<asrwt>0</asrwt>
<pdfrwt beam="1">  1        1 0.78596075E-01 0.94606548E+03</pdfrwt>
<pdfrwt beam="2">  1       -1 0.22446766E+00 0.94606548E+03</pdfrwt>
<totfact> 0.44737237E+00</totfact>
</mgrwt>
</event>
<event>
 4    2  0.3179755E-007  0.6850329E+03  0.7818608E-02  0.1006609E+00
         -1   -1    0    0    0  501 -0.00000000000E+00  0.00000000000E+00  0.26536529900E+03  0.26536529904E+03  0.50400000000E-02 0.  1.
          1   -1    0    0  501    0  0.00000000000E+00 -0.00000000000E+00 -0.81370891742E+03  0.81370891744E+03  0.50400000000E-02 0. -1.
    8880023    1    1    2    0    0  0.13086974316E+03  0.13539910202E+03 -0.43346831886E+03  0.81065701515E+03  0.65864270000E+03 0.  1.
    8880022    1    1    2    0    0 -0.13086974316E+03 -0.13539910202E+03 -0.11487529957E+03  0.26841720133E+03  0.15294330000E+03 0. -1.
<mgrwt>
<rscale>  0 0.52844915E+03</rscale>
<asrwt>0</asrwt>
<pdfrwt beam="1">  1        1 0.12518599E+00 0.68503286E+03</pdfrwt>
<pdfrwt beam="2">  1       -1 0.40825431E-01 0.68503286E+03</pdfrwt>
<totfact> 0.12891420E+02</totfact>
</mgrwt>
</event>
<event>
 4    2  0.3179755E-007  0.6705326E+03  0.7818608E-02  0.1015284E+00
         -1   -1    0    0    0  501 -0.00000000000E+00  0.00000000000E+00  0.31715152870E+04  0.31715152871E+04  0.50400000000E-02 0.  1.
          1   -1    0    0  501    0  0.00000000000E+00 -0.00000000000E+00 -0.19209965102E+03  0.19209965108E+03  0.50400000000E-02 0. -1.
    8880023    1    1    2    0    0 -0.11196306265E+03 -0.57166568105E+02  0.40866494659E+03  0.78525218162E+03  0.65864270000E+03 0.  0.
    8880022    1    1    2    0    0  0.11196306265E+03  0.57166568105E+02  0.25707506894E+04  0.25783627565E+04  0.15294330000E+03 0.  0.
<mgrwt>
<rscale>  0 0.49427575E+03</rscale>
<asrwt>0</asrwt>
<pdfrwt beam="1">  1        1 0.29553791E-01 0.67053259E+03</pdfrwt>
<pdfrwt beam="2">  1       -1 0.48792545E+00 0.67053259E+03</pdfrwt>
<totfact> 0.30261134E-01</totfact>
</mgrwt>
</event>
<event>
 4    2  0.3179755E-007  0.8983001E+03  0.7818608E-02  0.9528766E-01
          1   -1    0    0  501    0  0.00000000000E+00  0.00000000000E+00  0.23002277412E+03  0.23002277418E+03  0.50400000000E-02 0. -1.
         -1   -1    0    0    0  501 -0.00000000000E+00 -0.00000000000E+00 -0.31074819078E+04  0.31074819078E+04  0.50400000000E-02 0.  1.
    8880023    1    1    2    0    0 -0.55616474642E+03 -0.25261374105E+03 -0.93967542583E+03  0.12999742457E+04  0.65864270000E+03 0. -1.
    8880022    1    1    2    0    0  0.55616474642E+03  0.25261374105E+03 -0.19377837078E+04  0.20375304362E+04  0.15294330000E+03 0.  0.
<mgrwt>
<rscale>  0 0.82195845E+03</rscale>
<asrwt>0</asrwt>
<pdfrwt beam="1">  1        1 0.35388121E-01 0.89830014E+03</pdfrwt>
<pdfrwt beam="2">  1       -1 0.47807411E+00 0.89830014E+03</pdfrwt>
<totfact> 0.26809197E-01</totfact>
</mgrwt>
</event>
<event>
 4    2  0.3179755E-007  0.6779952E+03  0.7818608E-02  0.1010481E+00
          1   -1    0    0  501    0  0.00000000000E+00  0.00000000000E+00  0.74821410308E+03  0.74821410310E+03  0.50400000000E-02 0. -1.
         -1   -1    0    0    0  501 -0.00000000000E+00 -0.00000000000E+00 -0.71300788610E+03  0.71300788612E+03  0.50400000000E-02 0.  1.
    8880023    1    1    2    0    0 -0.14424407698E+03  0.71139910111E+02  0.56772617199E+03  0.88430224085E+03  0.65864270000E+03 0. -1.
    8880022    1    1    2    0    0  0.14424407698E+03 -0.71139910111E+02 -0.53251995501E+03  0.57691974837E+03  0.15294330000E+03 0.  0.
<mgrwt>
<rscale>  0 0.51283839E+03</rscale>
<asrwt>0</asrwt>
<pdfrwt beam="1">  1        1 0.11510986E+00 0.67799517E+03</pdfrwt>
<pdfrwt beam="2">  1       -1 0.10969352E+00 0.67799517E+03</pdfrwt>
<totfact> 0.19572842E+01</totfact>
</mgrwt>
</event>
<event>
 4    2  0.3179755E-007  0.9001281E+03  0.7818608E-02  0.9525826E-01
         -1   -1    0    0    0  501 -0.00000000000E+00  0.00000000000E+00  0.95317505260E+03  0.95317505261E+03  0.50400000000E-02 0.  1.
          1   -1    0    0  501    0  0.00000000000E+00 -0.00000000000E+00 -0.11959835833E+04  0.11959835833E+04  0.50400000000E-02 0. -1.
    8880023    1    1    2    0    0 -0.60772656418E+03 -0.84195098590E+02 -0.87478088645E+03  0.12551781535E+04  0.65864270000E+03 0.  0.
    8880022    1    1    2    0    0  0.60772656418E+03  0.84195098590E+02  0.63197235577E+03  0.89398048240E+03  0.15294330000E+03 0.  0.
<mgrwt>
<rscale>  0 0.82406264E+03</rscale>
<asrwt>0</asrwt>
<pdfrwt beam="1">  1        1 0.18399747E+00 0.90012810E+03</pdfrwt>
<pdfrwt beam="2">  1       -1 0.14664232E+00 0.90012810E+03</pdfrwt>
<totfact> 0.40539529E+00</totfact>
</mgrwt>
</event>
<event>
 4    2  0.3179755E-007  0.9172959E+03  0.7818608E-02  0.9498818E-01
          1   -1    0    0  501    0  0.00000000000E+00  0.00000000000E+00  0.23467318561E+04  0.23467318561E+04  0.50400000000E-02 0. -1.
         -1   -1    0    0    0  501 -0.00000000000E+00 -0.00000000000E+00 -0.76968846137E+03  0.76968846138E+03  0.50400000000E-02 0.  1.
    8880023    1    1    2    0    0 -0.15278509341E+02 -0.63826958072E+03  0.20905427304E+04  0.22829368376E+04  0.65864270000E+03 0.  0.
    8880022    1    1    2    0    0  0.15278509341E+02  0.63826958072E+03 -0.51349933567E+03  0.83348347990E+03  0.15294330000E+03 0.  0.
<mgrwt>
<rscale>  0 0.84371038E+03</rscale>
<asrwt>0</asrwt>
<pdfrwt beam="1">  1        1 0.36103567E+00 0.91729586E+03</pdfrwt>
<pdfrwt beam="2">  1       -1 0.11841361E+00 0.91729586E+03</pdfrwt>
<totfact> 0.11387415E+00</totfact>
</mgrwt>
</event>
<event>
 4    2  0.3179755E-007  0.6686684E+03  0.7818608E-02  0.1016636E+00
         -1   -1    0    0    0  501 -0.00000000000E+00  0.00000000000E+00  0.41771022677E+03  0.41771022680E+03  0.50400000000E-02 0.  1.
          1   -1    0    0  501    0  0.00000000000E+00 -0.00000000000E+00 -0.74253556257E+03  0.74253556259E+03  0.50400000000E-02 0. -1.
    8880023    1    1    2    0    0  0.44265903330E+02  0.10652595703E+03 -0.54914189000E+03  0.86525965544E+03  0.65864270000E+03 0. -1.
    8880022    1    1    2    0    0 -0.44265903330E+02 -0.10652595703E+03  0.22431655419E+03  0.29498613394E+03  0.15294330000E+03 0.  0.
<mgrwt>
<rscale>  0 0.48920371E+03</rscale>
<asrwt>0</asrwt>
<pdfrwt beam="1">  1        1 0.11423624E+00 0.66866842E+03</pdfrwt>
<pdfrwt beam="2">  1       -1 0.64263112E-01 0.66866842E+03</pdfrwt>
<totfact> 0.62851884E+01</totfact>
</mgrwt>
</event>
<event>
 4    2  0.3179755E-007  0.6833159E+03  0.7818608E-02  0.1007507E+00
          1   -1    0    0  501    0  0.00000000000E+00  0.00000000000E+00  0.65965352063E+03  0.65965352065E+03  0.50400000000E-02 0. -1.
         -1   -1    0    0    0  501 -0.00000000000E+00 -0.00000000000E+00 -0.10325962647E+04  0.10325962647E+04  0.50400000000E-02 0.  1.
    8880023    1    1    2    0    0  0.98611102953E+02  0.15292551561E+03  0.46153220935E+03  0.82458022623E+03  0.65864270000E+03 0.  0.
    8880022    1    1    2    0    0 -0.98611102953E+02 -0.15292551561E+03 -0.83447495342E+03  0.86766955913E+03  0.15294330000E+03 0.  0.
<mgrwt>
<rscale>  0 0.52477619E+03</rscale>
<asrwt>0</asrwt>
<pdfrwt beam="1">  1        1 0.10148516E+00 0.68331586E+03</pdfrwt>
<pdfrwt beam="2">  1       -1 0.15886096E+00 0.68331586E+03</pdfrwt>
<totfact> 0.92446279E+00</totfact>
</mgrwt>
</event>
<event>
 4    2  0.3179755E-007  0.7097275E+03  0.7818608E-02  0.9959014E-01
         -1   -1    0    0    0  501 -0.00000000000E+00  0.00000000000E+00  0.14414026839E+03  0.14414026848E+03  0.50400000000E-02 0.  1.
          1   -1    0    0  501    0  0.00000000000E+00 -0.00000000000E+00 -0.24924646961E+04  0.24924646961E+04  0.50400000000E-02 0. -1.
    8880023    1    1    2    0    0 -0.26436389693E+03  0.38238066422E+01 -0.21695596105E+04  0.22826962131E+04  0.65864270000E+03 0.  0.
    8880022    1    1    2    0    0  0.26436389693E+03 -0.38238066422E+01 -0.17876481723E+03  0.35390875151E+03  0.15294330000E+03 0.  0.
<mgrwt>
<rscale>  0 0.57484499E+03</rscale>
<asrwt>0</asrwt>
<pdfrwt beam="1">  1        1 0.38345607E+00 0.70972748E+03</pdfrwt>
<pdfrwt beam="2">  1       -1 0.22175428E-01 0.70972748E+03</pdfrwt>
<totfact> 0.24793019E+01</totfact>
</mgrwt>
</event>
<event>
 4    2  0.3179755E-007  0.7405582E+03  0.7818608E-02  0.9858324E-01
         -1   -1    0    0    0  501 -0.00000000000E+00  0.00000000000E+00  0.88136341247E+03  0.88136341248E+03  0.50400000000E-02 0.  1.
          1   -1    0    0  501    0  0.00000000000E+00 -0.00000000000E+00 -0.35188682333E+03  0.35188682336E+03  0.50400000000E-02 0. -1.
    8880023    1    1    2    0    0  0.31488447703E+03 -0.12435440921E+03  0.31970111514E+03  0.80661965154E+03  0.65864270000E+03 0.  0.
    8880022    1    1    2    0    0 -0.31488447703E+03  0.12435440921E+03  0.20977547400E+03  0.42663058431E+03  0.15294330000E+03 0. -1.
<mgrwt>
<rscale>  0 0.62324298E+03</rscale>
<asrwt>0</asrwt>
<pdfrwt beam="1">  1        1 0.54136435E-01 0.74055821E+03</pdfrwt>
<pdfrwt beam="2">  1       -1 0.13559437E+00 0.74055821E+03</pdfrwt>
<totfact> 0.33150741E+01</totfact>
</mgrwt>
</event>
<event>
 4    2  0.3179755E-007  0.7510471E+03  0.7818608E-02  0.9828862E-01
          1   -1    0    0  501    0  0.00000000000E+00  0.00000000000E+00  0.16384811673E+04  0.16384811673E+04  0.50400000000E-02 0. -1.
         -1   -1    0    0    0  501 -0.00000000000E+00 -0.00000000000E+00 -0.53496376921E+03  0.53496376923E+03  0.50400000000E-02 0.  1.
    8880023    1    1    2    0    0  0.32981708120E+03 -0.14656826219E+03  0.14611213573E+04  0.16428473421E+04  0.65864270000E+03 0. -1.
    8880022    1    1    2    0    0 -0.32981708120E+03  0.14656826219E+03 -0.35760395921E+03  0.53059759440E+03  0.15294330000E+03 0.  0.
<mgrwt>
<rscale>  0 0.63836357E+03</rscale>
<asrwt>0</asrwt>
<pdfrwt beam="1">  1        1 0.25207402E+00 0.75104711E+03</pdfrwt>
<pdfrwt beam="2">  1       -1 0.82302119E-01 0.75104711E+03</pdfrwt>
<totfact> 0.80271290E+00</totfact>
</mgrwt>
</event>
<event>
 4    2  0.3179755E-007  0.6816578E+03  0.7818608E-02  0.1008401E+00
          1   -1    0    0  501    0  0.00000000000E+00  0.00000000000E+00  0.67615699957E+03  0.67615699959E+03  0.50400000000E-02 0. -1.
         -1   -1    0    0    0  501 -0.00000000000E+00 -0.00000000000E+00 -0.36953569695E+03  0.36953569698E+03  0.50400000000E-02 0.  1.
    8880023    1    1    2    0    0 -0.15138779887E+03  0.89044394951E+02  0.40497696147E+03  0.79288316636E+03  0.65864270000E+03 0. -1.
    8880022    1    1    2    0    0  0.15138779887E+03 -0.89044394951E+02 -0.98355658854E+02  0.25280953021E+03  0.15294330000E+03 0.  0.
<mgrwt>
<rscale>  0 0.52115102E+03</rscale>
<asrwt>0</asrwt>
<pdfrwt beam="1">  1        1 0.10402415E+00 0.68165781E+03</pdfrwt>
<pdfrwt beam="2">  1       -1 0.56851646E-01 0.68165781E+03</pdfrwt>
<totfact> 0.92106399E+01</totfact>
</mgrwt>
</event>
<event>
 4    2  0.3179755E-007  0.7500430E+03  0.7818608E-02  0.9831603E-01
          1   -1    0    0  501    0  0.00000000000E+00  0.00000000000E+00  0.26655537157E+04  0.26655537157E+04  0.50400000000E-02 0. -1.
         -1   -1    0    0    0  501 -0.00000000000E+00 -0.00000000000E+00 -0.51816657542E+03  0.51816657544E+03  0.50400000000E-02 0.  1.
    8880023    1    1    2    0    0 -0.34557571692E+03  0.96600576205E+02  0.25290930869E+04  0.26379682136E+04  0.65864270000E+03 0. -1.
    8880022    1    1    2    0    0  0.34557571692E+03 -0.96600576205E+02 -0.38170594662E+03  0.54575207755E+03  0.15294330000E+03 0.  0.
<mgrwt>
<rscale>  0 0.63693797E+03</rscale>
<asrwt>0</asrwt>
<pdfrwt beam="1">  1        1 0.41008519E+00 0.75004297E+03</pdfrwt>
<pdfrwt beam="2">  1       -1 0.79717933E-01 0.75004297E+03</pdfrwt>
<totfact> 0.17424455E+00</totfact>
</mgrwt>
</event>
<event>
 4    2  0.3179755E-007  0.7440477E+03  0.7818608E-02  0.9848309E-01
          1   -1    0    0  501    0  0.00000000000E+00  0.00000000000E+00  0.23201415891E+04  0.23201415891E+04  0.50400000000E-02 0. -1.
         -1   -1    0    0    0  501 -0.00000000000E+00 -0.00000000000E+00 -0.57240045441E+03  0.57240045444E+03  0.50400000000E-02 0.  1.
    8880023    1    1    2    0    0  0.26693546366E+03 -0.22032302809E+03  0.21885636596E+04  0.23115834133E+04  0.65864270000E+03 0. -1.
    8880022    1    1    2    0    0 -0.26693546366E+03  0.22032302809E+03 -0.44082252494E+03  0.58095863017E+03  0.15294330000E+03 0.  0.
<mgrwt>
<rscale>  0 0.62833185E+03</rscale>
<asrwt>0</asrwt>
<pdfrwt beam="1">  1        1 0.35694487E+00 0.74404770E+03</pdfrwt>
<pdfrwt beam="2">  1       -1 0.88061606E-01 0.74404770E+03</pdfrwt>
<totfact> 0.24235428E+00</totfact>
</mgrwt>
</event>
<event>
 4    2  0.3179755E-007  0.7556716E+03  0.7818608E-02  0.9816445E-01
         -1   -1    0    0    0  501 -0.00000000000E+00  0.00000000000E+00  0.37962439572E+03  0.37962439575E+03  0.50400000000E-02 0.  1.
          1   -1    0    0  501    0  0.00000000000E+00 -0.00000000000E+00 -0.99562429958E+03  0.99562429959E+03  0.50400000000E-02 0. -1.
    8880023    1    1    2    0    0  0.36806647984E+03  0.41910025737E+02 -0.61526988903E+03  0.97447248625E+03  0.65864270000E+03 0. -1.
    8880022    1    1    2    0    0 -0.36806647984E+03 -0.41910025737E+02 -0.73001482185E+00  0.40077620909E+03  0.15294330000E+03 0.  0.
<mgrwt>
<rscale>  0 0.64487440E+03</rscale>
<asrwt>0</asrwt>
<pdfrwt beam="1">  1        1 0.15317297E+00 0.75567162E+03</pdfrwt>
<pdfrwt beam="2">  1       -1 0.58403754E-01 0.75567162E+03</pdfrwt>
<totfact> 0.46390908E+01</totfact>
</mgrwt>
</event>
<event>
 4    2  0.3179755E-007  0.7462240E+03  0.7818608E-02  0.9842174E-01
         -1   -1    0    0    0  501 -0.00000000000E+00  0.00000000000E+00  0.62098040717E+03  0.62098040719E+03  0.50400000000E-02 0.  1.
          1   -1    0    0  501    0  0.00000000000E+00 -0.00000000000E+00 -0.82001019581E+03  0.82001019583E+03  0.50400000000E-02 0. -1.
    8880023    1    1    2    0    0 -0.30742284741E+03 -0.16891200121E+03 -0.54584189865E+03  0.92455051557E+03  0.65864270000E+03 0. -1.
    8880022    1    1    2    0    0  0.30742284741E+03  0.16891200121E+03  0.34681211001E+03  0.51644008745E+03  0.15294330000E+03 0.  0.
<mgrwt>
<rscale>  0 0.63147522E+03</rscale>
<asrwt>0</asrwt>
<pdfrwt beam="1">  1        1 0.12615542E+00 0.74622401E+03</pdfrwt>
<pdfrwt beam="2">  1       -1 0.95535447E-01 0.74622401E+03</pdfrwt>
<totfact> 0.23075901E+01</totfact>
</mgrwt>
</event>
<event>
 4    2  0.3179755E-007  0.1013232E+04  0.7818608E-02  0.9364447E-01
         -1   -1    0    0    0  501 -0.00000000000E+00  0.00000000000E+00  0.51566132992E+03  0.51566132995E+03  0.50400000000E-02 0.  1.
          1   -1    0    0  501    0  0.00000000000E+00 -0.00000000000E+00 -0.16555628275E+04  0.16555628276E+04  0.50400000000E-02 0. -1.
    8880023    1    1    2    0    0  0.76739511957E+03  0.62720875088E+02 -0.88661726346E+03  0.13463764540E+04  0.65864270000E+03 0. -1.
    8880022    1    1    2    0    0 -0.76739511957E+03 -0.62720875088E+02 -0.25328423416E+03  0.82484770352E+03  0.15294330000E+03 0.  0.
<mgrwt>
<rscale>  0 0.95060210E+03</rscale>
<asrwt>0</asrwt>
<pdfrwt beam="1">  1        1 0.25470197E+00 0.10132321E+04</pdfrwt>
<pdfrwt beam="2">  1       -1 0.79332513E-01 0.10132321E+04</pdfrwt>
<totfact> 0.81637792E+00</totfact>
</mgrwt>
</event>
<event>
 4    2  0.3179755E-007  0.6806254E+03  0.7818608E-02  0.1008972E+00
          1   -1    0    0  501    0  0.00000000000E+00  0.00000000000E+00  0.57042498435E+03  0.57042498437E+03  0.50400000000E-02 0. -1.
         -1   -1    0    0    0  501 -0.00000000000E+00 -0.00000000000E+00 -0.83047995748E+03  0.83047995749E+03  0.50400000000E-02 0.  1.
    8880023    1    1    2    0    0 -0.69001168369E+02 -0.15709739409E+03  0.33819561962E+03  0.76001791812E+03  0.65864270000E+03 0. -1.
    8880022    1    1    2    0    0  0.69001168369E+02  0.15709739409E+03 -0.59825059275E+03  0.64088702375E+03  0.15294330000E+03 0.  0.
<mgrwt>
<rscale>  0 0.51885221E+03</rscale>
<asrwt>0</asrwt>
<pdfrwt beam="1">  1        1 0.87757689E-01 0.68062542E+03</pdfrwt>
<pdfrwt beam="2">  1       -1 0.12776615E+00 0.68062542E+03</pdfrwt>
<totfact> 0.20185397E+01</totfact>
</mgrwt>
</event>
<event>
 4    2  0.3179755E-007  0.6681347E+03  0.7818608E-02  0.1017037E+00
         -1   -1    0    0    0  501 -0.00000000000E+00  0.00000000000E+00  0.53783703610E+03  0.53783703613E+03  0.50400000000E-02 0.  1.
          1   -1    0    0  501    0  0.00000000000E+00 -0.00000000000E+00 -0.78234622046E+03  0.78234622047E+03  0.50400000000E-02 0. -1.
    8880023    1    1    2    0    0  0.11072949166E+03 -0.18240009927E+02 -0.61235663649E+03  0.90630269491E+03  0.65864270000E+03 0.  0.
    8880022    1    1    2    0    0 -0.11072949166E+03  0.18240009927E+02  0.36784745214E+03  0.41388056169E+03  0.15294330000E+03 0.  1.
<mgrwt>
<rscale>  0 0.48771235E+03</rscale>
<asrwt>0</asrwt>
<pdfrwt beam="1">  1        1 0.12036096E+00 0.66813466E+03</pdfrwt>
<pdfrwt beam="2">  1       -1 0.82744159E-01 0.66813466E+03</pdfrwt>
<totfact> 0.34376358E+01</totfact>
</mgrwt>
</event>
<event>
 4    2  0.3179755E-007  0.6699739E+03  0.7818608E-02  0.1015682E+00
          1   -1    0    0  501    0  0.00000000000E+00  0.00000000000E+00  0.54503123992E+03  0.54503123994E+03  0.50400000000E-02 0. -1.
         -1   -1    0    0    0  501 -0.00000000000E+00 -0.00000000000E+00 -0.46483093762E+03  0.46483093765E+03  0.50400000000E-02 0.  1.
    8880023    1    1    2    0    0 -0.10746158821E+03 -0.59218265177E+02  0.28343386117E+03  0.72746117133E+03  0.65864270000E+03 0. -1.
    8880022    1    1    2    0    0  0.10746158821E+03  0.59218265177E+02 -0.20323355888E+03  0.28240100626E+03  0.15294330000E+03 0.  0.
<mgrwt>
<rscale>  0 0.49277700E+03</rscale>
<asrwt>0</asrwt>
<pdfrwt beam="1">  1        1 0.83850959E-01 0.66997388E+03</pdfrwt>
<pdfrwt beam="2">  1       -1 0.71512453E-01 0.66997388E+03</pdfrwt>
<totfact> 0.79556145E+01</totfact>
</mgrwt>
</event>
<event>
 4    2  0.3179755E-007  0.8804152E+03  0.7818608E-02  0.9558232E-01
         -1   -1    0    0    0  501 -0.00000000000E+00  0.00000000000E+00  0.11941653352E+04  0.11941653352E+04  0.50400000000E-02 0.  1.
          1   -1    0    0  501    0  0.00000000000E+00 -0.00000000000E+00 -0.58023331507E+03  0.58023331509E+03  0.50400000000E-02 0. -1.
    8880023    1    1    2    0    0  0.14648866743E+03 -0.56556322801E+03 -0.43755173866E+02  0.88150179584E+03  0.65864270000E+03 0. -1.
    8880022    1    1    2    0    0 -0.14648866743E+03  0.56556322801E+03  0.65768719399E+03  0.89289685447E+03  0.15294330000E+03 0.  0.
<mgrwt>
<rscale>  0 0.80123415E+03</rscale>
<asrwt>0</asrwt>
<pdfrwt beam="1">  1        1 0.89266663E-01 0.88041519E+03</pdfrwt>
<pdfrwt beam="2">  1       -1 0.18371774E+00 0.88041519E+03</pdfrwt>
<totfact> 0.71511719E+00</totfact>
</mgrwt>
</event>
<event>
 4    2  0.3179755E-007  0.1328512E+04  0.7818608E-02  0.9041321E-01
         -1   -1    0    0    0  501 -0.00000000000E+00  0.00000000000E+00  0.12461409877E+04  0.12461409877E+04  0.50400000000E-02 0.  1.
          1   -1    0    0  501    0  0.00000000000E+00 -0.00000000000E+00 -0.22615829466E+04  0.22615829467E+04  0.50400000000E-02 0. -1.
    8880023    1    1    2    0    0 -0.51308349508E+03 -0.10333822215E+04 -0.16999639114E+04  0.21575034171E+04  0.65864270000E+03 0. -1.
    8880022    1    1    2    0    0  0.51308349508E+03  0.10333822215E+04  0.68452195243E+03  0.13502205172E+04  0.15294330000E+03 0.  0.
<mgrwt>
<rscale>  0 0.12852791E+04</rscale>
<asrwt>0</asrwt>
<pdfrwt beam="1">  1        1 0.34793584E+00 0.13285118E+04</pdfrwt>
<pdfrwt beam="2">  1       -1 0.19171400E+00 0.13285118E+04</pdfrwt>
<totfact> 0.32834124E-01</totfact>
</mgrwt>
</event>
<event>
 4    2  0.3179755E-007  0.8604880E+03  0.7818608E-02  0.9592696E-01
          1   -1    0    0  501    0  0.00000000000E+00  0.00000000000E+00  0.11636089399E+04  0.11636089399E+04  0.50400000000E-02 0. -1.
         -1   -1    0    0    0  501 -0.00000000000E+00 -0.00000000000E+00 -0.55591031723E+03  0.55591031725E+03  0.50400000000E-02 0.  1.
    8880023    1    1    2    0    0 -0.31371214735E+03  0.45630485824E+03  0.73435776659E+03  0.11312475285E+04  0.65864270000E+03 0. -1.
    8880022    1    1    2    0    0  0.31371214735E+03 -0.45630485824E+03 -0.12665914390E+03  0.58827172871E+03  0.15294330000E+03 0.  0.
<mgrwt>
<rscale>  0 0.77781504E+03</rscale>
<asrwt>0</asrwt>
<pdfrwt beam="1">  1        1 0.17901676E+00 0.86048803E+03</pdfrwt>
<pdfrwt beam="2">  1       -1 0.85524665E-01 0.86048803E+03</pdfrwt>
<totfact> 0.15632432E+01</totfact>
</mgrwt>
</event>
<event>
 4    2  0.3179755E-007  0.8323020E+03  0.7818608E-02  0.9644870E-01
          1   -1    0    0  501    0  0.00000000000E+00  0.00000000000E+00  0.16901895662E+04  0.16901895662E+04  0.50400000000E-02 0. -1.
         -1   -1    0    0    0  501 -0.00000000000E+00 -0.00000000000E+00 -0.73577442252E+03  0.73577442253E+03  0.50400000000E-02 0.  1.
    8880023    1    1    2    0    0  0.41502046205E+03 -0.29440525954E+03  0.14676583856E+04  0.16872308034E+04  0.65864270000E+03 0. -1.
    8880022    1    1    2    0    0 -0.41502046205E+03  0.29440525954E+03 -0.51324324192E+03  0.73873318536E+03  0.15294330000E+03 0.  0.
<mgrwt>
<rscale>  0 0.74396264E+03</rscale>
<asrwt>0</asrwt>
<pdfrwt beam="1">  1        1 0.26002916E+00 0.83230202E+03</pdfrwt>
<pdfrwt beam="2">  1       -1 0.11319607E+00 0.83230202E+03</pdfrwt>
<totfact> 0.35610096E+00</totfact>
</mgrwt>
</event>
<event>
 4    2  0.3179755E-007  0.6819068E+03  0.7818608E-02  0.1008265E+00
          1   -1    0    0  501    0  0.00000000000E+00  0.00000000000E+00  0.14619312114E+04  0.14619312114E+04  0.50400000000E-02 0. -1.
         -1   -1    0    0    0  501 -0.00000000000E+00 -0.00000000000E+00 -0.30774971297E+03  0.30774971301E+03  0.50400000000E-02 0.  1.
    8880023    1    1    2    0    0  0.12288393032E+03  0.12683166341E+03  0.13182690306E+04  0.14841934424E+04  0.65864270000E+03 0. -1.
    8880022    1    1    2    0    0 -0.12288393032E+03 -0.12683166341E+03 -0.16408753215E+03  0.28548748203E+03  0.15294330000E+03 0.  0.
<mgrwt>
<rscale>  0 0.52170064E+03</rscale>
<asrwt>0</asrwt>
<pdfrwt beam="1">  1        1 0.22491250E+00 0.68190684E+03</pdfrwt>
<pdfrwt beam="2">  1       -1 0.47346109E-01 0.68190684E+03</pdfrwt>
<totfact> 0.32185350E+01</totfact>
</mgrwt>
</event>
<event>
 4    2  0.3179755E-007  0.6795211E+03  0.7818608E-02  0.1009596E+00
          1   -1    0    0  501    0  0.00000000000E+00  0.00000000000E+00  0.10515893647E+04  0.10515893647E+04  0.50400000000E-02 0. -1.
         -1   -1    0    0    0  501 -0.00000000000E+00 -0.00000000000E+00 -0.37591150571E+03  0.37591150574E+03  0.50400000000E-02 0.  1.
    8880023    1    1    2    0    0 -0.46210941983E+02  0.16063406238E+03  0.88721098894E+03  0.11175384997E+04  0.65864270000E+03 0.  0.
    8880022    1    1    2    0    0  0.46210941983E+02 -0.16063406238E+03 -0.21153312999E+03  0.30996237071E+03  0.15294330000E+03 0.  0.
<mgrwt>
<rscale>  0 0.51635580E+03</rscale>
<asrwt>0</asrwt>
<pdfrwt beam="1">  1        1 0.16178298E+00 0.67952113E+03</pdfrwt>
<pdfrwt beam="2">  1       -1 0.57832540E-01 0.67952113E+03</pdfrwt>
<totfact> 0.43188866E+01</totfact>
</mgrwt>
</event>
<event>
 4    2  0.3179755E-007  0.9803728E+03  0.7818608E-02  0.9407699E-01
         -1   -1    0    0    0  501 -0.00000000000E+00  0.00000000000E+00  0.53830027059E+03  0.53830027062E+03  0.50400000000E-02 0.  1.
          1   -1    0    0  501    0  0.00000000000E+00 -0.00000000000E+00 -0.15091269798E+04  0.15091269798E+04  0.50400000000E-02 0. -1.
    8880023    1    1    2    0    0 -0.42885528280E+03  0.58600662982E+03 -0.24750542589E+03  0.10111329121E+04  0.65864270000E+03 0.  1.
    8880022    1    1    2    0    0  0.42885528280E+03 -0.58600662982E+03 -0.72332128332E+03  0.10362943384E+04  0.15294330000E+03 0.  0.
<mgrwt>
<rscale>  0 0.91444804E+03</rscale>
<asrwt>0</asrwt>
<pdfrwt beam="1">  1        1 0.23217338E+00 0.98037280E+03</pdfrwt>
<pdfrwt beam="2">  1       -1 0.82815427E-01 0.98037280E+03</pdfrwt>
<totfact> 0.94138093E+00</totfact>
</mgrwt>
</event>
<event>
 4    2  0.3179755E-007  0.1471028E+04  0.7818608E-02  0.8930370E-01
          1   -1    0    0  501    0  0.00000000000E+00  0.00000000000E+00  0.63191333616E+03  0.63191333618E+03  0.50400000000E-02 0. -1.
         -1   -1    0    0    0  501 -0.00000000000E+00 -0.00000000000E+00 -0.42175555181E+04  0.42175555181E+04  0.50400000000E-02 0.  1.
    8880023    1    1    2    0    0 -0.12374479248E+04  0.44590855274E+03 -0.31136758182E+04  0.34436752331E+04  0.65864270000E+03 0.  0.
    8880022    1    1    2    0    0  0.12374479248E+04 -0.44590855274E+03 -0.47196636379E+03  0.14057936212E+04  0.15294330000E+03 0.  0.
<mgrwt>
<rscale>  0 0.14328606E+04</rscale>
<asrwt>0</asrwt>
<pdfrwt beam="1">  1        1 0.97217439E-01 0.14710275E+04</pdfrwt>
<pdfrwt beam="2">  1       -1 0.64885468E+00 0.14710275E+04</pdfrwt>
<totfact> 0.87369033E-03</totfact>
</mgrwt>
</event>
<event>
 4    2  0.3179755E-007  0.7062118E+03  0.7818608E-02  0.9972347E-01
         -1   -1    0    0    0  501 -0.00000000000E+00  0.00000000000E+00  0.73772755800E+03  0.73772755801E+03  0.50400000000E-02 0.  1.
          1   -1    0    0  501    0  0.00000000000E+00 -0.00000000000E+00 -0.18349728844E+04  0.18349728844E+04  0.50400000000E-02 0. -1.
    8880023    1    1    2    0    0 -0.16077641638E+03 -0.19767607896E+03 -0.17327527383E+04  0.18711406005E+04  0.65864270000E+03 0. -1.
    8880022    1    1    2    0    0  0.16077641638E+03  0.19767607896E+03  0.63550741191E+03  0.70155984197E+03  0.15294330000E+03 0.  0.
<mgrwt>
<rscale>  0 0.56879593E+03</rscale>
<asrwt>0</asrwt>
<pdfrwt beam="1">  1        1 0.28230352E+00 0.70621179E+03</pdfrwt>
<pdfrwt beam="2">  1       -1 0.11349655E+00 0.70621179E+03</pdfrwt>
<totfact> 0.28928335E+00</totfact>
</mgrwt>
</event>
<event>
 4    2  0.3179755E-007  0.6833236E+03  0.7818608E-02  0.1007503E+00
          1   -1    0    0  501    0  0.00000000000E+00  0.00000000000E+00  0.77553559988E+03  0.77553559990E+03  0.50400000000E-02 0. -1.
         -1   -1    0    0    0  501 -0.00000000000E+00 -0.00000000000E+00 -0.54487809958E+03  0.54487809960E+03  0.50400000000E-02 0.  1.
    8880023    1    1    2    0    0  0.10292298510E+03 -0.15009264337E+03  0.58106552297E+03  0.89697730780E+03  0.65864270000E+03 0.  0.
    8880022    1    1    2    0    0 -0.10292298510E+03  0.15009264337E+03 -0.35040802267E+03  0.42343639171E+03  0.15294330000E+03 0.  1.
<mgrwt>
<rscale>  0 0.52479293E+03</rscale>
<asrwt>0</asrwt>
<pdfrwt beam="1">  1        1 0.11931317E+00 0.68332360E+03</pdfrwt>
<pdfrwt beam="2">  1       -1 0.83827401E-01 0.68332360E+03</pdfrwt>
<totfact> 0.33835646E+01</totfact>
</mgrwt>
</event>
<event>
 4    2  0.3179755E-007  0.9441969E+03  0.7818608E-02  0.9458513E-01
          1   -1    0    0  501    0  0.00000000000E+00  0.00000000000E+00  0.13080289856E+04  0.13080289856E+04  0.50400000000E-02 0. -1.
         -1   -1    0    0    0  501 -0.00000000000E+00 -0.00000000000E+00 -0.83558307781E+03  0.83558307782E+03  0.50400000000E-02 0.  1.
    8880023    1    1    2    0    0 -0.42304028292E+03 -0.52795304428E+03  0.91987820028E+03  0.13182122771E+04  0.65864270000E+03 0.  0.
    8880022    1    1    2    0    0  0.42304028292E+03  0.52795304428E+03 -0.44743229246E+03  0.82539978634E+03  0.15294330000E+03 0.  0.
<mgrwt>
<rscale>  0 0.87412815E+03</rscale>
<asrwt>0</asrwt>
<pdfrwt beam="1">  1        1 0.20123523E+00 0.94419686E+03</pdfrwt>
<pdfrwt beam="2">  1       -1 0.12855124E+00 0.94419686E+03</pdfrwt>
<totfact> 0.47080128E+00</totfact>
</mgrwt>
</event>
<event>
 4    2  0.3179755E-007  0.1123250E+04  0.7818608E-02  0.9235601E-01
         -1   -1    0    0    0  501 -0.00000000000E+00  0.00000000000E+00  0.50621514141E+03  0.50621514144E+03  0.50400000000E-02 0.  1.
          1   -1    0    0  501    0  0.00000000000E+00 -0.00000000000E+00 -0.28496211300E+04  0.28496211300E+04  0.50400000000E-02 0. -1.
    8880023    1    1    2    0    0 -0.63145551768E+03  0.65509153075E+03 -0.37886664226E+03  0.11854244486E+04  0.65864270000E+03 0.  0.
    8880022    1    1    2    0    0  0.63145551768E+03 -0.65509153075E+03 -0.19645393464E+04  0.21704118229E+04  0.15294330000E+03 0.  0.
<mgrwt>
<rscale>  0 0.10693404E+04</rscale>
<asrwt>0</asrwt>
<pdfrwt beam="1">  1        1 0.43840324E+00 0.11232503E+04</pdfrwt>
<pdfrwt beam="2">  1       -1 0.77879254E-01 0.11232503E+04</pdfrwt>
<totfact> 0.12766569E+00</totfact>
</mgrwt>
</event>
<event>
 4    2  0.3179755E-007  0.7244470E+03  0.7818608E-02  0.9907816E-01
         -1   -1    0    0    0  501 -0.00000000000E+00  0.00000000000E+00  0.28432360809E+04  0.28432360809E+04  0.50400000000E-02 0.  1.
          1   -1    0    0  501    0  0.00000000000E+00 -0.00000000000E+00 -0.79038500985E+03  0.79038500987E+03  0.50400000000E-02 0. -1.
    8880023    1    1    2    0    0 -0.25053824818E+03 -0.16805920917E+03 -0.61141384070E+03  0.94797173083E+03  0.65864270000E+03 0.  0.
    8880022    1    1    2    0    0  0.25053824818E+03  0.16805920917E+03  0.26642649117E+04  0.26856493599E+04  0.15294330000E+03 0.  1.
<mgrwt>
<rscale>  0 0.59883971E+03</rscale>
<asrwt>0</asrwt>
<pdfrwt beam="1">  1        1 0.12159769E+00 0.72444704E+03</pdfrwt>
<pdfrwt beam="2">  1       -1 0.43742094E+00 0.72444704E+03</pdfrwt>
<totfact> 0.97005061E-02</totfact>
</mgrwt>
</event>
<event>
 4    2  0.3179755E-007  0.8288957E+03  0.7818608E-02  0.9651485E-01
         -1   -1    0    0    0  501 -0.00000000000E+00  0.00000000000E+00  0.17162814653E+03  0.17162814661E+03  0.50400000000E-02 0.  1.
          1   -1    0    0  501    0  0.00000000000E+00 -0.00000000000E+00 -0.36124698383E+04  0.36124698383E+04  0.50400000000E-02 0. -1.
    8880023    1    1    2    0    0 -0.26803164439E+02  0.50253312519E+03 -0.29515328312E+04  0.30657159378E+04  0.65864270000E+03 0. -1.
    8880022    1    1    2    0    0  0.26803164439E+02 -0.50253312519E+03 -0.48930886061E+03  0.71838204712E+03  0.15294330000E+03 0.  0.
<mgrwt>
<rscale>  0 0.73980317E+03</rscale>
<asrwt>0</asrwt>
<pdfrwt beam="1">  1        1 0.55576454E+00 0.82889575E+03</pdfrwt>
<pdfrwt beam="2">  1       -1 0.26404333E-01 0.82889575E+03</pdfrwt>
<totfact> 0.27709074E+00</totfact>
</mgrwt>
</event>
<event>
 4    2  0.3179755E-007  0.9246256E+03  0.7818608E-02  0.9487603E-01
         -1   -1    0    0    0  501 -0.00000000000E+00  0.00000000000E+00  0.40306244073E+03  0.40306244076E+03  0.50400000000E-02 0.  1.
          1   -1    0    0  501    0  0.00000000000E+00 -0.00000000000E+00 -0.15719223035E+04  0.15719223035E+04  0.50400000000E-02 0. -1.
    8880023    1    1    2    0    0  0.51658729080E+03  0.39275920426E+03 -0.65201224319E+03  0.11313940044E+04  0.65864270000E+03 0. -1.
    8880022    1    1    2    0    0 -0.51658729080E+03 -0.39275920426E+03 -0.51684761954E+03  0.84359073987E+03  0.15294330000E+03 0.  1.
<mgrwt>
<rscale>  0 0.85204020E+03</rscale>
<asrwt>0</asrwt>
<pdfrwt beam="1">  1        1 0.24183420E+00 0.92462556E+03</pdfrwt>
<pdfrwt beam="2">  1       -1 0.62009607E-01 0.92462556E+03</pdfrwt>
<totfact> 0.15613941E+01</totfact>
</mgrwt>
</event>
<event>
 4    2  0.3179755E-007  0.8717272E+03  0.7818608E-02  0.9573034E-01
          1   -1    0    0  501    0  0.00000000000E+00  0.00000000000E+00  0.23500361798E+04  0.23500361798E+04  0.50400000000E-02 0. -1.
         -1   -1    0    0    0  501 -0.00000000000E+00 -0.00000000000E+00 -0.25888832738E+03  0.25888832743E+03  0.50400000000E-02 0.  1.
    8880023    1    1    2    0    0 -0.48220723242E+03 -0.30589920347E+03  0.16675358775E+04  0.18816440276E+04  0.65864270000E+03 0. -1.
    8880022    1    1    2    0    0  0.48220723242E+03  0.30589920347E+03  0.42361197485E+03  0.72728047955E+03  0.15294330000E+03 0.  1.
<mgrwt>
<rscale>  0 0.79106973E+03</rscale>
<asrwt>0</asrwt>
<pdfrwt beam="1">  1        1 0.36154403E+00 0.87172722E+03</pdfrwt>
<pdfrwt beam="2">  1       -1 0.39828973E-01 0.87172722E+03</pdfrwt>
<totfact> 0.10891719E+01</totfact>
</mgrwt>
</event>
<event>
 4    2  0.3179755E-007  0.7366522E+03  0.7818608E-02  0.9869808E-01
         -1   -1    0    0    0  501 -0.00000000000E+00  0.00000000000E+00  0.20591413788E+03  0.20591413794E+03  0.50400000000E-02 0.  1.
          1   -1    0    0  501    0  0.00000000000E+00 -0.00000000000E+00 -0.18467343209E+04  0.18467343209E+04  0.50400000000E-02 0. -1.
    8880023    1    1    2    0    0  0.24990868885E+03  0.21538774142E+03 -0.14837046015E+04  0.16565131399E+04  0.65864270000E+03 0.  0.
    8880022    1    1    2    0    0 -0.24990868885E+03 -0.21538774142E+03 -0.15711558148E+03  0.39613531889E+03  0.15294330000E+03 0.  0.
<mgrwt>
<rscale>  0 0.61747069E+03</rscale>
<asrwt>0</asrwt>
<pdfrwt beam="1">  1        1 0.28411296E+00 0.73665218E+03</pdfrwt>
<pdfrwt beam="2">  1       -1 0.31679099E-01 0.73665218E+03</pdfrwt>
<totfact> 0.36355860E+01</totfact>
</mgrwt>
</event>
<event>
 4    2  0.3179755E-007  0.8617871E+03  0.7818608E-02  0.9590392E-01
         -1   -1    0    0    0  501 -0.00000000000E+00  0.00000000000E+00  0.55552852579E+03  0.55552852582E+03  0.50400000000E-02 0.  1.
          1   -1    0    0  501    0  0.00000000000E+00 -0.00000000000E+00 -0.10886311933E+04  0.10886311933E+04  0.50400000000E-02 0. -1.
    8880023    1    1    2    0    0  0.35533494447E+03  0.42732166618E+03 -0.61943896606E+03  0.10613112494E+04  0.65864270000E+03 0. -1.
    8880022    1    1    2    0    0 -0.35533494447E+03 -0.42732166618E+03  0.86336298598E+02  0.58284846969E+03  0.15294330000E+03 0.  0.
<mgrwt>
<rscale>  0 0.77935346E+03</rscale>
<asrwt>0</asrwt>
<pdfrwt beam="1">  1        1 0.16748172E+00 0.86178706E+03</pdfrwt>
<pdfrwt beam="2">  1       -1 0.85465927E-01 0.86178706E+03</pdfrwt>
<totfact> 0.17795812E+01</totfact>
</mgrwt>
</event>
<event>
 4    2  0.3179755E-007  0.8814408E+03  0.7818608E-02  0.9556507E-01
         -1   -1    0    0    0  501 -0.00000000000E+00  0.00000000000E+00  0.14714873076E+04  0.14714873076E+04  0.50400000000E-02 0.  1.
          1   -1    0    0  501    0  0.00000000000E+00 -0.00000000000E+00 -0.47332046193E+03  0.47332046196E+03  0.50400000000E-02 0. -1.
    8880023    1    1    2    0    0 -0.35875728659E+03  0.46305599710E+03  0.13683850055E+03  0.89199923130E+03  0.65864270000E+03 0.  0.
    8880022    1    1    2    0    0  0.35875728659E+03 -0.46305599710E+03  0.86132834515E+03  0.10528085383E+04  0.15294330000E+03 0.  0.
<mgrwt>
<rscale>  0 0.80242964E+03</rscale>
<asrwt>0</asrwt>
<pdfrwt beam="1">  1        1 0.72818533E-01 0.88144078E+03</pdfrwt>
<pdfrwt beam="2">  1       -1 0.22638266E+00 0.88144078E+03</pdfrwt>
<totfact> 0.48635773E+00</totfact>
</mgrwt>
</event>
<event>
 4    2  0.3179755E-007  0.6958723E+03  0.7818608E-02  0.1001478E+00
         -1   -1    0    0    0  501 -0.00000000000E+00  0.00000000000E+00  0.50538158005E+03  0.50538158007E+03  0.50400000000E-02 0.  1.
          1   -1    0    0  501    0  0.00000000000E+00 -0.00000000000E+00 -0.10860099345E+04  0.10860099345E+04  0.50400000000E-02 0. -1.
    8880023    1    1    2    0    0  0.22447110770E+03 -0.63873124234E+01 -0.92197891903E+03  0.11551118601E+04  0.65864270000E+03 0. -1.
    8880022    1    1    2    0    0 -0.22447110770E+03  0.63873124234E+01  0.34135056459E+03  0.43627965447E+03  0.15294330000E+03 0.  0.
<mgrwt>
<rscale>  0 0.55007097E+03</rscale>
<asrwt>0</asrwt>
<pdfrwt beam="1">  1        1 0.16707845E+00 0.69587232E+03</pdfrwt>
<pdfrwt beam="2">  1       -1 0.77751013E-01 0.69587232E+03</pdfrwt>
<totfact> 0.22314711E+01</totfact>
</mgrwt>
</event>
<event>
 4    2  0.3179755E-007  0.7255913E+03  0.7818608E-02  0.9904102E-01
         -1   -1    0    0    0  501 -0.00000000000E+00  0.00000000000E+00  0.20920762590E+04  0.20920762590E+04  0.50400000000E-02 0.  1.
          1   -1    0    0  501    0  0.00000000000E+00 -0.00000000000E+00 -0.21862721040E+03  0.21862721046E+03  0.50400000000E-02 0. -1.
    8880023    1    1    2    0    0 -0.17842497492E+03  0.24665182646E+03  0.46538807023E+03  0.86201441830E+03  0.65864270000E+03 0. -1.
    8880022    1    1    2    0    0  0.17842497492E+03 -0.24665182646E+03  0.14080609784E+04  0.14486890512E+04  0.15294330000E+03 0.  0.
<mgrwt>
<rscale>  0 0.60062911E+03</rscale>
<asrwt>0</asrwt>
<pdfrwt beam="1">  1        1 0.33634956E-01 0.72559135E+03</pdfrwt>
<pdfrwt beam="2">  1       -1 0.32185788E+00 0.72559135E+03</pdfrwt>
<totfact> 0.33234082E+00</totfact>
</mgrwt>
</event>
<event>
 4    2  0.3179755E-007  0.6616489E+03  0.7818608E-02  0.1022527E+00
          1   -1    0    0  501    0  0.00000000000E+00  0.00000000000E+00  0.22456295840E+04  0.22456295840E+04  0.50400000000E-02 0. -1.
         -1   -1    0    0    0  501 -0.00000000000E+00 -0.00000000000E+00 -0.20463996386E+03  0.20463996392E+03  0.50400000000E-02 0.  1.
    8880023    1    1    2    0    0 -0.66054996413E+01  0.62653575680E+02  0.21517639270E+04  0.22511924189E+04  0.65864270000E+03 0. -1.
    8880022    1    1    2    0    0  0.66054996413E+01 -0.62653575680E+02 -0.11077430694E+03  0.19907712893E+03  0.15294330000E+03 0.  0.
<mgrwt>
<rscale>  0 0.46785548E+03</rscale>
<asrwt>0</asrwt>
<pdfrwt beam="1">  1        1 0.34548145E+00 0.66164893E+03</pdfrwt>
<pdfrwt beam="2">  1       -1 0.31483073E-01 0.66164893E+03</pdfrwt>
<totfact> 0.20111331E+01</totfact>
</mgrwt>
</event>
<event>
 4    2  0.3179755E-007  0.6860936E+03  0.7818608E-02  0.1006067E+00
         -1   -1    0    0    0  501 -0.00000000000E+00  0.00000000000E+00  0.11403231676E+04  0.11403231676E+04  0.50400000000E-02 0.  1.
          1   -1    0    0  501    0  0.00000000000E+00 -0.00000000000E+00 -0.23347391929E+03  0.23347391934E+03  0.50400000000E-02 0. -1.
    8880023    1    1    2    0    0  0.25762426829E+01  0.19211349465E+03  0.36104502298E+03  0.77529216863E+03  0.65864270000E+03 0. -1.
    8880022    1    1    2    0    0 -0.25762426829E+01 -0.19211349465E+03  0.54580422532E+03  0.59850491831E+03  0.15294330000E+03 0.  0.
<mgrwt>
<rscale>  0 0.53067972E+03</rscale>
<asrwt>0</asrwt>
<pdfrwt beam="1">  1        1 0.35919065E-01 0.68609361E+03</pdfrwt>
<pdfrwt beam="2">  1       -1 0.17543433E+00 0.68609361E+03</pdfrwt>
<totfact> 0.28109920E+01</totfact>
</mgrwt>
</event>
<event>
 4    2  0.3179755E-007  0.6614911E+03  0.7818608E-02  0.1022678E+00
          1   -1    0    0  501    0  0.00000000000E+00  0.00000000000E+00  0.69822104906E+03  0.69822104908E+03  0.50400000000E-02 0. -1.
         -1   -1    0    0    0  501 -0.00000000000E+00 -0.00000000000E+00 -0.42167191796E+03  0.42167191799E+03  0.50400000000E-02 0.  1.
    8880023    1    1    2    0    0 -0.58300870821E+02  0.19006131126E+02  0.50921473291E+03  0.83478744303E+03  0.65864270000E+03 0. -1.
    8880022    1    1    2    0    0  0.58300870821E+02 -0.19006131126E+02 -0.23266560181E+03  0.28510552404E+03  0.15294330000E+03 0.  0.
<mgrwt>
<rscale>  0 0.46732388E+03</rscale>
<asrwt>0</asrwt>
<pdfrwt beam="1">  1        1 0.10741862E+00 0.66149107E+03</pdfrwt>
<pdfrwt beam="2">  1       -1 0.64872603E-01 0.66149107E+03</pdfrwt>
<totfact> 0.67780057E+01</totfact>
</mgrwt>
</event>
<event>
 4    2  0.3179755E-007  0.1015960E+04  0.7818608E-02  0.9360969E-01
          1   -1    0    0  501    0  0.00000000000E+00  0.00000000000E+00  0.18349824707E+04  0.18349824707E+04  0.50400000000E-02 0. -1.
         -1   -1    0    0    0  501 -0.00000000000E+00 -0.00000000000E+00 -0.86071040101E+03  0.86071040102E+03  0.50400000000E-02 0.  1.
    8880023    1    1    2    0    0  0.73553263548E+03 -0.23949048421E+03  0.14532032417E+04  0.17731254377E+04  0.65864270000E+03 0.  0.
    8880022    1    1    2    0    0 -0.73553263548E+03  0.23949048421E+03 -0.47893117198E+03  0.92256743406E+03  0.15294330000E+03 0.  0.
<mgrwt>
<rscale>  0 0.95358592E+03</rscale>
<asrwt>0</asrwt>
<pdfrwt beam="1">  1        1 0.28230499E+00 0.10159597E+04</pdfrwt>
<pdfrwt beam="2">  1       -1 0.13241699E+00 0.10159597E+04</pdfrwt>
<totfact> 0.18789227E+00</totfact>
</mgrwt>
</event>
<event>
 4    2  0.3179755E-007  0.7027161E+03  0.7818608E-02  0.9986115E-01
         -1   -1    0    0    0  501 -0.00000000000E+00  0.00000000000E+00  0.59766562915E+03  0.59766562917E+03  0.50400000000E-02 0.  1.
          1   -1    0    0  501    0  0.00000000000E+00 -0.00000000000E+00 -0.22179383418E+04  0.22179383418E+04  0.50400000000E-02 0. -1.
    8880023    1    1    2    0    0  0.23453459506E+03  0.70662937683E+02 -0.21227589840E+04  0.22360491134E+04  0.65864270000E+03 0. -1.
    8880022    1    1    2    0    0 -0.23453459506E+03 -0.70662937683E+02  0.50248627136E+03  0.57955485759E+03  0.15294330000E+03 0.  0.
<mgrwt>
<rscale>  0 0.56263284E+03</rscale>
<asrwt>0</asrwt>
<pdfrwt beam="1">  1        1 0.34122128E+00 0.70271611E+03</pdfrwt>
<pdfrwt beam="2">  1       -1 0.91948559E-01 0.70271611E+03</pdfrwt>
<totfact> 0.26038594E+00</totfact>
</mgrwt>
</event>
<event>
 4    2  0.3341645E-007  0.8880304E+03  0.7818608E-02  0.9545526E-01
          1   -1    0    0  501    0  0.00000000000E+00  0.00000000000E+00  0.10914876336E+04  0.10914876336E+04  0.50400000000E-02 0. -1.
         -1   -1    0    0    0  501 -0.00000000000E+00 -0.00000000000E+00 -0.18446939811E+04  0.18446939811E+04  0.50400000000E-02 0.  1.
    8880023    1    1    2    0    0 -0.38460560357E+02  0.59439770564E+03  0.84372318328E+03  0.12249354528E+04  0.65864270000E+03 0. -1.
    8880022    1    1    2    0    0  0.38460560357E+02 -0.59439770564E+03 -0.15969295308E+04  0.17112461619E+04  0.15294330000E+03 0.  0.
<mgrwt>
<rscale>  0 0.81008975E+03</rscale>
<asrwt>0</asrwt>
<pdfrwt beam="1">  1        1 0.16792117E+00 0.88803043E+03</pdfrwt>
<pdfrwt beam="2">  1       -1 0.28379907E+00 0.88803043E+03</pdfrwt>
<totfact> 0.55833299E-01</totfact>
</mgrwt>
</event>
<event>
 4    2  0.3179755E-007  0.8353887E+03  0.7818608E-02  0.9638937E-01
         -1   -1    0    0    0  501 -0.00000000000E+00  0.00000000000E+00  0.14232830520E+04  0.14232830520E+04  0.50400000000E-02 0.  1.
          1   -1    0    0  501    0  0.00000000000E+00 -0.00000000000E+00 -0.37095174438E+03  0.37095174442E+03  0.50400000000E-02 0. -1.
    8880023    1    1    2    0    0  0.44486122137E+03 -0.25722085322E+03  0.33822551890E+03  0.90126066235E+03  0.65864270000E+03 0.  0.
    8880022    1    1    2    0    0 -0.44486122137E+03  0.25722085322E+03  0.71410578869E+03  0.89297413404E+03  0.15294330000E+03 0.  0.
<mgrwt>
<rscale>  0 0.74771797E+03</rscale>
<asrwt>0</asrwt>
<pdfrwt beam="1">  1        1 0.57069500E-01 0.83538870E+03</pdfrwt>
<pdfrwt beam="2">  1       -1 0.21896662E+00 0.83538870E+03</pdfrwt>
<totfact> 0.75907310E+00</totfact>
</mgrwt>
</event>
<event>
 4    2  0.3179755E-007  0.7484166E+03  0.7818608E-02  0.9836075E-01
         -1   -1    0    0    0  501 -0.00000000000E+00  0.00000000000E+00  0.24306795978E+03  0.24306795984E+03  0.50400000000E-02 0.  1.
          1   -1    0    0  501    0  0.00000000000E+00 -0.00000000000E+00 -0.14347424500E+04  0.14347424500E+04  0.50400000000E-02 0. -1.
    8880023    1    1    2    0    0  0.26107580747E+03 -0.24115686543E+03 -0.99125936364E+03  0.12420638241E+04  0.65864270000E+03 0.  0.
    8880022    1    1    2    0    0 -0.26107580747E+03  0.24115686543E+03 -0.20041512661E+03  0.43574658573E+03  0.15294330000E+03 0.  0.
<mgrwt>
<rscale>  0 0.63461963E+03</rscale>
<asrwt>0</asrwt>
<pdfrwt beam="1">  1        1 0.22072960E+00 0.74841661E+03</pdfrwt>
<pdfrwt beam="2">  1       -1 0.37395072E-01 0.74841661E+03</pdfrwt>
<totfact> 0.51388202E+01</totfact>
</mgrwt>
</event>
<event>
 4    2  0.3179755E-007  0.8843295E+03  0.7818608E-02  0.9551671E-01
         -1   -1    0    0    0  501 -0.00000000000E+00  0.00000000000E+00  0.24056232194E+03  0.24056232200E+03  0.50400000000E-02 0.  1.
          1   -1    0    0  501    0  0.00000000000E+00 -0.00000000000E+00 -0.28748391056E+04  0.28748391056E+04  0.50400000000E-02 0. -1.
    8880023    1    1    2    0    0 -0.13351103182E+03  0.57480721742E+03 -0.21878380792E+04  0.23598038477E+04  0.65864270000E+03 0. -1.
    8880022    1    1    2    0    0  0.13351103182E+03 -0.57480721742E+03 -0.44643870446E+03  0.75559757985E+03  0.15294330000E+03 0.  0.
<mgrwt>
<rscale>  0 0.80579211E+03</rscale>
<asrwt>0</asrwt>
<pdfrwt beam="1">  1        1 0.44228291E+00 0.88432954E+03</pdfrwt>
<pdfrwt beam="2">  1       -1 0.37009590E-01 0.88432954E+03</pdfrwt>
<totfact> 0.53811086E+00</totfact>
</mgrwt>
</event>
<event>
 4    2  0.3179755E-007  0.7771428E+03  0.7818608E-02  0.9762592E-01
         -1   -1    0    0    0  501 -0.00000000000E+00  0.00000000000E+00  0.45562864406E+03  0.45562864409E+03  0.50400000000E-02 0.  1.
          1   -1    0    0  501    0  0.00000000000E+00 -0.00000000000E+00 -0.86546840824E+03  0.86546840826E+03  0.50400000000E-02 0. -1.
    8880023    1    1    2    0    0 -0.26236238979E+03 -0.31828710718E+03 -0.10119966535E+03  0.78370420741E+03  0.65864270000E+03 0.  1.
    8880022    1    1    2    0    0  0.26236238979E+03  0.31828710718E+03 -0.30864009883E+03  0.53739284494E+03  0.15294330000E+03 0. -1.
<mgrwt>
<rscale>  0 0.67409300E+03</rscale>
<asrwt>0</asrwt>
<pdfrwt beam="1">  1        1 0.13314899E+00 0.77714279E+03</pdfrwt>
<pdfrwt beam="2">  1       -1 0.70096715E-01 0.77714279E+03</pdfrwt>
<totfact> 0.40854429E+01</totfact>
</mgrwt>
</event>
<event>
 4    2  0.3179755E-007  0.8310345E+03  0.7818608E-02  0.9647323E-01
         -1   -1    0    0    0  501 -0.00000000000E+00  0.00000000000E+00  0.52109787570E+03  0.52109787573E+03  0.50400000000E-02 0.  1.
          1   -1    0    0  501    0  0.00000000000E+00 -0.00000000000E+00 -0.14875635670E+04  0.14875635671E+04  0.50400000000E-02 0. -1.
    8880023    1    1    2    0    0  0.27933092018E+03  0.42282660908E+03 -0.11754610560E+04  0.14395579199E+04  0.65864270000E+03 0.  0.
    8880022    1    1    2    0    0 -0.27933092018E+03 -0.42282660908E+03  0.20899536464E+03  0.56910352290E+03  0.15294330000E+03 0.  0.
<mgrwt>
<rscale>  0 0.74241673E+03</rscale>
<asrwt>0</asrwt>
<pdfrwt beam="1">  1        1 0.22885593E+00 0.83103448E+03</pdfrwt>
<pdfrwt beam="2">  1       -1 0.80168904E-01 0.83103448E+03</pdfrwt>
<totfact> 0.10634627E+01</totfact>
</mgrwt>
</event>
<event>
 4    2  0.3179755E-007  0.7507436E+03  0.7818608E-02  0.9829689E-01
         -1   -1    0    0    0  501 -0.00000000000E+00  0.00000000000E+00  0.27773508381E+03  0.27773508386E+03  0.50400000000E-02 0.  1.
          1   -1    0    0  501    0  0.00000000000E+00 -0.00000000000E+00 -0.11921406524E+04  0.11921406524E+04  0.50400000000E-02 0. -1.
    8880023    1    1    2    0    0  0.21642516723E+03 -0.28803791808E+03 -0.51331183735E+03  0.90945310153E+03  0.65864270000E+03 0.  1.
    8880022    1    1    2    0    0 -0.21642516723E+03  0.28803791808E+03 -0.40109373120E+03  0.56042263470E+03  0.15294330000E+03 0. -1.
<mgrwt>
<rscale>  0 0.63793308E+03</rscale>
<asrwt>0</asrwt>
<pdfrwt beam="1">  1        1 0.18340625E+00 0.75074357E+03</pdfrwt>
<pdfrwt beam="2">  1       -1 0.42728475E-01 0.75074357E+03</pdfrwt>
<totfact> 0.59805707E+01</totfact>
</mgrwt>
</event>
<event>
 4    2  0.3179755E-007  0.6846685E+03  0.7818608E-02  0.1006797E+00
          1   -1    0    0  501    0  0.00000000000E+00  0.00000000000E+00  0.84379147476E+03  0.84379147477E+03  0.50400000000E-02 0. -1.
         -1   -1    0    0    0  501 -0.00000000000E+00 -0.00000000000E+00 -0.48605905244E+03  0.48605905247E+03  0.50400000000E-02 0.  1.
    8880023    1    1    2    0    0 -0.18603271335E+03  0.18776468772E+02  0.65451505802E+03  0.94718577568E+03  0.65864270000E+03 0. -1.
    8880022    1    1    2    0    0  0.18603271335E+03 -0.18776468772E+02 -0.29678263570E+03  0.38266475156E+03  0.15294330000E+03 0.  0.
<mgrwt>
<rscale>  0 0.52767628E+03</rscale>
<asrwt>0</asrwt>
<pdfrwt beam="1">  1        1 0.12981407E+00 0.68466848E+03</pdfrwt>
<pdfrwt beam="2">  1       -1 0.74778316E-01 0.68466848E+03</pdfrwt>
<totfact> 0.37629675E+01</totfact>
</mgrwt>
</event>
<event>
 4    2  0.3179755E-007  0.9236082E+03  0.7818608E-02  0.9489149E-01
          1   -1    0    0  501    0  0.00000000000E+00  0.00000000000E+00  0.46298835366E+03  0.46298835369E+03  0.50400000000E-02 0. -1.
         -1   -1    0    0    0  501 -0.00000000000E+00 -0.00000000000E+00 -0.24770318677E+04  0.24770318677E+04  0.50400000000E-02 0.  1.
    8880023    1    1    2    0    0  0.64744198227E+03 -0.77963764428E+01 -0.11858409181E+03  0.93118972127E+03  0.65864270000E+03 0.  0.
    8880022    1    1    2    0    0 -0.64744198227E+03  0.77963764428E+01 -0.18954594223E+04  0.20088305002E+04  0.15294330000E+03 0.  0.
<mgrwt>
<rscale>  0 0.85088600E+03</rscale>
<asrwt>0</asrwt>
<pdfrwt beam="1">  1        1 0.71228979E-01 0.92360820E+03</pdfrwt>
<pdfrwt beam="2">  1       -1 0.38108182E+00 0.92360820E+03</pdfrwt>
<totfact> 0.49132750E-01</totfact>
</mgrwt>
</event>
<event>
 4    2  0.3179755E-007  0.6791930E+03  0.7818608E-02  0.1009784E+00
         -1   -1    0    0    0  501 -0.00000000000E+00  0.00000000000E+00  0.40767587009E+03  0.40767587012E+03  0.50400000000E-02 0.  1.
          1   -1    0    0  501    0  0.00000000000E+00 -0.00000000000E+00 -0.10406240758E+04  0.10406240758E+04  0.50400000000E-02 0. -1.
    8880023    1    1    2    0    0 -0.10155889423E+03  0.13106761481E+03 -0.88139416502E+03  0.11127258463E+04  0.65864270000E+03 0. -1.
    8880022    1    1    2    0    0  0.10155889423E+03 -0.13106761481E+03  0.24844595929E+03  0.33557409965E+03  0.15294330000E+03 0.  0.
<mgrwt>
<rscale>  0 0.51560626E+03</rscale>
<asrwt>0</asrwt>
<pdfrwt beam="1">  1        1 0.16009601E+00 0.67919300E+03</pdfrwt>
<pdfrwt beam="2">  1       -1 0.62719365E-01 0.67919300E+03</pdfrwt>
<totfact> 0.37526322E+01</totfact>
</mgrwt>
</event>
<event>
 4    2  0.3179755E-007  0.9149977E+03  0.7818608E-02  0.9502372E-01
         -1   -1    0    0    0  501 -0.00000000000E+00  0.00000000000E+00  0.69586118649E+03  0.69586118651E+03  0.50400000000E-02 0.  1.
          1   -1    0    0  501    0  0.00000000000E+00 -0.00000000000E+00 -0.91902838841E+03  0.91902838843E+03  0.50400000000E-02 0. -1.
    8880023    1    1    2    0    0 -0.35606504614E+03  0.52595455440E+03 -0.28579790846E+03  0.95859332416E+03  0.65864270000E+03 0. -1.
    8880022    1    1    2    0    0  0.35606504614E+03 -0.52595455440E+03  0.62630706544E+02  0.65629625078E+03  0.15294330000E+03 0.  1.
<mgrwt>
<rscale>  0 0.84109164E+03</rscale>
<asrwt>0</asrwt>
<pdfrwt beam="1">  1        1 0.14138898E+00 0.91499766E+03</pdfrwt>
<pdfrwt beam="2">  1       -1 0.10705557E+00 0.91499766E+03</pdfrwt>
<totfact> 0.14438727E+01</totfact>
</mgrwt>
</event>
<event>
 4    2  0.3179755E-007  0.7447743E+03  0.7818608E-02  0.9846252E-01
          1   -1    0    0  501    0  0.00000000000E+00  0.00000000000E+00  0.78488914442E+03  0.78488914444E+03  0.50400000000E-02 0. -1.
         -1   -1    0    0    0  501 -0.00000000000E+00 -0.00000000000E+00 -0.44966489293E+03  0.44966489296E+03  0.50400000000E-02 0.  1.
    8880023    1    1    2    0    0 -0.32803058455E+03  0.11521466460E+03  0.40590807260E+03  0.84820401615E+03  0.65864270000E+03 0.  0.
    8880022    1    1    2    0    0  0.32803058455E+03 -0.11521466460E+03 -0.70683821110E+02  0.38635002125E+03  0.15294330000E+03 0.  0.
<mgrwt>
<rscale>  0 0.62938378E+03</rscale>
<asrwt>0</asrwt>
<pdfrwt beam="1">  1        1 0.12075218E+00 0.74477425E+03</pdfrwt>
<pdfrwt beam="2">  1       -1 0.69179214E-01 0.74477425E+03</pdfrwt>
<totfact> 0.49310824E+01</totfact>
</mgrwt>
</event>
<event>
 4    2  0.3179755E-007  0.8507393E+03  0.7818608E-02  0.9610254E-01
          1   -1    0    0  501    0  0.00000000000E+00  0.00000000000E+00  0.21470036270E+04  0.21470036270E+04  0.50400000000E-02 0. -1.
         -1   -1    0    0    0  501 -0.00000000000E+00 -0.00000000000E+00 -0.49902736456E+03  0.49902736458E+03  0.50400000000E-02 0.  1.
    8880023    1    1    2    0    0  0.36218921357E+03  0.39845469188E+03  0.18616835576E+04  0.20468568692E+04  0.65864270000E+03 0. -1.
    8880022    1    1    2    0    0 -0.36218921357E+03 -0.39845469188E+03 -0.21370729520E+03  0.59917412239E+03  0.15294330000E+03 0.  0.
<mgrwt>
<rscale>  0 0.76621236E+03</rscale>
<asrwt>0</asrwt>
<pdfrwt beam="1">  1        1 0.33030825E+00 0.85073931E+03</pdfrwt>
<pdfrwt beam="2">  1       -1 0.76773441E-01 0.85073931E+03</pdfrwt>
<totfact> 0.41731098E+00</totfact>
</mgrwt>
</event>
<event>
 4    2  0.3179755E-007  0.7648575E+03  0.7818608E-02  0.9792691E-01
          1   -1    0    0  501    0  0.00000000000E+00  0.00000000000E+00  0.12403723417E+04  0.12403723417E+04  0.50400000000E-02 0. -1.
         -1   -1    0    0    0  501 -0.00000000000E+00 -0.00000000000E+00 -0.73540101625E+03  0.73540101626E+03  0.50400000000E-02 0.  1.
    8880023    1    1    2    0    0 -0.31278341086E+03 -0.23100489078E+03  0.10437279486E+04  0.12939764134E+04  0.65864270000E+03 0. -1.
    8880022    1    1    2    0    0  0.31278341086E+03  0.23100489078E+03 -0.53875662308E+03  0.68179694455E+03  0.15294330000E+03 0.  0.
<mgrwt>
<rscale>  0 0.65756289E+03</rscale>
<asrwt>0</asrwt>
<pdfrwt beam="1">  1        1 0.19082651E+00 0.76485746E+03</pdfrwt>
<pdfrwt beam="2">  1       -1 0.11313862E+00 0.76485746E+03</pdfrwt>
<totfact> 0.73723858E+00</totfact>
</mgrwt>
</event>
<event>
 4    2  0.4104610E-007  0.1011735E+04  0.7818608E-02  0.9366363E-01
          1   -1    0    0  501    0  0.00000000000E+00  0.00000000000E+00  0.16398827282E+04  0.16398827282E+04  0.50400000000E-02 0. -1.
         -1   -1    0    0    0  501 -0.00000000000E+00 -0.00000000000E+00 -0.22232884450E+04  0.22232884450E+04  0.50400000000E-02 0.  1.
    8880023    1    1    2    0    0  0.38791599675E+03  0.66281175892E+03  0.14019923235E+04  0.17289276820E+04  0.65864270000E+03 0. -1.
    8880022    1    1    2    0    0 -0.38791599675E+03 -0.66281175892E+03 -0.19853980403E+04  0.21342434912E+04  0.15294330000E+03 0.  0.
<mgrwt>
<rscale>  0 0.94896364E+03</rscale>
<asrwt>0</asrwt>
<pdfrwt beam="1">  1        1 0.25228965E+00 0.10117354E+04</pdfrwt>
<pdfrwt beam="2">  1       -1 0.34204438E+00 0.10117354E+04</pdfrwt>
<totfact> 0.93879426E-02</totfact>
</mgrwt>
</event>
<event>
 4    2  0.3179755E-007  0.6820392E+03  0.7818608E-02  0.1008193E+00
         -1   -1    0    0    0  501 -0.00000000000E+00  0.00000000000E+00  0.17867281426E+03  0.17867281433E+03  0.50400000000E-02 0.  1.
          1   -1    0    0  501    0  0.00000000000E+00 -0.00000000000E+00 -0.16453075645E+04  0.16453075645E+04  0.50400000000E-02 0. -1.
    8880023    1    1    2    0    0  0.88281114246E+02  0.15353728892E+03 -0.14337066368E+04  0.15876687881E+04  0.65864270000E+03 0. -1.
    8880022    1    1    2    0    0 -0.88281114246E+02 -0.15353728892E+03 -0.32928113444E+02  0.23631159068E+03  0.15294330000E+03 0.  0.
<mgrwt>
<rscale>  0 0.52199200E+03</rscale>
<asrwt>0</asrwt>
<pdfrwt beam="1">  1        1 0.25312423E+00 0.68203919E+03</pdfrwt>
<pdfrwt beam="2">  1       -1 0.27488126E-01 0.68203919E+03</pdfrwt>
<totfact> 0.63928314E+01</totfact>
</mgrwt>
</event>
<event>
 4    2  0.3179755E-007  0.8141004E+03  0.7818608E-02  0.9681098E-01
         -1   -1    0    0    0  501 -0.00000000000E+00  0.00000000000E+00  0.68612010280E+03  0.68612010282E+03  0.50400000000E-02 0.  1.
          1   -1    0    0  501    0  0.00000000000E+00 -0.00000000000E+00 -0.13267151788E+04  0.13267151788E+04  0.50400000000E-02 0. -1.
    8880023    1    1    2    0    0  0.44330781751E+03 -0.18007610377E+03 -0.10751692102E+04  0.13486097512E+04  0.65864270000E+03 0. -1.
    8880022    1    1    2    0    0 -0.44330781751E+03  0.18007610377E+03  0.43457413416E+03  0.66422553045E+03  0.15294330000E+03 0.  0.
<mgrwt>
<rscale>  0 0.72153420E+03</rscale>
<asrwt>0</asrwt>
<pdfrwt beam="1">  1        1 0.20411003E+00 0.81410038E+03</pdfrwt>
<pdfrwt beam="2">  1       -1 0.10555694E+00 0.81410038E+03</pdfrwt>
<totfact> 0.74829007E+00</totfact>
</mgrwt>
</event>
<event>
 4    2  0.3179755E-007  0.6589460E+03  0.7818608E-02  0.1025263E+00
         -1   -1    0    0    0  501 -0.00000000000E+00  0.00000000000E+00  0.54506099572E+03  0.54506099574E+03  0.50400000000E-02 0.  1.
          1   -1    0    0  501    0  0.00000000000E+00 -0.00000000000E+00 -0.34962998311E+03  0.34962998315E+03  0.50400000000E-02 0. -1.
    8880023    1    1    2    0    0  0.18340426588E+02 -0.79498941825E+01  0.17454712361E+02  0.65917709708E+03  0.65864270000E+03 0. -1.
    8880022    1    1    2    0    0 -0.18340426588E+02  0.79498941825E+01  0.17797630024E+03  0.23551388182E+03  0.15294330000E+03 0.  0.
<mgrwt>
<rscale>  0 0.45834178E+03</rscale>
<asrwt>0</asrwt>
<pdfrwt beam="1">  1        1 0.53789228E-01 0.65894596E+03</pdfrwt>
<pdfrwt beam="2">  1       -1 0.83855537E-01 0.65894596E+03</pdfrwt>
<totfact> 0.10343920E+02</totfact>
</mgrwt>
</event>
<event>
 4    2  0.3179755E-007  0.6600275E+03  0.7818608E-02  0.1024128E+00
          1   -1    0    0  501    0  0.00000000000E+00  0.00000000000E+00  0.30330665092E+04  0.30330665092E+04  0.50400000000E-02 0. -1.
         -1   -1    0    0    0  501 -0.00000000000E+00 -0.00000000000E+00 -0.26994308557E+03  0.26994308561E+03  0.50400000000E-02 0.  1.
    8880023    1    1    2    0    0 -0.24735285079E+02 -0.34846990902E+02  0.29698619348E+04  0.30423208683E+04  0.65864270000E+03 0. -1.
    8880022    1    1    2    0    0  0.24735285079E+02  0.34846990902E+02 -0.20673851123E+03  0.26068872654E+03  0.15294330000E+03 0.  0.
<mgrwt>
<rscale>  0 0.46225854E+03</rscale>
<asrwt>0</asrwt>
<pdfrwt beam="1">  1        1 0.46662564E+00 0.66002754E+03</pdfrwt>
<pdfrwt beam="2">  1       -1 0.41529704E-01 0.66002754E+03</pdfrwt>
<totfact> 0.35085062E+00</totfact>
</mgrwt>
</event>
<event>
 4    2  0.3179755E-007  0.1089790E+04  0.7818608E-02  0.9272510E-01
          1   -1    0    0  501    0  0.00000000000E+00  0.00000000000E+00  0.13885340920E+04  0.13885340920E+04  0.50400000000E-02 0. -1.
         -1   -1    0    0    0  501 -0.00000000000E+00 -0.00000000000E+00 -0.12371055308E+04  0.12371055308E+04  0.50400000000E-02 0.  1.
    8880023    1    1    2    0    0  0.50799324645E+03  0.70411292165E+03  0.94275250207E+03  0.14409804410E+04  0.65864270000E+03 0.  0.
    8880022    1    1    2    0    0 -0.50799324645E+03 -0.70411292165E+03 -0.79132394084E+03  0.11846591819E+04  0.15294330000E+03 0.  0.
<mgrwt>
<rscale>  0 0.10335355E+04</rscale>
<asrwt>0</asrwt>
<pdfrwt beam="1">  1        1 0.21362063E+00 0.10897900E+04</pdfrwt>
<pdfrwt beam="2">  1       -1 0.19032393E+00 0.10897900E+04</pdfrwt>
<totfact> 0.13667792E+00</totfact>
</mgrwt>
</event>
<event>
 4    2  0.3179755E-007  0.8330408E+03  0.7818608E-02  0.9643445E-01
         -1   -1    0    0    0  501 -0.00000000000E+00  0.00000000000E+00  0.90268984892E+03  0.90268984893E+03  0.50400000000E-02 0.  1.
          1   -1    0    0  501    0  0.00000000000E+00 -0.00000000000E+00 -0.84390873760E+03  0.84390873761E+03  0.50400000000E-02 0. -1.
    8880023    1    1    2    0    0  0.16184065499E+03 -0.48368827960E+03 -0.50254747447E+03  0.97288792766E+03  0.65864270000E+03 0. -1.
    8880022    1    1    2    0    0 -0.16184065499E+03  0.48368827960E+03  0.56132858579E+03  0.77371065888E+03  0.15294330000E+03 0.  0.
<mgrwt>
<rscale>  0 0.74486263E+03</rscale>
<asrwt>0</asrwt>
<pdfrwt beam="1">  1        1 0.12983211E+00 0.83304079E+03</pdfrwt>
<pdfrwt beam="2">  1       -1 0.13887536E+00 0.83304079E+03</pdfrwt>
<totfact> 0.88585142E+00</totfact>
</mgrwt>
</event>
<event>
 4    2  0.3179755E-007  0.7078997E+03  0.7818608E-02  0.9965884E-01
          1   -1    0    0  501    0  0.00000000000E+00  0.00000000000E+00  0.26544574550E+03  0.26544574554E+03  0.50400000000E-02 0. -1.
         -1   -1    0    0    0  501 -0.00000000000E+00 -0.00000000000E+00 -0.14007017705E+04  0.14007017705E+04  0.50400000000E-02 0.  1.
    8880023    1    1    2    0    0 -0.10773637866E+03 -0.23601828478E+03 -0.28322595832E+03  0.76245583988E+03  0.65864270000E+03 0. -1.
    8880022    1    1    2    0    0  0.10773637866E+03  0.23601828478E+03 -0.85203006666E+03  0.90369167615E+03  0.15294330000E+03 0.  0.
<mgrwt>
<rscale>  0 0.57171784E+03</rscale>
<asrwt>0</asrwt>
<pdfrwt beam="1">  1        1 0.40837808E-01 0.70789969E+03</pdfrwt>
<pdfrwt beam="2">  1       -1 0.21549258E+00 0.70789969E+03</pdfrwt>
<totfact> 0.12568386E+01</totfact>
</mgrwt>
</event>
<event>
 4    2  0.3179755E-007  0.9370239E+03  0.7818608E-02  0.9469035E-01
         -1   -1    0    0    0  501 -0.00000000000E+00  0.00000000000E+00  0.30840375043E+03  0.30840375047E+03  0.50400000000E-02 0.  1.
          1   -1    0    0  501    0  0.00000000000E+00 -0.00000000000E+00 -0.22702561080E+04  0.22702561080E+04  0.50400000000E-02 0. -1.
    8880023    1    1    2    0    0 -0.60748856357E+03  0.27415532471E+03 -0.80743879876E+03  0.12369200123E+04  0.65864270000E+03 0.  0.
    8880022    1    1    2    0    0  0.60748856357E+03 -0.27415532471E+03 -0.11544135588E+04  0.13417398461E+04  0.15294330000E+03 0.  0.
<mgrwt>
<rscale>  0 0.86605752E+03</rscale>
<asrwt>0</asrwt>
<pdfrwt beam="1">  1        1 0.34927016E+00 0.93702385E+03</pdfrwt>
<pdfrwt beam="2">  1       -1 0.47446732E-01 0.93702385E+03</pdfrwt>
<totfact> 0.88438580E+00</totfact>
</mgrwt>
</event>
<event>
 4    2  0.3179755E-007  0.9886498E+03  0.7818608E-02  0.9396560E-01
         -1   -1    0    0    0  501 -0.00000000000E+00  0.00000000000E+00  0.14923879363E+04  0.14923879363E+04  0.50400000000E-02 0.  1.
          1   -1    0    0  501    0  0.00000000000E+00 -0.00000000000E+00 -0.10548100338E+04  0.10548100338E+04  0.50400000000E-02 0. -1.
    8880023    1    1    2    0    0  0.66290192196E+03 -0.32276805406E+03 -0.67977267840E+03  0.11997996814E+04  0.65864270000E+03 0. -1.
    8880022    1    1    2    0    0 -0.66290192196E+03  0.32276805406E+03  0.11173505809E+04  0.13473982888E+04  0.15294330000E+03 0.  0.
<mgrwt>
<rscale>  0 0.92359310E+03</rscale>
<asrwt>0</asrwt>
<pdfrwt beam="1">  1        1 0.16227847E+00 0.98864978E+03</pdfrwt>
<pdfrwt beam="2">  1       -1 0.22959814E+00 0.98864978E+03</pdfrwt>
<totfact> 0.13138878E+00</totfact>
</mgrwt>
</event>
<event>
 4    2  0.3179755E-007  0.6899649E+03  0.7818608E-02  0.1004169E+00
          1   -1    0    0  501    0  0.00000000000E+00  0.00000000000E+00  0.69011691286E+03  0.69011691288E+03  0.50400000000E-02 0. -1.
         -1   -1    0    0    0  501 -0.00000000000E+00 -0.00000000000E+00 -0.33516363185E+03  0.33516363188E+03  0.50400000000E-02 0.  1.
    8880023    1    1    2    0    0 -0.20546876673E+03  0.48862526007E+01  0.17381220460E+03  0.71152103152E+03  0.65864270000E+03 0. -1.
    8880022    1    1    2    0    0  0.20546876673E+03 -0.48862526007E+01  0.18114107642E+03  0.31375951324E+03  0.15294330000E+03 0.  0.
<mgrwt>
<rscale>  0 0.53859270E+03</rscale>
<asrwt>0</asrwt>
<pdfrwt beam="1">  1        1 0.10617183E+00 0.68996485E+03</pdfrwt>
<pdfrwt beam="2">  1       -1 0.51563636E-01 0.68996485E+03</pdfrwt>
<totfact> 0.10770253E+02</totfact>
</mgrwt>
</event>
<event>
 4    2  0.3179755E-007  0.7315007E+03  0.7818608E-02  0.9885434E-01
          1   -1    0    0  501    0  0.00000000000E+00  0.00000000000E+00  0.48172851210E+03  0.48172851213E+03  0.50400000000E-02 0. -1.
         -1   -1    0    0    0  501 -0.00000000000E+00 -0.00000000000E+00 -0.86713889396E+03  0.86713889397E+03  0.50400000000E-02 0.  1.
    8880023    1    1    2    0    0 -0.21305380871E+03  0.23641315406E+03  0.11080795351E+03  0.73984573638E+03  0.65864270000E+03 0. -1.
    8880022    1    1    2    0    0  0.21305380871E+03 -0.23641315406E+03 -0.49621833537E+03  0.60902166972E+03  0.15294330000E+03 0.  0.
<mgrwt>
<rscale>  0 0.60972414E+03</rscale>
<asrwt>0</asrwt>
<pdfrwt beam="1">  1        1 0.74112079E-01 0.73150073E+03</pdfrwt>
<pdfrwt beam="2">  1       -1 0.13340598E+00 0.73150073E+03</pdfrwt>
<totfact> 0.22759275E+01</totfact>
</mgrwt>
</event>
<event>
 4    2  0.3179755E-007  0.6951415E+03  0.7818608E-02  0.1001799E+00
          1   -1    0    0  501    0  0.00000000000E+00  0.00000000000E+00  0.40331714714E+03  0.40331714718E+03  0.50400000000E-02 0. -1.
         -1   -1    0    0    0  501 -0.00000000000E+00 -0.00000000000E+00 -0.62722404357E+03  0.62722404359E+03  0.50400000000E-02 0.  1.
    8880023    1    1    2    0    0 -0.22228687005E+03 -0.16549192504E+00 -0.25470141951E+02  0.69560794589E+03  0.65864270000E+03 0. -1.
    8880022    1    1    2    0    0  0.22228687005E+03  0.16549192504E+00 -0.19843675447E+03  0.33493324488E+03  0.15294330000E+03 0. -1.
<mgrwt>
<rscale>  0 0.54868573E+03</rscale>
<asrwt>0</asrwt>
<pdfrwt beam="1">  1        1 0.62048792E-01 0.69514149E+03</pdfrwt>
<pdfrwt beam="2">  1       -1 0.96496007E-01 0.69514149E+03</pdfrwt>
<totfact> 0.62815623E+01</totfact>
</mgrwt>
</event>
<event>
 4    2  0.3179755E-007  0.7177928E+03  0.7818608E-02  0.9930126E-01
          1   -1    0    0  501    0  0.00000000000E+00  0.00000000000E+00  0.10585703389E+04  0.10585703389E+04  0.50400000000E-02 0. -1.
         -1   -1    0    0    0  501 -0.00000000000E+00 -0.00000000000E+00 -0.11022840741E+04  0.11022840741E+04  0.50400000000E-02 0.  1.
    8880023    1    1    2    0    0 -0.20281703006E+02  0.28461379280E+03  0.90692242584E+03  0.11566048812E+04  0.65864270000E+03 0. -1.
    8880022    1    1    2    0    0  0.20281703006E+02 -0.28461379280E+03 -0.95063616097E+03  0.10042495318E+04  0.15294330000E+03 0.  0.
<mgrwt>
<rscale>  0 0.58823201E+03</rscale>
<asrwt>0</asrwt>
<pdfrwt beam="1">  1        1 0.16285698E+00 0.71779284E+03</pdfrwt>
<pdfrwt beam="2">  1       -1 0.16958217E+00 0.71779284E+03</pdfrwt>
<totfact> 0.35304610E+00</totfact>
</mgrwt>
</event>
<event>
 4    2  0.3179755E-007  0.7580980E+03  0.7818608E-02  0.9810057E-01
         -1   -1    0    0    0  501 -0.00000000000E+00  0.00000000000E+00  0.55944081837E+03  0.55944081840E+03  0.50400000000E-02 0.  1.
          1   -1    0    0  501    0  0.00000000000E+00 -0.00000000000E+00 -0.12080949947E+04  0.12080949947E+04  0.50400000000E-02 0. -1.
    8880023    1    1    2    0    0 -0.33592110094E+03 -0.16750919533E+03 -0.98351155739E+03  0.12417759485E+04  0.65864270000E+03 0.  0.
    8880022    1    1    2    0    0  0.33592110094E+03  0.16750919533E+03  0.33485738104E+03  0.52575986460E+03  0.15294330000E+03 0.  1.
<mgrwt>
<rscale>  0 0.64825623E+03</rscale>
<asrwt>0</asrwt>
<pdfrwt beam="1">  1        1 0.18586077E+00 0.75809796E+03</pdfrwt>
<pdfrwt beam="2">  1       -1 0.86067819E-01 0.75809796E+03</pdfrwt>
<totfact> 0.14490970E+01</totfact>
</mgrwt>
</event>
<event>
 4    2  0.3179755E-007  0.7316952E+03  0.7818608E-02  0.9884834E-01
         -1   -1    0    0    0  501 -0.00000000000E+00  0.00000000000E+00  0.67932954027E+03  0.67932954029E+03  0.50400000000E-02 0.  1.
          1   -1    0    0  501    0  0.00000000000E+00 -0.00000000000E+00 -0.90554893420E+03  0.90554893422E+03  0.50400000000E-02 0. -1.
    8880023    1    1    2    0    0 -0.16902337689E+03 -0.27018281426E+03 -0.68730803269E+03  0.10038775788E+04  0.65864270000E+03 0.  0.
    8880022    1    1    2    0    0  0.16902337689E+03  0.27018281426E+03  0.46108863876E+03  0.58100089575E+03  0.15294330000E+03 0.  0.
<mgrwt>
<rscale>  0 0.61001952E+03</rscale>
<asrwt>0</asrwt>
<pdfrwt beam="1">  1        1 0.13931522E+00 0.73169520E+03</pdfrwt>
<pdfrwt beam="2">  1       -1 0.10451224E+00 0.73169520E+03</pdfrwt>
<totfact> 0.15990573E+01</totfact>
</mgrwt>
</event>
<event>
 4    2  0.3179755E-007  0.8125175E+03  0.7818608E-02  0.9684357E-01
          1   -1    0    0  501    0  0.00000000000E+00  0.00000000000E+00  0.72462135535E+03  0.72462135536E+03  0.50400000000E-02 0. -1.
         -1   -1    0    0    0  501 -0.00000000000E+00 -0.00000000000E+00 -0.90339816064E+03  0.90339816065E+03  0.50400000000E-02 0.  1.
    8880023    1    1    2    0    0 -0.18431991929E+03  0.43863505166E+03  0.36389255488E+03  0.89028228049E+03  0.65864270000E+03 0. -1.
    8880022    1    1    2    0    0  0.18431991929E+03 -0.43863505166E+03 -0.54266936017E+03  0.73773723552E+03  0.15294330000E+03 0.  0.
<mgrwt>
<rscale>  0 0.71955876E+03</rscale>
<asrwt>0</asrwt>
<pdfrwt beam="1">  1        1 0.11148021E+00 0.81251754E+03</pdfrwt>
<pdfrwt beam="2">  1       -1 0.13898433E+00 0.81251754E+03</pdfrwt>
<totfact> 0.11283689E+01</totfact>
</mgrwt>
</event>
<event>
 4    2  0.3179755E-007  0.8632833E+03  0.7818608E-02  0.9587749E-01
          1   -1    0    0  501    0  0.00000000000E+00  0.00000000000E+00  0.18709843234E+04  0.18709843234E+04  0.50400000000E-02 0. -1.
         -1   -1    0    0    0  501 -0.00000000000E+00 -0.00000000000E+00 -0.44189131524E+03  0.44189131527E+03  0.50400000000E-02 0.  1.
    8880023    1    1    2    0    0 -0.54772753475E+03 -0.10696940557E+03  0.14992029190E+04  0.17299906083E+04  0.65864270000E+03 0. -1.
    8880022    1    1    2    0    0  0.54772753475E+03  0.10696940557E+03 -0.70109910855E+02  0.58288503040E+03  0.15294330000E+03 0.  0.
<mgrwt>
<rscale>  0 0.78112334E+03</rscale>
<asrwt>0</asrwt>
<pdfrwt beam="1">  1        1 0.28784374E+00 0.86328333E+03</pdfrwt>
<pdfrwt beam="2">  1       -1 0.67983279E-01 0.86328333E+03</pdfrwt>
<totfact> 0.82060564E+00</totfact>
</mgrwt>
</event>
<event>
 4    2  0.3179755E-007  0.7141848E+03  0.7818608E-02  0.9942777E-01
          1   -1    0    0  501    0  0.00000000000E+00  0.00000000000E+00  0.22037585211E+04  0.22037585211E+04  0.50400000000E-02 0. -1.
         -1   -1    0    0    0  501 -0.00000000000E+00 -0.00000000000E+00 -0.27104380174E+03  0.27104380179E+03  0.50400000000E-02 0.  1.
    8880023    1    1    2    0    0  0.27592578574E+03  0.10707034725E+02  0.20239183568E+04  0.21462305098E+04  0.65864270000E+03 0.  0.
    8880022    1    1    2    0    0 -0.27592578574E+03 -0.10707034725E+02 -0.91203637507E+02  0.32857181306E+03  0.15294330000E+03 0.  0.
<mgrwt>
<rscale>  0 0.58232157E+03</rscale>
<asrwt>0</asrwt>
<pdfrwt beam="1">  1        1 0.33903977E+00 0.71418477E+03</pdfrwt>
<pdfrwt beam="2">  1       -1 0.41699047E-01 0.71418477E+03</pdfrwt>
<totfact> 0.12867300E+01</totfact>
</mgrwt>
</event>
<event>
 4    2  0.3179755E-007  0.7018182E+03  0.7818608E-02  0.9989741E-01
          1   -1    0    0  501    0  0.00000000000E+00  0.00000000000E+00  0.13821230161E+04  0.13821230161E+04  0.50400000000E-02 0. -1.
         -1   -1    0    0    0  501 -0.00000000000E+00 -0.00000000000E+00 -0.27995325202E+03  0.27995325206E+03  0.50400000000E-02 0.  1.
    8880023    1    1    2    0    0 -0.12555058892E+03 -0.20730552874E+03  0.11729514128E+04  0.13668810320E+04  0.65864270000E+03 0. -1.
    8880022    1    1    2    0    0  0.12555058892E+03  0.20730552874E+03 -0.70781648741E+02  0.29519523614E+03  0.15294330000E+03 0.  0.
<mgrwt>
<rscale>  0 0.56102383E+03</rscale>
<asrwt>0</asrwt>
<pdfrwt beam="1">  1        1 0.21263432E+00 0.70181817E+03</pdfrwt>
<pdfrwt beam="2">  1       -1 0.43069730E-01 0.70181817E+03</pdfrwt>
<totfact> 0.43447245E+01</totfact>
</mgrwt>
</event>
<event>
 4    2  0.3179755E-007  0.9140261E+03  0.7818608E-02  0.9503880E-01
         -1   -1    0    0    0  501 -0.00000000000E+00  0.00000000000E+00  0.84616843412E+03  0.84616843414E+03  0.50400000000E-02 0.  1.
          1   -1    0    0  501    0  0.00000000000E+00 -0.00000000000E+00 -0.90985223382E+03  0.90985223383E+03  0.50400000000E-02 0. -1.
    8880023    1    1    2    0    0 -0.11272198259E+03 -0.62364028345E+03  0.35574366727E+03  0.98081456533E+03  0.65864270000E+03 0.  0.
    8880022    1    1    2    0    0  0.11272198259E+03  0.62364028345E+03 -0.41942746696E+03  0.77520610264E+03  0.15294330000E+03 0.  0.
<mgrwt>
<rscale>  0 0.83998351E+03</rscale>
<asrwt>0</asrwt>
<pdfrwt beam="1">  1        1 0.13997727E+00 0.91402607E+03</pdfrwt>
<pdfrwt beam="2">  1       -1 0.13017976E+00 0.91402607E+03</pdfrwt>
<totfact> 0.91307362E+00</totfact>
</mgrwt>
</event>
<event>
 4    2  0.3179755E-007  0.9478798E+03  0.7818608E-02  0.9453171E-01
         -1   -1    0    0    0  501 -0.00000000000E+00  0.00000000000E+00  0.12192345794E+04  0.12192345794E+04  0.50400000000E-02 0.  1.
          1   -1    0    0  501    0  0.00000000000E+00 -0.00000000000E+00 -0.56743935965E+03  0.56743935967E+03  0.50400000000E-02 0. -1.
    8880023    1    1    2    0    0 -0.51731366058E+03 -0.44390595300E+03  0.24809928289E+03  0.97981088939E+03  0.65864270000E+03 0.  0.
    8880022    1    1    2    0    0  0.51731366058E+03  0.44390595300E+03  0.40369593690E+03  0.80686304973E+03  0.15294330000E+03 0.  0.
<mgrwt>
<rscale>  0 0.87826148E+03</rscale>
<asrwt>0</asrwt>
<pdfrwt beam="1">  1        1 0.87298364E-01 0.94787981E+03</pdfrwt>
<pdfrwt beam="2">  1       -1 0.18757455E+00 0.94787981E+03</pdfrwt>
<totfact> 0.68826425E+00</totfact>
</mgrwt>
</event>
<event>
 4    2  0.3179755E-007  0.7276058E+03  0.7818608E-02  0.9897644E-01
         -1   -1    0    0    0  501 -0.00000000000E+00  0.00000000000E+00  0.36805761502E+03  0.36805761506E+03  0.50400000000E-02 0.  1.
          1   -1    0    0  501    0  0.00000000000E+00 -0.00000000000E+00 -0.91310449705E+03  0.91310449707E+03  0.50400000000E-02 0. -1.
    8880023    1    1    2    0    0  0.24683756691E+03  0.18620194047E+03 -0.58539129077E+03  0.93385925955E+03  0.65864270000E+03 0. -1.
    8880022    1    1    2    0    0 -0.24683756691E+03 -0.18620194047E+03  0.40344408735E+02  0.34730285257E+03  0.15294330000E+03 0.  0.
<mgrwt>
<rscale>  0 0.60375625E+03</rscale>
<asrwt>0</asrwt>
<pdfrwt beam="1">  1        1 0.14047761E+00 0.72760577E+03</pdfrwt>
<pdfrwt beam="2">  1       -1 0.56624249E-01 0.72760577E+03</pdfrwt>
<totfact> 0.57432857E+01</totfact>
</mgrwt>
</event>
<event>
 4    2  0.3179755E-007  0.9391417E+03  0.7818608E-02  0.9465912E-01
         -1   -1    0    0    0  501 -0.00000000000E+00  0.00000000000E+00  0.12350268384E+04  0.12350268385E+04  0.50400000000E-02 0.  1.
          1   -1    0    0  501    0  0.00000000000E+00 -0.00000000000E+00 -0.32367353804E+04  0.32367353804E+04  0.50400000000E-02 0. -1.
    8880023    1    1    2    0    0  0.23189704075E+03 -0.62801328510E+03 -0.30651923751E+04  0.32058370867E+04  0.65864270000E+03 0. -1.
    8880022    1    1    2    0    0 -0.23189704075E+03  0.62801328510E+03  0.10634838332E+04  0.12659251321E+04  0.15294330000E+03 0.  0.
<mgrwt>
<rscale>  0 0.86844326E+03</rscale>
<asrwt>0</asrwt>
<pdfrwt beam="1">  1        1 0.49795929E+00 0.93914170E+03</pdfrwt>
<pdfrwt beam="2">  1       -1 0.19000413E+00 0.93914170E+03</pdfrwt>
<totfact> 0.73877358E-02</totfact>
</mgrwt>
</event>
<event>
 4    2  0.3179755E-007  0.6926773E+03  0.7818608E-02  0.1002905E+00
          1   -1    0    0  501    0  0.00000000000E+00  0.00000000000E+00  0.21856545471E+04  0.21856545471E+04  0.50400000000E-02 0. -1.
         -1   -1    0    0    0  501 -0.00000000000E+00 -0.00000000000E+00 -0.20511822710E+03  0.20511822717E+03  0.50400000000E-02 0.  1.
    8880023    1    1    2    0    0 -0.21445354248E+03 -0.11509118389E+01  0.20097319100E+04  0.21257526203E+04  0.65864270000E+03 0. -1.
    8880022    1    1    2    0    0  0.21445354248E+03  0.11509118389E+01 -0.29195590051E+02  0.26502015390E+03  0.15294330000E+03 0.  0.
<mgrwt>
<rscale>  0 0.54394513E+03</rscale>
<asrwt>0</asrwt>
<pdfrwt beam="1">  1        1 0.33625455E+00 0.69267731E+03</pdfrwt>
<pdfrwt beam="2">  1       -1 0.31556650E-01 0.69267731E+03</pdfrwt>
<totfact> 0.21863120E+01</totfact>
</mgrwt>
</event>
<event>
 4    2  0.3179755E-007  0.6708887E+03  0.7818608E-02  0.1015034E+00
          1   -1    0    0  501    0  0.00000000000E+00  0.00000000000E+00  0.33858592689E+03  0.33858592693E+03  0.50400000000E-02 0. -1.
         -1   -1    0    0    0  501 -0.00000000000E+00 -0.00000000000E+00 -0.57890953740E+03  0.57890953743E+03  0.50400000000E-02 0.  1.
    8880023    1    1    2    0    0  0.85704311815E+02  0.94531681979E+02 -0.11098922367E+03  0.68000756025E+03  0.65864270000E+03 0. -1.
    8880022    1    1    2    0    0 -0.85704311815E+02 -0.94531681979E+02 -0.12933438684E+03  0.23748790410E+03  0.15294330000E+03 0.  1.
<mgrwt>
<rscale>  0 0.49522198E+03</rscale>
<asrwt>0</asrwt>
<pdfrwt beam="1">  1        1 0.52090143E-01 0.67088872E+03</pdfrwt>
<pdfrwt beam="2">  1       -1 0.89063006E-01 0.67088872E+03</pdfrwt>
<totfact> 0.94577378E+01</totfact>
</mgrwt>
</event>
<event>
 4    2  0.3179755E-007  0.6625351E+03  0.7818608E-02  0.1021697E+00
         -1   -1    0    0    0  501 -0.00000000000E+00  0.00000000000E+00  0.15385206143E+03  0.15385206152E+03  0.50400000000E-02 0.  1.
          1   -1    0    0  501    0  0.00000000000E+00 -0.00000000000E+00 -0.11938737263E+04  0.11938737263E+04  0.50400000000E-02 0. -1.
    8880023    1    1    2    0    0  0.71648736478E+02  0.30020341323E+01 -0.94438817509E+03  0.11536124935E+04  0.65864270000E+03 0. -1.
    8880022    1    1    2    0    0 -0.71648736478E+02 -0.30020341323E+01 -0.95633489748E+02  0.19411329430E+03  0.15294330000E+03 0.  0.
<mgrwt>
<rscale>  0 0.47079018E+03</rscale>
<asrwt>0</asrwt>
<pdfrwt beam="1">  1        1 0.18367287E+00 0.66253510E+03</pdfrwt>
<pdfrwt beam="2">  1       -1 0.23669549E-01 0.66253510E+03</pdfrwt>
<totfact> 0.16984538E+02</totfact>
</mgrwt>
</event>
<event>
 4    2  0.3179755E-007  0.7242286E+03  0.7818608E-02  0.9908529E-01
         -1   -1    0    0    0  501 -0.00000000000E+00  0.00000000000E+00  0.18537204753E+04  0.18537204753E+04  0.50400000000E-02 0.  1.
          1   -1    0    0  501    0  0.00000000000E+00 -0.00000000000E+00 -0.60024358309E+03  0.60024358311E+03  0.50400000000E-02 0. -1.
    8880023    1    1    2    0    0 -0.25231702792E+03 -0.16441729716E+03 -0.35771037848E+03  0.80775234529E+03  0.65864270000E+03 0. -1.
    8880022    1    1    2    0    0  0.25231702792E+03  0.16441729716E+03  0.16111872707E+04  0.16462117131E+04  0.15294330000E+03 0.  0.
<mgrwt>
<rscale>  0 0.59849710E+03</rscale>
<asrwt>0</asrwt>
<pdfrwt beam="1">  1        1 0.92345168E-01 0.72422865E+03</pdfrwt>
<pdfrwt beam="2">  1       -1 0.28518776E+00 0.72422865E+03</pdfrwt>
<totfact> 0.14900249E+00</totfact>
</mgrwt>
</event>
<event>
 4    2  0.3179755E-007  0.8056259E+03  0.7818608E-02  0.9698761E-01
         -1   -1    0    0    0  501 -0.00000000000E+00  0.00000000000E+00  0.47828375111E+03  0.47828375114E+03  0.50400000000E-02 0.  1.
          1   -1    0    0  501    0  0.00000000000E+00 -0.00000000000E+00 -0.15939091859E+04  0.15939091859E+04  0.50400000000E-02 0. -1.
    8880023    1    1    2    0    0  0.46374638411E+03  0.12735214162E+02 -0.13169717298E+04  0.15438418435E+04  0.65864270000E+03 0. -1.
    8880022    1    1    2    0    0 -0.46374638411E+03 -0.12735214162E+02  0.20134629504E+03  0.52835109350E+03  0.15294330000E+03 0.  0.
<mgrwt>
<rscale>  0 0.71090600E+03</rscale>
<asrwt>0</asrwt>
<pdfrwt beam="1">  1        1 0.24521680E+00 0.80562591E+03</pdfrwt>
<pdfrwt beam="2">  1       -1 0.73582116E-01 0.80562591E+03</pdfrwt>
<totfact> 0.10809159E+01</totfact>
</mgrwt>
</event>
<event>
 4    2  0.3179755E-007  0.7181928E+03  0.7818608E-02  0.9928749E-01
         -1   -1    0    0    0  501 -0.00000000000E+00  0.00000000000E+00  0.18809729737E+03  0.18809729743E+03  0.50400000000E-02 0.  1.
          1   -1    0    0  501    0  0.00000000000E+00 -0.00000000000E+00 -0.28371574037E+04  0.28371574037E+04  0.50400000000E-02 0. -1.
    8880023    1    1    2    0    0  0.93747867049E+02  0.27055886670E+03 -0.25994747453E+04  0.26968629778E+04  0.65864270000E+03 0. -1.
    8880022    1    1    2    0    0 -0.93747867049E+02 -0.27055886670E+03 -0.49585360970E+02  0.32839172335E+03  0.15294330000E+03 0.  0.
<mgrwt>
<rscale>  0 0.58888003E+03</rscale>
<asrwt>0</asrwt>
<pdfrwt beam="1">  1        1 0.43648572E+00 0.71819285E+03</pdfrwt>
<pdfrwt beam="2">  1       -1 0.28938048E-01 0.71819285E+03</pdfrwt>
<totfact> 0.90794003E+00</totfact>
</mgrwt>
</event>
<event>
 4    2  0.3179755E-007  0.7691693E+03  0.7818608E-02  0.9781922E-01
          1   -1    0    0  501    0  0.00000000000E+00  0.00000000000E+00  0.54613974146E+03  0.54613974148E+03  0.50400000000E-02 0. -1.
         -1   -1    0    0    0  501 -0.00000000000E+00 -0.00000000000E+00 -0.10242177877E+04  0.10242177877E+04  0.50400000000E-02 0.  1.
    8880023    1    1    2    0    0  0.39676485623E+03 -0.19719892268E+02  0.17685805392E+03  0.78924026937E+03  0.65864270000E+03 0. -1.
    8880022    1    1    2    0    0 -0.39676485623E+03  0.19719892268E+02 -0.65493610015E+03  0.78111725982E+03  0.15294330000E+03 0.  0.
<mgrwt>
<rscale>  0 0.66341777E+03</rscale>
<asrwt>0</asrwt>
<pdfrwt beam="1">  1        1 0.84021499E-01 0.76916931E+03</pdfrwt>
<pdfrwt beam="2">  1       -1 0.15757197E+00 0.76916931E+03</pdfrwt>
<totfact> 0.12267723E+01</totfact>
</mgrwt>
</event>
<event>
 4    2  0.3179755E-007  0.7264891E+03  0.7818608E-02  0.9901211E-01
          1   -1    0    0  501    0  0.00000000000E+00  0.00000000000E+00  0.16110517460E+04  0.16110517461E+04  0.50400000000E-02 0. -1.
         -1   -1    0    0    0  501 -0.00000000000E+00 -0.00000000000E+00 -0.43255731428E+03  0.43255731431E+03  0.50400000000E-02 0.  1.
    8880023    1    1    2    0    0  0.12979120247E+03  0.27772357010E+03  0.14398246107E+04  0.16127247916E+04  0.65864270000E+03 0. -1.
    8880022    1    1    2    0    0 -0.12979120247E+03 -0.27772357010E+03 -0.26133017893E+03  0.43088426875E+03  0.15294330000E+03 0.  0.
<mgrwt>
<rscale>  0 0.60202624E+03</rscale>
<asrwt>0</asrwt>
<pdfrwt beam="1">  1        1 0.24785412E+00 0.72648905E+03</pdfrwt>
<pdfrwt beam="2">  1       -1 0.66547279E-01 0.72648905E+03</pdfrwt>
<totfact> 0.13074717E+01</totfact>
</mgrwt>
</event>
<event>
 4    2  0.3179755E-007  0.6779580E+03  0.7818608E-02  0.1010503E+00
          1   -1    0    0  501    0  0.00000000000E+00  0.00000000000E+00  0.15943433224E+04  0.15943433224E+04  0.50400000000E-02 0. -1.
         -1   -1    0    0    0  501 -0.00000000000E+00 -0.00000000000E+00 -0.27983931610E+03  0.27983931614E+03  0.50400000000E-02 0.  1.
    8880023    1    1    2    0    0  0.71819963805E+02  0.14373155104E+03  0.14594266515E+04  0.16092088812E+04  0.65864270000E+03 0. -1.
    8880022    1    1    2    0    0 -0.71819963805E+02 -0.14373155104E+03 -0.14492264521E+03  0.26497375734E+03  0.15294330000E+03 0.  0.
<mgrwt>
<rscale>  0 0.51275173E+03</rscale>
<asrwt>0</asrwt>
<pdfrwt beam="1">  1        1 0.24528359E+00 0.67795802E+03</pdfrwt>
<pdfrwt beam="2">  1       -1 0.43052202E-01 0.67795802E+03</pdfrwt>
<totfact> 0.31211502E+01</totfact>
</mgrwt>
</event>
<event>
 4    2  0.3179755E-007  0.6674315E+03  0.7818608E-02  0.1017575E+00
          1   -1    0    0  501    0  0.00000000000E+00  0.00000000000E+00  0.20585730999E+03  0.20585731005E+03  0.50400000000E-02 0. -1.
         -1   -1    0    0    0  501 -0.00000000000E+00 -0.00000000000E+00 -0.10715605979E+04  0.10715605980E+04  0.50400000000E-02 0.  1.
    8880023    1    1    2    0    0  0.44946049456E+02  0.98155437099E+02 -0.86198341043E+03  0.10901744096E+04  0.65864270000E+03 0.  0.
    8880022    1    1    2    0    0 -0.44946049456E+02 -0.98155437099E+02 -0.37198775201E+01  0.18724349841E+03  0.15294330000E+03 0.  0.
<mgrwt>
<rscale>  0 0.48571923E+03</rscale>
<asrwt>0</asrwt>
<pdfrwt beam="1">  1        1 0.31670356E-01 0.66743153E+03</pdfrwt>
<pdfrwt beam="2">  1       -1 0.16485547E+00 0.66743153E+03</pdfrwt>
<totfact> 0.39581941E+01</totfact>
</mgrwt>
</event>
<event>
 4    2  0.3179755E-007  0.7707776E+03  0.7818608E-02  0.9777964E-01
         -1   -1    0    0    0  501 -0.00000000000E+00  0.00000000000E+00  0.44723966348E+03  0.44723966351E+03  0.50400000000E-02 0.  1.
          1   -1    0    0  501    0  0.00000000000E+00 -0.00000000000E+00 -0.24866764971E+04  0.24866764972E+04  0.50400000000E-02 0. -1.
    8880023    1    1    2    0    0  0.21193544942E+03  0.33966345558E+03 -0.23045069959E+04  0.24299898350E+04  0.65864270000E+03 0. -1.
    8880022    1    1    2    0    0 -0.21193544942E+03 -0.33966345558E+03  0.26507016223E+03  0.50392632567E+03  0.15294330000E+03 0.  0.
<mgrwt>
<rscale>  0 0.66558636E+03</rscale>
<asrwt>0</asrwt>
<pdfrwt beam="1">  1        1 0.38256561E+00 0.77077760E+03</pdfrwt>
<pdfrwt beam="2">  1       -1 0.68806103E-01 0.77077760E+03</pdfrwt>
<totfact> 0.31271273E+00</totfact>
</mgrwt>
</event>
<event>
 4    2  0.3179755E-007  0.7110638E+03  0.7818608E-02  0.9954072E-01
          1   -1    0    0  501    0  0.00000000000E+00  0.00000000000E+00  0.18628869805E+04  0.18628869805E+04  0.50400000000E-02 0. -1.
         -1   -1    0    0    0  501 -0.00000000000E+00 -0.00000000000E+00 -0.21083235546E+03  0.21083235552E+03  0.50400000000E-02 0.  1.
    8880023    1    1    2    0    0 -0.12278846718E+03 -0.23816910560E+03  0.16129328704E+04  0.17627150029E+04  0.65864270000E+03 0.  0.
    8880022    1    1    2    0    0  0.12278846718E+03  0.23816910560E+03  0.39121754583E+02  0.31100433314E+03  0.15294330000E+03 0.  0.
<mgrwt>
<rscale>  0 0.57710809E+03</rscale>
<asrwt>0</asrwt>
<pdfrwt beam="1">  1        1 0.28659802E+00 0.71106381E+03</pdfrwt>
<pdfrwt beam="2">  1       -1 0.32435744E-01 0.71106381E+03</pdfrwt>
<totfact> 0.34133415E+01</totfact>
</mgrwt>
</event>
<event>
 4    2  0.3179755E-007  0.6951996E+03  0.7818608E-02  0.1001773E+00
         -1   -1    0    0    0  501 -0.00000000000E+00  0.00000000000E+00  0.71340280851E+03  0.71340280853E+03  0.50400000000E-02 0.  1.
          1   -1    0    0  501    0  0.00000000000E+00 -0.00000000000E+00 -0.50610509785E+03  0.50610509788E+03  0.50400000000E-02 0. -1.
    8880023    1    1    2    0    0 -0.78487641237E+02  0.20816344390E+03 -0.20668704678E+03  0.72527379022E+03  0.65864270000E+03 0. -1.
    8880022    1    1    2    0    0  0.78487641237E+02 -0.20816344390E+03  0.41398475743E+03  0.49423411619E+03  0.15294330000E+03 0.  0.
<mgrwt>
<rscale>  0 0.54879629E+03</rscale>
<asrwt>0</asrwt>
<pdfrwt beam="1">  1        1 0.77862322E-01 0.69519964E+03</pdfrwt>
<pdfrwt beam="2">  1       -1 0.10975428E+00 0.69519964E+03</pdfrwt>
<totfact> 0.34398680E+01</totfact>
</mgrwt>
</event>
<event>
 4    2  0.3179755E-007  0.6926627E+03  0.7818608E-02  0.1002912E+00
         -1   -1    0    0    0  501 -0.00000000000E+00  0.00000000000E+00  0.20173573016E+03  0.20173573022E+03  0.50400000000E-02 0.  1.
          1   -1    0    0  501    0  0.00000000000E+00 -0.00000000000E+00 -0.14347240337E+04  0.14347240337E+04  0.50400000000E-02 0. -1.
    8880023    1    1    2    0    0  0.61216967558E+02 -0.20548438055E+03 -0.11793021620E+04  0.13676750869E+04  0.65864270000E+03 0.  0.
    8880022    1    1    2    0    0 -0.61216967558E+02  0.20548438055E+03 -0.53686141477E+02  0.26878467696E+03  0.15294330000E+03 0. -1.
<mgrwt>
<rscale>  0 0.54391660E+03</rscale>
<asrwt>0</asrwt>
<pdfrwt beam="1">  1        1 0.22072677E+00 0.69266266E+03</pdfrwt>
<pdfrwt beam="2">  1       -1 0.31036267E-01 0.69266266E+03</pdfrwt>
<totfact> 0.71944670E+01</totfact>
</mgrwt>
</event>
<event>
 4    2  0.3179755E-007  0.6988540E+03  0.7818608E-02  0.1000199E+00
         -1   -1    0    0    0  501 -0.00000000000E+00  0.00000000000E+00  0.61516355797E+03  0.61516355799E+03  0.50400000000E-02 0.  1.
          1   -1    0    0  501    0  0.00000000000E+00 -0.00000000000E+00 -0.95337480173E+03  0.95337480175E+03  0.50400000000E-02 0. -1.
    8880023    1    1    2    0    0  0.23906784668E+02 -0.23241149670E+03 -0.77912860213E+03  0.10466318470E+04  0.65864270000E+03 0. -1.
    8880022    1    1    2    0    0 -0.23906784668E+02  0.23241149670E+03  0.44091735837E+03  0.52190651278E+03  0.15294330000E+03 0.  0.
<mgrwt>
<rscale>  0 0.55563108E+03</rscale>
<asrwt>0</asrwt>
<pdfrwt beam="1">  1        1 0.14667305E+00 0.69885395E+03</pdfrwt>
<pdfrwt beam="2">  1       -1 0.94640548E-01 0.69885395E+03</pdfrwt>
<totfact> 0.18425774E+01</totfact>
</mgrwt>
</event>
<event>
 4    2  0.3179755E-007  0.7971230E+03  0.7818608E-02  0.9717052E-01
         -1   -1    0    0    0  501 -0.00000000000E+00  0.00000000000E+00  0.53791334461E+03  0.53791334464E+03  0.50400000000E-02 0.  1.
          1   -1    0    0  501    0  0.00000000000E+00 -0.00000000000E+00 -0.75135200971E+03  0.75135200973E+03  0.50400000000E-02 0. -1.
    8880023    1    1    2    0    0 -0.20221833452E+03  0.40087729752E+03 -0.13770123274E+03  0.80892935306E+03  0.65864270000E+03 0. -1.
    8880022    1    1    2    0    0  0.20221833452E+03 -0.40087729752E+03 -0.75737432357E+02  0.48033600131E+03  0.15294330000E+03 0.  1.
<mgrwt>
<rscale>  0 0.70010562E+03</rscale>
<asrwt>0</asrwt>
<pdfrwt beam="1">  1        1 0.11559262E+00 0.79712299E+03</pdfrwt>
<pdfrwt beam="2">  1       -1 0.82755899E-01 0.79712299E+03</pdfrwt>
<totfact> 0.36126408E+01</totfact>
</mgrwt>
</event>
<event>
 4    2  0.3179755E-007  0.1138349E+04  0.7818608E-02  0.9219514E-01
          1   -1    0    0  501    0  0.00000000000E+00  0.00000000000E+00  0.22109360708E+04  0.22109360708E+04  0.50400000000E-02 0. -1.
         -1   -1    0    0    0  501 -0.00000000000E+00 -0.00000000000E+00 -0.62800593777E+03  0.62800593779E+03  0.50400000000E-02 0.  1.
    8880023    1    1    2    0    0 -0.50690849516E+03 -0.77786354825E+03  0.15157085735E+04  0.18955765899E+04  0.65864270000E+03 0. -1.
    8880022    1    1    2    0    0  0.50690849516E+03  0.77786354825E+03  0.67221559580E+02  0.94336541872E+03  0.15294330000E+03 0.  0.
<mgrwt>
<rscale>  0 0.10854259E+04</rscale>
<asrwt>0</asrwt>
<pdfrwt beam="1">  1        1 0.34014401E+00 0.11383489E+04</pdfrwt>
<pdfrwt beam="2">  1       -1 0.96616297E-01 0.11383489E+04</pdfrwt>
<totfact> 0.21972293E+00</totfact>
</mgrwt>
</event>
<event>
 4    2  0.3179755E-007  0.8565424E+03  0.7818608E-02  0.9599744E-01
         -1   -1    0    0    0  501 -0.00000000000E+00  0.00000000000E+00  0.83875578596E+03  0.83875578597E+03  0.50400000000E-02 0.  1.
          1   -1    0    0  501    0  0.00000000000E+00 -0.00000000000E+00 -0.75110274811E+03  0.75110274812E+03  0.50400000000E-02 0. -1.
    8880023    1    1    2    0    0  0.24266952650E+03  0.49088313289E+03  0.39535877579E+03  0.94338407720E+03  0.65864270000E+03 0.  0.
    8880022    1    1    2    0    0 -0.24266952650E+03 -0.49088313289E+03 -0.30770573794E+03  0.64647445690E+03  0.15294330000E+03 0.  0.
<mgrwt>
<rscale>  0 0.77313152E+03</rscale>
<asrwt>0</asrwt>
<pdfrwt beam="1">  1        1 0.11555427E+00 0.85654244E+03</pdfrwt>
<pdfrwt beam="2">  1       -1 0.12903935E+00 0.85654244E+03</pdfrwt>
<totfact> 0.12838429E+01</totfact>
</mgrwt>
</event>
<event>
 4    2  0.3179755E-007  0.9088630E+03  0.7818608E-02  0.9511951E-01
         -1   -1    0    0    0  501 -0.00000000000E+00  0.00000000000E+00  0.12230915173E+04  0.12230915173E+04  0.50400000000E-02 0.  1.
          1   -1    0    0  501    0  0.00000000000E+00 -0.00000000000E+00 -0.86930020178E+03  0.86930020179E+03  0.50400000000E-02 0. -1.
    8880023    1    1    2    0    0 -0.62322406059E+03 -0.61753386965E+02 -0.48840045842E+03  0.10317785249E+04  0.65864270000E+03 0.  0.
    8880022    1    1    2    0    0  0.62322406059E+03  0.61753386965E+02  0.84219177393E+03  0.10606131941E+04  0.15294330000E+03 0.  0.
<mgrwt>
<rscale>  0 0.83408440E+03</rscale>
<asrwt>0</asrwt>
<pdfrwt beam="1">  1        1 0.13373849E+00 0.90886298E+03</pdfrwt>
<pdfrwt beam="2">  1       -1 0.18816793E+00 0.90886298E+03</pdfrwt>
<totfact> 0.35643338E+00</totfact>
</mgrwt>
</event>
<event>
 4    2  0.3179755E-007  0.7763302E+03  0.7818608E-02  0.9764529E-01
          1   -1    0    0  501    0  0.00000000000E+00  0.00000000000E+00  0.20337872552E+03  0.20337872559E+03  0.50400000000E-02 0. -1.
         -1   -1    0    0    0  501 -0.00000000000E+00 -0.00000000000E+00 -0.20306532028E+04  0.20306532028E+04  0.50400000000E-02 0.  1.
    8880023    1    1    2    0    0 -0.22409747224E+03  0.34446860662E+03 -0.78865750687E+03  0.11066477160E+04  0.65864270000E+03 0.  0.
    8880022    1    1    2    0    0  0.22409747224E+03 -0.34446860662E+03 -0.10386169704E+04  0.11273842123E+04  0.15294330000E+03 0.  0.
<mgrwt>
<rscale>  0 0.67301349E+03</rscale>
<asrwt>0</asrwt>
<pdfrwt beam="1">  1        1 0.31289036E-01 0.77633015E+03</pdfrwt>
<pdfrwt beam="2">  1       -1 0.31240817E+00 0.77633015E+03</pdfrwt>
<totfact> 0.41672774E+00</totfact>
</mgrwt>
</event>
<event>
 4    2  0.3179755E-007  0.8140559E+03  0.7818608E-02  0.9681190E-01
         -1   -1    0    0    0  501 -0.00000000000E+00  0.00000000000E+00  0.88466951021E+03  0.88466951022E+03  0.50400000000E-02 0.  1.
          1   -1    0    0  501    0  0.00000000000E+00 -0.00000000000E+00 -0.11362999675E+04  0.11362999675E+04  0.50400000000E-02 0. -1.
    8880023    1    1    2    0    0  0.47797692305E+03 -0.20369713472E+02 -0.89167459496E+03  0.12073817349E+04  0.65864270000E+03 0. -1.
    8880022    1    1    2    0    0 -0.47797692305E+03  0.20369713472E+02  0.64004413764E+03  0.81358774286E+03  0.15294330000E+03 0.  0.
<mgrwt>
<rscale>  0 0.72147879E+03</rscale>
<asrwt>0</asrwt>
<pdfrwt beam="1">  1        1 0.17481538E+00 0.81405594E+03</pdfrwt>
<pdfrwt beam="2">  1       -1 0.13610300E+00 0.81405594E+03</pdfrwt>
<totfact> 0.55178486E+00</totfact>
</mgrwt>
</event>
<event>
 4    2  0.3179755E-007  0.7958124E+03  0.7818608E-02  0.9719925E-01
          1   -1    0    0  501    0  0.00000000000E+00  0.00000000000E+00  0.19770066798E+04  0.19770066798E+04  0.50400000000E-02 0. -1.
         -1   -1    0    0    0  501 -0.00000000000E+00 -0.00000000000E+00 -0.36463606933E+03  0.36463606937E+03  0.50400000000E-02 0.  1.
    8880023    1    1    2    0    0 -0.39225675117E+03  0.21363951462E+03  0.16854649605E+04  0.18638963331E+04  0.65864270000E+03 0. -1.
    8880022    1    1    2    0    0  0.39225675117E+03 -0.21363951462E+03 -0.73094350077E+02  0.47774641607E+03  0.15294330000E+03 0.  1.
<mgrwt>
<rscale>  0 0.69842779E+03</rscale>
<asrwt>0</asrwt>
<pdfrwt beam="1">  1        1 0.30415488E+00 0.79581242E+03</pdfrwt>
<pdfrwt beam="2">  1       -1 0.56097857E-01 0.79581242E+03</pdfrwt>
<totfact> 0.10309174E+01</totfact>
</mgrwt>
</event>
<event>
 4    2  0.3179755E-007  0.6853739E+03  0.7818608E-02  0.1006434E+00
          1   -1    0    0  501    0  0.00000000000E+00  0.00000000000E+00  0.85970892100E+03  0.85970892102E+03  0.50400000000E-02 0. -1.
         -1   -1    0    0    0  501 -0.00000000000E+00 -0.00000000000E+00 -0.44863951250E+03  0.44863951253E+03  0.50400000000E-02 0.  1.
    8880023    1    1    2    0    0 -0.18504176888E+03  0.41069870609E+02  0.66607784883E+03  0.95571810565E+03  0.65864270000E+03 0. -1.
    8880022    1    1    2    0    0  0.18504176888E+03 -0.41069870609E+02 -0.25500844033E+03  0.35263032790E+03  0.15294330000E+03 0.  0.
<mgrwt>
<rscale>  0 0.52916945E+03</rscale>
<asrwt>0</asrwt>
<pdfrwt beam="1">  1        1 0.13226291E+00 0.68537391E+03</pdfrwt>
<pdfrwt beam="2">  1       -1 0.69021464E-01 0.68537391E+03</pdfrwt>
<totfact> 0.43030540E+01</totfact>
</mgrwt>
</event>
<event>
 4    2  0.3179755E-007  0.7230933E+03  0.7818608E-02  0.9912255E-01
          1   -1    0    0  501    0  0.00000000000E+00  0.00000000000E+00  0.27640668030E+04  0.27640668030E+04  0.50400000000E-02 0. -1.
         -1   -1    0    0    0  501 -0.00000000000E+00 -0.00000000000E+00 -0.31066986891E+03  0.31066986895E+03  0.50400000000E-02 0.  1.
    8880023    1    1    2    0    0  0.20586825920E+03  0.21603711115E+03  0.26073467606E+04  0.27057570308E+04  0.65864270000E+03 0. -1.
    8880022    1    1    2    0    0 -0.20586825920E+03 -0.21603711115E+03 -0.15394982645E+03  0.36897964120E+03  0.15294330000E+03 0.  0.
<mgrwt>
<rscale>  0 0.59671025E+03</rscale>
<asrwt>0</asrwt>
<pdfrwt beam="1">  1        1 0.42524106E+00 0.72309334E+03</pdfrwt>
<pdfrwt beam="2">  1       -1 0.47795363E-01 0.72309334E+03</pdfrwt>
<totfact> 0.41372616E+00</totfact>
</mgrwt>
</event>
<event>
 4    2  0.3179755E-007  0.7559569E+03  0.7818608E-02  0.9815689E-01
         -1   -1    0    0    0  501 -0.00000000000E+00  0.00000000000E+00  0.45061968514E+03  0.45061968516E+03  0.50400000000E-02 0.  1.
          1   -1    0    0  501    0  0.00000000000E+00 -0.00000000000E+00 -0.99089140407E+03  0.99089140408E+03  0.50400000000E-02 0. -1.
    8880023    1    1    2    0    0  0.21019587843E+03 -0.30574213502E+03 -0.67977352508E+03  0.10166429128E+04  0.65864270000E+03 0.  0.
    8880022    1    1    2    0    0 -0.21019587843E+03  0.30574213502E+03  0.13950180615E+03  0.42486817646E+03  0.15294330000E+03 0.  0.
<mgrwt>
<rscale>  0 0.64527315E+03</rscale>
<asrwt>0</asrwt>
<pdfrwt beam="1">  1        1 0.15244483E+00 0.75595686E+03</pdfrwt>
<pdfrwt beam="2">  1       -1 0.69326106E-01 0.75595686E+03</pdfrwt>
<totfact> 0.33207899E+01</totfact>
</mgrwt>
</event>
<event>
 4    2  0.3179755E-007  0.7424860E+03  0.7818608E-02  0.9852764E-01
         -1   -1    0    0    0  501 -0.00000000000E+00  0.00000000000E+00  0.11041628732E+03  0.11041628743E+03  0.50400000000E-02 0.  1.
          1   -1    0    0  501    0  0.00000000000E+00 -0.00000000000E+00 -0.38543416998E+04  0.38543416998E+04  0.50400000000E-02 0. -1.
    8880023    1    1    2    0    0 -0.13237763022E+03 -0.31615093066E+03 -0.33043911302E+04  0.33867810965E+04  0.65864270000E+03 0.  0.
    8880022    1    1    2    0    0  0.13237763022E+03  0.31615093066E+03 -0.43953428236E+03  0.57797689082E+03  0.15294330000E+03 0.  0.
<mgrwt>
<rscale>  0 0.62606197E+03</rscale>
<asrwt>0</asrwt>
<pdfrwt beam="1">  1        1 0.59297554E+00 0.74248600E+03</pdfrwt>
<pdfrwt beam="2">  1       -1 0.16987124E-01 0.74248600E+03</pdfrwt>
<totfact> 0.37592192E+00</totfact>
</mgrwt>
</event>
<event>
 4    2  0.3179755E-007  0.6840432E+03  0.7818608E-02  0.1007123E+00
          1   -1    0    0  501    0  0.00000000000E+00  0.00000000000E+00  0.23655302295E+03  0.23655302300E+03  0.50400000000E-02 0. -1.
         -1   -1    0    0    0  501 -0.00000000000E+00 -0.00000000000E+00 -0.16538946092E+04  0.16538946092E+04  0.50400000000E-02 0.  1.
    8880023    1    1    2    0    0 -0.10615872649E+03  0.15111327593E+03 -0.29873563525E+03  0.74643022675E+03  0.65864270000E+03 0. -1.
    8880022    1    1    2    0    0  0.10615872649E+03 -0.15111327593E+03 -0.11186059510E+04  0.11440174054E+04  0.15294330000E+03 0.  0.
<mgrwt>
<rscale>  0 0.52634181E+03</rscale>
<asrwt>0</asrwt>
<pdfrwt beam="1">  1        1 0.36392774E-01 0.68404320E+03</pdfrwt>
<pdfrwt beam="2">  1       -1 0.25444532E+00 0.68404320E+03</pdfrwt>
<totfact> 0.81487448E+00</totfact>
</mgrwt>
</event>
<event>
 4    2  0.3179755E-007  0.8355481E+03  0.7818608E-02  0.9638632E-01
          1   -1    0    0  501    0  0.00000000000E+00  0.00000000000E+00  0.15863311284E+04  0.15863311284E+04  0.50400000000E-02 0. -1.
         -1   -1    0    0    0  501 -0.00000000000E+00 -0.00000000000E+00 -0.47557035653E+03  0.47557035656E+03  0.50400000000E-02 0.  1.
    8880023    1    1    2    0    0 -0.35335615266E+03  0.37345670351E+03  0.12538517002E+04  0.15067464194E+04  0.65864270000E+03 0.  0.
    8880022    1    1    2    0    0  0.35335615266E+03 -0.37345670351E+03 -0.14309092835E+03  0.55515506555E+03  0.15294330000E+03 0.  0.
<mgrwt>
<rscale>  0 0.74791159E+03</rscale>
<asrwt>0</asrwt>
<pdfrwt beam="1">  1        1 0.24405094E+00 0.83554814E+03</pdfrwt>
<pdfrwt beam="2">  1       -1 0.73164670E-01 0.83554814E+03</pdfrwt>
<totfact> 0.11023298E+01</totfact>
</mgrwt>
</event>
<event>
 4    2  0.3179755E-007  0.7181342E+03  0.7818608E-02  0.9928950E-01
          1   -1    0    0  501    0  0.00000000000E+00  0.00000000000E+00  0.82888223301E+03  0.82888223303E+03  0.50400000000E-02 0. -1.
         -1   -1    0    0    0  501 -0.00000000000E+00 -0.00000000000E+00 -0.33015641027E+03  0.33015641031E+03  0.50400000000E-02 0.  1.
    8880023    1    1    2    0    0  0.97927191728E+02 -0.26891793115E+03  0.29822536983E+03  0.77759576005E+03  0.65864270000E+03 0.  1.
    8880022    1    1    2    0    0 -0.97927191728E+02  0.26891793115E+03  0.20050045292E+03  0.38144288328E+03  0.15294330000E+03 0. -1.
<mgrwt>
<rscale>  0 0.58878518E+03</rscale>
<asrwt>0</asrwt>
<pdfrwt beam="1">  1        1 0.12752034E+00 0.71813425E+03</pdfrwt>
<pdfrwt beam="2">  1       -1 0.50793295E-01 0.71813425E+03</pdfrwt>
<totfact> 0.83139625E+01</totfact>
</mgrwt>
</event>
<event>
 4    2  0.3179755E-007  0.1658938E+04  0.7818608E-02  0.8804863E-01
          1   -1    0    0  501    0  0.00000000000E+00  0.00000000000E+00  0.17940933293E+04  0.17940933293E+04  0.50400000000E-02 0. -1.
         -1   -1    0    0    0  501 -0.00000000000E+00 -0.00000000000E+00 -0.21062354239E+04  0.21062354239E+04  0.50400000000E-02 0.  1.
    8880023    1    1    2    0    0  0.30512125121E+03 -0.14916986158E+04  0.95443923060E+03  0.19139039133E+04  0.65864270000E+03 0.  0.
    8880022    1    1    2    0    0 -0.30512125121E+03  0.14916986158E+04 -0.12665813252E+04  0.19864248399E+04  0.15294330000E+03 0.  0.
<mgrwt>
<rscale>  0 0.16257842E+04</rscale>
<asrwt>0</asrwt>
<pdfrwt beam="1">  1        1 0.27601436E+00 0.16589376E+04</pdfrwt>
<pdfrwt beam="2">  1       -1 0.32403622E+00 0.16589376E+04</pdfrwt>
<totfact> 0.87712408E-02</totfact>
</mgrwt>
</event>
<event>
 4    2  0.3179755E-007  0.8542989E+03  0.7818608E-02  0.9603786E-01
         -1   -1    0    0    0  501 -0.00000000000E+00  0.00000000000E+00  0.41460597958E+03  0.41460597961E+03  0.50400000000E-02 0.  1.
          1   -1    0    0  501    0  0.00000000000E+00 -0.00000000000E+00 -0.18300968154E+04  0.18300968154E+04  0.50400000000E-02 0. -1.
    8880023    1    1    2    0    0 -0.54363831464E+03  0.21765513945E+02 -0.14451371679E+04  0.16787638294E+04  0.65864270000E+03 0. -1.
    8880022    1    1    2    0    0  0.54363831464E+03 -0.21765513945E+02  0.29646332081E+02  0.56593896558E+03  0.15294330000E+03 0.  0.
<mgrwt>
<rscale>  0 0.77046089E+03</rscale>
<asrwt>0</asrwt>
<pdfrwt beam="1">  1        1 0.28155335E+00 0.85429887E+03</pdfrwt>
<pdfrwt beam="2">  1       -1 0.63785536E-01 0.85429887E+03</pdfrwt>
<totfact> 0.99552537E+00</totfact>
</mgrwt>
</event>
<event>
 4    2  0.3556912E-007  0.1203246E+04  0.7818608E-02  0.9153973E-01
         -1   -1    0    0    0  501 -0.00000000000E+00  0.00000000000E+00  0.12944139566E+04  0.12944139566E+04  0.50400000000E-02 0.  1.
          1   -1    0    0  501    0  0.00000000000E+00 -0.00000000000E+00 -0.19732590494E+04  0.19732590494E+04  0.50400000000E-02 0. -1.
    8880023    1    1    2    0    0  0.64260925859E+03 -0.77527052036E+03 -0.15256998531E+04  0.19430803604E+04  0.65864270000E+03 0.  0.
    8880022    1    1    2    0    0 -0.64260925859E+03  0.77527052036E+03  0.84685476024E+03  0.13245926457E+04  0.15294330000E+03 0.  0.
<mgrwt>
<rscale>  0 0.11541393E+04</rscale>
<asrwt>0</asrwt>
<pdfrwt beam="1">  1        1 0.30357832E+00 0.12032461E+04</pdfrwt>
<pdfrwt beam="2">  1       -1 0.19914061E+00 0.12032461E+04</pdfrwt>
<totfact> 0.46511712E-01</totfact>
</mgrwt>
</event>
<event>
 4    2  0.3179755E-007  0.7855926E+03  0.7818608E-02  0.9742860E-01
         -1   -1    0    0    0  501 -0.00000000000E+00  0.00000000000E+00  0.10212114122E+04  0.10212114122E+04  0.50400000000E-02 0.  1.
          1   -1    0    0  501    0  0.00000000000E+00 -0.00000000000E+00 -0.11469178619E+04  0.11469178619E+04  0.50400000000E-02 0. -1.
    8880023    1    1    2    0    0  0.19278588254E+03  0.38233379116E+03 -0.94635651453E+03  0.12299375526E+04  0.65864270000E+03 0. -1.
    8880022    1    1    2    0    0 -0.19278588254E+03 -0.38233379116E+03  0.82065006484E+03  0.93819172151E+03  0.15294330000E+03 0.  0.
<mgrwt>
<rscale>  0 0.68521263E+03</rscale>
<asrwt>0</asrwt>
<pdfrwt beam="1">  1        1 0.17644890E+00 0.78559260E+03</pdfrwt>
<pdfrwt beam="2">  1       -1 0.15710945E+00 0.78559260E+03</pdfrwt>
<totfact> 0.37160824E+00</totfact>
</mgrwt>
</event>
<event>
 4    2  0.3179755E-007  0.7943416E+03  0.7818608E-02  0.9723167E-01
         -1   -1    0    0    0  501 -0.00000000000E+00  0.00000000000E+00  0.68475228157E+03  0.68475228158E+03  0.50400000000E-02 0.  1.
          1   -1    0    0  501    0  0.00000000000E+00 -0.00000000000E+00 -0.15046145425E+04  0.15046145425E+04  0.50400000000E-02 0. -1.
    8880023    1    1    2    0    0  0.11374024599E+03  0.42922201714E+03 -0.12963338956E+04  0.15203486964E+04  0.65864270000E+03 0.  0.
    8880022    1    1    2    0    0 -0.11374024599E+03 -0.42922201714E+03  0.47647163464E+03  0.66901812770E+03  0.15294330000E+03 0.  0.
<mgrwt>
<rscale>  0 0.69654044E+03</rscale>
<asrwt>0</asrwt>
<pdfrwt beam="1">  1        1 0.23147916E+00 0.79434161E+03</pdfrwt>
<pdfrwt beam="2">  1       -1 0.10534650E+00 0.79434161E+03</pdfrwt>
<totfact> 0.56730066E+00</totfact>
</mgrwt>
</event>
<event>
 4    2  0.3179755E-007  0.6787128E+03  0.7818608E-02  0.1010061E+00
          1   -1    0    0  501    0  0.00000000000E+00  0.00000000000E+00  0.81053336488E+03  0.81053336490E+03  0.50400000000E-02 0. -1.
         -1   -1    0    0    0  501 -0.00000000000E+00 -0.00000000000E+00 -0.26650095436E+03  0.26650095441E+03  0.50400000000E-02 0.  1.
    8880023    1    1    2    0    0 -0.47280517257E+02 -0.15686112772E+03  0.51298686996E+03  0.85076823854E+03  0.65864270000E+03 0. -1.
    8880022    1    1    2    0    0  0.47280517257E+02  0.15686112772E+03  0.31045540563E+02  0.22626608077E+03  0.15294330000E+03 0. -1.
<mgrwt>
<rscale>  0 0.51450268E+03</rscale>
<asrwt>0</asrwt>
<pdfrwt beam="1">  1        1 0.12469744E+00 0.67871280E+03</pdfrwt>
<pdfrwt beam="2">  1       -1 0.41000147E-01 0.67871280E+03</pdfrwt>
<totfact> 0.12878007E+02</totfact>
</mgrwt>
</event>
<event>
 4    2  0.3179755E-007  0.6715249E+03  0.7818608E-02  0.1014592E+00
          1   -1    0    0  501    0  0.00000000000E+00  0.00000000000E+00  0.85237513784E+03  0.85237513785E+03  0.50400000000E-02 0. -1.
         -1   -1    0    0    0  501 -0.00000000000E+00 -0.00000000000E+00 -0.54319625354E+03  0.54319625357E+03  0.50400000000E-02 0.  1.
    8880023    1    1    2    0    0  0.12385533689E+03  0.42371490430E+02  0.69123769060E+03  0.96371948141E+03  0.65864270000E+03 0. -1.
    8880022    1    1    2    0    0 -0.12385533689E+03 -0.42371490430E+02 -0.38205880631E+03  0.43185191000E+03  0.15294330000E+03 0.  0.
<mgrwt>
<rscale>  0 0.49689524E+03</rscale>
<asrwt>0</asrwt>
<pdfrwt beam="1">  1        1 0.13113464E+00 0.67152490E+03</pdfrwt>
<pdfrwt beam="2">  1       -1 0.83568655E-01 0.67152490E+03</pdfrwt>
<totfact> 0.29315138E+01</totfact>
</mgrwt>
</event>
<event>
 4    2  0.3179755E-007  0.6816833E+03  0.7818608E-02  0.1008387E+00
          1   -1    0    0  501    0  0.00000000000E+00  0.00000000000E+00  0.14966419835E+04  0.14966419835E+04  0.50400000000E-02 0. -1.
         -1   -1    0    0    0  501 -0.00000000000E+00 -0.00000000000E+00 -0.36352103610E+03  0.36352103614E+03  0.50400000000E-02 0.  1.
    8880023    1    1    2    0    0 -0.70033168065E+02  0.16117458838E+03  0.13685652026E+04  0.15289417297E+04  0.65864270000E+03 0. -1.
    8880022    1    1    2    0    0  0.70033168065E+02 -0.16117458838E+03 -0.23544425526E+03  0.33122128996E+03  0.15294330000E+03 0.  0.
<mgrwt>
<rscale>  0 0.52120732E+03</rscale>
<asrwt>0</asrwt>
<pdfrwt beam="1">  1        1 0.23025262E+00 0.68168328E+03</pdfrwt>
<pdfrwt beam="2">  1       -1 0.55926312E-01 0.68168328E+03</pdfrwt>
<totfact> 0.22198333E+01</totfact>
</mgrwt>
</event>
<event>
 4    2  0.3179755E-007  0.8610433E+03  0.7818608E-02  0.9591710E-01
          1   -1    0    0  501    0  0.00000000000E+00  0.00000000000E+00  0.20231716813E+04  0.20231716813E+04  0.50400000000E-02 0. -1.
         -1   -1    0    0    0  501 -0.00000000000E+00 -0.00000000000E+00 -0.28226766492E+03  0.28226766496E+03  0.50400000000E-02 0.  1.
    8880023    1    1    2    0    0 -0.45141485807E+03 -0.32219544457E+03  0.67460366631E+03  0.10938398381E+04  0.65864270000E+03 0.  1.
    8880022    1    1    2    0    0  0.45141485807E+03  0.32219544457E+03  0.10663003501E+04  0.12115995082E+04  0.15294330000E+03 0.  0.
<mgrwt>
<rscale>  0 0.77847280E+03</rscale>
<asrwt>0</asrwt>
<pdfrwt beam="1">  1        1 0.31125719E+00 0.86104325E+03</pdfrwt>
<pdfrwt beam="2">  1       -1 0.43425793E-01 0.86104325E+03</pdfrwt>
<totfact> 0.15452869E+01</totfact>
</mgrwt>
</event>
<event>
 4    2  0.3179755E-007  0.9097586E+03  0.7818608E-02  0.9510544E-01
          1   -1    0    0  501    0  0.00000000000E+00  0.00000000000E+00  0.10628519813E+04  0.10628519813E+04  0.50400000000E-02 0. -1.
         -1   -1    0    0    0  501 -0.00000000000E+00 -0.00000000000E+00 -0.83195566015E+03  0.83195566017E+03  0.50400000000E-02 0.  1.
    8880023    1    1    2    0    0 -0.21931865910E+03 -0.58800499430E+03  0.65593599144E+03  0.11215671084E+04  0.65864270000E+03 0. -1.
    8880022    1    1    2    0    0  0.21931865910E+03  0.58800499430E+03 -0.42503967033E+03  0.77324053303E+03  0.15294330000E+03 0.  0.
<mgrwt>
<rscale>  0 0.83510900E+03</rscale>
<asrwt>0</asrwt>
<pdfrwt beam="1">  1        1 0.16351569E+00 0.90975862E+03</pdfrwt>
<pdfrwt beam="2">  1       -1 0.12799318E+00 0.90975862E+03</pdfrwt>
<totfact> 0.72290530E+00</totfact>
</mgrwt>
</event>
<event>
 4    2  0.3179755E-007  0.8123371E+03  0.7818608E-02  0.9684729E-01
          1   -1    0    0  501    0  0.00000000000E+00  0.00000000000E+00  0.15309185449E+04  0.15309185449E+04  0.50400000000E-02 0. -1.
         -1   -1    0    0    0  501 -0.00000000000E+00 -0.00000000000E+00 -0.47067551798E+03  0.47067551801E+03  0.50400000000E-02 0.  1.
    8880023    1    1    2    0    0  0.35657462217E+03  0.31454064987E+03  0.12300195055E+04  0.14740554507E+04  0.65864270000E+03 0.  0.
    8880022    1    1    2    0    0 -0.35657462217E+03 -0.31454064987E+03 -0.16977647864E+03  0.52753861215E+03  0.15294330000E+03 0.  0.
<mgrwt>
<rscale>  0 0.71933324E+03</rscale>
<asrwt>0</asrwt>
<pdfrwt beam="1">  1        1 0.23552592E+00 0.81233705E+03</pdfrwt>
<pdfrwt beam="2">  1       -1 0.72411620E-01 0.81233705E+03</pdfrwt>
<totfact> 0.12324330E+01</totfact>
</mgrwt>
</event>
<event>
 4    2  0.3179755E-007  0.7776484E+03  0.7818608E-02  0.9761390E-01
         -1   -1    0    0    0  501 -0.00000000000E+00  0.00000000000E+00  0.12639035192E+04  0.12639035192E+04  0.50400000000E-02 0.  1.
          1   -1    0    0  501    0  0.00000000000E+00 -0.00000000000E+00 -0.33420794345E+03  0.33420794348E+03  0.50400000000E-02 0. -1.
    8880023    1    1    2    0    0  0.39036196653E+03  0.13617743161E+03  0.30895797610E+03  0.83677475765E+03  0.65864270000E+03 0. -1.
    8880022    1    1    2    0    0 -0.39036196653E+03 -0.13617743161E+03  0.62073759964E+03  0.76133670502E+03  0.15294330000E+03 0.  0.
<mgrwt>
<rscale>  0 0.67476366E+03</rscale>
<asrwt>0</asrwt>
<pdfrwt beam="1">  1        1 0.51416607E-01 0.77764836E+03</pdfrwt>
<pdfrwt beam="2">  1       -1 0.19444669E+00 0.77764836E+03</pdfrwt>
<totfact> 0.12845831E+01</totfact>
</mgrwt>
</event>
<event>
 4    2  0.3179755E-007  0.7160030E+03  0.7818608E-02  0.9936350E-01
          1   -1    0    0  501    0  0.00000000000E+00  0.00000000000E+00  0.12816617792E+04  0.12816617792E+04  0.50400000000E-02 0. -1.
         -1   -1    0    0    0  501 -0.00000000000E+00 -0.00000000000E+00 -0.32857059280E+03  0.32857059284E+03  0.50400000000E-02 0.  1.
    8880023    1    1    2    0    0  0.27810583602E+03  0.38822810649E+02  0.10546542367E+04  0.12747375541E+04  0.65864270000E+03 0. -1.
    8880022    1    1    2    0    0 -0.27810583602E+03 -0.38822810649E+02 -0.10156305030E+03  0.33549481792E+03  0.15294330000E+03 0.  0.
<mgrwt>
<rscale>  0 0.58531498E+03</rscale>
<asrwt>0</asrwt>
<pdfrwt beam="1">  1        1 0.19717873E+00 0.71600298E+03</pdfrwt>
<pdfrwt beam="2">  1       -1 0.50549323E-01 0.71600298E+03</pdfrwt>
<totfact> 0.37829709E+01</totfact>
</mgrwt>
</event>
<event>
 4    2  0.3179755E-007  0.7774789E+03  0.7818608E-02  0.9761793E-01
         -1   -1    0    0    0  501 -0.00000000000E+00  0.00000000000E+00  0.19033895512E+03  0.19033895519E+03  0.50400000000E-02 0.  1.
          1   -1    0    0  501    0  0.00000000000E+00 -0.00000000000E+00 -0.25552413111E+04  0.25552413111E+04  0.50400000000E-02 0. -1.
    8880023    1    1    2    0    0  0.21490224575E+03  0.35281756999E+03 -0.20810272350E+04  0.22215192486E+04  0.65864270000E+03 0.  0.
    8880022    1    1    2    0    0 -0.21490224575E+03 -0.35281756999E+03 -0.28387512097E+03  0.52406101767E+03  0.15294330000E+03 0.  0.
<mgrwt>
<rscale>  0 0.67453893E+03</rscale>
<asrwt>0</asrwt>
<pdfrwt beam="1">  1        1 0.39311402E+00 0.77747889E+03</pdfrwt>
<pdfrwt beam="2">  1       -1 0.29282918E-01 0.77747889E+03</pdfrwt>
<totfact> 0.13824360E+01</totfact>
</mgrwt>
</event>
<event>
 4    2  0.3179755E-007  0.9761329E+03  0.7818608E-02  0.9413471E-01
         -1   -1    0    0    0  501 -0.00000000000E+00  0.00000000000E+00  0.21008500792E+03  0.21008500799E+03  0.50400000000E-02 0.  1.
          1   -1    0    0  501    0  0.00000000000E+00 -0.00000000000E+00 -0.38193039939E+04  0.38193039939E+04  0.50400000000E-02 0. -1.
    8880023    1    1    2    0    0 -0.12097505156E+03  0.71020444543E+03 -0.26213347123E+04  0.27971827251E+04  0.65864270000E+03 0.  0.
    8880022    1    1    2    0    0  0.12097505156E+03 -0.71020444543E+03 -0.98788427373E+03  0.12322062768E+04  0.15294330000E+03 0.  0.
<mgrwt>
<rscale>  0 0.90975277E+03</rscale>
<asrwt>0</asrwt>
<pdfrwt beam="1">  1        1 0.58758518E+00 0.97613294E+03</pdfrwt>
<pdfrwt beam="2">  1       -1 0.32320773E-01 0.97613294E+03</pdfrwt>
<totfact> 0.12905650E+00</totfact>
</mgrwt>
</event>
<event>
 4    2  0.3179755E-007  0.1085024E+04  0.7818608E-02  0.9277916E-01
         -1   -1    0    0    0  501 -0.00000000000E+00  0.00000000000E+00  0.11610361176E+04  0.11610361176E+04  0.50400000000E-02 0.  1.
          1   -1    0    0  501    0  0.00000000000E+00 -0.00000000000E+00 -0.96169407935E+03  0.96169407936E+03  0.50400000000E-02 0. -1.
    8880023    1    1    2    0    0 -0.59137177665E+03  0.62749237120E+03  0.50290061214E+03  0.11959040455E+04  0.65864270000E+03 0.  1.
    8880022    1    1    2    0    0  0.59137177665E+03 -0.62749237120E+03 -0.30355857393E+03  0.92682615142E+03  0.15294330000E+03 0.  0.
<mgrwt>
<rscale>  0 0.10284164E+04</rscale>
<asrwt>0</asrwt>
<pdfrwt beam="1">  1        1 0.14795293E+00 0.10850242E+04</pdfrwt>
<pdfrwt beam="2">  1       -1 0.17862094E+00 0.10850242E+04</pdfrwt>
<totfact> 0.34313876E+00</totfact>
</mgrwt>
</event>
<event>
 4    2  0.3179755E-007  0.8721149E+03  0.7818608E-02  0.9572366E-01
         -1   -1    0    0    0  501 -0.00000000000E+00  0.00000000000E+00  0.66569830186E+03  0.66569830188E+03  0.50400000000E-02 0.  1.
          1   -1    0    0  501    0  0.00000000000E+00 -0.00000000000E+00 -0.89959852014E+03  0.89959852015E+03  0.50400000000E-02 0. -1.
    8880023    1    1    2    0    0 -0.55404425409E+03 -0.14074528255E+03 -0.38690795908E+03  0.95408712658E+03  0.65864270000E+03 0.  0.
    8880022    1    1    2    0    0  0.55404425409E+03  0.14074528255E+03  0.15300774080E+03  0.61120969545E+03  0.15294330000E+03 0.  0.
<mgrwt>
<rscale>  0 0.79152481E+03</rscale>
<asrwt>0</asrwt>
<pdfrwt beam="1">  1        1 0.13839977E+00 0.87211494E+03</pdfrwt>
<pdfrwt beam="2">  1       -1 0.10241512E+00 0.87211494E+03</pdfrwt>
<totfact> 0.16674255E+01</totfact>
</mgrwt>
</event>
<event>
 4    2  0.3179755E-007  0.7096111E+03  0.7818608E-02  0.9959448E-01
          1   -1    0    0  501    0  0.00000000000E+00  0.00000000000E+00  0.59588306668E+03  0.59588306670E+03  0.50400000000E-02 0. -1.
         -1   -1    0    0    0  501 -0.00000000000E+00 -0.00000000000E+00 -0.91013924164E+03  0.91013924165E+03  0.50400000000E-02 0.  1.
    8880023    1    1    2    0    0 -0.23448952194E+03 -0.12145927774E+03  0.33793159887E+03  0.78596797888E+03  0.65864270000E+03 0.  0.
    8880022    1    1    2    0    0  0.23448952194E+03  0.12145927774E+03 -0.65218777382E+03  0.72005432947E+03  0.15294330000E+03 0.  1.
<mgrwt>
<rscale>  0 0.57464696E+03</rscale>
<asrwt>0</asrwt>
<pdfrwt beam="1">  1        1 0.91674318E-01 0.70961109E+03</pdfrwt>
<pdfrwt beam="2">  1       -1 0.14002142E+00 0.70961109E+03</pdfrwt>
<totfact> 0.14971989E+01</totfact>
</mgrwt>
</event>
<event>
 4    2  0.3179755E-007  0.7186646E+03  0.7818608E-02  0.9927131E-01
         -1   -1    0    0    0  501 -0.00000000000E+00  0.00000000000E+00  0.24818700632E+03  0.24818700637E+03  0.50400000000E-02 0.  1.
          1   -1    0    0  501    0  0.00000000000E+00 -0.00000000000E+00 -0.12825956454E+04  0.12825956455E+04  0.50400000000E-02 0. -1.
    8880023    1    1    2    0    0 -0.25238441222E+03  0.13773400341E+03 -0.95566067843E+03  0.11957282659E+04  0.65864270000E+03 0.  0.
    8880022    1    1    2    0    0  0.25238441222E+03 -0.13773400341E+03 -0.78747960700E+02  0.33505438597E+03  0.15294330000E+03 0.  0.
<mgrwt>
<rscale>  0 0.58964243E+03</rscale>
<asrwt>0</asrwt>
<pdfrwt beam="1">  1        1 0.19732240E+00 0.71866456E+03</pdfrwt>
<pdfrwt beam="2">  1       -1 0.38182617E-01 0.71866456E+03</pdfrwt>
<totfact> 0.63427318E+01</totfact>
</mgrwt>
</event>
<event>
 4    2  0.3179755E-007  0.7265217E+03  0.7818608E-02  0.9901106E-01
          1   -1    0    0  501    0  0.00000000000E+00  0.00000000000E+00  0.19097765574E+03  0.19097765580E+03  0.50400000000E-02 0. -1.
         -1   -1    0    0    0  501 -0.00000000000E+00 -0.00000000000E+00 -0.15618769407E+04  0.15618769407E+04  0.50400000000E-02 0.  1.
    8880023    1    1    2    0    0 -0.21768887671E+03 -0.21595174003E+03 -0.75328492111E+03  0.10465524257E+04  0.65864270000E+03 0.  0.
    8880022    1    1    2    0    0  0.21768887671E+03  0.21595174003E+03 -0.61761436386E+03  0.70630217083E+03  0.15294330000E+03 0.  0.
<mgrwt>
<rscale>  0 0.60207697E+03</rscale>
<asrwt>0</asrwt>
<pdfrwt beam="1">  1        1 0.29381179E-01 0.72652172E+03</pdfrwt>
<pdfrwt beam="2">  1       -1 0.24028875E+00 0.72652172E+03</pdfrwt>
<totfact> 0.13198626E+01</totfact>
</mgrwt>
</event>
<event>
 4    2  0.3179755E-007  0.7053704E+03  0.7818608E-02  0.9975612E-01
          1   -1    0    0  501    0  0.00000000000E+00  0.00000000000E+00  0.12789271225E+04  0.12789271225E+04  0.50400000000E-02 0. -1.
         -1   -1    0    0    0  501 -0.00000000000E+00 -0.00000000000E+00 -0.44708021711E+03  0.44708021714E+03  0.50400000000E-02 0.  1.
    8880023    1    1    2    0    0  0.19380534438E+03 -0.16179199798E+03  0.11134346206E+04  0.13180607053E+04  0.65864270000E+03 0. -1.
    8880022    1    1    2    0    0 -0.19380534438E+03  0.16179199798E+03 -0.28158771523E+03  0.40794663438E+03  0.15294330000E+03 0.  0.
<mgrwt>
<rscale>  0 0.56732659E+03</rscale>
<asrwt>0</asrwt>
<pdfrwt beam="1">  1        1 0.19675802E+00 0.70537038E+03</pdfrwt>
<pdfrwt beam="2">  1       -1 0.68781572E-01 0.70537038E+03</pdfrwt>
<totfact> 0.20791384E+01</totfact>
</mgrwt>
</event>
<event>
 4    2  0.3179755E-007  0.1098437E+04  0.7818608E-02  0.9262798E-01
         -1   -1    0    0    0  501 -0.00000000000E+00  0.00000000000E+00  0.23175483361E+04  0.23175483361E+04  0.50400000000E-02 0.  1.
          1   -1    0    0  501    0  0.00000000000E+00 -0.00000000000E+00 -0.43736995540E+03  0.43736995543E+03  0.50400000000E-02 0. -1.
    8880023    1    1    2    0    0  0.86637641705E+03  0.14881366075E+03  0.82930682643E+03  0.13763406629E+04  0.65864270000E+03 0.  0.
    8880022    1    1    2    0    0 -0.86637641705E+03 -0.14881366075E+03  0.10508715543E+04  0.13785776287E+04  0.15294330000E+03 0.  0.
<mgrwt>
<rscale>  0 0.10428105E+04</rscale>
<asrwt>0</asrwt>
<pdfrwt beam="1">  1        1 0.67287686E-01 0.10984370E+04</pdfrwt>
<pdfrwt beam="2">  1       -1 0.35654589E+00 0.10984370E+04</pdfrwt>
<totfact> 0.75440923E-01</totfact>
</mgrwt>
</event>
<event>
 4    2  0.3179755E-007  0.7642709E+03  0.7818608E-02  0.9794174E-01
          1   -1    0    0  501    0  0.00000000000E+00  0.00000000000E+00  0.21220327299E+04  0.21220327299E+04  0.50400000000E-02 0. -1.
         -1   -1    0    0    0  501 -0.00000000000E+00 -0.00000000000E+00 -0.20418130982E+03  0.20418130989E+03  0.50400000000E-02 0.  1.
    8880023    1    1    2    0    0 -0.35054815026E+03  0.16557706311E+03  0.16816388763E+04  0.18471652027E+04  0.65864270000E+03 0. -1.
    8880022    1    1    2    0    0  0.35054815026E+03 -0.16557706311E+03  0.23621254376E+03  0.47904883709E+03  0.15294330000E+03 0.  0.
<mgrwt>
<rscale>  0 0.65676164E+03</rscale>
<asrwt>0</asrwt>
<pdfrwt beam="1">  1        1 0.32646659E+00 0.76427088E+03</pdfrwt>
<pdfrwt beam="2">  1       -1 0.31412508E-01 0.76427088E+03</pdfrwt>
<totfact> 0.24064130E+01</totfact>
</mgrwt>
</event>
<event>
 4    2  0.3179755E-007  0.8149570E+03  0.7818608E-02  0.9679343E-01
          1   -1    0    0  501    0  0.00000000000E+00  0.00000000000E+00  0.14194256060E+04  0.14194256060E+04  0.50400000000E-02 0. -1.
         -1   -1    0    0    0  501 -0.00000000000E+00 -0.00000000000E+00 -0.36929649377E+03  0.36929649380E+03  0.50400000000E-02 0.  1.
    8880023    1    1    2    0    0 -0.47915942613E+03 -0.27402897532E+02  0.98867877334E+03  0.12812652331E+04  0.65864270000E+03 0.  0.
    8880022    1    1    2    0    0  0.47915942613E+03  0.27402897532E+02  0.61450338930E+02  0.50745686675E+03  0.15294330000E+03 0.  0.
<mgrwt>
<rscale>  0 0.72260148E+03</rscale>
<asrwt>0</asrwt>
<pdfrwt beam="1">  1        1 0.21837317E+00 0.81495698E+03</pdfrwt>
<pdfrwt beam="2">  1       -1 0.56814845E-01 0.81495698E+03</pdfrwt>
<totfact> 0.23920237E+01</totfact>
</mgrwt>
</event>
<event>
 4    2  0.3179755E-007  0.7566921E+03  0.7818608E-02  0.9813748E-01
          1   -1    0    0  501    0  0.00000000000E+00  0.00000000000E+00  0.81399629046E+03  0.81399629047E+03  0.50400000000E-02 0. -1.
         -1   -1    0    0    0  501 -0.00000000000E+00 -0.00000000000E+00 -0.13355028617E+04  0.13355028617E+04  0.50400000000E-02 0.  1.
    8880023    1    1    2    0    0 -0.28828942041E+03  0.23592787403E+03  0.59499106229E+03  0.96259925313E+03  0.65864270000E+03 0. -1.
    8880022    1    1    2    0    0  0.28828942041E+03 -0.23592787403E+03 -0.11164976335E+04  0.11868998990E+04  0.15294330000E+03 0.  0.
<mgrwt>
<rscale>  0 0.64629954E+03</rscale>
<asrwt>0</asrwt>
<pdfrwt beam="1">  1        1 0.12523020E+00 0.75669212E+03</pdfrwt>
<pdfrwt beam="2">  1       -1 0.20546198E+00 0.75669212E+03</pdfrwt>
<totfact> 0.30836571E+00</totfact>
</mgrwt>
</event>
<event>
 4    2  0.3179755E-007  0.7365345E+03  0.7818608E-02  0.9870159E-01
         -1   -1    0    0    0  501 -0.00000000000E+00  0.00000000000E+00  0.54289123946E+03  0.54289123948E+03  0.50400000000E-02 0.  1.
          1   -1    0    0  501    0  0.00000000000E+00 -0.00000000000E+00 -0.13440376381E+04  0.13440376381E+04  0.50400000000E-02 0. -1.
    8880023    1    1    2    0    0  0.25264631510E+02 -0.32868613648E+03 -0.11613750523E+04  0.13752363783E+04  0.65864270000E+03 0. -1.
    8880022    1    1    2    0    0 -0.25264631510E+02  0.32868613648E+03  0.36022865363E+03  0.51169249929E+03  0.15294330000E+03 0.  0.
<mgrwt>
<rscale>  0 0.61729548E+03</rscale>
<asrwt>0</asrwt>
<pdfrwt beam="1">  1        1 0.20677502E+00 0.73653451E+03</pdfrwt>
<pdfrwt beam="2">  1       -1 0.83521729E-01 0.73653451E+03</pdfrwt>
<totfact> 0.12413093E+01</totfact>
</mgrwt>
</event>
<event>
 4    2  0.3179755E-007  0.7154060E+03  0.7818608E-02  0.9938448E-01
         -1   -1    0    0    0  501 -0.00000000000E+00  0.00000000000E+00  0.21160784637E+03  0.21160784643E+03  0.50400000000E-02 0.  1.
          1   -1    0    0  501    0  0.00000000000E+00 -0.00000000000E+00 -0.12932917033E+04  0.12932917033E+04  0.50400000000E-02 0. -1.
    8880023    1    1    2    0    0 -0.26716424360E+03  0.81356290981E+02 -0.85069837082E+03  0.11115275541E+04  0.65864270000E+03 0.  0.
    8880022    1    1    2    0    0  0.26716424360E+03 -0.81356290981E+02 -0.23098548611E+03  0.39337199564E+03  0.15294330000E+03 0. -1.
<mgrwt>
<rscale>  0 0.58433561E+03</rscale>
<asrwt>0</asrwt>
<pdfrwt beam="1">  1        1 0.19896795E+00 0.71540603E+03</pdfrwt>
<pdfrwt beam="2">  1       -1 0.32555054E-01 0.71540603E+03</pdfrwt>
<totfact> 0.82838105E+01</totfact>
</mgrwt>
</event>
<event>
 4    2  0.3179755E-007  0.6857096E+03  0.7818608E-02  0.1006262E+00
         -1   -1    0    0    0  501 -0.00000000000E+00  0.00000000000E+00  0.19447449392E+03  0.19447449398E+03  0.50400000000E-02 0.  1.
          1   -1    0    0  501    0  0.00000000000E+00 -0.00000000000E+00 -0.22750480785E+04  0.22750480785E+04  0.50400000000E-02 0. -1.
    8880023    1    1    2    0    0 -0.11417916431E+03  0.15280891726E+03 -0.21142951356E+04  0.22227104115E+04  0.65864270000E+03 0. -1.
    8880022    1    1    2    0    0  0.11417916431E+03 -0.15280891726E+03  0.33721551078E+02  0.24681216092E+03  0.15294330000E+03 0.  0.
<mgrwt>
<rscale>  0 0.52987550E+03</rscale>
<asrwt>0</asrwt>
<pdfrwt beam="1">  1        1 0.35000738E+00 0.68570960E+03</pdfrwt>
<pdfrwt beam="2">  1       -1 0.29919154E-01 0.68570960E+03</pdfrwt>
<totfact> 0.20923496E+01</totfact>
</mgrwt>
</event>
<event>
 4    2  0.3179755E-007  0.8651571E+03  0.7818608E-02  0.9584455E-01
         -1   -1    0    0    0  501 -0.00000000000E+00  0.00000000000E+00  0.65384451322E+03  0.65384451324E+03  0.50400000000E-02 0.  1.
          1   -1    0    0  501    0  0.00000000000E+00 -0.00000000000E+00 -0.12605042464E+04  0.12605042464E+04  0.50400000000E-02 0. -1.
    8880023    1    1    2    0    0 -0.53396725152E+03 -0.17194661936E+03 -0.91244485626E+03  0.12573990964E+04  0.65864270000E+03 0.  0.
    8880022    1    1    2    0    0  0.53396725152E+03  0.17194661936E+03  0.30578512305E+03  0.65694966329E+03  0.15294330000E+03 0.  0.
<mgrwt>
<rscale>  0 0.78333659E+03</rscale>
<asrwt>0</asrwt>
<pdfrwt beam="1">  1        1 0.19392373E+00 0.86515714E+03</pdfrwt>
<pdfrwt beam="2">  1       -1 0.10059146E+00 0.86515714E+03</pdfrwt>
<totfact> 0.92583372E+00</totfact>
</mgrwt>
</event>
<event>
 4    2  0.3179755E-007  0.7722018E+03  0.7818608E-02  0.9774485E-01
          1   -1    0    0  501    0  0.00000000000E+00  0.00000000000E+00  0.48954606175E+03  0.48954606178E+03  0.50400000000E-02 0. -1.
         -1   -1    0    0    0  501 -0.00000000000E+00 -0.00000000000E+00 -0.11096088754E+04  0.11096088754E+04  0.50400000000E-02 0.  1.
    8880023    1    1    2    0    0  0.36654881140E+03  0.16771219713E+03  0.80679832645E+02  0.77640508362E+03  0.65864270000E+03 0. -1.
    8880022    1    1    2    0    0 -0.36654881140E+03 -0.16771219713E+03 -0.70074264630E+03  0.82274985358E+03  0.15294330000E+03 0.  0.
<mgrwt>
<rscale>  0 0.66750010E+03</rscale>
<asrwt>0</asrwt>
<pdfrwt beam="1">  1        1 0.75314779E-01 0.77220180E+03</pdfrwt>
<pdfrwt beam="2">  1       -1 0.17070906E+00 0.77220180E+03</pdfrwt>
<totfact> 0.11394524E+01</totfact>
</mgrwt>
</event>
<event>
 4    2  0.4655044E-007  0.7470287E+03  0.7818608E-02  0.9839926E-01
         -1   -1    0    0    0  501 -0.00000000000E+00  0.00000000000E+00  0.97942569250E+03  0.97942569252E+03  0.50400000000E-02 0.  1.
          1   -1    0    0  501    0  0.00000000000E+00 -0.00000000000E+00 -0.16917053572E+04  0.16917053572E+04  0.50400000000E-02 0. -1.
    8880023    1    1    2    0    0  0.23839490187E+03  0.25963355729E+03 -0.15659325538E+04  0.17349918393E+04  0.65864270000E+03 0. -1.
    8880022    1    1    2    0    0 -0.23839490187E+03 -0.25963355729E+03  0.85365288904E+03  0.93613921043E+03  0.15294330000E+03 0.  0.
<mgrwt>
<rscale>  0 0.63263184E+03</rscale>
<asrwt>0</asrwt>
<pdfrwt beam="1">  1        1 0.26026236E+00 0.74702873E+03</pdfrwt>
<pdfrwt beam="2">  1       -1 0.15068088E+00 0.74702873E+03</pdfrwt>
<totfact> 0.17493279E+00</totfact>
</mgrwt>
</event>
<event>
 4    2  0.3179755E-007  0.9286313E+03  0.7818608E-02  0.9481549E-01
          1   -1    0    0  501    0  0.00000000000E+00  0.00000000000E+00  0.81223414782E+03  0.81223414784E+03  0.50400000000E-02 0. -1.
         -1   -1    0    0    0  501 -0.00000000000E+00 -0.00000000000E+00 -0.18615434595E+04  0.18615434595E+04  0.50400000000E-02 0.  1.
    8880023    1    1    2    0    0  0.30792195608E+03 -0.57769364948E+03  0.44905950272E+03  0.10315088594E+04  0.65864270000E+03 0.  0.
    8880022    1    1    2    0    0 -0.30792195608E+03  0.57769364948E+03 -0.14983688144E+04  0.16422687480E+04  0.15294330000E+03 0.  0.
<mgrwt>
<rscale>  0 0.85657874E+03</rscale>
<asrwt>0</asrwt>
<pdfrwt beam="1">  1        1 0.12495910E+00 0.92863130E+03</pdfrwt>
<pdfrwt beam="2">  1       -1 0.28639130E+00 0.92863130E+03</pdfrwt>
<totfact> 0.89309392E-01</totfact>
</mgrwt>
</event>
<event>
 4    2  0.3179755E-007  0.1004167E+04  0.7818608E-02  0.9376126E-01
          1   -1    0    0  501    0  0.00000000000E+00  0.00000000000E+00  0.26316212417E+04  0.26316212417E+04  0.50400000000E-02 0. -1.
         -1   -1    0    0    0  501 -0.00000000000E+00 -0.00000000000E+00 -0.43864008427E+03  0.43864008430E+03  0.50400000000E-02 0.  1.
    8880023    1    1    2    0    0 -0.68742301744E+03 -0.31936104797E+03  0.20516208772E+04  0.22841848248E+04  0.65864270000E+03 0.  0.
    8880022    1    1    2    0    0  0.68742301744E+03  0.31936104797E+03  0.14136028023E+03  0.78607650118E+03  0.15294330000E+03 0.  0.
<mgrwt>
<rscale>  0 0.94066761E+03</rscale>
<asrwt>0</asrwt>
<pdfrwt beam="1">  1        1 0.40486481E+00 0.10041674E+04</pdfrwt>
<pdfrwt beam="2">  1       -1 0.67483090E-01 0.10041674E+04</pdfrwt>
<totfact> 0.24884016E+00</totfact>
</mgrwt>
</event>
<event>
 4    2  0.3179755E-007  0.6959518E+03  0.7818608E-02  0.1001443E+00
          1   -1    0    0  501    0  0.00000000000E+00  0.00000000000E+00  0.87080301479E+03  0.87080301481E+03  0.50400000000E-02 0. -1.
         -1   -1    0    0    0  501 -0.00000000000E+00 -0.00000000000E+00 -0.36192463433E+03  0.36192463437E+03  0.50400000000E-02 0.  1.
    8880023    1    1    2    0    0 -0.22377999262E+03 -0.21476171941E+02  0.47980115652E+02  0.69760376205E+03  0.65864270000E+03 0.  1.
    8880022    1    1    2    0    0  0.22377999262E+03  0.21476171941E+02  0.46089826481E+03  0.53512388713E+03  0.15294330000E+03 0.  0.
<mgrwt>
<rscale>  0 0.55022109E+03</rscale>
<asrwt>0</asrwt>
<pdfrwt beam="1">  1        1 0.13396969E+00 0.69595181E+03</pdfrwt>
<pdfrwt beam="2">  1       -1 0.55680713E-01 0.69595181E+03</pdfrwt>
<totfact> 0.64439833E+01</totfact>
</mgrwt>
</event>
<event>
 4    2  0.3179755E-007  0.6904459E+03  0.7818608E-02  0.1003941E+00
          1   -1    0    0  501    0  0.00000000000E+00  0.00000000000E+00  0.52184860731E+03  0.52184860733E+03  0.50400000000E-02 0. -1.
         -1   -1    0    0    0  501 -0.00000000000E+00 -0.00000000000E+00 -0.62433126431E+03  0.62433126433E+03  0.50400000000E-02 0.  1.
    8880023    1    1    2    0    0  0.84074962977E+02  0.18930593325E+03  0.22810572142E+03  0.72715043985E+03  0.65864270000E+03 0. -1.
    8880022    1    1    2    0    0 -0.84074962977E+02 -0.18930593325E+03 -0.33058837842E+03  0.41902943181E+03  0.15294330000E+03 0.  0.
<mgrwt>
<rscale>  0 0.53955282E+03</rscale>
<asrwt>0</asrwt>
<pdfrwt beam="1">  1        1 0.80284401E-01 0.69044590E+03</pdfrwt>
<pdfrwt beam="2">  1       -1 0.96050964E-01 0.69044590E+03</pdfrwt>
<totfact> 0.44826764E+01</totfact>
</mgrwt>
</event>
<event>
 4    2  0.3179755E-007  0.8035395E+03  0.7818608E-02  0.9703195E-01
         -1   -1    0    0    0  501 -0.00000000000E+00  0.00000000000E+00  0.15183814382E+04  0.15183814382E+04  0.50400000000E-02 0.  1.
          1   -1    0    0  501    0  0.00000000000E+00 -0.00000000000E+00 -0.32702842174E+03  0.32702842178E+03  0.50400000000E-02 0. -1.
    8880023    1    1    2    0    0 -0.29187973981E+03  0.35590964913E+03  0.35473198650E+03  0.87835667548E+03  0.65864270000E+03 0.  0.
    8880022    1    1    2    0    0  0.29187973981E+03 -0.35590964913E+03  0.83662102993E+03  0.96705318447E+03  0.15294330000E+03 0.  0.
<mgrwt>
<rscale>  0 0.70826903E+03</rscale>
<asrwt>0</asrwt>
<pdfrwt beam="1">  1        1 0.50312065E-01 0.80353946E+03</pdfrwt>
<pdfrwt beam="2">  1       -1 0.23359715E+00 0.80353946E+03</pdfrwt>
<totfact> 0.71979613E+00</totfact>
</mgrwt>
</event>
<event>
 4    2  0.3179755E-007  0.8339162E+03  0.7818608E-02  0.9641760E-01
          1   -1    0    0  501    0  0.00000000000E+00  0.00000000000E+00  0.10741774053E+04  0.10741774053E+04  0.50400000000E-02 0. -1.
         -1   -1    0    0    0  501 -0.00000000000E+00 -0.00000000000E+00 -0.64045558510E+03  0.64045558512E+03  0.50400000000E-02 0.  1.
    8880023    1    1    2    0    0  0.49318666650E+03 -0.13554683723E+03  0.72630288941E+03  0.11058626165E+04  0.65864270000E+03 0. -1.
    8880022    1    1    2    0    0 -0.49318666650E+03  0.13554683723E+03 -0.29258106923E+03  0.60877037394E+03  0.15294330000E+03 0.  0.
<mgrwt>
<rscale>  0 0.74592812E+03</rscale>
<asrwt>0</asrwt>
<pdfrwt beam="1">  1        1 0.16525806E+00 0.83391621E+03</pdfrwt>
<pdfrwt beam="2">  1       -1 0.98531629E-01 0.83391621E+03</pdfrwt>
<totfact> 0.13350166E+01</totfact>
</mgrwt>
</event>
<event>
 4    2  0.3179755E-007  0.9290189E+03  0.7818608E-02  0.9480967E-01
         -1   -1    0    0    0  501 -0.00000000000E+00  0.00000000000E+00  0.99706119398E+03  0.99706119400E+03  0.50400000000E-02 0.  1.
          1   -1    0    0  501    0  0.00000000000E+00 -0.00000000000E+00 -0.11548381922E+04  0.11548381922E+04  0.50400000000E-02 0. -1.
    8880023    1    1    2    0    0  0.65409314102E+03 -0.37790608350E+02 -0.79685958509E+03  0.12239531739E+04  0.65864270000E+03 0.  0.
    8880022    1    1    2    0    0 -0.65409314102E+03  0.37790608350E+02  0.63908258685E+03  0.92794621236E+03  0.15294330000E+03 0.  0.
<mgrwt>
<rscale>  0 0.85701743E+03</rscale>
<asrwt>0</asrwt>
<pdfrwt beam="1">  1        1 0.17766741E+00 0.92901893E+03</pdfrwt>
<pdfrwt beam="2">  1       -1 0.15339403E+00 0.92901893E+03</pdfrwt>
<totfact> 0.38345820E+00</totfact>
</mgrwt>
</event>
<event>
 4    2  0.3179755E-007  0.7855081E+03  0.7818608E-02  0.9743054E-01
         -1   -1    0    0    0  501 -0.00000000000E+00  0.00000000000E+00  0.17599772176E+03  0.17599772183E+03  0.50400000000E-02 0.  1.
          1   -1    0    0  501    0  0.00000000000E+00 -0.00000000000E+00 -0.29140317533E+04  0.29140317533E+04  0.50400000000E-02 0. -1.
    8880023    1    1    2    0    0 -0.42669781535E+03  0.33789228951E+02 -0.89066496925E+03  0.11875634852E+04  0.65864270000E+03 0.  1.
    8880022    1    1    2    0    0  0.42669781535E+03 -0.33789228951E+02 -0.18473690623E+04  0.19024659899E+04  0.15294330000E+03 0. -1.
<mgrwt>
<rscale>  0 0.68510232E+03</rscale>
<asrwt>0</asrwt>
<pdfrwt beam="1">  1        1 0.44831254E+00 0.78550808E+03</pdfrwt>
<pdfrwt beam="2">  1       -1 0.27076575E-01 0.78550808E+03</pdfrwt>
<totfact> 0.88869361E+00</totfact>
</mgrwt>
</event>
<event>
 4    2  0.3179755E-007  0.7533278E+03  0.7818608E-02  0.9822698E-01
         -1   -1    0    0    0  501 -0.00000000000E+00  0.00000000000E+00  0.57616295805E+03  0.57616295807E+03  0.50400000000E-02 0.  1.
          1   -1    0    0  501    0  0.00000000000E+00 -0.00000000000E+00 -0.11946458274E+04  0.11946458274E+04  0.50400000000E-02 0. -1.
    8880023    1    1    2    0    0 -0.25674055542E+03  0.26033979421E+03 -0.97882327147E+03  0.12351508913E+04  0.65864270000E+03 0. -1.
    8880022    1    1    2    0    0  0.25674055542E+03 -0.26033979421E+03  0.36034040208E+03  0.53565789421E+03  0.15294330000E+03 0.  0.
<mgrwt>
<rscale>  0 0.64158549E+03</rscale>
<asrwt>0</asrwt>
<pdfrwt beam="1">  1        1 0.18379167E+00 0.75332777E+03</pdfrwt>
<pdfrwt beam="2">  1       -1 0.88640455E-01 0.75332777E+03</pdfrwt>
<totfact> 0.13906838E+01</totfact>
</mgrwt>
</event>
<event>
 4    2  0.3179755E-007  0.8053457E+03  0.7818608E-02  0.9699354E-01
          1   -1    0    0  501    0  0.00000000000E+00  0.00000000000E+00  0.31768263168E+03  0.31768263172E+03  0.50400000000E-02 0. -1.
         -1   -1    0    0    0  501 -0.00000000000E+00 -0.00000000000E+00 -0.21954755479E+04  0.21954755479E+04  0.50400000000E-02 0.  1.
    8880023    1    1    2    0    0 -0.18647919957E+03 -0.42426057639E+03 -0.29637041961E+03  0.85814751671E+03  0.65864270000E+03 0.  0.
    8880022    1    1    2    0    0  0.18647919957E+03  0.42426057639E+03 -0.15814224966E+04  0.16550106629E+04  0.15294330000E+03 0.  0.
<mgrwt>
<rscale>  0 0.71055238E+03</rscale>
<asrwt>0</asrwt>
<pdfrwt beam="1">  1        1 0.48874252E-01 0.80534572E+03</pdfrwt>
<pdfrwt beam="2">  1       -1 0.33776546E+00 0.80534572E+03</pdfrwt>
<totfact> 0.15955743E+00</totfact>
</mgrwt>
</event>
<event>
 4    2  0.3179755E-007  0.7787872E+03  0.7818608E-02  0.9758694E-01
          1   -1    0    0  501    0  0.00000000000E+00  0.00000000000E+00  0.30983159058E+03  0.30983159062E+03  0.50400000000E-02 0. -1.
         -1   -1    0    0    0  501 -0.00000000000E+00 -0.00000000000E+00 -0.18022634426E+04  0.18022634426E+04  0.50400000000E-02 0.  1.
    8880023    1    1    2    0    0  0.15709732102E+03 -0.38473333139E+03 -0.29053234331E+03  0.83121510653E+03  0.65864270000E+03 0.  0.
    8880022    1    1    2    0    0 -0.15709732102E+03  0.38473333139E+03 -0.12018995087E+04  0.12808799267E+04  0.15294330000E+03 0.  0.
<mgrwt>
<rscale>  0 0.67627184E+03</rscale>
<asrwt>0</asrwt>
<pdfrwt beam="1">  1        1 0.47666400E-01 0.77878721E+03</pdfrwt>
<pdfrwt beam="2">  1       -1 0.27727129E+00 0.77878721E+03</pdfrwt>
<totfact> 0.40503771E+00</totfact>
</mgrwt>
</event>
<event>
 4    2  0.3645346E-007  0.6772484E+03  0.7818608E-02  0.1010925E+00
          1   -1    0    0  501    0  0.00000000000E+00  0.00000000000E+00  0.13138661824E+04  0.13138661824E+04  0.50400000000E-02 0. -1.
         -1   -1    0    0    0  501 -0.00000000000E+00 -0.00000000000E+00 -0.97198307472E+03  0.97198307473E+03  0.50400000000E-02 0.  1.
    8880023    1    1    2    0    0 -0.15751591829E+03 -0.66298334471E+01  0.12120284432E+04  0.13884085755E+04  0.65864270000E+03 0. -1.
    8880022    1    1    2    0    0  0.15751591829E+03  0.66298334471E+01 -0.87014533548E+03  0.89744068165E+03  0.15294330000E+03 0.  0.
<mgrwt>
<rscale>  0 0.51108678E+03</rscale>
<asrwt>0</asrwt>
<pdfrwt beam="1">  1        1 0.20213326E+00 0.67724842E+03</pdfrwt>
<pdfrwt beam="2">  1       -1 0.14953586E+00 0.67724842E+03</pdfrwt>
<totfact> 0.32851050E+00</totfact>
</mgrwt>
</event>
<event>
 4    2  0.3179755E-007  0.7076878E+03  0.7818608E-02  0.9966689E-01
         -1   -1    0    0    0  501 -0.00000000000E+00  0.00000000000E+00  0.32112040901E+03  0.32112040905E+03  0.50400000000E-02 0.  1.
          1   -1    0    0  501    0  0.00000000000E+00 -0.00000000000E+00 -0.19797111599E+04  0.19797111599E+04  0.50400000000E-02 0. -1.
    8880023    1    1    2    0    0 -0.25640290393E+03 -0.35629158535E+02 -0.18248396930E+04  0.19572587967E+04  0.65864270000E+03 0. -1.
    8880022    1    1    2    0    0  0.25640290393E+03  0.35629158535E+02  0.16624894205E+03  0.34357277225E+03  0.15294330000E+03 0.  0.
<mgrwt>
<rscale>  0 0.57135296E+03</rscale>
<asrwt>0</asrwt>
<pdfrwt beam="1">  1        1 0.30457094E+00 0.70768785E+03</pdfrwt>
<pdfrwt beam="2">  1       -1 0.49403141E-01 0.70768785E+03</pdfrwt>
<totfact> 0.13271032E+01</totfact>
</mgrwt>
</event>
<event>
 4    2  0.3179755E-007  0.6607294E+03  0.7818608E-02  0.1023421E+00
          1   -1    0    0  501    0  0.00000000000E+00  0.00000000000E+00  0.14199612441E+04  0.14199612441E+04  0.50400000000E-02 0. -1.
         -1   -1    0    0    0  501 -0.00000000000E+00 -0.00000000000E+00 -0.30151949652E+03  0.30151949656E+03  0.50400000000E-02 0.  1.
    8880023    1    1    2    0    0  0.78031823566E+01  0.51887228318E+02  0.13121743237E+04  0.14691374463E+04  0.65864270000E+03 0. -1.
    8880022    1    1    2    0    0 -0.78031823566E+01 -0.51887228318E+02 -0.19373257615E+03  0.25234329433E+03  0.15294330000E+03 0.  0.
<mgrwt>
<rscale>  0 0.46471957E+03</rscale>
<asrwt>0</asrwt>
<pdfrwt beam="1">  1        1 0.21845558E+00 0.66072943E+03</pdfrwt>
<pdfrwt beam="2">  1       -1 0.46387614E-01 0.66072943E+03</pdfrwt>
<totfact> 0.35836941E+01</totfact>
</mgrwt>
</event>
<event>
 4    2  0.3179755E-007  0.1256396E+04  0.7818608E-02  0.9104160E-01
          1   -1    0    0  501    0  0.00000000000E+00  0.00000000000E+00  0.23095296391E+04  0.23095296391E+04  0.50400000000E-02 0. -1.
         -1   -1    0    0    0  501 -0.00000000000E+00 -0.00000000000E+00 -0.11646282545E+04  0.11646282546E+04  0.50400000000E-02 0.  1.
    8880023    1    1    2    0    0  0.90936514052E+03 -0.56371669216E+03 -0.62275604818E+03  0.14022684371E+04  0.65864270000E+03 0.  0.
    8880022    1    1    2    0    0 -0.90936514052E+03  0.56371669216E+03  0.17676574327E+04  0.20718894566E+04  0.15294330000E+03 0.  0.
<mgrwt>
<rscale>  0 0.12099867E+04</rscale>
<asrwt>0</asrwt>
<pdfrwt beam="1">  1        1 0.35531225E+00 0.12563963E+04</pdfrwt>
<pdfrwt beam="2">  1       -1 0.17917358E+00 0.12563963E+04</pdfrwt>
<totfact> 0.37760226E-01</totfact>
</mgrwt>
</event>
<event>
 4    2  0.3179755E-007  0.6705442E+03  0.7818608E-02  0.1015276E+00
         -1   -1    0    0    0  501 -0.00000000000E+00  0.00000000000E+00  0.23957573550E+03  0.23957573555E+03  0.50400000000E-02 0.  1.
          1   -1    0    0  501    0  0.00000000000E+00 -0.00000000000E+00 -0.13823371936E+04  0.13823371936E+04  0.50400000000E-02 0. -1.
    8880023    1    1    2    0    0 -0.37375830585E+02  0.12009322575E+03 -0.12335913094E+04  0.14040573566E+04  0.65864270000E+03 0. -1.
    8880022    1    1    2    0    0  0.37375830585E+02 -0.12009322575E+03  0.90829851356E+02  0.21785557256E+03  0.15294330000E+03 0.  0.
<mgrwt>
<rscale>  0 0.49430675E+03</rscale>
<asrwt>0</asrwt>
<pdfrwt beam="1">  1        1 0.21266726E+00 0.67054421E+03</pdfrwt>
<pdfrwt beam="2">  1       -1 0.36857806E-01 0.67054421E+03</pdfrwt>
<totfact> 0.57835360E+01</totfact>
</mgrwt>
</event>
<event>
 4    2  0.3179755E-007  0.7318634E+03  0.7818608E-02  0.9884316E-01
         -1   -1    0    0    0  501 -0.00000000000E+00  0.00000000000E+00  0.51241520866E+03  0.51241520869E+03  0.50400000000E-02 0.  1.
          1   -1    0    0  501    0  0.00000000000E+00 -0.00000000000E+00 -0.17275561882E+04  0.17275561882E+04  0.50400000000E-02 0. -1.
    8880023    1    1    2    0    0  0.30335718118E+03  0.98935361997E+02 -0.15741072267E+04  0.17359255608E+04  0.65864270000E+03 0. -1.
    8880022    1    1    2    0    0 -0.30335718118E+03 -0.98935361997E+02  0.35896624719E+03  0.50404583607E+03  0.15294330000E+03 0.  0.
<mgrwt>
<rscale>  0 0.61027476E+03</rscale>
<asrwt>0</asrwt>
<pdfrwt beam="1">  1        1 0.26577787E+00 0.73186337E+03</pdfrwt>
<pdfrwt beam="2">  1       -1 0.78833110E-01 0.73186337E+03</pdfrwt>
<totfact> 0.76851249E+00</totfact>
</mgrwt>
</event>
<event>
 4    2  0.3179755E-007  0.6588906E+03  0.7818608E-02  0.1025323E+00
          1   -1    0    0  501    0  0.00000000000E+00  0.00000000000E+00  0.84520510056E+03  0.84520510058E+03  0.50400000000E-02 0. -1.
         -1   -1    0    0    0  501 -0.00000000000E+00 -0.00000000000E+00 -0.49253941162E+03  0.49253941164E+03  0.50400000000E-02 0.  1.
    8880023    1    1    2    0    0 -0.15049955213E+01  0.18008251690E+02  0.69785400460E+03  0.95975881353E+03  0.65864270000E+03 0. -1.
    8880022    1    1    2    0    0  0.15049955213E+01 -0.18008251690E+02 -0.34518831565E+03  0.37798569869E+03  0.15294330000E+03 0.  0.
<mgrwt>
<rscale>  0 0.45813684E+03</rscale>
<asrwt>0</asrwt>
<pdfrwt beam="1">  1        1 0.13003155E+00 0.65889056E+03</pdfrwt>
<pdfrwt beam="2">  1       -1 0.75775295E-01 0.65889056E+03</pdfrwt>
<totfact> 0.36613696E+01</totfact>
</mgrwt>
</event>
<event>
 4    2  0.3179755E-007  0.8747515E+03  0.7818608E-02  0.9567843E-01
         -1   -1    0    0    0  501 -0.00000000000E+00  0.00000000000E+00  0.72353427676E+03  0.72353427678E+03  0.50400000000E-02 0.  1.
          1   -1    0    0  501    0  0.00000000000E+00 -0.00000000000E+00 -0.13121826231E+04  0.13121826231E+04  0.50400000000E-02 0. -1.
    8880023    1    1    2    0    0  0.56610826026E+03 -0.10441009197E+03 -0.98723838199E+03  0.13190261024E+04  0.65864270000E+03 0.  0.
    8880022    1    1    2    0    0 -0.56610826026E+03  0.10441009197E+03  0.39859003567E+03  0.71669079748E+03  0.15294330000E+03 0.  0.
<mgrwt>
<rscale>  0 0.79461572E+03</rscale>
<asrwt>0</asrwt>
<pdfrwt beam="1">  1        1 0.20187425E+00 0.87475153E+03</pdfrwt>
<pdfrwt beam="2">  1       -1 0.11131297E+00 0.87475153E+03</pdfrwt>
<totfact> 0.67072301E+00</totfact>
</mgrwt>
</event>
<event>
 4    2  0.3179755E-007  0.8090975E+03  0.7818608E-02  0.9691460E-01
         -1   -1    0    0    0  501 -0.00000000000E+00  0.00000000000E+00  0.24220896777E+03  0.24220896782E+03  0.50400000000E-02 0.  1.
          1   -1    0    0  501    0  0.00000000000E+00 -0.00000000000E+00 -0.24030027044E+04  0.24030027044E+04  0.50400000000E-02 0. -1.
    8880023    1    1    2    0    0 -0.26998276481E+03  0.38462689690E+03 -0.19438290083E+04  0.21054951824E+04  0.65864270000E+03 0.  0.
    8880022    1    1    2    0    0  0.26998276481E+03 -0.38462689690E+03 -0.21696472835E+03  0.53971648990E+03  0.15294330000E+03 0.  0.
<mgrwt>
<rscale>  0 0.71527548E+03</rscale>
<asrwt>0</asrwt>
<pdfrwt beam="1">  1        1 0.36969271E+00 0.80909749E+03</pdfrwt>
<pdfrwt beam="2">  1       -1 0.37262920E-01 0.80909749E+03</pdfrwt>
<totfact> 0.11412839E+01</totfact>
</mgrwt>
</event>
<event>
 4    2  0.3179755E-007  0.9524235E+03  0.7818608E-02  0.9446636E-01
          1   -1    0    0  501    0  0.00000000000E+00  0.00000000000E+00  0.77307431023E+03  0.77307431024E+03  0.50400000000E-02 0. -1.
         -1   -1    0    0    0  501 -0.00000000000E+00 -0.00000000000E+00 -0.91118099842E+03  0.91118099843E+03  0.50400000000E-02 0.  1.
    8880023    1    1    2    0    0 -0.29401617364E+03  0.62197660825E+03 -0.21167432023E+03  0.97566215243E+03  0.65864270000E+03 0.  0.
    8880022    1    1    2    0    0  0.29401617364E+03 -0.62197660825E+03  0.73567632038E+02  0.70859315624E+03  0.15294330000E+03 0.  1.
<mgrwt>
<rscale>  0 0.88335139E+03</rscale>
<asrwt>0</asrwt>
<pdfrwt beam="1">  1        1 0.11893451E+00 0.95242355E+03</pdfrwt>
<pdfrwt beam="2">  1       -1 0.14018169E+00 0.95242355E+03</pdfrwt>
<totfact> 0.98237831E+00</totfact>
</mgrwt>
</event>
<event>
 4    2  0.3179755E-007  0.8320881E+03  0.7818608E-02  0.9645283E-01
         -1   -1    0    0    0  501 -0.00000000000E+00  0.00000000000E+00  0.60067891016E+03  0.60067891018E+03  0.50400000000E-02 0.  1.
          1   -1    0    0  501    0  0.00000000000E+00 -0.00000000000E+00 -0.28409075547E+04  0.28409075547E+04  0.50400000000E-02 0. -1.
    8880023    1    1    2    0    0 -0.49522207188E+03 -0.11539261682E+03 -0.26457141172E+04  0.27734768347E+04  0.65864270000E+03 0. -1.
    8880022    1    1    2    0    0  0.49522207188E+03  0.11539261682E+03  0.40548547260E+03  0.66810963023E+03  0.15294330000E+03 0.  0.
<mgrwt>
<rscale>  0 0.74370187E+03</rscale>
<asrwt>0</asrwt>
<pdfrwt beam="1">  1        1 0.43706269E+00 0.83208807E+03</pdfrwt>
<pdfrwt beam="2">  1       -1 0.92412142E-01 0.83208807E+03</pdfrwt>
<totfact> 0.93774020E-01</totfact>
</mgrwt>
</event>
<event>
 4    2  0.3179755E-007  0.1009279E+04  0.7818608E-02  0.9369517E-01
         -1   -1    0    0    0  501 -0.00000000000E+00  0.00000000000E+00  0.74629443229E+03  0.74629443231E+03  0.50400000000E-02 0.  1.
          1   -1    0    0  501    0  0.00000000000E+00 -0.00000000000E+00 -0.20941746380E+04  0.20941746380E+04  0.50400000000E-02 0. -1.
    8880023    1    1    2    0    0 -0.68874401262E+03  0.33236447581E+03 -0.17060754726E+04  0.19822558322E+04  0.65864270000E+03 0.  0.
    8880022    1    1    2    0    0  0.68874401262E+03 -0.33236447581E+03  0.35819526697E+03  0.85821323807E+03  0.15294330000E+03 0.  0.
<mgrwt>
<rscale>  0 0.94627344E+03</rscale>
<asrwt>0</asrwt>
<pdfrwt beam="1">  1        1 0.32218071E+00 0.10092793E+04</pdfrwt>
<pdfrwt beam="2">  1       -1 0.11481453E+00 0.10092793E+04</pdfrwt>
<totfact> 0.17914528E+00</totfact>
</mgrwt>
</event>
<event>
 4    2  0.3179755E-007  0.9399245E+03  0.7818608E-02  0.9464761E-01
          1   -1    0    0  501    0  0.00000000000E+00  0.00000000000E+00  0.32823567304E+04  0.32823567304E+04  0.50400000000E-02 0. -1.
         -1   -1    0    0    0  501 -0.00000000000E+00 -0.00000000000E+00 -0.32337973470E+03  0.32337973474E+03  0.50400000000E-02 0.  1.
    8880023    1    1    2    0    0 -0.64838825041E+03 -0.17099851841E+03  0.27196774576E+04  0.28775168976E+04  0.65864270000E+03 0. -1.
    8880022    1    1    2    0    0  0.64838825041E+03  0.17099851841E+03  0.23929953812E+03  0.72821956753E+03  0.15294330000E+03 0.  0.
<mgrwt>
<rscale>  0 0.86932445E+03</rscale>
<asrwt>0</asrwt>
<pdfrwt beam="1">  1        1 0.50497798E+00 0.93992448E+03</pdfrwt>
<pdfrwt beam="2">  1       -1 0.49750726E-01 0.93992448E+03</pdfrwt>
<totfact> 0.15587242E+00</totfact>
</mgrwt>
</event>
<event>
 4    2  0.3179755E-007  0.1029167E+04  0.7818608E-02  0.9344355E-01
         -1   -1    0    0    0  501 -0.00000000000E+00  0.00000000000E+00  0.83273006581E+03  0.83273006582E+03  0.50400000000E-02 0.  1.
          1   -1    0    0  501    0  0.00000000000E+00 -0.00000000000E+00 -0.11138628882E+04  0.11138628883E+04  0.50400000000E-02 0. -1.
    8880023    1    1    2    0    0  0.50615506516E+02 -0.78918490404E+03  0.13838469612E+03  0.10384292333E+04  0.65864270000E+03 0.  0.
    8880022    1    1    2    0    0 -0.50615506516E+02  0.78918490404E+03 -0.41951751856E+03  0.90816372074E+03  0.15294330000E+03 0.  0.
<mgrwt>
<rscale>  0 0.96800025E+03</rscale>
<asrwt>0</asrwt>
<pdfrwt beam="1">  1        1 0.17136352E+00 0.10291671E+04</pdfrwt>
<pdfrwt beam="2">  1       -1 0.12811232E+00 0.10291671E+04</pdfrwt>
<totfact> 0.65111341E+00</totfact>
</mgrwt>
</event>
<event>
 4    2  0.3179755E-007  0.1304076E+04  0.7818608E-02  0.9062048E-01
         -1   -1    0    0    0  501 -0.00000000000E+00  0.00000000000E+00  0.13379494102E+04  0.13379494102E+04  0.50400000000E-02 0.  1.
          1   -1    0    0  501    0  0.00000000000E+00 -0.00000000000E+00 -0.19917413240E+04  0.19917413240E+04  0.50400000000E-02 0. -1.
    8880023    1    1    2    0    0 -0.92042050212E+03 -0.64778940463E+03  0.76525604466E+03  0.15120291114E+04  0.65864270000E+03 0.  0.
    8880022    1    1    2    0    0  0.92042050212E+03  0.64778940463E+03 -0.14190479585E+04  0.18176616228E+04  0.15294330000E+03 0.  0.
<mgrwt>
<rscale>  0 0.12598222E+04</rscale>
<asrwt>0</asrwt>
<pdfrwt beam="1">  1        1 0.30642174E+00 0.13040764E+04</pdfrwt>
<pdfrwt beam="2">  1       -1 0.20583837E+00 0.13040764E+04</pdfrwt>
<totfact> 0.40091443E-01</totfact>
</mgrwt>
</event>
<event>
 4    2  0.3179755E-007  0.6695395E+03  0.7818608E-02  0.1015995E+00
          1   -1    0    0  501    0  0.00000000000E+00  0.00000000000E+00  0.27706681149E+04  0.27706681149E+04  0.50400000000E-02 0. -1.
         -1   -1    0    0    0  501 -0.00000000000E+00 -0.00000000000E+00 -0.21510741588E+03  0.21510741594E+03  0.50400000000E-02 0.  1.
    8880023    1    1    2    0    0  0.43316279508E+00  0.12030271365E+03  0.26749573931E+04  0.27574771426E+04  0.65864270000E+03 0. -1.
    8880022    1    1    2    0    0 -0.43316279508E+00 -0.12030271365E+03 -0.11939669406E+03  0.22829838832E+03  0.15294330000E+03 0.  0.
<mgrwt>
<rscale>  0 0.49159935E+03</rscale>
<asrwt>0</asrwt>
<pdfrwt beam="1">  1        1 0.42625660E+00 0.66953950E+03</pdfrwt>
<pdfrwt beam="2">  1       -1 0.33093451E-01 0.66953950E+03</pdfrwt>
<totfact> 0.80661602E+00</totfact>
</mgrwt>
</event>
<event>
 4    2  0.3179755E-007  0.9266463E+03  0.7818608E-02  0.9484543E-01
         -1   -1    0    0    0  501 -0.00000000000E+00  0.00000000000E+00  0.44061718733E+03  0.44061718736E+03  0.50400000000E-02 0.  1.
          1   -1    0    0  501    0  0.00000000000E+00 -0.00000000000E+00 -0.19585947287E+04  0.19585947287E+04  0.50400000000E-02 0. -1.
    8880023    1    1    2    0    0  0.64212030036E+03 -0.11200270401E+03 -0.14572841109E+04  0.17269482540E+04  0.65864270000E+03 0.  0.
    8880022    1    1    2    0    0 -0.64212030036E+03  0.11200270401E+03 -0.60693430474E+02  0.67226366208E+03  0.15294330000E+03 0.  0.
<mgrwt>
<rscale>  0 0.85433086E+03</rscale>
<asrwt>0</asrwt>
<pdfrwt beam="1">  1        1 0.30132226E+00 0.92664626E+03</pdfrwt>
<pdfrwt beam="2">  1       -1 0.67787261E-01 0.92664626E+03</pdfrwt>
<totfact> 0.71478130E+00</totfact>
</mgrwt>
</event>
<event>
 4    2  0.3179755E-007  0.7059223E+03  0.7818608E-02  0.9973467E-01
         -1   -1    0    0    0  501 -0.00000000000E+00  0.00000000000E+00  0.14175182576E+03  0.14175182585E+03  0.50400000000E-02 0.  1.
          1   -1    0    0  501    0  0.00000000000E+00 -0.00000000000E+00 -0.22556294206E+04  0.22556294206E+04  0.50400000000E-02 0. -1.
    8880023    1    1    2    0    0 -0.16750307140E+03 -0.19094196986E+03 -0.19134130527E+04  0.20394793039E+04  0.65864270000E+03 0.  0.
    8880022    1    1    2    0    0  0.16750307140E+03  0.19094196986E+03 -0.20046454218E+03  0.35790194254E+03  0.15294330000E+03 0. -1.
<mgrwt>
<rscale>  0 0.56829141E+03</rscale>
<asrwt>0</asrwt>
<pdfrwt beam="1">  1        1 0.34701989E+00 0.70592232E+03</pdfrwt>
<pdfrwt beam="2">  1       -1 0.21807975E-01 0.70592232E+03</pdfrwt>
<totfact> 0.36892102E+01</totfact>
</mgrwt>
</event>
<event>
 4    2  0.3179755E-007  0.7329052E+03  0.7818608E-02  0.9881117E-01
          1   -1    0    0  501    0  0.00000000000E+00  0.00000000000E+00  0.20454816442E+04  0.20454816442E+04  0.50400000000E-02 0. -1.
         -1   -1    0    0    0  501 -0.00000000000E+00 -0.00000000000E+00 -0.15969577288E+03  0.15969577296E+03  0.50400000000E-02 0.  1.
    8880023    1    1    2    0    0  0.31096007391E+03 -0.81508627796E+02  0.15557208915E+04  0.17197143723E+04  0.65864270000E+03 0.  0.
    8880022    1    1    2    0    0 -0.31096007391E+03  0.81508627796E+02  0.33006497986E+03  0.48546304485E+03  0.15294330000E+03 0.  0.
<mgrwt>
<rscale>  0 0.61185204E+03</rscale>
<asrwt>0</asrwt>
<pdfrwt beam="1">  1        1 0.31468950E+00 0.73290520E+03</pdfrwt>
<pdfrwt beam="2">  1       -1 0.24568579E-01 0.73290520E+03</pdfrwt>
<totfact> 0.41559813E+01</totfact>
</mgrwt>
</event>
<event>
 4    2  0.3179755E-007  0.1606927E+04  0.7818608E-02  0.8837603E-01
          1   -1    0    0  501    0  0.00000000000E+00  0.00000000000E+00  0.29071850520E+04  0.29071850521E+04  0.50400000000E-02 0. -1.
         -1   -1    0    0    0  501 -0.00000000000E+00 -0.00000000000E+00 -0.97969764439E+03  0.97969764440E+03  0.50400000000E-02 0.  1.
    8880023    1    1    2    0    0 -0.13303557232E+04 -0.61526992139E+03  0.20492163456E+03  0.16199402794E+04  0.65864270000E+03 0.  0.
    8880022    1    1    2    0    0  0.13303557232E+04  0.61526992139E+03  0.17225657731E+04  0.22669424170E+04  0.15294330000E+03 0.  0.
<mgrwt>
<rscale>  0 0.15725317E+04</rscale>
<asrwt>0</asrwt>
<pdfrwt beam="1">  1        1 0.44725923E+00 0.16069268E+04</pdfrwt>
<pdfrwt beam="2">  1       -1 0.15072272E+00 0.16069268E+04</pdfrwt>
<totfact> 0.22589470E-01</totfact>
</mgrwt>
</event>
<event>
 4    2  0.3179755E-007  0.7095722E+03  0.7818608E-02  0.9959593E-01
          1   -1    0    0  501    0  0.00000000000E+00  0.00000000000E+00  0.55924437248E+03  0.55924437250E+03  0.50400000000E-02 0. -1.
         -1   -1    0    0    0  501 -0.00000000000E+00 -0.00000000000E+00 -0.55687190922E+03  0.55687190924E+03  0.50400000000E-02 0.  1.
    8880023    1    1    2    0    0 -0.86746268101E+02  0.24931414545E+03  0.21825424095E+03  0.74237967248E+03  0.65864270000E+03 0. -1.
    8880022    1    1    2    0    0  0.86746268101E+02 -0.24931414545E+03 -0.21588177769E+03  0.37373660926E+03  0.15294330000E+03 0.  1.
<mgrwt>
<rscale>  0 0.57458071E+03</rscale>
<asrwt>0</asrwt>
<pdfrwt beam="1">  1        1 0.86037596E-01 0.70957217E+03</pdfrwt>
<pdfrwt beam="2">  1       -1 0.85672601E-01 0.70957217E+03</pdfrwt>
<totfact> 0.52261992E+01</totfact>
</mgrwt>
</event>
<event>
 4    2  0.3179755E-007  0.1219424E+04  0.7818608E-02  0.9138468E-01
          1   -1    0    0  501    0  0.00000000000E+00  0.00000000000E+00  0.39408144873E+04  0.39408144873E+04  0.50400000000E-02 0. -1.
         -1   -1    0    0    0  501 -0.00000000000E+00 -0.00000000000E+00 -0.39258522664E+03  0.39258522667E+03  0.50400000000E-02 0.  1.
    8880023    1    1    2    0    0 -0.53816976568E+02 -0.10248361291E+04  0.28004781760E+04  0.30544514367E+04  0.65864270000E+03 0.  0.
    8880022    1    1    2    0    0  0.53816976568E+02  0.10248361291E+04  0.74775108465E+03  0.12789482773E+04  0.15294330000E+03 0.  0.
<mgrwt>
<rscale>  0 0.11711749E+04</rscale>
<asrwt>0</asrwt>
<pdfrwt beam="1">  1        1 0.60627912E+00 0.12194243E+04</pdfrwt>
<pdfrwt beam="2">  1       -1 0.60397730E-01 0.12194243E+04</pdfrwt>
<totfact> 0.30474088E-01</totfact>
</mgrwt>
</event>
<event>
 4    2  0.3179755E-007  0.8287859E+03  0.7818608E-02  0.9651699E-01
         -1   -1    0    0    0  501 -0.00000000000E+00  0.00000000000E+00  0.45926638849E+03  0.45926638851E+03  0.50400000000E-02 0.  1.
          1   -1    0    0  501    0  0.00000000000E+00 -0.00000000000E+00 -0.19528532510E+04  0.19528532510E+04  0.50400000000E-02 0. -1.
    8880023    1    1    2    0    0  0.50264775250E+03 -0.20520351921E+02 -0.16643475404E+04  0.18592844832E+04  0.65864270000E+03 0. -1.
    8880022    1    1    2    0    0 -0.50264775250E+03  0.20520351921E+02  0.17076067789E+03  0.55283515632E+03  0.15294330000E+03 0.  0.
<mgrwt>
<rscale>  0 0.73966875E+03</rscale>
<asrwt>0</asrwt>
<pdfrwt beam="1">  1        1 0.30043896E+00 0.82878589E+03</pdfrwt>
<pdfrwt beam="2">  1       -1 0.70656368E-01 0.82878589E+03</pdfrwt>
<totfact> 0.67164422E+00</totfact>
</mgrwt>
</event>
<event>
 4    2  0.3179755E-007  0.6718097E+03  0.7818608E-02  0.1014397E+00
          1   -1    0    0  501    0  0.00000000000E+00  0.00000000000E+00  0.11296015232E+04  0.11296015232E+04  0.50400000000E-02 0. -1.
         -1   -1    0    0    0  501 -0.00000000000E+00 -0.00000000000E+00 -0.27844735819E+03  0.27844735823E+03  0.50400000000E-02 0.  1.
    8880023    1    1    2    0    0 -0.53802821930E+02  0.12092701075E+03  0.96509774533E+03  0.11759004847E+04  0.65864270000E+03 0. -1.
    8880022    1    1    2    0    0  0.53802821930E+02 -0.12092701075E+03 -0.11394358036E+03  0.23214839672E+03  0.15294330000E+03 0.  0.
<mgrwt>
<rscale>  0 0.49763744E+03</rscale>
<asrwt>0</asrwt>
<pdfrwt beam="1">  1        1 0.17378485E+00 0.67180971E+03</pdfrwt>
<pdfrwt beam="2">  1       -1 0.42838054E-01 0.67180971E+03</pdfrwt>
<totfact> 0.66663874E+01</totfact>
</mgrwt>
</event>
<event>
 4    2  0.3179755E-007  0.7837957E+03  0.7818608E-02  0.9746995E-01
         -1   -1    0    0    0  501 -0.00000000000E+00  0.00000000000E+00  0.33986922159E+03  0.33986922163E+03  0.50400000000E-02 0.  1.
          1   -1    0    0  501    0  0.00000000000E+00 -0.00000000000E+00 -0.12853056538E+04  0.12853056538E+04  0.50400000000E-02 0. -1.
    8880023    1    1    2    0    0 -0.30324066258E+03 -0.29760824923E+03 -0.86359410596E+03  0.11662463529E+04  0.65864270000E+03 0.  0.
    8880022    1    1    2    0    0  0.30324066258E+03  0.29760824923E+03 -0.81842326239E+02  0.45892852257E+03  0.15294330000E+03 0.  0.
<mgrwt>
<rscale>  0 0.68286353E+03</rscale>
<asrwt>0</asrwt>
<pdfrwt beam="1">  1        1 0.19773933E+00 0.78379575E+03</pdfrwt>
<pdfrwt beam="2">  1       -1 0.52287573E-01 0.78379575E+03</pdfrwt>
<totfact> 0.34992841E+01</totfact>
</mgrwt>
</event>
<event>
 4    2  0.3179755E-007  0.6908982E+03  0.7818608E-02  0.1003729E+00
         -1   -1    0    0    0  501 -0.00000000000E+00  0.00000000000E+00  0.42498690013E+03  0.42498690016E+03  0.50400000000E-02 0.  1.
          1   -1    0    0  501    0  0.00000000000E+00 -0.00000000000E+00 -0.54609073908E+03  0.54609073910E+03  0.50400000000E-02 0. -1.
    8880023    1    1    2    0    0  0.20853863534E+03 -0.64646725694E+01 -0.16078253243E+03  0.70935984057E+03  0.65864270000E+03 0. -1.
    8880022    1    1    2    0    0 -0.20853863534E+03  0.64646725694E+01  0.39678693477E+02  0.26171779869E+03  0.15294330000E+03 0.  1.
<mgrwt>
<rscale>  0 0.54045124E+03</rscale>
<asrwt>0</asrwt>
<pdfrwt beam="1">  1        1 0.84013961E-01 0.69089823E+03</pdfrwt>
<pdfrwt beam="2">  1       -1 0.65382600E-01 0.69089823E+03</pdfrwt>
<totfact> 0.95018984E+01</totfact>
</mgrwt>
</event>
<event>
 4    2  0.3179755E-007  0.6691146E+03  0.7818608E-02  0.1016306E+00
         -1   -1    0    0    0  501 -0.00000000000E+00  0.00000000000E+00  0.63735320958E+03  0.63735320960E+03  0.50400000000E-02 0.  1.
          1   -1    0    0  501    0  0.00000000000E+00 -0.00000000000E+00 -0.69730246567E+03  0.69730246569E+03  0.50400000000E-02 0. -1.
    8880023    1    1    2    0    0 -0.10741321214E+03 -0.48647438026E+02 -0.51236008662E+03  0.84274980628E+03  0.65864270000E+03 0. -1.
    8880022    1    1    2    0    0  0.10741321214E+03  0.48647438026E+02  0.45241083052E+03  0.49190586900E+03  0.15294330000E+03 0.  0.
<mgrwt>
<rscale>  0 0.49043665E+03</rscale>
<asrwt>0</asrwt>
<pdfrwt beam="1">  1        1 0.10727730E+00 0.66911462E+03</pdfrwt>
<pdfrwt beam="2">  1       -1 0.98054340E-01 0.66911462E+03</pdfrwt>
<totfact> 0.28257950E+01</totfact>
</mgrwt>
</event>
<event>
 4    2  0.3179755E-007  0.1046966E+04  0.7818608E-02  0.9322538E-01
         -1   -1    0    0    0  501 -0.00000000000E+00  0.00000000000E+00  0.10910915362E+04  0.10910915362E+04  0.50400000000E-02 0.  1.
          1   -1    0    0  501    0  0.00000000000E+00 -0.00000000000E+00 -0.88875319478E+03  0.88875319480E+03  0.50400000000E-02 0. -1.
    8880023    1    1    2    0    0  0.35790969919E+03 -0.73090909922E+03  0.41284786899E+03  0.11254248235E+04  0.65864270000E+03 0.  0.
    8880022    1    1    2    0    0 -0.35790969919E+03  0.73090909922E+03 -0.21050952761E+03  0.85441990750E+03  0.15294330000E+03 0.  0.
<mgrwt>
<rscale>  0 0.98734219E+03</rscale>
<asrwt>0</asrwt>
<pdfrwt beam="1">  1        1 0.13673126E+00 0.10469659E+04</pdfrwt>
<pdfrwt beam="2">  1       -1 0.16786024E+00 0.10469659E+04</pdfrwt>
<totfact> 0.47317808E+00</totfact>
</mgrwt>
</event>
<event>
 4    2  0.3179755E-007  0.8015105E+03  0.7818608E-02  0.9707540E-01
          1   -1    0    0  501    0  0.00000000000E+00  0.00000000000E+00  0.83209685133E+03  0.83209685135E+03  0.50400000000E-02 0. -1.
         -1   -1    0    0    0  501 -0.00000000000E+00 -0.00000000000E+00 -0.10446825618E+04  0.10446825618E+04  0.50400000000E-02 0.  1.
    8880023    1    1    2    0    0 -0.39092119962E+03  0.23619794187E+03  0.55194497844E+03  0.97317126835E+03  0.65864270000E+03 0.  0.
    8880022    1    1    2    0    0  0.39092119962E+03 -0.23619794187E+03 -0.76453068888E+03  0.90360814478E+03  0.15294330000E+03 0.  1.
<mgrwt>
<rscale>  0 0.70569660E+03</rscale>
<asrwt>0</asrwt>
<pdfrwt beam="1">  1        1 0.12801490E+00 0.80151049E+03</pdfrwt>
<pdfrwt beam="2">  1       -1 0.16072039E+00 0.80151049E+03</pdfrwt>
<totfact> 0.61468249E+00</totfact>
</mgrwt>
</event>
<event>
 4    2  0.3179755E-007  0.7395271E+03  0.7818608E-02  0.9861327E-01
          1   -1    0    0  501    0  0.00000000000E+00  0.00000000000E+00  0.33310008804E+03  0.33310008808E+03  0.50400000000E-02 0. -1.
         -1   -1    0    0    0  501 -0.00000000000E+00 -0.00000000000E+00 -0.13269692975E+04  0.13269692976E+04  0.50400000000E-02 0.  1.
    8880023    1    1    2    0    0 -0.30040970369E+03  0.15114284684E+03 -0.17240774139E+03  0.75935814066E+03  0.65864270000E+03 0. -1.
    8880022    1    1    2    0    0  0.30040970369E+03 -0.15114284684E+03 -0.82146146811E+03  0.90071124498E+03  0.15294330000E+03 0.  0.
<mgrwt>
<rscale>  0 0.62172728E+03</rscale>
<asrwt>0</asrwt>
<pdfrwt beam="1">  1        1 0.51246168E-01 0.73952712E+03</pdfrwt>
<pdfrwt beam="2">  1       -1 0.20414912E+00 0.73952712E+03</pdfrwt>
<totfact> 0.11118514E+01</totfact>
</mgrwt>
</event>
<event>
 4    2  0.3179755E-007  0.8348554E+03  0.7818608E-02  0.9639958E-01
          1   -1    0    0  501    0  0.00000000000E+00  0.00000000000E+00  0.92271829364E+03  0.92271829366E+03  0.50400000000E-02 0. -1.
         -1   -1    0    0    0  501 -0.00000000000E+00 -0.00000000000E+00 -0.51369936887E+03  0.51369936889E+03  0.50400000000E-02 0.  1.
    8880023    1    1    2    0    0  0.51223094305E+03 -0.28155671833E+02  0.17929936573E+03  0.85389211830E+03  0.65864270000E+03 0. -1.
    8880022    1    1    2    0    0 -0.51223094305E+03  0.28155671833E+02  0.22971955905E+03  0.58252554425E+03  0.15294330000E+03 0.  1.
<mgrwt>
<rscale>  0 0.74707003E+03</rscale>
<asrwt>0</asrwt>
<pdfrwt beam="1">  1        1 0.14195666E+00 0.83485537E+03</pdfrwt>
<pdfrwt beam="2">  1       -1 0.79030672E-01 0.83485537E+03</pdfrwt>
<totfact> 0.28406079E+01</totfact>
</mgrwt>
</event>
<event>
 4    2  0.3179755E-007  0.6622713E+03  0.7818608E-02  0.1021941E+00
          1   -1    0    0  501    0  0.00000000000E+00  0.00000000000E+00  0.68586286336E+03  0.68586286338E+03  0.50400000000E-02 0. -1.
         -1   -1    0    0    0  501 -0.00000000000E+00 -0.00000000000E+00 -0.85353020458E+03  0.85353020459E+03  0.50400000000E-02 0.  1.
    8880023    1    1    2    0    0 -0.44111783205E+01 -0.69091639564E+02  0.51338465341E+03  0.83795412868E+03  0.65864270000E+03 0. -1.
    8880022    1    1    2    0    0  0.44111783205E+01  0.69091639564E+02 -0.68105199463E+03  0.70143893929E+03  0.15294330000E+03 0.  0.
<mgrwt>
<rscale>  0 0.46992524E+03</rscale>
<asrwt>0</asrwt>
<pdfrwt beam="1">  1        1 0.10551736E+00 0.66227133E+03</pdfrwt>
<pdfrwt beam="2">  1       -1 0.13131234E+00 0.66227133E+03</pdfrwt>
<totfact> 0.14452745E+01</totfact>
</mgrwt>
</event>
<event>
 4    2  0.3179755E-007  0.6942324E+03  0.7818608E-02  0.1002202E+00
          1   -1    0    0  501    0  0.00000000000E+00  0.00000000000E+00  0.53567846973E+03  0.53567846976E+03  0.50400000000E-02 0. -1.
         -1   -1    0    0    0  501 -0.00000000000E+00 -0.00000000000E+00 -0.16070325808E+04  0.16070325808E+04  0.50400000000E-02 0.  1.
    8880023    1    1    2    0    0 -0.10208684070E+03  0.19423374658E+03  0.29216504966E+03  0.75320587748E+03  0.65864270000E+03 0. -1.
    8880022    1    1    2    0    0  0.10208684070E+03 -0.19423374658E+03 -0.13635191607E+04  0.13895051731E+04  0.15294330000E+03 0.  0.
<mgrwt>
<rscale>  0 0.54694970E+03</rscale>
<asrwt>0</asrwt>
<pdfrwt beam="1">  1        1 0.82412073E-01 0.69423244E+03</pdfrwt>
<pdfrwt beam="2">  1       -1 0.24723578E+00 0.69423244E+03</pdfrwt>
<totfact> 0.30796261E+00</totfact>
</mgrwt>
</event>
<event>
 4    2  0.3179755E-007  0.6889149E+03  0.7818608E-02  0.1004673E+00
         -1   -1    0    0    0  501 -0.00000000000E+00  0.00000000000E+00  0.10740127546E+04  0.10740127546E+04  0.50400000000E-02 0.  1.
          1   -1    0    0  501    0  0.00000000000E+00 -0.00000000000E+00 -0.21335815282E+03  0.21335815288E+03  0.50400000000E-02 0. -1.
    8880023    1    1    2    0    0 -0.26687201191E+02 -0.20020307976E+03  0.52151386021E+03  0.86404883688E+03  0.65864270000E+03 0. -1.
    8880022    1    1    2    0    0  0.26687201191E+02  0.20020307976E+03  0.33914074154E+03  0.42332207058E+03  0.15294330000E+03 0. -1.
<mgrwt>
<rscale>  0 0.53647992E+03</rscale>
<asrwt>0</asrwt>
<pdfrwt beam="1">  1        1 0.32824331E-01 0.68891486E+03</pdfrwt>
<pdfrwt beam="2">  1       -1 0.16523273E+00 0.68891486E+03</pdfrwt>
<totfact> 0.37474580E+01</totfact>
</mgrwt>
</event>
<event>
 4    2  0.3179755E-007  0.8558392E+03  0.7818608E-02  0.9601008E-01
         -1   -1    0    0    0  501 -0.00000000000E+00  0.00000000000E+00  0.15163706171E+04  0.15163706171E+04  0.50400000000E-02 0.  1.
          1   -1    0    0  501    0  0.00000000000E+00 -0.00000000000E+00 -0.47334396764E+03  0.47334396766E+03  0.50400000000E-02 0. -1.
    8880023    1    1    2    0    0 -0.11862719595E+03  0.53345859864E+03  0.64153871952E+02  0.85824030064E+03  0.65864270000E+03 0.  1.
    8880022    1    1    2    0    0  0.11862719595E+03 -0.53345859864E+03  0.97887277752E+03  0.11314742841E+04  0.15294330000E+03 0.  0.
<mgrwt>
<rscale>  0 0.77229498E+03</rscale>
<asrwt>0</asrwt>
<pdfrwt beam="1">  1        1 0.72822150E-01 0.85583918E+03</pdfrwt>
<pdfrwt beam="2">  1       -1 0.23328778E+00 0.85583918E+03</pdfrwt>
<totfact> 0.43940535E+00</totfact>
</mgrwt>
</event>
<event>
 4    2  0.3179755E-007  0.8924631E+03  0.7818608E-02  0.9538241E-01
          1   -1    0    0  501    0  0.00000000000E+00  0.00000000000E+00  0.16960669137E+04  0.16960669137E+04  0.50400000000E-02 0. -1.
         -1   -1    0    0    0  501 -0.00000000000E+00 -0.00000000000E+00 -0.91598353223E+03  0.91598353224E+03  0.50400000000E-02 0.  1.
    8880023    1    1    2    0    0  0.53695284422E+03  0.27269348618E+03  0.14472861496E+04  0.17003315852E+04  0.65864270000E+03 0. -1.
    8880022    1    1    2    0    0 -0.53695284422E+03 -0.27269348618E+03 -0.66720276815E+03  0.91171886081E+03  0.15294330000E+03 0.  0.
<mgrwt>
<rscale>  0 0.81522256E+03</rscale>
<asrwt>0</asrwt>
<pdfrwt beam="1">  1        1 0.26093337E+00 0.89246305E+03</pdfrwt>
<pdfrwt beam="2">  1       -1 0.14092054E+00 0.89246305E+03</pdfrwt>
<totfact> 0.20226838E+00</totfact>
</mgrwt>
</event>
<event>
 4    2  0.4424267E-007  0.6932765E+03  0.7818608E-02  0.1002633E+00
         -1   -1    0    0    0  501 -0.00000000000E+00  0.00000000000E+00  0.64229140714E+03  0.64229140716E+03  0.50400000000E-02 0.  1.
          1   -1    0    0  501    0  0.00000000000E+00 -0.00000000000E+00 -0.17046031330E+04  0.17046031330E+04  0.50400000000E-02 0. -1.
    8880023    1    1    2    0    0  0.13788924264E+03  0.16675936864E+03 -0.16020487869E+04  0.17456209932E+04  0.65864270000E+03 0. -1.
    8880022    1    1    2    0    0 -0.13788924264E+03 -0.16675936864E+03  0.53973706098E+03  0.60127354696E+03  0.15294330000E+03 0.  0.
<mgrwt>
<rscale>  0 0.54510814E+03</rscale>
<asrwt>0</asrwt>
<pdfrwt beam="1">  1        1 0.26224663E+00 0.69327652E+03</pdfrwt>
<pdfrwt beam="2">  1       -1 0.98814063E-01 0.69327652E+03</pdfrwt>
<totfact> 0.48928117E+00</totfact>
</mgrwt>
</event>
<event>
 4    2  0.3179755E-007  0.6974355E+03  0.7818608E-02  0.1000801E+00
          1   -1    0    0  501    0  0.00000000000E+00  0.00000000000E+00  0.29405690206E+04  0.29405690206E+04  0.50400000000E-02 0. -1.
         -1   -1    0    0    0  501 -0.00000000000E+00 -0.00000000000E+00 -0.95631209929E+02  0.95631210062E+02  0.50400000000E-02 0.  1.
    8880023    1    1    2    0    0 -0.35670205081E+02 -0.22656955133E+03  0.24954119820E+04  0.25910417386E+04  0.65864270000E+03 0. -1.
    8880022    1    1    2    0    0  0.35670205081E+02  0.22656955133E+03  0.34952582870E+03  0.44515849207E+03  0.15294330000E+03 0.  0.
<mgrwt>
<rscale>  0 0.55300387E+03</rscale>
<asrwt>0</asrwt>
<pdfrwt beam="1">  1        1 0.45239529E+00 0.69743554E+03</pdfrwt>
<pdfrwt beam="2">  1       -1 0.14712492E-01 0.69743554E+03</pdfrwt>
<totfact> 0.23869691E+01</totfact>
</mgrwt>
</event>
<event>
 4    2  0.3179755E-007  0.1305946E+04  0.7818608E-02  0.9060442E-01
          1   -1    0    0  501    0  0.00000000000E+00  0.00000000000E+00  0.14775146315E+04  0.14775146315E+04  0.50400000000E-02 0. -1.
         -1   -1    0    0    0  501 -0.00000000000E+00 -0.00000000000E+00 -0.10416329293E+04  0.10416329293E+04  0.50400000000E-02 0.  1.
    8880023    1    1    2    0    0  0.95473276716E+03  0.60014102435E+03  0.15698002352E+02  0.13060400221E+04  0.65864270000E+03 0.  0.
    8880022    1    1    2    0    0 -0.95473276716E+03 -0.60014102435E+03  0.42018369988E+03  0.12131075387E+04  0.15294330000E+03 0.  0.
<mgrwt>
<rscale>  0 0.12617715E+04</rscale>
<asrwt>0</asrwt>
<pdfrwt beam="1">  1        1 0.22730994E+00 0.13059457E+04</pdfrwt>
<pdfrwt beam="2">  1       -1 0.16025122E+00 0.13059457E+04</pdfrwt>
<totfact> 0.19125670E+00</totfact>
</mgrwt>
</event>
<event>
 4    2  0.3179755E-007  0.7089896E+03  0.7818608E-02  0.9961772E-01
          1   -1    0    0  501    0  0.00000000000E+00  0.00000000000E+00  0.64254647370E+03  0.64254647372E+03  0.50400000000E-02 0. -1.
         -1   -1    0    0    0  501 -0.00000000000E+00 -0.00000000000E+00 -0.43318606171E+03  0.43318606174E+03  0.50400000000E-02 0.  1.
    8880023    1    1    2    0    0 -0.25634288302E+03  0.56074765504E+02  0.38242681931E+01  0.70899991840E+03  0.65864270000E+03 0.  1.
    8880022    1    1    2    0    0  0.25634288302E+03 -0.56074765504E+02  0.20553614379E+03  0.36673261706E+03  0.15294330000E+03 0.  1.
<mgrwt>
<rscale>  0 0.57358706E+03</rscale>
<asrwt>0</asrwt>
<pdfrwt beam="1">  1        1 0.98853303E-01 0.70898960E+03</pdfrwt>
<pdfrwt beam="2">  1       -1 0.66644010E-01 0.70898960E+03</pdfrwt>
<totfact> 0.72337382E+01</totfact>
</mgrwt>
</event>
<event>
 4    2  0.3179755E-007  0.7289251E+03  0.7818608E-02  0.9893468E-01
         -1   -1    0    0    0  501 -0.00000000000E+00  0.00000000000E+00  0.26726043265E+03  0.26726043270E+03  0.50400000000E-02 0.  1.
          1   -1    0    0  501    0  0.00000000000E+00 -0.00000000000E+00 -0.13061524117E+04  0.13061524117E+04  0.50400000000E-02 0. -1.
    8880023    1    1    2    0    0 -0.17583372187E+03 -0.25807772996E+03 -0.97900683531E+03  0.12205679835E+04  0.65864270000E+03 0. -1.
    8880022    1    1    2    0    0  0.17583372187E+03  0.25807772996E+03 -0.59885143768E+02  0.35284486096E+03  0.15294330000E+03 0.  0.
<mgrwt>
<rscale>  0 0.60578906E+03</rscale>
<asrwt>0</asrwt>
<pdfrwt beam="1">  1        1 0.20094652E+00 0.72892511E+03</pdfrwt>
<pdfrwt beam="2">  1       -1 0.41116991E-01 0.72892511E+03</pdfrwt>
<totfact> 0.53306884E+01</totfact>
</mgrwt>
</event>
<event>
 4    2  0.3179755E-007  0.9229013E+03  0.7818608E-02  0.9490225E-01
          1   -1    0    0  501    0  0.00000000000E+00  0.00000000000E+00  0.21757598724E+04  0.21757598724E+04  0.50400000000E-02 0. -1.
         -1   -1    0    0    0  501 -0.00000000000E+00 -0.00000000000E+00 -0.69845823531E+03  0.69845823533E+03  0.50400000000E-02 0.  1.
    8880023    1    1    2    0    0  0.54822158947E+03  0.34262174348E+03  0.18821566134E+04  0.20962491011E+04  0.65864270000E+03 0. -1.
    8880022    1    1    2    0    0 -0.54822158947E+03 -0.34262174348E+03 -0.40485497638E+03  0.77796900657E+03  0.15294330000E+03 0.  0.
<mgrwt>
<rscale>  0 0.85008362E+03</rscale>
<asrwt>0</asrwt>
<pdfrwt beam="1">  1        1 0.33473228E+00 0.92290128E+03</pdfrwt>
<pdfrwt beam="2">  1       -1 0.10745512E+00 0.92290128E+03</pdfrwt>
<totfact> 0.18719470E+00</totfact>
</mgrwt>
</event>
<event>
 4    2  0.3179755E-007  0.9087329E+03  0.7818608E-02  0.9512155E-01
          1   -1    0    0  501    0  0.00000000000E+00  0.00000000000E+00  0.12690518981E+04  0.12690518981E+04  0.50400000000E-02 0. -1.
         -1   -1    0    0    0  501 -0.00000000000E+00 -0.00000000000E+00 -0.89086336380E+03  0.89086336382E+03  0.50400000000E-02 0.  1.
    8880023    1    1    2    0    0 -0.62501999180E+03 -0.36541661507E+02  0.93817183183E+03  0.13061247549E+04  0.65864270000E+03 0. -1.
    8880022    1    1    2    0    0  0.62501999180E+03  0.36541661507E+02 -0.55998329757E+03  0.85379050694E+03  0.15294330000E+03 0.  0.
<mgrwt>
<rscale>  0 0.83393555E+03</rscale>
<asrwt>0</asrwt>
<pdfrwt beam="1">  1        1 0.19523875E+00 0.90873290E+03</pdfrwt>
<pdfrwt beam="2">  1       -1 0.13705590E+00 0.90873290E+03</pdfrwt>
<totfact> 0.42832514E+00</totfact>
</mgrwt>
</event>
<event>
 4    2  0.3179755E-007  0.6977247E+03  0.7818608E-02  0.1000677E+00
         -1   -1    0    0    0  501 -0.00000000000E+00  0.00000000000E+00  0.19123829949E+03  0.19123829956E+03  0.50400000000E-02 0.  1.
          1   -1    0    0  501    0  0.00000000000E+00 -0.00000000000E+00 -0.17193559603E+04  0.17193559603E+04  0.50400000000E-02 0. -1.
    8880023    1    1    2    0    0 -0.16629583314E+03  0.15923331475E+03 -0.14713730320E+04  0.16284220455E+04  0.65864270000E+03 0.  0.
    8880022    1    1    2    0    0  0.16629583314E+03 -0.15923331475E+03 -0.56744628782E+02  0.28217221436E+03  0.15294330000E+03 0.  0.
<mgrwt>
<rscale>  0 0.55354203E+03</rscale>
<asrwt>0</asrwt>
<pdfrwt beam="1">  1        1 0.26451629E+00 0.69772470E+03</pdfrwt>
<pdfrwt beam="2">  1       -1 0.29421278E-01 0.69772470E+03</pdfrwt>
<totfact> 0.50588666E+01</totfact>
</mgrwt>
</event>
<event>
 4    2  0.3179755E-007  0.9415109E+03  0.7818608E-02  0.9462435E-01
         -1   -1    0    0    0  501 -0.00000000000E+00  0.00000000000E+00  0.15345527773E+04  0.15345527773E+04  0.50400000000E-02 0.  1.
          1   -1    0    0  501    0  0.00000000000E+00 -0.00000000000E+00 -0.43603971852E+03  0.43603971855E+03  0.50400000000E-02 0. -1.
    8880023    1    1    2    0    0 -0.28230239711E+03  0.61068647797E+03  0.70601116887E+03  0.11768154463E+04  0.65864270000E+03 0. -1.
    8880022    1    1    2    0    0  0.28230239711E+03 -0.61068647797E+03  0.39250188988E+03  0.79377704953E+03  0.15294330000E+03 0.  1.
<mgrwt>
<rscale>  0 0.87110932E+03</rscale>
<asrwt>0</asrwt>
<pdfrwt beam="1">  1        1 0.67083033E-01 0.94151093E+03</pdfrwt>
<pdfrwt beam="2">  1       -1 0.23608504E+00 0.94151093E+03</pdfrwt>
<totfact> 0.46608665E+00</totfact>
</mgrwt>
</event>
<event>
 4    2  0.3179755E-007  0.8952941E+03  0.7818608E-02  0.9533629E-01
         -1   -1    0    0    0  501 -0.00000000000E+00  0.00000000000E+00  0.14298706456E+04  0.14298706457E+04  0.50400000000E-02 0.  1.
          1   -1    0    0  501    0  0.00000000000E+00 -0.00000000000E+00 -0.60370592257E+03  0.60370592259E+03  0.50400000000E-02 0. -1.
    8880023    1    1    2    0    0  0.60451406539E+03  0.48000208711E+02 -0.11595351558E+03  0.90277167619E+03  0.65864270000E+03 0. -1.
    8880022    1    1    2    0    0 -0.60451406539E+03 -0.48000208711E+02  0.94211823865E+03  0.11308048921E+04  0.15294330000E+03 0.  0.
<mgrwt>
<rscale>  0 0.81849274E+03</rscale>
<asrwt>0</asrwt>
<pdfrwt beam="1">  1        1 0.92877835E-01 0.89529408E+03</pdfrwt>
<pdfrwt beam="2">  1       -1 0.21998010E+00 0.89529408E+03</pdfrwt>
<totfact> 0.38048723E+00</totfact>
</mgrwt>
</event>
<event>
 4    2  0.3179755E-007  0.6871804E+03  0.7818608E-02  0.1005523E+00
          1   -1    0    0  501    0  0.00000000000E+00  0.00000000000E+00  0.17786372472E+04  0.17786372472E+04  0.50400000000E-02 0. -1.
         -1   -1    0    0    0  501 -0.00000000000E+00 -0.00000000000E+00 -0.12331347219E+03  0.12331347230E+03  0.50400000000E-02 0.  1.
    8880023    1    1    2    0    0  0.10882398057E+03  0.16298495160E+03  0.12512694857E+04  0.14275476473E+04  0.65864270000E+03 0.  1.
    8880022    1    1    2    0    0 -0.10882398057E+03 -0.16298495160E+03  0.40405428932E+03  0.47440307222E+03  0.15294330000E+03 0.  1.
<mgrwt>
<rscale>  0 0.53293624E+03</rscale>
<asrwt>0</asrwt>
<pdfrwt beam="1">  1        1 0.27363648E+00 0.68718044E+03</pdfrwt>
<pdfrwt beam="2">  1       -1 0.18971305E-01 0.68718044E+03</pdfrwt>
<totfact> 0.97187466E+01</totfact>
</mgrwt>
</event>
<event>
 4    2  0.3179755E-007  0.8258521E+03  0.7818608E-02  0.9657458E-01
          1   -1    0    0  501    0  0.00000000000E+00  0.00000000000E+00  0.29614148437E+04  0.29614148437E+04  0.50400000000E-02 0. -1.
         -1   -1    0    0    0  501 -0.00000000000E+00 -0.00000000000E+00 -0.25829154246E+03  0.25829154251E+03  0.50400000000E-02 0.  1.
    8880023    1    1    2    0    0 -0.43360059725E+02 -0.49632784908E+03  0.25441521734E+04  0.26748349325E+04  0.65864270000E+03 0. -1.
    8880022    1    1    2    0    0  0.43360059725E+02  0.49632784908E+03  0.15897112783E+03  0.54487145370E+03  0.15294330000E+03 0.  0.
<mgrwt>
<rscale>  0 0.73607239E+03</rscale>
<asrwt>0</asrwt>
<pdfrwt beam="1">  1        1 0.45560229E+00 0.82585207E+03</pdfrwt>
<pdfrwt beam="2">  1       -1 0.39737160E-01 0.82585207E+03</pdfrwt>
<totfact> 0.41438849E+00</totfact>
</mgrwt>
</event>
<event>
 4    2  0.3179755E-007  0.1097543E+04  0.7818608E-02  0.9263796E-01
         -1   -1    0    0    0  501 -0.00000000000E+00  0.00000000000E+00  0.12365945904E+04  0.12365945904E+04  0.50400000000E-02 0.  1.
          1   -1    0    0  501    0  0.00000000000E+00 -0.00000000000E+00 -0.96868712846E+03  0.96868712848E+03  0.50400000000E-02 0. -1.
    8880023    1    1    2    0    0 -0.14716239451E+03  0.86552527074E+03 -0.31323897512E+03  0.11413674371E+04  0.65864270000E+03 0.  0.
    8880022    1    1    2    0    0  0.14716239451E+03 -0.86552527074E+03  0.58114643702E+03  0.10639142818E+04  0.15294330000E+03 0.  0.
<mgrwt>
<rscale>  0 0.10418525E+04</rscale>
<asrwt>0</asrwt>
<pdfrwt beam="1">  1        1 0.14902879E+00 0.10975432E+04</pdfrwt>
<pdfrwt beam="2">  1       -1 0.19024532E+00 0.10975432E+04</pdfrwt>
<totfact> 0.27967594E+00</totfact>
</mgrwt>
</event>
<event>
 4    2  0.3179755E-007  0.8147985E+03  0.7818608E-02  0.9679667E-01
         -1   -1    0    0    0  501 -0.00000000000E+00  0.00000000000E+00  0.21872077234E+04  0.21872077234E+04  0.50400000000E-02 0.  1.
          1   -1    0    0  501    0  0.00000000000E+00 -0.00000000000E+00 -0.64763559698E+03  0.64763559700E+03  0.50400000000E-02 0. -1.
    8880023    1    1    2    0    0 -0.47358579499E+03 -0.76176322002E+02 -0.34452114056E+03  0.88464193876E+03  0.65864270000E+03 0. -1.
    8880022    1    1    2    0    0  0.47358579499E+03  0.76176322002E+02  0.18840932669E+04  0.19502013816E+04  0.15294330000E+03 0.  0.
<mgrwt>
<rscale>  0 0.72240407E+03</rscale>
<asrwt>0</asrwt>
<pdfrwt beam="1">  1        1 0.99636246E-01 0.81479847E+03</pdfrwt>
<pdfrwt beam="2">  1       -1 0.33649350E+00 0.81479847E+03</pdfrwt>
<totfact> 0.61403271E-01</totfact>
</mgrwt>
</event>
<event>
 4    2  0.3179755E-007  0.8827089E+03  0.7818608E-02  0.9554380E-01
          1   -1    0    0  501    0  0.00000000000E+00  0.00000000000E+00  0.24814421663E+04  0.24814421664E+04  0.50400000000E-02 0. -1.
         -1   -1    0    0    0  501 -0.00000000000E+00 -0.00000000000E+00 -0.35942157571E+03  0.35942157574E+03  0.50400000000E-02 0.  1.
    8880023    1    1    2    0    0  0.26786105747E+03 -0.52308242543E+03  0.20467266138E+04  0.22289604770E+04  0.65864270000E+03 0. -1.
    8880022    1    1    2    0    0 -0.26786105747E+03  0.52308242543E+03  0.75293976811E+02  0.61190326512E+03  0.15294330000E+03 0.  0.
<mgrwt>
<rscale>  0 0.80390656E+03</rscale>
<asrwt>0</asrwt>
<pdfrwt beam="1">  1        1 0.38176033E+00 0.88270889E+03</pdfrwt>
<pdfrwt beam="2">  1       -1 0.55295627E-01 0.88270889E+03</pdfrwt>
<totfact> 0.47777460E+00</totfact>
</mgrwt>
</event>
<event>
 4    2  0.3179755E-007  0.7416895E+03  0.7818608E-02  0.9855053E-01
         -1   -1    0    0    0  501 -0.00000000000E+00  0.00000000000E+00  0.18492002543E+03  0.18492002550E+03  0.50400000000E-02 0.  1.
          1   -1    0    0  501    0  0.00000000000E+00 -0.00000000000E+00 -0.24951656527E+04  0.24951656528E+04  0.50400000000E-02 0. -1.
    8880023    1    1    2    0    0 -0.15206528032E+03  0.30523632463E+03 -0.21483639376E+04  0.22727892287E+04  0.65864270000E+03 0.  0.
    8880022    1    1    2    0    0  0.15206528032E+03 -0.30523632463E+03 -0.16188168972E+03  0.40729644957E+03  0.15294330000E+03 0.  0.
<mgrwt>
<rscale>  0 0.62489953E+03</rscale>
<asrwt>0</asrwt>
<pdfrwt beam="1">  1        1 0.38387161E+00 0.74168947E+03</pdfrwt>
<pdfrwt beam="2">  1       -1 0.28449237E-01 0.74168947E+03</pdfrwt>
<totfact> 0.16064065E+01</totfact>
</mgrwt>
</event>
<event>
 4    2  0.3179755E-007  0.6619773E+03  0.7818608E-02  0.1022216E+00
          1   -1    0    0  501    0  0.00000000000E+00  0.00000000000E+00  0.33271016641E+03  0.33271016645E+03  0.50400000000E-02 0. -1.
         -1   -1    0    0    0  501 -0.00000000000E+00 -0.00000000000E+00 -0.11063861855E+04  0.11063861856E+04  0.50400000000E-02 0.  1.
    8880023    1    1    2    0    0  0.17062922092E+02 -0.64129795740E+02 -0.14821132188E+02  0.66214322184E+03  0.65864270000E+03 0. -1.
    8880022    1    1    2    0    0 -0.17062922092E+02  0.64129795740E+02 -0.75885488694E+03  0.77695313016E+03  0.15294330000E+03 0.  0.
<mgrwt>
<rscale>  0 0.46895266E+03</rscale>
<asrwt>0</asrwt>
<pdfrwt beam="1">  1        1 0.51186180E-01 0.66197733E+03</pdfrwt>
<pdfrwt beam="2">  1       -1 0.17021326E+00 0.66197733E+03</pdfrwt>
<totfact> 0.19447243E+01</totfact>
</mgrwt>
</event>
<event>
 4    2  0.3179755E-007  0.7391097E+03  0.7818608E-02  0.9862548E-01
         -1   -1    0    0    0  501 -0.00000000000E+00  0.00000000000E+00  0.33036322436E+03  0.33036322440E+03  0.50400000000E-02 0.  1.
          1   -1    0    0  501    0  0.00000000000E+00 -0.00000000000E+00 -0.12816641417E+04  0.12816641417E+04  0.50400000000E-02 0. -1.
    8880023    1    1    2    0    0 -0.24013229286E+02 -0.33450906359E+03 -0.99648362304E+03  0.12406702890E+04  0.65864270000E+03 0.  0.
    8880022    1    1    2    0    0  0.24013229286E+02  0.33450906359E+03  0.45182705686E+02  0.37135707710E+03  0.15294330000E+03 0.  0.
<mgrwt>
<rscale>  0 0.62111207E+03</rscale>
<asrwt>0</asrwt>
<pdfrwt beam="1">  1        1 0.19717910E+00 0.73910970E+03</pdfrwt>
<pdfrwt beam="2">  1       -1 0.50825112E-01 0.73910970E+03</pdfrwt>
<totfact> 0.37341765E+01</totfact>
</mgrwt>
</event>
<event>
 4    2  0.3179755E-007  0.9021149E+03  0.7818608E-02  0.9522645E-01
          1   -1    0    0  501    0  0.00000000000E+00  0.00000000000E+00  0.10366633732E+04  0.10366633732E+04  0.50400000000E-02 0. -1.
         -1   -1    0    0    0  501 -0.00000000000E+00 -0.00000000000E+00 -0.74643571319E+03  0.74643571320E+03  0.50400000000E-02 0.  1.
    8880023    1    1    2    0    0  0.57499471428E+03  0.22222081633E+03 -0.26421379856E+03  0.94001071817E+03  0.65864270000E+03 0.  1.
    8880022    1    1    2    0    0 -0.57499471428E+03 -0.22222081633E+03  0.55444145857E+03  0.84308836824E+03  0.15294330000E+03 0.  0.
<mgrwt>
<rscale>  0 0.82634685E+03</rscale>
<asrwt>0</asrwt>
<pdfrwt beam="1">  1        1 0.15948667E+00 0.90211486E+03</pdfrwt>
<pdfrwt beam="2">  1       -1 0.11483626E+00 0.90211486E+03</pdfrwt>
<totfact> 0.98898801E+00</totfact>
</mgrwt>
</event>
<event>
 4    2  0.3179755E-007  0.6662699E+03  0.7818608E-02  0.1018491E+00
          1   -1    0    0  501    0  0.00000000000E+00  0.00000000000E+00  0.24940655477E+03  0.24940655482E+03  0.50400000000E-02 0. -1.
         -1   -1    0    0    0  501 -0.00000000000E+00 -0.00000000000E+00 -0.72566134665E+03  0.72566134667E+03  0.50400000000E-02 0.  1.
    8880023    1    1    2    0    0 -0.98819452120E+02 -0.18440053424E+02 -0.34888444145E+03  0.75208768069E+03  0.65864270000E+03 0.  1.
    8880022    1    1    2    0    0  0.98819452120E+02  0.18440053424E+02 -0.12737035042E+03  0.22298022080E+03  0.15294330000E+03 0.  0.
<mgrwt>
<rscale>  0 0.48235115E+03</rscale>
<asrwt>0</asrwt>
<pdfrwt beam="1">  1        1 0.38370240E-01 0.66626986E+03</pdfrwt>
<pdfrwt beam="2">  1       -1 0.11164021E+00 0.66626986E+03</pdfrwt>
<totfact> 0.84058871E+01</totfact>
</mgrwt>
</event>
<event>
 4    2  0.3179755E-007  0.8813175E+03  0.7818608E-02  0.9556714E-01
          1   -1    0    0  501    0  0.00000000000E+00  0.00000000000E+00  0.13074746322E+04  0.13074746322E+04  0.50400000000E-02 0. -1.
         -1   -1    0    0    0  501 -0.00000000000E+00 -0.00000000000E+00 -0.65544515048E+03  0.65544515050E+03  0.50400000000E-02 0.  1.
    8880023    1    1    2    0    0 -0.58548547835E+03  0.10817914270E+02  0.94356301430E+03  0.12911357949E+04  0.65864270000E+03 0. -1.
    8880022    1    1    2    0    0  0.58548547835E+03 -0.10817914270E+02 -0.29153353260E+03  0.67178398780E+03  0.15294330000E+03 0.  0.
<mgrwt>
<rscale>  0 0.80228594E+03</rscale>
<asrwt>0</asrwt>
<pdfrwt beam="1">  1        1 0.20114994E+00 0.88131747E+03</pdfrwt>
<pdfrwt beam="2">  1       -1 0.10083772E+00 0.88131747E+03</pdfrwt>
<totfact> 0.85063728E+00</totfact>
</mgrwt>
</event>
<event>
 4    2  0.3179755E-007  0.6794042E+03  0.7818608E-02  0.1009663E+00
          1   -1    0    0  501    0  0.00000000000E+00  0.00000000000E+00  0.11037012412E+04  0.11037012412E+04  0.50400000000E-02 0. -1.
         -1   -1    0    0    0  501 -0.00000000000E+00 -0.00000000000E+00 -0.23947657099E+03  0.23947657104E+03  0.50400000000E-02 0.  1.
    8880023    1    1    2    0    0 -0.68644562233E+02  0.15188088855E+03  0.88534076214E+03  0.11159831323E+04  0.65864270000E+03 0.  0.
    8880022    1    1    2    0    0  0.68644562233E+02 -0.15188088855E+03 -0.21116091954E+02  0.22719467992E+03  0.15294330000E+03 0.  0.
<mgrwt>
<rscale>  0 0.51608915E+03</rscale>
<asrwt>0</asrwt>
<pdfrwt beam="1">  1        1 0.16980019E+00 0.67940421E+03</pdfrwt>
<pdfrwt beam="2">  1       -1 0.36842550E-01 0.67940421E+03</pdfrwt>
<totfact> 0.91514208E+01</totfact>
</mgrwt>
</event>
<event>
 4    2  0.3179755E-007  0.9181080E+03  0.7818608E-02  0.9497566E-01
          1   -1    0    0  501    0  0.00000000000E+00  0.00000000000E+00  0.11561806141E+04  0.11561806141E+04  0.50400000000E-02 0. -1.
         -1   -1    0    0    0  501 -0.00000000000E+00 -0.00000000000E+00 -0.59364045062E+03  0.59364045064E+03  0.50400000000E-02 0.  1.
    8880023    1    1    2    0    0 -0.14682695918E+03  0.62253830539E+03  0.59044297292E+03  0.10915792267E+04  0.65864270000E+03 0. -1.
    8880022    1    1    2    0    0  0.14682695918E+03 -0.62253830539E+03 -0.27902809410E+02  0.65824183809E+03  0.15294330000E+03 0.  0.
<mgrwt>
<rscale>  0 0.84463498E+03</rscale>
<asrwt>0</asrwt>
<pdfrwt beam="1">  1        1 0.17787394E+00 0.91810800E+03</pdfrwt>
<pdfrwt beam="2">  1       -1 0.91329301E-01 0.91810800E+03</pdfrwt>
<totfact> 0.13619509E+01</totfact>
</mgrwt>
</event>
<event>
 4    2  0.3179755E-007  0.7544558E+03  0.7818608E-02  0.9819678E-01
          1   -1    0    0  501    0  0.00000000000E+00  0.00000000000E+00  0.19466321066E+04  0.19466321066E+04  0.50400000000E-02 0. -1.
         -1   -1    0    0    0  501 -0.00000000000E+00 -0.00000000000E+00 -0.43960425720E+03  0.43960425723E+03  0.50400000000E-02 0.  1.
    8880023    1    1    2    0    0 -0.32548608201E+03  0.17161624646E+03  0.17595537062E+04  0.19144797666E+04  0.65864270000E+03 0. -1.
    8880022    1    1    2    0    0  0.32548608201E+03 -0.17161624646E+03 -0.25252585679E+03  0.47175659719E+03  0.15294330000E+03 0.  0.
<mgrwt>
<rscale>  0 0.64317110E+03</rscale>
<asrwt>0</asrwt>
<pdfrwt beam="1">  1        1 0.29948186E+00 0.75445579E+03</pdfrwt>
<pdfrwt beam="2">  1       -1 0.67631425E-01 0.75445579E+03</pdfrwt>
<totfact> 0.75014416E+00</totfact>
</mgrwt>
</event>
<event>
 4    2  0.3179755E-007  0.6941861E+03  0.7818608E-02  0.1002223E+00
         -1   -1    0    0    0  501 -0.00000000000E+00  0.00000000000E+00  0.54178501734E+03  0.54178501736E+03  0.50400000000E-02 0.  1.
          1   -1    0    0  501    0  0.00000000000E+00 -0.00000000000E+00 -0.75486845845E+03  0.75486845847E+03  0.50400000000E-02 0. -1.
    8880023    1    1    2    0    0 -0.16472746095E+03  0.14473757739E+03 -0.53628373264E+03  0.87720838508E+03  0.65864270000E+03 0. -1.
    8880022    1    1    2    0    0  0.16472746095E+03 -0.14473757739E+03  0.32320029153E+03  0.41944509075E+03  0.15294330000E+03 0.  0.
<mgrwt>
<rscale>  0 0.54686077E+03</rscale>
<asrwt>0</asrwt>
<pdfrwt beam="1">  1        1 0.11613361E+00 0.69418608E+03</pdfrwt>
<pdfrwt beam="2">  1       -1 0.83351541E-01 0.69418608E+03</pdfrwt>
<totfact> 0.35683932E+01</totfact>
</mgrwt>
</event>
<event>
 4    2  0.3179755E-007  0.9298075E+03  0.7818608E-02  0.9479782E-01
         -1   -1    0    0    0  501 -0.00000000000E+00  0.00000000000E+00  0.44013656786E+03  0.44013656789E+03  0.50400000000E-02 0.  1.
          1   -1    0    0  501    0  0.00000000000E+00 -0.00000000000E+00 -0.20178191527E+04  0.20178191527E+04  0.50400000000E-02 0. -1.
    8880023    1    1    2    0    0  0.11493643884E+03  0.64615889884E+03 -0.15196978292E+04  0.17815789081E+04  0.65864270000E+03 0. -1.
    8880022    1    1    2    0    0 -0.11493643884E+03 -0.64615889884E+03 -0.57984755609E+02  0.67637681245E+03  0.15294330000E+03 0.  0.
<mgrwt>
<rscale>  0 0.85790955E+03</rscale>
<asrwt>0</asrwt>
<pdfrwt beam="1">  1        1 0.31043371E+00 0.92980746E+03</pdfrwt>
<pdfrwt beam="2">  1       -1 0.67713319E-01 0.92980746E+03</pdfrwt>
<totfact> 0.65337173E+00</totfact>
</mgrwt>
</event>
<event>
 4    2  0.3179755E-007  0.9805167E+03  0.7818608E-02  0.9407504E-01
         -1   -1    0    0    0  501 -0.00000000000E+00  0.00000000000E+00  0.62052396391E+03  0.62052396394E+03  0.50400000000E-02 0.  1.
          1   -1    0    0  501    0  0.00000000000E+00 -0.00000000000E+00 -0.19148576910E+04  0.19148576910E+04  0.50400000000E-02 0. -1.
    8880023    1    1    2    0    0  0.53578873302E+03  0.49044192562E+03 -0.14752367127E+04  0.17713656917E+04  0.65864270000E+03 0.  0.
    8880022    1    1    2    0    0 -0.53578873302E+03 -0.49044192562E+03  0.18090298567E+03  0.76401596323E+03  0.15294330000E+03 0.  0.
<mgrwt>
<rscale>  0 0.91460730E+03</rscale>
<asrwt>0</asrwt>
<pdfrwt beam="1">  1        1 0.29459349E+00 0.98051673E+03</pdfrwt>
<pdfrwt beam="2">  1       -1 0.95465226E-01 0.98051673E+03</pdfrwt>
<totfact> 0.36511801E+00</totfact>
</mgrwt>
</event>
<event>
 4    2  0.3179755E-007  0.9385139E+03  0.7818608E-02  0.9466836E-01
          1   -1    0    0  501    0  0.00000000000E+00  0.00000000000E+00  0.11996436034E+04  0.11996436034E+04  0.50400000000E-02 0. -1.
         -1   -1    0    0    0  501 -0.00000000000E+00 -0.00000000000E+00 -0.11725321342E+04  0.11725321343E+04  0.50400000000E-02 0.  1.
    8880023    1    1    2    0    0  0.60692455387E+03 -0.28042957410E+03  0.87396438529E+03  0.12824282097E+04  0.65864270000E+03 0.  0.
    8880022    1    1    2    0    0 -0.60692455387E+03  0.28042957410E+03 -0.84685291612E+03  0.10897475279E+04  0.15294330000E+03 0.  0.
<mgrwt>
<rscale>  0 0.86773632E+03</rscale>
<asrwt>0</asrwt>
<pdfrwt beam="1">  1        1 0.18456055E+00 0.93851391E+03</pdfrwt>
<pdfrwt beam="2">  1       -1 0.18038956E+00 0.93851391E+03</pdfrwt>
<totfact> 0.22389135E+00</totfact>
</mgrwt>
</event>
<event>
 4    2  0.3179755E-007  0.6972428E+03  0.7818608E-02  0.1000884E+00
          1   -1    0    0  501    0  0.00000000000E+00  0.00000000000E+00  0.16948419220E+04  0.16948419220E+04  0.50400000000E-02 0. -1.
         -1   -1    0    0    0  501 -0.00000000000E+00 -0.00000000000E+00 -0.46249083751E+03  0.46249083753E+03  0.50400000000E-02 0.  1.
    8880023    1    1    2    0    0  0.22614055087E+03  0.34608960856E+02  0.15722983268E+04  0.17199620820E+04  0.65864270000E+03 0. -1.
    8880022    1    1    2    0    0 -0.22614055087E+03 -0.34608960856E+02 -0.33994724235E+03  0.43737067747E+03  0.15294330000E+03 0.  0.
<mgrwt>
<rscale>  0 0.55264443E+03</rscale>
<asrwt>0</asrwt>
<pdfrwt beam="1">  1        1 0.26074491E+00 0.69724281E+03</pdfrwt>
<pdfrwt beam="2">  1       -1 0.71152436E-01 0.69724281E+03</pdfrwt>
<totfact> 0.10064595E+01</totfact>
</mgrwt>
</event>
<event>
 4    2  0.3179755E-007  0.8648329E+03  0.7818608E-02  0.9585024E-01
          1   -1    0    0  501    0  0.00000000000E+00  0.00000000000E+00  0.76193913236E+03  0.76193913238E+03  0.50400000000E-02 0. -1.
         -1   -1    0    0    0  501 -0.00000000000E+00 -0.00000000000E+00 -0.10220310280E+04  0.10220310280E+04  0.50400000000E-02 0.  1.
    8880023    1    1    2    0    0  0.43206103806E+03 -0.35700000426E+03  0.35773191881E+03  0.93589960768E+03  0.65864270000E+03 0.  0.
    8880022    1    1    2    0    0 -0.43206103806E+03  0.35700000426E+03 -0.61782381440E+03  0.84807055267E+03  0.15294330000E+03 0.  0.
<mgrwt>
<rscale>  0 0.78295387E+03</rscale>
<asrwt>0</asrwt>
<pdfrwt beam="1">  1        1 0.11722140E+00 0.86483290E+03</pdfrwt>
<pdfrwt beam="2">  1       -1 0.15723554E+00 0.86483290E+03</pdfrwt>
<totfact> 0.74581100E+00</totfact>
</mgrwt>
</event>
<event>
 4    2  0.3179755E-007  0.1067346E+04  0.7818608E-02  0.9298314E-01
          1   -1    0    0  501    0  0.00000000000E+00  0.00000000000E+00  0.15456401062E+04  0.15456401062E+04  0.50400000000E-02 0. -1.
         -1   -1    0    0    0  501 -0.00000000000E+00 -0.00000000000E+00 -0.10088584478E+04  0.10088584478E+04  0.50400000000E-02 0.  1.
    8880023    1    1    2    0    0  0.39126445271E+03  0.74318932762E+03  0.10992316257E+04  0.15321679483E+04  0.65864270000E+03 0.  0.
    8880022    1    1    2    0    0 -0.39126445271E+03 -0.74318932762E+03 -0.56244996729E+03  0.10223306057E+04  0.15294330000E+03 0.  0.
<mgrwt>
<rscale>  0 0.10093827E+04</rscale>
<asrwt>0</asrwt>
<pdfrwt beam="1">  1        1 0.23779079E+00 0.10673465E+04</pdfrwt>
<pdfrwt beam="2">  1       -1 0.15520899E+00 0.10673465E+04</pdfrwt>
<totfact> 0.19279448E+00</totfact>
</mgrwt>
</event>
<event>
 4    2  0.3179755E-007  0.1252114E+04  0.7818608E-02  0.9108056E-01
          1   -1    0    0  501    0  0.00000000000E+00  0.00000000000E+00  0.22715059854E+04  0.22715059854E+04  0.50400000000E-02 0. -1.
         -1   -1    0    0    0  501 -0.00000000000E+00 -0.00000000000E+00 -0.91841774918E+03  0.91841774919E+03  0.50400000000E-02 0.  1.
    8880023    1    1    2    0    0 -0.43704787354E+03  0.97106608974E+03  0.16524341870E+04  0.20732412168E+04  0.65864270000E+03 0. -1.
    8880022    1    1    2    0    0  0.43704787354E+03 -0.97106608974E+03 -0.29934595073E+03  0.11166825178E+04  0.15294330000E+03 0.  0.
<mgrwt>
<rscale>  0 0.12054997E+04</rscale>
<asrwt>0</asrwt>
<pdfrwt beam="1">  1        1 0.34946246E+00 0.12521144E+04</pdfrwt>
<pdfrwt beam="2">  1       -1 0.14129504E+00 0.12521144E+04</pdfrwt>
<totfact> 0.77933157E-01</totfact>
</mgrwt>
</event>
<event>
 4    2  0.3179755E-007  0.7932628E+03  0.7818608E-02  0.9725557E-01
          1   -1    0    0  501    0  0.00000000000E+00  0.00000000000E+00  0.11276460562E+04  0.11276460562E+04  0.50400000000E-02 0. -1.
         -1   -1    0    0    0  501 -0.00000000000E+00 -0.00000000000E+00 -0.13003894162E+04  0.13003894162E+04  0.50400000000E-02 0.  1.
    8880023    1    1    2    0    0  0.40197710398E+03 -0.18403820841E+03  0.93463932016E+03  0.12258941713E+04  0.65864270000E+03 0.  0.
    8880022    1    1    2    0    0 -0.40197710398E+03  0.18403820841E+03 -0.11073826802E+04  0.12021413010E+04  0.15294330000E+03 0.  0.
<mgrwt>
<rscale>  0 0.69515310E+03</rscale>
<asrwt>0</asrwt>
<pdfrwt beam="1">  1        1 0.17348401E+00 0.79326279E+03</pdfrwt>
<pdfrwt beam="2">  1       -1 0.20005991E+00 0.79326279E+03</pdfrwt>
<totfact> 0.18846524E+00</totfact>
</mgrwt>
</event>
<event>
 4    2  0.3179755E-007  0.1040928E+04  0.7818608E-02  0.9329867E-01
          1   -1    0    0  501    0  0.00000000000E+00  0.00000000000E+00  0.21805236454E+04  0.21805236454E+04  0.50400000000E-02 0. -1.
         -1   -1    0    0    0  501 -0.00000000000E+00 -0.00000000000E+00 -0.54623976541E+03  0.54623976543E+03  0.50400000000E-02 0.  1.
    8880023    1    1    2    0    0 -0.48823398185E+03  0.64136507458E+03  0.17908744688E+03  0.10562216149E+04  0.65864270000E+03 0.  0.
    8880022    1    1    2    0    0  0.48823398185E+03 -0.64136507458E+03  0.14551964331E+04  0.16705417959E+04  0.15294330000E+03 0.  0.
<mgrwt>
<rscale>  0 0.98079137E+03</rscale>
<asrwt>0</asrwt>
<pdfrwt beam="1">  1        1 0.33546518E+00 0.10409283E+04</pdfrwt>
<pdfrwt beam="2">  1       -1 0.84036887E-01 0.10409283E+04</pdfrwt>
<totfact> 0.31779773E+00</totfact>
</mgrwt>
</event>
<event>
 4    2  0.3231693E-007  0.9337345E+03  0.7818608E-02  0.9473913E-01
          1   -1    0    0  501    0  0.00000000000E+00  0.00000000000E+00  0.20298862696E+04  0.20298862696E+04  0.50400000000E-02 0. -1.
         -1   -1    0    0    0  501 -0.00000000000E+00 -0.00000000000E+00 -0.91560274267E+03  0.91560274269E+03  0.50400000000E-02 0.  1.
    8880023    1    1    2    0    0  0.48749690995E+03  0.44765681692E+03  0.17700991492E+04  0.20012773589E+04  0.65864270000E+03 0.  0.
    8880022    1    1    2    0    0 -0.48749690995E+03 -0.44765681692E+03 -0.65581562229E+03  0.94421165339E+03  0.15294330000E+03 0.  0.
<mgrwt>
<rscale>  0 0.86234714E+03</rscale>
<asrwt>0</asrwt>
<pdfrwt beam="1">  1        1 0.31229019E+00 0.93373447E+03</pdfrwt>
<pdfrwt beam="2">  1       -1 0.14086196E+00 0.93373447E+03</pdfrwt>
<totfact> 0.11990400E+00</totfact>
</mgrwt>
</event>
<event>
 4    2  0.3227142E-007  0.7374743E+03  0.7818608E-02  0.9867366E-01
         -1   -1    0    0    0  501 -0.00000000000E+00  0.00000000000E+00  0.79326732622E+03  0.79326732624E+03  0.50400000000E-02 0.  1.
          1   -1    0    0  501    0  0.00000000000E+00 -0.00000000000E+00 -0.16327768658E+04  0.16327768658E+04  0.50400000000E-02 0. -1.
    8880023    1    1    2    0    0  0.32374606922E+03  0.72433371934E+02 -0.14998726682E+04  0.16713725910E+04  0.65864270000E+03 0. -1.
    8880022    1    1    2    0    0 -0.32374606922E+03 -0.72433371934E+02  0.66036312867E+03  0.75467160105E+03  0.15294330000E+03 0.  0.
<mgrwt>
<rscale>  0 0.61869255E+03</rscale>
<asrwt>0</asrwt>
<pdfrwt beam="1">  1        1 0.25119644E+00 0.73747428E+03</pdfrwt>
<pdfrwt beam="2">  1       -1 0.12204113E+00 0.73747428E+03</pdfrwt>
<totfact> 0.32988971E+00</totfact>
</mgrwt>
</event>
<event>
 4    2  0.3179755E-007  0.6885552E+03  0.7818608E-02  0.1004847E+00
         -1   -1    0    0    0  501 -0.00000000000E+00  0.00000000000E+00  0.18892362362E+03  0.18892362369E+03  0.50400000000E-02 0.  1.
          1   -1    0    0  501    0  0.00000000000E+00 -0.00000000000E+00 -0.16563912382E+04  0.16563912382E+04  0.50400000000E-02 0. -1.
    8880023    1    1    2    0    0 -0.10790610307E+03 -0.16927592534E+03 -0.14339920308E+04  0.15907361242E+04  0.65864270000E+03 0.  0.
    8880022    1    1    2    0    0  0.10790610307E+03  0.16927592534E+03 -0.33475583743E+02  0.25457873772E+03  0.15294330000E+03 0.  0.
<mgrwt>
<rscale>  0 0.53575069E+03</rscale>
<asrwt>0</asrwt>
<pdfrwt beam="1">  1        1 0.25482941E+00 0.68855521E+03</pdfrwt>
<pdfrwt beam="2">  1       -1 0.29065174E-01 0.68855521E+03</pdfrwt>
<totfact> 0.57020888E+01</totfact>
</mgrwt>
</event>
<event>
 4    2  0.3179755E-007  0.7388529E+03  0.7818608E-02  0.9863301E-01
         -1   -1    0    0    0  501 -0.00000000000E+00  0.00000000000E+00  0.36238063596E+03  0.36238063600E+03  0.50400000000E-02 0.  1.
          1   -1    0    0  501    0  0.00000000000E+00 -0.00000000000E+00 -0.86629215827E+03  0.86629215828E+03  0.50400000000E-02 0. -1.
    8880023    1    1    2    0    0 -0.31156649015E+03 -0.12255492860E+03 -0.24409780263E+03  0.77813066500E+03  0.65864270000E+03 0.  1.
    8880022    1    1    2    0    0  0.31156649015E+03  0.12255492860E+03 -0.25981371968E+03  0.45054212928E+03  0.15294330000E+03 0. -1.
<mgrwt>
<rscale>  0 0.62073310E+03</rscale>
<asrwt>0</asrwt>
<pdfrwt beam="1">  1        1 0.13327572E+00 0.73885289E+03</pdfrwt>
<pdfrwt beam="2">  1       -1 0.55750867E-01 0.73885289E+03</pdfrwt>
<totfact> 0.64581662E+01</totfact>
</mgrwt>
</event>
<event>
 4    2  0.3179755E-007  0.7290275E+03  0.7818608E-02  0.9893146E-01
          1   -1    0    0  501    0  0.00000000000E+00  0.00000000000E+00  0.20091451738E+04  0.20091451738E+04  0.50400000000E-02 0. -1.
         -1   -1    0    0    0  501 -0.00000000000E+00 -0.00000000000E+00 -0.21696130954E+03  0.21696130960E+03  0.50400000000E-02 0.  1.
    8880023    1    1    2    0    0  0.23357774609E+03  0.20763509054E+03  0.17236461937E+04  0.18714799762E+04  0.65864270000E+03 0.  0.
    8880022    1    1    2    0    0 -0.23357774609E+03 -0.20763509054E+03  0.68537670631E+02  0.35462650720E+03  0.15294330000E+03 0.  0.
<mgrwt>
<rscale>  0 0.60594633E+03</rscale>
<asrwt>0</asrwt>
<pdfrwt beam="1">  1        1 0.30909926E+00 0.72902750E+03</pdfrwt>
<pdfrwt beam="2">  1       -1 0.33378663E-01 0.72902750E+03</pdfrwt>
<totfact> 0.25852521E+01</totfact>
</mgrwt>
</event>
<event>
 4    2  0.3179755E-007  0.7053989E+03  0.7818608E-02  0.9975501E-01
          1   -1    0    0  501    0  0.00000000000E+00  0.00000000000E+00  0.11022549141E+04  0.11022549141E+04  0.50400000000E-02 0. -1.
         -1   -1    0    0    0  501 -0.00000000000E+00 -0.00000000000E+00 -0.25109468597E+03  0.25109468602E+03  0.50400000000E-02 0.  1.
    8880023    1    1    2    0    0  0.74445840118E+02  0.24131964144E+03  0.77598561143E+03  0.10486854761E+04  0.65864270000E+03 0. -1.
    8880022    1    1    2    0    0 -0.74445840118E+02 -0.24131964144E+03  0.75174616742E+02  0.30466412403E+03  0.15294330000E+03 0.  0.
<mgrwt>
<rscale>  0 0.56737648E+03</rscale>
<asrwt>0</asrwt>
<pdfrwt beam="1">  1        1 0.16957768E+00 0.70539886E+03</pdfrwt>
<pdfrwt beam="2">  1       -1 0.38629952E-01 0.70539886E+03</pdfrwt>
<totfact> 0.84041897E+01</totfact>
</mgrwt>
</event>
<event>
 4    2  0.3179755E-007  0.7610360E+03  0.7818608E-02  0.9802433E-01
         -1   -1    0    0    0  501 -0.00000000000E+00  0.00000000000E+00  0.31112534874E+03  0.31112534878E+03  0.50400000000E-02 0.  1.
          1   -1    0    0  501    0  0.00000000000E+00 -0.00000000000E+00 -0.21658718069E+04  0.21658718069E+04  0.50400000000E-02 0. -1.
    8880023    1    1    2    0    0 -0.23108775014E+03 -0.30325565343E+03 -0.19160426054E+04  0.20616486150E+04  0.65864270000E+03 0. -1.
    8880022    1    1    2    0    0  0.23108775014E+03  0.30325565343E+03  0.61296147248E+02  0.41534854072E+03  0.15294330000E+03 0.  0.
<mgrwt>
<rscale>  0 0.65232147E+03</rscale>
<asrwt>0</asrwt>
<pdfrwt beam="1">  1        1 0.33321104E+00 0.76103597E+03</pdfrwt>
<pdfrwt beam="2">  1       -1 0.47865440E-01 0.76103597E+03</pdfrwt>
<totfact> 0.10486285E+01</totfact>
</mgrwt>
</event>
<event>
 4    2  0.3179755E-007  0.1079968E+04  0.7818608E-02  0.9283694E-01
          1   -1    0    0  501    0  0.00000000000E+00  0.00000000000E+00  0.24520579867E+04  0.24520579867E+04  0.50400000000E-02 0. -1.
         -1   -1    0    0    0  501 -0.00000000000E+00 -0.00000000000E+00 -0.81738237757E+03  0.81738237758E+03  0.50400000000E-02 0.  1.
    8880023    1    1    2    0    0 -0.55659920602E+03 -0.65016723191E+03  0.20414835236E+04  0.23095422250E+04  0.65864270000E+03 0.  0.
    8880022    1    1    2    0    0  0.55659920602E+03  0.65016723191E+03 -0.40680791445E+03  0.95989813932E+03  0.15294330000E+03 0.  0.
<mgrwt>
<rscale>  0 0.10229796E+04</rscale>
<asrwt>0</asrwt>
<pdfrwt beam="1">  1        1 0.37723968E+00 0.10799677E+04</pdfrwt>
<pdfrwt beam="2">  1       -1 0.12575114E+00 0.10799677E+04</pdfrwt>
<totfact> 0.81019446E-01</totfact>
</mgrwt>
</event>
<event>
 4    2  0.3179755E-007  0.7190867E+03  0.7818608E-02  0.9925688E-01
          1   -1    0    0  501    0  0.00000000000E+00  0.00000000000E+00  0.32391972726E+04  0.32391972727E+04  0.50400000000E-02 0. -1.
         -1   -1    0    0    0  501 -0.00000000000E+00 -0.00000000000E+00 -0.17247017659E+03  0.17247017666E+03  0.50400000000E-02 0.  1.
    8880023    1    1    2    0    0  0.24542978879E+03  0.15178841274E+03  0.29912379583E+04  0.30764574160E+04  0.65864270000E+03 0. -1.
    8880022    1    1    2    0    0 -0.24542978879E+03 -0.15178841274E+03  0.75489137781E+02  0.33521003327E+03  0.15294330000E+03 0.  0.
<mgrwt>
<rscale>  0 0.59032312E+03</rscale>
<asrwt>0</asrwt>
<pdfrwt beam="1">  1        1 0.49833799E+00 0.71908672E+03</pdfrwt>
<pdfrwt beam="2">  1       -1 0.26533876E-01 0.71908672E+03</pdfrwt>
<totfact> 0.54110352E+00</totfact>
</mgrwt>
</event>
<event>
 4    2  0.3179755E-007  0.6816021E+03  0.7818608E-02  0.1008432E+00
         -1   -1    0    0    0  501 -0.00000000000E+00  0.00000000000E+00  0.21509976551E+04  0.21509976551E+04  0.50400000000E-02 0.  1.
          1   -1    0    0  501    0  0.00000000000E+00 -0.00000000000E+00 -0.40078946455E+03  0.40078946458E+03  0.50400000000E-02 0. -1.
    8880023    1    1    2    0    0 -0.10774987236E+03  0.13842390343E+03 -0.98328301968E+02  0.68865802345E+03  0.65864270000E+03 0. -1.
    8880022    1    1    2    0    0  0.10774987236E+03 -0.13842390343E+03  0.18485364925E+04  0.18631290962E+04  0.15294330000E+03 0.  0.
<mgrwt>
<rscale>  0 0.52102779E+03</rscale>
<asrwt>0</asrwt>
<pdfrwt beam="1">  1        1 0.61659916E-01 0.68160210E+03</pdfrwt>
<pdfrwt beam="2">  1       -1 0.33092273E+00 0.68160210E+03</pdfrwt>
<totfact> 0.13315058E+00</totfact>
</mgrwt>
</event>
<event>
 4    2  0.3179755E-007  0.6812270E+03  0.7818608E-02  0.1008638E+00
         -1   -1    0    0    0  501 -0.00000000000E+00  0.00000000000E+00  0.10555254078E+04  0.10555254078E+04  0.50400000000E-02 0.  1.
          1   -1    0    0  501    0  0.00000000000E+00 -0.00000000000E+00 -0.62760039777E+03  0.62760039779E+03  0.50400000000E-02 0. -1.
    8880023    1    1    2    0    0 -0.17058054762E+03  0.34092310476E+02 -0.42257531561E+03  0.80164837210E+03  0.65864270000E+03 0. -1.
    8880022    1    1    2    0    0  0.17058054762E+03 -0.34092310476E+02  0.85050032563E+03  0.88147743350E+03  0.15294330000E+03 0.  0.
<mgrwt>
<rscale>  0 0.52019573E+03</rscale>
<asrwt>0</asrwt>
<pdfrwt beam="1">  1        1 0.96553908E-01 0.68122699E+03</pdfrwt>
<pdfrwt beam="2">  1       -1 0.16238852E+00 0.68122699E+03</pdfrwt>
<totfact> 0.93594467E+00</totfact>
</mgrwt>
</event>
<event>
 4    2  0.3179755E-007  0.6790978E+03  0.7818608E-02  0.1009839E+00
         -1   -1    0    0    0  501 -0.00000000000E+00  0.00000000000E+00  0.48525469290E+03  0.48525469292E+03  0.50400000000E-02 0.  1.
          1   -1    0    0  501    0  0.00000000000E+00 -0.00000000000E+00 -0.17391142955E+04  0.17391142955E+04  0.50400000000E-02 0. -1.
    8880023    1    1    2    0    0 -0.36228960807E+02 -0.16140342809E+03 -0.16412697485E+04  0.17762151328E+04  0.65864270000E+03 0. -1.
    8880022    1    1    2    0    0  0.36228960807E+02  0.16140342809E+03  0.38741014590E+03  0.44815385568E+03  0.15294330000E+03 0.  0.
<mgrwt>
<rscale>  0 0.51538808E+03</rscale>
<asrwt>0</asrwt>
<pdfrwt beam="1">  1        1 0.26755604E+00 0.67909779E+03</pdfrwt>
<pdfrwt beam="2">  1       -1 0.74654569E-01 0.67909779E+03</pdfrwt>
<totfact> 0.85379528E+00</totfact>
</mgrwt>
</event>
<event>
 4    2  0.3179755E-007  0.7403451E+03  0.7818608E-02  0.9858943E-01
          1   -1    0    0  501    0  0.00000000000E+00  0.00000000000E+00  0.99416938392E+03  0.99416938393E+03  0.50400000000E-02 0. -1.
         -1   -1    0    0    0  501 -0.00000000000E+00 -0.00000000000E+00 -0.32001911688E+03  0.32001911692E+03  0.50400000000E-02 0.  1.
    8880023    1    1    2    0    0  0.33696175925E+03  0.27522434167E+02  0.55218051892E+03  0.92358770202E+03  0.65864270000E+03 0. -1.
    8880022    1    1    2    0    0 -0.33696175925E+03 -0.27522434167E+02  0.12196974811E+03  0.39060079883E+03  0.15294330000E+03 0.  1.
<mgrwt>
<rscale>  0 0.62293022E+03</rscale>
<asrwt>0</asrwt>
<pdfrwt beam="1">  1        1 0.15294913E+00 0.74034513E+03</pdfrwt>
<pdfrwt beam="2">  1       -1 0.49233711E-01 0.74034513E+03</pdfrwt>
<totfact> 0.64678683E+01</totfact>
</mgrwt>
</event>
<event>
 4    2  0.3179755E-007  0.8479075E+03  0.7818608E-02  0.9615446E-01
         -1   -1    0    0    0  501 -0.00000000000E+00  0.00000000000E+00  0.31534501667E+03  0.31534501671E+03  0.50400000000E-02 0.  1.
          1   -1    0    0  501    0  0.00000000000E+00 -0.00000000000E+00 -0.31558808870E+04  0.31558808870E+04  0.50400000000E-02 0. -1.
    8880023    1    1    2    0    0  0.13674272421E+03  0.51617665822E+03 -0.27870815450E+04  0.29132062508E+04  0.65864270000E+03 0. -1.
    8880022    1    1    2    0    0 -0.13674272421E+03 -0.51617665822E+03 -0.53454325347E+02  0.55801965290E+03  0.15294330000E+03 0.  0.
<mgrwt>
<rscale>  0 0.76282212E+03</rscale>
<asrwt>0</asrwt>
<pdfrwt beam="1">  1        1 0.48552012E+00 0.84790750E+03</pdfrwt>
<pdfrwt beam="2">  1       -1 0.48514620E-01 0.84790750E+03</pdfrwt>
<totfact> 0.20616342E+00</totfact>
</mgrwt>
</event>
<event>
 4    2  0.3179755E-007  0.7707422E+03  0.7818608E-02  0.9778051E-01
         -1   -1    0    0    0  501 -0.00000000000E+00  0.00000000000E+00  0.73155998616E+03  0.73155998617E+03  0.50400000000E-02 0.  1.
          1   -1    0    0  501    0  0.00000000000E+00 -0.00000000000E+00 -0.68241815638E+03  0.68241815640E+03  0.50400000000E-02 0. -1.
    8880023    1    1    2    0    0  0.35306886367E+03  0.18861512589E+03 -0.33320485876E+03  0.83968385263E+03  0.65864270000E+03 0.  0.
    8880022    1    1    2    0    0 -0.35306886367E+03 -0.18861512589E+03  0.38234668854E+03  0.57429428994E+03  0.15294330000E+03 0.  0.
<mgrwt>
<rscale>  0 0.66553868E+03</rscale>
<asrwt>0</asrwt>
<pdfrwt beam="1">  1        1 0.10498741E+00 0.77074217E+03</pdfrwt>
<pdfrwt beam="2">  1       -1 0.11254769E+00 0.77074217E+03</pdfrwt>
<totfact> 0.20961808E+01</totfact>
</mgrwt>
</event>
<event>
 4    2  0.3179755E-007  0.1001774E+04  0.7818608E-02  0.9379241E-01
          1   -1    0    0  501    0  0.00000000000E+00  0.00000000000E+00  0.11865976090E+04  0.11865976090E+04  0.50400000000E-02 0. -1.
         -1   -1    0    0    0  501 -0.00000000000E+00 -0.00000000000E+00 -0.10745910761E+04  0.10745910761E+04  0.50400000000E-02 0.  1.
    8880023    1    1    2    0    0 -0.55281897954E+03  0.51393727617E+03  0.75780108233E+03  0.12561102796E+04  0.65864270000E+03 0. -1.
    8880022    1    1    2    0    0  0.55281897954E+03 -0.51393727617E+03 -0.64579454947E+03  0.10050784055E+04  0.15294330000E+03 0.  0.
<mgrwt>
<rscale>  0 0.93803953E+03</rscale>
<asrwt>0</asrwt>
<pdfrwt beam="1">  1        1 0.18255348E+00 0.10017737E+04</pdfrwt>
<pdfrwt beam="2">  1       -1 0.16532170E+00 0.10017737E+04</pdfrwt>
<totfact> 0.29229772E+00</totfact>
</mgrwt>
</event>
<event>
 4    2  0.3179755E-007  0.6998112E+03  0.7818608E-02  0.9997985E-01
          1   -1    0    0  501    0  0.00000000000E+00  0.00000000000E+00  0.76628798183E+03  0.76628798185E+03  0.50400000000E-02 0. -1.
         -1   -1    0    0    0  501 -0.00000000000E+00 -0.00000000000E+00 -0.69609517109E+03  0.69609517110E+03  0.50400000000E-02 0.  1.
    8880023    1    1    2    0    0  0.58945178269E+02 -0.22902191368E+03  0.56073065250E+03  0.89674669886E+03  0.65864270000E+03 0. -1.
    8880022    1    1    2    0    0 -0.58945178269E+02  0.22902191368E+03 -0.49053784176E+03  0.56563645410E+03  0.15294330000E+03 0.  0.
<mgrwt>
<rscale>  0 0.55738673E+03</rscale>
<asrwt>0</asrwt>
<pdfrwt beam="1">  1        1 0.11789046E+00 0.69981124E+03</pdfrwt>
<pdfrwt beam="2">  1       -1 0.10709156E+00 0.69981124E+03</pdfrwt>
<totfact> 0.19896051E+01</totfact>
</mgrwt>
</event>
<event>
 4    2  0.3179755E-007  0.6986692E+03  0.7818608E-02  0.1000277E+00
          1   -1    0    0  501    0  0.00000000000E+00  0.00000000000E+00  0.10834786154E+04  0.10834786154E+04  0.50400000000E-02 0. -1.
         -1   -1    0    0    0  501 -0.00000000000E+00 -0.00000000000E+00 -0.24986567296E+03  0.24986567301E+03  0.50400000000E-02 0.  1.
    8880023    1    1    2    0    0  0.79800274392E+01  0.23294798162E+03  0.78407093258E+03  0.10501932568E+04  0.65864270000E+03 0. -1.
    8880022    1    1    2    0    0 -0.79800274392E+01 -0.23294798162E+03  0.49542009872E+02  0.28315103167E+03  0.15294330000E+03 0.  0.
<mgrwt>
<rscale>  0 0.55529065E+03</rscale>
<asrwt>0</asrwt>
<pdfrwt beam="1">  1        1 0.16668902E+00 0.69866920E+03</pdfrwt>
<pdfrwt beam="2">  1       -1 0.38440872E-01 0.69866920E+03</pdfrwt>
<totfact> 0.87626075E+01</totfact>
</mgrwt>
</event>
<event>
 4    2  0.3179755E-007  0.7256903E+03  0.7818608E-02  0.9903782E-01
          1   -1    0    0  501    0  0.00000000000E+00  0.00000000000E+00  0.97166437893E+03  0.97166437895E+03  0.50400000000E-02 0. -1.
         -1   -1    0    0    0  501 -0.00000000000E+00 -0.00000000000E+00 -0.65553485500E+03  0.65553485502E+03  0.50400000000E-02 0.  1.
    8880023    1    1    2    0    0  0.16426410632E+03 -0.25658044916E+03  0.77097542450E+03  0.10587868222E+04  0.65864270000E+03 0. -1.
    8880022    1    1    2    0    0 -0.16426410632E+03  0.25658044916E+03 -0.45484590056E+03  0.56841241172E+03  0.15294330000E+03 0.  0.
<mgrwt>
<rscale>  0 0.60078342E+03</rscale>
<asrwt>0</asrwt>
<pdfrwt beam="1">  1        1 0.14948683E+00 0.72569031E+03</pdfrwt>
<pdfrwt beam="2">  1       -1 0.10085152E+00 0.72569031E+03</pdfrwt>
<totfact> 0.15386689E+01</totfact>
</mgrwt>
</event>
<event>
 4    2  0.3179755E-007  0.7590128E+03  0.7818608E-02  0.9807670E-01
         -1   -1    0    0    0  501 -0.00000000000E+00  0.00000000000E+00  0.34760852246E+03  0.34760852249E+03  0.50400000000E-02 0.  1.
          1   -1    0    0  501    0  0.00000000000E+00 -0.00000000000E+00 -0.12355681627E+04  0.12355681627E+04  0.50400000000E-02 0. -1.
    8880023    1    1    2    0    0 -0.37428238770E+03  0.46935541770E+02 -0.89826998245E+03  0.11760057051E+04  0.65864270000E+03 0. -1.
    8880022    1    1    2    0    0  0.37428238770E+03 -0.46935541770E+02  0.10310342249E+02  0.40717098005E+03  0.15294330000E+03 0.  0.
<mgrwt>
<rscale>  0 0.64952552E+03</rscale>
<asrwt>0</asrwt>
<pdfrwt beam="1">  1        1 0.19008741E+00 0.75901282E+03</pdfrwt>
<pdfrwt beam="2">  1       -1 0.53478235E-01 0.75901282E+03</pdfrwt>
<totfact> 0.36468390E+01</totfact>
</mgrwt>
</event>
<event>
 4    2  0.3179755E-007  0.6587495E+03  0.7818608E-02  0.1025476E+00
          1   -1    0    0  501    0  0.00000000000E+00  0.00000000000E+00  0.39955952666E+03  0.39955952669E+03  0.50400000000E-02 0. -1.
         -1   -1    0    0    0  501 -0.00000000000E+00 -0.00000000000E+00 -0.57905629485E+03  0.57905629487E+03  0.50400000000E-02 0.  1.
    8880023    1    1    2    0    0  0.69934891524E+01 -0.95775562072E+01  0.93617917257E+02  0.66536843866E+03  0.65864270000E+03 0. -1.
    8880022    1    1    2    0    0 -0.69934891524E+01  0.95775562072E+01 -0.27311468544E+03  0.31324738290E+03  0.15294330000E+03 0.  0.
<mgrwt>
<rscale>  0 0.45761287E+03</rscale>
<asrwt>0</asrwt>
<pdfrwt beam="1">  1        1 0.61470696E-01 0.65874946E+03</pdfrwt>
<pdfrwt beam="2">  1       -1 0.89085584E-01 0.65874946E+03</pdfrwt>
<totfact> 0.76146789E+01</totfact>
</mgrwt>
</event>
<event>
 4    2  0.3179755E-007  0.8681283E+03  0.7818608E-02  0.9579265E-01
          1   -1    0    0  501    0  0.00000000000E+00  0.00000000000E+00  0.14826378868E+04  0.14826378868E+04  0.50400000000E-02 0. -1.
         -1   -1    0    0    0  501 -0.00000000000E+00 -0.00000000000E+00 -0.57237087009E+03  0.57237087011E+03  0.50400000000E-02 0.  1.
    8880023    1    1    2    0    0 -0.70984132221E+02 -0.56106838381E+03  0.11337723918E+04  0.14279658683E+04  0.65864270000E+03 0.  0.
    8880022    1    1    2    0    0  0.70984132221E+02  0.56106838381E+03 -0.22350537518E+03  0.62704288855E+03  0.15294330000E+03 0.  0.
<mgrwt>
<rscale>  0 0.78683883E+03</rscale>
<asrwt>0</asrwt>
<pdfrwt beam="1">  1        1 0.22809813E+00 0.86812827E+03</pdfrwt>
<pdfrwt beam="2">  1       -1 0.88057059E-01 0.86812827E+03</pdfrwt>
<totfact> 0.87095308E+00</totfact>
</mgrwt>
</event>
<event>
 4    2  0.3179755E-007  0.7183047E+03  0.7818608E-02  0.9928364E-01
         -1   -1    0    0    0  501 -0.00000000000E+00  0.00000000000E+00  0.22138917686E+03  0.22138917692E+03  0.50400000000E-02 0.  1.
          1   -1    0    0  501    0  0.00000000000E+00 -0.00000000000E+00 -0.28239167839E+04  0.28239167839E+04  0.50400000000E-02 0. -1.
    8880023    1    1    2    0    0  0.14837042169E+03  0.24522987970E+03 -0.26232063558E+04  0.27197744884E+04  0.65864270000E+03 0.  0.
    8880022    1    1    2    0    0 -0.14837042169E+03 -0.24522987970E+03  0.20678748757E+02  0.32553147251E+03  0.15294330000E+03 0.  0.
<mgrwt>
<rscale>  0 0.58906103E+03</rscale>
<asrwt>0</asrwt>
<pdfrwt beam="1">  1        1 0.43444871E+00 0.71830473E+03</pdfrwt>
<pdfrwt beam="2">  1       -1 0.34059875E-01 0.71830473E+03</pdfrwt>
<totfact> 0.69707720E+00</totfact>
</mgrwt>
</event>
<event>
 4    2  0.3179755E-007  0.6654783E+03  0.7818608E-02  0.1019135E+00
         -1   -1    0    0    0  501 -0.00000000000E+00  0.00000000000E+00  0.87376556791E+03  0.87376556793E+03  0.50400000000E-02 0.  1.
          1   -1    0    0  501    0  0.00000000000E+00 -0.00000000000E+00 -0.38864793539E+03  0.38864793543E+03  0.50400000000E-02 0. -1.
    8880023    1    1    2    0    0  0.57386176012E+02 -0.75881246854E+02 -0.79081542005E+02  0.67016060267E+03  0.65864270000E+03 0. -1.
    8880022    1    1    2    0    0 -0.57386176012E+02  0.75881246854E+02  0.56419917452E+03  0.59225290068E+03  0.15294330000E+03 0.  0.
<mgrwt>
<rscale>  0 0.47999884E+03</rscale>
<asrwt>0</asrwt>
<pdfrwt beam="1">  1        1 0.59791990E-01 0.66547828E+03</pdfrwt>
<pdfrwt beam="2">  1       -1 0.13442547E+00 0.66547828E+03</pdfrwt>
<totfact> 0.29964632E+01</totfact>
</mgrwt>
</event>
<event>
 4    2  0.3179755E-007  0.8085950E+03  0.7818608E-02  0.9692511E-01
         -1   -1    0    0    0  501 -0.00000000000E+00  0.00000000000E+00  0.56628853083E+03  0.56628853085E+03  0.50400000000E-02 0.  1.
          1   -1    0    0  501    0  0.00000000000E+00 -0.00000000000E+00 -0.94011363386E+03  0.94011363388E+03  0.50400000000E-02 0. -1.
    8880023    1    1    2    0    0  0.24973333534E+03  0.39705027719E+03  0.10922072048E+03  0.81593813089E+03  0.65864270000E+03 0.  0.
    8880022    1    1    2    0    0 -0.24973333534E+03 -0.39705027719E+03 -0.48304582351E+03  0.69046403384E+03  0.15294330000E+03 0.  0.
<mgrwt>
<rscale>  0 0.71464439E+03</rscale>
<asrwt>0</asrwt>
<pdfrwt beam="1">  1        1 0.14463287E+00 0.80859500E+03</pdfrwt>
<pdfrwt beam="2">  1       -1 0.87121313E-01 0.80859500E+03</pdfrwt>
<totfact> 0.22368684E+01</totfact>
</mgrwt>
</event>
<event>
 4    2  0.3179755E-007  0.1519929E+04  0.7818608E-02  0.8895690E-01
          1   -1    0    0  501    0  0.00000000000E+00  0.00000000000E+00  0.22350673906E+04  0.22350673906E+04  0.50400000000E-02 0. -1.
         -1   -1    0    0    0  501 -0.00000000000E+00 -0.00000000000E+00 -0.96528716684E+03  0.96528716685E+03  0.50400000000E-02 0.  1.
    8880023    1    1    2    0    0 -0.10399629632E+04  0.89154479834E+03  0.92605692005E+03  0.17798221028E+04  0.65864270000E+03 0.  1.
    8880022    1    1    2    0    0  0.10399629632E+04 -0.89154479834E+03  0.34372330372E+03  0.14205324547E+04  0.15294330000E+03 0.  0.
<mgrwt>
<rscale>  0 0.14832184E+04</rscale>
<asrwt>0</asrwt>
<pdfrwt beam="1">  1        1 0.34385652E+00 0.15199294E+04</pdfrwt>
<pdfrwt beam="2">  1       -1 0.14850572E+00 0.15199294E+04</pdfrwt>
<totfact> 0.70039109E-01</totfact>
</mgrwt>
</event>
<event>
 4    2  0.3179755E-007  0.7578268E+03  0.7818608E-02  0.9810767E-01
         -1   -1    0    0    0  501 -0.00000000000E+00  0.00000000000E+00  0.49867370770E+03  0.49867370773E+03  0.50400000000E-02 0.  1.
          1   -1    0    0  501    0  0.00000000000E+00 -0.00000000000E+00 -0.18308138768E+04  0.18308138768E+04  0.50400000000E-02 0. -1.
    8880023    1    1    2    0    0  0.36943661547E+03 -0.63307004051E+02 -0.16493947155E+04  0.18151595862E+04  0.65864270000E+03 0. -1.
    8880022    1    1    2    0    0 -0.36943661547E+03  0.63307004051E+02  0.31725454642E+03  0.51432799832E+03  0.15294330000E+03 0.  0.
<mgrwt>
<rscale>  0 0.64787935E+03</rscale>
<asrwt>0</asrwt>
<pdfrwt beam="1">  1        1 0.28166367E+00 0.75782676E+03</pdfrwt>
<pdfrwt beam="2">  1       -1 0.76719033E-01 0.75782676E+03</pdfrwt>
<totfact> 0.69094470E+00</totfact>
</mgrwt>
</event>
<event>
 4    2  0.3179755E-007  0.8000940E+03  0.7818608E-02  0.9710593E-01
          1   -1    0    0  501    0  0.00000000000E+00  0.00000000000E+00  0.58371803855E+03  0.58371803857E+03  0.50400000000E-02 0. -1.
         -1   -1    0    0    0  501 -0.00000000000E+00 -0.00000000000E+00 -0.71691995197E+03  0.71691995199E+03  0.50400000000E-02 0.  1.
    8880023    1    1    2    0    0 -0.45351208324E+03 -0.25825358745E+02  0.10809912405E+02  0.80016699461E+03  0.65864270000E+03 0. -1.
    8880022    1    1    2    0    0  0.45351208324E+03  0.25825358745E+02 -0.14401182582E+03  0.50047099595E+03  0.15294330000E+03 0.  1.
<mgrwt>
<rscale>  0 0.70389583E+03</rscale>
<asrwt>0</asrwt>
<pdfrwt beam="1">  1        1 0.89802775E-01 0.80009397E+03</pdfrwt>
<pdfrwt beam="2">  1       -1 0.11029538E+00 0.80009397E+03</pdfrwt>
<totfact> 0.27555636E+01</totfact>
</mgrwt>
</event>
<event>
 4    2  0.3179755E-007  0.8823427E+03  0.7818608E-02  0.9554993E-01
         -1   -1    0    0    0  501 -0.00000000000E+00  0.00000000000E+00  0.63544057329E+03  0.63544057331E+03  0.50400000000E-02 0.  1.
          1   -1    0    0  501    0  0.00000000000E+00 -0.00000000000E+00 -0.11729949130E+04  0.11729949130E+04  0.50400000000E-02 0. -1.
    8880023    1    1    2    0    0  0.49348097536E+03  0.31811144404E+03  0.14612814154E+03  0.89436122673E+03  0.65864270000E+03 0.  0.
    8880022    1    1    2    0    0 -0.49348097536E+03 -0.31811144404E+03 -0.68368248126E+03  0.91407425960E+03  0.15294330000E+03 0.  0.
<mgrwt>
<rscale>  0 0.80348017E+03</rscale>
<asrwt>0</asrwt>
<pdfrwt beam="1">  1        1 0.18046076E+00 0.88234266E+03</pdfrwt>
<pdfrwt beam="2">  1       -1 0.97760088E-01 0.88234266E+03</pdfrwt>
<totfact> 0.11409614E+01</totfact>
</mgrwt>
</event>
<event>
 4    2  0.3179755E-007  0.1184951E+04  0.7818608E-02  0.9171891E-01
          1   -1    0    0  501    0  0.00000000000E+00  0.00000000000E+00  0.17869162442E+04  0.17869162442E+04  0.50400000000E-02 0. -1.
         -1   -1    0    0    0  501 -0.00000000000E+00 -0.00000000000E+00 -0.90129857450E+03  0.90129857451E+03  0.50400000000E-02 0.  1.
    8880023    1    1    2    0    0  0.62296717845E+02  0.98306592072E+03  0.11559235953E+04  0.16553758032E+04  0.65864270000E+03 0.  0.
    8880022    1    1    2    0    0 -0.62296717845E+02 -0.98306592072E+03 -0.27030592557E+03  0.10328390155E+04  0.15294330000E+03 0.  0.
<mgrwt>
<rscale>  0 0.11348326E+04</rscale>
<asrwt>0</asrwt>
<pdfrwt beam="1">  1        1 0.27491019E+00 0.11849513E+04</pdfrwt>
<pdfrwt beam="2">  1       -1 0.13866132E+00 0.11849513E+04</pdfrwt>
<totfact> 0.17590002E+00</totfact>
</mgrwt>
</event>
<event>
 4    2  0.3179755E-007  0.6846005E+03  0.7818608E-02  0.1006832E+00
         -1   -1    0    0    0  501 -0.00000000000E+00  0.00000000000E+00  0.17206737459E+03  0.17206737466E+03  0.50400000000E-02 0.  1.
          1   -1    0    0  501    0  0.00000000000E+00 -0.00000000000E+00 -0.15435329096E+04  0.15435329096E+04  0.50400000000E-02 0. -1.
    8880023    1    1    2    0    0  0.13530983727E+03  0.12868138115E+03 -0.12907967472E+04  0.14611071483E+04  0.65864270000E+03 0. -1.
    8880022    1    1    2    0    0 -0.13530983727E+03 -0.12868138115E+03 -0.80668787786E+02  0.25449313597E+03  0.15294330000E+03 0.  0.
<mgrwt>
<rscale>  0 0.52753171E+03</rscale>
<asrwt>0</asrwt>
<pdfrwt beam="1">  1        1 0.23746659E+00 0.68460051E+03</pdfrwt>
<pdfrwt beam="2">  1       -1 0.26471905E-01 0.68460051E+03</pdfrwt>
<totfact> 0.79894371E+01</totfact>
</mgrwt>
</event>
<event>
 4    2  0.3179755E-007  0.8236171E+03  0.7818608E-02  0.9661882E-01
         -1   -1    0    0    0  501 -0.00000000000E+00  0.00000000000E+00  0.29542018280E+03  0.29542018284E+03  0.50400000000E-02 0.  1.
          1   -1    0    0  501    0  0.00000000000E+00 -0.00000000000E+00 -0.37503600450E+04  0.37503600450E+04  0.50400000000E-02 0. -1.
    8880023    1    1    2    0    0  0.43055922018E+03  0.24321512700E+03 -0.34300705096E+04  0.35275669727E+04  0.65864270000E+03 0. -1.
    8880022    1    1    2    0    0 -0.43055922018E+03 -0.24321512700E+03 -0.24869352626E+02  0.51821325513E+03  0.15294330000E+03 0.  0.
<mgrwt>
<rscale>  0 0.73332409E+03</rscale>
<asrwt>0</asrwt>
<pdfrwt beam="1">  1        1 0.57697844E+00 0.82361705E+03</pdfrwt>
<pdfrwt beam="2">  1       -1 0.45449261E-01 0.82361705E+03</pdfrwt>
<totfact> 0.81537357E-01</totfact>
</mgrwt>
</event>
<event>
 4    2  0.3179755E-007  0.7208618E+03  0.7818608E-02  0.9919681E-01
          1   -1    0    0  501    0  0.00000000000E+00  0.00000000000E+00  0.18444741753E+04  0.18444741753E+04  0.50400000000E-02 0. -1.
         -1   -1    0    0    0  501 -0.00000000000E+00 -0.00000000000E+00 -0.23187328418E+03  0.23187328423E+03  0.50400000000E-02 0.  1.
    8880023    1    1    2    0    0 -0.23391154180E+03 -0.17639992864E+03  0.15891773970E+04  0.17450290971E+04  0.65864270000E+03 0.  0.
    8880022    1    1    2    0    0  0.23391154180E+03  0.17639992864E+03  0.23423494100E+02  0.33131836245E+03  0.15294330000E+03 0.  0.
<mgrwt>
<rscale>  0 0.59316890E+03</rscale>
<asrwt>0</asrwt>
<pdfrwt beam="1">  1        1 0.28376527E+00 0.72086181E+03</pdfrwt>
<pdfrwt beam="2">  1       -1 0.35672812E-01 0.72086181E+03</pdfrwt>
<totfact> 0.29627383E+01</totfact>
</mgrwt>
</event>
<event>
 4    2  0.3179755E-007  0.6607761E+03  0.7818608E-02  0.1023375E+00
          1   -1    0    0  501    0  0.00000000000E+00  0.00000000000E+00  0.88548600035E+03  0.88548600036E+03  0.50400000000E-02 0. -1.
         -1   -1    0    0    0  501 -0.00000000000E+00 -0.00000000000E+00 -0.66810809480E+03  0.66810809482E+03  0.50400000000E-02 0.  1.
    8880023    1    1    2    0    0  0.95946948071E+01  0.52180126606E+02  0.74844815676E+03  0.99839855439E+03  0.65864270000E+03 0. -1.
    8880022    1    1    2    0    0 -0.95946948071E+01 -0.52180126606E+02 -0.53107025121E+03  0.55519554079E+03  0.15294330000E+03 0.  0.
<mgrwt>
<rscale>  0 0.46488102E+03</rscale>
<asrwt>0</asrwt>
<pdfrwt beam="1">  1        1 0.13622862E+00 0.66077608E+03</pdfrwt>
<pdfrwt beam="2">  1       -1 0.10278586E+00 0.66077608E+03</pdfrwt>
<totfact> 0.17417978E+01</totfact>
</mgrwt>
</event>
<event>
 4    2  0.3179755E-007  0.7687029E+03  0.7818608E-02  0.9783076E-01
          1   -1    0    0  501    0  0.00000000000E+00  0.00000000000E+00  0.22291108909E+04  0.22291108909E+04  0.50400000000E-02 0. -1.
         -1   -1    0    0    0  501 -0.00000000000E+00 -0.00000000000E+00 -0.32851088423E+03  0.32851088427E+03  0.50400000000E-02 0.  1.
    8880023    1    1    2    0    0 -0.45500406021E+02  0.39373040512E+03  0.19812946776E+04  0.21251900444E+04  0.65864270000E+03 0. -1.
    8880022    1    1    2    0    0  0.45500406021E+02 -0.39373040512E+03 -0.80694670961E+02  0.43243173080E+03  0.15294330000E+03 0.  0.
<mgrwt>
<rscale>  0 0.66278732E+03</rscale>
<asrwt>0</asrwt>
<pdfrwt beam="1">  1        1 0.34294013E+00 0.76870288E+03</pdfrwt>
<pdfrwt beam="2">  1       -1 0.50540137E-01 0.76870288E+03</pdfrwt>
<totfact> 0.85707112E+00</totfact>
</mgrwt>
</event>
<event>
 4    2  0.3179755E-007  0.8207905E+03  0.7818608E-02  0.9667524E-01
         -1   -1    0    0    0  501 -0.00000000000E+00  0.00000000000E+00  0.42376826407E+03  0.42376826410E+03  0.50400000000E-02 0.  1.
          1   -1    0    0  501    0  0.00000000000E+00 -0.00000000000E+00 -0.13168347422E+04  0.13168347422E+04  0.50400000000E-02 0. -1.
    8880023    1    1    2    0    0 -0.26329963548E+03 -0.41298935421E+03 -0.14503896673E+03  0.83350669635E+03  0.65864270000E+03 0.  1.
    8880022    1    1    2    0    0  0.26329963548E+03  0.41298935421E+03 -0.74802751144E+03  0.90709631000E+03  0.15294330000E+03 0.  0.
<mgrwt>
<rscale>  0 0.72983753E+03</rscale>
<asrwt>0</asrwt>
<pdfrwt beam="1">  1        1 0.20258996E+00 0.82079054E+03</pdfrwt>
<pdfrwt beam="2">  1       -1 0.65195118E-01 0.82079054E+03</pdfrwt>
<totfact> 0.21473668E+01</totfact>
</mgrwt>
</event>
<event>
 4    2  0.3179755E-007  0.8533013E+03  0.7818608E-02  0.9605592E-01
          1   -1    0    0  501    0  0.00000000000E+00  0.00000000000E+00  0.19333950484E+04  0.19333950484E+04  0.50400000000E-02 0. -1.
         -1   -1    0    0    0  501 -0.00000000000E+00 -0.00000000000E+00 -0.31396277203E+03  0.31396277207E+03  0.50400000000E-02 0.  1.
    8880023    1    1    2    0    0 -0.49005119864E+03  0.23272886181E+03  0.14059461537E+04  0.16446299565E+04  0.65864270000E+03 0. -1.
    8880022    1    1    2    0    0  0.49005119864E+03 -0.23272886181E+03  0.21348612262E+03  0.60272786394E+03  0.15294330000E+03 0.  0.
<mgrwt>
<rscale>  0 0.76927166E+03</rscale>
<asrwt>0</asrwt>
<pdfrwt beam="1">  1        1 0.29744539E+00 0.85330130E+03</pdfrwt>
<pdfrwt beam="2">  1       -1 0.48301966E-01 0.85330130E+03</pdfrwt>
<totfact> 0.14565545E+01</totfact>
</mgrwt>
</event>
<event>
 4    2  0.3179755E-007  0.8270638E+03  0.7818608E-02  0.9655073E-01
         -1   -1    0    0    0  501 -0.00000000000E+00  0.00000000000E+00  0.15234762532E+04  0.15234762532E+04  0.50400000000E-02 0.  1.
          1   -1    0    0  501    0  0.00000000000E+00 -0.00000000000E+00 -0.97214736042E+03  0.97214736043E+03  0.50400000000E-02 0. -1.
    8880023    1    1    2    0    0 -0.45049258694E+03 -0.21744130696E+03 -0.73534180832E+03  0.11066896919E+04  0.65864270000E+03 0. -1.
    8880022    1    1    2    0    0  0.45049258694E+03  0.21744130696E+03  0.12866707011E+04  0.13889339217E+04  0.15294330000E+03 0.  0.
<mgrwt>
<rscale>  0 0.73755927E+03</rscale>
<asrwt>0</asrwt>
<pdfrwt beam="1">  1        1 0.14956113E+00 0.82706378E+03</pdfrwt>
<pdfrwt beam="2">  1       -1 0.23438096E+00 0.82706378E+03</pdfrwt>
<totfact> 0.14524059E+00</totfact>
</mgrwt>
</event>
<event>
 4    2  0.3179755E-007  0.6807962E+03  0.7818608E-02  0.1008877E+00
         -1   -1    0    0    0  501 -0.00000000000E+00  0.00000000000E+00  0.36659710676E+03  0.36659710680E+03  0.50400000000E-02 0.  1.
          1   -1    0    0  501    0  0.00000000000E+00 -0.00000000000E+00 -0.15639253483E+04  0.15639253483E+04  0.50400000000E-02 0. -1.
    8880023    1    1    2    0    0 -0.62328082581E+02  0.16058799518E+03 -0.14419033228E+04  0.15945434119E+04  0.65864270000E+03 0. -1.
    8880022    1    1    2    0    0  0.62328082581E+02 -0.16058799518E+03  0.24457508123E+03  0.33597904317E+03  0.15294330000E+03 0.  0.
<mgrwt>
<rscale>  0 0.51923484E+03</rscale>
<asrwt>0</asrwt>
<pdfrwt beam="1">  1        1 0.24060390E+00 0.68079623E+03</pdfrwt>
<pdfrwt beam="2">  1       -1 0.56399556E-01 0.68079623E+03</pdfrwt>
<totfact> 0.19655946E+01</totfact>
</mgrwt>
</event>
<event>
 4    2  0.3179755E-007  0.7804169E+03  0.7818608E-02  0.9754858E-01
          1   -1    0    0  501    0  0.00000000000E+00  0.00000000000E+00  0.45155064985E+03  0.45155064988E+03  0.50400000000E-02 0. -1.
         -1   -1    0    0    0  501 -0.00000000000E+00 -0.00000000000E+00 -0.12430506304E+04  0.12430506304E+04  0.50400000000E-02 0.  1.
    8880023    1    1    2    0    0 -0.37193265814E+03  0.19211065466E+03  0.66535629838E+01  0.78044531006E+03  0.65864270000E+03 0. -1.
    8880022    1    1    2    0    0  0.37193265814E+03 -0.19211065466E+03 -0.79815354350E+03  0.91415597019E+03  0.15294330000E+03 0.  0.
<mgrwt>
<rscale>  0 0.67842397E+03</rscale>
<asrwt>0</asrwt>
<pdfrwt beam="1">  1        1 0.69469331E-01 0.78041695E+03</pdfrwt>
<pdfrwt beam="2">  1       -1 0.19123856E+00 0.78041695E+03</pdfrwt>
<totfact> 0.90730830E+00</totfact>
</mgrwt>
</event>
<event>
 4    2  0.3179755E-007  0.7850441E+03  0.7818608E-02  0.9744119E-01
          1   -1    0    0  501    0  0.00000000000E+00  0.00000000000E+00  0.15666776080E+04  0.15666776080E+04  0.50400000000E-02 0. -1.
         -1   -1    0    0    0  501 -0.00000000000E+00 -0.00000000000E+00 -0.60886006704E+03  0.60886006706E+03  0.50400000000E-02 0.  1.
    8880023    1    1    2    0    0  0.29024781212E+03  0.31343287908E+03  0.13592799906E+04  0.15696930468E+04  0.65864270000E+03 0.  0.
    8880022    1    1    2    0    0 -0.29024781212E+03 -0.31343287908E+03 -0.40146244961E+03  0.60584462826E+03  0.15294330000E+03 0.  0.
<mgrwt>
<rscale>  0 0.68449635E+03</rscale>
<asrwt>0</asrwt>
<pdfrwt beam="1">  1        1 0.24102732E+00 0.78504406E+03</pdfrwt>
<pdfrwt beam="2">  1       -1 0.93670780E-01 0.78504406E+03</pdfrwt>
<totfact> 0.67334601E+00</totfact>
</mgrwt>
</event>
<event>
 4    2  0.3179755E-007  0.7822746E+03  0.7818608E-02  0.9750521E-01
          1   -1    0    0  501    0  0.00000000000E+00  0.00000000000E+00  0.58588900436E+03  0.58588900438E+03  0.50400000000E-02 0. -1.
         -1   -1    0    0    0  501 -0.00000000000E+00 -0.00000000000E+00 -0.85880538617E+03  0.85880538618E+03  0.50400000000E-02 0.  1.
    8880023    1    1    2    0    0  0.88609461908E+01  0.42197727676E+03  0.18455056016E+03  0.80374899937E+03  0.65864270000E+03 0.  0.
    8880022    1    1    2    0    0 -0.88609461908E+01 -0.42197727676E+03 -0.45746694198E+03  0.64094539119E+03  0.15294330000E+03 0.  0.
<mgrwt>
<rscale>  0 0.68086848E+03</rscale>
<asrwt>0</asrwt>
<pdfrwt beam="1">  1        1 0.90136769E-01 0.78227460E+03</pdfrwt>
<pdfrwt beam="2">  1       -1 0.13212391E+00 0.78227460E+03</pdfrwt>
<totfact> 0.17654964E+01</totfact>
</mgrwt>
</event>
<event>
 4    2  0.3179755E-007  0.6664766E+03  0.7818608E-02  0.1018325E+00
          1   -1    0    0  501    0  0.00000000000E+00  0.00000000000E+00  0.27584645415E+03  0.27584645420E+03  0.50400000000E-02 0. -1.
         -1   -1    0    0    0  501 -0.00000000000E+00 -0.00000000000E+00 -0.13954289066E+04  0.13954289067E+04  0.50400000000E-02 0.  1.
    8880023    1    1    2    0    0 -0.60245765003E+02 -0.82166609358E+02 -0.14832149563E+03  0.68278135316E+03  0.65864270000E+03 0.  0.
    8880022    1    1    2    0    0  0.60245765003E+02  0.82166609358E+02 -0.97126095686E+03  0.98849400769E+03  0.15294330000E+03 0.  1.
<mgrwt>
<rscale>  0 0.48295781E+03</rscale>
<asrwt>0</asrwt>
<pdfrwt beam="1">  1        1 0.42437917E-01 0.66647664E+03</pdfrwt>
<pdfrwt beam="2">  1       -1 0.21468137E+00 0.66647664E+03</pdfrwt>
<totfact> 0.12172712E+01</totfact>
</mgrwt>
</event>
<event>
 4    2  0.3179755E-007  0.7807288E+03  0.7818608E-02  0.9754128E-01
         -1   -1    0    0    0  501 -0.00000000000E+00  0.00000000000E+00  0.66990526268E+03  0.66990526270E+03  0.50400000000E-02 0.  1.
          1   -1    0    0  501    0  0.00000000000E+00 -0.00000000000E+00 -0.61102044702E+03  0.61102044704E+03  0.50400000000E-02 0. -1.
    8880023    1    1    2    0    0 -0.16906744276E+03  0.38359287283E+03 -0.13862613954E+03  0.79294054324E+03  0.65864270000E+03 0.  0.
    8880022    1    1    2    0    0  0.16906744276E+03 -0.38359287283E+03  0.19751095520E+03  0.48798516650E+03  0.15294330000E+03 0.  0.
<mgrwt>
<rscale>  0 0.67883501E+03</rscale>
<asrwt>0</asrwt>
<pdfrwt beam="1">  1        1 0.94003146E-01 0.78072883E+03</pdfrwt>
<pdfrwt beam="2">  1       -1 0.10306235E+00 0.78072883E+03</pdfrwt>
<totfact> 0.30285798E+01</totfact>
</mgrwt>
</event>
<event>
 4    2  0.3179755E-007  0.6823862E+03  0.7818608E-02  0.1008005E+00
          1   -1    0    0  501    0  0.00000000000E+00  0.00000000000E+00  0.57585429673E+03  0.57585429675E+03  0.50400000000E-02 0. -1.
         -1   -1    0    0    0  501 -0.00000000000E+00 -0.00000000000E+00 -0.40895579913E+03  0.40895579916E+03  0.50400000000E-02 0.  1.
    8880023    1    1    2    0    0  0.65799194122E+02 -0.16586516275E+03  0.26244472281E+03  0.73111437201E+03  0.65864270000E+03 0.  1.
    8880022    1    1    2    0    0 -0.65799194122E+02  0.16586516275E+03 -0.95546225208E+02  0.25369572391E+03  0.15294330000E+03 0. -1.
<mgrwt>
<rscale>  0 0.52275353E+03</rscale>
<asrwt>0</asrwt>
<pdfrwt beam="1">  1        1 0.88592969E-01 0.68238625E+03</pdfrwt>
<pdfrwt beam="2">  1       -1 0.62916277E-01 0.68238625E+03</pdfrwt>
<totfact> 0.95278567E+01</totfact>
</mgrwt>
</event>
<event>
 4    2  0.3179755E-007  0.6707716E+03  0.7818608E-02  0.1015116E+00
          1   -1    0    0  501    0  0.00000000000E+00  0.00000000000E+00  0.61124197079E+03  0.61124197081E+03  0.50400000000E-02 0. -1.
         -1   -1    0    0    0  501 -0.00000000000E+00 -0.00000000000E+00 -0.62314501595E+03  0.62314501597E+03  0.50400000000E-02 0.  1.
    8880023    1    1    2    0    0  0.11776229381E+03 -0.47500670702E+02  0.39719458319E+03  0.77954987957E+03  0.65864270000E+03 0.  0.
    8880022    1    1    2    0    0 -0.11776229381E+03  0.47500670702E+02 -0.40909762835E+03  0.45483710721E+03  0.15294330000E+03 0.  0.
<mgrwt>
<rscale>  0 0.49491144E+03</rscale>
<asrwt>0</asrwt>
<pdfrwt beam="1">  1        1 0.94037226E-01 0.67077155E+03</pdfrwt>
<pdfrwt beam="2">  1       -1 0.95868465E-01 0.67077155E+03</pdfrwt>
<totfact> 0.36083313E+01</totfact>
</mgrwt>
</event>
<event>
 4    2  0.3179755E-007  0.7119541E+03  0.7818608E-02  0.9950815E-01
         -1   -1    0    0    0  501 -0.00000000000E+00  0.00000000000E+00  0.55854445114E+03  0.55854445117E+03  0.50400000000E-02 0.  1.
          1   -1    0    0  501    0  0.00000000000E+00 -0.00000000000E+00 -0.10252300888E+04  0.10252300888E+04  0.50400000000E-02 0. -1.
    8880023    1    1    2    0    0 -0.26664028128E+03  0.44399696371E+02 -0.83806047307E+03  0.10996471868E+04  0.65864270000E+03 0. -1.
    8880022    1    1    2    0    0  0.26664028128E+03 -0.44399696371E+02  0.37137483545E+03  0.48412735314E+03  0.15294330000E+03 0.  0.
<mgrwt>
<rscale>  0 0.57860529E+03</rscale>
<asrwt>0</asrwt>
<pdfrwt beam="1">  1        1 0.15772771E+00 0.71195406E+03</pdfrwt>
<pdfrwt beam="2">  1       -1 0.85929916E-01 0.71195406E+03</pdfrwt>
<totfact> 0.19998883E+01</totfact>
</mgrwt>
</event>
<event>
 4    2  0.3179755E-007  0.7729609E+03  0.7818608E-02  0.9772639E-01
          1   -1    0    0  501    0  0.00000000000E+00  0.00000000000E+00  0.94537448177E+03  0.94537448178E+03  0.50400000000E-02 0. -1.
         -1   -1    0    0    0  501 -0.00000000000E+00 -0.00000000000E+00 -0.13609879063E+04  0.13609879063E+04  0.50400000000E-02 0.  1.
    8880023    1    1    2    0    0 -0.31025377145E+03 -0.25961696425E+03  0.74146784417E+03  0.10710943661E+04  0.65864270000E+03 0. -1.
    8880022    1    1    2    0    0  0.31025377145E+03  0.25961696425E+03 -0.11570812687E+04  0.12352680220E+04  0.15294330000E+03 0.  0.
<mgrwt>
<rscale>  0 0.66851764E+03</rscale>
<asrwt>0</asrwt>
<pdfrwt beam="1">  1        1 0.14544223E+00 0.77296092E+03</pdfrwt>
<pdfrwt beam="2">  1       -1 0.20938276E+00 0.77296092E+03</pdfrwt>
<totfact> 0.22545360E+00</totfact>
</mgrwt>
</event>
<event>
 4    2  0.3179755E-007  0.8677026E+03  0.7818608E-02  0.9580006E-01
          1   -1    0    0  501    0  0.00000000000E+00  0.00000000000E+00  0.17631639136E+04  0.17631639136E+04  0.50400000000E-02 0. -1.
         -1   -1    0    0    0  501 -0.00000000000E+00 -0.00000000000E+00 -0.74530360543E+03  0.74530360544E+03  0.50400000000E-02 0.  1.
    8880023    1    1    2    0    0  0.32352350923E+03  0.46306604523E+03  0.15114976818E+04  0.17428519936E+04  0.65864270000E+03 0. -1.
    8880022    1    1    2    0    0 -0.32352350923E+03 -0.46306604523E+03 -0.49363737357E+03  0.76561552549E+03  0.15294330000E+03 0.  0.
<mgrwt>
<rscale>  0 0.78633762E+03</rscale>
<asrwt>0</asrwt>
<pdfrwt beam="1">  1        1 0.27125598E+00 0.86770262E+03</pdfrwt>
<pdfrwt beam="2">  1       -1 0.11466209E+00 0.86770262E+03</pdfrwt>
<totfact> 0.30658670E+00</totfact>
</mgrwt>
</event>
<event>
 4    2  0.7705113E-007  0.7253381E+03  0.7818608E-02  0.9904921E-01
          1   -1    0    0  501    0  0.00000000000E+00  0.00000000000E+00  0.14603117676E+04  0.14603117676E+04  0.50400000000E-02 0. -1.
         -1   -1    0    0    0  501 -0.00000000000E+00 -0.00000000000E+00 -0.14710176035E+04  0.14710176035E+04  0.50400000000E-02 0.  1.
    8880023    1    1    2    0    0  0.26523694937E+03 -0.14817059420E+03  0.13479657464E+04  0.15307276126E+04  0.65864270000E+03 0. -1.
    8880022    1    1    2    0    0 -0.26523694937E+03  0.14817059420E+03 -0.13586715823E+04  0.14006017585E+04  0.15294330000E+03 0.  0.
<mgrwt>
<rscale>  0 0.60023394E+03</rscale>
<asrwt>0</asrwt>
<pdfrwt beam="1">  1        1 0.22466335E+00 0.72533811E+03</pdfrwt>
<pdfrwt beam="2">  1       -1 0.22631040E+00 0.72533811E+03</pdfrwt>
<totfact> 0.73931068E-01</totfact>
</mgrwt>
</event>
<event>
 4    2  0.3179755E-007  0.7949954E+03  0.7818608E-02  0.9721723E-01
          1   -1    0    0  501    0  0.00000000000E+00  0.00000000000E+00  0.98168038235E+03  0.98168038236E+03  0.50400000000E-02 0. -1.
         -1   -1    0    0    0  501 -0.00000000000E+00 -0.00000000000E+00 -0.57582023939E+03  0.57582023942E+03  0.50400000000E-02 0.  1.
    8880023    1    1    2    0    0  0.34388265203E+03 -0.28275820186E+03  0.65029017549E+03  0.10270808136E+04  0.65864270000E+03 0.  0.
    8880022    1    1    2    0    0 -0.34388265203E+03  0.28275820186E+03 -0.24443003253E+03  0.53041980817E+03  0.15294330000E+03 0.  0.
<mgrwt>
<rscale>  0 0.69737997E+03</rscale>
<asrwt>0</asrwt>
<pdfrwt beam="1">  1        1 0.15102775E+00 0.79499540E+03</pdfrwt>
<pdfrwt beam="2">  1       -1 0.88587730E-01 0.79499540E+03</pdfrwt>
<totfact> 0.20025206E+01</totfact>
</mgrwt>
</event>
<event>
 4    2  0.3179755E-007  0.6916972E+03  0.7818608E-02  0.1003356E+00
          1   -1    0    0  501    0  0.00000000000E+00  0.00000000000E+00  0.26426444038E+03  0.26426444043E+03  0.50400000000E-02 0. -1.
         -1   -1    0    0    0  501 -0.00000000000E+00 -0.00000000000E+00 -0.89059838468E+03  0.89059838469E+03  0.50400000000E-02 0.  1.
    8880023    1    1    2    0    0 -0.49761169511E+02  0.20532578122E+03 -0.54820049988E+03  0.88259211687E+03  0.65864270000E+03 0.  0.
    8880022    1    1    2    0    0  0.49761169511E+02 -0.20532578122E+03 -0.78133444410E+02  0.27227070826E+03  0.15294330000E+03 0.  0.
<mgrwt>
<rscale>  0 0.54202809E+03</rscale>
<asrwt>0</asrwt>
<pdfrwt beam="1">  1        1 0.40656068E-01 0.69169723E+03</pdfrwt>
<pdfrwt beam="2">  1       -1 0.13701513E+00 0.69169723E+03</pdfrwt>
<totfact> 0.47013062E+01</totfact>
</mgrwt>
</event>
<event>
 4    2  0.3179755E-007  0.6982536E+03  0.7818608E-02  0.1000452E+00
          1   -1    0    0  501    0  0.00000000000E+00  0.00000000000E+00  0.10112356447E+04  0.10112356447E+04  0.50400000000E-02 0. -1.
         -1   -1    0    0    0  501 -0.00000000000E+00 -0.00000000000E+00 -0.33061287527E+03  0.33061287531E+03  0.50400000000E-02 0.  1.
    8880023    1    1    2    0    0  0.39088895812E+02  0.22851674546E+03  0.77998591062E+03  0.10468696537E+04  0.65864270000E+03 0.  0.
    8880022    1    1    2    0    0 -0.39088895812E+02 -0.22851674546E+03 -0.99363141221E+02  0.29497886633E+03  0.15294330000E+03 0.  0.
<mgrwt>
<rscale>  0 0.55452289E+03</rscale>
<asrwt>0</asrwt>
<pdfrwt beam="1">  1        1 0.15557471E+00 0.69825357E+03</pdfrwt>
<pdfrwt beam="2">  1       -1 0.50863520E-01 0.69825357E+03</pdfrwt>
<totfact> 0.59231641E+01</totfact>
</mgrwt>
</event>
<event>
 4    2  0.3179755E-007  0.8420361E+03  0.7818608E-02  0.9626353E-01
         -1   -1    0    0    0  501 -0.00000000000E+00  0.00000000000E+00  0.65368818519E+03  0.65368818520E+03  0.50400000000E-02 0.  1.
          1   -1    0    0  501    0  0.00000000000E+00 -0.00000000000E+00 -0.19533866385E+04  0.19533866385E+04  0.50400000000E-02 0. -1.
    8880023    1    1    2    0    0 -0.46950909522E+03 -0.23404221857E+03 -0.17217444996E+04  0.19166191272E+04  0.65864270000E+03 0.  0.
    8880022    1    1    2    0    0  0.46950909522E+03  0.23404221857E+03  0.42204604633E+03  0.69045569648E+03  0.15294330000E+03 0.  0.
<mgrwt>
<rscale>  0 0.75576257E+03</rscale>
<asrwt>0</asrwt>
<pdfrwt beam="1">  1        1 0.30052102E+00 0.84203608E+03</pdfrwt>
<pdfrwt beam="2">  1       -1 0.10056741E+00 0.84203608E+03</pdfrwt>
<totfact> 0.31199812E+00</totfact>
</mgrwt>
</event>
<event>
 4    2  0.3179755E-007  0.6673390E+03  0.7818608E-02  0.1017647E+00
          1   -1    0    0  501    0  0.00000000000E+00  0.00000000000E+00  0.13836743938E+04  0.13836743938E+04  0.50400000000E-02 0. -1.
         -1   -1    0    0    0  501 -0.00000000000E+00 -0.00000000000E+00 -0.21353581414E+03  0.21353581420E+03  0.50400000000E-02 0.  1.
    8880023    1    1    2    0    0 -0.34990976018E+02 -0.10152241854E+03  0.12313547441E+04  0.14005627019E+04  0.65864270000E+03 0. -1.
    8880022    1    1    2    0    0  0.34990976018E+02  0.10152241854E+03 -0.61216164417E+02  0.19664750614E+03  0.15294330000E+03 0.  0.
<mgrwt>
<rscale>  0 0.48545453E+03</rscale>
<asrwt>0</asrwt>
<pdfrwt beam="1">  1        1 0.21287298E+00 0.66733903E+03</pdfrwt>
<pdfrwt beam="2">  1       -1 0.32851664E-01 0.66733903E+03</pdfrwt>
<totfact> 0.70821885E+01</totfact>
</mgrwt>
</event>
<event>
 4    2  0.3179755E-007  0.7223440E+03  0.7818608E-02  0.9914733E-01
         -1   -1    0    0    0  501 -0.00000000000E+00  0.00000000000E+00  0.31998170107E+03  0.31998170111E+03  0.50400000000E-02 0.  1.
          1   -1    0    0  501    0  0.00000000000E+00 -0.00000000000E+00 -0.10239945544E+04  0.10239945544E+04  0.50400000000E-02 0. -1.
    8880023    1    1    2    0    0  0.29078061515E+03  0.58457683930E+02 -0.70628712930E+03  0.10102585720E+04  0.65864270000E+03 0. -1.
    8880022    1    1    2    0    0 -0.29078061515E+03 -0.58457683930E+02  0.22742759972E+01  0.33371768353E+03  0.15294330000E+03 0.  0.
<mgrwt>
<rscale>  0 0.59552547E+03</rscale>
<asrwt>0</asrwt>
<pdfrwt beam="1">  1        1 0.15753762E+00 0.72234401E+03</pdfrwt>
<pdfrwt beam="2">  1       -1 0.49227954E-01 0.72234401E+03</pdfrwt>
<totfact> 0.61457341E+01</totfact>
</mgrwt>
</event>
<event>
 4    2  0.3179755E-007  0.7795563E+03  0.7818608E-02  0.9756880E-01
         -1   -1    0    0    0  501 -0.00000000000E+00  0.00000000000E+00  0.14051543259E+03  0.14051543268E+03  0.50400000000E-02 0.  1.
          1   -1    0    0  501    0  0.00000000000E+00 -0.00000000000E+00 -0.43301563241E+04  0.43301563241E+04  0.50400000000E-02 0. -1.
    8880023    1    1    2    0    0  0.85428043564E+02  0.40816646981E+03 -0.38021151817E+04  0.38812095897E+04  0.65864270000E+03 0. -1.
    8880022    1    1    2    0    0 -0.85428043564E+02 -0.40816646981E+03 -0.38752570982E+03  0.58946216714E+03  0.15294330000E+03 0.  0.
<mgrwt>
<rscale>  0 0.67728835E+03</rscale>
<asrwt>0</asrwt>
<pdfrwt beam="1">  1        1 0.66617779E+00 0.77955630E+03</pdfrwt>
<pdfrwt beam="2">  1       -1 0.21617762E-01 0.77955630E+03</pdfrwt>
<totfact> 0.94717023E-01</totfact>
</mgrwt>
</event>
<event>
 4    2  0.3179755E-007  0.7633012E+03  0.7818608E-02  0.9796635E-01
         -1   -1    0    0    0  501 -0.00000000000E+00  0.00000000000E+00  0.65407916758E+03  0.65407916760E+03  0.50400000000E-02 0.  1.
          1   -1    0    0  501    0  0.00000000000E+00 -0.00000000000E+00 -0.14498780474E+04  0.14498780474E+04  0.50400000000E-02 0. -1.
    8880023    1    1    2    0    0  0.25746750645E+03 -0.28727847621E+03 -0.12650763526E+04  0.14775137306E+04  0.65864270000E+03 0. -1.
    8880022    1    1    2    0    0 -0.25746750645E+03  0.28727847621E+03  0.46927747278E+03  0.62644348448E+03  0.15294330000E+03 0.  0.
<mgrwt>
<rscale>  0 0.65543445E+03</rscale>
<asrwt>0</asrwt>
<pdfrwt beam="1">  1        1 0.22305816E+00 0.76330115E+03</pdfrwt>
<pdfrwt beam="2">  1       -1 0.10062756E+00 0.76330115E+03</pdfrwt>
<totfact> 0.69096170E+00</totfact>
</mgrwt>
</event>
<event>
 4    2  0.3179755E-007  0.7400055E+03  0.7818608E-02  0.9859931E-01
          1   -1    0    0  501    0  0.00000000000E+00  0.00000000000E+00  0.17507999761E+04  0.17507999761E+04  0.50400000000E-02 0. -1.
         -1   -1    0    0    0  501 -0.00000000000E+00 -0.00000000000E+00 -0.79498850044E+03  0.79498850046E+03  0.50400000000E-02 0.  1.
    8880023    1    1    2    0    0 -0.29830091141E+03 -0.15752628373E+03  0.16224060906E+04  0.17832020897E+04  0.65864270000E+03 0. -1.
    8880022    1    1    2    0    0  0.29830091141E+03  0.15752628373E+03 -0.66659461489E+03  0.76258638686E+03  0.15294330000E+03 0.  0.
<mgrwt>
<rscale>  0 0.62243123E+03</rscale>
<asrwt>0</asrwt>
<pdfrwt beam="1">  1        1 0.26935384E+00 0.74000552E+03</pdfrwt>
<pdfrwt beam="2">  1       -1 0.12230592E+00 0.74000552E+03</pdfrwt>
<totfact> 0.27314773E+00</totfact>
</mgrwt>
</event>
<event>
 4    2  0.3179755E-007  0.9455137E+03  0.7818608E-02  0.9456598E-01
         -1   -1    0    0    0  501 -0.00000000000E+00  0.00000000000E+00  0.95945954968E+03  0.95945954969E+03  0.50400000000E-02 0.  1.
          1   -1    0    0  501    0  0.00000000000E+00 -0.00000000000E+00 -0.90189508460E+03  0.90189508461E+03  0.50400000000E-02 0. -1.
    8880023    1    1    2    0    0 -0.46887845592E+03 -0.49024379128E+03 -0.40242171028E+03  0.10275891302E+04  0.65864270000E+03 0.  0.
    8880022    1    1    2    0    0  0.46887845592E+03  0.49024379128E+03  0.45998617536E+03  0.83376550412E+03  0.15294330000E+03 0.  0.
<mgrwt>
<rscale>  0 0.87560685E+03</rscale>
<asrwt>0</asrwt>
<pdfrwt beam="1">  1        1 0.13875309E+00 0.94551372E+03</pdfrwt>
<pdfrwt beam="2">  1       -1 0.14760916E+00 0.94551372E+03</pdfrwt>
<totfact> 0.66613011E+00</totfact>
</mgrwt>
</event>
<event>
 4    2  0.3179755E-007  0.1030184E+04  0.7818608E-02  0.9343092E-01
         -1   -1    0    0    0  501 -0.00000000000E+00  0.00000000000E+00  0.65736682529E+03  0.65736682531E+03  0.50400000000E-02 0.  1.
          1   -1    0    0  501    0  0.00000000000E+00 -0.00000000000E+00 -0.18154037600E+04  0.18154037600E+04  0.50400000000E-02 0. -1.
    8880023    1    1    2    0    0 -0.30998778360E+03  0.72895513018E+03 -0.12946698296E+04  0.16545235513E+04  0.65864270000E+03 0. -1.
    8880022    1    1    2    0    0  0.30998778360E+03 -0.72895513018E+03  0.13663289486E+03  0.81824703407E+03  0.15294330000E+03 0.  0.
<mgrwt>
<rscale>  0 0.96910735E+03</rscale>
<asrwt>0</asrwt>
<pdfrwt beam="1">  1        1 0.27929289E+00 0.10301836E+04</pdfrwt>
<pdfrwt beam="2">  1       -1 0.10113336E+00 0.10301836E+04</pdfrwt>
<totfact> 0.37116178E+00</totfact>
</mgrwt>
</event>
<event>
 4    2  0.3179755E-007  0.7093968E+03  0.7818608E-02  0.9960248E-01
         -1   -1    0    0    0  501 -0.00000000000E+00  0.00000000000E+00  0.38609575303E+03  0.38609575306E+03  0.50400000000E-02 0.  1.
          1   -1    0    0  501    0  0.00000000000E+00 -0.00000000000E+00 -0.70758161790E+03  0.70758161792E+03  0.50400000000E-02 0. -1.
    8880023    1    1    2    0    0 -0.81454283929E+02  0.25059681171E+03 -0.98677350013E+02  0.71622691103E+03  0.65864270000E+03 0.  0.
    8880022    1    1    2    0    0  0.81454283929E+02 -0.25059681171E+03 -0.22280851487E+03  0.37745045995E+03  0.15294330000E+03 0.  0.
<mgrwt>
<rscale>  0 0.57428193E+03</rscale>
<asrwt>0</asrwt>
<pdfrwt beam="1">  1        1 0.10885871E+00 0.70939676E+03</pdfrwt>
<pdfrwt beam="2">  1       -1 0.59399347E-01 0.70939676E+03</pdfrwt>
<totfact> 0.78786839E+01</totfact>
</mgrwt>
</event>
<event>
 4    2  0.3179755E-007  0.6917305E+03  0.7818608E-02  0.1003341E+00
          1   -1    0    0  501    0  0.00000000000E+00  0.00000000000E+00  0.23042637089E+04  0.23042637089E+04  0.50400000000E-02 0. -1.
         -1   -1    0    0    0  501 -0.00000000000E+00 -0.00000000000E+00 -0.19981676980E+03  0.19981676987E+03  0.50400000000E-02 0.  1.
    8880023    1    1    2    0    0  0.20810346836E+03 -0.37066014121E+02  0.21322963750E+04  0.22416910982E+04  0.65864270000E+03 0. -1.
    8880022    1    1    2    0    0 -0.20810346836E+03  0.37066014121E+02 -0.27849435837E+02  0.26238938057E+03  0.15294330000E+03 0.  0.
<mgrwt>
<rscale>  0 0.54209357E+03</rscale>
<asrwt>0</asrwt>
<pdfrwt beam="1">  1        1 0.35450211E+00 0.69173055E+03</pdfrwt>
<pdfrwt beam="2">  1       -1 0.30741042E-01 0.69173055E+03</pdfrwt>
<totfact> 0.19056810E+01</totfact>
</mgrwt>
</event>
<event>
 4    2  0.3179755E-007  0.6806305E+03  0.7818608E-02  0.1008969E+00
          1   -1    0    0  501    0  0.00000000000E+00  0.00000000000E+00  0.11523443240E+03  0.11523443251E+03  0.50400000000E-02 0. -1.
         -1   -1    0    0    0  501 -0.00000000000E+00 -0.00000000000E+00 -0.25378455184E+04  0.25378455184E+04  0.50400000000E-02 0.  1.
    8880023    1    1    2    0    0  0.16400861610E+03 -0.50486545855E+02 -0.98545000542E+03  0.11976517177E+04  0.65864270000E+03 0. -1.
    8880022    1    1    2    0    0 -0.16400861610E+03  0.50486545855E+02 -0.14371610806E+04  0.14554282332E+04  0.15294330000E+03 0.  0.
<mgrwt>
<rscale>  0 0.51886368E+03</rscale>
<asrwt>0</asrwt>
<pdfrwt beam="1">  1        1 0.17728376E-01 0.68063053E+03</pdfrwt>
<pdfrwt beam="2">  1       -1 0.39043773E+00 0.68063053E+03</pdfrwt>
<totfact> 0.27462049E+00</totfact>
</mgrwt>
</event>
<event>
 4    2  0.3179755E-007  0.7334987E+03  0.7818608E-02  0.9879306E-01
         -1   -1    0    0    0  501 -0.00000000000E+00  0.00000000000E+00  0.43609017858E+03  0.43609017861E+03  0.50400000000E-02 0.  1.
          1   -1    0    0  501    0  0.00000000000E+00 -0.00000000000E+00 -0.19830652722E+04  0.19830652722E+04  0.50400000000E-02 0. -1.
    8880023    1    1    2    0    0  0.13204964952E+03 -0.29457255176E+03 -0.18247469777E+04  0.19666524444E+04  0.65864270000E+03 0. -1.
    8880022    1    1    2    0    0 -0.13204964952E+03  0.29457255176E+03  0.27777188410E+03  0.45250300640E+03  0.15294330000E+03 0.  0.
<mgrwt>
<rscale>  0 0.61274754E+03</rscale>
<asrwt>0</asrwt>
<pdfrwt beam="1">  1        1 0.30508696E+00 0.73349867E+03</pdfrwt>
<pdfrwt beam="2">  1       -1 0.67090798E-01 0.73349867E+03</pdfrwt>
<totfact> 0.72337137E+00</totfact>
</mgrwt>
</event>
<event>
 4    2  0.3179755E-007  0.8386608E+03  0.7818608E-02  0.9632711E-01
         -1   -1    0    0    0  501 -0.00000000000E+00  0.00000000000E+00  0.52956024623E+03  0.52956024625E+03  0.50400000000E-02 0.  1.
          1   -1    0    0  501    0  0.00000000000E+00 -0.00000000000E+00 -0.10806966049E+04  0.10806966049E+04  0.50400000000E-02 0. -1.
    8880023    1    1    2    0    0 -0.27209335896E+03 -0.44216166482E+03 -0.12038687368E+01  0.83866166563E+03  0.65864270000E+03 0.  0.
    8880022    1    1    2    0    0  0.27209335896E+03  0.44216166482E+03 -0.54993248989E+03  0.77159518549E+03  0.15294330000E+03 0.  0.
<mgrwt>
<rscale>  0 0.75168497E+03</rscale>
<asrwt>0</asrwt>
<pdfrwt beam="1">  1        1 0.16626102E+00 0.83866080E+03</pdfrwt>
<pdfrwt beam="2">  1       -1 0.81470807E-01 0.83866080E+03</pdfrwt>
<totfact> 0.20053025E+01</totfact>
</mgrwt>
</event>
<event>
 4    2  0.3179755E-007  0.1421043E+04  0.7818608E-02  0.8967502E-01
          1   -1    0    0  501    0  0.00000000000E+00  0.00000000000E+00  0.40508551475E+04  0.40508551475E+04  0.50400000000E-02 0. -1.
         -1   -1    0    0    0  501 -0.00000000000E+00 -0.00000000000E+00 -0.96309616439E+03  0.96309616440E+03  0.50400000000E-02 0.  1.
    8880023    1    1    2    0    0 -0.16193315920E+03 -0.12487314154E+04 -0.25038791905E+03  0.14429334053E+04  0.65864270000E+03 0.  0.
    8880022    1    1    2    0    0  0.16193315920E+03  0.12487314154E+04  0.33381469022E+04  0.35710179066E+04  0.15294330000E+03 0.  0.
<mgrwt>
<rscale>  0 0.13812522E+04</rscale>
<asrwt>0</asrwt>
<pdfrwt beam="1">  1        1 0.62320849E+00 0.14210428E+04</pdfrwt>
<pdfrwt beam="2">  1       -1 0.14816864E+00 0.14210428E+04</pdfrwt>
<totfact> 0.30416713E-02</totfact>
</mgrwt>
</event>
<event>
 4    2  0.3179755E-007  0.1220362E+04  0.7818608E-02  0.9137578E-01
          1   -1    0    0  501    0  0.00000000000E+00  0.00000000000E+00  0.21305431586E+04  0.21305431586E+04  0.50400000000E-02 0. -1.
         -1   -1    0    0    0  501 -0.00000000000E+00 -0.00000000000E+00 -0.65934090300E+03  0.65934090302E+03  0.50400000000E-02 0.  1.
    8880023    1    1    2    0    0 -0.10183394950E+04  0.13586315614E+03  0.12106919729E+04  0.17190286163E+04  0.65864270000E+03 0. -1.
    8880022    1    1    2    0    0  0.10183394950E+04 -0.13586315614E+03  0.26051028266E+03  0.10708554453E+04  0.15294330000E+03 0.  0.
<mgrwt>
<rscale>  0 0.11721617E+04</rscale>
<asrwt>0</asrwt>
<pdfrwt beam="1">  1        1 0.32777587E+00 0.12203624E+04</pdfrwt>
<pdfrwt beam="2">  1       -1 0.10143706E+00 0.12203624E+04</pdfrwt>
<totfact> 0.22061469E+00</totfact>
</mgrwt>
</event>
<event>
 4    2  0.3179755E-007  0.7497218E+03  0.7818608E-02  0.9832483E-01
          1   -1    0    0  501    0  0.00000000000E+00  0.00000000000E+00  0.60380371212E+03  0.60380371214E+03  0.50400000000E-02 0. -1.
         -1   -1    0    0    0  501 -0.00000000000E+00 -0.00000000000E+00 -0.57687462749E+03  0.57687462751E+03  0.50400000000E-02 0.  1.
    8880023    1    1    2    0    0 -0.79844018386E+02  0.34913814763E+03  0.16467622327E+03  0.76759427967E+03  0.65864270000E+03 0.  0.
    8880022    1    1    2    0    0  0.79844018386E+02 -0.34913814763E+03 -0.13774713864E+03  0.41308405999E+03  0.15294330000E+03 0.  0.
<mgrwt>
<rscale>  0 0.63648102E+03</rscale>
<asrwt>0</asrwt>
<pdfrwt beam="1">  1        1 0.92892878E-01 0.74972176E+03</pdfrwt>
<pdfrwt beam="2">  1       -1 0.88749943E-01 0.74972176E+03</pdfrwt>
<totfact> 0.43232628E+01</totfact>
</mgrwt>
</event>
<event>
 4    2  0.3179755E-007  0.6988155E+03  0.7818608E-02  0.1000215E+00
         -1   -1    0    0    0  501 -0.00000000000E+00  0.00000000000E+00  0.62445121787E+02  0.62445121990E+02  0.50400000000E-02 0.  1.
          1   -1    0    0  501    0  0.00000000000E+00 -0.00000000000E+00 -0.38294592742E+04  0.38294592742E+04  0.50400000000E-02 0. -1.
    8880023    1    1    2    0    0 -0.10577975182E+03  0.20819102910E+03 -0.27103862958E+04  0.27990242835E+04  0.65864270000E+03 0.  0.
    8880022    1    1    2    0    0  0.10577975182E+03 -0.20819102910E+03 -0.10566278566E+04  0.10928801127E+04  0.15294330000E+03 0.  1.
<mgrwt>
<rscale>  0 0.55556023E+03</rscale>
<asrwt>0</asrwt>
<pdfrwt beam="1">  1        1 0.58914740E+00 0.69881547E+03</pdfrwt>
<pdfrwt beam="2">  1       -1 0.96069448E-02 0.69881547E+03</pdfrwt>
<totfact> 0.99422988E+00</totfact>
</mgrwt>
</event>
<event>
 4    2  0.3179755E-007  0.8173454E+03  0.7818608E-02  0.9674475E-01
         -1   -1    0    0    0  501 -0.00000000000E+00  0.00000000000E+00  0.50194471699E+03  0.50194471702E+03  0.50400000000E-02 0.  1.
          1   -1    0    0  501    0  0.00000000000E+00 -0.00000000000E+00 -0.23453627685E+04  0.23453627685E+04  0.50400000000E-02 0. -1.
    8880023    1    1    2    0    0 -0.48376800238E+03  0.14553385305E+02 -0.21179875735E+04  0.22702257264E+04  0.65864270000E+03 0.  0.
    8880022    1    1    2    0    0  0.48376800238E+03 -0.14553385305E+02  0.27456952206E+03  0.57708175904E+03  0.15294330000E+03 0.  0.
<mgrwt>
<rscale>  0 0.72557082E+03</rscale>
<asrwt>0</asrwt>
<pdfrwt beam="1">  1        1 0.36082503E+00 0.81734539E+03</pdfrwt>
<pdfrwt beam="2">  1       -1 0.77222266E-01 0.81734539E+03</pdfrwt>
<totfact> 0.30462697E+00</totfact>
</mgrwt>
</event>
<event>
 4    2  0.3179755E-007  0.6607606E+03  0.7818608E-02  0.1023390E+00
          1   -1    0    0  501    0  0.00000000000E+00  0.00000000000E+00  0.15450943305E+04  0.15450943305E+04  0.50400000000E-02 0. -1.
         -1   -1    0    0    0  501 -0.00000000000E+00 -0.00000000000E+00 -0.35875495780E+03  0.35875495784E+03  0.50400000000E-02 0.  1.
    8880023    1    1    2    0    0  0.47187802228E+02  0.23825111792E+02  0.14505864493E+04  0.15939904573E+04  0.65864270000E+03 0. -1.
    8880022    1    1    2    0    0 -0.47187802228E+02 -0.23825111792E+02 -0.26424707667E+03  0.30985883104E+03  0.15294330000E+03 0.  0.
<mgrwt>
<rscale>  0 0.46482737E+03</rscale>
<asrwt>0</asrwt>
<pdfrwt beam="1">  1        1 0.23770682E+00 0.66076057E+03</pdfrwt>
<pdfrwt beam="2">  1       -1 0.55193070E-01 0.66076057E+03</pdfrwt>
<totfact> 0.21170484E+01</totfact>
</mgrwt>
</event>
<event>
 4    2  0.3179755E-007  0.7003592E+03  0.7818608E-02  0.9995714E-01
         -1   -1    0    0    0  501 -0.00000000000E+00  0.00000000000E+00  0.25780434910E+03  0.25780434915E+03  0.50400000000E-02 0.  1.
          1   -1    0    0  501    0  0.00000000000E+00 -0.00000000000E+00 -0.11703286881E+04  0.11703286881E+04  0.50400000000E-02 0. -1.
    8880023    1    1    2    0    0 -0.18253498649E+03  0.15288504389E+03 -0.90590706605E+03  0.11450636124E+04  0.65864270000E+03 0.  0.
    8880022    1    1    2    0    0  0.18253498649E+03 -0.15288504389E+03 -0.66172729113E+01  0.28306942479E+03  0.15294330000E+03 0.  0.
<mgrwt>
<rscale>  0 0.55838560E+03</rscale>
<asrwt>0</asrwt>
<pdfrwt beam="1">  1        1 0.18005056E+00 0.70035924E+03</pdfrwt>
<pdfrwt beam="2">  1       -1 0.39662208E-01 0.70035924E+03</pdfrwt>
<totfact> 0.71426706E+01</totfact>
</mgrwt>
</event>
<event>
 4    2  0.3179755E-007  0.8414343E+03  0.7818608E-02  0.9627482E-01
          1   -1    0    0  501    0  0.00000000000E+00  0.00000000000E+00  0.12798517547E+04  0.12798517547E+04  0.50400000000E-02 0. -1.
         -1   -1    0    0    0  501 -0.00000000000E+00 -0.00000000000E+00 -0.10781281198E+04  0.10781281198E+04  0.50400000000E-02 0.  1.
    8880023    1    1    2    0    0 -0.31299978713E+03 -0.41980064180E+03  0.10523924744E+04  0.13474203398E+04  0.65864270000E+03 0. -1.
    8880022    1    1    2    0    0  0.31299978713E+03  0.41980064180E+03 -0.85066883951E+03  0.10105595347E+04  0.15294330000E+03 0.  0.
<mgrwt>
<rscale>  0 0.75503661E+03</rscale>
<asrwt>0</asrwt>
<pdfrwt beam="1">  1        1 0.19690027E+00 0.84143428E+03</pdfrwt>
<pdfrwt beam="2">  1       -1 0.16586586E+00 0.84143428E+03</pdfrwt>
<totfact> 0.25367575E+00</totfact>
</mgrwt>
</event>
<event>
 4    2  0.3179755E-007  0.6678357E+03  0.7818608E-02  0.1017264E+00
          1   -1    0    0  501    0  0.00000000000E+00  0.00000000000E+00  0.12512814248E+04  0.12512814248E+04  0.50400000000E-02 0. -1.
         -1   -1    0    0    0  501 -0.00000000000E+00 -0.00000000000E+00 -0.15937512801E+03  0.15937512809E+03  0.50400000000E-02 0.  1.
    8880023    1    1    2    0    0  0.10395299466E+03  0.37256648793E+02  0.99562678419E+03  0.11988649560E+04  0.65864270000E+03 0. -1.
    8880022    1    1    2    0    0 -0.10395299466E+03 -0.37256648793E+02  0.96279512641E+02  0.21179159697E+03  0.15294330000E+03 0.  0.
<mgrwt>
<rscale>  0 0.48686887E+03</rscale>
<asrwt>0</asrwt>
<pdfrwt beam="1">  1        1 0.19250483E+00 0.66783568E+03</pdfrwt>
<pdfrwt beam="2">  1       -1 0.24519251E-01 0.66783568E+03</pdfrwt>
<totfact> 0.14545337E+02</totfact>
</mgrwt>
</event>
<event>
 4    2  0.3179755E-007  0.7078851E+03  0.7818608E-02  0.9965940E-01
         -1   -1    0    0    0  501 -0.00000000000E+00  0.00000000000E+00  0.48714943599E+03  0.48714943602E+03  0.50400000000E-02 0.  1.
          1   -1    0    0  501    0  0.00000000000E+00 -0.00000000000E+00 -0.16098362903E+04  0.16098362903E+04  0.50400000000E-02 0. -1.
    8880023    1    1    2    0    0  0.12188685637E+03  0.22898638082E+03 -0.14734599814E+04  0.16346821377E+04  0.65864270000E+03 0. -1.
    8880022    1    1    2    0    0 -0.12188685637E+03 -0.22898638082E+03  0.35077312707E+03  0.46230358862E+03  0.15294330000E+03 0.  0.
<mgrwt>
<rscale>  0 0.57169280E+03</rscale>
<asrwt>0</asrwt>
<pdfrwt beam="1">  1        1 0.24766712E+00 0.70788514E+03</pdfrwt>
<pdfrwt beam="2">  1       -1 0.74946068E-01 0.70788514E+03</pdfrwt>
<totfact> 0.10296756E+01</totfact>
</mgrwt>
</event>
<event>
 4    2  0.3179755E-007  0.7347664E+03  0.7818608E-02  0.9875463E-01
         -1   -1    0    0    0  501 -0.00000000000E+00  0.00000000000E+00  0.82838557928E+03  0.82838557929E+03  0.50400000000E-02 0.  1.
          1   -1    0    0  501    0  0.00000000000E+00 -0.00000000000E+00 -0.17398882818E+04  0.17398882818E+04  0.50400000000E-02 0. -1.
    8880023    1    1    2    0    0 -0.96187505490E+02 -0.31115809591E+03 -0.16171164812E+04  0.17762171368E+04  0.65864270000E+03 0. -1.
    8880022    1    1    2    0    0  0.96187505490E+02  0.31115809591E+03  0.70561377869E+03  0.79205672433E+03  0.15294330000E+03 0.  0.
<mgrwt>
<rscale>  0 0.61465324E+03</rscale>
<asrwt>0</asrwt>
<pdfrwt beam="1">  1        1 0.26767512E+00 0.73476636E+03</pdfrwt>
<pdfrwt beam="2">  1       -1 0.12744394E+00 0.73476636E+03</pdfrwt>
<totfact> 0.25111570E+00</totfact>
</mgrwt>
</event>
<event>
 4    2  0.3179755E-007  0.7754686E+03  0.7818608E-02  0.9766591E-01
          1   -1    0    0  501    0  0.00000000000E+00  0.00000000000E+00  0.49137508878E+03  0.49137508880E+03  0.50400000000E-02 0. -1.
         -1   -1    0    0    0  501 -0.00000000000E+00 -0.00000000000E+00 -0.11637706648E+04  0.11637706648E+04  0.50400000000E-02 0.  1.
    8880023    1    1    2    0    0 -0.13949925323E+03  0.38481338866E+03  0.85644990030E+02  0.78018373242E+03  0.65864270000E+03 0. -1.
    8880022    1    1    2    0    0  0.13949925323E+03 -0.38481338866E+03 -0.75804056609E+03  0.87496202123E+03  0.15294330000E+03 0.  0.
<mgrwt>
<rscale>  0 0.67186700E+03</rscale>
<asrwt>0</asrwt>
<pdfrwt beam="1">  1        1 0.75596168E-01 0.77546863E+03</pdfrwt>
<pdfrwt beam="2">  1       -1 0.17904164E+00 0.77546863E+03</pdfrwt>
<totfact> 0.98647370E+00</totfact>
</mgrwt>
</event>
<event>
 4    2  0.3179755E-007  0.7220958E+03  0.7818608E-02  0.9915557E-01
         -1   -1    0    0    0  501 -0.00000000000E+00  0.00000000000E+00  0.25430205975E+04  0.25430205975E+04  0.50400000000E-02 0.  1.
          1   -1    0    0  501    0  0.00000000000E+00 -0.00000000000E+00 -0.33863128813E+03  0.33863128817E+03  0.50400000000E-02 0. -1.
    8880023    1    1    2    0    0  0.15490698732E+03 -0.25222218051E+03  0.74576083929E+02  0.72593663747E+03  0.65864270000E+03 0. -1.
    8880022    1    1    2    0    0 -0.15490698732E+03  0.25222218051E+03  0.21298132254E+04  0.21557152482E+04  0.15294330000E+03 0.  0.
<mgrwt>
<rscale>  0 0.59513212E+03</rscale>
<asrwt>0</asrwt>
<pdfrwt beam="1">  1        1 0.52097119E-01 0.72209584E+03</pdfrwt>
<pdfrwt beam="2">  1       -1 0.39123396E+00 0.72209584E+03</pdfrwt>
<totfact> 0.65970140E-01</totfact>
</mgrwt>
</event>
<event>
 4    2  0.3179755E-007  0.8380998E+03  0.7818608E-02  0.9633774E-01
         -1   -1    0    0    0  501 -0.00000000000E+00  0.00000000000E+00  0.29348623255E+03  0.29348623260E+03  0.50400000000E-02 0.  1.
          1   -1    0    0  501    0  0.00000000000E+00 -0.00000000000E+00 -0.23226201875E+04  0.23226201875E+04  0.50400000000E-02 0. -1.
    8880023    1    1    2    0    0  0.29249334365E+03  0.42784182838E+03 -0.18756325344E+04  0.20543633068E+04  0.65864270000E+03 0. -1.
    8880022    1    1    2    0    0 -0.29249334365E+03 -0.42784182838E+03 -0.15350142059E+03  0.56174311329E+03  0.15294330000E+03 0.  1.
<mgrwt>
<rscale>  0 0.75100577E+03</rscale>
<asrwt>0</asrwt>
<pdfrwt beam="1">  1        1 0.35732617E+00 0.83809975E+03</pdfrwt>
<pdfrwt beam="2">  1       -1 0.45151730E-01 0.83809975E+03</pdfrwt>
<totfact> 0.90653146E+00</totfact>
</mgrwt>
</event>
<event>
 4    2  0.3179755E-007  0.7130612E+03  0.7818608E-02  0.9946804E-01
          1   -1    0    0  501    0  0.00000000000E+00  0.00000000000E+00  0.64385485005E+03  0.64385485007E+03  0.50400000000E-02 0. -1.
         -1   -1    0    0    0  501 -0.00000000000E+00 -0.00000000000E+00 -0.64409168299E+03  0.64409168301E+03  0.50400000000E-02 0.  1.
    8880023    1    1    2    0    0  0.11228692494E+03 -0.24907382184E+03  0.36977220004E+03  0.80323583612E+03  0.65864270000E+03 0. -1.
    8880022    1    1    2    0    0 -0.11228692494E+03  0.24907382184E+03 -0.37000903298E+03  0.48471069695E+03  0.15294330000E+03 0.  0.
<mgrwt>
<rscale>  0 0.58045600E+03</rscale>
<asrwt>0</asrwt>
<pdfrwt beam="1">  1        1 0.99054592E-01 0.71306124E+03</pdfrwt>
<pdfrwt beam="2">  1       -1 0.99091028E-01 0.71306124E+03</pdfrwt>
<totfact> 0.30913358E+01</totfact>
</mgrwt>
</event>
<event>
 4    2  0.3179755E-007  0.7330846E+03  0.7818608E-02  0.9880569E-01
          1   -1    0    0  501    0  0.00000000000E+00  0.00000000000E+00  0.11521231386E+04  0.11521231386E+04  0.50400000000E-02 0. -1.
         -1   -1    0    0    0  501 -0.00000000000E+00 -0.00000000000E+00 -0.25891106757E+03  0.25891106762E+03  0.50400000000E-02 0.  1.
    8880023    1    1    2    0    0  0.30494585726E+03  0.10300865669E+03  0.55212585078E+03  0.91774501937E+03  0.65864270000E+03 0.  1.
    8880022    1    1    2    0    0 -0.30494585726E+03 -0.10300865669E+03  0.34108622024E+03  0.49328918685E+03  0.15294330000E+03 0. -1.
<mgrwt>
<rscale>  0 0.61212290E+03</rscale>
<asrwt>0</asrwt>
<pdfrwt beam="1">  1        1 0.17724972E+00 0.73308456E+03</pdfrwt>
<pdfrwt beam="2">  1       -1 0.39832471E-01 0.73308456E+03</pdfrwt>
<totfact> 0.72846749E+01</totfact>
</mgrwt>
</event>
<event>
 4    2  0.3179755E-007  0.1398545E+04  0.7818608E-02  0.8984814E-01
         -1   -1    0    0    0  501 -0.00000000000E+00  0.00000000000E+00  0.19046698939E+04  0.19046698939E+04  0.50400000000E-02 0.  1.
          1   -1    0    0  501    0  0.00000000000E+00 -0.00000000000E+00 -0.22696773754E+04  0.22696773754E+04  0.50400000000E-02 0. -1.
    8880023    1    1    2    0    0 -0.34978457977E+03  0.11831185093E+04 -0.17975927904E+04  0.22775576185E+04  0.65864270000E+03 0.  0.
    8880022    1    1    2    0    0  0.34978457977E+03 -0.11831185093E+04  0.14325853088E+04  0.18967896508E+04  0.15294330000E+03 0.  0.
<mgrwt>
<rscale>  0 0.13579738E+04</rscale>
<asrwt>0</asrwt>
<pdfrwt beam="1">  1        1 0.34918113E+00 0.13985453E+04</pdfrwt>
<pdfrwt beam="2">  1       -1 0.29302614E+00 0.13985453E+04</pdfrwt>
<totfact> 0.68451624E-02</totfact>
</mgrwt>
</event>
<event>
 4    2  0.3179755E-007  0.6657653E+03  0.7818608E-02  0.1018900E+00
          1   -1    0    0  501    0  0.00000000000E+00  0.00000000000E+00  0.19170055096E+03  0.19170055103E+03  0.50400000000E-02 0. -1.
         -1   -1    0    0    0  501 -0.00000000000E+00 -0.00000000000E+00 -0.12834345792E+04  0.12834345792E+04  0.50400000000E-02 0.  1.
    8880023    1    1    2    0    0  0.28427978272E+02  0.92871322203E+02 -0.43839606119E+03  0.79714148378E+03  0.65864270000E+03 0. -1.
    8880022    1    1    2    0    0 -0.28427978272E+02 -0.92871322203E+02 -0.65333796702E+03  0.67799364643E+03  0.15294330000E+03 0.  0.
<mgrwt>
<rscale>  0 0.48085736E+03</rscale>
<asrwt>0</asrwt>
<pdfrwt beam="1">  1        1 0.29492393E-01 0.66576530E+03</pdfrwt>
<pdfrwt beam="2">  1       -1 0.19745147E+00 0.66576530E+03</pdfrwt>
<totfact> 0.25470960E+01</totfact>
</mgrwt>
</event>
<event>
 4    2  0.3179755E-007  0.8413450E+03  0.7818608E-02  0.9627649E-01
         -1   -1    0    0    0  501 -0.00000000000E+00  0.00000000000E+00  0.15467427859E+04  0.15467427859E+04  0.50400000000E-02 0.  1.
          1   -1    0    0  501    0  0.00000000000E+00 -0.00000000000E+00 -0.48849427725E+03  0.48849427727E+03  0.50400000000E-02 0. -1.
    8880023    1    1    2    0    0  0.48099489267E+03  0.20662782508E+03 -0.37850188004E+01  0.84135347952E+03  0.65864270000E+03 0. -1.
    8880022    1    1    2    0    0 -0.48099489267E+03 -0.20662782508E+03  0.10620335274E+04  0.11938835836E+04  0.15294330000E+03 0.  0.
<mgrwt>
<rscale>  0 0.75492882E+03</rscale>
<asrwt>0</asrwt>
<pdfrwt beam="1">  1        1 0.75152968E-01 0.84134497E+03</pdfrwt>
<pdfrwt beam="2">  1       -1 0.23796042E+00 0.84134497E+03</pdfrwt>
<totfact> 0.39300646E+00</totfact>
</mgrwt>
</event>
<event>
 4    2  0.3179755E-007  0.7150332E+03  0.7818608E-02  0.9939765E-01
         -1   -1    0    0    0  501 -0.00000000000E+00  0.00000000000E+00  0.21326173232E+03  0.21326173238E+03  0.50400000000E-02 0.  1.
          1   -1    0    0  501    0  0.00000000000E+00 -0.00000000000E+00 -0.27677199313E+04  0.27677199313E+04  0.50400000000E-02 0. -1.
    8880023    1    1    2    0    0  0.16940623542E+03  0.22082532249E+03 -0.25654340719E+04  0.26632169418E+04  0.65864270000E+03 0. -1.
    8880022    1    1    2    0    0 -0.16940623542E+03 -0.22082532249E+03  0.10975872938E+02  0.31776472185E+03  0.15294330000E+03 0.  0.
<mgrwt>
<rscale>  0 0.58372229E+03</rscale>
<asrwt>0</asrwt>
<pdfrwt beam="1">  1        1 0.42580304E+00 0.71503322E+03</pdfrwt>
<pdfrwt beam="2">  1       -1 0.32809499E-01 0.71503322E+03</pdfrwt>
<totfact> 0.81583001E+00</totfact>
</mgrwt>
</event>
<event>
 4    2  0.3179755E-007  0.1514830E+04  0.7818608E-02  0.8899234E-01
         -1   -1    0    0    0  501 -0.00000000000E+00  0.00000000000E+00  0.95354858728E+03  0.95354858730E+03  0.50400000000E-02 0.  1.
          1   -1    0    0  501    0  0.00000000000E+00 -0.00000000000E+00 -0.32163262426E+04  0.32163262426E+04  0.50400000000E-02 0. -1.
    8880023    1    1    2    0    0 -0.88793447169E+03  0.10356019663E+04  0.98427927862E+01  0.15148617579E+04  0.65864270000E+03 0.  1.
    8880022    1    1    2    0    0  0.88793447169E+03 -0.10356019663E+04 -0.22726204481E+04  0.26550130721E+04  0.15294330000E+03 0.  0.
<mgrwt>
<rscale>  0 0.14779725E+04</rscale>
<asrwt>0</asrwt>
<pdfrwt beam="1">  1        1 0.49481942E+00 0.15148298E+04</pdfrwt>
<pdfrwt beam="2">  1       -1 0.14669978E+00 0.15148298E+04</pdfrwt>
<totfact> 0.14572286E-01</totfact>
</mgrwt>
</event>
<event>
 4    2  0.3179755E-007  0.9166923E+03  0.7818608E-02  0.9499749E-01
          1   -1    0    0  501    0  0.00000000000E+00  0.00000000000E+00  0.30473354819E+04  0.30473354819E+04  0.50400000000E-02 0. -1.
         -1   -1    0    0    0  501 -0.00000000000E+00 -0.00000000000E+00 -0.50118537486E+03  0.50118537488E+03  0.50400000000E-02 0.  1.
    8880023    1    1    2    0    0  0.62604347799E+03 -0.12076497099E+03  0.27198954134E+04  0.28702187862E+04  0.65864270000E+03 0.  0.
    8880022    1    1    2    0    0 -0.62604347799E+03  0.12076497099E+03 -0.17374530631E+03  0.67830207064E+03  0.15294330000E+03 0.  0.
<mgrwt>
<rscale>  0 0.84302299E+03</rscale>
<asrwt>0</asrwt>
<pdfrwt beam="1">  1        1 0.46882085E+00 0.91669233E+03</pdfrwt>
<pdfrwt beam="2">  1       -1 0.77105441E-01 0.91669233E+03</pdfrwt>
<totfact> 0.97200755E-01</totfact>
</mgrwt>
</event>
<event>
 4    2  0.3179755E-007  0.6816291E+03  0.7818608E-02  0.1008417E+00
          1   -1    0    0  501    0  0.00000000000E+00  0.00000000000E+00  0.96506310468E+03  0.96506310469E+03  0.50400000000E-02 0. -1.
         -1   -1    0    0    0  501 -0.00000000000E+00 -0.00000000000E+00 -0.64860495262E+03  0.64860495264E+03  0.50400000000E-02 0.  1.
    8880023    1    1    2    0    0  0.17440740001E+03 -0.19750401538E+02  0.81558341425E+03  0.10629179326E+04  0.65864270000E+03 0. -1.
    8880022    1    1    2    0    0 -0.17440740001E+03  0.19750401538E+02 -0.49912526220E+03  0.55075012475E+03  0.15294330000E+03 0.  0.
<mgrwt>
<rscale>  0 0.52108752E+03</rscale>
<asrwt>0</asrwt>
<pdfrwt beam="1">  1        1 0.14847125E+00 0.68162910E+03</pdfrwt>
<pdfrwt beam="2">  1       -1 0.99785378E-01 0.68162910E+03</pdfrwt>
<totfact> 0.16049178E+01</totfact>
</mgrwt>
</event>
<event>
 4    2  0.3179755E-007  0.9365549E+03  0.7818608E-02  0.9469728E-01
         -1   -1    0    0    0  501 -0.00000000000E+00  0.00000000000E+00  0.10643368857E+04  0.10643368857E+04  0.50400000000E-02 0.  1.
          1   -1    0    0  501    0  0.00000000000E+00 -0.00000000000E+00 -0.73072384910E+03  0.73072384912E+03  0.50400000000E-02 0. -1.
    8880023    1    1    2    0    0 -0.40110760588E+03 -0.53144849876E+03 -0.16277885144E+03  0.95059559176E+03  0.65864270000E+03 0.  0.
    8880022    1    1    2    0    0  0.40110760588E+03  0.53144849876E+03  0.49639188803E+03  0.84446514306E+03  0.15294330000E+03 0.  0.
<mgrwt>
<rscale>  0 0.86552887E+03</rscale>
<asrwt>0</asrwt>
<pdfrwt beam="1">  1        1 0.11241905E+00 0.93655487E+03</pdfrwt>
<pdfrwt beam="2">  1       -1 0.16374414E+00 0.93655487E+03</pdfrwt>
<totfact> 0.70505490E+00</totfact>
</mgrwt>
</event>
<event>
 4    2  0.3179755E-007  0.8969035E+03  0.7818608E-02  0.9531021E-01
         -1   -1    0    0    0  501 -0.00000000000E+00  0.00000000000E+00  0.40693150308E+03  0.40693150311E+03  0.50400000000E-02 0.  1.
          1   -1    0    0  501    0  0.00000000000E+00 -0.00000000000E+00 -0.18282978324E+04  0.18282978324E+04  0.50400000000E-02 0. -1.
    8880023    1    1    2    0    0  0.34042039239E+03 -0.50471746925E+03 -0.13252189992E+04  0.16002004154E+04  0.65864270000E+03 0. -1.
    8880022    1    1    2    0    0 -0.34042039239E+03  0.50471746925E+03 -0.96147330168E+02  0.63502892016E+03  0.15294330000E+03 0.  0.
<mgrwt>
<rscale>  0 0.82034915E+03</rscale>
<asrwt>0</asrwt>
<pdfrwt beam="1">  1        1 0.28127658E+00 0.89690355E+03</pdfrwt>
<pdfrwt beam="2">  1       -1 0.62604848E-01 0.89690355E+03</pdfrwt>
<totfact> 0.10305801E+01</totfact>
</mgrwt>
</event>
<event>
 4    2  0.3179755E-007  0.9022849E+03  0.7818608E-02  0.9522374E-01
         -1   -1    0    0    0  501 -0.00000000000E+00  0.00000000000E+00  0.72536887421E+03  0.72536887423E+03  0.50400000000E-02 0.  1.
          1   -1    0    0  501    0  0.00000000000E+00 -0.00000000000E+00 -0.11288703135E+04  0.11288703135E+04  0.50400000000E-02 0. -1.
    8880023    1    1    2    0    0 -0.52078701153E+03  0.33028581139E+03 -0.71063202894E+03  0.11485277164E+04  0.65864270000E+03 0.  0.
    8880022    1    1    2    0    0  0.52078701153E+03 -0.33028581139E+03  0.30713058967E+03  0.70571147129E+03  0.15294330000E+03 0.  0.
<mgrwt>
<rscale>  0 0.82654222E+03</rscale>
<asrwt>0</asrwt>
<pdfrwt beam="1">  1        1 0.17367236E+00 0.90228490E+03</pdfrwt>
<pdfrwt beam="2">  1       -1 0.11159521E+00 0.90228490E+03</pdfrwt>
<totfact> 0.90208558E+00</totfact>
</mgrwt>
</event>
<event>
 4    2  0.3179755E-007  0.6588158E+03  0.7818608E-02  0.1025404E+00
          1   -1    0    0  501    0  0.00000000000E+00  0.00000000000E+00  0.19677303301E+04  0.19677303301E+04  0.50400000000E-02 0. -1.
         -1   -1    0    0    0  501 -0.00000000000E+00 -0.00000000000E+00 -0.18477501421E+03  0.18477501427E+03  0.50400000000E-02 0.  1.
    8880023    1    1    2    0    0  0.31456287778E+01  0.14771024145E+02  0.18652443302E+04  0.19781745868E+04  0.65864270000E+03 0. -1.
    8880022    1    1    2    0    0 -0.31456287778E+01 -0.14771024145E+02 -0.82289014353E+02  0.17433075756E+03  0.15294330000E+03 0.  0.
<mgrwt>
<rscale>  0 0.45785966E+03</rscale>
<asrwt>0</asrwt>
<pdfrwt beam="1">  1        1 0.30272775E+00 0.65881582E+03</pdfrwt>
<pdfrwt beam="2">  1       -1 0.28426925E-01 0.65881582E+03</pdfrwt>
<totfact> 0.36837271E+01</totfact>
</mgrwt>
</event>
<event>
 4    2  0.3179755E-007  0.7146396E+03  0.7818608E-02  0.9941160E-01
          1   -1    0    0  501    0  0.00000000000E+00  0.00000000000E+00  0.13647634419E+04  0.13647634419E+04  0.50400000000E-02 0. -1.
         -1   -1    0    0    0  501 -0.00000000000E+00 -0.00000000000E+00 -0.47903731833E+03  0.47903731836E+03  0.50400000000E-02 0.  1.
    8880023    1    1    2    0    0  0.19373610064E+03  0.19840825790E+03  0.12006151661E+04  0.13972066765E+04  0.65864270000E+03 0. -1.
    8880022    1    1    2    0    0 -0.19373610064E+03 -0.19840825790E+03 -0.31488904257E+03  0.44659408375E+03  0.15294330000E+03 0.  0.
<mgrwt>
<rscale>  0 0.58307327E+03</rscale>
<asrwt>0</asrwt>
<pdfrwt beam="1">  1        1 0.20996361E+00 0.71463957E+03</pdfrwt>
<pdfrwt beam="2">  1       -1 0.73698048E-01 0.71463957E+03</pdfrwt>
<totfact> 0.15681893E+01</totfact>
</mgrwt>
</event>
<event>
 4    2  0.3179755E-007  0.7320874E+03  0.7818608E-02  0.9883626E-01
          1   -1    0    0  501    0  0.00000000000E+00  0.00000000000E+00  0.12516039940E+04  0.12516039940E+04  0.50400000000E-02 0. -1.
         -1   -1    0    0    0  501 -0.00000000000E+00 -0.00000000000E+00 -0.59361610736E+03  0.59361610739E+03  0.50400000000E-02 0.  1.
    8880023    1    1    2    0    0  0.28994804634E+03 -0.13443189658E+03  0.10733684157E+04  0.12992581601E+04  0.65864270000E+03 0. -1.
    8880022    1    1    2    0    0 -0.28994804634E+03  0.13443189658E+03 -0.41538052909E+03  0.54596194131E+03  0.15294330000E+03 0.  0.
<mgrwt>
<rscale>  0 0.61061455E+03</rscale>
<asrwt>0</asrwt>
<pdfrwt beam="1">  1        1 0.19255446E+00 0.73208743E+03</pdfrwt>
<pdfrwt beam="2">  1       -1 0.91325557E-01 0.73208743E+03</pdfrwt>
<totfact> 0.11885235E+01</totfact>
</mgrwt>
</event>
<event>
 4    2  0.3179755E-007  0.6989442E+03  0.7818608E-02  0.1000161E+00
         -1   -1    0    0    0  501 -0.00000000000E+00  0.00000000000E+00  0.24506745997E+03  0.24506746002E+03  0.50400000000E-02 0.  1.
          1   -1    0    0  501    0  0.00000000000E+00 -0.00000000000E+00 -0.13867511621E+04  0.13867511622E+04  0.50400000000E-02 0. -1.
    8880023    1    1    2    0    0 -0.23388519562E+03 -0.32427421352E+01 -0.11572175805E+04  0.13519155059E+04  0.65864270000E+03 0. -1.
    8880022    1    1    2    0    0  0.23388519562E+03  0.32427421352E+01  0.15533878370E+02  0.27990311628E+03  0.15294330000E+03 0.  0.
<mgrwt>
<rscale>  0 0.55579720E+03</rscale>
<asrwt>0</asrwt>
<pdfrwt beam="1">  1        1 0.21334633E+00 0.69894421E+03</pdfrwt>
<pdfrwt beam="2">  1       -1 0.37702687E-01 0.69894421E+03</pdfrwt>
<totfact> 0.54960461E+01</totfact>
</mgrwt>
</event>
<event>
 4    2  0.3179755E-007  0.6964319E+03  0.7818608E-02  0.1001234E+00
         -1   -1    0    0    0  501 -0.00000000000E+00  0.00000000000E+00  0.10227173171E+04  0.10227173171E+04  0.50400000000E-02 0.  1.
          1   -1    0    0  501    0  0.00000000000E+00 -0.00000000000E+00 -0.55357203727E+03  0.55357203729E+03  0.50400000000E-02 0. -1.
    8880023    1    1    2    0    0  0.17049757471E+03 -0.14878749585E+03 -0.30133691645E+03  0.75882889071E+03  0.65864270000E+03 0. -1.
    8880022    1    1    2    0    0 -0.17049757471E+03  0.14878749585E+03  0.77048219626E+03  0.81746046368E+03  0.15294330000E+03 0.  0.
<mgrwt>
<rscale>  0 0.55112543E+03</rscale>
<asrwt>0</asrwt>
<pdfrwt beam="1">  1        1 0.85164929E-01 0.69643187E+03</pdfrwt>
<pdfrwt beam="2">  1       -1 0.15734112E+00 0.69643187E+03</pdfrwt>
<totfact> 0.12194899E+01</totfact>
</mgrwt>
</event>
<event>
 4    2  0.4468213E-007  0.1153237E+04  0.7818608E-02  0.9203977E-01
         -1   -1    0    0    0  501 -0.00000000000E+00  0.00000000000E+00  0.18670819038E+04  0.18670819038E+04  0.50400000000E-02 0.  1.
          1   -1    0    0  501    0  0.00000000000E+00 -0.00000000000E+00 -0.20084477402E+04  0.20084477402E+04  0.50400000000E-02 0. -1.
    8880023    1    1    2    0    0 -0.81561124795E+03 -0.48054427416E+03 -0.16948067201E+04  0.20499572024E+04  0.65864270000E+03 0. -1.
    8880022    1    1    2    0    0  0.81561124795E+03  0.48054427416E+03  0.15534408837E+04  0.18255724415E+04  0.15294330000E+03 0.  0.
<mgrwt>
<rscale>  0 0.11012475E+04</rscale>
<asrwt>0</asrwt>
<pdfrwt beam="1">  1        1 0.30899196E+00 0.11532366E+04</pdfrwt>
<pdfrwt beam="2">  1       -1 0.28724337E+00 0.11532366E+04</pdfrwt>
<totfact> 0.11664327E-01</totfact>
</mgrwt>
</event>
<event>
 4    2  0.3179755E-007  0.6768483E+03  0.7818608E-02  0.1011166E+00
         -1   -1    0    0    0  501 -0.00000000000E+00  0.00000000000E+00  0.11315629772E+03  0.11315629783E+03  0.50400000000E-02 0.  1.
          1   -1    0    0  501    0  0.00000000000E+00 -0.00000000000E+00 -0.17904204031E+04  0.17904204031E+04  0.50400000000E-02 0. -1.
    8880023    1    1    2    0    0 -0.58269107018E+02 -0.14463104122E+03 -0.13491628052E+04  0.15094250256E+04  0.65864270000E+03 0. -1.
    8880022    1    1    2    0    0  0.58269107018E+02  0.14463104122E+03 -0.32810130019E+03  0.39415167527E+03  0.15294330000E+03 0. -1.
<mgrwt>
<rscale>  0 0.51013966E+03</rscale>
<asrwt>0</asrwt>
<pdfrwt beam="1">  1        1 0.27544927E+00 0.67684831E+03</pdfrwt>
<pdfrwt beam="2">  1       -1 0.17408663E-01 0.67684831E+03</pdfrwt>
<totfact> 0.11009631E+02</totfact>
</mgrwt>
</event>
<event>
 4    2  0.3179755E-007  0.6809992E+03  0.7818608E-02  0.1008764E+00
         -1   -1    0    0    0  501 -0.00000000000E+00  0.00000000000E+00  0.20858975619E+03  0.20858975625E+03  0.50400000000E-02 0.  1.
          1   -1    0    0  501    0  0.00000000000E+00 -0.00000000000E+00 -0.22773403867E+04  0.22773403867E+04  0.50400000000E-02 0. -1.
    8880023    1    1    2    0    0  0.61695490181E+02 -0.16168914400E+03 -0.21387872778E+04  0.22445870308E+04  0.65864270000E+03 0. -1.
    8880022    1    1    2    0    0 -0.61695490181E+02  0.16168914400E+03  0.70036647327E+02  0.24134311214E+03  0.15294330000E+03 0.  0.
<mgrwt>
<rscale>  0 0.51968834E+03</rscale>
<asrwt>0</asrwt>
<pdfrwt beam="1">  1        1 0.35036004E+00 0.68099921E+03</pdfrwt>
<pdfrwt beam="2">  1       -1 0.32090733E-01 0.68099921E+03</pdfrwt>
<totfact> 0.18459734E+01</totfact>
</mgrwt>
</event>
<event>
 4    2  0.3179755E-007  0.7125476E+03  0.7818608E-02  0.9948659E-01
          1   -1    0    0  501    0  0.00000000000E+00  0.00000000000E+00  0.27326670838E+04  0.27326670838E+04  0.50400000000E-02 0. -1.
         -1   -1    0    0    0  501 -0.00000000000E+00 -0.00000000000E+00 -0.19434942112E+03  0.19434942118E+03  0.50400000000E-02 0.  1.
    8880023    1    1    2    0    0  0.19910920741E+03  0.18512015141E+03  0.25152440564E+04  0.26142258542E+04  0.65864270000E+03 0. -1.
    8880022    1    1    2    0    0 -0.19910920741E+03 -0.18512015141E+03  0.23073606274E+02  0.31279065084E+03  0.15294330000E+03 0.  0.
<mgrwt>
<rscale>  0 0.57959905E+03</rscale>
<asrwt>0</asrwt>
<pdfrwt beam="1">  1        1 0.42041030E+00 0.71254765E+03</pdfrwt>
<pdfrwt beam="2">  1       -1 0.29899912E-01 0.71254765E+03</pdfrwt>
<totfact> 0.10159659E+01</totfact>
</mgrwt>
</event>
<event>
 4    2  0.3179755E-007  0.7354462E+03  0.7818608E-02  0.9873416E-01
          1   -1    0    0  501    0  0.00000000000E+00  0.00000000000E+00  0.42150790092E+03  0.42150790095E+03  0.50400000000E-02 0. -1.
         -1   -1    0    0    0  501 -0.00000000000E+00 -0.00000000000E+00 -0.13500852333E+04  0.13500852333E+04  0.50400000000E-02 0.  1.
    8880023    1    1    2    0    0  0.15092681238E+03 -0.29033084882E+03  0.41336974869E+02  0.73660698899E+03  0.65864270000E+03 0. -1.
    8880022    1    1    2    0    0 -0.15092681238E+03  0.29033084882E+03 -0.96991430724E+03  0.10349861453E+04  0.15294330000E+03 0.  0.
<mgrwt>
<rscale>  0 0.61567131E+03</rscale>
<asrwt>0</asrwt>
<pdfrwt beam="1">  1        1 0.64847370E-01 0.73544620E+03</pdfrwt>
<pdfrwt beam="2">  1       -1 0.20770542E+00 0.73544620E+03</pdfrwt>
<totfact> 0.77184607E+00</totfact>
</mgrwt>
</event>
<event>
 4    2  0.3179755E-007  0.1253668E+04  0.7818608E-02  0.9106640E-01
          1   -1    0    0  501    0  0.00000000000E+00  0.00000000000E+00  0.31615457290E+04  0.31615457290E+04  0.50400000000E-02 0. -1.
         -1   -1    0    0    0  501 -0.00000000000E+00 -0.00000000000E+00 -0.47279470600E+03  0.47279470603E+03  0.50400000000E-02 0.  1.
    8880023    1    1    2    0    0  0.10660333105E+04  0.38030880465E+02  0.19834313629E+04  0.23464193028E+04  0.65864270000E+03 0.  0.
    8880022    1    1    2    0    0 -0.10660333105E+04 -0.38030880465E+02  0.70531966012E+03  0.12879211323E+04  0.15294330000E+03 0.  0.
<mgrwt>
<rscale>  0 0.12071280E+04</rscale>
<asrwt>0</asrwt>
<pdfrwt beam="1">  1        1 0.48639166E+00 0.12536680E+04</pdfrwt>
<pdfrwt beam="2">  1       -1 0.72737646E-01 0.12536680E+04</pdfrwt>
<totfact> 0.86025989E-01</totfact>
</mgrwt>
</event>
<event>
 4    2  0.3179755E-007  0.9305799E+03  0.7818608E-02  0.9478624E-01
          1   -1    0    0  501    0  0.00000000000E+00  0.00000000000E+00  0.69291952080E+03  0.69291952082E+03  0.50400000000E-02 0. -1.
         -1   -1    0    0    0  501 -0.00000000000E+00 -0.00000000000E+00 -0.98541367331E+03  0.98541367332E+03  0.50400000000E-02 0.  1.
    8880023    1    1    2    0    0 -0.49848609176E+03  0.42857954014E+03  0.28332576827E+02  0.93101114230E+03  0.65864270000E+03 0. -1.
    8880022    1    1    2    0    0  0.49848609176E+03 -0.42857954014E+03 -0.32082672934E+03  0.74732205185E+03  0.15294330000E+03 0.  1.
<mgrwt>
<rscale>  0 0.85878315E+03</rscale>
<asrwt>0</asrwt>
<pdfrwt beam="1">  1        1 0.10660300E+00 0.93057993E+03</pdfrwt>
<pdfrwt beam="2">  1       -1 0.15160210E+00 0.93057993E+03</pdfrwt>
<totfact> 0.94688926E+00</totfact>
</mgrwt>
</event>
<event>
 4    2  0.3179755E-007  0.1051773E+04  0.7818608E-02  0.9316753E-01
         -1   -1    0    0    0  501 -0.00000000000E+00  0.00000000000E+00  0.11084278332E+04  0.11084278332E+04  0.50400000000E-02 0.  1.
          1   -1    0    0  501    0  0.00000000000E+00 -0.00000000000E+00 -0.14109976822E+04  0.14109976822E+04  0.50400000000E-02 0. -1.
    8880023    1    1    2    0    0  0.36857404213E+03 -0.73250936114E+03 -0.98552961471E+03  0.14413520099E+04  0.65864270000E+03 0.  0.
    8880022    1    1    2    0    0 -0.36857404213E+03  0.73250936114E+03  0.68295976575E+03  0.10780735055E+04  0.15294330000E+03 0.  0.
<mgrwt>
<rscale>  0 0.99255094E+03</rscale>
<asrwt>0</asrwt>
<pdfrwt beam="1">  1        1 0.21707657E+00 0.10517733E+04</pdfrwt>
<pdfrwt beam="2">  1       -1 0.17052736E+00 0.10517733E+04</pdfrwt>
<totfact> 0.18372507E+00</totfact>
</mgrwt>
</event>
<event>
 4    2  0.3179755E-007  0.9802660E+03  0.7818608E-02  0.9407844E-01
          1   -1    0    0  501    0  0.00000000000E+00  0.00000000000E+00  0.60469928357E+03  0.60469928359E+03  0.50400000000E-02 0. -1.
         -1   -1    0    0    0  501 -0.00000000000E+00 -0.00000000000E+00 -0.19423875109E+04  0.19423875109E+04  0.50400000000E-02 0.  1.
    8880023    1    1    2    0    0  0.33875181513E+03 -0.64215135480E+03 -0.14958748059E+04  0.17884526262E+04  0.65864270000E+03 0.  0.
    8880022    1    1    2    0    0 -0.33875181513E+03  0.64215135480E+03  0.15818657860E+03  0.75863416835E+03  0.15294330000E+03 0.  0.
<mgrwt>
<rscale>  0 0.91432982E+03</rscale>
<asrwt>0</asrwt>
<pdfrwt beam="1">  1        1 0.93030660E-01 0.98026596E+03</pdfrwt>
<pdfrwt beam="2">  1       -1 0.29882885E+00 0.98026596E+03</pdfrwt>
<totfact> 0.11571040E+00</totfact>
</mgrwt>
</event>
<event>
 4    2  0.3179755E-007  0.9603540E+03  0.7818608E-02  0.9435371E-01
         -1   -1    0    0    0  501 -0.00000000000E+00  0.00000000000E+00  0.39508393866E+03  0.39508393869E+03  0.50400000000E-02 0.  1.
          1   -1    0    0  501    0  0.00000000000E+00 -0.00000000000E+00 -0.20126953825E+04  0.20126953825E+04  0.50400000000E-02 0. -1.
    8880023    1    1    2    0    0 -0.62699750214E+03  0.30877787483E+03 -0.50511847569E+03  0.10850919428E+04  0.65864270000E+03 0.  1.
    8880022    1    1    2    0    0  0.62699750214E+03 -0.30877787483E+03 -0.11124929682E+04  0.13226873784E+04  0.15294330000E+03 0.  0.
<mgrwt>
<rscale>  0 0.89221097E+03</rscale>
<asrwt>0</asrwt>
<pdfrwt beam="1">  1        1 0.30964544E+00 0.96035402E+03</pdfrwt>
<pdfrwt beam="2">  1       -1 0.60782146E-01 0.96035402E+03</pdfrwt>
<totfact> 0.81510828E+00</totfact>
</mgrwt>
</event>
<event>
 4    2  0.3179755E-007  0.7692253E+03  0.7818608E-02  0.9781784E-01
          1   -1    0    0  501    0  0.00000000000E+00  0.00000000000E+00  0.55250447921E+03  0.55250447923E+03  0.50400000000E-02 0. -1.
         -1   -1    0    0    0  501 -0.00000000000E+00 -0.00000000000E+00 -0.12233677424E+04  0.12233677424E+04  0.50400000000E-02 0.  1.
    8880023    1    1    2    0    0 -0.32548108991E+03  0.22794604670E+03  0.21010842699E+03  0.79740397381E+03  0.65864270000E+03 0.  0.
    8880022    1    1    2    0    0  0.32548108991E+03 -0.22794604670E+03 -0.88097169017E+03  0.97846824782E+03  0.15294330000E+03 0.  0.
<mgrwt>
<rscale>  0 0.66349338E+03</rscale>
<asrwt>0</asrwt>
<pdfrwt beam="1">  1        1 0.85000689E-01 0.76922529E+03</pdfrwt>
<pdfrwt beam="2">  1       -1 0.18821042E+00 0.76922529E+03</pdfrwt>
<totfact> 0.72250103E+00</totfact>
</mgrwt>
</event>
<event>
 4    2  0.3179755E-007  0.6701810E+03  0.7818608E-02  0.1015533E+00
          1   -1    0    0  501    0  0.00000000000E+00  0.00000000000E+00  0.61777460983E+03  0.61777460985E+03  0.50400000000E-02 0. -1.
         -1   -1    0    0    0  501 -0.00000000000E+00 -0.00000000000E+00 -0.10107429492E+04  0.10107429492E+04  0.50400000000E-02 0.  1.
    8880023    1    1    2    0    0  0.30766301772E+02 -0.11994104823E+03  0.42077109707E+03  0.79132227491E+03  0.65864270000E+03 0. -1.
    8880022    1    1    2    0    0 -0.30766301772E+02  0.11994104823E+03 -0.81373943644E+03  0.83719528415E+03  0.15294330000E+03 0.  0.
<mgrwt>
<rscale>  0 0.49333478E+03</rscale>
<asrwt>0</asrwt>
<pdfrwt beam="1">  1        1 0.95042248E-01 0.67018104E+03</pdfrwt>
<pdfrwt beam="2">  1       -1 0.15549892E+00 0.67018104E+03</pdfrwt>
<totfact> 0.10810575E+01</totfact>
</mgrwt>
</event>
<event>
 4    2  0.3179755E-007  0.6999089E+03  0.7818608E-02  0.9997579E-01
          1   -1    0    0  501    0  0.00000000000E+00  0.00000000000E+00  0.38087556673E+03  0.38087556677E+03  0.50400000000E-02 0. -1.
         -1   -1    0    0    0  501 -0.00000000000E+00 -0.00000000000E+00 -0.23328932681E+04  0.23328932681E+04  0.50400000000E-02 0.  1.
    8880023    1    1    2    0    0  0.23287518039E+03 -0.42794993028E+02  0.40816898668E+02  0.70109805773E+03  0.65864270000E+03 0. -1.
    8880022    1    1    2    0    0 -0.23287518039E+03  0.42794993028E+02 -0.19928346000E+04  0.20126707771E+04  0.15294330000E+03 0.  0.
<mgrwt>
<rscale>  0 0.55756506E+03</rscale>
<asrwt>0</asrwt>
<pdfrwt beam="1">  1        1 0.58596242E-01 0.69990890E+03</pdfrwt>
<pdfrwt beam="2">  1       -1 0.35890665E+00 0.69990890E+03</pdfrwt>
<totfact> 0.93245620E-01</totfact>
</mgrwt>
</event>
<event>
 4    2  0.3179755E-007  0.6871477E+03  0.7818608E-02  0.1005539E+00
         -1   -1    0    0    0  501 -0.00000000000E+00  0.00000000000E+00  0.29284073676E+03  0.29284073680E+03  0.50400000000E-02 0.  1.
          1   -1    0    0  501    0  0.00000000000E+00 -0.00000000000E+00 -0.89487972068E+03  0.89487972069E+03  0.50400000000E-02 0. -1.
    8880023    1    1    2    0    0 -0.17169444338E+03 -0.94248347205E+02 -0.63673846743E+03  0.93680724539E+03  0.65864270000E+03 0. -1.
    8880022    1    1    2    0    0  0.17169444338E+03  0.94248347205E+02  0.34699483514E+02  0.25091321210E+03  0.15294330000E+03 0.  0.
<mgrwt>
<rscale>  0 0.53286864E+03</rscale>
<asrwt>0</asrwt>
<pdfrwt beam="1">  1        1 0.13767380E+00 0.68714768E+03</pdfrwt>
<pdfrwt beam="2">  1       -1 0.45052421E-01 0.68714768E+03</pdfrwt>
<totfact> 0.92017367E+01</totfact>
</mgrwt>
</event>
<event>
 4    2  0.3179755E-007  0.6695810E+03  0.7818608E-02  0.1015965E+00
          1   -1    0    0  501    0  0.00000000000E+00  0.00000000000E+00  0.27524705762E+04  0.27524705762E+04  0.50400000000E-02 0. -1.
         -1   -1    0    0    0  501 -0.00000000000E+00 -0.00000000000E+00 -0.29728670111E+03  0.29728670115E+03  0.50400000000E-02 0.  1.
    8880023    1    1    2    0    0 -0.27635087287E+02  0.11732381238E+03  0.26741637360E+04  0.27567173356E+04  0.65864270000E+03 0. -1.
    8880022    1    1    2    0    0  0.27635087287E+02 -0.11732381238E+03 -0.21897986089E+03  0.29303994180E+03  0.15294330000E+03 0.  0.
<mgrwt>
<rscale>  0 0.49171248E+03</rscale>
<asrwt>0</asrwt>
<pdfrwt beam="1">  1        1 0.42345701E+00 0.66958105E+03</pdfrwt>
<pdfrwt beam="2">  1       -1 0.45736415E-01 0.66958105E+03</pdfrwt>
<totfact> 0.46264457E+00</totfact>
</mgrwt>
</event>
<event>
 4    2  0.3179755E-007  0.9598884E+03  0.7818608E-02  0.9436027E-01
          1   -1    0    0  501    0  0.00000000000E+00  0.00000000000E+00  0.16052277196E+04  0.16052277196E+04  0.50400000000E-02 0. -1.
         -1   -1    0    0    0  501 -0.00000000000E+00 -0.00000000000E+00 -0.11770392568E+04  0.11770392568E+04  0.50400000000E-02 0.  1.
    8880023    1    1    2    0    0  0.28682945031E+03  0.63663514556E+03  0.13245422589E+04  0.16357866132E+04  0.65864270000E+03 0. -1.
    8880022    1    1    2    0    0 -0.28682945031E+03 -0.63663514556E+03 -0.89635379619E+03  0.11464803632E+04  0.15294330000E+03 0.  0.
<mgrwt>
<rscale>  0 0.89169156E+03</rscale>
<asrwt>0</asrwt>
<pdfrwt beam="1">  1        1 0.24695811E+00 0.95988835E+03</pdfrwt>
<pdfrwt beam="2">  1       -1 0.18108296E+00 0.95988835E+03</pdfrwt>
<totfact> 0.11466304E+00</totfact>
</mgrwt>
</event>
<event>
 4    2  0.3179755E-007  0.8452115E+03  0.7818608E-02  0.9620431E-01
          1   -1    0    0  501    0  0.00000000000E+00  0.00000000000E+00  0.26056652984E+04  0.26056652984E+04  0.50400000000E-02 0. -1.
         -1   -1    0    0    0  501 -0.00000000000E+00 -0.00000000000E+00 -0.32624354933E+03  0.32624354937E+03  0.50400000000E-02 0.  1.
    8880023    1    1    2    0    0  0.35342239421E+03 -0.39454396607E+03  0.33221790980E+03  0.90815817771E+03  0.65864270000E+03 0.  0.
    8880022    1    1    2    0    0 -0.35342239421E+03  0.39454396607E+03  0.19472038393E+04  0.20237506701E+04  0.15294330000E+03 0.  0.
<mgrwt>
<rscale>  0 0.75958578E+03</rscale>
<asrwt>0</asrwt>
<pdfrwt beam="1">  1        1 0.40087159E+00 0.84521153E+03</pdfrwt>
<pdfrwt beam="2">  1       -1 0.50191314E-01 0.84521153E+03</pdfrwt>
<totfact> 0.47549803E+00</totfact>
</mgrwt>
</event>
<event>
 4    2  0.3179755E-007  0.6591695E+03  0.7818608E-02  0.1025024E+00
          1   -1    0    0  501    0  0.00000000000E+00  0.00000000000E+00  0.45394695850E+03  0.45394695852E+03  0.50400000000E-02 0. -1.
         -1   -1    0    0    0  501 -0.00000000000E+00 -0.00000000000E+00 -0.36634836421E+03  0.36634836424E+03  0.50400000000E-02 0.  1.
    8880023    1    1    2    0    0 -0.22598490890E+02  0.13549243002E+02  0.53056474843E+02  0.66130134550E+03  0.65864270000E+03 0.  0.
    8880022    1    1    2    0    0  0.22598490890E+02 -0.13549243002E+02  0.34542119444E+02  0.15899397727E+03  0.15294330000E+03 0.  0.
<mgrwt>
<rscale>  0 0.45916446E+03</rscale>
<asrwt>0</asrwt>
<pdfrwt beam="1">  1        1 0.69837994E-01 0.65916954E+03</pdfrwt>
<pdfrwt beam="2">  1       -1 0.56361287E-01 0.65916954E+03</pdfrwt>
<totfact> 0.16441677E+02</totfact>
</mgrwt>
</event>
<event>
 4    2  0.3179755E-007  0.7754042E+03  0.7818608E-02  0.9766745E-01
          1   -1    0    0  501    0  0.00000000000E+00  0.00000000000E+00  0.52001721132E+03  0.52001721135E+03  0.50400000000E-02 0. -1.
         -1   -1    0    0    0  501 -0.00000000000E+00 -0.00000000000E+00 -0.93635217038E+03  0.93635217040E+03  0.50400000000E-02 0.  1.
    8880023    1    1    2    0    0 -0.23225240910E+03  0.33689806924E+03  0.97980908217E+02  0.78157018573E+03  0.65864270000E+03 0.  0.
    8880022    1    1    2    0    0  0.23225240910E+03 -0.33689806924E+03 -0.51431586728E+03  0.67479919601E+03  0.15294330000E+03 0.  0.
<mgrwt>
<rscale>  0 0.67178120E+03</rscale>
<asrwt>0</asrwt>
<pdfrwt beam="1">  1        1 0.80002648E-01 0.77540422E+03</pdfrwt>
<pdfrwt beam="2">  1       -1 0.14405418E+00 0.77540422E+03</pdfrwt>
<totfact> 0.16712981E+01</totfact>
</mgrwt>
</event>
<event>
 4    2  0.3179755E-007  0.1001063E+04  0.7818608E-02  0.9380168E-01
          1   -1    0    0  501    0  0.00000000000E+00  0.00000000000E+00  0.24424724036E+04  0.24424724036E+04  0.50400000000E-02 0. -1.
         -1   -1    0    0    0  501 -0.00000000000E+00 -0.00000000000E+00 -0.33322758351E+03  0.33322758355E+03  0.50400000000E-02 0.  1.
    8880023    1    1    2    0    0 -0.15141493921E+03  0.73850618566E+03  0.14536487892E+04  0.17649993990E+04  0.65864270000E+03 0.  0.
    8880022    1    1    2    0    0  0.15141493921E+03 -0.73850618566E+03  0.65559603093E+03  0.10107005881E+04  0.15294330000E+03 0.  0.
<mgrwt>
<rscale>  0 0.93725935E+03</rscale>
<asrwt>0</asrwt>
<pdfrwt beam="1">  1        1 0.37576499E+00 0.10010635E+04</pdfrwt>
<pdfrwt beam="2">  1       -1 0.51265782E-01 0.10010635E+04</pdfrwt>
<totfact> 0.57812708E+00</totfact>
</mgrwt>
</event>
<event>
 4    2  0.3179755E-007  0.7725455E+03  0.7818608E-02  0.9773648E-01
         -1   -1    0    0    0  501 -0.00000000000E+00  0.00000000000E+00  0.66756438252E+03  0.66756438254E+03  0.50400000000E-02 0.  1.
          1   -1    0    0  501    0  0.00000000000E+00 -0.00000000000E+00 -0.19775669355E+04  0.19775669355E+04  0.50400000000E-02 0. -1.
    8880023    1    1    2    0    0 -0.39075019945E+03  0.10163963808E+03 -0.18198481474E+04  0.19770366259E+04  0.65864270000E+03 0. -1.
    8880022    1    1    2    0    0  0.39075019945E+03 -0.10163963808E+03  0.50984559445E+03  0.66809469209E+03  0.15294330000E+03 0.  0.
<mgrwt>
<rscale>  0 0.66796101E+03</rscale>
<asrwt>0</asrwt>
<pdfrwt beam="1">  1        1 0.30424107E+00 0.77254549E+03</pdfrwt>
<pdfrwt beam="2">  1       -1 0.10270221E+00 0.77254549E+03</pdfrwt>
<totfact> 0.28987416E+00</totfact>
</mgrwt>
</event>
<event>
 4    2  0.3179755E-007  0.1455454E+04  0.7818608E-02  0.8941749E-01
         -1   -1    0    0    0  501 -0.00000000000E+00  0.00000000000E+00  0.82074689816E+03  0.82074689818E+03  0.50400000000E-02 0.  1.
          1   -1    0    0  501    0  0.00000000000E+00 -0.00000000000E+00 -0.23315697391E+04  0.23315697391E+04  0.50400000000E-02 0. -1.
    8880023    1    1    2    0    0 -0.12369666448E+04 -0.39300185739E+03 -0.70771584542E+03  0.16183970046E+04  0.65864270000E+03 0.  0.
    8880022    1    1    2    0    0  0.12369666448E+04  0.39300185739E+03 -0.80310699548E+03  0.15339196327E+04  0.15294330000E+03 0.  0.
<mgrwt>
<rscale>  0 0.14167970E+04</rscale>
<asrwt>0</asrwt>
<pdfrwt beam="1">  1        1 0.35870304E+00 0.14554543E+04</pdfrwt>
<pdfrwt beam="2">  1       -1 0.12626875E+00 0.14554543E+04</pdfrwt>
<totfact> 0.92484084E-01</totfact>
</mgrwt>
</event>
<event>
 4    2  0.3179755E-007  0.7069291E+03  0.7818608E-02  0.9969586E-01
          1   -1    0    0  501    0  0.00000000000E+00  0.00000000000E+00  0.33813613311E+03  0.33813613314E+03  0.50400000000E-02 0. -1.
         -1   -1    0    0    0  501 -0.00000000000E+00 -0.00000000000E+00 -0.82374578258E+03  0.82374578259E+03  0.50400000000E-02 0.  1.
    8880023    1    1    2    0    0 -0.10827609318E+03 -0.23284087078E+03 -0.16974095155E+03  0.72702185686E+03  0.65864270000E+03 0.  0.
    8880022    1    1    2    0    0  0.10827609318E+03  0.23284087078E+03 -0.31586869793E+03  0.43486005887E+03  0.15294330000E+03 0.  0.
<mgrwt>
<rscale>  0 0.57004182E+03</rscale>
<asrwt>0</asrwt>
<pdfrwt beam="1">  1        1 0.52020944E-01 0.70692913E+03</pdfrwt>
<pdfrwt beam="2">  1       -1 0.12673012E+00 0.70692913E+03</pdfrwt>
<totfact> 0.41544487E+01</totfact>
</mgrwt>
</event>
<event>
 4    2  0.3179755E-007  0.6928905E+03  0.7818608E-02  0.1002808E+00
          1   -1    0    0  501    0  0.00000000000E+00  0.00000000000E+00  0.60935394637E+03  0.60935394639E+03  0.50400000000E-02 0. -1.
         -1   -1    0    0    0  501 -0.00000000000E+00 -0.00000000000E+00 -0.64769109189E+03  0.64769109191E+03  0.50400000000E-02 0.  1.
    8880023    1    1    2    0    0 -0.17858308653E+03  0.11997955851E+03  0.35872672607E+03  0.78024488689E+03  0.65864270000E+03 0. -1.
    8880022    1    1    2    0    0  0.17858308653E+03 -0.11997955851E+03 -0.39706387159E+03  0.47680015142E+03  0.15294330000E+03 0.  0.
<mgrwt>
<rscale>  0 0.54435965E+03</rscale>
<asrwt>0</asrwt>
<pdfrwt beam="1">  1        1 0.93746761E-01 0.69289048E+03</pdfrwt>
<pdfrwt beam="2">  1       -1 0.99644783E-01 0.69289048E+03</pdfrwt>
<totfact> 0.33140983E+01</totfact>
</mgrwt>
</event>
<event>
 4    2  0.3179755E-007  0.7935890E+03  0.7818608E-02  0.9724833E-01
          1   -1    0    0  501    0  0.00000000000E+00  0.00000000000E+00  0.15187884239E+04  0.15187884239E+04  0.50400000000E-02 0. -1.
         -1   -1    0    0    0  501 -0.00000000000E+00 -0.00000000000E+00 -0.35493490628E+03  0.35493490632E+03  0.50400000000E-02 0.  1.
    8880023    1    1    2    0    0  0.52037739090E+02  0.43961958389E+03  0.11598285924E+04  0.14053419068E+04  0.65864270000E+03 0. -1.
    8880022    1    1    2    0    0 -0.52037739090E+02 -0.43961958389E+03  0.40249252128E+01  0.46838142349E+03  0.15294330000E+03 0.  0.
<mgrwt>
<rscale>  0 0.69557288E+03</rscale>
<asrwt>0</asrwt>
<pdfrwt beam="1">  1        1 0.23365976E+00 0.79358901E+03</pdfrwt>
<pdfrwt beam="2">  1       -1 0.54605370E-01 0.79358901E+03</pdfrwt>
<totfact> 0.22122147E+01</totfact>
</mgrwt>
</event>
<event>
 4    2  0.3179755E-007  0.9148529E+03  0.7818608E-02  0.9502597E-01
         -1   -1    0    0    0  501 -0.00000000000E+00  0.00000000000E+00  0.17685574380E+04  0.17685574381E+04  0.50400000000E-02 0.  1.
          1   -1    0    0  501    0  0.00000000000E+00 -0.00000000000E+00 -0.65365972699E+03  0.65365972701E+03  0.50400000000E-02 0. -1.
    8880023    1    1    2    0    0  0.42179213889E+03  0.47459140657E+03 -0.21573764098E+03  0.93994603442E+03  0.65864270000E+03 0. -1.
    8880022    1    1    2    0    0 -0.42179213889E+03 -0.47459140657E+03  0.13306353520E+04  0.14822711306E+04  0.15294330000E+03 0.  0.
<mgrwt>
<rscale>  0 0.84092657E+03</rscale>
<asrwt>0</asrwt>
<pdfrwt beam="1">  1        1 0.10056304E+00 0.91485289E+03</pdfrwt>
<pdfrwt beam="2">  1       -1 0.27208575E+00 0.91485289E+03</pdfrwt>
<totfact> 0.15467521E+00</totfact>
</mgrwt>
</event>
<event>
 4    2  0.3179755E-007  0.7481498E+03  0.7818608E-02  0.9836813E-01
         -1   -1    0    0    0  501 -0.00000000000E+00  0.00000000000E+00  0.10203717131E+04  0.10203717131E+04  0.50400000000E-02 0.  1.
          1   -1    0    0  501    0  0.00000000000E+00 -0.00000000000E+00 -0.80988371725E+03  0.80988371727E+03  0.50400000000E-02 0. -1.
    8880023    1    1    2    0    0  0.35193294353E+03  0.45400214284E+02 -0.58247287956E+03  0.94815760182E+03  0.65864270000E+03 0. -1.
    8880022    1    1    2    0    0 -0.35193294353E+03 -0.45400214284E+02  0.79296087537E+03  0.88209782852E+03  0.15294330000E+03 0.  0.
<mgrwt>
<rscale>  0 0.63423823E+03</rscale>
<asrwt>0</asrwt>
<pdfrwt beam="1">  1        1 0.12459750E+00 0.74814984E+03</pdfrwt>
<pdfrwt beam="2">  1       -1 0.15698026E+00 0.74814984E+03</pdfrwt>
<totfact> 0.69048922E+00</totfact>
</mgrwt>
</event>
<event>
 4    2  0.3179755E-007  0.1533873E+04  0.7818608E-02  0.8886080E-01
         -1   -1    0    0    0  501 -0.00000000000E+00  0.00000000000E+00  0.32741338106E+04  0.32741338106E+04  0.50400000000E-02 0.  1.
          1   -1    0    0  501    0  0.00000000000E+00 -0.00000000000E+00 -0.10223647702E+04  0.10223647702E+04  0.50400000000E-02 0. -1.
    8880023    1    1    2    0    0 -0.97754582313E+03  0.98150895511E+03  0.24482206603E+04  0.28890396800E+04  0.65864270000E+03 0.  0.
    8880022    1    1    2    0    0  0.97754582313E+03 -0.98150895511E+03 -0.19645161985E+03  0.14074589007E+04  0.15294330000E+03 0.  0.
<mgrwt>
<rscale>  0 0.14975553E+04</rscale>
<asrwt>0</asrwt>
<pdfrwt beam="1">  1        1 0.15728689E+00 0.15338728E+04</pdfrwt>
<pdfrwt beam="2">  1       -1 0.50371289E+00 0.15338728E+04</pdfrwt>
<totfact> 0.19253853E-02</totfact>
</mgrwt>
</event>
<event>
 4    2  0.3179755E-007  0.7501400E+03  0.7818608E-02  0.9831337E-01
         -1   -1    0    0    0  501 -0.00000000000E+00  0.00000000000E+00  0.32061909435E+03  0.32061909439E+03  0.50400000000E-02 0.  1.
          1   -1    0    0  501    0  0.00000000000E+00 -0.00000000000E+00 -0.11491839296E+04  0.11491839296E+04  0.50400000000E-02 0. -1.
    8880023    1    1    2    0    0  0.24389194713E+03 -0.26347016265E+03 -0.77034239636E+03  0.10752383096E+04  0.65864270000E+03 0. -1.
    8880022    1    1    2    0    0 -0.24389194713E+03  0.26347016265E+03 -0.58222438906E+02  0.39456471445E+03  0.15294330000E+03 0.  1.
<mgrwt>
<rscale>  0 0.63707591E+03</rscale>
<asrwt>0</asrwt>
<pdfrwt beam="1">  1        1 0.17679753E+00 0.75014000E+03</pdfrwt>
<pdfrwt beam="2">  1       -1 0.49326015E-01 0.75014000E+03</pdfrwt>
<totfact> 0.49190688E+01</totfact>
</mgrwt>
</event>
<event>
 4    2  0.3179755E-007  0.6712515E+03  0.7818608E-02  0.1014781E+00
         -1   -1    0    0    0  501 -0.00000000000E+00  0.00000000000E+00  0.45116219597E+03  0.45116219600E+03  0.50400000000E-02 0.  1.
          1   -1    0    0  501    0  0.00000000000E+00 -0.00000000000E+00 -0.59822251310E+03  0.59822251312E+03  0.50400000000E-02 0. -1.
    8880023    1    1    2    0    0 -0.63739252396E+00  0.12949109725E+03 -0.35605288358E+03  0.75983696456E+03  0.65864270000E+03 0. -1.
    8880022    1    1    2    0    0  0.63739252396E+00 -0.12949109725E+03  0.20899256645E+03  0.28954774457E+03  0.15294330000E+03 0.  1.
<mgrwt>
<rscale>  0 0.49617875E+03</rscale>
<asrwt>0</asrwt>
<pdfrwt beam="1">  1        1 0.92034233E-01 0.67125149E+03</pdfrwt>
<pdfrwt beam="2">  1       -1 0.69409569E-01 0.67125149E+03</pdfrwt>
<totfact> 0.74117466E+01</totfact>
</mgrwt>
</event>
<event>
 4    2  0.3179755E-007  0.7837989E+03  0.7818608E-02  0.9746988E-01
         -1   -1    0    0    0  501 -0.00000000000E+00  0.00000000000E+00  0.15741062330E+04  0.15741062330E+04  0.50400000000E-02 0.  1.
          1   -1    0    0  501    0  0.00000000000E+00 -0.00000000000E+00 -0.33822831070E+03  0.33822831074E+03  0.50400000000E-02 0. -1.
    8880023    1    1    2    0    0 -0.98741717768E+02  0.41325615314E+03  0.12326543638E+04  0.14607455499E+04  0.65864270000E+03 0.  1.
    8880022    1    1    2    0    0  0.98741717768E+02 -0.41325615314E+03  0.32235585051E+01  0.45158899376E+03  0.15294330000E+03 0.  0.
<mgrwt>
<rscale>  0 0.68286771E+03</rscale>
<asrwt>0</asrwt>
<pdfrwt beam="1">  1        1 0.52035124E-01 0.78379894E+03</pdfrwt>
<pdfrwt beam="2">  1       -1 0.24217019E+00 0.78379894E+03</pdfrwt>
<totfact> 0.60714718E+00</totfact>
</mgrwt>
</event>
<event>
 4    2  0.3179755E-007  0.9575205E+03  0.7818608E-02  0.9439375E-01
         -1   -1    0    0    0  501 -0.00000000000E+00  0.00000000000E+00  0.63852502649E+03  0.63852502651E+03  0.50400000000E-02 0.  1.
          1   -1    0    0  501    0  0.00000000000E+00 -0.00000000000E+00 -0.21390991605E+04  0.21390991605E+04  0.50400000000E-02 0. -1.
    8880023    1    1    2    0    0 -0.12150677475E+02 -0.69490113839E+03 -0.17734750233E+04  0.20154550592E+04  0.65864270000E+03 0.  0.
    8880022    1    1    2    0    0  0.12150677475E+02  0.69490113839E+03  0.27290088925E+03  0.76216912786E+03  0.15294330000E+03 0.  0.
<mgrwt>
<rscale>  0 0.88904889E+03</rscale>
<asrwt>0</asrwt>
<pdfrwt beam="1">  1        1 0.32909218E+00 0.95752046E+03</pdfrwt>
<pdfrwt beam="2">  1       -1 0.98234620E-01 0.95752046E+03</pdfrwt>
<totfact> 0.24255575E+00</totfact>
</mgrwt>
</event>
<event>
 4    2  0.3179755E-007  0.7015728E+03  0.7818608E-02  0.9990738E-01
         -1   -1    0    0    0  501 -0.00000000000E+00  0.00000000000E+00  0.85025344243E+03  0.85025344245E+03  0.50400000000E-02 0.  1.
          1   -1    0    0  501    0  0.00000000000E+00 -0.00000000000E+00 -0.62788257784E+03  0.62788257786E+03  0.50400000000E-02 0. -1.
    8880023    1    1    2    0    0 -0.21454636224E+03  0.11119344361E+03 -0.38970717438E+03  0.80254346392E+03  0.65864270000E+03 0. -1.
    8880022    1    1    2    0    0  0.21454636224E+03 -0.11119344361E+03  0.61207803897E+03  0.67559255639E+03  0.15294330000E+03 0.  0.
<mgrwt>
<rscale>  0 0.56058214E+03</rscale>
<asrwt>0</asrwt>
<pdfrwt beam="1">  1        1 0.96597320E-01 0.70157275E+03</pdfrwt>
<pdfrwt beam="2">  1       -1 0.13080822E+00 0.70157275E+03</pdfrwt>
<totfact> 0.16539225E+01</totfact>
</mgrwt>
</event>
<event>
 4    2  0.3179755E-007  0.1386262E+04  0.7818608E-02  0.8994432E-01
          1   -1    0    0  501    0  0.00000000000E+00  0.00000000000E+00  0.13044921898E+04  0.13044921898E+04  0.50400000000E-02 0. -1.
         -1   -1    0    0    0  501 -0.00000000000E+00 -0.00000000000E+00 -0.13942895665E+04  0.13942895665E+04  0.50400000000E-02 0.  1.
    8880023    1    1    2    0    0 -0.51322104812E+03  0.11065782765E+04 -0.37642326616E+03  0.14364595392E+04  0.65864270000E+03 0.  0.
    8880022    1    1    2    0    0  0.51322104812E+03 -0.11065782765E+04  0.28662588954E+03  0.12623222171E+04  0.15294330000E+03 0.  0.
<mgrwt>
<rscale>  0 0.13452496E+04</rscale>
<asrwt>0</asrwt>
<pdfrwt beam="1">  1        1 0.20069111E+00 0.13862617E+04</pdfrwt>
<pdfrwt beam="2">  1       -1 0.21450609E+00 0.13862617E+04</pdfrwt>
<totfact> 0.10325834E+00</totfact>
</mgrwt>
</event>
<event>
 4    2  0.3179755E-007  0.6802562E+03  0.7818608E-02  0.1009179E+00
          1   -1    0    0  501    0  0.00000000000E+00  0.00000000000E+00  0.28921529367E+03  0.28921529372E+03  0.50400000000E-02 0. -1.
         -1   -1    0    0    0  501 -0.00000000000E+00 -0.00000000000E+00 -0.95235273341E+03  0.95235273342E+03  0.50400000000E-02 0.  1.
    8880023    1    1    2    0    0 -0.91525025244E+02  0.14339246645E+03 -0.17487535500E+03  0.70237441990E+03  0.65864270000E+03 0. -1.
    8880022    1    1    2    0    0  0.91525025244E+02 -0.14339246645E+03 -0.48826208474E+03  0.53919360724E+03  0.15294330000E+03 0.  0.
<mgrwt>
<rscale>  0 0.51802185E+03</rscale>
<asrwt>0</asrwt>
<pdfrwt beam="1">  1        1 0.44494661E-01 0.68025615E+03</pdfrwt>
<pdfrwt beam="2">  1       -1 0.14651580E+00 0.68025615E+03</pdfrwt>
<totfact> 0.35152729E+01</totfact>
</mgrwt>
</event>
<event>
 4    2  0.3179755E-007  0.9674809E+03  0.7818608E-02  0.9425397E-01
          1   -1    0    0  501    0  0.00000000000E+00  0.00000000000E+00  0.30836381408E+04  0.30836381408E+04  0.50400000000E-02 0. -1.
         -1   -1    0    0    0  501 -0.00000000000E+00 -0.00000000000E+00 -0.27453335625E+03  0.27453335629E+03  0.50400000000E-02 0.  1.
    8880023    1    1    2    0    0 -0.70749367010E+03  0.40765304893E+02  0.22281669617E+04  0.24291453885E+04  0.65864270000E+03 0.  0.
    8880022    1    1    2    0    0  0.70749367010E+03 -0.40765304893E+02  0.58093782290E+03  0.92902610857E+03  0.15294330000E+03 0.  0.
<mgrwt>
<rscale>  0 0.90014775E+03</rscale>
<asrwt>0</asrwt>
<pdfrwt beam="1">  1        1 0.47440588E+00 0.96748091E+03</pdfrwt>
<pdfrwt beam="2">  1       -1 0.42235900E-01 0.96748091E+03</pdfrwt>
<totfact> 0.29566290E+00</totfact>
</mgrwt>
</event>
<event>
 4    2  0.3179755E-007  0.7771297E+03  0.7818608E-02  0.9762623E-01
          1   -1    0    0  501    0  0.00000000000E+00  0.00000000000E+00  0.11148606620E+04  0.11148606620E+04  0.50400000000E-02 0. -1.
         -1   -1    0    0    0  501 -0.00000000000E+00 -0.00000000000E+00 -0.11365107582E+04  0.11365107582E+04  0.50400000000E-02 0.  1.
    8880023    1    1    2    0    0 -0.27784791988E+03 -0.30482925133E+03  0.92463150163E+03  0.12078385484E+04  0.65864270000E+03 0. -1.
    8880022    1    1    2    0    0  0.27784791988E+03  0.30482925133E+03 -0.94628159783E+03  0.10435328718E+04  0.15294330000E+03 0.  0.
<mgrwt>
<rscale>  0 0.67407560E+03</rscale>
<asrwt>0</asrwt>
<pdfrwt beam="1">  1        1 0.17151703E+00 0.77712968E+03</pdfrwt>
<pdfrwt beam="2">  1       -1 0.17484781E+00 0.77712968E+03</pdfrwt>
<totfact> 0.29041720E+00</totfact>
</mgrwt>
</event>
<event>
 4    2  0.3179755E-007  0.8153498E+03  0.7818608E-02  0.9678539E-01
         -1   -1    0    0    0  501 -0.00000000000E+00  0.00000000000E+00  0.15528907985E+04  0.15528907985E+04  0.50400000000E-02 0.  1.
          1   -1    0    0  501    0  0.00000000000E+00 -0.00000000000E+00 -0.42520570463E+03  0.42520570466E+03  0.50400000000E-02 0. -1.
    8880023    1    1    2    0    0  0.40306969810E+03  0.26176316211E+03  0.84916089665E+02  0.81975977159E+03  0.65864270000E+03 0. -1.
    8880022    1    1    2    0    0 -0.40306969810E+03 -0.26176316211E+03  0.10427690042E+04  0.11583367316E+04  0.15294330000E+03 0.  0.
<mgrwt>
<rscale>  0 0.72309053E+03</rscale>
<asrwt>0</asrwt>
<pdfrwt beam="1">  1        1 0.65416262E-01 0.81534983E+03</pdfrwt>
<pdfrwt beam="2">  1       -1 0.23890628E+00 0.81534983E+03</pdfrwt>
<totfact> 0.46923057E+00</totfact>
</mgrwt>
</event>
<event>
 4    2  0.3179755E-007  0.7709573E+03  0.7818608E-02  0.9777524E-01
          1   -1    0    0  501    0  0.00000000000E+00  0.00000000000E+00  0.37436441417E+04  0.37436441417E+04  0.50400000000E-02 0. -1.
         -1   -1    0    0    0  501 -0.00000000000E+00 -0.00000000000E+00 -0.12812440517E+03  0.12812440526E+03  0.50400000000E-02 0.  1.
    8880023    1    1    2    0    0  0.39869020224E+03 -0.40137283475E+02  0.31317410652E+04  0.32252406398E+04  0.65864270000E+03 0. -1.
    8880022    1    1    2    0    0 -0.39869020224E+03  0.40137283475E+02  0.48377867131E+03  0.64652790714E+03  0.15294330000E+03 0.  0.
<mgrwt>
<rscale>  0 0.66582811E+03</rscale>
<asrwt>0</asrwt>
<pdfrwt beam="1">  1        1 0.57594520E+00 0.77095725E+03</pdfrwt>
<pdfrwt beam="2">  1       -1 0.19711449E-01 0.77095725E+03</pdfrwt>
<totfact> 0.36046448E+00</totfact>
</mgrwt>
</event>
<event>
 4    2  0.3560201E-007  0.7234093E+03  0.7818608E-02  0.9911215E-01
         -1   -1    0    0    0  501 -0.00000000000E+00  0.00000000000E+00  0.72834012968E+03  0.72834012970E+03  0.50400000000E-02 0.  1.
          1   -1    0    0  501    0  0.00000000000E+00 -0.00000000000E+00 -0.23506588919E+04  0.23506588919E+04  0.50400000000E-02 0. -1.
    8880023    1    1    2    0    0  0.27094756775E+03 -0.12687861428E+03 -0.22519659452E+04  0.23653058136E+04  0.65864270000E+03 0.  0.
    8880022    1    1    2    0    0 -0.27094756775E+03  0.12687861428E+03  0.62964718293E+03  0.71369320805E+03  0.15294330000E+03 0.  1.
<mgrwt>
<rscale>  0 0.59720847E+03</rscale>
<asrwt>0</asrwt>
<pdfrwt beam="1">  1        1 0.36163983E+00 0.72340927E+03</pdfrwt>
<pdfrwt beam="2">  1       -1 0.11205233E+00 0.72340927E+03</pdfrwt>
<totfact> 0.13416256E+00</totfact>
</mgrwt>
</event>
<event>
 4    2  0.7487300E-007  0.8588990E+03  0.7818608E-02  0.9595525E-01
         -1   -1    0    0    0  501 -0.00000000000E+00  0.00000000000E+00  0.17536847893E+04  0.17536847893E+04  0.50400000000E-02 0.  1.
          1   -1    0    0  501    0  0.00000000000E+00 -0.00000000000E+00 -0.13155090464E+04  0.13155090464E+04  0.50400000000E-02 0. -1.
    8880023    1    1    2    0    0 -0.43756058202E+03  0.33531775922E+03 -0.11187839741E+04  0.14104556177E+04  0.65864270000E+03 0.  0.
    8880022    1    1    2    0    0  0.43756058202E+03 -0.33531775922E+03  0.15569597170E+04  0.16587382180E+04  0.15294330000E+03 0.  0.
<mgrwt>
<rscale>  0 0.77593078E+03</rscale>
<asrwt>0</asrwt>
<pdfrwt beam="1">  1        1 0.20238601E+00 0.85889899E+03</pdfrwt>
<pdfrwt beam="2">  1       -1 0.26979766E+00 0.85889899E+03</pdfrwt>
<totfact> 0.47422982E-01</totfact>
</mgrwt>
</event>
<event>
 4    2  0.3179755E-007  0.6594175E+03  0.7818608E-02  0.1024761E+00
          1   -1    0    0  501    0  0.00000000000E+00  0.00000000000E+00  0.13439377144E+04  0.13439377144E+04  0.50400000000E-02 0. -1.
         -1   -1    0    0    0  501 -0.00000000000E+00 -0.00000000000E+00 -0.18306234451E+03  0.18306234458E+03  0.50400000000E-02 0.  1.
    8880023    1    1    2    0    0  0.11494706473E+02  0.29818364598E+02  0.11970141646E+04  0.13666288376E+04  0.65864270000E+03 0. -1.
    8880022    1    1    2    0    0 -0.11494706473E+02 -0.29818364598E+02 -0.36138794761E+02  0.16037122138E+03  0.15294330000E+03 0.  0.
<mgrwt>
<rscale>  0 0.46006884E+03</rscale>
<asrwt>0</asrwt>
<pdfrwt beam="1">  1        1 0.20675964E+00 0.65941752E+03</pdfrwt>
<pdfrwt beam="2">  1       -1 0.28163438E-01 0.65941752E+03</pdfrwt>
<totfact> 0.98799191E+01</totfact>
</mgrwt>
</event>
<event>
 4    2  0.3179755E-007  0.7200859E+03  0.7818608E-02  0.9922296E-01
         -1   -1    0    0    0  501 -0.00000000000E+00  0.00000000000E+00  0.21273613182E+04  0.21273613182E+04  0.50400000000E-02 0.  1.
          1   -1    0    0  501    0  0.00000000000E+00 -0.00000000000E+00 -0.13045693250E+03  0.13045693260E+03  0.50400000000E-02 0. -1.
    8880023    1    1    2    0    0  0.25893572848E+03  0.13291254279E+03  0.12682623584E+04  0.14584282881E+04  0.65864270000E+03 0. -1.
    8880022    1    1    2    0    0 -0.25893572848E+03 -0.13291254279E+03  0.72864202728E+03  0.79938996269E+03  0.15294330000E+03 0. -1.
<mgrwt>
<rscale>  0 0.59192815E+03</rscale>
<asrwt>0</asrwt>
<pdfrwt beam="1">  1        1 0.20070297E-01 0.72008587E+03</pdfrwt>
<pdfrwt beam="2">  1       -1 0.32728636E+00 0.72008587E+03</pdfrwt>
<totfact> 0.60279943E+00</totfact>
</mgrwt>
</event>
<event>
 4    2  0.3179755E-007  0.1283653E+04  0.7818608E-02  0.9079807E-01
         -1   -1    0    0    0  501 -0.00000000000E+00  0.00000000000E+00  0.15428140537E+04  0.15428140537E+04  0.50400000000E-02 0.  1.
          1   -1    0    0  501    0  0.00000000000E+00 -0.00000000000E+00 -0.13364726291E+04  0.13364726291E+04  0.50400000000E-02 0. -1.
    8880023    1    1    2    0    0 -0.79056328496E+03  0.76743962170E+03 -0.68397272615E+03  0.14545043062E+04  0.65864270000E+03 0. -1.
    8880022    1    1    2    0    0  0.79056328496E+03 -0.76743962170E+03  0.89031415077E+03  0.14247823766E+04  0.15294330000E+03 0.  0.
<mgrwt>
<rscale>  0 0.12385029E+04</rscale>
<asrwt>0</asrwt>
<pdfrwt beam="1">  1        1 0.20561118E+00 0.12836526E+04</pdfrwt>
<pdfrwt beam="2">  1       -1 0.23735601E+00 0.12836526E+04</pdfrwt>
<totfact> 0.69766933E-01</totfact>
</mgrwt>
</event>
<event>
 4    2  0.3179755E-007  0.8123063E+03  0.7818608E-02  0.9684793E-01
          1   -1    0    0  501    0  0.00000000000E+00  0.00000000000E+00  0.78401554091E+03  0.78401554092E+03  0.50400000000E-02 0. -1.
         -1   -1    0    0    0  501 -0.00000000000E+00 -0.00000000000E+00 -0.77068281343E+03  0.77068281344E+03  0.50400000000E-02 0.  1.
    8880023    1    1    2    0    0  0.47300386160E+03  0.47945143778E+02 -0.40089550360E+03  0.90584700749E+03  0.65864270000E+03 0.  1.
    8880022    1    1    2    0    0 -0.47300386160E+03 -0.47945143778E+02  0.41422823108E+03  0.64885134688E+03  0.15294330000E+03 0.  0.
<mgrwt>
<rscale>  0 0.71929486E+03</rscale>
<asrwt>0</asrwt>
<pdfrwt beam="1">  1        1 0.12061778E+00 0.81230634E+03</pdfrwt>
<pdfrwt beam="2">  1       -1 0.11856659E+00 0.81230634E+03</pdfrwt>
<totfact> 0.14870836E+01</totfact>
</mgrwt>
</event>
<event>
 4    2  0.3179755E-007  0.1404601E+04  0.7818608E-02  0.8980116E-01
          1   -1    0    0  501    0  0.00000000000E+00  0.00000000000E+00  0.16340334747E+04  0.16340334747E+04  0.50400000000E-02 0. -1.
         -1   -1    0    0    0  501 -0.00000000000E+00 -0.00000000000E+00 -0.12993812296E+04  0.12993812296E+04  0.50400000000E-02 0.  1.
    8880023    1    1    2    0    0 -0.30629841792E+03 -0.12021962371E+04  0.77977045041E+03  0.16065325004E+04  0.65864270000E+03 0. -1.
    8880022    1    1    2    0    0  0.30629841792E+03  0.12021962371E+04 -0.44511820530E+03  0.13268822039E+04  0.15294330000E+03 0.  0.
<mgrwt>
<rscale>  0 0.13642433E+04</rscale>
<asrwt>0</asrwt>
<pdfrwt beam="1">  1        1 0.25138976E+00 0.14046013E+04</pdfrwt>
<pdfrwt beam="2">  1       -1 0.19990481E+00 0.14046013E+04</pdfrwt>
<totfact> 0.76241794E-01</totfact>
</mgrwt>
</event>
<event>
 4    2  0.3179755E-007  0.8282302E+03  0.7818608E-02  0.9652786E-01
         -1   -1    0    0    0  501 -0.00000000000E+00  0.00000000000E+00  0.24555019835E+03  0.24555019840E+03  0.50400000000E-02 0.  1.
          1   -1    0    0  501    0  0.00000000000E+00 -0.00000000000E+00 -0.18717876159E+04  0.18717876159E+04  0.50400000000E-02 0. -1.
    8880023    1    1    2    0    0 -0.20215124805E+03  0.45966279331E+03 -0.10602847385E+04  0.13454251907E+04  0.65864270000E+03 0.  0.
    8880022    1    1    2    0    0  0.20215124805E+03 -0.45966279331E+03 -0.56595267899E+03  0.77191262362E+03  0.15294330000E+03 0.  0.
<mgrwt>
<rscale>  0 0.73898850E+03</rscale>
<asrwt>0</asrwt>
<pdfrwt beam="1">  1        1 0.28796732E+00 0.82823017E+03</pdfrwt>
<pdfrwt beam="2">  1       -1 0.37776955E-01 0.82823017E+03</pdfrwt>
<totfact> 0.25285700E+01</totfact>
</mgrwt>
</event>
<event>
 4    2  0.3179755E-007  0.9952598E+03  0.7818608E-02  0.9387786E-01
          1   -1    0    0  501    0  0.00000000000E+00  0.00000000000E+00  0.20035452349E+04  0.20035452349E+04  0.50400000000E-02 0. -1.
         -1   -1    0    0    0  501 -0.00000000000E+00 -0.00000000000E+00 -0.52428993547E+03  0.52428993549E+03  0.50400000000E-02 0.  1.
    8880023    1    1    2    0    0 -0.73580803454E+03  0.12376763257E+03  0.14587187904E+04  0.17658999423E+04  0.65864270000E+03 0.  0.
    8880022    1    1    2    0    0  0.73580803454E+03 -0.12376763257E+03  0.20536509039E+02  0.76193522808E+03  0.15294330000E+03 0.  0.
<mgrwt>
<rscale>  0 0.93087724E+03</rscale>
<asrwt>0</asrwt>
<pdfrwt beam="1">  1        1 0.30823773E+00 0.99525981E+03</pdfrwt>
<pdfrwt beam="2">  1       -1 0.80659990E-01 0.99525981E+03</pdfrwt>
<totfact> 0.45970734E+00</totfact>
</mgrwt>
</event>
<event>
 4    2  0.3179755E-007  0.1149731E+04  0.7818608E-02  0.9207608E-01
          1   -1    0    0  501    0  0.00000000000E+00  0.00000000000E+00  0.16787796426E+04  0.16787796426E+04  0.50400000000E-02 0. -1.
         -1   -1    0    0    0  501 -0.00000000000E+00 -0.00000000000E+00 -0.11544001198E+04  0.11544001198E+04  0.50400000000E-02 0.  1.
    8880023    1    1    2    0    0 -0.79412779113E+03 -0.50737701300E+03 -0.64916958348E+03  0.13203415226E+04  0.65864270000E+03 0.  0.
    8880022    1    1    2    0    0  0.79412779113E+03  0.50737701300E+03  0.11735491063E+04  0.15128382398E+04  0.15294330000E+03 0.  0.
<mgrwt>
<rscale>  0 0.10975250E+04</rscale>
<asrwt>0</asrwt>
<pdfrwt beam="1">  1        1 0.25827379E+00 0.11497307E+04</pdfrwt>
<pdfrwt beam="2">  1       -1 0.17760002E+00 0.11497307E+04</pdfrwt>
<totfact> 0.10531679E+00</totfact>
</mgrwt>
</event>
<event>
 4    2  0.3179755E-007  0.8591225E+03  0.7818608E-02  0.9595126E-01
          1   -1    0    0  501    0  0.00000000000E+00  0.00000000000E+00  0.10018521270E+04  0.10018521270E+04  0.50400000000E-02 0. -1.
         -1   -1    0    0    0  501 -0.00000000000E+00 -0.00000000000E+00 -0.11282201090E+04  0.11282201090E+04  0.50400000000E-02 0.  1.
    8880023    1    1    2    0    0 -0.46971924822E+03  0.28921468393E+03  0.71139093995E+03  0.11154230504E+04  0.65864270000E+03 0.  0.
    8880022    1    1    2    0    0  0.46971924822E+03 -0.28921468393E+03 -0.83775892197E+03  0.10146491856E+04  0.15294330000E+03 0.  0.
<mgrwt>
<rscale>  0 0.77619601E+03</rscale>
<asrwt>0</asrwt>
<pdfrwt beam="1">  1        1 0.15413110E+00 0.85912252E+03</pdfrwt>
<pdfrwt beam="2">  1       -1 0.17357232E+00 0.85912252E+03</pdfrwt>
<totfact> 0.35698264E+00</totfact>
</mgrwt>
</event>
<event>
 4    2  0.4275684E-007  0.9861706E+03  0.7818608E-02  0.9399879E-01
          1   -1    0    0  501    0  0.00000000000E+00  0.00000000000E+00  0.28165638232E+04  0.28165638232E+04  0.50400000000E-02 0. -1.
         -1   -1    0    0    0  501 -0.00000000000E+00 -0.00000000000E+00 -0.12537086744E+04  0.12537086744E+04  0.50400000000E-02 0.  1.
    8880023    1    1    2    0    0  0.42938595593E+03 -0.59527306654E+03  0.26055948144E+04  0.27859750297E+04  0.65864270000E+03 0. -1.
    8880022    1    1    2    0    0 -0.42938595593E+03  0.59527306654E+03 -0.10427396656E+04  0.12842974679E+04  0.15294330000E+03 0.  0.
<mgrwt>
<rscale>  0 0.92085680E+03</rscale>
<asrwt>0</asrwt>
<pdfrwt beam="1">  1        1 0.43331751E+00 0.98617064E+03</pdfrwt>
<pdfrwt beam="2">  1       -1 0.19287826E+00 0.98617064E+03</pdfrwt>
<totfact> 0.14068594E-01</totfact>
</mgrwt>
</event>
<event>
 4    2  0.3179755E-007  0.7109180E+03  0.7818608E-02  0.9954608E-01
         -1   -1    0    0    0  501 -0.00000000000E+00  0.00000000000E+00  0.38796046804E+03  0.38796046807E+03  0.50400000000E-02 0.  1.
          1   -1    0    0  501    0  0.00000000000E+00 -0.00000000000E+00 -0.79121092639E+03  0.79121092641E+03  0.50400000000E-02 0. -1.
    8880023    1    1    2    0    0  0.33659103111E+02  0.26544542535E+03 -0.48465528580E+03  0.86040406867E+03  0.65864270000E+03 0.  0.
    8880022    1    1    2    0    0 -0.33659103111E+02 -0.26544542535E+03  0.81404827448E+02  0.31876732582E+03  0.15294330000E+03 0.  0.
<mgrwt>
<rscale>  0 0.57686210E+03</rscale>
<asrwt>0</asrwt>
<pdfrwt beam="1">  1        1 0.12172476E+00 0.71091801E+03</pdfrwt>
<pdfrwt beam="2">  1       -1 0.59686226E-01 0.71091801E+03</pdfrwt>
<totfact> 0.65634555E+01</totfact>
</mgrwt>
</event>
<event>
 4    2  0.3179755E-007  0.7422758E+03  0.7818608E-02  0.9853367E-01
          1   -1    0    0  501    0  0.00000000000E+00  0.00000000000E+00  0.24801247069E+04  0.24801247069E+04  0.50400000000E-02 0. -1.
         -1   -1    0    0    0  501 -0.00000000000E+00 -0.00000000000E+00 -0.40003387508E+03  0.40003387511E+03  0.50400000000E-02 0.  1.
    8880023    1    1    2    0    0 -0.28663785759E+03 -0.18708777458E+03  0.23194702428E+04  0.24353471027E+04  0.65864270000E+03 0. -1.
    8880022    1    1    2    0    0  0.28663785759E+03  0.18708777458E+03 -0.23937941097E+03  0.44481147940E+03  0.15294330000E+03 0.  0.
<mgrwt>
<rscale>  0 0.62575546E+03</rscale>
<asrwt>0</asrwt>
<pdfrwt beam="1">  1        1 0.38155764E+00 0.74227576E+03</pdfrwt>
<pdfrwt beam="2">  1       -1 0.61543675E-01 0.74227576E+03</pdfrwt>
<totfact> 0.39745092E+00</totfact>
</mgrwt>
</event>
<event>
 4    2  0.3179755E-007  0.7203590E+03  0.7818608E-02  0.9921373E-01
          1   -1    0    0  501    0  0.00000000000E+00  0.00000000000E+00  0.36284308481E+03  0.36284308484E+03  0.50400000000E-02 0. -1.
         -1   -1    0    0    0  501 -0.00000000000E+00 -0.00000000000E+00 -0.13731510759E+04  0.13731510759E+04  0.50400000000E-02 0.  1.
    8880023    1    1    2    0    0  0.13180937043E+03 -0.26025601518E+03 -0.51515699284E+02  0.72219871026E+03  0.65864270000E+03 0. -1.
    8880022    1    1    2    0    0 -0.13180937043E+03  0.26025601518E+03 -0.95879229179E+03  0.10137954505E+04  0.15294330000E+03 0.  0.
<mgrwt>
<rscale>  0 0.59236548E+03</rscale>
<asrwt>0</asrwt>
<pdfrwt beam="1">  1        1 0.55822014E-01 0.72035901E+03</pdfrwt>
<pdfrwt beam="2">  1       -1 0.21125401E+00 0.72035901E+03</pdfrwt>
<totfact> 0.89241273E+00</totfact>
</mgrwt>
</event>
<event>
 4    2  0.3179755E-007  0.8135965E+03  0.7818608E-02  0.9682134E-01
          1   -1    0    0  501    0  0.00000000000E+00  0.00000000000E+00  0.72493663854E+03  0.72493663856E+03  0.50400000000E-02 0. -1.
         -1   -1    0    0    0  501 -0.00000000000E+00 -0.00000000000E+00 -0.60715134578E+03  0.60715134580E+03  0.50400000000E-02 0.  1.
    8880023    1    1    2    0    0 -0.47620675579E+03  0.36826184549E+02  0.15860250305E+03  0.82891133565E+03  0.65864270000E+03 0.  1.
    8880022    1    1    2    0    0  0.47620675579E+03 -0.36826184549E+02 -0.40817210287E+02  0.50317664871E+03  0.15294330000E+03 0. -1.
<mgrwt>
<rscale>  0 0.72090579E+03</rscale>
<asrwt>0</asrwt>
<pdfrwt beam="1">  1        1 0.11152871E+00 0.81359649E+03</pdfrwt>
<pdfrwt beam="2">  1       -1 0.93407900E-01 0.81359649E+03</pdfrwt>
<totfact> 0.29252386E+01</totfact>
</mgrwt>
</event>
<event>
 4    2  0.3179755E-007  0.6596947E+03  0.7818608E-02  0.1024471E+00
         -1   -1    0    0    0  501 -0.00000000000E+00  0.00000000000E+00  0.38125346626E+03  0.38125346630E+03  0.50400000000E-02 0.  1.
          1   -1    0    0  501    0  0.00000000000E+00 -0.00000000000E+00 -0.92597274798E+03  0.92597274800E+03  0.50400000000E-02 0. -1.
    8880023    1    1    2    0    0  0.12862259999E+02 -0.34949573566E+02 -0.78161535823E+03  0.10227999242E+04  0.65864270000E+03 0. -1.
    8880022    1    1    2    0    0 -0.12862259999E+02  0.34949573566E+02  0.23689607651E+03  0.28442629011E+03  0.15294330000E+03 0.  0.
<mgrwt>
<rscale>  0 0.46106990E+03</rscale>
<asrwt>0</asrwt>
<pdfrwt beam="1">  1        1 0.14245734E+00 0.65969471E+03</pdfrwt>
<pdfrwt beam="2">  1       -1 0.58654380E-01 0.65969471E+03</pdfrwt>
<totfact> 0.52721488E+01</totfact>
</mgrwt>
</event>
<event>
 4    2  0.3179755E-007  0.7939212E+03  0.7818608E-02  0.9724097E-01
          1   -1    0    0  501    0  0.00000000000E+00  0.00000000000E+00  0.13407163627E+04  0.13407163627E+04  0.50400000000E-02 0. -1.
         -1   -1    0    0    0  501 -0.00000000000E+00 -0.00000000000E+00 -0.52654363700E+03  0.52654363703E+03  0.50400000000E-02 0.  1.
    8880023    1    1    2    0    0  0.42804517723E+03  0.11523009012E+03  0.10705594254E+04  0.13328196941E+04  0.65864270000E+03 0. -1.
    8880022    1    1    2    0    0 -0.42804517723E+03 -0.11523009012E+03 -0.25638669974E+03  0.53444030559E+03  0.15294330000E+03 0.  1.
<mgrwt>
<rscale>  0 0.69600009E+03</rscale>
<asrwt>0</asrwt>
<pdfrwt beam="1">  1        1 0.20626406E+00 0.79392119E+03</pdfrwt>
<pdfrwt beam="2">  1       -1 0.81006714E-01 0.79392119E+03</pdfrwt>
<totfact> 0.13220125E+01</totfact>
</mgrwt>
</event>
<event>
 4    2  0.3179755E-007  0.9208866E+03  0.7818608E-02  0.9493301E-01
          1   -1    0    0  501    0  0.00000000000E+00  0.00000000000E+00  0.98260825840E+03  0.98260825842E+03  0.50400000000E-02 0. -1.
         -1   -1    0    0    0  501 -0.00000000000E+00 -0.00000000000E+00 -0.83846911526E+03  0.83846911527E+03  0.50400000000E-02 0.  1.
    8880023    1    1    2    0    0 -0.64328895050E+03  0.20031418555E+02  0.52270537932E+03  0.10588923701E+04  0.65864270000E+03 0. -1.
    8880022    1    1    2    0    0  0.64328895050E+03 -0.20031418555E+02 -0.37856623617E+03  0.76218500362E+03  0.15294330000E+03 0.  0.
<mgrwt>
<rscale>  0 0.84779522E+03</rscale>
<asrwt>0</asrwt>
<pdfrwt beam="1">  1        1 0.15117050E+00 0.92088660E+03</pdfrwt>
<pdfrwt beam="2">  1       -1 0.12899525E+00 0.92088660E+03</pdfrwt>
<totfact> 0.81659088E+00</totfact>
</mgrwt>
</event>
<event>
 4    2  0.3179755E-007  0.6847170E+03  0.7818608E-02  0.1006772E+00
         -1   -1    0    0    0  501 -0.00000000000E+00  0.00000000000E+00  0.13039467936E+03  0.13039467946E+03  0.50400000000E-02 0.  1.
          1   -1    0    0  501    0  0.00000000000E+00 -0.00000000000E+00 -0.22041312808E+04  0.22041312808E+04  0.50400000000E-02 0. -1.
    8880023    1    1    2    0    0 -0.40479159963E+02  0.18272532451E+03 -0.19421754837E+04  0.20593404096E+04  0.65864270000E+03 0. -1.
    8880022    1    1    2    0    0  0.40479159963E+02 -0.18272532451E+03 -0.13156111772E+03  0.27518555071E+03  0.15294330000E+03 0.  0.
<mgrwt>
<rscale>  0 0.52777930E+03</rscale>
<asrwt>0</asrwt>
<pdfrwt beam="1">  1        1 0.33909709E+00 0.68471696E+03</pdfrwt>
<pdfrwt beam="2">  1       -1 0.20060722E-01 0.68471696E+03</pdfrwt>
<totfact> 0.46065008E+01</totfact>
</mgrwt>
</event>
<event>
 4    2  0.3179755E-007  0.7796930E+03  0.7818608E-02  0.9756559E-01
          1   -1    0    0  501    0  0.00000000000E+00  0.00000000000E+00  0.34644161843E+04  0.34644161843E+04  0.50400000000E-02 0. -1.
         -1   -1    0    0    0  501 -0.00000000000E+00 -0.00000000000E+00 -0.41721666728E+03  0.41721666731E+03  0.50400000000E-02 0.  1.
    8880023    1    1    2    0    0 -0.40400837270E+03  0.10434680311E+03  0.32859237235E+04  0.33771609294E+04  0.65864270000E+03 0. -1.
    8880022    1    1    2    0    0  0.40400837270E+03 -0.10434680311E+03 -0.23872420644E+03  0.50447192220E+03  0.15294330000E+03 0.  0.
<mgrwt>
<rscale>  0 0.67746890E+03</rscale>
<asrwt>0</asrwt>
<pdfrwt beam="1">  1        1 0.53298711E+00 0.77969303E+03</pdfrwt>
<pdfrwt beam="2">  1       -1 0.64187179E-01 0.77969303E+03</pdfrwt>
<totfact> 0.71192773E-01</totfact>
</mgrwt>
</event>
<event>
 4    2  0.3179755E-007  0.7573457E+03  0.7818608E-02  0.9812028E-01
         -1   -1    0    0    0  501 -0.00000000000E+00  0.00000000000E+00  0.53914171886E+03  0.53914171888E+03  0.50400000000E-02 0.  1.
          1   -1    0    0  501    0  0.00000000000E+00 -0.00000000000E+00 -0.66806876052E+03  0.66806876054E+03  0.50400000000E-02 0. -1.
    8880023    1    1    2    0    0 -0.59320712493E+02  0.36911147428E+03 -0.22874541841E+03  0.79113646110E+03  0.65864270000E+03 0.  0.
    8880022    1    1    2    0    0  0.59320712493E+02 -0.36911147428E+03  0.99818376741E+02  0.41607401833E+03  0.15294330000E+03 0. -1.
<mgrwt>
<rscale>  0 0.64721009E+03</rscale>
<asrwt>0</asrwt>
<pdfrwt beam="1">  1        1 0.10277981E+00 0.75734565E+03</pdfrwt>
<pdfrwt beam="2">  1       -1 0.82944880E-01 0.75734565E+03</pdfrwt>
<totfact> 0.43141350E+01</totfact>
</mgrwt>
</event>
<event>
 4    2  0.3179755E-007  0.6737288E+03  0.7818608E-02  0.1013120E+00
         -1   -1    0    0    0  501 -0.00000000000E+00  0.00000000000E+00  0.13933165151E+04  0.13933165151E+04  0.50400000000E-02 0.  1.
          1   -1    0    0  501    0  0.00000000000E+00 -0.00000000000E+00 -0.68749480451E+03  0.68749480453E+03  0.50400000000E-02 0. -1.
    8880023    1    1    2    0    0 -0.48372710472E+02  0.13326826942E+03 -0.51141029975E+03  0.84584339668E+03  0.65864270000E+03 0. -1.
    8880022    1    1    2    0    0  0.48372710472E+02 -0.13326826942E+03  0.12172320103E+04  0.12349679230E+04  0.15294330000E+03 0.  0.
<mgrwt>
<rscale>  0 0.50253352E+03</rscale>
<asrwt>0</asrwt>
<pdfrwt beam="1">  1        1 0.10576843E+00 0.67372885E+03</pdfrwt>
<pdfrwt beam="2">  1       -1 0.21435639E+00 0.67372885E+03</pdfrwt>
<totfact> 0.35406232E+00</totfact>
</mgrwt>
</event>
<event>
 4    2  0.3179755E-007  0.7056546E+03  0.7818608E-02  0.9974506E-01
         -1   -1    0    0    0  501 -0.00000000000E+00  0.00000000000E+00  0.75025259861E+03  0.75025259863E+03  0.50400000000E-02 0.  1.
          1   -1    0    0  501    0  0.00000000000E+00 -0.00000000000E+00 -0.81170039973E+03  0.81170039975E+03  0.50400000000E-02 0. -1.
    8880023    1    1    2    0    0 -0.23859944127E+03  0.84902804631E+02 -0.61386727678E+03  0.93529750314E+03  0.65864270000E+03 0. -1.
    8880022    1    1    2    0    0  0.23859944127E+03 -0.84902804631E+02  0.55241947567E+03  0.62665549524E+03  0.15294330000E+03 0.  0.
<mgrwt>
<rscale>  0 0.56782386E+03</rscale>
<asrwt>0</asrwt>
<pdfrwt beam="1">  1        1 0.12487698E+00 0.70565458E+03</pdfrwt>
<pdfrwt beam="2">  1       -1 0.11542348E+00 0.70565458E+03</pdfrwt>
<totfact> 0.15205353E+01</totfact>
</mgrwt>
</event>
<event>
 4    2  0.3179755E-007  0.6873077E+03  0.7818608E-02  0.1005459E+00
         -1   -1    0    0    0  501 -0.00000000000E+00  0.00000000000E+00  0.10116446142E+04  0.10116446142E+04  0.50400000000E-02 0.  1.
          1   -1    0    0  501    0  0.00000000000E+00 -0.00000000000E+00 -0.65327723185E+03  0.65327723187E+03  0.50400000000E-02 0. -1.
    8880023    1    1    2    0    0 -0.16824128802E+03  0.10137304829E+03 -0.44838440098E+03  0.82063414700E+03  0.65864270000E+03 0. -1.
    8880022    1    1    2    0    0  0.16824128802E+03 -0.10137304829E+03  0.80675178329E+03  0.84428769905E+03  0.15294330000E+03 0.  0.
<mgrwt>
<rscale>  0 0.53319854E+03</rscale>
<asrwt>0</asrwt>
<pdfrwt beam="1">  1        1 0.10050419E+00 0.68730767E+03</pdfrwt>
<pdfrwt beam="2">  1       -1 0.15563763E+00 0.68730767E+03</pdfrwt>
<totfact> 0.99156640E+00</totfact>
</mgrwt>
</event>
<event>
 4    2  0.3179755E-007  0.6803266E+03  0.7818608E-02  0.1009140E+00
         -1   -1    0    0    0  501 -0.00000000000E+00  0.00000000000E+00  0.57835495213E+03  0.57835495216E+03  0.50400000000E-02 0.  1.
          1   -1    0    0  501    0  0.00000000000E+00 -0.00000000000E+00 -0.77456247829E+03  0.77456247831E+03  0.50400000000E-02 0. -1.
    8880023    1    1    2    0    0 -0.15209238696E+03  0.76823959746E+02 -0.58794086640E+03  0.89917666985E+03  0.65864270000E+03 0. -1.
    8880022    1    1    2    0    0  0.15209238696E+03 -0.76823959746E+02  0.39173334025E+03  0.45374076061E+03  0.15294330000E+03 0.  0.
<mgrwt>
<rscale>  0 0.51818050E+03</rscale>
<asrwt>0</asrwt>
<pdfrwt beam="1">  1        1 0.11916346E+00 0.68032655E+03</pdfrwt>
<pdfrwt beam="2">  1       -1 0.88977685E-01 0.68032655E+03</pdfrwt>
<totfact> 0.29801595E+01</totfact>
</mgrwt>
</event>
<event>
 4    2  0.3179755E-007  0.6708429E+03  0.7818608E-02  0.1015066E+00
         -1   -1    0    0    0  501 -0.00000000000E+00  0.00000000000E+00  0.12980120144E+03  0.12980120154E+03  0.50400000000E-02 0.  1.
          1   -1    0    0  501    0  0.00000000000E+00 -0.00000000000E+00 -0.19158598392E+04  0.19158598392E+04  0.50400000000E-02 0. -1.
    8880023    1    1    2    0    0 -0.59300502849E+02  0.11270941650E+03 -0.17023245306E+04  0.18297374063E+04  0.65864270000E+03 0. -1.
    8880022    1    1    2    0    0  0.59300502849E+02 -0.11270941650E+03 -0.83734107162E+02  0.21592363447E+03  0.15294330000E+03 0.  0.
<mgrwt>
<rscale>  0 0.49510057E+03</rscale>
<asrwt>0</asrwt>
<pdfrwt beam="1">  1        1 0.29474765E+00 0.67084288E+03</pdfrwt>
<pdfrwt beam="2">  1       -1 0.19969417E-01 0.67084288E+03</pdfrwt>
<totfact> 0.72420065E+01</totfact>
</mgrwt>
</event>
<event>
 4    2  0.3179755E-007  0.1078717E+04  0.7818608E-02  0.9285130E-01
         -1   -1    0    0    0  501 -0.00000000000E+00  0.00000000000E+00  0.26155804901E+04  0.26155804901E+04  0.50400000000E-02 0.  1.
          1   -1    0    0  501    0  0.00000000000E+00 -0.00000000000E+00 -0.73604055907E+03  0.73604055909E+03  0.50400000000E-02 0. -1.
    8880023    1    1    2    0    0  0.78941793947E+03  0.32655742192E+03 -0.20103572126E+03  0.10972902991E+04  0.65864270000E+03 0.  0.
    8880022    1    1    2    0    0 -0.78941793947E+03 -0.32655742192E+03  0.20805756523E+04  0.22543307501E+04  0.15294330000E+03 0.  0.
<mgrwt>
<rscale>  0 0.10216340E+04</rscale>
<asrwt>0</asrwt>
<pdfrwt beam="1">  1        1 0.11323701E+00 0.10787171E+04</pdfrwt>
<pdfrwt beam="2">  1       -1 0.40239700E+00 0.10787171E+04</pdfrwt>
<totfact> 0.17589806E-01</totfact>
</mgrwt>
</event>
<event>
 4    2  0.3179755E-007  0.8158619E+03  0.7818608E-02  0.9677494E-01
          1   -1    0    0  501    0  0.00000000000E+00  0.00000000000E+00  0.98859961445E+03  0.98859961446E+03  0.50400000000E-02 0. -1.
         -1   -1    0    0    0  501 -0.00000000000E+00 -0.00000000000E+00 -0.15086581543E+04  0.15086581543E+04  0.50400000000E-02 0.  1.
    8880023    1    1    2    0    0 -0.43335700435E+03  0.20981449746E+03  0.76379134965E+03  0.11175901971E+04  0.65864270000E+03 0.  0.
    8880022    1    1    2    0    0  0.43335700435E+03 -0.20981449746E+03 -0.12838498895E+04  0.13796675716E+04  0.15294330000E+03 0.  0.
<mgrwt>
<rscale>  0 0.72372760E+03</rscale>
<asrwt>0</asrwt>
<pdfrwt beam="1">  1        1 0.15209225E+00 0.81586189E+03</pdfrwt>
<pdfrwt beam="2">  1       -1 0.23210125E+00 0.81586189E+03</pdfrwt>
<totfact> 0.14620340E+00</totfact>
</mgrwt>
</event>
<event>
 4    2  0.3179755E-007  0.8486987E+03  0.7818608E-02  0.9613991E-01
          1   -1    0    0  501    0  0.00000000000E+00  0.00000000000E+00  0.34859404373E+04  0.34859404373E+04  0.50400000000E-02 0. -1.
         -1   -1    0    0    0  501 -0.00000000000E+00 -0.00000000000E+00 -0.19009614394E+03  0.19009614401E+03  0.50400000000E-02 0.  1.
    8880023    1    1    2    0    0 -0.74488103827E+02  0.53002906917E+03  0.99018133635E+03  0.13041275156E+04  0.65864270000E+03 0.  1.
    8880022    1    1    2    0    0  0.74488103827E+02 -0.53002906917E+03  0.23056629570E+04  0.23719090658E+04  0.15294330000E+03 0.  0.
<mgrwt>
<rscale>  0 0.76377029E+03</rscale>
<asrwt>0</asrwt>
<pdfrwt beam="1">  1        1 0.53629853E+00 0.84869871E+03</pdfrwt>
<pdfrwt beam="2">  1       -1 0.29245561E-01 0.84869871E+03</pdfrwt>
<totfact> 0.29057659E+00</totfact>
</mgrwt>
</event>
<event>
 4    2  0.3179755E-007  0.6842881E+03  0.7818608E-02  0.1006995E+00
          1   -1    0    0  501    0  0.00000000000E+00  0.00000000000E+00  0.31029630506E+03  0.31029630510E+03  0.50400000000E-02 0. -1.
         -1   -1    0    0    0  501 -0.00000000000E+00 -0.00000000000E+00 -0.13509335225E+04  0.13509335225E+04  0.50400000000E-02 0.  1.
    8880023    1    1    2    0    0 -0.19370354715E+02  0.18456647647E+03 -0.10147955799E+03  0.69177185678E+03  0.65864270000E+03 0. -1.
    8880022    1    1    2    0    0  0.19370354715E+02 -0.18456647647E+03 -0.93915765944E+03  0.96945797081E+03  0.15294330000E+03 0.  0.
<mgrwt>
<rscale>  0 0.52686571E+03</rscale>
<asrwt>0</asrwt>
<pdfrwt beam="1">  1        1 0.47737894E-01 0.68428810E+03</pdfrwt>
<pdfrwt beam="2">  1       -1 0.20783592E+00 0.68428810E+03</pdfrwt>
<totfact> 0.11591807E+01</totfact>
</mgrwt>
</event>
<event>
 4    2  0.3179755E-007  0.7069336E+03  0.7818608E-02  0.9969569E-01
          1   -1    0    0  501    0  0.00000000000E+00  0.00000000000E+00  0.28546384148E+04  0.28546384148E+04  0.50400000000E-02 0. -1.
         -1   -1    0    0    0  501 -0.00000000000E+00 -0.00000000000E+00 -0.11665940351E+03  0.11665940362E+03  0.50400000000E-02 0.  1.
    8880023    1    1    2    0    0  0.21845410238E+03 -0.13499168679E+03  0.24723339521E+04  0.25714179604E+04  0.65864270000E+03 0.  0.
    8880022    1    1    2    0    0 -0.21845410238E+03  0.13499168679E+03  0.26564505926E+03  0.39987985805E+03  0.15294330000E+03 0.  0.
<mgrwt>
<rscale>  0 0.57004962E+03</rscale>
<asrwt>0</asrwt>
<pdfrwt beam="1">  1        1 0.43917512E+00 0.70693363E+03</pdfrwt>
<pdfrwt beam="2">  1       -1 0.17947601E-01 0.70693363E+03</pdfrwt>
<totfact> 0.19808312E+01</totfact>
</mgrwt>
</event>
<event>
 4    2  0.3179755E-007  0.7762349E+03  0.7818608E-02  0.9764757E-01
          1   -1    0    0  501    0  0.00000000000E+00  0.00000000000E+00  0.27891428043E+03  0.27891428048E+03  0.50400000000E-02 0. -1.
         -1   -1    0    0    0  501 -0.00000000000E+00 -0.00000000000E+00 -0.13364079570E+04  0.13364079570E+04  0.50400000000E-02 0.  1.
    8880023    1    1    2    0    0 -0.29149515251E+03 -0.28941491833E+03 -0.59430831110E+03  0.97762108907E+03  0.65864270000E+03 0.  0.
    8880022    1    1    2    0    0  0.29149515251E+03  0.28941491833E+03 -0.46318536545E+03  0.63770114840E+03  0.15294330000E+03 0. -1.
<mgrwt>
<rscale>  0 0.67288684E+03</rscale>
<asrwt>0</asrwt>
<pdfrwt beam="1">  1        1 0.42909890E-01 0.77623490E+03</pdfrwt>
<pdfrwt beam="2">  1       -1 0.20560122E+00 0.77623490E+03</pdfrwt>
<totfact> 0.13632753E+01</totfact>
</mgrwt>
</event>
<event>
 4    2  0.3179755E-007  0.1000248E+04  0.7818608E-02  0.9381234E-01
          1   -1    0    0  501    0  0.00000000000E+00  0.00000000000E+00  0.24531812875E+04  0.24531812875E+04  0.50400000000E-02 0. -1.
         -1   -1    0    0    0  501 -0.00000000000E+00 -0.00000000000E+00 -0.39880241048E+03  0.39880241051E+03  0.50400000000E-02 0.  1.
    8880023    1    1    2    0    0 -0.24480598101E+03  0.71186754316E+03  0.17696061098E+04  0.20327324854E+04  0.65864270000E+03 0.  0.
    8880022    1    1    2    0    0  0.24480598101E+03 -0.71186754316E+03  0.28477276727E+03  0.81925121259E+03  0.15294330000E+03 0.  0.
<mgrwt>
<rscale>  0 0.93636307E+03</rscale>
<asrwt>0</asrwt>
<pdfrwt beam="1">  1        1 0.37741251E+00 0.10002478E+04</pdfrwt>
<pdfrwt beam="2">  1       -1 0.61354217E-01 0.10002478E+04</pdfrwt>
<totfact> 0.40040723E+00</totfact>
</mgrwt>
</event>
<event>
 4    2  0.3179755E-007  0.8466704E+03  0.7818608E-02  0.9617729E-01
         -1   -1    0    0    0  501 -0.00000000000E+00  0.00000000000E+00  0.11491216944E+04  0.11491216944E+04  0.50400000000E-02 0.  1.
          1   -1    0    0  501    0  0.00000000000E+00 -0.00000000000E+00 -0.10001044861E+04  0.10001044861E+04  0.50400000000E-02 0. -1.
    8880023    1    1    2    0    0  0.28696717354E+03  0.44798475464E+03 -0.72499379131E+03  0.11146599045E+04  0.65864270000E+03 0.  0.
    8880022    1    1    2    0    0 -0.28696717354E+03 -0.44798475464E+03  0.87401099961E+03  0.10345662760E+04  0.15294330000E+03 0.  1.
<mgrwt>
<rscale>  0 0.76133809E+03</rscale>
<asrwt>0</asrwt>
<pdfrwt beam="1">  1        1 0.15386223E+00 0.84667036E+03</pdfrwt>
<pdfrwt beam="2">  1       -1 0.17678795E+00 0.84667036E+03</pdfrwt>
<totfact> 0.34002221E+00</totfact>
</mgrwt>
</event>
<event>
 4    2  0.3179755E-007  0.9288061E+03  0.7818608E-02  0.9481287E-01
          1   -1    0    0  501    0  0.00000000000E+00  0.00000000000E+00  0.27211286594E+04  0.27211286594E+04  0.50400000000E-02 0. -1.
         -1   -1    0    0    0  501 -0.00000000000E+00 -0.00000000000E+00 -0.35264028215E+03  0.35264028218E+03  0.50400000000E-02 0.  1.
    8880023    1    1    2    0    0  0.58331215591E+03 -0.29768682518E+03  0.21887368039E+04  0.23776563083E+04  0.65864270000E+03 0.  0.
    8880022    1    1    2    0    0 -0.58331215591E+03  0.29768682518E+03  0.17975157330E+03  0.69611263330E+03  0.15294330000E+03 0.  0.
<mgrwt>
<rscale>  0 0.85677654E+03</rscale>
<asrwt>0</asrwt>
<pdfrwt beam="1">  1        1 0.41863517E+00 0.92880607E+03</pdfrwt>
<pdfrwt beam="2">  1       -1 0.54252352E-01 0.92880607E+03</pdfrwt>
<totfact> 0.33615410E+00</totfact>
</mgrwt>
</event>
<event>
 4    2  0.3179755E-007  0.8202737E+03  0.7818608E-02  0.9668562E-01
         -1   -1    0    0    0  501 -0.00000000000E+00  0.00000000000E+00  0.63550236123E+03  0.63550236125E+03  0.50400000000E-02 0.  1.
          1   -1    0    0  501    0  0.00000000000E+00 -0.00000000000E+00 -0.97674223983E+03  0.97674223984E+03  0.50400000000E-02 0. -1.
    8880023    1    1    2    0    0 -0.29076458568E+03 -0.39305814985E+03 -0.62074449270E+03  0.10286752087E+04  0.65864270000E+03 0. -1.
    8880022    1    1    2    0    0  0.29076458568E+03  0.39305814985E+03  0.27950461410E+03  0.58356939242E+03  0.15294330000E+03 0.  0.
<mgrwt>
<rscale>  0 0.72919866E+03</rscale>
<asrwt>0</asrwt>
<pdfrwt beam="1">  1        1 0.15026804E+00 0.82027371E+03</pdfrwt>
<pdfrwt beam="2">  1       -1 0.97769594E-01 0.82027371E+03</pdfrwt>
<totfact> 0.16174080E+01</totfact>
</mgrwt>
</event>
<event>
 4    2  0.3179755E-007  0.6933392E+03  0.7818608E-02  0.1002604E+00
          1   -1    0    0  501    0  0.00000000000E+00  0.00000000000E+00  0.11340360599E+04  0.11340360599E+04  0.50400000000E-02 0. -1.
         -1   -1    0    0    0  501 -0.00000000000E+00 -0.00000000000E+00 -0.26203190873E+03  0.26203190878E+03  0.50400000000E-02 0.  1.
    8880023    1    1    2    0    0  0.20534427172E+03  0.68867874970E+02  0.89246310614E+03  0.11301370077E+04  0.65864270000E+03 0. -1.
    8880022    1    1    2    0    0 -0.20534427172E+03 -0.68867874970E+02 -0.20458955007E+02  0.26593096094E+03  0.15294330000E+03 0.  0.
<mgrwt>
<rscale>  0 0.54522942E+03</rscale>
<asrwt>0</asrwt>
<pdfrwt beam="1">  1        1 0.17446709E+00 0.69333921E+03</pdfrwt>
<pdfrwt beam="2">  1       -1 0.40312602E-01 0.69333921E+03</pdfrwt>
<totfact> 0.73775158E+01</totfact>
</mgrwt>
</event>
<event>
 4    2  0.3179755E-007  0.6800472E+03  0.7818608E-02  0.1009297E+00
         -1   -1    0    0    0  501 -0.00000000000E+00  0.00000000000E+00  0.82358486653E+03  0.82358486654E+03  0.50400000000E-02 0.  1.
          1   -1    0    0  501    0  0.00000000000E+00 -0.00000000000E+00 -0.12158762221E+04  0.12158762221E+04  0.50400000000E-02 0. -1.
    8880023    1    1    2    0    0 -0.16671152743E+03 -0.29347009052E+02 -0.11014715819E+04  0.12944897961E+04  0.65864270000E+03 0. -1.
    8880022    1    1    2    0    0  0.16671152743E+03  0.29347009052E+02  0.70918022630E+03  0.74497129254E+03  0.15294330000E+03 0.  0.
<mgrwt>
<rscale>  0 0.51755002E+03</rscale>
<asrwt>0</asrwt>
<pdfrwt beam="1">  1        1 0.18705788E+00 0.68004719E+03</pdfrwt>
<pdfrwt beam="2">  1       -1 0.12670536E+00 0.68004719E+03</pdfrwt>
<totfact> 0.59078014E+00</totfact>
</mgrwt>
</event>
<event>
 4    2  0.3655628E-007  0.8525875E+03  0.7818608E-02  0.9606887E-01
         -1   -1    0    0    0  501 -0.00000000000E+00  0.00000000000E+00  0.10035031199E+04  0.10035031199E+04  0.50400000000E-02 0.  1.
          1   -1    0    0  501    0  0.00000000000E+00 -0.00000000000E+00 -0.17745883353E+04  0.17745883353E+04  0.50400000000E-02 0. -1.
    8880023    1    1    2    0    0  0.44468633512E+03  0.30878670488E+03 -0.15784875512E+04  0.17940257304E+04  0.65864270000E+03 0.  0.
    8880022    1    1    2    0    0 -0.44468633512E+03 -0.30878670488E+03  0.80740233587E+03  0.98406572480E+03  0.15294330000E+03 0.  0.
<mgrwt>
<rscale>  0 0.76842000E+03</rscale>
<asrwt>0</asrwt>
<pdfrwt beam="1">  1        1 0.27301359E+00 0.85258746E+03</pdfrwt>
<pdfrwt beam="2">  1       -1 0.15438510E+00 0.85258746E+03</pdfrwt>
<totfact> 0.14124480E+00</totfact>
</mgrwt>
</event>
<event>
 4    2  0.3179755E-007  0.8004196E+03  0.7818608E-02  0.9709890E-01
          1   -1    0    0  501    0  0.00000000000E+00  0.00000000000E+00  0.12042852595E+04  0.12042852595E+04  0.50400000000E-02 0. -1.
         -1   -1    0    0    0  501 -0.00000000000E+00 -0.00000000000E+00 -0.50488404984E+03  0.50488404987E+03  0.50400000000E-02 0.  1.
    8880023    1    1    2    0    0 -0.33559441235E+03  0.30698161037E+03  0.88627571366E+03  0.11942178049E+04  0.65864270000E+03 0. -1.
    8880022    1    1    2    0    0  0.33559441235E+03 -0.30698161037E+03 -0.18687450398E+03  0.51495150447E+03  0.15294330000E+03 0.  0.
<mgrwt>
<rscale>  0 0.70431014E+03</rscale>
<asrwt>0</asrwt>
<pdfrwt beam="1">  1        1 0.18527465E+00 0.80041959E+03</pdfrwt>
<pdfrwt beam="2">  1       -1 0.77674469E-01 0.80041959E+03</pdfrwt>
<totfact> 0.18064143E+01</totfact>
</mgrwt>
</event>
<event>
 4    2  0.3179755E-007  0.9514693E+03  0.7818608E-02  0.9448003E-01
          1   -1    0    0  501    0  0.00000000000E+00  0.00000000000E+00  0.82961637109E+03  0.82961637110E+03  0.50400000000E-02 0. -1.
         -1   -1    0    0    0  501 -0.00000000000E+00 -0.00000000000E+00 -0.13727270483E+04  0.13727270483E+04  0.50400000000E-02 0.  1.
    8880023    1    1    2    0    0 -0.68201641084E+03  0.79606459989E+02  0.39463439227E+03  0.10300631451E+04  0.65864270000E+03 0.  0.
    8880022    1    1    2    0    0  0.68201641084E+03 -0.79606459989E+02 -0.93774506950E+03  0.11722802743E+04  0.15294330000E+03 0.  0.
<mgrwt>
<rscale>  0 0.88228326E+03</rscale>
<asrwt>0</asrwt>
<pdfrwt beam="1">  1        1 0.12763329E+00 0.95146927E+03</pdfrwt>
<pdfrwt beam="2">  1       -1 0.21118878E+00 0.95146927E+03</pdfrwt>
<totfact> 0.26590314E+00</totfact>
</mgrwt>
</event>
<event>
 4    2  0.3222303E-007  0.7317538E+03  0.7818608E-02  0.9884653E-01
         -1   -1    0    0    0  501 -0.00000000000E+00  0.00000000000E+00  0.58982463535E+03  0.58982463537E+03  0.50400000000E-02 0.  1.
          1   -1    0    0  501    0  0.00000000000E+00 -0.00000000000E+00 -0.13015324765E+04  0.13015324765E+04  0.50400000000E-02 0. -1.
    8880023    1    1    2    0    0 -0.57636860911E+02  0.31357835077E+03 -0.11283659244E+04  0.13448692335E+04  0.65864270000E+03 0. -1.
    8880022    1    1    2    0    0  0.57636860911E+02 -0.31357835077E+03  0.41665808324E+03  0.54648787832E+03  0.15294330000E+03 0.  0.
<mgrwt>
<rscale>  0 0.61010845E+03</rscale>
<asrwt>0</asrwt>
<pdfrwt beam="1">  1        1 0.20023577E+00 0.73175378E+03</pdfrwt>
<pdfrwt beam="2">  1       -1 0.90742252E-01 0.73175378E+03</pdfrwt>
<totfact> 0.11109826E+01</totfact>
</mgrwt>
</event>
<event>
 4    2  0.3179755E-007  0.7653804E+03  0.7818608E-02  0.9791372E-01
          1   -1    0    0  501    0  0.00000000000E+00  0.00000000000E+00  0.88936977514E+03  0.88936977516E+03  0.50400000000E-02 0. -1.
         -1   -1    0    0    0  501 -0.00000000000E+00 -0.00000000000E+00 -0.60972823591E+03  0.60972823593E+03  0.50400000000E-02 0.  1.
    8880023    1    1    2    0    0 -0.31004045006E+03 -0.23637220207E+03  0.59942618606E+03  0.97217223648E+03  0.65864270000E+03 0.  0.
    8880022    1    1    2    0    0  0.31004045006E+03  0.23637220207E+03 -0.31978464682E+03  0.52692577461E+03  0.15294330000E+03 0.  0.
<mgrwt>
<rscale>  0 0.65827618E+03</rscale>
<asrwt>0</asrwt>
<pdfrwt beam="1">  1        1 0.13682612E+00 0.76538037E+03</pdfrwt>
<pdfrwt beam="2">  1       -1 0.93804345E-01 0.76538037E+03</pdfrwt>
<totfact> 0.20988871E+01</totfact>
</mgrwt>
</event>
<event>
 4    2  0.3179755E-007  0.6590438E+03  0.7818608E-02  0.1025158E+00
          1   -1    0    0  501    0  0.00000000000E+00  0.00000000000E+00  0.43872200005E+03  0.43872200008E+03  0.50400000000E-02 0. -1.
         -1   -1    0    0    0  501 -0.00000000000E+00 -0.00000000000E+00 -0.75199860451E+03  0.75199860453E+03  0.50400000000E-02 0.  1.
    8880023    1    1    2    0    0 -0.11416064962E+02 -0.19955431005E+02  0.17222833820E+03  0.68117644741E+03  0.65864270000E+03 0. -1.
    8880022    1    1    2    0    0  0.11416064962E+02  0.19955431005E+02 -0.48550494267E+03  0.50954415720E+03  0.15294330000E+03 0.  0.
<mgrwt>
<rscale>  0 0.45870272E+03</rscale>
<asrwt>0</asrwt>
<pdfrwt beam="1">  1        1 0.67495692E-01 0.65904382E+03</pdfrwt>
<pdfrwt beam="2">  1       -1 0.11569209E+00 0.65904382E+03</pdfrwt>
<totfact> 0.36984652E+01</totfact>
</mgrwt>
</event>
<event>
 4    2  0.3179755E-007  0.8104001E+03  0.7818608E-02  0.9688744E-01
          1   -1    0    0  501    0  0.00000000000E+00  0.00000000000E+00  0.99089502681E+03  0.99089502683E+03  0.50400000000E-02 0. -1.
         -1   -1    0    0    0  501 -0.00000000000E+00 -0.00000000000E+00 -0.53569855454E+03  0.53569855456E+03  0.50400000000E-02 0.  1.
    8880023    1    1    2    0    0  0.43367097644E+03 -0.18672860167E+03  0.60142066960E+03  0.10091853718E+04  0.65864270000E+03 0.  1.
    8880022    1    1    2    0    0 -0.43367097644E+03  0.18672860167E+03 -0.14622419732E+03  0.51740820963E+03  0.15294330000E+03 0.  1.
<mgrwt>
<rscale>  0 0.71690930E+03</rscale>
<asrwt>0</asrwt>
<pdfrwt beam="1">  1        1 0.15244539E+00 0.81040008E+03</pdfrwt>
<pdfrwt beam="2">  1       -1 0.82415163E-01 0.81040008E+03</pdfrwt>
<totfact> 0.22994479E+01</totfact>
</mgrwt>
</event>
<event>
 4    2  0.3179755E-007  0.7249396E+03  0.7818608E-02  0.9906213E-01
          1   -1    0    0  501    0  0.00000000000E+00  0.00000000000E+00  0.24629480025E+04  0.24629480025E+04  0.50400000000E-02 0. -1.
         -1   -1    0    0    0  501 -0.00000000000E+00 -0.00000000000E+00 -0.13225325762E+03  0.13225325772E+03  0.50400000000E-02 0.  1.
    8880023    1    1    2    0    0  0.54331738547E+01  0.30281639126E+03  0.19740217154E+04  0.21029263480E+04  0.65864270000E+03 0. -1.
    8880022    1    1    2    0    0 -0.54331738547E+01 -0.30281639126E+03  0.35667302950E+03  0.49227491220E+03  0.15294330000E+03 0.  1.
<mgrwt>
<rscale>  0 0.59961120E+03</rscale>
<asrwt>0</asrwt>
<pdfrwt beam="1">  1        1 0.37891508E+00 0.72493965E+03</pdfrwt>
<pdfrwt beam="2">  1       -1 0.20346655E-01 0.72493965E+03</pdfrwt>
<totfact> 0.29928236E+01</totfact>
</mgrwt>
</event>
<event>
 4    2  0.3179755E-007  0.1064876E+04  0.7818608E-02  0.9301208E-01
          1   -1    0    0  501    0  0.00000000000E+00  0.00000000000E+00  0.17054107210E+04  0.17054107210E+04  0.50400000000E-02 0. -1.
         -1   -1    0    0    0  501 -0.00000000000E+00 -0.00000000000E+00 -0.79593011019E+03  0.79593011020E+03  0.50400000000E-02 0.  1.
    8880023    1    1    2    0    0  0.74494103446E+03 -0.38106980129E+03  0.11982491134E+04  0.16030478727E+04  0.65864270000E+03 0.  0.
    8880022    1    1    2    0    0 -0.74494103446E+03  0.38106980129E+03 -0.28876850252E+03  0.89829295853E+03  0.15294330000E+03 0.  0.
<mgrwt>
<rscale>  0 0.10067170E+04</rscale>
<asrwt>0</asrwt>
<pdfrwt beam="1">  1        1 0.26237088E+00 0.10648763E+04</pdfrwt>
<pdfrwt beam="2">  1       -1 0.12245079E+00 0.10648763E+04</pdfrwt>
<totfact> 0.27803379E+00</totfact>
</mgrwt>
</event>
<event>
 4    2  0.3179755E-007  0.6737283E+03  0.7818608E-02  0.1013120E+00
         -1   -1    0    0    0  501 -0.00000000000E+00  0.00000000000E+00  0.23719656108E+04  0.23719656108E+04  0.50400000000E-02 0.  1.
          1   -1    0    0  501    0  0.00000000000E+00 -0.00000000000E+00 -0.27121708598E+03  0.27121708602E+03  0.50400000000E-02 0. -1.
    8880023    1    1    2    0    0 -0.62392461481E+02 -0.12730576936E+03  0.16158092483E+03  0.69283344297E+03  0.65864270000E+03 0. -1.
    8880022    1    1    2    0    0  0.62392461481E+02  0.12730576936E+03  0.19391676000E+04  0.19503492538E+04  0.15294330000E+03 0.  0.
<mgrwt>
<rscale>  0 0.50253208E+03</rscale>
<asrwt>0</asrwt>
<pdfrwt beam="1">  1        1 0.41725706E-01 0.67372827E+03</pdfrwt>
<pdfrwt beam="2">  1       -1 0.36491778E+00 0.67372827E+03</pdfrwt>
<totfact> 0.13307400E+00</totfact>
</mgrwt>
</event>
<event>
 4    2  0.3179755E-007  0.8381256E+03  0.7818608E-02  0.9633725E-01
         -1   -1    0    0    0  501 -0.00000000000E+00  0.00000000000E+00  0.38537561251E+03  0.38537561254E+03  0.50400000000E-02 0.  1.
          1   -1    0    0  501    0  0.00000000000E+00 -0.00000000000E+00 -0.12841174920E+04  0.12841174920E+04  0.50400000000E-02 0. -1.
    8880023    1    1    2    0    0  0.50899146049E+03 -0.97836980413E+02 -0.37942675903E+03  0.92001046370E+03  0.65864270000E+03 0.  1.
    8880022    1    1    2    0    0 -0.50899146049E+03  0.97836980413E+02 -0.51931512046E+03  0.74948264085E+03  0.15294330000E+03 0. -1.
<mgrwt>
<rscale>  0 0.75103712E+03</rscale>
<asrwt>0</asrwt>
<pdfrwt beam="1">  1        1 0.19755654E+00 0.83812564E+03</pdfrwt>
<pdfrwt beam="2">  1       -1 0.59288556E-01 0.83812564E+03</pdfrwt>
<totfact> 0.27314975E+01</totfact>
</mgrwt>
</event>
<event>
 4    2  0.3179755E-007  0.7387782E+03  0.7818608E-02  0.9863521E-01
         -1   -1    0    0    0  501 -0.00000000000E+00  0.00000000000E+00  0.50909095540E+03  0.50909095543E+03  0.50400000000E-02 0.  1.
          1   -1    0    0  501    0  0.00000000000E+00 -0.00000000000E+00 -0.95811070436E+03  0.95811070438E+03  0.50400000000E-02 0. -1.
    8880023    1    1    2    0    0 -0.19577791314E+03 -0.27139267562E+03 -0.70325173844E+03  0.10199785241E+04  0.65864270000E+03 0. -1.
    8880022    1    1    2    0    0  0.19577791314E+03  0.27139267562E+03  0.25423198949E+03  0.44722313575E+03  0.15294330000E+03 0.  0.
<mgrwt>
<rscale>  0 0.62062276E+03</rscale>
<asrwt>0</asrwt>
<pdfrwt beam="1">  1        1 0.14740165E+00 0.73877817E+03</pdfrwt>
<pdfrwt beam="2">  1       -1 0.78321686E-01 0.73877817E+03</pdfrwt>
<totfact> 0.27405565E+01</totfact>
</mgrwt>
</event>
<event>
 4    2  0.3179755E-007  0.6698648E+03  0.7818608E-02  0.1015760E+00
          1   -1    0    0  501    0  0.00000000000E+00  0.00000000000E+00  0.10838584608E+04  0.10838584608E+04  0.50400000000E-02 0. -1.
         -1   -1    0    0    0  501 -0.00000000000E+00 -0.00000000000E+00 -0.49731984560E+03  0.49731984563E+03  0.50400000000E-02 0.  1.
    8880023    1    1    2    0    0 -0.11674357172E+02 -0.12154136237E+03  0.95350651961E+03  0.11652868671E+04  0.65864270000E+03 0. -1.
    8880022    1    1    2    0    0  0.11674357172E+02  0.12154136237E+03 -0.36696790446E+03  0.41589143932E+03  0.15294330000E+03 0.  0.
<mgrwt>
<rscale>  0 0.49248221E+03</rscale>
<asrwt>0</asrwt>
<pdfrwt beam="1">  1        1 0.16674745E+00 0.66986476E+03</pdfrwt>
<pdfrwt beam="2">  1       -1 0.76510746E-01 0.66986476E+03</pdfrwt>
<totfact> 0.23245675E+01</totfact>
</mgrwt>
</event>
<event>
 4    2  0.3179755E-007  0.1163999E+04  0.7818608E-02  0.9192938E-01
          1   -1    0    0  501    0  0.00000000000E+00  0.00000000000E+00  0.24143350808E+04  0.24143350808E+04  0.50400000000E-02 0. -1.
         -1   -1    0    0    0  501 -0.00000000000E+00 -0.00000000000E+00 -0.50486023693E+03  0.50486023696E+03  0.50400000000E-02 0.  1.
    8880023    1    1    2    0    0  0.95011724864E+03 -0.13550232849E+03  0.14039893287E+04  0.18237543444E+04  0.65864270000E+03 0.  0.
    8880022    1    1    2    0    0 -0.95011724864E+03  0.13550232849E+03  0.50548551518E+03  0.10954409734E+04  0.15294330000E+03 0.  0.
<mgrwt>
<rscale>  0 0.11126621E+04</rscale>
<asrwt>0</asrwt>
<pdfrwt beam="1">  1        1 0.37143616E+00 0.11639991E+04</pdfrwt>
<pdfrwt beam="2">  1       -1 0.77670807E-01 0.11639991E+04</pdfrwt>
<totfact> 0.25682092E+00</totfact>
</mgrwt>
</event>
<event>
 4    2  0.3179755E-007  0.6976824E+03  0.7818608E-02  0.1000695E+00
         -1   -1    0    0    0  501 -0.00000000000E+00  0.00000000000E+00  0.35607804818E+03  0.35607804821E+03  0.50400000000E-02 0.  1.
          1   -1    0    0  501    0  0.00000000000E+00 -0.00000000000E+00 -0.12749099816E+04  0.12749099816E+04  0.50400000000E-02 0. -1.
    8880023    1    1    2    0    0 -0.10515775377E+03  0.20467616082E+03 -0.10985555320E+04  0.13013780954E+04  0.65864270000E+03 0. -1.
    8880022    1    1    2    0    0  0.10515775377E+03 -0.20467616082E+03  0.17972359858E+03  0.32960993445E+03  0.15294330000E+03 0.  0.
<mgrwt>
<rscale>  0 0.55346333E+03</rscale>
<asrwt>0</asrwt>
<pdfrwt beam="1">  1        1 0.19613999E+00 0.69768237E+03</pdfrwt>
<pdfrwt beam="2">  1       -1 0.54781239E-01 0.69768237E+03</pdfrwt>
<totfact> 0.32872621E+01</totfact>
</mgrwt>
</event>
<event>
 4    2  0.3179755E-007  0.7084318E+03  0.7818608E-02  0.9963871E-01
          1   -1    0    0  501    0  0.00000000000E+00  0.00000000000E+00  0.16245635660E+04  0.16245635660E+04  0.50400000000E-02 0. -1.
         -1   -1    0    0    0  501 -0.00000000000E+00 -0.00000000000E+00 -0.54538522151E+03  0.54538522154E+03  0.50400000000E-02 0.  1.
    8880023    1    1    2    0    0  0.10088758817E+03  0.24059733135E+03  0.14958329760E+04  0.16551108361E+04  0.65864270000E+03 0. -1.
    8880022    1    1    2    0    0 -0.10088758817E+03 -0.24059733135E+03 -0.41665463152E+03  0.51483795148E+03  0.15294330000E+03 0.  0.
<mgrwt>
<rscale>  0 0.57263207E+03</rscale>
<asrwt>0</asrwt>
<pdfrwt beam="1">  1        1 0.24993285E+00 0.70843178E+03</pdfrwt>
<pdfrwt beam="2">  1       -1 0.83905419E-01 0.70843178E+03</pdfrwt>
<totfact> 0.79245494E+00</totfact>
</mgrwt>
</event>
<event>
 4    2  0.3179755E-007  0.6906590E+03  0.7818608E-02  0.1003841E+00
         -1   -1    0    0    0  501 -0.00000000000E+00  0.00000000000E+00  0.11898737751E+03  0.11898737762E+03  0.50400000000E-02 0.  1.
          1   -1    0    0  501    0  0.00000000000E+00 -0.00000000000E+00 -0.22339689688E+04  0.22339689688E+04  0.50400000000E-02 0. -1.
    8880023    1    1    2    0    0  0.26971774735E+02 -0.20608767351E+03 -0.18840802628E+04  0.20066809036E+04  0.65864270000E+03 0.  0.
    8880022    1    1    2    0    0 -0.26971774735E+02  0.20608767351E+03 -0.23090132846E+03  0.34627544283E+03  0.15294330000E+03 0.  0.
<mgrwt>
<rscale>  0 0.53997654E+03</rscale>
<asrwt>0</asrwt>
<pdfrwt beam="1">  1        1 0.34368750E+00 0.69065897E+03</pdfrwt>
<pdfrwt beam="2">  1       -1 0.18305752E-01 0.69065897E+03</pdfrwt>
<totfact> 0.51159366E+01</totfact>
</mgrwt>
</event>
<event>
 4    2  0.3179755E-007  0.6913039E+03  0.7818608E-02  0.1003539E+00
         -1   -1    0    0    0  501 -0.00000000000E+00  0.00000000000E+00  0.16971782489E+03  0.16971782497E+03  0.50400000000E-02 0.  1.
          1   -1    0    0  501    0  0.00000000000E+00 -0.00000000000E+00 -0.32374251977E+04  0.32374251977E+04  0.50400000000E-02 0. -1.
    8880023    1    1    2    0    0 -0.15440882253E+02  0.20940978378E+03 -0.30704945142E+04  0.31473540707E+04  0.65864270000E+03 0.  0.
    8880022    1    1    2    0    0  0.15440882253E+02 -0.20940978378E+03  0.27871413954E+01  0.25978895196E+03  0.15294330000E+03 0.  1.
<mgrwt>
<rscale>  0 0.54125345E+03</rscale>
<asrwt>0</asrwt>
<pdfrwt beam="1">  1        1 0.49806537E+00 0.69130390E+03</pdfrwt>
<pdfrwt beam="2">  1       -1 0.26110437E-01 0.69130390E+03</pdfrwt>
<totfact> 0.56100768E+00</totfact>
</mgrwt>
</event>
<event>
 4    2  0.3179755E-007  0.8544522E+03  0.7818608E-02  0.9603509E-01
         -1   -1    0    0    0  501 -0.00000000000E+00  0.00000000000E+00  0.98568476908E+03  0.98568476909E+03  0.50400000000E-02 0.  1.
          1   -1    0    0  501    0  0.00000000000E+00 -0.00000000000E+00 -0.15430723985E+04  0.15430723985E+04  0.50400000000E-02 0. -1.
    8880023    1    1    2    0    0  0.45999480039E+03  0.29100356016E+03 -0.13242590192E+04  0.15759918923E+04  0.65864270000E+03 0. -1.
    8880022    1    1    2    0    0 -0.45999480039E+03 -0.29100356016E+03  0.76687138975E+03  0.95276527532E+03  0.15294330000E+03 0.  0.
<mgrwt>
<rscale>  0 0.77064353E+03</rscale>
<asrwt>0</asrwt>
<pdfrwt beam="1">  1        1 0.23739575E+00 0.85445216E+03</pdfrwt>
<pdfrwt beam="2">  1       -1 0.15164381E+00 0.85445216E+03</pdfrwt>
<totfact> 0.21273023E+00</totfact>
</mgrwt>
</event>
<event>
 4    2  0.3179755E-007  0.7509505E+03  0.7818608E-02  0.9829125E-01
         -1   -1    0    0    0  501 -0.00000000000E+00  0.00000000000E+00  0.28257220032E+03  0.28257220036E+03  0.50400000000E-02 0.  1.
          1   -1    0    0  501    0  0.00000000000E+00 -0.00000000000E+00 -0.15385904053E+04  0.15385904053E+04  0.50400000000E-02 0. -1.
    8880023    1    1    2    0    0  0.17795803211E+03 -0.31376323732E+03 -0.12134976006E+04  0.14270609879E+04  0.65864270000E+03 0.  0.
    8880022    1    1    2    0    0 -0.17795803211E+03  0.31376323732E+03 -0.42520604342E+02  0.39410161772E+03  0.15294330000E+03 0.  0.
<mgrwt>
<rscale>  0 0.63822658E+03</rscale>
<asrwt>0</asrwt>
<pdfrwt beam="1">  1        1 0.23670621E+00 0.75095049E+03</pdfrwt>
<pdfrwt beam="2">  1       -1 0.43472647E-01 0.75095049E+03</pdfrwt>
<totfact> 0.33139262E+01</totfact>
</mgrwt>
</event>
<event>
 4    2  0.3179755E-007  0.7713108E+03  0.7818608E-02  0.9776659E-01
         -1   -1    0    0    0  501 -0.00000000000E+00  0.00000000000E+00  0.79173986860E+03  0.79173986862E+03  0.50400000000E-02 0.  1.
          1   -1    0    0  501    0  0.00000000000E+00 -0.00000000000E+00 -0.63893912759E+03  0.63893912761E+03  0.50400000000E-02 0. -1.
    8880023    1    1    2    0    0  0.65348335869E+02  0.39602988222E+03 -0.28033202390E+03  0.82067430964E+03  0.65864270000E+03 0. -1.
    8880022    1    1    2    0    0 -0.65348335869E+02 -0.39602988222E+03  0.43313276491E+03  0.61000468659E+03  0.15294330000E+03 0.  0.
<mgrwt>
<rscale>  0 0.66630350E+03</rscale>
<asrwt>0</asrwt>
<pdfrwt beam="1">  1        1 0.98298327E-01 0.77131075E+03</pdfrwt>
<pdfrwt beam="2">  1       -1 0.12180613E+00 0.77131075E+03</pdfrwt>
<totfact> 0.19097029E+01</totfact>
</mgrwt>
</event>
<event>
 4    2  0.3179755E-007  0.7802555E+03  0.7818608E-02  0.9755237E-01
         -1   -1    0    0    0  501 -0.00000000000E+00  0.00000000000E+00  0.12132294606E+04  0.12132294606E+04  0.50400000000E-02 0.  1.
          1   -1    0    0  501    0  0.00000000000E+00 -0.00000000000E+00 -0.45648034424E+03  0.45648034426E+03  0.50400000000E-02 0. -1.
    8880023    1    1    2    0    0  0.89540874573E+02  0.40862070713E+03 -0.13027093513E+02  0.78036424953E+03  0.65864270000E+03 0. -1.
    8880022    1    1    2    0    0 -0.89540874573E+02 -0.40862070713E+03  0.76977620987E+03  0.88934555535E+03  0.15294330000E+03 0.  0.
<mgrwt>
<rscale>  0 0.67821110E+03</rscale>
<asrwt>0</asrwt>
<pdfrwt beam="1">  1        1 0.70227745E-01 0.78025551E+03</pdfrwt>
<pdfrwt beam="2">  1       -1 0.18665069E+00 0.78025551E+03</pdfrwt>
<totfact> 0.96262105E+00</totfact>
</mgrwt>
</event>
<event>
 4    2  0.3179755E-007  0.6951090E+03  0.7818608E-02  0.1001813E+00
         -1   -1    0    0    0  501 -0.00000000000E+00  0.00000000000E+00  0.90429669061E+03  0.90429669063E+03  0.50400000000E-02 0.  1.
          1   -1    0    0  501    0  0.00000000000E+00 -0.00000000000E+00 -0.77775615757E+03  0.77775615759E+03  0.50400000000E-02 0. -1.
    8880023    1    1    2    0    0  0.12529833996E+03 -0.18348473599E+03 -0.59295410505E+03  0.91365808665E+03  0.65864270000E+03 0. -1.
    8880022    1    1    2    0    0 -0.12529833996E+03  0.18348473599E+03  0.71949463809E+03  0.76839476156E+03  0.15294330000E+03 0.  0.
<mgrwt>
<rscale>  0 0.54862395E+03</rscale>
<asrwt>0</asrwt>
<pdfrwt beam="1">  1        1 0.11965479E+00 0.69510900E+03</pdfrwt>
<pdfrwt beam="2">  1       -1 0.13912257E+00 0.69510900E+03</pdfrwt>
<totfact> 0.10237327E+01</totfact>
</mgrwt>
</event>
<event>
 4    2  0.3179755E-007  0.8380826E+03  0.7818608E-02  0.9633806E-01
          1   -1    0    0  501    0  0.00000000000E+00  0.00000000000E+00  0.36009692236E+04  0.36009692236E+04  0.50400000000E-02 0. -1.
         -1   -1    0    0    0  501 -0.00000000000E+00 -0.00000000000E+00 -0.34997625371E+03  0.34997625375E+03  0.50400000000E-02 0.  1.
    8880023    1    1    2    0    0  0.11077815247E+03  0.50626119044E+03  0.33034177257E+04  0.34080714588E+04  0.65864270000E+03 0.  0.
    8880022    1    1    2    0    0 -0.11077815247E+03 -0.50626119044E+03 -0.52424755727E+02  0.54287401857E+03  0.15294330000E+03 0.  0.
<mgrwt>
<rscale>  0 0.75098496E+03</rscale>
<asrwt>0</asrwt>
<pdfrwt beam="1">  1        1 0.55399525E+00 0.83808257E+03</pdfrwt>
<pdfrwt beam="2">  1       -1 0.53842502E-01 0.83808257E+03</pdfrwt>
<totfact> 0.77697717E-01</totfact>
</mgrwt>
</event>
<event>
 4    2  0.3179755E-007  0.7363790E+03  0.7818608E-02  0.9870623E-01
          1   -1    0    0  501    0  0.00000000000E+00  0.00000000000E+00  0.23250286486E+04  0.23250286486E+04  0.50400000000E-02 0. -1.
         -1   -1    0    0    0  501 -0.00000000000E+00 -0.00000000000E+00 -0.29593308930E+03  0.29593308935E+03  0.50400000000E-02 0.  1.
    8880023    1    1    2    0    0 -0.32782136574E+02 -0.32767240724E+03  0.21220287575E+04  0.22461656503E+04  0.65864270000E+03 0. -1.
    8880022    1    1    2    0    0  0.32782136574E+02  0.32767240724E+03 -0.92933198184E+02  0.37479608761E+03  0.15294330000E+03 0.  0.
<mgrwt>
<rscale>  0 0.61706387E+03</rscale>
<asrwt>0</asrwt>
<pdfrwt beam="1">  1        1 0.35769670E+00 0.73637903E+03</pdfrwt>
<pdfrwt beam="2">  1       -1 0.45528169E-01 0.73637903E+03</pdfrwt>
<totfact> 0.90349183E+00</totfact>
</mgrwt>
</event>
<event>
 4    2  0.3179755E-007  0.7294479E+03  0.7818608E-02  0.9891825E-01
         -1   -1    0    0    0  501 -0.00000000000E+00  0.00000000000E+00  0.83277920037E+03  0.83277920039E+03  0.50400000000E-02 0.  1.
          1   -1    0    0  501    0  0.00000000000E+00 -0.00000000000E+00 -0.11222768495E+04  0.11222768495E+04  0.50400000000E-02 0. -1.
    8880023    1    1    2    0    0 -0.10410142692E+03 -0.29571416654E+03 -0.95616785626E+03  0.12026434014E+04  0.65864270000E+03 0.  0.
    8880022    1    1    2    0    0  0.10410142692E+03  0.29571416654E+03  0.66667020717E+03  0.75241264843E+03  0.15294330000E+03 0.  0.
<mgrwt>
<rscale>  0 0.60659125E+03</rscale>
<asrwt>0</asrwt>
<pdfrwt beam="1">  1        1 0.17265798E+00 0.72944786E+03</pdfrwt>
<pdfrwt beam="2">  1       -1 0.12811988E+00 0.72944786E+03</pdfrwt>
<totfact> 0.66697084E+00</totfact>
</mgrwt>
</event>
<event>
 4    2  0.3179755E-007  0.8897666E+03  0.7818608E-02  0.9542663E-01
         -1   -1    0    0    0  501 -0.00000000000E+00  0.00000000000E+00  0.41147321860E+03  0.41147321863E+03  0.50400000000E-02 0.  1.
          1   -1    0    0  501    0  0.00000000000E+00 -0.00000000000E+00 -0.31248970204E+04  0.31248970204E+04  0.50400000000E-02 0. -1.
    8880023    1    1    2    0    0 -0.59725907424E+03 -0.33999492356E+02 -0.27765989584E+04  0.29156793976E+04  0.65864270000E+03 0.  0.
    8880022    1    1    2    0    0  0.59725907424E+03  0.33999492356E+02  0.63175156628E+02  0.62069084146E+03  0.15294330000E+03 0.  0.
<mgrwt>
<rscale>  0 0.81210200E+03</rscale>
<asrwt>0</asrwt>
<pdfrwt beam="1">  1        1 0.48075337E+00 0.88976658E+03</pdfrwt>
<pdfrwt beam="2">  1       -1 0.63303574E-01 0.88976658E+03</pdfrwt>
<totfact> 0.12858616E+00</totfact>
</mgrwt>
</event>
<event>
 4    2  0.3179755E-007  0.8339934E+03  0.7818608E-02  0.9641612E-01
          1   -1    0    0  501    0  0.00000000000E+00  0.00000000000E+00  0.72426413087E+03  0.72426413089E+03  0.50400000000E-02 0. -1.
         -1   -1    0    0    0  501 -0.00000000000E+00 -0.00000000000E+00 -0.10988298669E+04  0.10988298669E+04  0.50400000000E-02 0.  1.
    8880023    1    1    2    0    0  0.56733741754E+01  0.51156882073E+03  0.36544517006E+03  0.91054666223E+03  0.65864270000E+03 0.  0.
    8880022    1    1    2    0    0 -0.56733741754E+01 -0.51156882073E+03 -0.74001090609E+03  0.91254733557E+03  0.15294330000E+03 0.  0.
<mgrwt>
<rscale>  0 0.74602206E+03</rscale>
<asrwt>0</asrwt>
<pdfrwt beam="1">  1        1 0.11142525E+00 0.83399344E+03</pdfrwt>
<pdfrwt beam="2">  1       -1 0.16905075E+00 0.83399344E+03</pdfrwt>
<totfact> 0.66084068E+00</totfact>
</mgrwt>
</event>
<event>
 4    2  0.3179755E-007  0.7151631E+03  0.7818608E-02  0.9939305E-01
          1   -1    0    0  501    0  0.00000000000E+00  0.00000000000E+00  0.17533604545E+04  0.17533604545E+04  0.50400000000E-02 0. -1.
         -1   -1    0    0    0  501 -0.00000000000E+00 -0.00000000000E+00 -0.15477402279E+03  0.15477402287E+03  0.50400000000E-02 0.  1.
    8880023    1    1    2    0    0  0.11472795654E+03  0.25394012326E+03  0.12161612606E+04  0.14108531136E+04  0.65864270000E+03 0.  0.
    8880022    1    1    2    0    0 -0.11472795654E+03 -0.25394012326E+03  0.38242517114E+03  0.49728136377E+03  0.15294330000E+03 0.  0.
<mgrwt>
<rscale>  0 0.58393615E+03</rscale>
<asrwt>0</asrwt>
<pdfrwt beam="1">  1        1 0.26974777E+00 0.71516313E+03</pdfrwt>
<pdfrwt beam="2">  1       -1 0.23811388E-01 0.71516313E+03</pdfrwt>
<totfact> 0.68853951E+01</totfact>
</mgrwt>
</event>
<event>
 4    2  0.3179755E-007  0.6939056E+03  0.7818608E-02  0.1002349E+00
          1   -1    0    0  501    0  0.00000000000E+00  0.00000000000E+00  0.64156945172E+03  0.64156945174E+03  0.50400000000E-02 0. -1.
         -1   -1    0    0    0  501 -0.00000000000E+00 -0.00000000000E+00 -0.39848026738E+03  0.39848026741E+03  0.50400000000E-02 0.  1.
    8880023    1    1    2    0    0  0.66747343358E+02  0.20794128264E+03  0.31771474655E+03  0.76318258058E+03  0.65864270000E+03 0. -1.
    8880022    1    1    2    0    0 -0.66747343358E+02 -0.20794128264E+03 -0.74625562201E+02  0.27686713857E+03  0.15294330000E+03 0.  0.
<mgrwt>
<rscale>  0 0.54632194E+03</rscale>
<asrwt>0</asrwt>
<pdfrwt beam="1">  1        1 0.98702992E-01 0.69390561E+03</pdfrwt>
<pdfrwt beam="2">  1       -1 0.61304657E-01 0.69390561E+03</pdfrwt>
<totfact> 0.85771141E+01</totfact>
</mgrwt>
</event>
<event>
 4    2  0.3179755E-007  0.6685899E+03  0.7818608E-02  0.1016695E+00
         -1   -1    0    0    0  501 -0.00000000000E+00  0.00000000000E+00  0.16375986924E+03  0.16375986932E+03  0.50400000000E-02 0.  1.
          1   -1    0    0  501    0  0.00000000000E+00 -0.00000000000E+00 -0.16106897209E+04  0.16106897209E+04  0.50400000000E-02 0. -1.
    8880023    1    1    2    0    0 -0.32947784207E+02 -0.11007591226E+03 -0.14346116229E+04  0.15827580288E+04  0.65864270000E+03 0. -1.
    8880022    1    1    2    0    0  0.32947784207E+02  0.11007591226E+03 -0.12318228764E+02  0.19169156142E+03  0.15294330000E+03 0.  0.
<mgrwt>
<rscale>  0 0.48898549E+03</rscale>
<asrwt>0</asrwt>
<pdfrwt beam="1">  1        1 0.24779841E+00 0.66858991E+03</pdfrwt>
<pdfrwt beam="2">  1       -1 0.25193827E-01 0.66858991E+03</pdfrwt>
<totfact> 0.78433840E+01</totfact>
</mgrwt>
</event>
<event>
 4    2  0.3179755E-007  0.6830703E+03  0.7818608E-02  0.1007638E+00
          1   -1    0    0  501    0  0.00000000000E+00  0.00000000000E+00  0.74716853124E+03  0.74716853125E+03  0.50400000000E-02 0. -1.
         -1   -1    0    0    0  501 -0.00000000000E+00 -0.00000000000E+00 -0.37049184965E+03  0.37049184968E+03  0.50400000000E-02 0.  1.
    8880023    1    1    2    0    0 -0.18102793243E+03  0.19235359635E+01  0.50376291740E+03  0.84874147744E+03  0.65864270000E+03 0. -1.
    8880022    1    1    2    0    0  0.18102793243E+03 -0.19235359635E+01 -0.12708623581E+03  0.26891890350E+03  0.15294330000E+03 0.  0.
<mgrwt>
<rscale>  0 0.52424426E+03</rscale>
<asrwt>0</asrwt>
<pdfrwt beam="1">  1        1 0.11494900E+00 0.68307029E+03</pdfrwt>
<pdfrwt beam="2">  1       -1 0.56998747E-01 0.68307029E+03</pdfrwt>
<totfact> 0.78753886E+01</totfact>
</mgrwt>
</event>
<event>
 4    2  0.3179755E-007  0.8084276E+03  0.7818608E-02  0.9692862E-01
         -1   -1    0    0    0  501 -0.00000000000E+00  0.00000000000E+00  0.54610611757E+03  0.54610611760E+03  0.50400000000E-02 0.  1.
          1   -1    0    0  501    0  0.00000000000E+00 -0.00000000000E+00 -0.87116671591E+03  0.87116671592E+03  0.50400000000E-02 0. -1.
    8880023    1    1    2    0    0 -0.45048579254E+03  0.12964387019E+03 -0.42623687624E+03  0.91391086179E+03  0.65864270000E+03 0.  0.
    8880022    1    1    2    0    0  0.45048579254E+03 -0.12964387019E+03  0.10117627791E+03  0.50336197173E+03  0.15294330000E+03 0.  0.
<mgrwt>
<rscale>  0 0.71443406E+03</rscale>
<asrwt>0</asrwt>
<pdfrwt beam="1">  1        1 0.13402565E+00 0.80842760E+03</pdfrwt>
<pdfrwt beam="2">  1       -1 0.84016326E-01 0.80842760E+03</pdfrwt>
<totfact> 0.27537191E+01</totfact>
</mgrwt>
</event>
<event>
 4    2  0.3261603E-007  0.7775063E+03  0.7818608E-02  0.9761728E-01
         -1   -1    0    0    0  501 -0.00000000000E+00  0.00000000000E+00  0.86293542487E+03  0.86293542489E+03  0.50400000000E-02 0.  1.
          1   -1    0    0  501    0  0.00000000000E+00 -0.00000000000E+00 -0.12448520128E+04  0.12448520129E+04  0.50400000000E-02 0. -1.
    8880023    1    1    2    0    0  0.40875616775E+03  0.60201829492E+02 -0.10506033109E+04  0.13070131553E+04  0.65864270000E+03 0. -1.
    8880022    1    1    2    0    0 -0.40875616775E+03 -0.60201829492E+02  0.66868672295E+03  0.80077428244E+03  0.15294330000E+03 0.  0.
<mgrwt>
<rscale>  0 0.67457531E+03</rscale>
<asrwt>0</asrwt>
<pdfrwt beam="1">  1        1 0.19151569E+00 0.77750632E+03</pdfrwt>
<pdfrwt beam="2">  1       -1 0.13275930E+00 0.77750632E+03</pdfrwt>
<totfact> 0.49288756E+00</totfact>
</mgrwt>
</event>
<event>
 4    2  0.3179755E-007  0.9415789E+03  0.7818608E-02  0.9462335E-01
          1   -1    0    0  501    0  0.00000000000E+00  0.00000000000E+00  0.15831810410E+04  0.15831810410E+04  0.50400000000E-02 0. -1.
         -1   -1    0    0    0  501 -0.00000000000E+00 -0.00000000000E+00 -0.76327786492E+03  0.76327786494E+03  0.50400000000E-02 0.  1.
    8880023    1    1    2    0    0 -0.20325061425E+03  0.64144352362E+03 -0.33643669196E+03  0.99988022290E+03  0.65864270000E+03 0.  0.
    8880022    1    1    2    0    0  0.20325061425E+03 -0.64144352362E+03  0.11563398680E+04  0.13465786830E+04  0.15294330000E+03 0.  0.
<mgrwt>
<rscale>  0 0.87118576E+03</rscale>
<asrwt>0</asrwt>
<pdfrwt beam="1">  1        1 0.24356631E+00 0.94157889E+03</pdfrwt>
<pdfrwt beam="2">  1       -1 0.11742737E+00 0.94157889E+03</pdfrwt>
<totfact> 0.37929164E+00</totfact>
</mgrwt>
</event>
<event>
 4    2  0.3179755E-007  0.8209612E+03  0.7818608E-02  0.9667182E-01
          1   -1    0    0  501    0  0.00000000000E+00  0.00000000000E+00  0.56141202531E+03  0.56141202533E+03  0.50400000000E-02 0. -1.
         -1   -1    0    0    0  501 -0.00000000000E+00 -0.00000000000E+00 -0.10719377043E+04  0.10719377043E+04  0.50400000000E-02 0.  1.
    8880023    1    1    2    0    0  0.24933961475E+03 -0.42189678226E+03  0.10965452212E+03  0.82825205032E+03  0.65864270000E+03 0. -1.
    8880022    1    1    2    0    0 -0.24933961475E+03  0.42189678226E+03 -0.62018020107E+03  0.80509767928E+03  0.15294330000E+03 0.  1.
<mgrwt>
<rscale>  0 0.73004844E+03</rscale>
<asrwt>0</asrwt>
<pdfrwt beam="1">  1        1 0.86371081E-01 0.82096123E+03</pdfrwt>
<pdfrwt beam="2">  1       -1 0.16491349E+00 0.82096123E+03</pdfrwt>
<totfact> 0.10330344E+01</totfact>
</mgrwt>
</event>
<event>
 4    2  0.3179755E-007  0.1042320E+04  0.7818608E-02  0.9328172E-01
          1   -1    0    0  501    0  0.00000000000E+00  0.00000000000E+00  0.18363607455E+04  0.18363607455E+04  0.50400000000E-02 0. -1.
         -1   -1    0    0    0  501 -0.00000000000E+00 -0.00000000000E+00 -0.96455738337E+03  0.96455738338E+03  0.50400000000E-02 0.  1.
    8880023    1    1    2    0    0  0.80427935526E+03 -0.75860994465E+02  0.14572014940E+04  0.17916100502E+04  0.65864270000E+03 0. -1.
    8880022    1    1    2    0    0 -0.80427935526E+03  0.75860994465E+02 -0.58539813187E+03  0.10093080786E+04  0.15294330000E+03 0.  0.
<mgrwt>
<rscale>  0 0.98230193E+03</rscale>
<asrwt>0</asrwt>
<pdfrwt beam="1">  1        1 0.28251703E+00 0.10423197E+04</pdfrwt>
<pdfrwt beam="2">  1       -1 0.14839345E+00 0.10423197E+04</pdfrwt>
<totfact> 0.13860734E+00</totfact>
</mgrwt>
</event>
<event>
 4    2  0.3179755E-007  0.9729344E+03  0.7818608E-02  0.9417857E-01
         -1   -1    0    0    0  501 -0.00000000000E+00  0.00000000000E+00  0.13753583675E+04  0.13753583675E+04  0.50400000000E-02 0.  1.
          1   -1    0    0  501    0  0.00000000000E+00 -0.00000000000E+00 -0.74183757813E+03  0.74183757815E+03  0.50400000000E-02 0. -1.
    8880023    1    1    2    0    0  0.69018218233E+02 -0.71276052738E+03 -0.21499921620E+03  0.99640651999E+03  0.65864270000E+03 0.  0.
    8880022    1    1    2    0    0 -0.69018218233E+02  0.71276052738E+03  0.84852000558E+03  0.11207894257E+04  0.15294330000E+03 0.  0.
<mgrwt>
<rscale>  0 0.90620564E+03</rscale>
<asrwt>0</asrwt>
<pdfrwt beam="1">  1        1 0.11412886E+00 0.97293437E+03</pdfrwt>
<pdfrwt beam="2">  1       -1 0.21159360E+00 0.97293437E+03</pdfrwt>
<totfact> 0.31493453E+00</totfact>
</mgrwt>
</event>
<event>
 4    2  0.3179755E-007  0.7631514E+03  0.7818608E-02  0.9797016E-01
          1   -1    0    0  501    0  0.00000000000E+00  0.00000000000E+00  0.29152062856E+04  0.29152062857E+04  0.50400000000E-02 0. -1.
         -1   -1    0    0    0  501 -0.00000000000E+00 -0.00000000000E+00 -0.34552297381E+03  0.34552297385E+03  0.50400000000E-02 0.  1.
    8880023    1    1    2    0    0  0.33217935809E+03  0.19556769914E+03  0.27158363025E+04  0.28210223110E+04  0.65864270000E+03 0. -1.
    8880022    1    1    2    0    0 -0.33217935809E+03 -0.19556769914E+03 -0.14615299065E+03  0.43970694852E+03  0.15294330000E+03 0.  0.
<mgrwt>
<rscale>  0 0.65522920E+03</rscale>
<asrwt>0</asrwt>
<pdfrwt beam="1">  1        1 0.44849329E+00 0.76315140E+03</pdfrwt>
<pdfrwt beam="2">  1       -1 0.53157379E-01 0.76315140E+03</pdfrwt>
<totfact> 0.26263552E+00</totfact>
</mgrwt>
</event>
<event>
 4    2  0.3179755E-007  0.6882662E+03  0.7818608E-02  0.1004988E+00
          1   -1    0    0  501    0  0.00000000000E+00  0.00000000000E+00  0.19654030422E+04  0.19654030422E+04  0.50400000000E-02 0. -1.
         -1   -1    0    0    0  501 -0.00000000000E+00 -0.00000000000E+00 -0.16619917546E+03  0.16619917554E+03  0.50400000000E-02 0.  1.
    8880023    1    1    2    0    0  0.22561221732E+02 -0.19847218400E+03  0.17427933141E+04  0.18737766565E+04  0.65864270000E+03 0. -1.
    8880022    1    1    2    0    0 -0.22561221732E+02  0.19847218400E+03  0.56410552608E+02  0.25782556120E+03  0.15294330000E+03 0.  0.
<mgrwt>
<rscale>  0 0.53516271E+03</rscale>
<asrwt>0</asrwt>
<pdfrwt beam="1">  1        1 0.30236970E+00 0.68826624E+03</pdfrwt>
<pdfrwt beam="2">  1       -1 0.25569104E-01 0.68826624E+03</pdfrwt>
<totfact> 0.44165732E+01</totfact>
</mgrwt>
</event>
<event>
 4    2  0.3179755E-007  0.8844516E+03  0.7818608E-02  0.9551467E-01
         -1   -1    0    0    0  501 -0.00000000000E+00  0.00000000000E+00  0.51370001955E+03  0.51370001958E+03  0.50400000000E-02 0.  1.
          1   -1    0    0  501    0  0.00000000000E+00 -0.00000000000E+00 -0.32720167810E+04  0.32720167810E+04  0.50400000000E-02 0. -1.
    8880023    1    1    2    0    0 -0.65434150331E+02 -0.58665384261E+03 -0.30015994355E+04  0.31291937838E+04  0.65864270000E+03 0. -1.
    8880022    1    1    2    0    0  0.65434150331E+02  0.58665384261E+03  0.24328267404E+03  0.65652301680E+03  0.15294330000E+03 0.  0.
<mgrwt>
<rscale>  0 0.80593399E+03</rscale>
<asrwt>0</asrwt>
<pdfrwt beam="1">  1        1 0.50338718E+00 0.88445156E+03</pdfrwt>
<pdfrwt beam="2">  1       -1 0.79030774E-01 0.88445156E+03</pdfrwt>
<totfact> 0.63444815E-01</totfact>
</mgrwt>
</event>
<event>
 4    2  0.3179755E-007  0.7078456E+03  0.7818608E-02  0.9966090E-01
         -1   -1    0    0    0  501 -0.00000000000E+00  0.00000000000E+00  0.32360878442E+03  0.32360878446E+03  0.50400000000E-02 0.  1.
          1   -1    0    0  501    0  0.00000000000E+00 -0.00000000000E+00 -0.14707018173E+04  0.14707018173E+04  0.50400000000E-02 0. -1.
    8880023    1    1    2    0    0  0.22943275069E+03  0.12081310319E+03 -0.12819897125E+04  0.14644258337E+04  0.65864270000E+03 0. -1.
    8880022    1    1    2    0    0 -0.22943275069E+03 -0.12081310319E+03  0.13489667970E+03  0.32988476806E+03  0.15294330000E+03 0.  0.
<mgrwt>
<rscale>  0 0.57162473E+03</rscale>
<asrwt>0</asrwt>
<pdfrwt beam="1">  1        1 0.22626181E+00 0.70784560E+03</pdfrwt>
<pdfrwt beam="2">  1       -1 0.49785968E-01 0.70784560E+03</pdfrwt>
<totfact> 0.28781400E+01</totfact>
</mgrwt>
</event>
<event>
 4    2  0.3179755E-007  0.2289046E+04  0.7818608E-02  0.8491518E-01
         -1   -1    0    0    0  501 -0.00000000000E+00  0.00000000000E+00  0.30033783974E+04  0.30033783974E+04  0.50400000000E-02 0.  1.
          1   -1    0    0  501    0  0.00000000000E+00 -0.00000000000E+00 -0.18365058074E+04  0.18365058074E+04  0.50400000000E-02 0. -1.
    8880023    1    1    2    0    0  0.11097051035E+04 -0.18906288289E+04 -0.12189576667E+03  0.22922895911E+04  0.65864270000E+03 0.  0.
    8880022    1    1    2    0    0 -0.11097051035E+04  0.18906288289E+04  0.12887683567E+04  0.25475946137E+04  0.15294330000E+03 0.  0.
<mgrwt>
<rscale>  0 0.22658263E+04</rscale>
<asrwt>0</asrwt>
<pdfrwt beam="1">  1        1 0.28253936E+00 0.22890463E+04</pdfrwt>
<pdfrwt beam="2">  1       -1 0.46205821E+00 0.22890463E+04</pdfrwt>
<totfact> 0.88434256E-03</totfact>
</mgrwt>
</event>
<event>
 4    2  0.3179755E-007  0.9581274E+03  0.7818608E-02  0.9438516E-01
          1   -1    0    0  501    0  0.00000000000E+00  0.00000000000E+00  0.88971392748E+03  0.88971392750E+03  0.50400000000E-02 0. -1.
         -1   -1    0    0    0  501 -0.00000000000E+00 -0.00000000000E+00 -0.80269047000E+03  0.80269047002E+03  0.50400000000E-02 0.  1.
    8880023    1    1    2    0    0  0.68705867171E+03 -0.11021935329E+03  0.17684585317E+03  0.97431133949E+03  0.65864270000E+03 0.  0.
    8880022    1    1    2    0    0 -0.68705867171E+03  0.11021935329E+03 -0.89822395684E+02  0.71809305803E+03  0.15294330000E+03 0.  0.
<mgrwt>
<rscale>  0 0.88972652E+03</rscale>
<asrwt>0</asrwt>
<pdfrwt beam="1">  1        1 0.13687907E+00 0.95812741E+03</pdfrwt>
<pdfrwt beam="2">  1       -1 0.12349084E+00 0.95812741E+03</pdfrwt>
<totfact> 0.10772142E+01</totfact>
</mgrwt>
</event>
<event>
 4    2  0.3179755E-007  0.6865149E+03  0.7818608E-02  0.1005855E+00
         -1   -1    0    0    0  501 -0.00000000000E+00  0.00000000000E+00  0.32512705723E+03  0.32512705727E+03  0.50400000000E-02 0.  1.
          1   -1    0    0  501    0  0.00000000000E+00 -0.00000000000E+00 -0.93678533469E+03  0.93678533470E+03  0.50400000000E-02 0. -1.
    8880023    1    1    2    0    0 -0.44954164611E+02 -0.18833928817E+03 -0.71785129275E+03  0.99328407274E+03  0.65864270000E+03 0. -1.
    8880022    1    1    2    0    0  0.44954164611E+02  0.18833928817E+03  0.10619301530E+03  0.26862831924E+03  0.15294330000E+03 0.  0.
<mgrwt>
<rscale>  0 0.53155791E+03</rscale>
<asrwt>0</asrwt>
<pdfrwt beam="1">  1        1 0.14412082E+00 0.68651495E+03</pdfrwt>
<pdfrwt beam="2">  1       -1 0.50019547E-01 0.68651495E+03</pdfrwt>
<totfact> 0.70000379E+01</totfact>
</mgrwt>
</event>
<event>
 4    2  0.3179755E-007  0.7083629E+03  0.7818608E-02  0.9964131E-01
         -1   -1    0    0    0  501 -0.00000000000E+00  0.00000000000E+00  0.63025072794E+03  0.63025072796E+03  0.50400000000E-02 0.  1.
          1   -1    0    0  501    0  0.00000000000E+00 -0.00000000000E+00 -0.18876571128E+04  0.18876571128E+04  0.50400000000E-02 0. -1.
    8880023    1    1    2    0    0 -0.11971721240E+03 -0.23159364487E+03 -0.17791244569E+04  0.19149574059E+04  0.65864270000E+03 0. -1.
    8880022    1    1    2    0    0  0.11971721240E+03  0.23159364487E+03  0.52171807196E+03  0.60295043487E+03  0.15294330000E+03 0.  0.
<mgrwt>
<rscale>  0 0.57251395E+03</rscale>
<asrwt>0</asrwt>
<pdfrwt beam="1">  1        1 0.29040878E+00 0.70836293E+03</pdfrwt>
<pdfrwt beam="2">  1       -1 0.96961651E-01 0.70836293E+03</pdfrwt>
<totfact> 0.38404312E+00</totfact>
</mgrwt>
</event>
<event>
 4    2  0.3179755E-007  0.1008510E+04  0.7818608E-02  0.9370507E-01
         -1   -1    0    0    0  501 -0.00000000000E+00  0.00000000000E+00  0.10671793886E+04  0.10671793887E+04  0.50400000000E-02 0.  1.
          1   -1    0    0  501    0  0.00000000000E+00 -0.00000000000E+00 -0.11411778589E+04  0.11411778589E+04  0.50400000000E-02 0. -1.
    8880023    1    1    2    0    0 -0.72235821603E+03 -0.24795430836E+03 -0.68437451915E+03  0.12187950689E+04  0.65864270000E+03 0. -1.
    8880022    1    1    2    0    0  0.72235821603E+03  0.24795430836E+03  0.61037604891E+03  0.98956217864E+03  0.15294330000E+03 0.  0.
<mgrwt>
<rscale>  0 0.94543069E+03</rscale>
<asrwt>0</asrwt>
<pdfrwt beam="1">  1        1 0.17556582E+00 0.10085103E+04</pdfrwt>
<pdfrwt beam="2">  1       -1 0.16418144E+00 0.10085103E+04</pdfrwt>
<totfact> 0.32171234E+00</totfact>
</mgrwt>
</event>
<event>
 4    2  0.3179755E-007  0.8999433E+03  0.7818608E-02  0.9526123E-01
         -1   -1    0    0    0  501 -0.00000000000E+00  0.00000000000E+00  0.48578493517E+03  0.48578493520E+03  0.50400000000E-02 0.  1.
          1   -1    0    0  501    0  0.00000000000E+00 -0.00000000000E+00 -0.24452000784E+04  0.24452000784E+04  0.50400000000E-02 0. -1.
    8880023    1    1    2    0    0 -0.40270798871E+03  0.46250839109E+03 -0.20989301796E+04  0.22837263061E+04  0.65864270000E+03 0.  0.
    8880022    1    1    2    0    0  0.40270798871E+03 -0.46250839109E+03  0.13951503641E+03  0.64725870748E+03  0.15294330000E+03 0.  0.
<mgrwt>
<rscale>  0 0.82385002E+03</rscale>
<asrwt>0</asrwt>
<pdfrwt beam="1">  1        1 0.37618462E+00 0.89994330E+03</pdfrwt>
<pdfrwt beam="2">  1       -1 0.74736145E-01 0.89994330E+03</pdfrwt>
<totfact> 0.27521414E+00</totfact>
</mgrwt>
</event>
<event>
 4    2  0.3179755E-007  0.6637629E+03  0.7818608E-02  0.1020595E+00
         -1   -1    0    0    0  501 -0.00000000000E+00  0.00000000000E+00  0.12399279384E+04  0.12399279384E+04  0.50400000000E-02 0.  1.
          1   -1    0    0  501    0  0.00000000000E+00 -0.00000000000E+00 -0.16577405735E+03  0.16577405742E+03  0.50400000000E-02 0. -1.
    8880023    1    1    2    0    0  0.39848740774E+02  0.71993155908E+02  0.57842110973E+03  0.88042723895E+03  0.65864270000E+03 0. -1.
    8880022    1    1    2    0    0 -0.39848740774E+02 -0.71993155908E+02  0.49573277136E+03  0.52527475692E+03  0.15294330000E+03 0.  1.
<mgrwt>
<rscale>  0 0.47472630E+03</rscale>
<asrwt>0</asrwt>
<pdfrwt beam="1">  1        1 0.25503703E-01 0.66376287E+03</pdfrwt>
<pdfrwt beam="2">  1       -1 0.19075813E+00 0.66376287E+03</pdfrwt>
<totfact> 0.34232838E+01</totfact>
</mgrwt>
</event>
<event>
 4    2  0.3179755E-007  0.7186864E+03  0.7818608E-02  0.9927056E-01
         -1   -1    0    0    0  501 -0.00000000000E+00  0.00000000000E+00  0.22059373233E+03  0.22059373239E+03  0.50400000000E-02 0.  1.
          1   -1    0    0  501    0  0.00000000000E+00 -0.00000000000E+00 -0.12362017338E+04  0.12362017338E+04  0.50400000000E-02 0. -1.
    8880023    1    1    2    0    0 -0.14130279774E+03 -0.25046655951E+03 -0.70134443169E+03  0.10041883271E+04  0.65864270000E+03 0.  0.
    8880022    1    1    2    0    0  0.14130279774E+03  0.25046655951E+03 -0.31426356973E+03  0.45260713910E+03  0.15294330000E+03 0. -1.
<mgrwt>
<rscale>  0 0.58967773E+03</rscale>
<asrwt>0</asrwt>
<pdfrwt beam="1">  1        1 0.19018488E+00 0.71868643E+03</pdfrwt>
<pdfrwt beam="2">  1       -1 0.33937498E-01 0.71868643E+03</pdfrwt>
<totfact> 0.84492966E+01</totfact>
</mgrwt>
</event>
<event>
 4    2  0.3179755E-007  0.1027117E+04  0.7818608E-02  0.9346909E-01
          1   -1    0    0  501    0  0.00000000000E+00  0.00000000000E+00  0.73754204785E+03  0.73754204787E+03  0.50400000000E-02 0. -1.
         -1   -1    0    0    0  501 -0.00000000000E+00 -0.00000000000E+00 -0.11393716064E+04  0.11393716064E+04  0.50400000000E-02 0.  1.
    8880023    1    1    2    0    0 -0.77885865261E+03  0.12057725292E+03 -0.16843003990E+03  0.10408355102E+04  0.65864270000E+03 0.  0.
    8880022    1    1    2    0    0  0.77885865261E+03 -0.12057725292E+03 -0.23339951863E+03  0.83607814407E+03  0.15294330000E+03 0. -1.
<mgrwt>
<rscale>  0 0.96576667E+03</rscale>
<asrwt>0</asrwt>
<pdfrwt beam="1">  1        1 0.11346801E+00 0.10271173E+04</pdfrwt>
<pdfrwt beam="2">  1       -1 0.17528794E+00 0.10271173E+04</pdfrwt>
<totfact> 0.56595015E+00</totfact>
</mgrwt>
</event>
<event>
 4    2  0.3179755E-007  0.8280804E+03  0.7818608E-02  0.9653079E-01
         -1   -1    0    0    0  501 -0.00000000000E+00  0.00000000000E+00  0.82884921048E+03  0.82884921049E+03  0.50400000000E-02 0.  1.
          1   -1    0    0  501    0  0.00000000000E+00 -0.00000000000E+00 -0.20871124134E+04  0.20871124134E+04  0.50400000000E-02 0. -1.
    8880023    1    1    2    0    0  0.13994247523E+03  0.48199894061E+03 -0.19085164804E+04  0.20804211682E+04  0.65864270000E+03 0. -1.
    8880022    1    1    2    0    0 -0.13994247523E+03 -0.48199894061E+03  0.65025327748E+03  0.83554045564E+03  0.15294330000E+03 0.  0.
<mgrwt>
<rscale>  0 0.73880504E+03</rscale>
<asrwt>0</asrwt>
<pdfrwt beam="1">  1        1 0.32109422E+00 0.82808036E+03</pdfrwt>
<pdfrwt beam="2">  1       -1 0.12751526E+00 0.82808036E+03</pdfrwt>
<totfact> 0.14422627E+00</totfact>
</mgrwt>
</event>
<event>
 4    2  0.3179755E-007  0.7102690E+03  0.7818608E-02  0.9957003E-01
         -1   -1    0    0    0  501 -0.00000000000E+00  0.00000000000E+00  0.95614191080E+03  0.95614191081E+03  0.50400000000E-02 0.  1.
          1   -1    0    0  501    0  0.00000000000E+00 -0.00000000000E+00 -0.81720940032E+03  0.81720940033E+03  0.50400000000E-02 0. -1.
    8880023    1    1    2    0    0  0.22065578500E+03 -0.14826609589E+03 -0.62754878657E+03  0.94778663022E+03  0.65864270000E+03 0. -1.
    8880022    1    1    2    0    0 -0.22065578500E+03  0.14826609589E+03  0.76648129705E+03  0.82556468092E+03  0.15294330000E+03 0.  0.
<mgrwt>
<rscale>  0 0.57576433E+03</rscale>
<asrwt>0</asrwt>
<pdfrwt beam="1">  1        1 0.12572452E+00 0.71026898E+03</pdfrwt>
<pdfrwt beam="2">  1       -1 0.14709876E+00 0.71026898E+03</pdfrwt>
<totfact> 0.81561320E+00</totfact>
</mgrwt>
</event>
<event>
 4    2  0.3179755E-007  0.7195260E+03  0.7818608E-02  0.9924193E-01
         -1   -1    0    0    0  501 -0.00000000000E+00  0.00000000000E+00  0.45639567091E+03  0.45639567094E+03  0.50400000000E-02 0.  1.
          1   -1    0    0  501    0  0.00000000000E+00 -0.00000000000E+00 -0.12214172814E+04  0.12214172815E+04  0.50400000000E-02 0. -1.
    8880023    1    1    2    0    0 -0.16004506938E+03  0.24143953617E+03 -0.10300413406E+04  0.12564644219E+04  0.65864270000E+03 0. -1.
    8880022    1    1    2    0    0  0.16004506938E+03 -0.24143953617E+03  0.26501973003E+03  0.42134853053E+03  0.15294330000E+03 0.  0.
<mgrwt>
<rscale>  0 0.59102983E+03</rscale>
<asrwt>0</asrwt>
<pdfrwt beam="1">  1        1 0.18791035E+00 0.71952601E+03</pdfrwt>
<pdfrwt beam="2">  1       -1 0.70214719E-01 0.71952601E+03</pdfrwt>
<totfact> 0.21870078E+01</totfact>
</mgrwt>
</event>
<event>
 4    2  0.3179755E-007  0.6844214E+03  0.7818608E-02  0.1006926E+00
         -1   -1    0    0    0  501 -0.00000000000E+00  0.00000000000E+00  0.20781459464E+03  0.20781459470E+03  0.50400000000E-02 0.  1.
          1   -1    0    0  501    0  0.00000000000E+00 -0.00000000000E+00 -0.11840929752E+04  0.11840929752E+04  0.50400000000E-02 0. -1.
    8880023    1    1    2    0    0  0.93285723933E+02  0.16099754781E+03 -0.91629267964E+03  0.11436891701E+04  0.65864270000E+03 0.  0.
    8880022    1    1    2    0    0 -0.93285723933E+02 -0.16099754781E+03 -0.59985700915E+02  0.24821839984E+03  0.15294330000E+03 0.  0.
<mgrwt>
<rscale>  0 0.52715019E+03</rscale>
<asrwt>0</asrwt>
<pdfrwt beam="1">  1        1 0.18216815E+00 0.68442139E+03</pdfrwt>
<pdfrwt beam="2">  1       -1 0.31971477E-01 0.68442139E+03</pdfrwt>
<totfact> 0.10267960E+02</totfact>
</mgrwt>
</event>
<event>
 4    2  0.3179755E-007  0.1076639E+04  0.7818608E-02  0.9287523E-01
         -1   -1    0    0    0  501 -0.00000000000E+00  0.00000000000E+00  0.32117415370E+03  0.32117415374E+03  0.50400000000E-02 0.  1.
          1   -1    0    0  501    0  0.00000000000E+00 -0.00000000000E+00 -0.29371189804E+04  0.29371189804E+04  0.50400000000E-02 0. -1.
    8880023    1    1    2    0    0  0.53004243380E+03 -0.66663036589E+03 -0.14893957775E+04  0.18377842677E+04  0.65864270000E+03 0.  1.
    8880022    1    1    2    0    0 -0.53004243380E+03  0.66663036589E+03 -0.11265490491E+04  0.14205088664E+04  0.15294330000E+03 0. -1.
<mgrwt>
<rscale>  0 0.10193971E+04</rscale>
<asrwt>0</asrwt>
<pdfrwt beam="1">  1        1 0.45186444E+00 0.10766389E+04</pdfrwt>
<pdfrwt beam="2">  1       -1 0.49411410E-01 0.10766389E+04</pdfrwt>
<totfact> 0.27689063E+00</totfact>
</mgrwt>
</event>
<event>
 4    2  0.3179755E-007  0.8494856E+03  0.7818608E-02  0.9612547E-01
          1   -1    0    0  501    0  0.00000000000E+00  0.00000000000E+00  0.16740984354E+04  0.16740984354E+04  0.50400000000E-02 0. -1.
         -1   -1    0    0    0  501 -0.00000000000E+00 -0.00000000000E+00 -0.89780539402E+03  0.89780539404E+03  0.50400000000E-02 0.  1.
    8880023    1    1    2    0    0 -0.51096084483E+03 -0.16350739272E+03  0.14602048689E+04  0.16893265279E+04  0.65864270000E+03 0. -1.
    8880022    1    1    2    0    0  0.51096084483E+03  0.16350739272E+03 -0.68391182750E+03  0.88257730157E+03  0.15294330000E+03 0.  0.
<mgrwt>
<rscale>  0 0.76471262E+03</rscale>
<asrwt>0</asrwt>
<pdfrwt beam="1">  1        1 0.25755360E+00 0.84948564E+03</pdfrwt>
<pdfrwt beam="2">  1       -1 0.13812391E+00 0.84948564E+03</pdfrwt>
<totfact> 0.22208548E+00</totfact>
</mgrwt>
</event>
<event>
 4    2  0.3179755E-007  0.7160614E+03  0.7818608E-02  0.9936145E-01
         -1   -1    0    0    0  501 -0.00000000000E+00  0.00000000000E+00  0.40806596146E+03  0.40806596149E+03  0.50400000000E-02 0.  1.
          1   -1    0    0  501    0  0.00000000000E+00 -0.00000000000E+00 -0.73741749603E+03  0.73741749604E+03  0.50400000000E-02 0. -1.
    8880023    1    1    2    0    0 -0.44286728580E+02 -0.27743898093E+03 -0.39667362927E+03  0.81859261961E+03  0.65864270000E+03 0.  0.
    8880022    1    1    2    0    0  0.44286728580E+02  0.27743898093E+03  0.67322094698E+02  0.32689083792E+03  0.15294330000E+03 0.  0.
<mgrwt>
<rscale>  0 0.58541062E+03</rscale>
<asrwt>0</asrwt>
<pdfrwt beam="1">  1        1 0.11344885E+00 0.71606139E+03</pdfrwt>
<pdfrwt beam="2">  1       -1 0.62779379E-01 0.71606139E+03</pdfrwt>
<totfact> 0.66264953E+01</totfact>
</mgrwt>
</event>
<event>
 4    2  0.3561790E-007  0.6806250E+03  0.7818608E-02  0.1008972E+00
         -1   -1    0    0    0  501 -0.00000000000E+00  0.00000000000E+00  0.33811346105E+03  0.33811346109E+03  0.50400000000E-02 0.  1.
          1   -1    0    0  501    0  0.00000000000E+00 -0.00000000000E+00 -0.22855851402E+04  0.22855851402E+04  0.50400000000E-02 0. -1.
    8880023    1    1    2    0    0  0.16807189213E+03  0.34525299793E+02 -0.21877535115E+04  0.22911821819E+04  0.65864270000E+03 0. -1.
    8880022    1    1    2    0    0 -0.16807189213E+03 -0.34525299793E+02  0.24028183231E+03  0.33251641945E+03  0.15294330000E+03 0.  0.
<mgrwt>
<rscale>  0 0.51885123E+03</rscale>
<asrwt>0</asrwt>
<pdfrwt beam="1">  1        1 0.35162847E+00 0.68062498E+03</pdfrwt>
<pdfrwt beam="2">  1       -1 0.52017457E-01 0.68062498E+03</pdfrwt>
<totfact> 0.75482760E+00</totfact>
</mgrwt>
</event>
<event>
 4    2  0.3179755E-007  0.9142081E+03  0.7818608E-02  0.9503597E-01
          1   -1    0    0  501    0  0.00000000000E+00  0.00000000000E+00  0.99118560139E+03  0.99118560141E+03  0.50400000000E-02 0. -1.
         -1   -1    0    0    0  501 -0.00000000000E+00 -0.00000000000E+00 -0.66925722717E+03  0.66925722718E+03  0.50400000000E-02 0.  1.
    8880023    1    1    2    0    0 -0.62307147093E+03  0.11725243735E+03  0.41072110272E+03  0.10022316211E+04  0.65864270000E+03 0.  1.
    8880022    1    1    2    0    0  0.62307147093E+03 -0.11725243735E+03 -0.88792728490E+02  0.65821120744E+03  0.15294330000E+03 0. -1.
<mgrwt>
<rscale>  0 0.84019113E+03</rscale>
<asrwt>0</asrwt>
<pdfrwt beam="1">  1        1 0.15249009E+00 0.91420807E+03</pdfrwt>
<pdfrwt beam="2">  1       -1 0.10296265E+00 0.91420807E+03</pdfrwt>
<totfact> 0.13853577E+01</totfact>
</mgrwt>
</event>
<event>
 4    2  0.3179755E-007  0.9430964E+03  0.7818608E-02  0.9460117E-01
          1   -1    0    0  501    0  0.00000000000E+00  0.00000000000E+00  0.19222940047E+04  0.19222940047E+04  0.50400000000E-02 0. -1.
         -1   -1    0    0    0  501 -0.00000000000E+00 -0.00000000000E+00 -0.52853125121E+03  0.52853125124E+03  0.50400000000E-02 0.  1.
    8880023    1    1    2    0    0  0.43088344989E+03 -0.51957688661E+03  0.56152887572E+02  0.94476665984E+03  0.65864270000E+03 0.  1.
    8880022    1    1    2    0    0 -0.43088344989E+03  0.51957688661E+03  0.13376098659E+04  0.15060585961E+04  0.15294330000E+03 0.  0.
<mgrwt>
<rscale>  0 0.87289181E+03</rscale>
<asrwt>0</asrwt>
<pdfrwt beam="1">  1        1 0.29573754E+00 0.94309644E+03</pdfrwt>
<pdfrwt beam="2">  1       -1 0.81312501E-01 0.94309644E+03</pdfrwt>
<totfact> 0.51601183E+00</totfact>
</mgrwt>
</event>
<event>
 4    2  0.3179755E-007  0.6816477E+03  0.7818608E-02  0.1008407E+00
          1   -1    0    0  501    0  0.00000000000E+00  0.00000000000E+00  0.19772374283E+04  0.19772374284E+04  0.50400000000E-02 0. -1.
         -1   -1    0    0    0  501 -0.00000000000E+00 -0.00000000000E+00 -0.20352699585E+03  0.20352699591E+03  0.50400000000E-02 0.  1.
    8880023    1    1    2    0    0 -0.17416385458E+03  0.22366965234E+02  0.18198973175E+04  0.19433655811E+04  0.65864270000E+03 0. -1.
    8880022    1    1    2    0    0  0.17416385458E+03 -0.22366965234E+02 -0.46186884989E+02  0.23739884316E+03  0.15294330000E+03 0.  0.
<mgrwt>
<rscale>  0 0.52112858E+03</rscale>
<asrwt>0</asrwt>
<pdfrwt beam="1">  1        1 0.30419036E+00 0.68164766E+03</pdfrwt>
<pdfrwt beam="2">  1       -1 0.31311847E-01 0.68164766E+03</pdfrwt>
<totfact> 0.30586903E+01</totfact>
</mgrwt>
</event>
<event>
 4    2  0.3179755E-007  0.9427804E+03  0.7818608E-02  0.9460578E-01
         -1   -1    0    0    0  501 -0.00000000000E+00  0.00000000000E+00  0.16559847753E+04  0.16559847753E+04  0.50400000000E-02 0.  1.
          1   -1    0    0  501    0  0.00000000000E+00 -0.00000000000E+00 -0.68404555850E+03  0.68404555852E+03  0.50400000000E-02 0. -1.
    8880023    1    1    2    0    0  0.19791179895E+03  0.64486867373E+03 -0.21433373290E+03  0.96683702962E+03  0.65864270000E+03 0. -1.
    8880022    1    1    2    0    0 -0.19791179895E+03 -0.64486867373E+03  0.11862729497E+04  0.13731933042E+04  0.15294330000E+03 0.  0.
<mgrwt>
<rscale>  0 0.87253662E+03</rscale>
<asrwt>0</asrwt>
<pdfrwt beam="1">  1        1 0.10523778E+00 0.94278041E+03</pdfrwt>
<pdfrwt beam="2">  1       -1 0.25476689E+00 0.94278041E+03</pdfrwt>
<totfact> 0.18608353E+00</totfact>
</mgrwt>
</event>
<event>
 4    2  0.3179755E-007  0.7327909E+03  0.7818608E-02  0.9881467E-01
          1   -1    0    0  501    0  0.00000000000E+00  0.00000000000E+00  0.14433236062E+04  0.14433236062E+04  0.50400000000E-02 0. -1.
         -1   -1    0    0    0  501 -0.00000000000E+00 -0.00000000000E+00 -0.45816658916E+03  0.45816658919E+03  0.50400000000E-02 0.  1.
    8880023    1    1    2    0    0  0.13725230910E+03  0.29040333654E+03  0.12561550028E+04  0.14542722894E+04  0.65864270000E+03 0. -1.
    8880022    1    1    2    0    0 -0.13725230910E+03 -0.29040333654E+03 -0.27099798574E+03  0.44721790608E+03  0.15294330000E+03 0.  0.
<mgrwt>
<rscale>  0 0.61167932E+03</rscale>
<asrwt>0</asrwt>
<pdfrwt beam="1">  1        1 0.22204979E+00 0.73279090E+03</pdfrwt>
<pdfrwt beam="2">  1       -1 0.70487167E-01 0.73279090E+03</pdfrwt>
<totfact> 0.15124842E+01</totfact>
</mgrwt>
</event>
<event>
 4    2  0.3179755E-007  0.6798699E+03  0.7818608E-02  0.1009397E+00
         -1   -1    0    0    0  501 -0.00000000000E+00  0.00000000000E+00  0.13816622310E+03  0.13816622319E+03  0.50400000000E-02 0.  1.
          1   -1    0    0  501    0  0.00000000000E+00 -0.00000000000E+00 -0.27006353098E+04  0.27006353098E+04  0.50400000000E-02 0. -1.
    8880023    1    1    2    0    0 -0.12098300534E+03  0.11737106701E+03 -0.25163417088E+04  0.26065683679E+04  0.65864270000E+03 0. -1.
    8880022    1    1    2    0    0  0.12098300534E+03 -0.11737106701E+03 -0.46127377894E+02  0.23223316507E+03  0.15294330000E+03 0.  0.
<mgrwt>
<rscale>  0 0.51714853E+03</rscale>
<asrwt>0</asrwt>
<pdfrwt beam="1">  1        1 0.41548232E+00 0.67986989E+03</pdfrwt>
<pdfrwt beam="2">  1       -1 0.21256344E-01 0.67986989E+03</pdfrwt>
<totfact> 0.19242774E+01</totfact>
</mgrwt>
</event>
<event>
 4    2  0.3179755E-007  0.6998871E+03  0.7818608E-02  0.9997670E-01
         -1   -1    0    0    0  501 -0.00000000000E+00  0.00000000000E+00  0.41731062042E+03  0.41731062046E+03  0.50400000000E-02 0.  1.
          1   -1    0    0  501    0  0.00000000000E+00 -0.00000000000E+00 -0.14006849706E+04  0.14006849706E+04  0.50400000000E-02 0. -1.
    8880023    1    1    2    0    0  0.17130756187E+03  0.16335682576E+03 -0.12483550627E+04  0.14311646663E+04  0.65864270000E+03 0. -1.
    8880022    1    1    2    0    0 -0.17130756187E+03 -0.16335682576E+03  0.26498071255E+03  0.38683092472E+03  0.15294330000E+03 0.  0.
<mgrwt>
<rscale>  0 0.55752525E+03</rscale>
<asrwt>0</asrwt>
<pdfrwt beam="1">  1        1 0.21548999E+00 0.69988709E+03</pdfrwt>
<pdfrwt beam="2">  1       -1 0.64201634E-01 0.69988709E+03</pdfrwt>
<totfact> 0.19646663E+01</totfact>
</mgrwt>
</event>
<event>
 4    2  0.3179755E-007  0.6842318E+03  0.7818608E-02  0.1007024E+00
          1   -1    0    0  501    0  0.00000000000E+00  0.00000000000E+00  0.35335513354E+03  0.35335513358E+03  0.50400000000E-02 0. -1.
         -1   -1    0    0    0  501 -0.00000000000E+00 -0.00000000000E+00 -0.11646930712E+04  0.11646930712E+04  0.50400000000E-02 0.  1.
    8880023    1    1    2    0    0 -0.41127010157E+02  0.18075275474E+03 -0.13034678083E+02  0.68435597346E+03  0.65864270000E+03 0. -1.
    8880022    1    1    2    0    0  0.41127010157E+02 -0.18075275474E+03 -0.79830325956E+03  0.83369223131E+03  0.15294330000E+03 0.  0.
<mgrwt>
<rscale>  0 0.52674548E+03</rscale>
<asrwt>0</asrwt>
<pdfrwt beam="1">  1        1 0.54362329E-01 0.68423183E+03</pdfrwt>
<pdfrwt beam="2">  1       -1 0.17918355E+00 0.68423183E+03</pdfrwt>
<totfact> 0.15450095E+01</totfact>
</mgrwt>
</event>
<event>
 4    2  0.3610362E-007  0.6962438E+03  0.7818608E-02  0.1001315E+00
          1   -1    0    0  501    0  0.00000000000E+00  0.00000000000E+00  0.13638114345E+04  0.13638114345E+04  0.50400000000E-02 0. -1.
         -1   -1    0    0    0  501 -0.00000000000E+00 -0.00000000000E+00 -0.54833338448E+03  0.54833338450E+03  0.50400000000E-02 0.  1.
    8880023    1    1    2    0    0 -0.13551275101E+03 -0.18050352297E+03  0.12315295578E+04  0.14147156907E+04  0.65864270000E+03 0. -1.
    8880022    1    1    2    0    0  0.13551275101E+03  0.18050352297E+03 -0.41605150782E+03  0.49742912828E+03  0.15294330000E+03 0.  0.
<mgrwt>
<rscale>  0 0.55077161E+03</rscale>
<asrwt>0</asrwt>
<pdfrwt beam="1">  1        1 0.20981714E+00 0.69624380E+03</pdfrwt>
<pdfrwt beam="2">  1       -1 0.84358984E-01 0.69624380E+03</pdfrwt>
<totfact> 0.11839816E+01</totfact>
</mgrwt>
</event>
<event>
 4    2  0.3179755E-007  0.7207365E+03  0.7818608E-02  0.9920102E-01
          1   -1    0    0  501    0  0.00000000000E+00  0.00000000000E+00  0.22771709585E+04  0.22771709585E+04  0.50400000000E-02 0. -1.
         -1   -1    0    0    0  501 -0.00000000000E+00 -0.00000000000E+00 -0.23231841980E+03  0.23231841985E+03  0.50400000000E-02 0.  1.
    8880023    1    1    2    0    0  0.19752026303E+03  0.21595528517E+03  0.20564259645E+04  0.21790706490E+04  0.65864270000E+03 0. -1.
    8880022    1    1    2    0    0 -0.19752026303E+03 -0.21595528517E+03 -0.11573425832E+02  0.33041872934E+03  0.15294330000E+03 0.  0.
<mgrwt>
<rscale>  0 0.59296891E+03</rscale>
<asrwt>0</asrwt>
<pdfrwt beam="1">  1        1 0.35033400E+00 0.72073653E+03</pdfrwt>
<pdfrwt beam="2">  1       -1 0.35741295E-01 0.72073653E+03</pdfrwt>
<totfact> 0.15160671E+01</totfact>
</mgrwt>
</event>
<event>
 4    2  0.3179755E-007  0.7060283E+03  0.7818608E-02  0.9973056E-01
         -1   -1    0    0    0  501 -0.00000000000E+00  0.00000000000E+00  0.24049293392E+03  0.24049293397E+03  0.50400000000E-02 0.  1.
          1   -1    0    0  501    0  0.00000000000E+00 -0.00000000000E+00 -0.10841764619E+04  0.10841764619E+04  0.50400000000E-02 0. -1.
    8880023    1    1    2    0    0 -0.22802917427E+03  0.11255423454E+03 -0.47294292461E+03  0.84979466710E+03  0.65864270000E+03 0.  0.
    8880022    1    1    2    0    0  0.22802917427E+03 -0.11255423454E+03 -0.37074060337E+03  0.47487472878E+03  0.15294330000E+03 0.  0.
<mgrwt>
<rscale>  0 0.56847625E+03</rscale>
<asrwt>0</asrwt>
<pdfrwt beam="1">  1        1 0.16679638E+00 0.70602830E+03</pdfrwt>
<pdfrwt beam="2">  1       -1 0.36998914E-01 0.70602830E+03</pdfrwt>
<totfact> 0.93689650E+01</totfact>
</mgrwt>
</event>
<event>
 4    2  0.3179755E-007  0.8503006E+03  0.7818608E-02  0.9611055E-01
         -1   -1    0    0    0  501 -0.00000000000E+00  0.00000000000E+00  0.60933716972E+03  0.60933716974E+03  0.50400000000E-02 0.  1.
          1   -1    0    0  501    0  0.00000000000E+00 -0.00000000000E+00 -0.10869876237E+04  0.10869876237E+04  0.50400000000E-02 0. -1.
    8880023    1    1    2    0    0 -0.32863867893E+03  0.42567307035E+03  0.14161123711E+03  0.86201211874E+03  0.65864270000E+03 0.  0.
    8880022    1    1    2    0    0  0.32863867893E+03 -0.42567307035E+03 -0.61926169107E+03  0.83431267469E+03  0.15294330000E+03 0.  0.
<mgrwt>
<rscale>  0 0.76568777E+03</rscale>
<asrwt>0</asrwt>
<pdfrwt beam="1">  1        1 0.16722887E+00 0.85030062E+03</pdfrwt>
<pdfrwt beam="2">  1       -1 0.93744180E-01 0.85030062E+03</pdfrwt>
<totfact> 0.14578545E+01</totfact>
</mgrwt>
</event>
<event>
 4    2  0.3179755E-007  0.7089073E+03  0.7818608E-02  0.9962081E-01
          1   -1    0    0  501    0  0.00000000000E+00  0.00000000000E+00  0.75458903181E+03  0.75458903183E+03  0.50400000000E-02 0. -1.
         -1   -1    0    0    0  501 -0.00000000000E+00 -0.00000000000E+00 -0.83019501561E+03  0.83019501562E+03  0.50400000000E-02 0.  1.
    8880023    1    1    2    0    0 -0.26107419822E+03  0.24075641502E+02  0.54482631086E+03  0.89408349094E+03  0.65864270000E+03 0. -1.
    8880022    1    1    2    0    0  0.26107419822E+03 -0.24075641502E+02 -0.62043229466E+03  0.69070055651E+03  0.15294330000E+03 0.  0.
<mgrwt>
<rscale>  0 0.57344640E+03</rscale>
<asrwt>0</asrwt>
<pdfrwt beam="1">  1        1 0.11609062E+00 0.70890731E+03</pdfrwt>
<pdfrwt beam="2">  1       -1 0.12772231E+00 0.70890731E+03</pdfrwt>
<totfact> 0.13311238E+01</totfact>
</mgrwt>
</event>
<event>
 4    2  0.3179755E-007  0.7108519E+03  0.7818608E-02  0.9954851E-01
         -1   -1    0    0    0  501 -0.00000000000E+00  0.00000000000E+00  0.98043723926E+02  0.98043724055E+02  0.50400000000E-02 0.  1.
          1   -1    0    0  501    0  0.00000000000E+00 -0.00000000000E+00 -0.26574756091E+04  0.26574756091E+04  0.50400000000E-02 0. -1.
    8880023    1    1    2    0    0 -0.21510290176E+03  0.15884255079E+03 -0.18625292235E+04  0.19935710494E+04  0.65864270000E+03 0.  1.
    8880022    1    1    2    0    0  0.21510290176E+03 -0.15884255079E+03 -0.69690266171E+03  0.76194828380E+03  0.15294330000E+03 0.  0.
<mgrwt>
<rscale>  0 0.57675049E+03</rscale>
<asrwt>0</asrwt>
<pdfrwt beam="1">  1        1 0.40884235E+00 0.71085190E+03</pdfrwt>
<pdfrwt beam="2">  1       -1 0.15083652E-01 0.71085190E+03</pdfrwt>
<totfact> 0.36109594E+01</totfact>
</mgrwt>
</event>
<event>
 4    2  0.3179755E-007  0.1233811E+04  0.7818608E-02  0.9124936E-01
         -1   -1    0    0    0  501 -0.00000000000E+00  0.00000000000E+00  0.94457978624E+03  0.94457978625E+03  0.50400000000E-02 0.  1.
          1   -1    0    0  501    0  0.00000000000E+00 -0.00000000000E+00 -0.25753710426E+04  0.25753710426E+04  0.50400000000E-02 0. -1.
    8880023    1    1    2    0    0 -0.87301015128E+03  0.57125540761E+03  0.34435227430E+03  0.12809637622E+04  0.65864270000E+03 0.  1.
    8880022    1    1    2    0    0  0.87301015128E+03 -0.57125540761E+03 -0.19751435306E+04  0.22389870666E+04  0.15294330000E+03 0.  0.
<mgrwt>
<rscale>  0 0.11862966E+04</rscale>
<asrwt>0</asrwt>
<pdfrwt beam="1">  1        1 0.39621093E+00 0.12338110E+04</pdfrwt>
<pdfrwt beam="2">  1       -1 0.14531997E+00 0.12338110E+04</pdfrwt>
<totfact> 0.44829430E-01</totfact>
</mgrwt>
</event>
<event>
 4    2  0.3179755E-007  0.1002823E+04  0.7818608E-02  0.9377873E-01
          1   -1    0    0  501    0  0.00000000000E+00  0.00000000000E+00  0.36329819030E+04  0.36329819030E+04  0.50400000000E-02 0. -1.
         -1   -1    0    0    0  501 -0.00000000000E+00 -0.00000000000E+00 -0.79415522281E+03  0.79415522282E+03  0.50400000000E-02 0.  1.
    8880023    1    1    2    0    0 -0.69661967767E+03  0.29421994926E+03  0.33531543812E+04  0.34998998363E+04  0.65864270000E+03 0. -1.
    8880022    1    1    2    0    0  0.69661967767E+03 -0.29421994926E+03 -0.51432770106E+03  0.92723728945E+03  0.15294330000E+03 0.  0.
<mgrwt>
<rscale>  0 0.93919216E+03</rscale>
<asrwt>0</asrwt>
<pdfrwt beam="1">  1        1 0.55892031E+00 0.10028233E+04</pdfrwt>
<pdfrwt beam="2">  1       -1 0.12217772E+00 0.10028233E+04</pdfrwt>
<totfact> 0.12079773E-01</totfact>
</mgrwt>
</event>
<event>
 4    2  0.3179755E-007  0.1037883E+04  0.7818608E-02  0.9333591E-01
          1   -1    0    0  501    0  0.00000000000E+00  0.00000000000E+00  0.30146965667E+04  0.30146965667E+04  0.50400000000E-02 0. -1.
         -1   -1    0    0    0  501 -0.00000000000E+00 -0.00000000000E+00 -0.46055010580E+03  0.46055010583E+03  0.50400000000E-02 0.  1.
    8880023    1    1    2    0    0 -0.44793225625E+03  0.66539328589E+03  0.24389416088E+04  0.26505919920E+04  0.65864270000E+03 0.  0.
    8880022    1    1    2    0    0  0.44793225625E+03 -0.66539328589E+03  0.11520485216E+03  0.82465468050E+03  0.15294330000E+03 0.  0.
<mgrwt>
<rscale>  0 0.97748358E+03</rscale>
<asrwt>0</asrwt>
<pdfrwt beam="1">  1        1 0.46379948E+00 0.10378833E+04</pdfrwt>
<pdfrwt beam="2">  1       -1 0.70853861E-01 0.10378833E+04</pdfrwt>
<totfact> 0.11996854E+00</totfact>
</mgrwt>
</event>
<event>
 4    2  0.3179755E-007  0.7334015E+03  0.7818608E-02  0.9879602E-01
         -1   -1    0    0    0  501 -0.00000000000E+00  0.00000000000E+00  0.47537483364E+03  0.47537483367E+03  0.50400000000E-02 0.  1.
          1   -1    0    0  501    0  0.00000000000E+00 -0.00000000000E+00 -0.10858842480E+04  0.10858842480E+04  0.50400000000E-02 0. -1.
    8880023    1    1    2    0    0  0.27760403573E+03  0.16432777619E+03 -0.85658172591E+03  0.11276568973E+04  0.65864270000E+03 0.  0.
    8880022    1    1    2    0    0 -0.27760403573E+03 -0.16432777619E+03  0.24607231160E+03  0.43360218430E+03  0.15294330000E+03 0.  1.
<mgrwt>
<rscale>  0 0.61260113E+03</rscale>
<asrwt>0</asrwt>
<pdfrwt beam="1">  1        1 0.16705911E+00 0.73340154E+03</pdfrwt>
<pdfrwt beam="2">  1       -1 0.73134591E-01 0.73340154E+03</pdfrwt>
<totfact> 0.25240053E+01</totfact>
</mgrwt>
</event>
<event>
 4    2  0.3179755E-007  0.7117906E+03  0.7818608E-02  0.9951411E-01
         -1   -1    0    0    0  501 -0.00000000000E+00  0.00000000000E+00  0.17389065057E+03  0.17389065065E+03  0.50400000000E-02 0.  1.
          1   -1    0    0  501    0  0.00000000000E+00 -0.00000000000E+00 -0.18160257971E+04  0.18160257971E+04  0.50400000000E-02 0. -1.
    8880023    1    1    2    0    0  0.26289204012E+03  0.61019861825E+02 -0.14744995475E+04  0.16373132779E+04  0.65864270000E+03 0. -1.
    8880022    1    1    2    0    0 -0.26289204012E+03 -0.61019861825E+02 -0.16763559906E+03  0.35260316984E+03  0.15294330000E+03 0.  0.
<mgrwt>
<rscale>  0 0.57833100E+03</rscale>
<asrwt>0</asrwt>
<pdfrwt beam="1">  1        1 0.27938857E+00 0.71179060E+03</pdfrwt>
<pdfrwt beam="2">  1       -1 0.26752409E-01 0.71179060E+03</pdfrwt>
<totfact> 0.51272252E+01</totfact>
</mgrwt>
</event>
<event>
 4    2  0.3179755E-007  0.1153516E+04  0.7818608E-02  0.9203688E-01
          1   -1    0    0  501    0  0.00000000000E+00  0.00000000000E+00  0.22479823716E+04  0.22479823716E+04  0.50400000000E-02 0. -1.
         -1   -1    0    0    0  501 -0.00000000000E+00 -0.00000000000E+00 -0.96581905947E+03  0.96581905949E+03  0.50400000000E-02 0.  1.
    8880023    1    1    2    0    0 -0.71686540097E+03 -0.61878354263E+03  0.17891779705E+04  0.21287924023E+04  0.65864270000E+03 0.  0.
    8880022    1    1    2    0    0  0.71686540097E+03  0.61878354263E+03 -0.50701465838E+03  0.10850090288E+04  0.15294330000E+03 0.  0.
<mgrwt>
<rscale>  0 0.11015441E+04</rscale>
<asrwt>0</asrwt>
<pdfrwt beam="1">  1        1 0.34584344E+00 0.11535161E+04</pdfrwt>
<pdfrwt beam="2">  1       -1 0.14858755E+00 0.11535161E+04</pdfrwt>
<totfact> 0.71657857E-01</totfact>
</mgrwt>
</event>
<event>
 4    2  0.3179755E-007  0.8714985E+03  0.7818608E-02  0.9573428E-01
          1   -1    0    0  501    0  0.00000000000E+00  0.00000000000E+00  0.43548589778E+04  0.43548589778E+04  0.50400000000E-02 0. -1.
         -1   -1    0    0    0  501 -0.00000000000E+00 -0.00000000000E+00 -0.15126365493E+03  0.15126365501E+03  0.50400000000E-02 0.  1.
    8880023    1    1    2    0    0  0.35652903319E+03 -0.44563033732E+03  0.33924632620E+04  0.35026156711E+04  0.65864270000E+03 0. -1.
    8880022    1    1    2    0    0 -0.35652903319E+03  0.44563033732E+03  0.81113206087E+03  0.10035069617E+04  0.15294330000E+03 0.  0.
<mgrwt>
<rscale>  0 0.79080116E+03</rscale>
<asrwt>0</asrwt>
<pdfrwt beam="1">  1        1 0.66997830E+00 0.87149845E+03</pdfrwt>
<pdfrwt beam="2">  1       -1 0.23271332E-01 0.87149845E+03</pdfrwt>
<totfact> 0.77670327E-01</totfact>
</mgrwt>
</event>
<event>
 4    2  0.3179755E-007  0.7123805E+03  0.7818608E-02  0.9949265E-01
          1   -1    0    0  501    0  0.00000000000E+00  0.00000000000E+00  0.67652716220E+03  0.67652716221E+03  0.50400000000E-02 0. -1.
         -1   -1    0    0    0  501 -0.00000000000E+00 -0.00000000000E+00 -0.14892519094E+04  0.14892519094E+04  0.50400000000E-02 0.  1.
    8880023    1    1    2    0    0  0.96100994369E+02 -0.25385101374E+03  0.46493824746E+03  0.85067826969E+03  0.65864270000E+03 0. -1.
    8880022    1    1    2    0    0 -0.96100994369E+02  0.25385101374E+03 -0.12776629946E+04  0.13151008019E+04  0.15294330000E+03 0.  0.
<mgrwt>
<rscale>  0 0.57931954E+03</rscale>
<asrwt>0</asrwt>
<pdfrwt beam="1">  1        1 0.10408110E+00 0.71238048E+03</pdfrwt>
<pdfrwt beam="2">  1       -1 0.22911568E+00 0.71238048E+03</pdfrwt>
<totfact> 0.28776063E+00</totfact>
</mgrwt>
</event>
<event>
 4    2  0.3179755E-007  0.6828343E+03  0.7818608E-02  0.1007764E+00
         -1   -1    0    0    0  501 -0.00000000000E+00  0.00000000000E+00  0.31643691047E+03  0.31643691051E+03  0.50400000000E-02 0.  1.
          1   -1    0    0  501    0  0.00000000000E+00 -0.00000000000E+00 -0.76635741039E+03  0.76635741041E+03  0.50400000000E-02 0. -1.
    8880023    1    1    2    0    0 -0.12721122247E+03 -0.12755311255E+03 -0.49349569949E+03  0.84249670820E+03  0.65864270000E+03 0. -1.
    8880022    1    1    2    0    0  0.12721122247E+03  0.12755311255E+03  0.43575199574E+02  0.24029761272E+03  0.15294330000E+03 0.  0.
<mgrwt>
<rscale>  0 0.52373151E+03</rscale>
<asrwt>0</asrwt>
<pdfrwt beam="1">  1        1 0.11790114E+00 0.68283431E+03</pdfrwt>
<pdfrwt beam="2">  1       -1 0.48682602E-01 0.68283431E+03</pdfrwt>
<totfact> 0.10234810E+02</totfact>
</mgrwt>
</event>
<event>
 4    2  0.3179755E-007  0.1377672E+04  0.7818608E-02  0.9001229E-01
         -1   -1    0    0    0  501 -0.00000000000E+00  0.00000000000E+00  0.12288654425E+04  0.12288654425E+04  0.50400000000E-02 0.  1.
          1   -1    0    0  501    0  0.00000000000E+00 -0.00000000000E+00 -0.20400778740E+04  0.20400778740E+04  0.50400000000E-02 0. -1.
    8880023    1    1    2    0    0 -0.11503947442E+04 -0.37518256248E+03  0.51166500897E+03  0.14696194440E+04  0.65864270000E+03 0.  0.
    8880022    1    1    2    0    0  0.11503947442E+04  0.37518256248E+03 -0.13228774404E+04  0.17993238725E+04  0.15294330000E+03 0.  0.
<mgrwt>
<rscale>  0 0.13363455E+04</rscale>
<asrwt>0</asrwt>
<pdfrwt beam="1">  1        1 0.31385813E+00 0.13776720E+04</pdfrwt>
<pdfrwt beam="2">  1       -1 0.18905622E+00 0.13776720E+04</pdfrwt>
<totfact> 0.48192110E-01</totfact>
</mgrwt>
</event>
<event>
 4    2  0.3179755E-007  0.7365335E+03  0.7818608E-02  0.9870162E-01
         -1   -1    0    0    0  501 -0.00000000000E+00  0.00000000000E+00  0.31004938533E+03  0.31004938537E+03  0.50400000000E-02 0.  1.
          1   -1    0    0  501    0  0.00000000000E+00 -0.00000000000E+00 -0.17232643808E+04  0.17232643808E+04  0.50400000000E-02 0. -1.
    8880023    1    1    2    0    0 -0.24546924661E+03  0.22003690958E+03 -0.14898040698E+04  0.16619259205E+04  0.65864270000E+03 0.  0.
    8880022    1    1    2    0    0  0.24546924661E+03 -0.22003690958E+03  0.76589074304E+02  0.37138784569E+03  0.15294330000E+03 0.  0.
<mgrwt>
<rscale>  0 0.61729398E+03</rscale>
<asrwt>0</asrwt>
<pdfrwt beam="1">  1        1 0.26511759E+00 0.73653350E+03</pdfrwt>
<pdfrwt beam="2">  1       -1 0.47699907E-01 0.73653350E+03</pdfrwt>
<totfact> 0.20953151E+01</totfact>
</mgrwt>
</event>
<event>
 4    2  0.3179755E-007  0.7448787E+03  0.7818608E-02  0.9845957E-01
         -1   -1    0    0    0  501 -0.00000000000E+00  0.00000000000E+00  0.10345023732E+04  0.10345023732E+04  0.50400000000E-02 0.  1.
          1   -1    0    0  501    0  0.00000000000E+00 -0.00000000000E+00 -0.45830020025E+03  0.45830020028E+03  0.50400000000E-02 0. -1.
    8880023    1    1    2    0    0  0.30976992378E+02 -0.34651757938E+03 -0.64715232910E+02  0.74768460898E+03  0.65864270000E+03 0. -1.
    8880022    1    1    2    0    0 -0.30976992378E+02  0.34651757938E+03  0.64091740590E+03  0.74511796454E+03  0.15294330000E+03 0.  0.
<mgrwt>
<rscale>  0 0.62953473E+03</rscale>
<asrwt>0</asrwt>
<pdfrwt beam="1">  1        1 0.70507723E-01 0.74487866E+03</pdfrwt>
<pdfrwt beam="2">  1       -1 0.15915421E+00 0.74487866E+03</pdfrwt>
<totfact> 0.15233200E+01</totfact>
</mgrwt>
</event>
<event>
 4    2  0.3179755E-007  0.1005822E+04  0.7818608E-02  0.9373980E-01
          1   -1    0    0  501    0  0.00000000000E+00  0.00000000000E+00  0.10099484357E+04  0.10099484357E+04  0.50400000000E-02 0. -1.
         -1   -1    0    0    0  501 -0.00000000000E+00 -0.00000000000E+00 -0.10591629997E+04  0.10591629997E+04  0.50400000000E-02 0.  1.
    8880023    1    1    2    0    0  0.23155414140E+03 -0.72405112737E+03  0.49574461482E+03  0.11213564486E+04  0.65864270000E+03 0. -1.
    8880022    1    1    2    0    0 -0.23155414140E+03  0.72405112737E+03 -0.54495917885E+03  0.94775498683E+03  0.15294330000E+03 0.  0.
<mgrwt>
<rscale>  0 0.94248293E+03</rscale>
<asrwt>0</asrwt>
<pdfrwt beam="1">  1        1 0.15537668E+00 0.10058218E+04</pdfrwt>
<pdfrwt beam="2">  1       -1 0.16294815E+00 0.10058218E+04</pdfrwt>
<totfact> 0.41354764E+00</totfact>
</mgrwt>
</event>
<event>
 4    2  0.3179755E-007  0.6663956E+03  0.7818608E-02  0.1018390E+00
         -1   -1    0    0    0  501 -0.00000000000E+00  0.00000000000E+00  0.18389646987E+04  0.18389646987E+04  0.50400000000E-02 0.  1.
          1   -1    0    0  501    0  0.00000000000E+00 -0.00000000000E+00 -0.22370145847E+03  0.22370145853E+03  0.50400000000E-02 0. -1.
    8880023    1    1    2    0    0 -0.89283283960E+02  0.47973351756E+02  0.29339247877E+03  0.72812244859E+03  0.65864270000E+03 0.  0.
    8880022    1    1    2    0    0  0.89283283960E+02 -0.47973351756E+02  0.13218707615E+04  0.13345437087E+04  0.15294330000E+03 0.  1.
<mgrwt>
<rscale>  0 0.48272056E+03</rscale>
<asrwt>0</asrwt>
<pdfrwt beam="1">  1        1 0.34415608E-01 0.66639564E+03</pdfrwt>
<pdfrwt beam="2">  1       -1 0.28291765E+00 0.66639564E+03</pdfrwt>
<totfact> 0.57761878E+00</totfact>
</mgrwt>
</event>
<event>
 4    2  0.3179755E-007  0.6811125E+03  0.7818608E-02  0.1008701E+00
          1   -1    0    0  501    0  0.00000000000E+00  0.00000000000E+00  0.90740052092E+03  0.90740052093E+03  0.50400000000E-02 0. -1.
         -1   -1    0    0    0  501 -0.00000000000E+00 -0.00000000000E+00 -0.23601487832E+03  0.23601487837E+03  0.50400000000E-02 0.  1.
    8880023    1    1    2    0    0 -0.40095769165E+02 -0.16880866702E+03  0.58043276924E+03  0.89488347992E+03  0.65864270000E+03 0.  1.
    8880022    1    1    2    0    0  0.40095769165E+02  0.16880866702E+03  0.90952873366E+02  0.24853191938E+03  0.15294330000E+03 0. -1.
<mgrwt>
<rscale>  0 0.51994091E+03</rscale>
<asrwt>0</asrwt>
<pdfrwt beam="1">  1        1 0.13960008E+00 0.68111250E+03</pdfrwt>
<pdfrwt beam="2">  1       -1 0.36309981E-01 0.68111250E+03</pdfrwt>
<totfact> 0.13318116E+02</totfact>
</mgrwt>
</event>
<event>
 4    2  0.3179755E-007  0.6599664E+03  0.7818608E-02  0.1024191E+00
         -1   -1    0    0    0  501 -0.00000000000E+00  0.00000000000E+00  0.18263288933E+03  0.18263288939E+03  0.50400000000E-02 0.  1.
          1   -1    0    0  501    0  0.00000000000E+00 -0.00000000000E+00 -0.39284381105E+04  0.39284381105E+04  0.50400000000E-02 0. -1.
    8880023    1    1    2    0    0  0.38718499121E+02 -0.15695705687E+02 -0.38597881479E+04  0.39158039060E+04  0.65864270000E+03 0. -1.
    8880022    1    1    2    0    0 -0.38718499121E+02  0.15695705687E+02  0.11398292674E+03  0.19526709388E+03  0.15294330000E+03 0.  0.
<mgrwt>
<rscale>  0 0.46204135E+03</rscale>
<asrwt>0</asrwt>
<pdfrwt beam="1">  1        1 0.60437503E+00 0.65996643E+03</pdfrwt>
<pdfrwt beam="2">  1       -1 0.28097371E-01 0.65996643E+03</pdfrwt>
<totfact> 0.14250886E+00</totfact>
</mgrwt>
</event>
<event>
 4    2  0.3179755E-007  0.1099307E+04  0.7818608E-02  0.9261828E-01
         -1   -1    0    0    0  501 -0.00000000000E+00  0.00000000000E+00  0.57314001794E+03  0.57314001796E+03  0.50400000000E-02 0.  1.
          1   -1    0    0  501    0  0.00000000000E+00 -0.00000000000E+00 -0.18779592684E+04  0.18779592684E+04  0.50400000000E-02 0. -1.
    8880023    1    1    2    0    0 -0.83594037023E+03  0.27544272035E+03 -0.10546193646E+04  0.15233834728E+04  0.65864270000E+03 0.  0.
    8880022    1    1    2    0    0  0.83594037023E+03 -0.27544272035E+03 -0.25019988581E+03  0.92771581352E+03  0.15294330000E+03 0.  0.
<mgrwt>
<rscale>  0 0.10437425E+04</rscale>
<asrwt>0</asrwt>
<pdfrwt beam="1">  1        1 0.28891681E+00 0.10993067E+04</pdfrwt>
<pdfrwt beam="2">  1       -1 0.88175388E-01 0.10993067E+04</pdfrwt>
<totfact> 0.45462763E+00</totfact>
</mgrwt>
</event>
<event>
 4    2  0.3179755E-007  0.9229119E+03  0.7818608E-02  0.9490209E-01
          1   -1    0    0  501    0  0.00000000000E+00  0.00000000000E+00  0.17978254655E+04  0.17978254655E+04  0.50400000000E-02 0. -1.
         -1   -1    0    0    0  501 -0.00000000000E+00 -0.00000000000E+00 -0.49330506336E+03  0.49330506338E+03  0.50400000000E-02 0.  1.
    8880023    1    1    2    0    0 -0.47285756651E+03 -0.44086498457E+03  0.13385961709E+04  0.16259170114E+04  0.65864270000E+03 0.  0.
    8880022    1    1    2    0    0  0.47285756651E+03  0.44086498457E+03 -0.34075768779E+02  0.66521351750E+03  0.15294330000E+03 0.  0.
<mgrwt>
<rscale>  0 0.85009570E+03</rscale>
<asrwt>0</asrwt>
<pdfrwt beam="1">  1        1 0.27658854E+00 0.92291192E+03</pdfrwt>
<pdfrwt beam="2">  1       -1 0.75893085E-01 0.92291192E+03</pdfrwt>
<totfact> 0.72623134E+00</totfact>
</mgrwt>
</event>
<event>
 4    2  0.3179755E-007  0.6739637E+03  0.7818608E-02  0.1012968E+00
          1   -1    0    0  501    0  0.00000000000E+00  0.00000000000E+00  0.12975999964E+04  0.12975999964E+04  0.50400000000E-02 0. -1.
         -1   -1    0    0    0  501 -0.00000000000E+00 -0.00000000000E+00 -0.24609655695E+03  0.24609655700E+03  0.50400000000E-02 0.  1.
    8880023    1    1    2    0    0  0.12894364002E+03  0.61566527182E+02  0.11336413818E+04  0.13188517310E+04  0.65864270000E+03 0. -1.
    8880022    1    1    2    0    0 -0.12894364002E+03 -0.61566527182E+02 -0.82137942352E+02  0.22484482240E+03  0.15294330000E+03 0.  0.
<mgrwt>
<rscale>  0 0.50312078E+03</rscale>
<asrwt>0</asrwt>
<pdfrwt beam="1">  1        1 0.19963077E+00 0.67396373E+03</pdfrwt>
<pdfrwt beam="2">  1       -1 0.37861009E-01 0.67396373E+03</pdfrwt>
<totfact> 0.63148692E+01</totfact>
</mgrwt>
</event>
<event>
 4    2  0.3179755E-007  0.7246983E+03  0.7818608E-02  0.9906998E-01
          1   -1    0    0  501    0  0.00000000000E+00  0.00000000000E+00  0.41519585723E+03  0.41519585726E+03  0.50400000000E-02 0. -1.
         -1   -1    0    0    0  501 -0.00000000000E+00 -0.00000000000E+00 -0.18953420199E+04  0.18953420199E+04  0.50400000000E-02 0.  1.
    8880023    1    1    2    0    0  0.23975254851E+03  0.18410894903E+03  0.66013842945E+02  0.72769871743E+03  0.65864270000E+03 0. -1.
    8880022    1    1    2    0    0 -0.23975254851E+03 -0.18410894903E+03 -0.15461600056E+04  0.15828391597E+04  0.15294330000E+03 0.  0.
<mgrwt>
<rscale>  0 0.59923341E+03</rscale>
<asrwt>0</asrwt>
<pdfrwt beam="1">  1        1 0.63876287E-01 0.72469828E+03</pdfrwt>
<pdfrwt beam="2">  1       -1 0.29159108E+00 0.72469828E+03</pdfrwt>
<totfact> 0.22526122E+00</totfact>
</mgrwt>
</event>
<event>
 4    2  0.3179755E-007  0.7116586E+03  0.7818608E-02  0.9951893E-01
         -1   -1    0    0    0  501 -0.00000000000E+00  0.00000000000E+00  0.77344826987E+03  0.77344826989E+03  0.50400000000E-02 0.  1.
          1   -1    0    0  501    0  0.00000000000E+00 -0.00000000000E+00 -0.48796517998E+03  0.48796518000E+03  0.50400000000E-02 0. -1.
    8880023    1    1    2    0    0 -0.23935791734E+03  0.12391764288E+03 -0.14963101672E+03  0.72721897819E+03  0.65864270000E+03 0.  0.
    8880022    1    1    2    0    0  0.23935791734E+03 -0.12391764288E+03  0.43511410661E+03  0.53419447170E+03  0.15294330000E+03 0.  0.
<mgrwt>
<rscale>  0 0.57810935E+03</rscale>
<asrwt>0</asrwt>
<pdfrwt beam="1">  1        1 0.75071566E-01 0.71165863E+03</pdfrwt>
<pdfrwt beam="2">  1       -1 0.11899204E+00 0.71165863E+03</pdfrwt>
<totfact> 0.29774129E+01</totfact>
</mgrwt>
</event>
<event>
 4    2  0.3179755E-007  0.7042787E+03  0.7818608E-02  0.9979894E-01
          1   -1    0    0  501    0  0.00000000000E+00  0.00000000000E+00  0.21208512285E+04  0.21208512285E+04  0.50400000000E-02 0. -1.
         -1   -1    0    0    0  501 -0.00000000000E+00 -0.00000000000E+00 -0.20422192172E+03  0.20422192178E+03  0.50400000000E-02 0.  1.
    8880023    1    1    2    0    0 -0.11018374021E+02 -0.24915232849E+03  0.19064063630E+04  0.20323370081E+04  0.65864270000E+03 0. -1.
    8880022    1    1    2    0    0  0.11018374021E+02  0.24915232849E+03  0.10222943794E+02  0.29273614220E+03  0.15294330000E+03 0.  0.
<mgrwt>
<rscale>  0 0.56540710E+03</rscale>
<asrwt>0</asrwt>
<pdfrwt beam="1">  1        1 0.32628481E+00 0.70427870E+03</pdfrwt>
<pdfrwt beam="2">  1       -1 0.31418757E-01 0.70427870E+03</pdfrwt>
<totfact> 0.24302343E+01</totfact>
</mgrwt>
</event>
<event>
 4    2  0.3179755E-007  0.1276096E+04  0.7818608E-02  0.9086482E-01
          1   -1    0    0  501    0  0.00000000000E+00  0.00000000000E+00  0.29554086033E+04  0.29554086033E+04  0.50400000000E-02 0. -1.
         -1   -1    0    0    0  501 -0.00000000000E+00 -0.00000000000E+00 -0.87128043174E+03  0.87128043176E+03  0.50400000000E-02 0.  1.
    8880023    1    1    2    0    0 -0.10053307981E+04 -0.42885914866E+03  0.23655022207E+04  0.26877539220E+04  0.65864270000E+03 0. -1.
    8880022    1    1    2    0    0  0.10053307981E+04  0.42885914866E+03 -0.28137404915E+03  0.11389351130E+04  0.15294330000E+03 0.  0.
<mgrwt>
<rscale>  0 0.12306043E+04</rscale>
<asrwt>0</asrwt>
<pdfrwt beam="1">  1        1 0.45467825E+00 0.12760958E+04</pdfrwt>
<pdfrwt beam="2">  1       -1 0.13404314E+00 0.12760958E+04</pdfrwt>
<totfact> 0.29671318E-01</totfact>
</mgrwt>
</event>
<event>
 4    2  0.3179755E-007  0.7241468E+03  0.7818608E-02  0.9908796E-01
          1   -1    0    0  501    0  0.00000000000E+00  0.00000000000E+00  0.76776266089E+03  0.76776266091E+03  0.50400000000E-02 0. -1.
         -1   -1    0    0    0  501 -0.00000000000E+00 -0.00000000000E+00 -0.65054899968E+03  0.65054899970E+03  0.50400000000E-02 0.  1.
    8880023    1    1    2    0    0  0.15443376999E+03 -0.25831889614E+03  0.52092457693E+03  0.89204880053E+03  0.65864270000E+03 0. -1.
    8880022    1    1    2    0    0 -0.15443376999E+03  0.25831889614E+03 -0.40371091572E+03  0.52626286008E+03  0.15294330000E+03 0.  0.
<mgrwt>
<rscale>  0 0.59836867E+03</rscale>
<asrwt>0</asrwt>
<pdfrwt beam="1">  1        1 0.11811733E+00 0.72414684E+03</pdfrwt>
<pdfrwt beam="2">  1       -1 0.10008446E+00 0.72414684E+03</pdfrwt>
<totfact> 0.23122727E+01</totfact>
</mgrwt>
</event>
<event>
 4    2  0.4320800E-007  0.1024117E+04  0.7818608E-02  0.9350664E-01
          1   -1    0    0  501    0  0.00000000000E+00  0.00000000000E+00  0.21535049559E+04  0.21535049559E+04  0.50400000000E-02 0. -1.
         -1   -1    0    0    0  501 -0.00000000000E+00 -0.00000000000E+00 -0.16179683113E+04  0.16179683113E+04  0.50400000000E-02 0.  1.
    8880023    1    1    2    0    0  0.62087709990E+03  0.47907837328E+03  0.19182493569E+04  0.21745103500E+04  0.65864270000E+03 0. -1.
    8880022    1    1    2    0    0 -0.62087709990E+03 -0.47907837328E+03 -0.13827127123E+04  0.15969629171E+04  0.15294330000E+03 0.  0.
<mgrwt>
<rscale>  0 0.96249462E+03</rscale>
<asrwt>0</asrwt>
<pdfrwt beam="1">  1        1 0.33130845E+00 0.10241165E+04</pdfrwt>
<pdfrwt beam="2">  1       -1 0.24891820E+00 0.10241165E+04</pdfrwt>
<totfact> 0.16840140E-01</totfact>
</mgrwt>
</event>
<event>
 4    2  0.3179755E-007  0.7057716E+03  0.7818608E-02  0.9974051E-01
          1   -1    0    0  501    0  0.00000000000E+00  0.00000000000E+00  0.18184162067E+04  0.18184162067E+04  0.50400000000E-02 0. -1.
         -1   -1    0    0    0  501 -0.00000000000E+00 -0.00000000000E+00 -0.13986589145E+03  0.13986589155E+03  0.50400000000E-02 0.  1.
    8880023    1    1    2    0    0 -0.25048626419E+03  0.39496251608E+02  0.12810220924E+04  0.14625768800E+04  0.65864270000E+03 0. -1.
    8880022    1    1    2    0    0  0.25048626419E+03 -0.39496251608E+02  0.39752822292E+03  0.49570521832E+03  0.15294330000E+03 0.  0.
<mgrwt>
<rscale>  0 0.56802829E+03</rscale>
<asrwt>0</asrwt>
<pdfrwt beam="1">  1        1 0.27975634E+00 0.70577158E+03</pdfrwt>
<pdfrwt beam="2">  1       -1 0.21517829E-01 0.70577158E+03</pdfrwt>
<totfact> 0.73956198E+01</totfact>
</mgrwt>
</event>
<event>
 4    2  0.3179755E-007  0.7524483E+03  0.7818608E-02  0.9825066E-01
          1   -1    0    0  501    0  0.00000000000E+00  0.00000000000E+00  0.21249535644E+04  0.21249535644E+04  0.50400000000E-02 0. -1.
         -1   -1    0    0    0  501 -0.00000000000E+00 -0.00000000000E+00 -0.32045775699E+03  0.32045775703E+03  0.50400000000E-02 0.  1.
    8880023    1    1    2    0    0 -0.30323962257E+03  0.20103218501E+03  0.18963690937E+04  0.20401946363E+04  0.65864270000E+03 0. -1.
    8880022    1    1    2    0    0  0.30323962257E+03 -0.20103218501E+03 -0.91873286371E+02  0.40521668508E+03  0.15294330000E+03 0.  0.
<mgrwt>
<rscale>  0 0.64034561E+03</rscale>
<asrwt>0</asrwt>
<pdfrwt beam="1">  1        1 0.32691593E+00 0.75244828E+03</pdfrwt>
<pdfrwt beam="2">  1       -1 0.49301194E-01 0.75244828E+03</pdfrwt>
<totfact> 0.10579088E+01</totfact>
</mgrwt>
</event>
<event>
 4    2  0.3179755E-007  0.6618008E+03  0.7818608E-02  0.1022383E+00
         -1   -1    0    0    0  501 -0.00000000000E+00  0.00000000000E+00  0.74754955265E+03  0.74754955267E+03  0.50400000000E-02 0.  1.
          1   -1    0    0  501    0  0.00000000000E+00 -0.00000000000E+00 -0.42750493899E+03  0.42750493902E+03  0.50400000000E-02 0. -1.
    8880023    1    1    2    0    0  0.61338354916E+02 -0.20191035146E+02 -0.14825047203E+03  0.67820238897E+03  0.65864270000E+03 0. -1.
    8880022    1    1    2    0    0 -0.61338354916E+02  0.20191035146E+02  0.46829508568E+03  0.49685210272E+03  0.15294330000E+03 0.  0.
<mgrwt>
<rscale>  0 0.46836427E+03</rscale>
<asrwt>0</asrwt>
<pdfrwt beam="1">  1        1 0.65769991E-01 0.66180078E+03</pdfrwt>
<pdfrwt beam="2">  1       -1 0.11500762E+00 0.66180078E+03</pdfrwt>
<totfact> 0.38822234E+01</totfact>
</mgrwt>
</event>
<event>
 4    2  0.3179755E-007  0.6890259E+03  0.7818608E-02  0.1004619E+00
          1   -1    0    0  501    0  0.00000000000E+00  0.00000000000E+00  0.15542941464E+04  0.15542941464E+04  0.50400000000E-02 0. -1.
         -1   -1    0    0    0  501 -0.00000000000E+00 -0.00000000000E+00 -0.46672851823E+03  0.46672851825E+03  0.50400000000E-02 0.  1.
    8880023    1    1    2    0    0  0.19883371135E+03  0.37571884132E+02  0.14344155020E+04  0.15913216299E+04  0.65864270000E+03 0. -1.
    8880022    1    1    2    0    0 -0.19883371135E+03 -0.37571884132E+02 -0.34684987384E+03  0.42970103472E+03  0.15294330000E+03 0.  0.
<mgrwt>
<rscale>  0 0.53670449E+03</rscale>
<asrwt>0</asrwt>
<pdfrwt beam="1">  1        1 0.23912217E+00 0.68902590E+03</pdfrwt>
<pdfrwt beam="2">  1       -1 0.71804389E-01 0.68902590E+03</pdfrwt>
<totfact> 0.12306572E+01</totfact>
</mgrwt>
</event>
<event>
 4    2  0.3179755E-007  0.7470545E+03  0.7818608E-02  0.9839855E-01
          1   -1    0    0  501    0  0.00000000000E+00  0.00000000000E+00  0.82068050178E+03  0.82068050180E+03  0.50400000000E-02 0. -1.
         -1   -1    0    0    0  501 -0.00000000000E+00 -0.00000000000E+00 -0.74769826976E+03  0.74769826978E+03  0.50400000000E-02 0.  1.
    8880023    1    1    2    0    0 -0.34923635255E+03 -0.48105677557E+02  0.57032386737E+03  0.93987217541E+03  0.65864270000E+03 0. -1.
    8880022    1    1    2    0    0  0.34923635255E+03  0.48105677557E+02 -0.49734163535E+03  0.62850659616E+03  0.15294330000E+03 0.  0.
<mgrwt>
<rscale>  0 0.63266880E+03</rscale>
<asrwt>0</asrwt>
<pdfrwt beam="1">  1        1 0.12625854E+00 0.74705448E+03</pdfrwt>
<pdfrwt beam="2">  1       -1 0.11503050E+00 0.74705448E+03</pdfrwt>
<totfact> 0.14982030E+01</totfact>
</mgrwt>
</event>
<event>
 4    2  0.3179755E-007  0.1186155E+04  0.7818608E-02  0.9170700E-01
          1   -1    0    0  501    0  0.00000000000E+00  0.00000000000E+00  0.81389916178E+03  0.81389916179E+03  0.50400000000E-02 0. -1.
         -1   -1    0    0    0  501 -0.00000000000E+00 -0.00000000000E+00 -0.17767731222E+04  0.17767731222E+04  0.50400000000E-02 0.  1.
    8880023    1    1    2    0    0  0.31370144777E+03  0.93527749562E+03  0.24749671471E+02  0.11864128053E+04  0.65864270000E+03 0.  0.
    8880022    1    1    2    0    0 -0.31370144777E+03 -0.93527749562E+03 -0.98762363191E+03  0.14042594787E+04  0.15294330000E+03 0.  0.
<mgrwt>
<rscale>  0 0.11361039E+04</rscale>
<asrwt>0</asrwt>
<pdfrwt beam="1">  1        1 0.12521526E+00 0.11861546E+04</pdfrwt>
<pdfrwt beam="2">  1       -1 0.27334971E+00 0.11861546E+04</pdfrwt>
<totfact> 0.10426536E+00</totfact>
</mgrwt>
</event>
<event>
 4    2  0.3179755E-007  0.6938959E+03  0.7818608E-02  0.1002353E+00
         -1   -1    0    0    0  501 -0.00000000000E+00  0.00000000000E+00  0.27466011732E+03  0.27466011736E+03  0.50400000000E-02 0.  1.
          1   -1    0    0  501    0  0.00000000000E+00 -0.00000000000E+00 -0.16587530316E+04  0.16587530316E+04  0.50400000000E-02 0. -1.
    8880023    1    1    2    0    0  0.10679796774E+03  0.19046124296E+03 -0.14922671590E+04  0.16457073771E+04  0.65864270000E+03 0.  0.
    8880022    1    1    2    0    0 -0.10679796774E+03 -0.19046124296E+03  0.10817424464E+03  0.28770577193E+03  0.15294330000E+03 0.  0.
<mgrwt>
<rscale>  0 0.54630323E+03</rscale>
<asrwt>0</asrwt>
<pdfrwt beam="1">  1        1 0.25519277E+00 0.69389588E+03</pdfrwt>
<pdfrwt beam="2">  1       -1 0.42255404E-01 0.69389588E+03</pdfrwt>
<totfact> 0.29161203E+01</totfact>
</mgrwt>
</event>
<event>
 4    2  0.3179755E-007  0.9889069E+03  0.7818608E-02  0.9396217E-01
          1   -1    0    0  501    0  0.00000000000E+00  0.00000000000E+00  0.30469290935E+04  0.30469290935E+04  0.50400000000E-02 0. -1.
         -1   -1    0    0    0  501 -0.00000000000E+00 -0.00000000000E+00 -0.58026125975E+03  0.58026125978E+03  0.50400000000E-02 0.  1.
    8880023    1    1    2    0    0  0.32074613172E+02 -0.73695176188E+03  0.26697022918E+04  0.28469715863E+04  0.65864270000E+03 0. -1.
    8880022    1    1    2    0    0 -0.32074613172E+02  0.73695176188E+03 -0.20303445806E+03  0.78021876696E+03  0.15294330000E+03 0.  0.
<mgrwt>
<rscale>  0 0.92387677E+03</rscale>
<asrwt>0</asrwt>
<pdfrwt beam="1">  1        1 0.46875832E+00 0.98890691E+03</pdfrwt>
<pdfrwt beam="2">  1       -1 0.89270963E-01 0.98890691E+03</pdfrwt>
<totfact> 0.70028051E-01</totfact>
</mgrwt>
</event>
<event>
 4    2  0.3179755E-007  0.9326349E+03  0.7818608E-02  0.9475552E-01
         -1   -1    0    0    0  501 -0.00000000000E+00  0.00000000000E+00  0.79879834589E+03  0.79879834591E+03  0.50400000000E-02 0.  1.
          1   -1    0    0  501    0  0.00000000000E+00 -0.00000000000E+00 -0.82915292714E+03  0.82915292715E+03  0.50400000000E-02 0. -1.
    8880023    1    1    2    0    0  0.54942506680E+03 -0.36623733760E+03  0.99206954967E+02  0.93789653889E+03  0.65864270000E+03 0. -1.
    8880022    1    1    2    0    0 -0.54942506680E+03  0.36623733760E+03 -0.12956153621E+03  0.69005473418E+03  0.15294330000E+03 0.  1.
<mgrwt>
<rscale>  0 0.86110551E+03</rscale>
<asrwt>0</asrwt>
<pdfrwt beam="1">  1        1 0.12756199E+00 0.93263492E+03</pdfrwt>
<pdfrwt beam="2">  1       -1 0.12289205E+00 0.93263492E+03</pdfrwt>
<totfact> 0.12287551E+01</totfact>
</mgrwt>
</event>
<event>
 4    2  0.3179755E-007  0.8589728E+03  0.7818608E-02  0.9595393E-01
          1   -1    0    0  501    0  0.00000000000E+00  0.00000000000E+00  0.14566602742E+04  0.14566602742E+04  0.50400000000E-02 0. -1.
         -1   -1    0    0    0  501 -0.00000000000E+00 -0.00000000000E+00 -0.44883621693E+03  0.44883621696E+03  0.50400000000E-02 0.  1.
    8880023    1    1    2    0    0 -0.25402801300E+03 -0.48938111064E+03  0.14642015277E+03  0.87136282353E+03  0.65864270000E+03 0.  1.
    8880022    1    1    2    0    0  0.25402801300E+03  0.48938111064E+03  0.86140390445E+03  0.10341336676E+04  0.15294330000E+03 0.  0.
<mgrwt>
<rscale>  0 0.77601839E+03</rscale>
<asrwt>0</asrwt>
<pdfrwt beam="1">  1        1 0.22410158E+00 0.85897282E+03</pdfrwt>
<pdfrwt beam="2">  1       -1 0.69051726E-01 0.85897282E+03</pdfrwt>
<totfact> 0.15193853E+01</totfact>
</mgrwt>
</event>
<event>
 4    2  0.3179755E-007  0.9348237E+03  0.7818608E-02  0.9472294E-01
          1   -1    0    0  501    0  0.00000000000E+00  0.00000000000E+00  0.99236845244E+03  0.99236845245E+03  0.50400000000E-02 0. -1.
         -1   -1    0    0    0  501 -0.00000000000E+00 -0.00000000000E+00 -0.14545099668E+04  0.14545099668E+04  0.50400000000E-02 0.  1.
    8880023    1    1    2    0    0  0.35146471703E+03  0.56263460614E+03  0.65302859064E+03  0.11403252579E+04  0.65864270000E+03 0.  0.
    8880022    1    1    2    0    0 -0.35146471703E+03 -0.56263460614E+03 -0.11151701050E+04  0.13065531613E+04  0.15294330000E+03 0.  0.
<mgrwt>
<rscale>  0 0.86357644E+03</rscale>
<asrwt>0</asrwt>
<pdfrwt beam="1">  1        1 0.15267207E+00 0.93482370E+03</pdfrwt>
<pdfrwt beam="2">  1       -1 0.22377076E+00 0.93482370E+03</pdfrwt>
<totfact> 0.16171794E+00</totfact>
</mgrwt>
</event>
<event>
 4    2  0.3179755E-007  0.7994945E+03  0.7818608E-02  0.9711890E-01
         -1   -1    0    0    0  501 -0.00000000000E+00  0.00000000000E+00  0.28229475788E+03  0.28229475792E+03  0.50400000000E-02 0.  1.
          1   -1    0    0  501    0  0.00000000000E+00 -0.00000000000E+00 -0.18149721242E+04  0.18149721242E+04  0.50400000000E-02 0. -1.
    8880023    1    1    2    0    0 -0.34043580165E+03 -0.29913987399E+03 -0.13805765913E+04  0.15953630088E+04  0.65864270000E+03 0.  0.
    8880022    1    1    2    0    0  0.34043580165E+03  0.29913987399E+03 -0.15210077505E+03  0.50190387331E+03  0.15294330000E+03 0.  0.
<mgrwt>
<rscale>  0 0.70313248E+03</rscale>
<asrwt>0</asrwt>
<pdfrwt beam="1">  1        1 0.27922647E+00 0.79949447E+03</pdfrwt>
<pdfrwt beam="2">  1       -1 0.43429964E-01 0.79949447E+03</pdfrwt>
<totfact> 0.21474608E+01</totfact>
</mgrwt>
</event>
<event>
 4    2  0.3179755E-007  0.6649967E+03  0.7818608E-02  0.1019536E+00
          1   -1    0    0  501    0  0.00000000000E+00  0.00000000000E+00  0.13449489574E+04  0.13449489574E+04  0.50400000000E-02 0. -1.
         -1   -1    0    0    0  501 -0.00000000000E+00 -0.00000000000E+00 -0.17377768405E+03  0.17377768412E+03  0.50400000000E-02 0.  1.
    8880023    1    1    2    0    0 -0.37654528861E+02 -0.83621411710E+02  0.11636196147E+04  0.13402355084E+04  0.65864270000E+03 0.  0.
    8880022    1    1    2    0    0  0.37654528861E+02  0.83621411710E+02  0.75516586622E+01  0.17849113312E+03  0.15294330000E+03 0.  0.
<mgrwt>
<rscale>  0 0.47854361E+03</rscale>
<asrwt>0</asrwt>
<pdfrwt beam="1">  1        1 0.20691523E+00 0.66499670E+03</pdfrwt>
<pdfrwt beam="2">  1       -1 0.26735027E-01 0.66499670E+03</pdfrwt>
<totfact> 0.10781750E+02</totfact>
</mgrwt>
</event>
<event>
 4    2  0.3179755E-007  0.8828749E+03  0.7818608E-02  0.9554102E-01
         -1   -1    0    0    0  501 -0.00000000000E+00  0.00000000000E+00  0.63310504016E+03  0.63310504018E+03  0.50400000000E-02 0.  1.
          1   -1    0    0  501    0  0.00000000000E+00 -0.00000000000E+00 -0.18859067503E+04  0.18859067503E+04  0.50400000000E-02 0. -1.
    8880023    1    1    2    0    0  0.21757786553E+03  0.54618468993E+03 -0.15940644227E+04  0.18222265043E+04  0.65864270000E+03 0. -1.
    8880022    1    1    2    0    0 -0.21757786553E+03 -0.54618468993E+03  0.34126271252E+03  0.69678528619E+03  0.15294330000E+03 0.  0.
<mgrwt>
<rscale>  0 0.80409979E+03</rscale>
<asrwt>0</asrwt>
<pdfrwt beam="1">  1        1 0.29013950E+00 0.88287488E+03</pdfrwt>
<pdfrwt beam="2">  1       -1 0.97400776E-01 0.88287488E+03</pdfrwt>
<totfact> 0.37004619E+00</totfact>
</mgrwt>
</event>
<event>
 4    2  0.3179755E-007  0.1107301E+04  0.7818608E-02  0.9252970E-01
          1   -1    0    0  501    0  0.00000000000E+00  0.00000000000E+00  0.23346237799E+04  0.23346237799E+04  0.50400000000E-02 0. -1.
         -1   -1    0    0    0  501 -0.00000000000E+00 -0.00000000000E+00 -0.48163778692E+03  0.48163778694E+03  0.50400000000E-02 0.  1.
    8880023    1    1    2    0    0 -0.87403476451E+03 -0.16843100338E+03  0.14572241594E+04  0.18301962270E+04  0.65864270000E+03 0.  0.
    8880022    1    1    2    0    0  0.87403476451E+03  0.16843100338E+03  0.39576183363E+03  0.98606533985E+03  0.15294330000E+03 0.  0.
<mgrwt>
<rscale>  0 0.10523022E+04</rscale>
<asrwt>0</asrwt>
<pdfrwt beam="1">  1        1 0.35917289E+00 0.11073012E+04</pdfrwt>
<pdfrwt beam="2">  1       -1 0.74098120E-01 0.11073012E+04</pdfrwt>
<totfact> 0.32376493E+00</totfact>
</mgrwt>
</event>
<event>
 4    2  0.3179755E-007  0.6970585E+03  0.7818608E-02  0.1000963E+00
          1   -1    0    0  501    0  0.00000000000E+00  0.00000000000E+00  0.13382478319E+03  0.13382478329E+03  0.50400000000E-02 0. -1.
         -1   -1    0    0    0  501 -0.00000000000E+00 -0.00000000000E+00 -0.21103412123E+04  0.21103412123E+04  0.50400000000E-02 0.  1.
    8880023    1    1    2    0    0 -0.20604896456E+03  0.98102813918E+02 -0.93026087793E+03  0.11624439105E+04  0.65864270000E+03 0. -1.
    8880022    1    1    2    0    0  0.20604896456E+03 -0.98102813918E+02 -0.10462555512E+04  0.10817220851E+04  0.15294330000E+03 0.  0.
<mgrwt>
<rscale>  0 0.55230013E+03</rscale>
<asrwt>0</asrwt>
<pdfrwt beam="1">  1        1 0.20588430E-01 0.69705849E+03</pdfrwt>
<pdfrwt beam="2">  1       -1 0.32466785E+00 0.69705849E+03</pdfrwt>
<totfact> 0.60789624E+00</totfact>
</mgrwt>
</event>
<event>
 4    2  0.3179755E-007  0.1157084E+04  0.7818608E-02  0.9200013E-01
          1   -1    0    0  501    0  0.00000000000E+00  0.00000000000E+00  0.16559778438E+04  0.16559778438E+04  0.50400000000E-02 0. -1.
         -1   -1    0    0    0  501 -0.00000000000E+00 -0.00000000000E+00 -0.17305840360E+04  0.17305840360E+04  0.50400000000E-02 0.  1.
    8880023    1    1    2    0    0  0.94789742861E+03 -0.80765471840E+02  0.12791973349E+04  0.17248735097E+04  0.65864270000E+03 0.  0.
    8880022    1    1    2    0    0 -0.94789742861E+03  0.80765471840E+02 -0.13538035271E+04  0.16616883702E+04  0.15294330000E+03 0.  0.
<mgrwt>
<rscale>  0 0.11053299E+04</rscale>
<asrwt>0</asrwt>
<pdfrwt beam="1">  1        1 0.25476582E+00 0.11570837E+04</pdfrwt>
<pdfrwt beam="2">  1       -1 0.26624370E+00 0.11570837E+04</pdfrwt>
<totfact> 0.27595541E-01</totfact>
</mgrwt>
</event>
<event>
 4    2  0.3179755E-007  0.7178824E+03  0.7818608E-02  0.9929817E-01
         -1   -1    0    0    0  501 -0.00000000000E+00  0.00000000000E+00  0.27332225467E+04  0.27332225467E+04  0.50400000000E-02 0.  1.
          1   -1    0    0  501    0  0.00000000000E+00 -0.00000000000E+00 -0.12359041781E+03  0.12359041792E+03  0.50400000000E-02 0. -1.
    8880023    1    1    2    0    0 -0.14696948902E+03  0.24483642062E+03  0.11050943355E+04  0.13177968737E+04  0.65864270000E+03 0.  0.
    8880022    1    1    2    0    0  0.14696948902E+03 -0.24483642062E+03  0.15045377934E+04  0.15390160910E+04  0.15294330000E+03 0.  0.
<mgrwt>
<rscale>  0 0.58837718E+03</rscale>
<asrwt>0</asrwt>
<pdfrwt beam="1">  1        1 0.19013911E-01 0.71788238E+03</pdfrwt>
<pdfrwt beam="2">  1       -1 0.42049575E+00 0.71788238E+03</pdfrwt>
<totfact> 0.15531020E+00</totfact>
</mgrwt>
</event>
<event>
 4    2  0.3179755E-007  0.7435545E+03  0.7818608E-02  0.9849712E-01
          1   -1    0    0  501    0  0.00000000000E+00  0.00000000000E+00  0.55855741023E+03  0.55855741026E+03  0.50400000000E-02 0. -1.
         -1   -1    0    0    0  501 -0.00000000000E+00 -0.00000000000E+00 -0.71285306911E+03  0.71285306913E+03  0.50400000000E-02 0.  1.
    8880023    1    1    2    0    0  0.37092931601E+02 -0.34305564033E+03  0.18242819759E+03  0.76560649911E+03  0.65864270000E+03 0.  0.
    8880022    1    1    2    0    0 -0.37092931601E+02  0.34305564033E+03 -0.33672385647E+03  0.50580398028E+03  0.15294330000E+03 0.  0.
<mgrwt>
<rscale>  0 0.62761628E+03</rscale>
<asrwt>0</asrwt>
<pdfrwt beam="1">  1        1 0.85931909E-01 0.74355448E+03</pdfrwt>
<pdfrwt beam="2">  1       -1 0.10966970E+00 0.74355448E+03</pdfrwt>
<totfact> 0.29894462E+01</totfact>
</mgrwt>
</event>
<event>
 4    2  0.3179755E-007  0.7435598E+03  0.7818608E-02  0.9849696E-01
          1   -1    0    0  501    0  0.00000000000E+00  0.00000000000E+00  0.71276997438E+03  0.71276997440E+03  0.50400000000E-02 0. -1.
         -1   -1    0    0    0  501 -0.00000000000E+00 -0.00000000000E+00 -0.62200500078E+03  0.62200500080E+03  0.50400000000E-02 0.  1.
    8880023    1    1    2    0    0  0.21421120450E+03  0.27052645794E+03  0.40226001623E+03  0.84539596137E+03  0.65864270000E+03 0. -1.
    8880022    1    1    2    0    0 -0.21421120450E+03 -0.27052645794E+03 -0.31149504263E+03  0.48937901383E+03  0.15294330000E+03 0.  0.
<mgrwt>
<rscale>  0 0.62762404E+03</rscale>
<asrwt>0</asrwt>
<pdfrwt beam="1">  1        1 0.10965692E+00 0.74355982E+03</pdfrwt>
<pdfrwt beam="2">  1       -1 0.95693077E-01 0.74355982E+03</pdfrwt>
<totfact> 0.28639042E+01</totfact>
</mgrwt>
</event>
<event>
 4    2  0.3179755E-007  0.6809343E+03  0.7818608E-02  0.1008800E+00
          1   -1    0    0  501    0  0.00000000000E+00  0.00000000000E+00  0.13221717030E+04  0.13221717030E+04  0.50400000000E-02 0. -1.
         -1   -1    0    0    0  501 -0.00000000000E+00 -0.00000000000E+00 -0.20619096509E+03  0.20619096515E+03  0.50400000000E-02 0.  1.
    8880023    1    1    2    0    0  0.11430717914E+03  0.12959646625E+03  0.11042229450E+04  0.12972971494E+04  0.65864270000E+03 0. -1.
    8880022    1    1    2    0    0 -0.11430717914E+03 -0.12959646625E+03  0.11757792927E+02  0.23106551880E+03  0.15294330000E+03 0.  0.
<mgrwt>
<rscale>  0 0.51954356E+03</rscale>
<asrwt>0</asrwt>
<pdfrwt beam="1">  1        1 0.20341104E+00 0.68093434E+03</pdfrwt>
<pdfrwt beam="2">  1       -1 0.31721686E-01 0.68093434E+03</pdfrwt>
<totfact> 0.83017467E+01</totfact>
</mgrwt>
</event>
<event>
 4    2  0.3179755E-007  0.8628224E+03  0.7818608E-02  0.9588563E-01
         -1   -1    0    0    0  501 -0.00000000000E+00  0.00000000000E+00  0.22751224410E+04  0.22751224410E+04  0.50400000000E-02 0.  1.
          1   -1    0    0  501    0  0.00000000000E+00 -0.00000000000E+00 -0.81869904840E+03  0.81869904842E+03  0.50400000000E-02 0. -1.
    8880023    1    1    2    0    0  0.46779865775E+03 -0.30301261339E+03 -0.53835560128E+03  0.10170000923E+04  0.65864270000E+03 0. -1.
    8880022    1    1    2    0    0 -0.46779865775E+03  0.30301261339E+03  0.19947789939E+04  0.20768213971E+04  0.15294330000E+03 0.  0.
<mgrwt>
<rscale>  0 0.78057832E+03</rscale>
<asrwt>0</asrwt>
<pdfrwt beam="1">  1        1 0.12595370E+00 0.86282237E+03</pdfrwt>
<pdfrwt beam="2">  1       -1 0.35001884E+00 0.86282237E+03</pdfrwt>
<totfact> 0.34584378E-01</totfact>
</mgrwt>
</event>
<event>
 4    2  0.3179755E-007  0.6748618E+03  0.7818608E-02  0.1012394E+00
         -1   -1    0    0    0  501 -0.00000000000E+00  0.00000000000E+00  0.82482735453E+03  0.82482735454E+03  0.50400000000E-02 0.  1.
          1   -1    0    0  501    0  0.00000000000E+00 -0.00000000000E+00 -0.61098971799E+03  0.61098971801E+03  0.50400000000E-02 0. -1.
    8880023    1    1    2    0    0 -0.14641748722E+03  0.13790458424E+02 -0.40126683900E+03  0.78514555316E+03  0.65864270000E+03 0.  0.
    8880022    1    1    2    0    0  0.14641748722E+03 -0.13790458424E+02  0.61510447554E+03  0.65067151939E+03  0.15294330000E+03 0.  0.
<mgrwt>
<rscale>  0 0.50534354E+03</rscale>
<asrwt>0</asrwt>
<pdfrwt beam="1">  1        1 0.93998419E-01 0.67486181E+03</pdfrwt>
<pdfrwt beam="2">  1       -1 0.12689652E+00 0.67486181E+03</pdfrwt>
<totfact> 0.18626498E+01</totfact>
</mgrwt>
</event>
<event>
 4    2  0.3179755E-007  0.6987203E+03  0.7818608E-02  0.1000255E+00
          1   -1    0    0  501    0  0.00000000000E+00  0.00000000000E+00  0.11854696845E+04  0.11854696845E+04  0.50400000000E-02 0. -1.
         -1   -1    0    0    0  501 -0.00000000000E+00 -0.00000000000E+00 -0.30566862820E+03  0.30566862824E+03  0.50400000000E-02 0.  1.
    8880023    1    1    2    0    0  0.19437192616E+03  0.12891629393E+03  0.97227146432E+03  0.11972977337E+04  0.65864270000E+03 0. -1.
    8880022    1    1    2    0    0 -0.19437192616E+03 -0.12891629393E+03 -0.92470408022E+02  0.29384057905E+03  0.15294330000E+03 0.  0.
<mgrwt>
<rscale>  0 0.55538487E+03</rscale>
<asrwt>0</asrwt>
<pdfrwt beam="1">  1        1 0.18237995E+00 0.69872030E+03</pdfrwt>
<pdfrwt beam="2">  1       -1 0.47025943E-01 0.69872030E+03</pdfrwt>
<totfact> 0.50901369E+01</totfact>
</mgrwt>
</event>
<event>
 4    2  0.3179755E-007  0.9900679E+03  0.7818608E-02  0.9394669E-01
          1   -1    0    0  501    0  0.00000000000E+00  0.00000000000E+00  0.18128315627E+04  0.18128315627E+04  0.50400000000E-02 0. -1.
         -1   -1    0    0    0  501 -0.00000000000E+00 -0.00000000000E+00 -0.55324166171E+03  0.55324166174E+03  0.50400000000E-02 0.  1.
    8880023    1    1    2    0    0 -0.44071885774E+03  0.59345701135E+03  0.12710191427E+04  0.16111251358E+04  0.65864270000E+03 0.  0.
    8880022    1    1    2    0    0  0.44071885774E+03 -0.59345701135E+03 -0.11429241746E+02  0.75494808860E+03  0.15294330000E+03 0.  0.
<mgrwt>
<rscale>  0 0.92515730E+03</rscale>
<asrwt>0</asrwt>
<pdfrwt beam="1">  1        1 0.27889717E+00 0.99006795E+03</pdfrwt>
<pdfrwt beam="2">  1       -1 0.85114101E-01 0.99006795E+03</pdfrwt>
<totfact> 0.55067909E+00</totfact>
</mgrwt>
</event>
<event>
 4    2  0.3179755E-007  0.9222608E+03  0.7818608E-02  0.9491201E-01
         -1   -1    0    0    0  501 -0.00000000000E+00  0.00000000000E+00  0.98085902485E+03  0.98085902486E+03  0.50400000000E-02 0.  1.
          1   -1    0    0  501    0  0.00000000000E+00 -0.00000000000E+00 -0.77028286030E+03  0.77028286032E+03  0.50400000000E-02 0. -1.
    8880023    1    1    2    0    0 -0.21557869125E+03  0.60850693116E+03  0.47446434207E+03  0.10371506523E+04  0.65864270000E+03 0.  1.
    8880022    1    1    2    0    0  0.21557869125E+03 -0.60850693116E+03 -0.26388817753E+03  0.71399123289E+03  0.15294330000E+03 0.  0.
<mgrwt>
<rscale>  0 0.84935644E+03</rscale>
<asrwt>0</asrwt>
<pdfrwt beam="1">  1        1 0.11850506E+00 0.92226084E+03</pdfrwt>
<pdfrwt beam="2">  1       -1 0.15090139E+00 0.92226084E+03</pdfrwt>
<totfact> 0.81482976E+00</totfact>
</mgrwt>
</event>
<event>
 4    2  0.3179755E-007  0.7145041E+03  0.7818608E-02  0.9941641E-01
         -1   -1    0    0    0  501 -0.00000000000E+00  0.00000000000E+00  0.28337894291E+03  0.28337894296E+03  0.50400000000E-02 0.  1.
          1   -1    0    0  501    0  0.00000000000E+00 -0.00000000000E+00 -0.16988131973E+04  0.16988131973E+04  0.50400000000E-02 0. -1.
    8880023    1    1    2    0    0 -0.66782598111E+02 -0.26878619649E+03 -0.14941188049E+04  0.16561724379E+04  0.65864270000E+03 0.  0.
    8880022    1    1    2    0    0  0.66782598111E+02  0.26878619649E+03  0.78684550458E+02  0.32601970236E+03  0.15294330000E+03 0.  0.
<mgrwt>
<rscale>  0 0.58284960E+03</rscale>
<asrwt>0</asrwt>
<pdfrwt beam="1">  1        1 0.26135587E+00 0.71450412E+03</pdfrwt>
<pdfrwt beam="2">  1       -1 0.43596761E-01 0.71450412E+03</pdfrwt>
<totfact> 0.25802445E+01</totfact>
</mgrwt>
</event>
<event>
 4    2  0.3179755E-007  0.8381196E+03  0.7818608E-02  0.9633736E-01
         -1   -1    0    0    0  501 -0.00000000000E+00  0.00000000000E+00  0.39243543708E+03  0.39243543712E+03  0.50400000000E-02 0.  1.
          1   -1    0    0  501    0  0.00000000000E+00 -0.00000000000E+00 -0.14965474635E+04  0.14965474635E+04  0.50400000000E-02 0. -1.
    8880023    1    1    2    0    0  0.33822219439E+03 -0.39273405123E+03 -0.10535062423E+04  0.13462243114E+04  0.65864270000E+03 0. -1.
    8880022    1    1    2    0    0 -0.33822219439E+03  0.39273405123E+03 -0.50605784120E+02  0.54275858922E+03  0.15294330000E+03 0.  0.
<mgrwt>
<rscale>  0 0.75102982E+03</rscale>
<asrwt>0</asrwt>
<pdfrwt beam="1">  1        1 0.23023807E+00 0.83811962E+03</pdfrwt>
<pdfrwt beam="2">  1       -1 0.60374683E-01 0.83811962E+03</pdfrwt>
<totfact> 0.18729020E+01</totfact>
</mgrwt>
</event>
<event>
 4    2  0.3179755E-007  0.6835591E+03  0.7818608E-02  0.1007378E+00
         -1   -1    0    0    0  501 -0.00000000000E+00  0.00000000000E+00  0.96555299105E+02  0.96555299236E+02  0.50400000000E-02 0.  1.
          1   -1    0    0  501    0  0.00000000000E+00 -0.00000000000E+00 -0.23559972775E+04  0.23559972775E+04  0.50400000000E-02 0. -1.
    8880023    1    1    2    0    0 -0.12396300711E+03 -0.13444698599E+03 -0.19176025031E+04  0.20357928150E+04  0.65864270000E+03 0. -1.
    8880022    1    1    2    0    0  0.12396300711E+03  0.13444698599E+03 -0.34183947525E+03  0.41675976177E+03  0.15294330000E+03 0.  0.
<mgrwt>
<rscale>  0 0.52530136E+03</rscale>
<asrwt>0</asrwt>
<pdfrwt beam="1">  1        1 0.36246108E+00 0.68355909E+03</pdfrwt>
<pdfrwt beam="2">  1       -1 0.14854663E-01 0.68355909E+03</pdfrwt>
<totfact> 0.59659512E+01</totfact>
</mgrwt>
</event>
<event>
 4    2  0.3179755E-007  0.7069015E+03  0.7818608E-02  0.9969692E-01
         -1   -1    0    0    0  501 -0.00000000000E+00  0.00000000000E+00  0.22041738027E+03  0.22041738033E+03  0.50400000000E-02 0.  1.
          1   -1    0    0  501    0  0.00000000000E+00 -0.00000000000E+00 -0.21690618348E+04  0.21690618348E+04  0.50400000000E-02 0. -1.
    8880023    1    1    2    0    0  0.12647096253E+03 -0.22339348230E+03 -0.19669326303E+04  0.20901037608E+04  0.65864270000E+03 0.  0.
    8880022    1    1    2    0    0 -0.12647096253E+03  0.22339348230E+03  0.18288175785E+02  0.29937545438E+03  0.15294330000E+03 0.  0.
<mgrwt>
<rscale>  0 0.56999398E+03</rscale>
<asrwt>0</asrwt>
<pdfrwt beam="1">  1        1 0.33370181E+00 0.70690152E+03</pdfrwt>
<pdfrwt beam="2">  1       -1 0.33910368E-01 0.70690152E+03</pdfrwt>
<totfact> 0.19716571E+01</totfact>
</mgrwt>
</event>
<event>
 4    2  0.3179755E-007  0.8054040E+03  0.7818608E-02  0.9699231E-01
          1   -1    0    0  501    0  0.00000000000E+00  0.00000000000E+00  0.36469896738E+03  0.36469896742E+03  0.50400000000E-02 0. -1.
         -1   -1    0    0    0  501 -0.00000000000E+00 -0.00000000000E+00 -0.15481473356E+04  0.15481473356E+04  0.50400000000E-02 0.  1.
    8880023    1    1    2    0    0 -0.14315095100E+03 -0.44087783136E+03 -0.22336210513E+03  0.83580278369E+03  0.65864270000E+03 0. -1.
    8880022    1    1    2    0    0  0.14315095100E+03  0.44087783136E+03 -0.96008626304E+03  0.10770435193E+04  0.15294330000E+03 0.  0.
<mgrwt>
<rscale>  0 0.71062599E+03</rscale>
<asrwt>0</asrwt>
<pdfrwt beam="1">  1        1 0.56107534E-01 0.80540404E+03</pdfrwt>
<pdfrwt beam="2">  1       -1 0.23817651E+00 0.80540404E+03</pdfrwt>
<totfact> 0.58229665E+00</totfact>
</mgrwt>
</event>
<event>
 4    2  0.3179755E-007  0.8048126E+03  0.7818608E-02  0.9700485E-01
          1   -1    0    0  501    0  0.00000000000E+00  0.00000000000E+00  0.10894084106E+04  0.10894084106E+04  0.50400000000E-02 0. -1.
         -1   -1    0    0    0  501 -0.00000000000E+00 -0.00000000000E+00 -0.41706005141E+03  0.41706005144E+03  0.50400000000E-02 0.  1.
    8880023    1    1    2    0    0 -0.32025106060E+03  0.33369495060E+03  0.20301532699E+03  0.83002318710E+03  0.65864270000E+03 0.  0.
    8880022    1    1    2    0    0  0.32025106060E+03 -0.33369495060E+03  0.46933303216E+03  0.67644527492E+03  0.15294330000E+03 0.  0.
<mgrwt>
<rscale>  0 0.70987905E+03</rscale>
<asrwt>0</asrwt>
<pdfrwt beam="1">  1        1 0.16760129E+00 0.80481257E+03</pdfrwt>
<pdfrwt beam="2">  1       -1 0.64163085E-01 0.80481257E+03</pdfrwt>
<totfact> 0.32490753E+01</totfact>
</mgrwt>
</event>
<event>
 4    2  0.3179755E-007  0.8553240E+03  0.7818608E-02  0.9601936E-01
          1   -1    0    0  501    0  0.00000000000E+00  0.00000000000E+00  0.19449169643E+04  0.19449169643E+04  0.50400000000E-02 0. -1.
         -1   -1    0    0    0  501 -0.00000000000E+00 -0.00000000000E+00 -0.35271592695E+03  0.35271592698E+03  0.50400000000E-02 0.  1.
    8880023    1    1    2    0    0  0.36832410394E+03  0.40262435228E+03  0.14953771891E+04  0.17227107008E+04  0.65864270000E+03 0. -1.
    8880022    1    1    2    0    0 -0.36832410394E+03 -0.40262435228E+03  0.96823848291E+02  0.57492219056E+03  0.15294330000E+03 0.  0.
<mgrwt>
<rscale>  0 0.77168188E+03</rscale>
<asrwt>0</asrwt>
<pdfrwt beam="1">  1        1 0.29921799E+00 0.85532404E+03</pdfrwt>
<pdfrwt beam="2">  1       -1 0.54263990E-01 0.85532404E+03</pdfrwt>
<totfact> 0.11456165E+01</totfact>
</mgrwt>
</event>
<event>
 4    2  0.3179755E-007  0.6887277E+03  0.7818608E-02  0.1004763E+00
         -1   -1    0    0    0  501 -0.00000000000E+00  0.00000000000E+00  0.19742380493E+03  0.19742380500E+03  0.50400000000E-02 0.  1.
          1   -1    0    0  501    0  0.00000000000E+00 -0.00000000000E+00 -0.18338760624E+04  0.18338760624E+04  0.50400000000E-02 0. -1.
    8880023    1    1    2    0    0 -0.13035637830E+03 -0.15343681364E+03 -0.16396665543E+04  0.17784409624E+04  0.65864270000E+03 0.  0.
    8880022    1    1    2    0    0  0.13035637830E+03  0.15343681364E+03  0.32142968033E+01  0.25285890505E+03  0.15294330000E+03 0.  0.
<mgrwt>
<rscale>  0 0.53610080E+03</rscale>
<asrwt>0</asrwt>
<pdfrwt beam="1">  1        1 0.28213477E+00 0.68872770E+03</pdfrwt>
<pdfrwt beam="2">  1       -1 0.30372894E-01 0.68872770E+03</pdfrwt>
<totfact> 0.40164551E+01</totfact>
</mgrwt>
</event>
<event>
 4    2  0.3179755E-007  0.6748424E+03  0.7818608E-02  0.1012406E+00
          1   -1    0    0  501    0  0.00000000000E+00  0.00000000000E+00  0.11547919798E+04  0.11547919798E+04  0.50400000000E-02 0. -1.
         -1   -1    0    0    0  501 -0.00000000000E+00 -0.00000000000E+00 -0.23655081050E+03  0.23655081055E+03  0.50400000000E-02 0.  1.
    8880023    1    1    2    0    0 -0.52462937192E+02 -0.13729429608E+03  0.96166713347E+03  0.11748259298E+04  0.65864270000E+03 0. -1.
    8880022    1    1    2    0    0  0.52462937192E+02  0.13729429608E+03 -0.43425964179E+02  0.21651686053E+03  0.15294330000E+03 0.  0.
<mgrwt>
<rscale>  0 0.50529592E+03</rscale>
<asrwt>0</asrwt>
<pdfrwt beam="1">  1        1 0.17766030E+00 0.67484242E+03</pdfrwt>
<pdfrwt beam="2">  1       -1 0.36392433E-01 0.67484242E+03</pdfrwt>
<totfact> 0.85818586E+01</totfact>
</mgrwt>
</event>
<event>
 4    2  0.3179755E-007  0.7580113E+03  0.7818608E-02  0.9810283E-01
          1   -1    0    0  501    0  0.00000000000E+00  0.00000000000E+00  0.13052883066E+04  0.13052883066E+04  0.50400000000E-02 0. -1.
         -1   -1    0    0    0  501 -0.00000000000E+00 -0.00000000000E+00 -0.49598852088E+03  0.49598852091E+03  0.50400000000E-02 0.  1.
    8880023    1    1    2    0    0  0.37506038928E+03  0.10031590810E+02  0.10760130182E+04  0.13162010295E+04  0.65864270000E+03 0.  0.
    8880022    1    1    2    0    0 -0.37506038928E+03 -0.10031590810E+02 -0.26671323250E+03  0.48507579802E+03  0.15294330000E+03 0.  0.
<mgrwt>
<rscale>  0 0.64813583E+03</rscale>
<asrwt>0</asrwt>
<pdfrwt beam="1">  1        1 0.20081359E+00 0.75801130E+03</pdfrwt>
<pdfrwt beam="2">  1       -1 0.76305926E-01 0.75801130E+03</pdfrwt>
<totfact> 0.15962854E+01</totfact>
</mgrwt>
</event>
<event>
 4    2  0.3179755E-007  0.7466091E+03  0.7818608E-02  0.9841097E-01
         -1   -1    0    0    0  501 -0.00000000000E+00  0.00000000000E+00  0.30635561410E+03  0.30635561415E+03  0.50400000000E-02 0.  1.
          1   -1    0    0  501    0  0.00000000000E+00 -0.00000000000E+00 -0.14949871405E+04  0.14949871405E+04  0.50400000000E-02 0. -1.
    8880023    1    1    2    0    0  0.62709906911E+02 -0.34595149002E+03 -0.12050317339E+04  0.14175777410E+04  0.65864270000E+03 0. -1.
    8880022    1    1    2    0    0 -0.62709906911E+02  0.34595149002E+03  0.16400207493E+02  0.38376501364E+03  0.15294330000E+03 0.  0.
<mgrwt>
<rscale>  0 0.63202910E+03</rscale>
<asrwt>0</asrwt>
<pdfrwt beam="1">  1        1 0.22999802E+00 0.74660912E+03</pdfrwt>
<pdfrwt beam="2">  1       -1 0.47131634E-01 0.74660912E+03</pdfrwt>
<totfact> 0.30557788E+01</totfact>
</mgrwt>
</event>
<event>
 4    2  0.3179755E-007  0.8727638E+03  0.7818608E-02  0.9571250E-01
          1   -1    0    0  501    0  0.00000000000E+00  0.00000000000E+00  0.20498476143E+04  0.20498476143E+04  0.50400000000E-02 0. -1.
         -1   -1    0    0    0  501 -0.00000000000E+00 -0.00000000000E+00 -0.36171285101E+03  0.36171285104E+03  0.50400000000E-02 0.  1.
    8880023    1    1    2    0    0  0.45269491557E+03  0.35067603939E+03  0.15857751263E+04  0.18100826856E+04  0.65864270000E+03 0.  0.
    8880022    1    1    2    0    0 -0.45269491557E+03 -0.35067603939E+03  0.10235963692E+03  0.60147777970E+03  0.15294330000E+03 0.  0.
<mgrwt>
<rscale>  0 0.79228602E+03</rscale>
<asrwt>0</asrwt>
<pdfrwt beam="1">  1        1 0.31536117E+00 0.87276376E+03</pdfrwt>
<pdfrwt beam="2">  1       -1 0.55648131E-01 0.87276376E+03</pdfrwt>
<totfact> 0.92563369E+00</totfact>
</mgrwt>
</event>
<event>
 4    2  0.3179755E-007  0.6638256E+03  0.7818608E-02  0.1020540E+00
         -1   -1    0    0    0  501 -0.00000000000E+00  0.00000000000E+00  0.18145241992E+03  0.18145241999E+03  0.50400000000E-02 0.  1.
          1   -1    0    0  501    0  0.00000000000E+00 -0.00000000000E+00 -0.19608821744E+04  0.19608821744E+04  0.50400000000E-02 0. -1.
    8880023    1    1    2    0    0  0.10799873878E+02 -0.82082561388E+02 -0.18416422375E+04  0.19576288007E+04  0.65864270000E+03 0. -1.
    8880022    1    1    2    0    0 -0.10799873878E+02  0.82082561388E+02  0.62212483026E+02  0.18470579368E+03  0.15294330000E+03 0.  0.
<mgrwt>
<rscale>  0 0.47492353E+03</rscale>
<asrwt>0</asrwt>
<pdfrwt beam="1">  1        1 0.30167417E+00 0.66382557E+03</pdfrwt>
<pdfrwt beam="2">  1       -1 0.27915758E-01 0.66382557E+03</pdfrwt>
<totfact> 0.38383255E+01</totfact>
</mgrwt>
</event>
<event>
 4    2  0.3179755E-007  0.6919217E+03  0.7818608E-02  0.1003252E+00
         -1   -1    0    0    0  501 -0.00000000000E+00  0.00000000000E+00  0.49883321440E+03  0.49883321443E+03  0.50400000000E-02 0.  1.
          1   -1    0    0  501    0  0.00000000000E+00 -0.00000000000E+00 -0.58798397242E+03  0.58798397244E+03  0.50400000000E-02 0. -1.
    8880023    1    1    2    0    0 -0.20763900890E+03 -0.42796340410E+02 -0.29687496596E+03  0.75292126843E+03  0.65864270000E+03 0.  0.
    8880022    1    1    2    0    0  0.20763900890E+03  0.42796340410E+02  0.20772420794E+03  0.33389591844E+03  0.15294330000E+03 0.  0.
<mgrwt>
<rscale>  0 0.54246888E+03</rscale>
<asrwt>0</asrwt>
<pdfrwt beam="1">  1        1 0.90459073E-01 0.69192174E+03</pdfrwt>
<pdfrwt beam="2">  1       -1 0.76743571E-01 0.69192174E+03</pdfrwt>
<totfact> 0.61623965E+01</totfact>
</mgrwt>
</event>
<event>
 4    2  0.3815673E-007  0.7750342E+03  0.7818608E-02  0.9767634E-01
         -1   -1    0    0    0  501 -0.00000000000E+00  0.00000000000E+00  0.14399276091E+04  0.14399276091E+04  0.50400000000E-02 0.  1.
          1   -1    0    0  501    0  0.00000000000E+00 -0.00000000000E+00 -0.11755781266E+04  0.11755781266E+04  0.50400000000E-02 0. -1.
    8880023    1    1    2    0    0 -0.31161754423E+03  0.26412550915E+03 -0.10073983844E+04  0.12710348106E+04  0.65864270000E+03 0.  0.
    8880022    1    1    2    0    0  0.31161754423E+03 -0.26412550915E+03  0.12717478670E+04  0.13444709252E+04  0.15294330000E+03 0.  0.
<mgrwt>
<rscale>  0 0.67128805E+03</rscale>
<asrwt>0</asrwt>
<pdfrwt beam="1">  1        1 0.18085817E+00 0.77503418E+03</pdfrwt>
<pdfrwt beam="2">  1       -1 0.22152732E+00 0.77503418E+03</pdfrwt>
<totfact> 0.12501992E+00</totfact>
</mgrwt>
</event>
<event>
 4    2  0.3179755E-007  0.6599514E+03  0.7818608E-02  0.1024206E+00
          1   -1    0    0  501    0  0.00000000000E+00  0.00000000000E+00  0.77576151880E+03  0.77576151882E+03  0.50400000000E-02 0. -1.
         -1   -1    0    0    0  501 -0.00000000000E+00 -0.00000000000E+00 -0.24630693700E+03  0.24630693706E+03  0.50400000000E-02 0.  1.
    8880023    1    1    2    0    0 -0.62184827182E+01  0.41072605962E+02  0.55404797680E+03  0.86168729557E+03  0.65864270000E+03 0. -1.
    8880022    1    1    2    0    0  0.62184827182E+01 -0.41072605962E+02 -0.24593395002E+02  0.16038116030E+03  0.15294330000E+03 0.  0.
<mgrwt>
<rscale>  0 0.46198783E+03</rscale>
<asrwt>0</asrwt>
<pdfrwt beam="1">  1        1 0.11934793E+00 0.65995139E+03</pdfrwt>
<pdfrwt beam="2">  1       -1 0.37893375E-01 0.65995139E+03</pdfrwt>
<totfact> 0.15943893E+02</totfact>
</mgrwt>
</event>
<event>
 4    2  0.3179755E-007  0.6682985E+03  0.7818608E-02  0.1016913E+00
          1   -1    0    0  501    0  0.00000000000E+00  0.00000000000E+00  0.52077950363E+03  0.52077950366E+03  0.50400000000E-02 0. -1.
         -1   -1    0    0    0  501 -0.00000000000E+00 -0.00000000000E+00 -0.11047202480E+04  0.11047202481E+04  0.50400000000E-02 0.  1.
    8880023    1    1    2    0    0 -0.52234240565E+02  0.10042051853E+03  0.29187329108E+03  0.72925504506E+03  0.65864270000E+03 0. -1.
    8880022    1    1    2    0    0  0.52234240565E+02 -0.10042051853E+03 -0.87581403550E+03  0.89624470666E+03  0.15294330000E+03 0.  0.
<mgrwt>
<rscale>  0 0.48817211E+03</rscale>
<asrwt>0</asrwt>
<pdfrwt beam="1">  1        1 0.80119924E-01 0.66829851E+03</pdfrwt>
<pdfrwt beam="2">  1       -1 0.16995696E+00 0.66829851E+03</pdfrwt>
<totfact> 0.10739533E+01</totfact>
</mgrwt>
</event>
<event>
 4    2  0.3179755E-007  0.8068784E+03  0.7818608E-02  0.9696116E-01
          1   -1    0    0  501    0  0.00000000000E+00  0.00000000000E+00  0.10140360894E+04  0.10140360894E+04  0.50400000000E-02 0. -1.
         -1   -1    0    0    0  501 -0.00000000000E+00 -0.00000000000E+00 -0.95264568951E+03  0.95264568953E+03  0.50400000000E-02 0.  1.
    8880023    1    1    2    0    0  0.23834545311E+03  0.40054209978E+03  0.76305743538E+03  0.11105446342E+04  0.65864270000E+03 0. -1.
    8880022    1    1    2    0    0 -0.23834545311E+03 -0.40054209978E+03 -0.70166703552E+03  0.85613714466E+03  0.15294330000E+03 0.  0.
<mgrwt>
<rscale>  0 0.71248500E+03</rscale>
<asrwt>0</asrwt>
<pdfrwt beam="1">  1        1 0.15600555E+00 0.80687839E+03</pdfrwt>
<pdfrwt beam="2">  1       -1 0.14656087E+00 0.80687839E+03</pdfrwt>
<totfact> 0.56281342E+00</totfact>
</mgrwt>
</event>
<event>
 4    2  0.3179755E-007  0.7340581E+03  0.7818608E-02  0.9877606E-01
         -1   -1    0    0    0  501 -0.00000000000E+00  0.00000000000E+00  0.77218027368E+03  0.77218027370E+03  0.50400000000E-02 0.  1.
          1   -1    0    0  501    0  0.00000000000E+00 -0.00000000000E+00 -0.43240680613E+03  0.43240680616E+03  0.50400000000E-02 0. -1.
    8880023    1    1    2    0    0  0.32248054920E+02  0.32247665201E+03  0.36237121081E+02  0.73495201432E+03  0.65864270000E+03 0.  0.
    8880022    1    1    2    0    0 -0.32248054920E+02 -0.32247665201E+03  0.30353634647E+03  0.46963506554E+03  0.15294330000E+03 0.  0.
<mgrwt>
<rscale>  0 0.61358975E+03</rscale>
<asrwt>0</asrwt>
<pdfrwt beam="1">  1        1 0.66524123E-01 0.73405813E+03</pdfrwt>
<pdfrwt beam="2">  1       -1 0.11879697E+00 0.73405813E+03</pdfrwt>
<totfact> 0.35123673E+01</totfact>
</mgrwt>
</event>
<event>
 4    2  0.3179755E-007  0.6817950E+03  0.7818608E-02  0.1008326E+00
          1   -1    0    0  501    0  0.00000000000E+00  0.00000000000E+00  0.95136782584E+03  0.95136782586E+03  0.50400000000E-02 0. -1.
         -1   -1    0    0    0  501 -0.00000000000E+00 -0.00000000000E+00 -0.39000783865E+03  0.39000783868E+03  0.50400000000E-02 0.  1.
    8880023    1    1    2    0    0  0.17405684268E+03  0.27173492880E+02  0.76994957656E+03  0.10284292586E+04  0.65864270000E+03 0. -1.
    8880022    1    1    2    0    0 -0.17405684268E+03 -0.27173492880E+02 -0.20858958936E+03  0.31294640596E+03  0.15294330000E+03 0.  0.
<mgrwt>
<rscale>  0 0.52145398E+03</rscale>
<asrwt>0</asrwt>
<pdfrwt beam="1">  1        1 0.14636428E+00 0.68179498E+03</pdfrwt>
<pdfrwt beam="2">  1       -1 0.60001206E-01 0.68179498E+03</pdfrwt>
<totfact> 0.48019134E+01</totfact>
</mgrwt>
</event>
<event>
 4    2  0.3179755E-007  0.8151088E+03  0.7818608E-02  0.9679032E-01
         -1   -1    0    0    0  501 -0.00000000000E+00  0.00000000000E+00  0.58582817655E+03  0.58582817657E+03  0.50400000000E-02 0.  1.
          1   -1    0    0  501    0  0.00000000000E+00 -0.00000000000E+00 -0.94059297953E+03  0.94059297955E+03  0.50400000000E-02 0. -1.
    8880023    1    1    2    0    0  0.35219771018E+02 -0.47890687479E+03  0.13203949267E+03  0.82573413450E+03  0.65864270000E+03 0.  0.
    8880022    1    1    2    0    0 -0.35219771018E+02  0.47890687479E+03 -0.48680429565E+03  0.70068702162E+03  0.15294330000E+03 0.  0.
<mgrwt>
<rscale>  0 0.72279056E+03</rscale>
<asrwt>0</asrwt>
<pdfrwt beam="1">  1        1 0.14470661E+00 0.81510885E+03</pdfrwt>
<pdfrwt beam="2">  1       -1 0.90127411E-01 0.81510885E+03</pdfrwt>
<totfact> 0.20732565E+01</totfact>
</mgrwt>
</event>
<event>
 4    2  0.3179755E-007  0.7703930E+03  0.7818608E-02  0.9778908E-01
          1   -1    0    0  501    0  0.00000000000E+00  0.00000000000E+00  0.25644070173E+04  0.25644070173E+04  0.50400000000E-02 0. -1.
         -1   -1    0    0    0  501 -0.00000000000E+00 -0.00000000000E+00 -0.23333390716E+03  0.23333390722E+03  0.50400000000E-02 0.  1.
    8880023    1    1    2    0    0 -0.36335757419E+03 -0.16633211004E+03  0.22282562426E+04  0.23576749535E+04  0.65864270000E+03 0. -1.
    8880022    1    1    2    0    0  0.36335757419E+03  0.16633211004E+03  0.10281686752E+03  0.44006597097E+03  0.15294330000E+03 0.  0.
<mgrwt>
<rscale>  0 0.66506844E+03</rscale>
<asrwt>0</asrwt>
<pdfrwt beam="1">  1        1 0.39452413E+00 0.77039295E+03</pdfrwt>
<pdfrwt beam="2">  1       -1 0.35897526E-01 0.77039295E+03</pdfrwt>
<totfact> 0.95249469E+00</totfact>
</mgrwt>
</event>
<event>
 4    2  0.3179755E-007  0.7278477E+03  0.7818608E-02  0.9896875E-01
          1   -1    0    0  501    0  0.00000000000E+00  0.00000000000E+00  0.65178847207E+03  0.65178847209E+03  0.50400000000E-02 0. -1.
         -1   -1    0    0    0  501 -0.00000000000E+00 -0.00000000000E+00 -0.96078305164E+03  0.96078305165E+03  0.50400000000E-02 0.  1.
    8880023    1    1    2    0    0  0.27218681362E+03 -0.14787298587E+03  0.39518908256E+03  0.82821295492E+03  0.65864270000E+03 0. -1.
    8880022    1    1    2    0    0 -0.27218681362E+03  0.14787298587E+03 -0.70418366212E+03  0.78435856882E+03  0.15294330000E+03 0.  0.
<mgrwt>
<rscale>  0 0.60412992E+03</rscale>
<asrwt>0</asrwt>
<pdfrwt beam="1">  1        1 0.10027515E+00 0.72784771E+03</pdfrwt>
<pdfrwt beam="2">  1       -1 0.14781278E+00 0.72784771E+03</pdfrwt>
<totfact> 0.11370035E+01</totfact>
</mgrwt>
</event>
<event>
 4    2  0.3179755E-007  0.7280505E+03  0.7818608E-02  0.9896231E-01
          1   -1    0    0  501    0  0.00000000000E+00  0.00000000000E+00  0.23360359629E+04  0.23360359629E+04  0.50400000000E-02 0. -1.
         -1   -1    0    0    0  501 -0.00000000000E+00 -0.00000000000E+00 -0.15672306047E+03  0.15672306055E+03  0.50400000000E-02 0.  1.
    8880023    1    1    2    0    0 -0.30178976220E+03 -0.71904246429E+02  0.19401049098E+04  0.20722124767E+04  0.65864270000E+03 0.  0.
    8880022    1    1    2    0    0  0.30178976220E+03  0.71904246429E+02  0.23920799256E+03  0.42054654670E+03  0.15294330000E+03 0.  0.
<mgrwt>
<rscale>  0 0.60444276E+03</rscale>
<asrwt>0</asrwt>
<pdfrwt beam="1">  1        1 0.35939012E+00 0.72805047E+03</pdfrwt>
<pdfrwt beam="2">  1       -1 0.24111242E-01 0.72805047E+03</pdfrwt>
<totfact> 0.27405505E+01</totfact>
</mgrwt>
</event>
<event>
 4    2  0.3179755E-007  0.6914336E+03  0.7818608E-02  0.1003479E+00
          1   -1    0    0  501    0  0.00000000000E+00  0.00000000000E+00  0.10234736137E+04  0.10234736137E+04  0.50400000000E-02 0. -1.
         -1   -1    0    0    0  501 -0.00000000000E+00 -0.00000000000E+00 -0.36042926322E+03  0.36042926325E+03  0.50400000000E-02 0.  1.
    8880023    1    1    2    0    0  0.17628174034E+02 -0.20966504788E+03  0.82581317610E+03  0.10770551485E+04  0.65864270000E+03 0. -1.
    8880022    1    1    2    0    0 -0.17628174034E+02  0.20966504788E+03 -0.16276882566E+03  0.30684772843E+03  0.15294330000E+03 0.  0.
<mgrwt>
<rscale>  0 0.54150918E+03</rscale>
<asrwt>0</asrwt>
<pdfrwt beam="1">  1        1 0.15745748E+00 0.69143358E+03</pdfrwt>
<pdfrwt beam="2">  1       -1 0.55450657E-01 0.69143358E+03</pdfrwt>
<totfact> 0.49165456E+01</totfact>
</mgrwt>
</event>
<event>
 4    2  0.3179755E-007  0.6782529E+03  0.7818608E-02  0.1010330E+00
          1   -1    0    0  501    0  0.00000000000E+00  0.00000000000E+00  0.78427442829E+03  0.78427442830E+03  0.50400000000E-02 0. -1.
         -1   -1    0    0    0  501 -0.00000000000E+00 -0.00000000000E+00 -0.72266484715E+03  0.72266484717E+03  0.50400000000E-02 0.  1.
    8880023    1    1    2    0    0  0.14249180446E+03  0.76895220862E+02  0.61177551931E+03  0.91339820539E+03  0.65864270000E+03 0. -1.
    8880022    1    1    2    0    0 -0.14249180446E+03 -0.76895220862E+02 -0.55016593817E+03  0.59354107008E+03  0.15294330000E+03 0.  0.
<mgrwt>
<rscale>  0 0.51343822E+03</rscale>
<asrwt>0</asrwt>
<pdfrwt beam="1">  1        1 0.12065760E+00 0.67825290E+03</pdfrwt>
<pdfrwt beam="2">  1       -1 0.11117921E+00 0.67825290E+03</pdfrwt>
<totfact> 0.17618232E+01</totfact>
</mgrwt>
</event>
<event>
 4    2  0.3179755E-007  0.8610692E+03  0.7818608E-02  0.9591664E-01
         -1   -1    0    0    0  501 -0.00000000000E+00  0.00000000000E+00  0.66575009279E+03  0.66575009281E+03  0.50400000000E-02 0.  1.
          1   -1    0    0  501    0  0.00000000000E+00 -0.00000000000E+00 -0.18109142315E+04  0.18109142315E+04  0.50400000000E-02 0. -1.
    8880023    1    1    2    0    0  0.31316075289E+03 -0.45777755781E+03 -0.15500326732E+04  0.17731445073E+04  0.65864270000E+03 0. -1.
    8880022    1    1    2    0    0 -0.31316075289E+03  0.45777755781E+03  0.40486853453E+03  0.70351981696E+03  0.15294330000E+03 0.  0.
<mgrwt>
<rscale>  0 0.77850352E+03</rscale>
<asrwt>0</asrwt>
<pdfrwt beam="1">  1        1 0.27860219E+00 0.86106919E+03</pdfrwt>
<pdfrwt beam="2">  1       -1 0.10242309E+00 0.86106919E+03</pdfrwt>
<totfact> 0.37167201E+00</totfact>
</mgrwt>
</event>
<event>
 4    2  0.3179755E-007  0.6715572E+03  0.7818608E-02  0.1014570E+00
         -1   -1    0    0    0  501 -0.00000000000E+00  0.00000000000E+00  0.76823738406E+03  0.76823738408E+03  0.50400000000E-02 0.  1.
          1   -1    0    0  501    0  0.00000000000E+00 -0.00000000000E+00 -0.30458607276E+03  0.30458607280E+03  0.50400000000E-02 0. -1.
    8880023    1    1    2    0    0  0.91553759986E+02 -0.93791256038E+02  0.13140875179E+03  0.68429332672E+03  0.65864270000E+03 0. -1.
    8880022    1    1    2    0    0 -0.91553759986E+02  0.93791256038E+02  0.33224255952E+03  0.38853013016E+03  0.15294330000E+03 0.  0.
<mgrwt>
<rscale>  0 0.49697967E+03</rscale>
<asrwt>0</asrwt>
<pdfrwt beam="1">  1        1 0.46859396E-01 0.67155722E+03</pdfrwt>
<pdfrwt beam="2">  1       -1 0.11819037E+00 0.67155722E+03</pdfrwt>
<totfact> 0.56651472E+01</totfact>
</mgrwt>
</event>
<event>
 4    2  0.3179755E-007  0.1156767E+04  0.7818608E-02  0.9200339E-01
         -1   -1    0    0    0  501 -0.00000000000E+00  0.00000000000E+00  0.68887683909E+03  0.68887683910E+03  0.50400000000E-02 0.  1.
          1   -1    0    0  501    0  0.00000000000E+00 -0.00000000000E+00 -0.21727258947E+04  0.21727258947E+04  0.50400000000E-02 0. -1.
    8880023    1    1    2    0    0  0.87111581558E+03 -0.38138676804E+03 -0.15050140789E+04  0.18982034177E+04  0.65864270000E+03 0.  0.
    8880022    1    1    2    0    0 -0.87111581558E+03  0.38138676804E+03  0.21165023329E+02  0.96339931608E+03  0.15294330000E+03 0.  0.
<mgrwt>
<rscale>  0 0.11049934E+04</rscale>
<asrwt>0</asrwt>
<pdfrwt beam="1">  1        1 0.33426552E+00 0.11567665E+04</pdfrwt>
<pdfrwt beam="2">  1       -1 0.10598105E+00 0.11567665E+04</pdfrwt>
<totfact> 0.18794207E+00</totfact>
</mgrwt>
</event>
<event>
 4    2  0.3179755E-007  0.6877385E+03  0.7818608E-02  0.1005246E+00
         -1   -1    0    0    0  501 -0.00000000000E+00  0.00000000000E+00  0.24460496080E+03  0.24460496085E+03  0.50400000000E-02 0.  1.
          1   -1    0    0  501    0  0.00000000000E+00 -0.00000000000E+00 -0.14492693952E+04  0.14492693952E+04  0.50400000000E-02 0. -1.
    8880023    1    1    2    0    0 -0.10897851762E+03 -0.16522036013E+03 -0.12620239462E+04  0.14372504068E+04  0.65864270000E+03 0. -1.
    8880022    1    1    2    0    0  0.10897851762E+03  0.16522036013E+03  0.57359511869E+02  0.25662394924E+03  0.15294330000E+03 0.  0.
<mgrwt>
<rscale>  0 0.53408403E+03</rscale>
<asrwt>0</asrwt>
<pdfrwt beam="1">  1        1 0.22296452E+00 0.68773853E+03</pdfrwt>
<pdfrwt beam="2">  1       -1 0.37631533E-01 0.68773853E+03</pdfrwt>
<totfact> 0.49991440E+01</totfact>
</mgrwt>
</event>
<event>
 4    2  0.3179755E-007  0.9735187E+03  0.7818608E-02  0.9417054E-01
         -1   -1    0    0    0  501 -0.00000000000E+00  0.00000000000E+00  0.90606184716E+03  0.90606184718E+03  0.50400000000E-02 0.  1.
          1   -1    0    0  501    0  0.00000000000E+00 -0.00000000000E+00 -0.17005330174E+04  0.17005330174E+04  0.50400000000E-02 0. -1.
    8880023    1    1    2    0    0 -0.11864850996E+03  0.70700140663E+03 -0.13657833619E+04  0.16772307104E+04  0.65864270000E+03 0.  0.
    8880022    1    1    2    0    0  0.11864850996E+03 -0.70700140663E+03  0.57131219163E+03  0.92936415425E+03  0.15294330000E+03 0.  0.
<mgrwt>
<rscale>  0 0.90685398E+03</rscale>
<asrwt>0</asrwt>
<pdfrwt beam="1">  1        1 0.26162046E+00 0.97351870E+03</pdfrwt>
<pdfrwt beam="2">  1       -1 0.13939413E+00 0.97351870E+03</pdfrwt>
<totfact> 0.20414829E+00</totfact>
</mgrwt>
</event>
<event>
 4    2  0.3179755E-007  0.7535017E+03  0.7818608E-02  0.9822231E-01
         -1   -1    0    0    0  501 -0.00000000000E+00  0.00000000000E+00  0.57931697523E+03  0.57931697526E+03  0.50400000000E-02 0.  1.
          1   -1    0    0  501    0  0.00000000000E+00 -0.00000000000E+00 -0.18671668258E+04  0.18671668258E+04  0.50400000000E-02 0. -1.
    8880023    1    1    2    0    0 -0.13515962932E+03 -0.34012723598E+03 -0.17091224034E+04  0.18678501701E+04  0.65864270000E+03 0.  0.
    8880022    1    1    2    0    0  0.13515962932E+03  0.34012723598E+03  0.42127255282E+03  0.57863363092E+03  0.15294330000E+03 0.  0.
<mgrwt>
<rscale>  0 0.64183037E+03</rscale>
<asrwt>0</asrwt>
<pdfrwt beam="1">  1        1 0.28725643E+00 0.75350174E+03</pdfrwt>
<pdfrwt beam="2">  1       -1 0.89125689E-01 0.75350174E+03</pdfrwt>
<totfact> 0.47406397E+00</totfact>
</mgrwt>
</event>
<event>
 4    2  0.3179755E-007  0.7232916E+03  0.7818608E-02  0.9911602E-01
          1   -1    0    0  501    0  0.00000000000E+00  0.00000000000E+00  0.57399038156E+03  0.57399038159E+03  0.50400000000E-02 0. -1.
         -1   -1    0    0    0  501 -0.00000000000E+00 -0.00000000000E+00 -0.49821346562E+03  0.49821346564E+03  0.50400000000E-02 0.  1.
    8880023    1    1    2    0    0 -0.19169448712E+03 -0.22933338073E+03  0.12124380007E+03  0.73338314763E+03  0.65864270000E+03 0. -1.
    8880022    1    1    2    0    0  0.19169448712E+03  0.22933338073E+03 -0.45466884121E+02  0.33882069960E+03  0.15294330000E+03 0.  1.
<mgrwt>
<rscale>  0 0.59702304E+03</rscale>
<asrwt>0</asrwt>
<pdfrwt beam="1">  1        1 0.88306212E-01 0.72329163E+03</pdfrwt>
<pdfrwt beam="2">  1       -1 0.76648226E-01 0.72329163E+03</pdfrwt>
<totfact> 0.63767759E+01</totfact>
</mgrwt>
</event>
<event>
 4    2  0.3179755E-007  0.8591592E+03  0.7818608E-02  0.9595061E-01
         -1   -1    0    0    0  501 -0.00000000000E+00  0.00000000000E+00  0.51005256387E+03  0.51005256389E+03  0.50400000000E-02 0.  1.
          1   -1    0    0  501    0  0.00000000000E+00 -0.00000000000E+00 -0.10643395815E+04  0.10643395815E+04  0.50400000000E-02 0. -1.
    8880023    1    1    2    0    0  0.19910493428E+03  0.51449146713E+03 -0.51245813983E+03  0.10003838243E+04  0.65864270000E+03 0.  0.
    8880022    1    1    2    0    0 -0.19910493428E+03 -0.51449146713E+03 -0.41828877762E+02  0.57400832105E+03  0.15294330000E+03 0. -1.
<mgrwt>
<rscale>  0 0.77623946E+03</rscale>
<asrwt>0</asrwt>
<pdfrwt beam="1">  1        1 0.16374455E+00 0.85915915E+03</pdfrwt>
<pdfrwt beam="2">  1       -1 0.78469625E-01 0.85915915E+03</pdfrwt>
<totfact> 0.22298148E+01</totfact>
</mgrwt>
</event>
<event>
 4    2  0.3179755E-007  0.7311640E+03  0.7818608E-02  0.9886476E-01
          1   -1    0    0  501    0  0.00000000000E+00  0.00000000000E+00  0.24851332376E+04  0.24851332376E+04  0.50400000000E-02 0. -1.
         -1   -1    0    0    0  501 -0.00000000000E+00 -0.00000000000E+00 -0.18886429128E+03  0.18886429135E+03  0.50400000000E-02 0.  1.
    8880023    1    1    2    0    0  0.31337631058E+03  0.50851802952E+02  0.21855621251E+04  0.23046220138E+04  0.65864270000E+03 0. -1.
    8880022    1    1    2    0    0 -0.31337631058E+03 -0.50851802952E+02  0.11070682129E+03  0.36937551515E+03  0.15294330000E+03 0.  0.
<mgrwt>
<rscale>  0 0.60921215E+03</rscale>
<asrwt>0</asrwt>
<pdfrwt beam="1">  1        1 0.38232816E+00 0.73116402E+03</pdfrwt>
<pdfrwt beam="2">  1       -1 0.29056047E-01 0.73116402E+03</pdfrwt>
<totfact> 0.15758053E+01</totfact>
</mgrwt>
</event>
<event>
 4    2  0.3179755E-007  0.6691481E+03  0.7818608E-02  0.1016281E+00
         -1   -1    0    0    0  501 -0.00000000000E+00  0.00000000000E+00  0.11824896017E+03  0.11824896027E+03  0.50400000000E-02 0.  1.
          1   -1    0    0  501    0  0.00000000000E+00 -0.00000000000E+00 -0.29694360504E+04  0.29694360504E+04  0.50400000000E-02 0. -1.
    8880023    1    1    2    0    0 -0.50254355650E+02 -0.10688082641E+03 -0.28119932186E+04  0.28905129440E+04  0.65864270000E+03 0. -1.
    8880022    1    1    2    0    0  0.50254355650E+02  0.10688082641E+03 -0.39193871635E+02  0.19717206675E+03  0.15294330000E+03 0.  0.
<mgrwt>
<rscale>  0 0.49052874E+03</rscale>
<asrwt>0</asrwt>
<pdfrwt beam="1">  1        1 0.45683626E+00 0.66914813E+03</pdfrwt>
<pdfrwt beam="2">  1       -1 0.18192150E-01 0.66914813E+03</pdfrwt>
<totfact> 0.16166275E+01</totfact>
</mgrwt>
</event>
<event>
 4    2  0.3179755E-007  0.7208162E+03  0.7818608E-02  0.9919834E-01
          1   -1    0    0  501    0  0.00000000000E+00  0.00000000000E+00  0.14055146888E+04  0.14055146888E+04  0.50400000000E-02 0. -1.
         -1   -1    0    0    0  501 -0.00000000000E+00 -0.00000000000E+00 -0.29649661254E+03  0.29649661259E+03  0.50400000000E-02 0.  1.
    8880023    1    1    2    0    0  0.68565801575E+01 -0.29277757789E+03  0.11619869079E+04  0.13674024657E+04  0.65864270000E+03 0. -1.
    8880022    1    1    2    0    0 -0.68565801575E+01  0.29277757789E+03 -0.52968831613E+02  0.33460883572E+03  0.15294330000E+03 0.  0.
<mgrwt>
<rscale>  0 0.59309603E+03</rscale>
<asrwt>0</asrwt>
<pdfrwt beam="1">  1        1 0.21623303E+00 0.72081615E+03</pdfrwt>
<pdfrwt beam="2">  1       -1 0.45614864E-01 0.72081615E+03</pdfrwt>
<totfact> 0.37549936E+01</totfact>
</mgrwt>
</event>
<event>
 4    2  0.3179755E-007  0.8607225E+03  0.7818608E-02  0.9592280E-01
         -1   -1    0    0    0  501 -0.00000000000E+00  0.00000000000E+00  0.70553865670E+03  0.70553865672E+03  0.50400000000E-02 0.  1.
          1   -1    0    0  501    0  0.00000000000E+00 -0.00000000000E+00 -0.10489487265E+04  0.10489487265E+04  0.50400000000E-02 0. -1.
    8880023    1    1    2    0    0 -0.17397566799E+03  0.52608505905E+03 -0.67235020219E+03  0.10921987104E+04  0.65864270000E+03 0. -1.
    8880022    1    1    2    0    0  0.17397566799E+03 -0.52608505905E+03  0.32894013239E+03  0.66228867280E+03  0.15294330000E+03 0.  0.
<mgrwt>
<rscale>  0 0.77809286E+03</rscale>
<asrwt>0</asrwt>
<pdfrwt beam="1">  1        1 0.16137673E+00 0.86072250E+03</pdfrwt>
<pdfrwt beam="2">  1       -1 0.10854441E+00 0.86072250E+03</pdfrwt>
<totfact> 0.11117064E+01</totfact>
</mgrwt>
</event>
<event>
 4    2  0.3179755E-007  0.8706057E+03  0.7818608E-02  0.9574969E-01
         -1   -1    0    0    0  501 -0.00000000000E+00  0.00000000000E+00  0.18302165169E+04  0.18302165169E+04  0.50400000000E-02 0.  1.
          1   -1    0    0  501    0  0.00000000000E+00 -0.00000000000E+00 -0.51490937641E+03  0.51490937644E+03  0.50400000000E-02 0. -1.
    8880023    1    1    2    0    0 -0.24983637226E+03  0.51159145769E+03 -0.35450815585E+02  0.87132714813E+03  0.65864270000E+03 0.  0.
    8880022    1    1    2    0    0  0.24983637226E+03 -0.51159145769E+03  0.13507579561E+04  0.14737987452E+04  0.15294330000E+03 0.  0.
<mgrwt>
<rscale>  0 0.78975257E+03</rscale>
<asrwt>0</asrwt>
<pdfrwt beam="1">  1        1 0.79216828E-01 0.87060567E+03</pdfrwt>
<pdfrwt beam="2">  1       -1 0.28157177E+00 0.87060567E+03</pdfrwt>
<totfact> 0.19050322E+00</totfact>
</mgrwt>
</event>
<event>
 4    2  0.3611273E-007  0.1014026E+04  0.7818608E-02  0.9363433E-01
         -1   -1    0    0    0  501 -0.00000000000E+00  0.00000000000E+00  0.11463771073E+04  0.11463771073E+04  0.50400000000E-02 0.  1.
          1   -1    0    0  501    0  0.00000000000E+00 -0.00000000000E+00 -0.30461602416E+04  0.30461602416E+04  0.50400000000E-02 0. -1.
    8880023    1    1    2    0    0  0.26001960959E+03 -0.72582912810E+03 -0.28114962166E+04  0.29887722066E+04  0.65864270000E+03 0.  0.
    8880022    1    1    2    0    0 -0.26001960959E+03  0.72582912810E+03  0.91171308232E+03  0.12037651424E+04  0.15294330000E+03 0.  0.
<mgrwt>
<rscale>  0 0.95147057E+03</rscale>
<asrwt>0</asrwt>
<pdfrwt beam="1">  1        1 0.46864003E+00 0.10140258E+04</pdfrwt>
<pdfrwt beam="2">  1       -1 0.17636571E+00 0.10140258E+04</pdfrwt>
<totfact> 0.12549779E-01</totfact>
</mgrwt>
</event>
<event>
 4    2  0.3179755E-007  0.6678900E+03  0.7818608E-02  0.1017223E+00
          1   -1    0    0  501    0  0.00000000000E+00  0.00000000000E+00  0.14736504062E+04  0.14736504062E+04  0.50400000000E-02 0. -1.
         -1   -1    0    0    0  501 -0.00000000000E+00 -0.00000000000E+00 -0.14518040977E+03  0.14518040986E+03  0.50400000000E-02 0.  1.
    8880023    1    1    2    0    0 -0.56828398199E+02  0.95065082251E+02  0.12440230139E+04  0.14119739027E+04  0.65864270000E+03 0. -1.
    8880022    1    1    2    0    0  0.56828398199E+02 -0.95065082251E+02  0.84446982528E+02  0.20685691330E+03  0.15294330000E+03 0.  0.
<mgrwt>
<rscale>  0 0.48702255E+03</rscale>
<asrwt>0</asrwt>
<pdfrwt beam="1">  1        1 0.22671545E+00 0.66788999E+03</pdfrwt>
<pdfrwt beam="2">  1       -1 0.22335447E-01 0.66788999E+03</pdfrwt>
<totfact> 0.11916346E+02</totfact>
</mgrwt>
</event>
<event>
 4    2  0.3179755E-007  0.1336462E+04  0.7818608E-02  0.9034695E-01
          1   -1    0    0  501    0  0.00000000000E+00  0.00000000000E+00  0.15406480454E+04  0.15406480455E+04  0.50400000000E-02 0. -1.
         -1   -1    0    0    0  501 -0.00000000000E+00 -0.00000000000E+00 -0.16003272484E+04  0.16003272484E+04  0.50400000000E-02 0.  1.
    8880023    1    1    2    0    0  0.92772777325E+03 -0.70117197999E+03 -0.97406076603E+03  0.16537610314E+04  0.65864270000E+03 0.  0.
    8880022    1    1    2    0    0 -0.92772777325E+03  0.70117197999E+03  0.91438156303E+03  0.14872142625E+04  0.15294330000E+03 0.  0.
<mgrwt>
<rscale>  0 0.12935507E+04</rscale>
<asrwt>0</asrwt>
<pdfrwt beam="1">  1        1 0.23702278E+00 0.13364622E+04</pdfrwt>
<pdfrwt beam="2">  1       -1 0.24620419E+00 0.13364622E+04</pdfrwt>
<totfact> 0.43615992E-01</totfact>
</mgrwt>
</event>
<event>
 4    2  0.3179755E-007  0.7948300E+03  0.7818608E-02  0.9722088E-01
          1   -1    0    0  501    0  0.00000000000E+00  0.00000000000E+00  0.18997163569E+04  0.18997163569E+04  0.50400000000E-02 0. -1.
         -1   -1    0    0    0  501 -0.00000000000E+00 -0.00000000000E+00 -0.25283963617E+03  0.25283963622E+03  0.50400000000E-02 0.  1.
    8880023    1    1    2    0    0  0.28027632851E+03 -0.34552820835E+03  0.14265995477E+04  0.16330771686E+04  0.65864270000E+03 0. -1.
    8880022    1    1    2    0    0 -0.28027632851E+03  0.34552820835E+03  0.22027717305E+03  0.51947882447E+03  0.15294330000E+03 0.  1.
<mgrwt>
<rscale>  0 0.69716770E+03</rscale>
<asrwt>0</asrwt>
<pdfrwt beam="1">  1        1 0.29226405E+00 0.79483003E+03</pdfrwt>
<pdfrwt beam="2">  1       -1 0.38898406E-01 0.79483003E+03</pdfrwt>
<totfact> 0.23066029E+01</totfact>
</mgrwt>
</event>
<event>
 4    2  0.3407325E-007  0.6900001E+03  0.7818608E-02  0.1004153E+00
          1   -1    0    0  501    0  0.00000000000E+00  0.00000000000E+00  0.16023979579E+04  0.16023979579E+04  0.50400000000E-02 0. -1.
         -1   -1    0    0    0  501 -0.00000000000E+00 -0.00000000000E+00 -0.66585206160E+03  0.66585206162E+03  0.50400000000E-02 0.  1.
    8880023    1    1    2    0    0 -0.19892667711E+03  0.52134915781E+02  0.14989874391E+04  0.16501707249E+04  0.65864270000E+03 0. -1.
    8880022    1    1    2    0    0  0.19892667711E+03 -0.52134915781E+02 -0.56244154285E+03  0.61807929463E+03  0.15294330000E+03 0.  0.
<mgrwt>
<rscale>  0 0.53866313E+03</rscale>
<asrwt>0</asrwt>
<pdfrwt beam="1">  1        1 0.24652276E+00 0.69000006E+03</pdfrwt>
<pdfrwt beam="2">  1       -1 0.10243878E+00 0.69000006E+03</pdfrwt>
<totfact> 0.52838309E+00</totfact>
</mgrwt>
</event>
<event>
 4    2  0.3179755E-007  0.8388430E+03  0.7818608E-02  0.9632366E-01
          1   -1    0    0  501    0  0.00000000000E+00  0.00000000000E+00  0.17605781579E+04  0.17605781579E+04  0.50400000000E-02 0. -1.
         -1   -1    0    0    0  501 -0.00000000000E+00 -0.00000000000E+00 -0.34546113784E+03  0.34546113788E+03  0.50400000000E-02 0.  1.
    8880023    1    1    2    0    0  0.45472442504E+03  0.25114338063E+03  0.13082439508E+04  0.15540784219E+04  0.65864270000E+03 0.  0.
    8880022    1    1    2    0    0 -0.45472442504E+03 -0.25114338063E+03  0.10687306927E+03  0.55196087390E+03  0.15294330000E+03 0.  0.
<mgrwt>
<rscale>  0 0.75190540E+03</rscale>
<asrwt>0</asrwt>
<pdfrwt beam="1">  1        1 0.27085818E+00 0.83884296E+03</pdfrwt>
<pdfrwt beam="2">  1       -1 0.53147867E-01 0.83884296E+03</pdfrwt>
<totfact> 0.15890378E+01</totfact>
</mgrwt>
</event>
<event>
 4    2  0.3179755E-007  0.9614095E+03  0.7818608E-02  0.9433885E-01
         -1   -1    0    0    0  501 -0.00000000000E+00  0.00000000000E+00  0.16213546455E+04  0.16213546455E+04  0.50400000000E-02 0.  1.
          1   -1    0    0  501    0  0.00000000000E+00 -0.00000000000E+00 -0.78298222018E+03  0.78298222020E+03  0.50400000000E-02 0. -1.
    8880023    1    1    2    0    0 -0.44080223997E+03  0.54423464614E+03 -0.34444014889E+03  0.10212478579E+04  0.65864270000E+03 0.  0.
    8880022    1    1    2    0    0  0.44080223997E+03 -0.54423464614E+03  0.11828125742E+04  0.13830890078E+04  0.15294330000E+03 0.  0.
<mgrwt>
<rscale>  0 0.89338782E+03</rscale>
<asrwt>0</asrwt>
<pdfrwt beam="1">  1        1 0.12045881E+00 0.96140947E+03</pdfrwt>
<pdfrwt beam="2">  1       -1 0.24943917E+00 0.96140947E+03</pdfrwt>
<totfact> 0.16302708E+00</totfact>
</mgrwt>
</event>
<event>
 4    2  0.3179755E-007  0.7504449E+03  0.7818608E-02  0.9830504E-01
         -1   -1    0    0    0  501 -0.00000000000E+00  0.00000000000E+00  0.38678018557E+03  0.38678018561E+03  0.50400000000E-02 0.  1.
          1   -1    0    0  501    0  0.00000000000E+00 -0.00000000000E+00 -0.14110141840E+04  0.14110141840E+04  0.50400000000E-02 0. -1.
    8880023    1    1    2    0    0 -0.76980959678E+02  0.35132779650E+03 -0.11621124984E+04  0.13833556860E+04  0.65864270000E+03 0. -1.
    8880022    1    1    2    0    0  0.76980959678E+02 -0.35132779650E+03  0.13787849995E+03  0.41443868366E+03  0.15294330000E+03 0.  0.
<mgrwt>
<rscale>  0 0.63750907E+03</rscale>
<asrwt>0</asrwt>
<pdfrwt beam="1">  1        1 0.21707910E+00 0.75044486E+03</pdfrwt>
<pdfrwt beam="2">  1       -1 0.59504645E-01 0.75044486E+03</pdfrwt>
<totfact> 0.22317539E+01</totfact>
</mgrwt>
</event>
<event>
 4    2  0.3179755E-007  0.6798766E+03  0.7818608E-02  0.1009394E+00
         -1   -1    0    0    0  501 -0.00000000000E+00  0.00000000000E+00  0.74635069985E+03  0.74635069987E+03  0.50400000000E-02 0.  1.
          1   -1    0    0  501    0  0.00000000000E+00 -0.00000000000E+00 -0.47739398831E+03  0.47739398833E+03  0.50400000000E-02 0. -1.
    8880023    1    1    2    0    0  0.16409180060E+03  0.38676260730E+02 -0.19471740237E+03  0.70721075021E+03  0.65864270000E+03 0. -1.
    8880022    1    1    2    0    0 -0.16409180060E+03 -0.38676260730E+02  0.46367411391E+03  0.51653393799E+03  0.15294330000E+03 0.  0.
<mgrwt>
<rscale>  0 0.51716373E+03</rscale>
<asrwt>0</asrwt>
<pdfrwt beam="1">  1        1 0.73445229E-01 0.67987659E+03</pdfrwt>
<pdfrwt beam="2">  1       -1 0.11482318E+00 0.67987659E+03</pdfrwt>
<totfact> 0.33531170E+01</totfact>
</mgrwt>
</event>
<event>
 4    2  0.3179755E-007  0.7435466E+03  0.7818608E-02  0.9849734E-01
         -1   -1    0    0    0  501 -0.00000000000E+00  0.00000000000E+00  0.52508147465E+03  0.52508147467E+03  0.50400000000E-02 0.  1.
          1   -1    0    0  501    0  0.00000000000E+00 -0.00000000000E+00 -0.21169549681E+04  0.21169549681E+04  0.50400000000E-02 0. -1.
    8880023    1    1    2    0    0 -0.28741189727E+03  0.19090781503E+03 -0.19712997972E+04  0.21068660349E+04  0.65864270000E+03 0. -1.
    8880022    1    1    2    0    0  0.28741189727E+03 -0.19090781503E+03  0.37942630369E+03  0.53517040788E+03  0.15294330000E+03 0.  0.
<mgrwt>
<rscale>  0 0.62760489E+03</rscale>
<asrwt>0</asrwt>
<pdfrwt beam="1">  1        1 0.32568538E+00 0.74354664E+03</pdfrwt>
<pdfrwt beam="2">  1       -1 0.80781766E-01 0.74354664E+03</pdfrwt>
<totfact> 0.39976140E+00</totfact>
</mgrwt>
</event>
<event>
 4    2  0.3179755E-007  0.8264696E+03  0.7818608E-02  0.9656241E-01
         -1   -1    0    0    0  501 -0.00000000000E+00  0.00000000000E+00  0.10141044058E+04  0.10141044058E+04  0.50400000000E-02 0.  1.
          1   -1    0    0  501    0  0.00000000000E+00 -0.00000000000E+00 -0.45881496311E+03  0.45881496314E+03  0.50400000000E-02 0. -1.
    8880023    1    1    2    0    0 -0.22122384635E+03 -0.44755083321E+03  0.23052752017E+03  0.85801799650E+03  0.65864270000E+03 0. -1.
    8880022    1    1    2    0    0  0.22122384635E+03  0.44755083321E+03  0.32476192249E+03  0.61490137243E+03  0.15294330000E+03 0.  1.
<mgrwt>
<rscale>  0 0.73683039E+03</rscale>
<asrwt>0</asrwt>
<pdfrwt beam="1">  1        1 0.70586918E-01 0.82646957E+03</pdfrwt>
<pdfrwt beam="2">  1       -1 0.15601606E+00 0.82646957E+03</pdfrwt>
<totfact> 0.15929246E+01</totfact>
</mgrwt>
</event>
<event>
 4    2  0.3179755E-007  0.6870746E+03  0.7818608E-02  0.1005575E+00
          1   -1    0    0  501    0  0.00000000000E+00  0.00000000000E+00  0.11942155641E+04  0.11942155641E+04  0.50400000000E-02 0. -1.
         -1   -1    0    0    0  501 -0.00000000000E+00 -0.00000000000E+00 -0.48527434903E+03  0.48527434906E+03  0.50400000000E-02 0.  1.
    8880023    1    1    2    0    0 -0.17902410828E+03  0.78814258241E+02  0.10517014971E+04  0.12562434334E+04  0.65864270000E+03 0.  0.
    8880022    1    1    2    0    0  0.17902410828E+03 -0.78814258241E+02 -0.34276028207E+03  0.42324647975E+03  0.15294330000E+03 0.  1.
<mgrwt>
<rscale>  0 0.53271776E+03</rscale>
<asrwt>0</asrwt>
<pdfrwt beam="1">  1        1 0.18372547E+00 0.68707461E+03</pdfrwt>
<pdfrwt beam="2">  1       -1 0.74657593E-01 0.68707461E+03</pdfrwt>
<totfact> 0.20249315E+01</totfact>
</mgrwt>
</event>
<event>
 4    2  0.3179755E-007  0.6667933E+03  0.7818608E-02  0.1018074E+00
          1   -1    0    0  501    0  0.00000000000E+00  0.00000000000E+00  0.25872404229E+04  0.25872404229E+04  0.50400000000E-02 0. -1.
         -1   -1    0    0    0  501 -0.00000000000E+00 -0.00000000000E+00 -0.10373825221E+03  0.10373825233E+03  0.50400000000E-02 0.  1.
    8880023    1    1    2    0    0 -0.36011350387E+02 -0.97500195542E+02  0.23947814090E+04  0.24858783777E+04  0.65864270000E+03 0. -1.
    8880022    1    1    2    0    0  0.36011350387E+02  0.97500195542E+02  0.88720761689E+02  0.20510029755E+03  0.15294330000E+03 0.  0.
<mgrwt>
<rscale>  0 0.48388077E+03</rscale>
<asrwt>0</asrwt>
<pdfrwt beam="1">  1        1 0.39803700E+00 0.66679331E+03</pdfrwt>
<pdfrwt beam="2">  1       -1 0.15959731E-01 0.66679331E+03</pdfrwt>
<totfact> 0.37051646E+01</totfact>
</mgrwt>
</event>
<event>
 4    2  0.3179755E-007  0.6631958E+03  0.7818608E-02  0.1021098E+00
         -1   -1    0    0    0  501 -0.00000000000E+00  0.00000000000E+00  0.10290442438E+04  0.10290442438E+04  0.50400000000E-02 0.  1.
          1   -1    0    0  501    0  0.00000000000E+00 -0.00000000000E+00 -0.23091115330E+03  0.23091115336E+03  0.50400000000E-02 0. -1.
    8880023    1    1    2    0    0 -0.39641865420E+02 -0.66685815135E+02  0.29030371353E+03  0.72395091531E+03  0.65864270000E+03 0. -1.
    8880022    1    1    2    0    0  0.39641865420E+02  0.66685815135E+02  0.50782937693E+03  0.53600448182E+03  0.15294330000E+03 0.  0.
<mgrwt>
<rscale>  0 0.47292628E+03</rscale>
<asrwt>0</asrwt>
<pdfrwt beam="1">  1        1 0.35524792E-01 0.66319581E+03</pdfrwt>
<pdfrwt beam="2">  1       -1 0.15831450E+00 0.66319581E+03</pdfrwt>
<totfact> 0.38204205E+01</totfact>
</mgrwt>
</event>
<event>
 4    2  0.3179755E-007  0.6767557E+03  0.7818608E-02  0.1011222E+00
          1   -1    0    0  501    0  0.00000000000E+00  0.00000000000E+00  0.43022640950E+04  0.43022640950E+04  0.50400000000E-02 0. -1.
         -1   -1    0    0    0  501 -0.00000000000E+00 -0.00000000000E+00 -0.14565687243E+03  0.14565687252E+03  0.50400000000E-02 0.  1.
    8880023    1    1    2    0    0 -0.80283747965E+02 -0.13320119790E+03  0.41745558954E+04  0.42290560613E+04  0.65864270000E+03 0. -1.
    8880022    1    1    2    0    0  0.80283747965E+02  0.13320119790E+03 -0.17948672850E+02  0.21886490623E+03  0.15294330000E+03 0.  0.
<mgrwt>
<rscale>  0 0.50991952E+03</rscale>
<asrwt>0</asrwt>
<pdfrwt beam="1">  1        1 0.66188682E+00 0.67675568E+03</pdfrwt>
<pdfrwt beam="2">  1       -1 0.22408748E-01 0.67675568E+03</pdfrwt>
<totfact> 0.97103273E-01</totfact>
</mgrwt>
</event>
<event>
 4    2  0.3179755E-007  0.8633040E+03  0.7818608E-02  0.9587713E-01
          1   -1    0    0  501    0  0.00000000000E+00  0.00000000000E+00  0.54801891806E+03  0.54801891808E+03  0.50400000000E-02 0. -1.
         -1   -1    0    0    0  501 -0.00000000000E+00 -0.00000000000E+00 -0.11296265832E+04  0.11296265832E+04  0.50400000000E-02 0.  1.
    8880023    1    1    2    0    0  0.55539033602E+03  0.55001431216E+02 -0.87157028727E+01  0.86334799040E+03  0.65864270000E+03 0.  0.
    8880022    1    1    2    0    0 -0.55539033602E+03 -0.55001431216E+02 -0.57289196224E+03  0.81429751086E+03  0.15294330000E+03 0.  0.
<mgrwt>
<rscale>  0 0.78114776E+03</rscale>
<asrwt>0</asrwt>
<pdfrwt beam="1">  1        1 0.84310603E-01 0.86330400E+03</pdfrwt>
<pdfrwt beam="2">  1       -1 0.17378870E+00 0.86330400E+03</pdfrwt>
<totfact> 0.91563004E+00</totfact>
</mgrwt>
</event>
<event>
 4    2  0.3179755E-007  0.7068308E+03  0.7818608E-02  0.9969963E-01
         -1   -1    0    0    0  501 -0.00000000000E+00  0.00000000000E+00  0.28387561514E+03  0.28387561518E+03  0.50400000000E-02 0.  1.
          1   -1    0    0  501    0  0.00000000000E+00 -0.00000000000E+00 -0.37451676851E+04  0.37451676851E+04  0.50400000000E-02 0. -1.
    8880023    1    1    2    0    0  0.13386461826E+03 -0.21881447252E+03 -0.36217083387E+04  0.36900380765E+04  0.65864270000E+03 0. -1.
    8880022    1    1    2    0    0 -0.13386461826E+03  0.21881447252E+03  0.16041626877E+03  0.33900522371E+03  0.15294330000E+03 0.  0.
<mgrwt>
<rscale>  0 0.56987133E+03</rscale>
<asrwt>0</asrwt>
<pdfrwt beam="1">  1        1 0.57617961E+00 0.70683075E+03</pdfrwt>
<pdfrwt beam="2">  1       -1 0.43673174E-01 0.70683075E+03</pdfrwt>
<totfact> 0.91038010E-01</totfact>
</mgrwt>
</event>
<event>
 4    2  0.5429656E-007  0.6771064E+03  0.7818608E-02  0.1011010E+00
          1   -1    0    0  501    0  0.00000000000E+00  0.00000000000E+00  0.25757587334E+04  0.25757587334E+04  0.50400000000E-02 0. -1.
         -1   -1    0    0    0  501 -0.00000000000E+00 -0.00000000000E+00 -0.80300543066E+03  0.80300543068E+03  0.50400000000E-02 0.  1.
    8880023    1    1    2    0    0 -0.15585334435E+03  0.19302623084E+02  0.25151401969E+04  0.26046887093E+04  0.65864270000E+03 0. -1.
    8880022    1    1    2    0    0  0.15585334435E+03 -0.19302623084E+02 -0.74238689410E+03  0.77407545481E+03  0.15294330000E+03 0.  0.
<mgrwt>
<rscale>  0 0.51075127E+03</rscale>
<asrwt>0</asrwt>
<pdfrwt beam="1">  1        1 0.39627057E+00 0.67710639E+03</pdfrwt>
<pdfrwt beam="2">  1       -1 0.12353930E+00 0.67710639E+03</pdfrwt>
<totfact> 0.75347651E-01</totfact>
</mgrwt>
</event>
<event>
 4    2  0.3179755E-007  0.9580147E+03  0.7818608E-02  0.9438675E-01
          1   -1    0    0  501    0  0.00000000000E+00  0.00000000000E+00  0.85857006830E+03  0.85857006831E+03  0.50400000000E-02 0. -1.
         -1   -1    0    0    0  501 -0.00000000000E+00 -0.00000000000E+00 -0.11913969453E+04  0.11913969453E+04  0.50400000000E-02 0.  1.
    8880023    1    1    2    0    0 -0.10773163647E+03 -0.68729606037E+03 -0.75694121647E+03  0.12209636324E+04  0.65864270000E+03 0.  1.
    8880022    1    1    2    0    0  0.10773163647E+03  0.68729606037E+03  0.42411433950E+03  0.82900338122E+03  0.15294330000E+03 0.  0.
<mgrwt>
<rscale>  0 0.88960071E+03</rscale>
<asrwt>0</asrwt>
<pdfrwt beam="1">  1        1 0.13208770E+00 0.95801471E+03</pdfrwt>
<pdfrwt beam="2">  1       -1 0.18329184E+00 0.95801471E+03</pdfrwt>
<totfact> 0.39148228E+00</totfact>
</mgrwt>
</event>
<event>
 4    2  0.3179755E-007  0.6912150E+03  0.7818608E-02  0.1003580E+00
          1   -1    0    0  501    0  0.00000000000E+00  0.00000000000E+00  0.23213359982E+04  0.23213359982E+04  0.50400000000E-02 0. -1.
         -1   -1    0    0    0  501 -0.00000000000E+00 -0.00000000000E+00 -0.12075871108E+03  0.12075871119E+03  0.50400000000E-02 0.  1.
    8880023    1    1    2    0    0 -0.75339302776E+02 -0.19568336213E+03  0.19939226250E+04  0.21103330613E+04  0.65864270000E+03 0. -1.
    8880022    1    1    2    0    0  0.75339302776E+02  0.19568336213E+03  0.20665466206E+03  0.33176164806E+03  0.15294330000E+03 0.  0.
<mgrwt>
<rscale>  0 0.54107796E+03</rscale>
<asrwt>0</asrwt>
<pdfrwt beam="1">  1        1 0.35712858E+00 0.69121501E+03</pdfrwt>
<pdfrwt beam="2">  1       -1 0.18578265E-01 0.69121501E+03</pdfrwt>
<totfact> 0.43607366E+01</totfact>
</mgrwt>
</event>
<event>
 4    2  0.3179755E-007  0.7805237E+03  0.7818608E-02  0.9754608E-01
         -1   -1    0    0    0  501 -0.00000000000E+00  0.00000000000E+00  0.18742145353E+04  0.18742145353E+04  0.50400000000E-02 0.  1.
          1   -1    0    0  501    0  0.00000000000E+00 -0.00000000000E+00 -0.64721296508E+03  0.64721296509E+03  0.50400000000E-02 0. -1.
    8880023    1    1    2    0    0 -0.18493796561E+03 -0.37577249122E+03 -0.36969219719E+03  0.86364896990E+03  0.65864270000E+03 0. -1.
    8880022    1    1    2    0    0  0.18493796561E+03  0.37577249122E+03  0.15966937674E+04  0.16577785305E+04  0.15294330000E+03 0.  0.
<mgrwt>
<rscale>  0 0.67856468E+03</rscale>
<asrwt>0</asrwt>
<pdfrwt beam="1">  1        1 0.99571226E-01 0.78052368E+03</pdfrwt>
<pdfrwt beam="2">  1       -1 0.28834070E+00 0.78052368E+03</pdfrwt>
<totfact> 0.12619410E+00</totfact>
</mgrwt>
</event>
<event>
 4    2  0.3179755E-007  0.8755564E+03  0.7818608E-02  0.9566469E-01
          1   -1    0    0  501    0  0.00000000000E+00  0.00000000000E+00  0.99000790264E+03  0.99000790266E+03  0.50400000000E-02 0. -1.
         -1   -1    0    0    0  501 -0.00000000000E+00 -0.00000000000E+00 -0.74679179082E+03  0.74679179083E+03  0.50400000000E-02 0.  1.
    8880023    1    1    2    0    0 -0.43931066818E+03 -0.37389170698E+03  0.58123041900E+03  0.10509176361E+04  0.65864270000E+03 0. -1.
    8880022    1    1    2    0    0  0.43931066818E+03  0.37389170698E+03 -0.33801430717E+03  0.68588205735E+03  0.15294330000E+03 0.  0.
<mgrwt>
<rscale>  0 0.79555806E+03</rscale>
<asrwt>0</asrwt>
<pdfrwt beam="1">  1        1 0.15230891E+00 0.87555644E+03</pdfrwt>
<pdfrwt beam="2">  1       -1 0.11489104E+00 0.87555644E+03</pdfrwt>
<totfact> 0.10768636E+01</totfact>
</mgrwt>
</event>
<event>
 4    2  0.3179755E-007  0.6996287E+03  0.7818608E-02  0.9998745E-01
         -1   -1    0    0    0  501 -0.00000000000E+00  0.00000000000E+00  0.11469279634E+04  0.11469279634E+04  0.50400000000E-02 0.  1.
          1   -1    0    0  501    0  0.00000000000E+00 -0.00000000000E+00 -0.31713408802E+03  0.31713408806E+03  0.50400000000E-02 0. -1.
    8880023    1    1    2    0    0 -0.21363569215E+03 -0.10014969452E+03  0.93156688382E+03  0.11650310020E+04  0.65864270000E+03 0.  1.
    8880022    1    1    2    0    0  0.21363569215E+03  0.10014969452E+03 -0.10177300847E+03  0.29903104946E+03  0.15294330000E+03 0.  0.
<mgrwt>
<rscale>  0 0.55705309E+03</rscale>
<asrwt>0</asrwt>
<pdfrwt beam="1">  1        1 0.48789859E-01 0.69962874E+03</pdfrwt>
<pdfrwt beam="2">  1       -1 0.17645046E+00 0.69962874E+03</pdfrwt>
<totfact> 0.18574603E+01</totfact>
</mgrwt>
</event>
<event>
 4    2  0.3179755E-007  0.7415157E+03  0.7818608E-02  0.9855554E-01
         -1   -1    0    0    0  501 -0.00000000000E+00  0.00000000000E+00  0.43167152527E+04  0.43167152527E+04  0.50400000000E-02 0.  1.
          1   -1    0    0  501    0  0.00000000000E+00 -0.00000000000E+00 -0.46979150657E+03  0.46979150660E+03  0.50400000000E-02 0. -1.
    8880023    1    1    2    0    0  0.31426994130E+03 -0.13141462199E+03 -0.16301285020E+03  0.75922249339E+03  0.65864270000E+03 0. -1.
    8880022    1    1    2    0    0 -0.31426994130E+03  0.13141462199E+03  0.40099365963E+04  0.40272842659E+04  0.15294330000E+03 0.  0.
<mgrwt>
<rscale>  0 0.62464557E+03</rscale>
<asrwt>0</asrwt>
<pdfrwt beam="1">  1        1 0.72275614E-01 0.74151575E+03</pdfrwt>
<pdfrwt beam="2">  1       -1 0.66411006E+00 0.74151575E+03</pdfrwt>
<totfact> 0.13270761E-02</totfact>
</mgrwt>
</event>
<event>
 4    2  0.3179755E-007  0.1010247E+04  0.7818608E-02  0.9368273E-01
          1   -1    0    0  501    0  0.00000000000E+00  0.00000000000E+00  0.15478940587E+04  0.15478940587E+04  0.50400000000E-02 0. -1.
         -1   -1    0    0    0  501 -0.00000000000E+00 -0.00000000000E+00 -0.62744372119E+03  0.62744372121E+03  0.50400000000E-02 0.  1.
    8880023    1    1    2    0    0 -0.46982379188E+03 -0.60502387664E+03  0.95941704725E+03  0.13932263145E+04  0.65864270000E+03 0.  0.
    8880022    1    1    2    0    0  0.46982379188E+03  0.60502387664E+03 -0.38966709782E+02  0.78211146533E+03  0.15294330000E+03 0.  0.
<mgrwt>
<rscale>  0 0.94733337E+03</rscale>
<asrwt>0</asrwt>
<pdfrwt beam="1">  1        1 0.23813755E+00 0.10102467E+04</pdfrwt>
<pdfrwt beam="2">  1       -1 0.96529803E-01 0.10102467E+04</pdfrwt>
<totfact> 0.62906369E+00</totfact>
</mgrwt>
</event>
<event>
 4    2  0.3179755E-007  0.1023437E+04  0.7818608E-02  0.9351517E-01
         -1   -1    0    0    0  501 -0.00000000000E+00  0.00000000000E+00  0.16664017456E+04  0.16664017456E+04  0.50400000000E-02 0.  1.
          1   -1    0    0  501    0  0.00000000000E+00 -0.00000000000E+00 -0.10982191348E+04  0.10982191349E+04  0.50400000000E-02 0. -1.
    8880023    1    1    2    0    0  0.73054915749E+03  0.28268532865E+03 -0.71852498514E+03  0.12504804785E+04  0.65864270000E+03 0.  0.
    8880022    1    1    2    0    0 -0.73054915749E+03 -0.28268532865E+03  0.12867075959E+04  0.15141404020E+04  0.15294330000E+03 0.  1.
<mgrwt>
<rscale>  0 0.96175325E+03</rscale>
<asrwt>0</asrwt>
<pdfrwt beam="1">  1        1 0.16895679E+00 0.10234370E+04</pdfrwt>
<pdfrwt beam="2">  1       -1 0.25636950E+00 0.10234370E+04</pdfrwt>
<totfact> 0.81035496E-01</totfact>
</mgrwt>
</event>
<event>
 4    2  0.3179755E-007  0.7876834E+03  0.7818608E-02  0.9738088E-01
         -1   -1    0    0    0  501 -0.00000000000E+00  0.00000000000E+00  0.66095750978E+03  0.66095750980E+03  0.50400000000E-02 0.  1.
          1   -1    0    0  501    0  0.00000000000E+00 -0.00000000000E+00 -0.18519313528E+04  0.18519313528E+04  0.50400000000E-02 0. -1.
    8880023    1    1    2    0    0 -0.41466169843E+03  0.12120500088E+03 -0.16721532019E+04  0.18483888966E+04  0.65864270000E+03 0. -1.
    8880022    1    1    2    0    0  0.41466169843E+03 -0.12120500088E+03  0.48117935885E+03  0.66449996598E+03  0.15294330000E+03 0.  0.
<mgrwt>
<rscale>  0 0.68793606E+03</rscale>
<asrwt>0</asrwt>
<pdfrwt beam="1">  1        1 0.28491251E+00 0.78768343E+03</pdfrwt>
<pdfrwt beam="2">  1       -1 0.10168577E+00 0.78768343E+03</pdfrwt>
<totfact> 0.35898454E+00</totfact>
</mgrwt>
</event>
<event>
 4    2  0.3179755E-007  0.8149835E+03  0.7818608E-02  0.9679289E-01
          1   -1    0    0  501    0  0.00000000000E+00  0.00000000000E+00  0.14514427059E+04  0.14514427059E+04  0.50400000000E-02 0. -1.
         -1   -1    0    0    0  501 -0.00000000000E+00 -0.00000000000E+00 -0.32596143199E+03  0.32596143203E+03  0.50400000000E-02 0.  1.
    8880023    1    1    2    0    0  0.43670747389E+03 -0.19918434112E+03  0.93121042550E+03  0.12374776290E+04  0.65864270000E+03 0.  0.
    8880022    1    1    2    0    0 -0.43670747389E+03  0.19918434112E+03  0.19427084844E+03  0.53992650895E+03  0.15294330000E+03 0.  0.
<mgrwt>
<rscale>  0 0.72263444E+03</rscale>
<asrwt>0</asrwt>
<pdfrwt beam="1">  1        1 0.22329888E+00 0.81498345E+03</pdfrwt>
<pdfrwt beam="2">  1       -1 0.50147913E-01 0.81498345E+03</pdfrwt>
<totfact> 0.28895283E+01</totfact>
</mgrwt>
</event>
<event>
 4    2  0.3179755E-007  0.8875550E+03  0.7818608E-02  0.9546313E-01
          1   -1    0    0  501    0  0.00000000000E+00  0.00000000000E+00  0.17745873972E+04  0.17745873972E+04  0.50400000000E-02 0. -1.
         -1   -1    0    0    0  501 -0.00000000000E+00 -0.00000000000E+00 -0.37518530648E+03  0.37518530651E+03  0.50400000000E-02 0.  1.
    8880023    1    1    2    0    0 -0.33143774046E+03  0.49405738966E+03  0.12221544597E+04  0.15104355033E+04  0.65864270000E+03 0. -1.
    8880022    1    1    2    0    0  0.33143774046E+03 -0.49405738966E+03  0.17724763102E+03  0.63933720038E+03  0.15294330000E+03 0.  0.
<mgrwt>
<rscale>  0 0.80953828E+03</rscale>
<asrwt>0</asrwt>
<pdfrwt beam="1">  1        1 0.27301345E+00 0.88755500E+03</pdfrwt>
<pdfrwt beam="2">  1       -1 0.57720815E-01 0.88755500E+03</pdfrwt>
<totfact> 0.13168181E+01</totfact>
</mgrwt>
</event>
<event>
 4    2  0.3179755E-007  0.6772738E+03  0.7818608E-02  0.1010910E+00
          1   -1    0    0  501    0  0.00000000000E+00  0.00000000000E+00  0.33098820737E+04  0.33098820737E+04  0.50400000000E-02 0. -1.
         -1   -1    0    0    0  501 -0.00000000000E+00 -0.00000000000E+00 -0.27405570735E+03  0.27405570740E+03  0.50400000000E-02 0.  1.
    8880023    1    1    2    0    0 -0.43431664651E+02 -0.15166847337E+03  0.32241682785E+04  0.32945350096E+04  0.65864270000E+03 0. -1.
    8880022    1    1    2    0    0  0.43431664651E+02  0.15166847337E+03 -0.18834191209E+03  0.28940277154E+03  0.15294330000E+03 0.  0.
<mgrwt>
<rscale>  0 0.51114672E+03</rscale>
<asrwt>0</asrwt>
<pdfrwt beam="1">  1        1 0.50921264E+00 0.67727383E+03</pdfrwt>
<pdfrwt beam="2">  1       -1 0.42162415E-01 0.67727383E+03</pdfrwt>
<totfact> 0.21317020E+00</totfact>
</mgrwt>
</event>
<event>
 4    2  0.3179755E-007  0.7507776E+03  0.7818608E-02  0.9829596E-01
          1   -1    0    0  501    0  0.00000000000E+00  0.00000000000E+00  0.98831451724E+03  0.98831451725E+03  0.50400000000E-02 0. -1.
         -1   -1    0    0    0  501 -0.00000000000E+00 -0.00000000000E+00 -0.75457476624E+03  0.75457476626E+03  0.50400000000E-02 0.  1.
    8880023    1    1    2    0    0 -0.38005673732E+02  0.35834680298E+03  0.77229915781E+03  0.10770854459E+04  0.65864270000E+03 0. -1.
    8880022    1    1    2    0    0  0.38005673732E+02 -0.35834680298E+03 -0.53855940681E+03  0.66580383757E+03  0.15294330000E+03 0.  0.
<mgrwt>
<rscale>  0 0.63798142E+03</rscale>
<asrwt>0</asrwt>
<pdfrwt beam="1">  1        1 0.15204839E+00 0.75077764E+03</pdfrwt>
<pdfrwt beam="2">  1       -1 0.11608843E+00 0.75077764E+03</pdfrwt>
<totfact> 0.10702024E+01</totfact>
</mgrwt>
</event>
<event>
 4    2  0.3179755E-007  0.9040636E+03  0.7818608E-02  0.9519539E-01
          1   -1    0    0  501    0  0.00000000000E+00  0.00000000000E+00  0.12463696854E+04  0.12463696854E+04  0.50400000000E-02 0. -1.
         -1   -1    0    0    0  501 -0.00000000000E+00 -0.00000000000E+00 -0.69846237774E+03  0.69846237776E+03  0.50400000000E-02 0.  1.
    8880023    1    1    2    0    0 -0.61474438709E+03 -0.74900482053E+02  0.84830839904E+03  0.12397411382E+04  0.65864270000E+03 0.  0.
    8880022    1    1    2    0    0  0.61474438709E+03  0.74900482053E+02 -0.30040109141E+03  0.70509092492E+03  0.15294330000E+03 0.  0.
<mgrwt>
<rscale>  0 0.82858458E+03</rscale>
<asrwt>0</asrwt>
<pdfrwt beam="1">  1        1 0.19174918E+00 0.90406358E+03</pdfrwt>
<pdfrwt beam="2">  1       -1 0.10745575E+00 0.90406358E+03</pdfrwt>
<totfact> 0.80921351E+00</totfact>
</mgrwt>
</event>
<event>
 4    2  0.3179755E-007  0.7397432E+03  0.7818608E-02  0.9860696E-01
         -1   -1    0    0    0  501 -0.00000000000E+00  0.00000000000E+00  0.30102924064E+03  0.30102924068E+03  0.50400000000E-02 0.  1.
          1   -1    0    0  501    0  0.00000000000E+00 -0.00000000000E+00 -0.11882188435E+04  0.11882188435E+04  0.50400000000E-02 0. -1.
    8880023    1    1    2    0    0 -0.25919309852E+03  0.21500885013E+03 -0.83527950282E+03  0.11157562108E+04  0.65864270000E+03 0. -1.
    8880022    1    1    2    0    0  0.25919309852E+03 -0.21500885013E+03 -0.51910100048E+02  0.37349187335E+03  0.15294330000E+03 0.  0.
<mgrwt>
<rscale>  0 0.62204546E+03</rscale>
<asrwt>0</asrwt>
<pdfrwt beam="1">  1        1 0.18280290E+00 0.73974325E+03</pdfrwt>
<pdfrwt beam="2">  1       -1 0.46312192E-01 0.73974325E+03</pdfrwt>
<totfact> 0.51909758E+01</totfact>
</mgrwt>
</event>
<event>
 4    2  0.3179755E-007  0.7632549E+03  0.7818608E-02  0.9796753E-01
         -1   -1    0    0    0  501 -0.00000000000E+00  0.00000000000E+00  0.12826680309E+04  0.12826680309E+04  0.50400000000E-02 0.  1.
          1   -1    0    0  501    0  0.00000000000E+00 -0.00000000000E+00 -0.32940494389E+03  0.32940494393E+03  0.50400000000E-02 0. -1.
    8880023    1    1    2    0    0 -0.36823105412E+03  0.11468990092E+03  0.26409685126E+03  0.80765415600E+03  0.65864270000E+03 0.  0.
    8880022    1    1    2    0    0  0.36823105412E+03 -0.11468990092E+03  0.68916623574E+03  0.80441881884E+03  0.15294330000E+03 0. -1.
<mgrwt>
<rscale>  0 0.65537111E+03</rscale>
<asrwt>0</asrwt>
<pdfrwt beam="1">  1        1 0.50677683E-01 0.76325493E+03</pdfrwt>
<pdfrwt beam="2">  1       -1 0.19733354E+00 0.76325493E+03</pdfrwt>
<totfact> 0.12523959E+01</totfact>
</mgrwt>
</event>
<event>
 4    2  0.3179755E-007  0.7884245E+03  0.7818608E-02  0.9736407E-01
          1   -1    0    0  501    0  0.00000000000E+00  0.00000000000E+00  0.11836840205E+04  0.11836840205E+04  0.50400000000E-02 0. -1.
         -1   -1    0    0    0  501 -0.00000000000E+00 -0.00000000000E+00 -0.56260117254E+03  0.56260117256E+03  0.50400000000E-02 0.  1.
    8880023    1    1    2    0    0  0.26972810584E+03  0.33918981030E+03  0.90954316219E+03  0.12036951228E+04  0.65864270000E+03 0. -1.
    8880022    1    1    2    0    0 -0.26972810584E+03 -0.33918981030E+03 -0.28846031421E+03  0.54259007029E+03  0.15294330000E+03 0.  0.
<mgrwt>
<rscale>  0 0.68889882E+03</rscale>
<asrwt>0</asrwt>
<pdfrwt beam="1">  1        1 0.18210523E+00 0.78842450E+03</pdfrwt>
<pdfrwt beam="2">  1       -1 0.86554027E-01 0.78842450E+03</pdfrwt>
<totfact> 0.14852473E+01</totfact>
</mgrwt>
</event>
<event>
 4    2  0.3179755E-007  0.7597538E+03  0.7818608E-02  0.9805745E-01
         -1   -1    0    0    0  501 -0.00000000000E+00  0.00000000000E+00  0.58535713565E+03  0.58535713567E+03  0.50400000000E-02 0.  1.
          1   -1    0    0  501    0  0.00000000000E+00 -0.00000000000E+00 -0.84883703753E+03  0.84883703754E+03  0.50400000000E-02 0. -1.
    8880023    1    1    2    0    0 -0.18406060999E+03 -0.33096418945E+03  0.22982992977E+03  0.79375538154E+03  0.65864270000E+03 0.  1.
    8880022    1    1    2    0    0  0.18406060999E+03  0.33096418945E+03 -0.49330983165E+03  0.64043879167E+03  0.15294330000E+03 0.  0.
<mgrwt>
<rscale>  0 0.65055126E+03</rscale>
<asrwt>0</asrwt>
<pdfrwt beam="1">  1        1 0.13059031E+00 0.75975378E+03</pdfrwt>
<pdfrwt beam="2">  1       -1 0.90054943E-01 0.75975378E+03</pdfrwt>
<totfact> 0.24837050E+01</totfact>
</mgrwt>
</event>
<event>
 4    2  0.3179755E-007  0.8345332E+03  0.7818608E-02  0.9640576E-01
         -1   -1    0    0    0  501 -0.00000000000E+00  0.00000000000E+00  0.40766138273E+03  0.40766138276E+03  0.50400000000E-02 0.  1.
          1   -1    0    0  501    0  0.00000000000E+00 -0.00000000000E+00 -0.17352048116E+04  0.17352048116E+04  0.50400000000E-02 0. -1.
    8880023    1    1    2    0    0 -0.50124989204E+03  0.10669589098E+03 -0.13723553043E+04  0.16061770621E+04  0.65864270000E+03 0. -1.
    8880022    1    1    2    0    0  0.50124989204E+03 -0.10669589098E+03  0.44811875469E+02  0.53668913220E+03  0.15294330000E+03 0.  1.
<mgrwt>
<rscale>  0 0.74667845E+03</rscale>
<asrwt>0</asrwt>
<pdfrwt beam="1">  1        1 0.26695458E+00 0.83453321E+03</pdfrwt>
<pdfrwt beam="2">  1       -1 0.62717136E-01 0.83453321E+03</pdfrwt>
<totfact> 0.11959428E+01</totfact>
</mgrwt>
</event>
<event>
 4    2  0.3179755E-007  0.7120575E+03  0.7818608E-02  0.9950439E-01
          1   -1    0    0  501    0  0.00000000000E+00  0.00000000000E+00  0.40948939354E+03  0.40948939357E+03  0.50400000000E-02 0. -1.
         -1   -1    0    0    0  501 -0.00000000000E+00 -0.00000000000E+00 -0.96729446132E+03  0.96729446133E+03  0.50400000000E-02 0.  1.
    8880023    1    1    2    0    0 -0.16830961697E+02  0.27005996860E+03  0.29105225536E+02  0.71265208084E+03  0.65864270000E+03 0. -1.
    8880022    1    1    2    0    0  0.16830961697E+02 -0.27005996860E+03 -0.58691029331E+03  0.66413177406E+03  0.15294330000E+03 0.  1.
<mgrwt>
<rscale>  0 0.57877871E+03</rscale>
<asrwt>0</asrwt>
<pdfrwt beam="1">  1        1 0.62998369E-01 0.71205749E+03</pdfrwt>
<pdfrwt beam="2">  1       -1 0.14881453E+00 0.71205749E+03</pdfrwt>
<totfact> 0.21338372E+01</totfact>
</mgrwt>
</event>
<event>
 4    2  0.3179755E-007  0.1260323E+04  0.7818608E-02  0.9100604E-01
         -1   -1    0    0    0  501 -0.00000000000E+00  0.00000000000E+00  0.22007443530E+04  0.22007443531E+04  0.50400000000E-02 0.  1.
          1   -1    0    0  501    0  0.00000000000E+00 -0.00000000000E+00 -0.94664100033E+03  0.94664100034E+03  0.50400000000E-02 0. -1.
    8880023    1    1    2    0    0  0.10302904285E+04  0.30513107542E+03 -0.25762708685E+03  0.12863845702E+04  0.65864270000E+03 0.  0.
    8880022    1    1    2    0    0 -0.10302904285E+04 -0.30513107542E+03  0.15117304396E+04  0.18610007832E+04  0.15294330000E+03 0.  0.
<mgrwt>
<rscale>  0 0.12140995E+04</rscale>
<asrwt>0</asrwt>
<pdfrwt beam="1">  1        1 0.14563708E+00 0.12603228E+04</pdfrwt>
<pdfrwt beam="2">  1       -1 0.33857605E+00 0.12603228E+04</pdfrwt>
<totfact> 0.30237717E-01</totfact>
</mgrwt>
</event>
<event>
 4    2  0.3179755E-007  0.8294186E+03  0.7818608E-02  0.9650465E-01
          1   -1    0    0  501    0  0.00000000000E+00  0.00000000000E+00  0.17675444302E+04  0.17675444302E+04  0.50400000000E-02 0. -1.
         -1   -1    0    0    0  501 -0.00000000000E+00 -0.00000000000E+00 -0.54090814545E+03  0.54090814547E+03  0.50400000000E-02 0.  1.
    8880023    1    1    2    0    0 -0.49896665967E+03 -0.71814194341E+02  0.15006811550E+04  0.17146367374E+04  0.65864270000E+03 0. -1.
    8880022    1    1    2    0    0  0.49896665967E+03  0.71814194341E+02 -0.27404487019E+03  0.59381583834E+03  0.15294330000E+03 0.  0.
<mgrwt>
<rscale>  0 0.74044271E+03</rscale>
<asrwt>0</asrwt>
<pdfrwt beam="1">  1        1 0.27192991E+00 0.82941860E+03</pdfrwt>
<pdfrwt beam="2">  1       -1 0.83216638E-01 0.82941860E+03</pdfrwt>
<totfact> 0.63399077E+00</totfact>
</mgrwt>
</event>
<event>
 4    2  0.3179755E-007  0.8072530E+03  0.7818608E-02  0.9695327E-01
         -1   -1    0    0    0  501 -0.00000000000E+00  0.00000000000E+00  0.74479796123E+03  0.74479796124E+03  0.50400000000E-02 0.  1.
          1   -1    0    0  501    0  0.00000000000E+00 -0.00000000000E+00 -0.13027387415E+04  0.13027387415E+04  0.50400000000E-02 0. -1.
    8880023    1    1    2    0    0 -0.45027186107E+03  0.12289217982E+03 -0.10684478724E+04  0.13391184783E+04  0.65864270000E+03 0. -1.
    8880022    1    1    2    0    0  0.45027186107E+03 -0.12289217982E+03  0.51050709205E+03  0.70841822448E+03  0.15294330000E+03 0.  0.
<mgrwt>
<rscale>  0 0.71295673E+03</rscale>
<asrwt>0</asrwt>
<pdfrwt beam="1">  1        1 0.20042134E+00 0.80725302E+03</pdfrwt>
<pdfrwt beam="2">  1       -1 0.11458430E+00 0.80725302E+03</pdfrwt>
<totfact> 0.64169114E+00</totfact>
</mgrwt>
</event>
<event>
 4    2  0.3179755E-007  0.1085434E+04  0.7818608E-02  0.9277449E-01
         -1   -1    0    0    0  501 -0.00000000000E+00  0.00000000000E+00  0.95643435317E+03  0.95643435318E+03  0.50400000000E-02 0.  1.
          1   -1    0    0  501    0  0.00000000000E+00 -0.00000000000E+00 -0.12407213411E+04  0.12407213412E+04  0.50400000000E-02 0. -1.
    8880023    1    1    2    0    0 -0.19413830527E+03 -0.84063508641E+03 -0.63021951445E+03  0.12551270345E+04  0.65864270000E+03 0.  0.
    8880022    1    1    2    0    0  0.19413830527E+03  0.84063508641E+03  0.34593252648E+03  0.94202865984E+03  0.15294330000E+03 0.  0.
<mgrwt>
<rscale>  0 0.10288569E+04</rscale>
<asrwt>0</asrwt>
<pdfrwt beam="1">  1        1 0.19088021E+00 0.10854341E+04</pdfrwt>
<pdfrwt beam="2">  1       -1 0.14714375E+00 0.10854341E+04</pdfrwt>
<totfact> 0.36429223E+00</totfact>
</mgrwt>
</event>
<event>
 4    2  0.3179755E-007  0.7391539E+03  0.7818608E-02  0.9862419E-01
          1   -1    0    0  501    0  0.00000000000E+00  0.00000000000E+00  0.20922287343E+04  0.20922287343E+04  0.50400000000E-02 0. -1.
         -1   -1    0    0    0  501 -0.00000000000E+00 -0.00000000000E+00 -0.32639338577E+03  0.32639338581E+03  0.50400000000E-02 0.  1.
    8880023    1    1    2    0    0 -0.32071266014E+03 -0.98395325507E+02  0.18901542580E+04  0.20295397448E+04  0.65864270000E+03 0. -1.
    8880022    1    1    2    0    0  0.32071266014E+03  0.98395325507E+02 -0.12431890952E+03  0.38908237525E+03  0.15294330000E+03 0.  0.
<mgrwt>
<rscale>  0 0.62117722E+03</rscale>
<asrwt>0</asrwt>
<pdfrwt beam="1">  1        1 0.32188133E+00 0.73915388E+03</pdfrwt>
<pdfrwt beam="2">  1       -1 0.50214370E-01 0.73915388E+03</pdfrwt>
<totfact> 0.10769073E+01</totfact>
</mgrwt>
</event>
<event>
 4    2  0.3179755E-007  0.9343577E+03  0.7818608E-02  0.9472986E-01
          1   -1    0    0  501    0  0.00000000000E+00  0.00000000000E+00  0.58195649544E+03  0.58195649546E+03  0.50400000000E-02 0. -1.
         -1   -1    0    0    0  501 -0.00000000000E+00 -0.00000000000E+00 -0.14575856330E+04  0.14575856330E+04  0.50400000000E-02 0.  1.
    8880023    1    1    2    0    0  0.24203595299E+03  0.61695437413E+03 -0.97700897152E+03  0.13518767839E+04  0.65864270000E+03 0.  1.
    8880022    1    1    2    0    0 -0.24203595299E+03 -0.61695437413E+03  0.10137983396E+03  0.68766534451E+03  0.15294330000E+03 0. -1.
<mgrwt>
<rscale>  0 0.86305059E+03</rscale>
<asrwt>0</asrwt>
<pdfrwt beam="1">  1        1 0.89531769E-01 0.93435770E+03</pdfrwt>
<pdfrwt beam="2">  1       -1 0.22424394E+00 0.93435770E+03</pdfrwt>
<totfact> 0.37402435E+00</totfact>
</mgrwt>
</event>
<event>
 4    2  0.3179755E-007  0.1267918E+04  0.7818608E-02  0.9093772E-01
         -1   -1    0    0    0  501 -0.00000000000E+00  0.00000000000E+00  0.13668913707E+04  0.13668913707E+04  0.50400000000E-02 0.  1.
          1   -1    0    0  501    0  0.00000000000E+00 -0.00000000000E+00 -0.26274733636E+04  0.26274733636E+04  0.50400000000E-02 0. -1.
    8880023    1    1    2    0    0 -0.78001383697E+03  0.75191998781E+03 -0.22085737326E+04  0.25466474810E+04  0.65864270000E+03 0. -1.
    8880022    1    1    2    0    0  0.78001383697E+03 -0.75191998781E+03  0.94799173968E+03  0.14477172533E+04  0.15294330000E+03 0.  0.
<mgrwt>
<rscale>  0 0.12220501E+04</rscale>
<asrwt>0</asrwt>
<pdfrwt beam="1">  1        1 0.40422667E+00 0.12679178E+04</pdfrwt>
<pdfrwt beam="2">  1       -1 0.21029098E+00 0.12679178E+04</pdfrwt>
<totfact> 0.13792884E-01</totfact>
</mgrwt>
</event>
<event>
 4    2  0.3179755E-007  0.6753340E+03  0.7818608E-02  0.1012097E+00
         -1   -1    0    0    0  501 -0.00000000000E+00  0.00000000000E+00  0.17842599939E+03  0.17842599946E+03  0.50400000000E-02 0.  1.
          1   -1    0    0  501    0  0.00000000000E+00 -0.00000000000E+00 -0.12219224042E+04  0.12219224042E+04  0.50400000000E-02 0. -1.
    8880023    1    1    2    0    0 -0.22888561845E+02  0.14745146876E+03 -0.95363803769E+03  0.11685467621E+04  0.65864270000E+03 0. -1.
    8880022    1    1    2    0    0  0.22888561845E+02 -0.14745146876E+03 -0.89858367124E+02  0.23180164163E+03  0.15294330000E+03 0.  1.
<mgrwt>
<rscale>  0 0.50649825E+03</rscale>
<asrwt>0</asrwt>
<pdfrwt beam="1">  1        1 0.18798806E+00 0.67533401E+03</pdfrwt>
<pdfrwt beam="2">  1       -1 0.27450155E-01 0.67533401E+03</pdfrwt>
<totfact> 0.12578584E+02</totfact>
</mgrwt>
</event>
<event>
 4    2  0.3179755E-007  0.7271801E+03  0.7818608E-02  0.9899000E-01
          1   -1    0    0  501    0  0.00000000000E+00  0.00000000000E+00  0.12489350441E+04  0.12489350441E+04  0.50400000000E-02 0. -1.
         -1   -1    0    0    0  501 -0.00000000000E+00 -0.00000000000E+00 -0.56679593665E+03  0.56679593667E+03  0.50400000000E-02 0.  1.
    8880023    1    1    2    0    0 -0.23528560482E+03 -0.19905108893E+03  0.10722529858E+04  0.12955760586E+04  0.65864270000E+03 0. -1.
    8880022    1    1    2    0    0  0.23528560482E+03  0.19905108893E+03 -0.39011387842E+03  0.52015492210E+03  0.15294330000E+03 0.  0.
<mgrwt>
<rscale>  0 0.60309779E+03</rscale>
<asrwt>0</asrwt>
<pdfrwt beam="1">  1        1 0.19214385E+00 0.72718007E+03</pdfrwt>
<pdfrwt beam="2">  1       -1 0.87199376E-01 0.72718007E+03</pdfrwt>
<totfact> 0.13220446E+01</totfact>
</mgrwt>
</event>
<event>
 4    2  0.3179755E-007  0.8112532E+03  0.7818608E-02  0.9686972E-01
          1   -1    0    0  501    0  0.00000000000E+00  0.00000000000E+00  0.10741828007E+04  0.10741828007E+04  0.50400000000E-02 0. -1.
         -1   -1    0    0    0  501 -0.00000000000E+00 -0.00000000000E+00 -0.59649964341E+03  0.59649964343E+03  0.50400000000E-02 0.  1.
    8880023    1    1    2    0    0 -0.48842904304E+02 -0.47110074766E+03  0.74872572113E+03  0.11039574066E+04  0.65864270000E+03 0. -1.
    8880022    1    1    2    0    0  0.48842904304E+02  0.47110074766E+03 -0.27104256388E+03  0.56672503756E+03  0.15294330000E+03 0.  0.
<mgrwt>
<rscale>  0 0.71797771E+03</rscale>
<asrwt>0</asrwt>
<pdfrwt beam="1">  1        1 0.16525889E+00 0.81125320E+03</pdfrwt>
<pdfrwt beam="2">  1       -1 0.91769177E-01 0.81125320E+03</pdfrwt>
<totfact> 0.15700869E+01</totfact>
</mgrwt>
</event>
<event>
 4    2  0.3179755E-007  0.7780336E+03  0.7818608E-02  0.9760477E-01
          1   -1    0    0  501    0  0.00000000000E+00  0.00000000000E+00  0.12545983525E+04  0.12545983525E+04  0.50400000000E-02 0. -1.
         -1   -1    0    0    0  501 -0.00000000000E+00 -0.00000000000E+00 -0.82504358289E+03  0.82504358291E+03  0.50400000000E-02 0.  1.
    8880023    1    1    2    0    0  0.31298485244E+03 -0.27123156547E+03  0.10569771046E+04  0.13124545271E+04  0.65864270000E+03 0. -1.
    8880022    1    1    2    0    0 -0.31298485244E+03  0.27123156547E+03 -0.62742233497E+03  0.76718740826E+03  0.15294330000E+03 0.  0.
<mgrwt>
<rscale>  0 0.67527424E+03</rscale>
<asrwt>0</asrwt>
<pdfrwt beam="1">  1        1 0.19301513E+00 0.77803360E+03</pdfrwt>
<pdfrwt beam="2">  1       -1 0.12692978E+00 0.77803360E+03</pdfrwt>
<totfact> 0.54302129E+00</totfact>
</mgrwt>
</event>
<event>
 4    2  0.3179755E-007  0.7856221E+03  0.7818608E-02  0.9742793E-01
          1   -1    0    0  501    0  0.00000000000E+00  0.00000000000E+00  0.10384982340E+04  0.10384982340E+04  0.50400000000E-02 0. -1.
         -1   -1    0    0    0  501 -0.00000000000E+00 -0.00000000000E+00 -0.97301856570E+03  0.97301856572E+03  0.50400000000E-02 0.  1.
    8880023    1    1    2    0    0  0.40391917607E+03 -0.14227134885E+03  0.81680093385E+03  0.11332986408E+04  0.65864270000E+03 0. -1.
    8880022    1    1    2    0    0 -0.40391917607E+03  0.14227134885E+03 -0.75132126557E+03  0.87821815889E+03  0.15294330000E+03 0.  0.
<mgrwt>
<rscale>  0 0.68525110E+03</rscale>
<asrwt>0</asrwt>
<pdfrwt beam="1">  1        1 0.15976896E+00 0.78562207E+03</pdfrwt>
<pdfrwt beam="2">  1       -1 0.14969517E+00 0.78562207E+03</pdfrwt>
<totfact> 0.51092240E+00</totfact>
</mgrwt>
</event>
<event>
 4    2  0.3179755E-007  0.1076018E+04  0.7818608E-02  0.9288239E-01
          1   -1    0    0  501    0  0.00000000000E+00  0.00000000000E+00  0.93113417502E+03  0.93113417503E+03  0.50400000000E-02 0. -1.
         -1   -1    0    0    0  501 -0.00000000000E+00 -0.00000000000E+00 -0.12947640059E+04  0.12947640059E+04  0.50400000000E-02 0.  1.
    8880023    1    1    2    0    0 -0.34344725377E+03  0.77849117528E+03  0.32126925597E+03  0.11229553273E+04  0.65864270000E+03 0. -1.
    8880022    1    1    2    0    0  0.34344725377E+03 -0.77849117528E+03 -0.68489908681E+03  0.11029428536E+04  0.15294330000E+03 0.  0.
<mgrwt>
<rscale>  0 0.10187286E+04</rscale>
<asrwt>0</asrwt>
<pdfrwt beam="1">  1        1 0.14325141E+00 0.10760180E+04</pdfrwt>
<pdfrwt beam="2">  1       -1 0.19919446E+00 0.10760180E+04</pdfrwt>
<totfact> 0.26033307E+00</totfact>
</mgrwt>
</event>
<event>
 4    2  0.3179755E-007  0.1198698E+04  0.7818608E-02  0.9158389E-01
          1   -1    0    0  501    0  0.00000000000E+00  0.00000000000E+00  0.13624958139E+04  0.13624958140E+04  0.50400000000E-02 0. -1.
         -1   -1    0    0    0  501 -0.00000000000E+00 -0.00000000000E+00 -0.14430215477E+04  0.14430215477E+04  0.50400000000E-02 0.  1.
    8880023    1    1    2    0    0  0.32859940337E+03  0.94609093906E+03  0.81810606792E+03  0.14512661291E+04  0.65864270000E+03 0. -1.
    8880022    1    1    2    0    0 -0.32859940337E+03 -0.94609093906E+03 -0.89863180167E+03  0.13542512325E+04  0.15294330000E+03 0.  1.
<mgrwt>
<rscale>  0 0.11493435E+04</rscale>
<asrwt>0</asrwt>
<pdfrwt beam="1">  1        1 0.20961474E+00 0.11986976E+04</pdfrwt>
<pdfrwt beam="2">  1       -1 0.22200331E+00 0.11986976E+04</pdfrwt>
<totfact> 0.85406032E-01</totfact>
</mgrwt>
</event>
<event>
 4    2  0.3179755E-007  0.6863732E+03  0.7818608E-02  0.1005926E+00
          1   -1    0    0  501    0  0.00000000000E+00  0.00000000000E+00  0.10601053866E+04  0.10601053866E+04  0.50400000000E-02 0. -1.
         -1   -1    0    0    0  501 -0.00000000000E+00 -0.00000000000E+00 -0.24388521561E+03  0.24388521566E+03  0.50400000000E-02 0.  1.
    8880023    1    1    2    0    0  0.14060130466E+03  0.13239819106E+03  0.33585389774E+03  0.76413745803E+03  0.65864270000E+03 0.  0.
    8880022    1    1    2    0    0 -0.14060130466E+03 -0.13239819106E+03  0.48036627327E+03  0.53985314427E+03  0.15294330000E+03 0.  0.
<mgrwt>
<rscale>  0 0.53126303E+03</rscale>
<asrwt>0</asrwt>
<pdfrwt beam="1">  1        1 0.16309314E+00 0.68637323E+03</pdfrwt>
<pdfrwt beam="2">  1       -1 0.37520801E-01 0.68637323E+03</pdfrwt>
<totfact> 0.95420880E+01</totfact>
</mgrwt>
</event>
<event>
 4    2  0.3179755E-007  0.1149684E+04  0.7818608E-02  0.9207656E-01
         -1   -1    0    0    0  501 -0.00000000000E+00  0.00000000000E+00  0.77788029440E+03  0.77788029442E+03  0.50400000000E-02 0.  1.
          1   -1    0    0  501    0  0.00000000000E+00 -0.00000000000E+00 -0.15970308463E+04  0.15970308463E+04  0.50400000000E-02 0. -1.
    8880023    1    1    2    0    0  0.24393168430E+03  0.91019824774E+03 -0.53106552473E+02  0.11509100873E+04  0.65864270000E+03 0.  0.
    8880022    1    1    2    0    0 -0.24393168430E+03 -0.91019824774E+03 -0.76604399942E+03  0.12240010535E+04  0.15294330000E+03 0.  1.
<mgrwt>
<rscale>  0 0.10974756E+04</rscale>
<asrwt>0</asrwt>
<pdfrwt beam="1">  1        1 0.24569705E+00 0.11496842E+04</pdfrwt>
<pdfrwt beam="2">  1       -1 0.11967389E+00 0.11496842E+04</pdfrwt>
<totfact> 0.34535653E+00</totfact>
</mgrwt>
</event>
<event>
 4    2  0.3179755E-007  0.6891130E+03  0.7818608E-02  0.1004577E+00
          1   -1    0    0  501    0  0.00000000000E+00  0.00000000000E+00  0.15786239843E+04  0.15786239843E+04  0.50400000000E-02 0. -1.
         -1   -1    0    0    0  501 -0.00000000000E+00 -0.00000000000E+00 -0.36845069281E+03  0.36845069285E+03  0.50400000000E-02 0.  1.
    8880023    1    1    2    0    0  0.17615385955E+03 -0.10018171053E+03  0.14452106523E+04  0.16010966845E+04  0.65864270000E+03 0. -1.
    8880022    1    1    2    0    0 -0.17615385955E+03  0.10018171053E+03 -0.23503736086E+03  0.34597799261E+03  0.15294330000E+03 0.  0.
<mgrwt>
<rscale>  0 0.53688049E+03</rscale>
<asrwt>0</asrwt>
<pdfrwt beam="1">  1        1 0.24286522E+00 0.68911303E+03</pdfrwt>
<pdfrwt beam="2">  1       -1 0.56684723E-01 0.68911303E+03</pdfrwt>
<totfact> 0.18999605E+01</totfact>
</mgrwt>
</event>
<event>
 4    2  0.3179755E-007  0.9215592E+03  0.7818608E-02  0.9492272E-01
         -1   -1    0    0    0  501 -0.00000000000E+00  0.00000000000E+00  0.32037698608E+03  0.32037698612E+03  0.50400000000E-02 0.  1.
          1   -1    0    0  501    0  0.00000000000E+00 -0.00000000000E+00 -0.21648034840E+04  0.21648034840E+04  0.50400000000E-02 0. -1.
    8880023    1    1    2    0    0 -0.43737510282E+03 -0.47345976285E+03 -0.14380843931E+04  0.17080275336E+04  0.65864270000E+03 0.  0.
    8880022    1    1    2    0    0  0.43737510282E+03  0.47345976285E+03 -0.40634210483E+03  0.77715293654E+03  0.15294330000E+03 0.  0.
<mgrwt>
<rscale>  0 0.84855946E+03</rscale>
<asrwt>0</asrwt>
<pdfrwt beam="1">  1        1 0.33304668E+00 0.92155919E+03</pdfrwt>
<pdfrwt beam="2">  1       -1 0.49288769E-01 0.92155919E+03</pdfrwt>
<totfact> 0.97155088E+00</totfact>
</mgrwt>
</event>
<event>
 4    2  0.3179755E-007  0.8675696E+03  0.7818608E-02  0.9580238E-01
         -1   -1    0    0    0  501 -0.00000000000E+00  0.00000000000E+00  0.63964691157E+03  0.63964691159E+03  0.50400000000E-02 0.  1.
          1   -1    0    0  501    0  0.00000000000E+00 -0.00000000000E+00 -0.16441579583E+04  0.16441579583E+04  0.50400000000E-02 0. -1.
    8880023    1    1    2    0    0  0.53636264611E+03 -0.17658425352E+03 -0.13497347030E+04  0.16045126555E+04  0.65864270000E+03 0. -1.
    8880022    1    1    2    0    0 -0.53636264611E+03  0.17658425352E+03  0.34522365628E+03  0.67929221444E+03  0.15294330000E+03 0.  0.
<mgrwt>
<rscale>  0 0.78618101E+03</rscale>
<asrwt>0</asrwt>
<pdfrwt beam="1">  1        1 0.25294738E+00 0.86756965E+03</pdfrwt>
<pdfrwt beam="2">  1       -1 0.98407218E-01 0.86756965E+03</pdfrwt>
<totfact> 0.52730008E+00</totfact>
</mgrwt>
</event>
<event>
 4    2  0.3179755E-007  0.8769148E+03  0.7818608E-02  0.9564156E-01
          1   -1    0    0  501    0  0.00000000000E+00  0.00000000000E+00  0.21830423756E+04  0.21830423757E+04  0.50400000000E-02 0. -1.
         -1   -1    0    0    0  501 -0.00000000000E+00 -0.00000000000E+00 -0.46994499311E+03  0.46994499313E+03  0.50400000000E-02 0.  1.
    8880023    1    1    2    0    0 -0.55485649336E+03 -0.16523827045E+03  0.18423468367E+04  0.20403973847E+04  0.65864270000E+03 0.  0.
    8880022    1    1    2    0    0  0.55485649336E+03  0.16523827045E+03 -0.12924945418E+03  0.61258998413E+03  0.15294330000E+03 0.  0.
<mgrwt>
<rscale>  0 0.79714707E+03</rscale>
<asrwt>0</asrwt>
<pdfrwt beam="1">  1        1 0.33585267E+00 0.87691483E+03</pdfrwt>
<pdfrwt beam="2">  1       -1 0.72299231E-01 0.87691483E+03</pdfrwt>
<totfact> 0.44549112E+00</totfact>
</mgrwt>
</event>
<event>
 4    2  0.3179755E-007  0.7245542E+03  0.7818608E-02  0.9907467E-01
          1   -1    0    0  501    0  0.00000000000E+00  0.00000000000E+00  0.19791798739E+04  0.19791798739E+04  0.50400000000E-02 0. -1.
         -1   -1    0    0    0  501 -0.00000000000E+00 -0.00000000000E+00 -0.52061400464E+03  0.52061400467E+03  0.50400000000E-02 0.  1.
    8880023    1    1    2    0    0  0.70740584236E+02  0.29353767775E+03  0.18473268105E+04  0.19843374586E+04  0.65864270000E+03 0. -1.
    8880022    1    1    2    0    0 -0.70740584236E+02 -0.29353767775E+03 -0.38876094121E+03  0.51545642002E+03  0.15294330000E+03 0.  0.
<mgrwt>
<rscale>  0 0.59900770E+03</rscale>
<asrwt>0</asrwt>
<pdfrwt beam="1">  1        1 0.30448921E+00 0.72455421E+03</pdfrwt>
<pdfrwt beam="2">  1       -1 0.80094462E-01 0.72455421E+03</pdfrwt>
<totfact> 0.50497650E+00</totfact>
</mgrwt>
</event>
<event>
 4    2  0.3179755E-007  0.7879215E+03  0.7818608E-02  0.9737548E-01
          1   -1    0    0  501    0  0.00000000000E+00  0.00000000000E+00  0.13824389499E+04  0.13824389499E+04  0.50400000000E-02 0. -1.
         -1   -1    0    0    0  501 -0.00000000000E+00 -0.00000000000E+00 -0.76883597847E+03  0.76883597848E+03  0.50400000000E-02 0.  1.
    8880023    1    1    2    0    0  0.20707433925E+03 -0.37964498012E+03  0.11822087831E+04  0.14207173913E+04  0.65864270000E+03 0. -1.
    8880022    1    1    2    0    0 -0.20707433925E+03  0.37964498012E+03 -0.56860581166E+03  0.73055753707E+03  0.15294330000E+03 0.  0.
<mgrwt>
<rscale>  0 0.68824550E+03</rscale>
<asrwt>0</asrwt>
<pdfrwt beam="1">  1        1 0.21268291E+00 0.78792151E+03</pdfrwt>
<pdfrwt beam="2">  1       -1 0.11828246E+00 0.78792151E+03</pdfrwt>
<totfact> 0.52410170E+00</totfact>
</mgrwt>
</event>
<event>
 4    2  0.3179755E-007  0.1357621E+04  0.7818608E-02  0.9017332E-01
         -1   -1    0    0    0  501 -0.00000000000E+00  0.00000000000E+00  0.76458835750E+03  0.76458835751E+03  0.50400000000E-02 0.  1.
          1   -1    0    0  501    0  0.00000000000E+00 -0.00000000000E+00 -0.21368784703E+04  0.21368784703E+04  0.50400000000E-02 0. -1.
    8880023    1    1    2    0    0 -0.87042995989E+03  0.80726462462E+03 -0.78426103384E+03  0.15678648107E+04  0.65864270000E+03 0.  1.
    8880022    1    1    2    0    0  0.87042995989E+03 -0.80726462462E+03 -0.58802907894E+03  0.13336020171E+04  0.15294330000E+03 0. -1.
<mgrwt>
<rscale>  0 0.13155396E+04</rscale>
<asrwt>0</asrwt>
<pdfrwt beam="1">  1        1 0.32875053E+00 0.13576210E+04</pdfrwt>
<pdfrwt beam="2">  1       -1 0.11762898E+00 0.13576210E+04</pdfrwt>
<totfact> 0.15133342E+00</totfact>
</mgrwt>
</event>
<event>
 4    2  0.3179755E-007  0.6901213E+03  0.7818608E-02  0.1004095E+00
         -1   -1    0    0    0  501 -0.00000000000E+00  0.00000000000E+00  0.28721103012E+03  0.28721103016E+03  0.50400000000E-02 0.  1.
          1   -1    0    0  501    0  0.00000000000E+00 -0.00000000000E+00 -0.27624156289E+04  0.27624156289E+04  0.50400000000E-02 0. -1.
    8880023    1    1    2    0    0  0.20000556948E+03 -0.49547825742E+02 -0.26504909225E+04  0.27388628208E+04  0.65864270000E+03 0. -1.
    8880022    1    1    2    0    0 -0.20000556948E+03  0.49547825742E+02  0.17528632371E+03  0.31076383823E+03  0.15294330000E+03 0.  0.
<mgrwt>
<rscale>  0 0.53890550E+03</rscale>
<asrwt>0</asrwt>
<pdfrwt beam="1">  1        1 0.42498700E+00 0.69012131E+03</pdfrwt>
<pdfrwt beam="2">  1       -1 0.44186314E-01 0.69012131E+03</pdfrwt>
<totfact> 0.48331544E+00</totfact>
</mgrwt>
</event>
<event>
 4    2  0.3179755E-007  0.8545484E+03  0.7818608E-02  0.9603335E-01
          1   -1    0    0  501    0  0.00000000000E+00  0.00000000000E+00  0.64804717157E+03  0.64804717159E+03  0.50400000000E-02 0. -1.
         -1   -1    0    0    0  501 -0.00000000000E+00 -0.00000000000E+00 -0.91240051309E+03  0.91240051311E+03  0.50400000000E-02 0.  1.
    8880023    1    1    2    0    0 -0.43594359886E+03  0.32618383984E+03  0.13903473558E+03  0.86578495177E+03  0.65864270000E+03 0.  0.
    8880022    1    1    2    0    0  0.43594359886E+03 -0.32618383984E+03 -0.40338807710E+03  0.69466273293E+03  0.15294330000E+03 0.  0.
<mgrwt>
<rscale>  0 0.77075816E+03</rscale>
<asrwt>0</asrwt>
<pdfrwt beam="1">  1        1 0.99699565E-01 0.85454837E+03</pdfrwt>
<pdfrwt beam="2">  1       -1 0.14036931E+00 0.85454837E+03</pdfrwt>
<totfact> 0.12948570E+01</totfact>
</mgrwt>
</event>
<event>
 4    2  0.3179755E-007  0.7270005E+03  0.7818608E-02  0.9899573E-01
          1   -1    0    0  501    0  0.00000000000E+00  0.00000000000E+00  0.16393858898E+04  0.16393858898E+04  0.50400000000E-02 0. -1.
         -1   -1    0    0    0  501 -0.00000000000E+00 -0.00000000000E+00 -0.43514839712E+03  0.43514839715E+03  0.50400000000E-02 0.  1.
    8880023    1    1    2    0    0  0.30770994673E+03 -0.58397353215E+01  0.14700948310E+04  0.16400330888E+04  0.65864270000E+03 0. -1.
    8880022    1    1    2    0    0 -0.30770994673E+03  0.58397353215E+01 -0.26585733836E+03  0.43450119816E+03  0.15294330000E+03 0.  0.
<mgrwt>
<rscale>  0 0.60281965E+03</rscale>
<asrwt>0</asrwt>
<pdfrwt beam="1">  1        1 0.25221321E+00 0.72700050E+03</pdfrwt>
<pdfrwt beam="2">  1       -1 0.66945908E-01 0.72700050E+03</pdfrwt>
<totfact> 0.12359688E+01</totfact>
</mgrwt>
</event>
<event>
 4    2  0.3179755E-007  0.1127979E+04  0.7818608E-02  0.9230526E-01
          1   -1    0    0  501    0  0.00000000000E+00  0.00000000000E+00  0.28695829736E+04  0.28695829736E+04  0.50400000000E-02 0. -1.
         -1   -1    0    0    0  501 -0.00000000000E+00 -0.00000000000E+00 -0.37561321827E+03  0.37561321830E+03  0.50400000000E-02 0.  1.
    8880023    1    1    2    0    0  0.44950454815E+03 -0.79779182832E+03  0.15894275809E+04  0.19490039460E+04  0.65864270000E+03 0.  0.
    8880022    1    1    2    0    0 -0.44950454815E+03  0.79779182832E+03  0.90454217445E+03  0.12961922460E+04  0.15294330000E+03 0.  0.
<mgrwt>
<rscale>  0 0.10743826E+04</rscale>
<asrwt>0</asrwt>
<pdfrwt beam="1">  1        1 0.44147430E+00 0.11279789E+04</pdfrwt>
<pdfrwt beam="2">  1       -1 0.57786649E-01 0.11279789E+04</pdfrwt>
<totfact> 0.22706401E+00</totfact>
</mgrwt>
</event>
<event>
 4    2  0.3179755E-007  0.8168222E+03  0.7818608E-02  0.9675538E-01
          1   -1    0    0  501    0  0.00000000000E+00  0.00000000000E+00  0.17451705807E+04  0.17451705807E+04  0.50400000000E-02 0. -1.
         -1   -1    0    0    0  501 -0.00000000000E+00 -0.00000000000E+00 -0.69429949742E+03  0.69429949744E+03  0.50400000000E-02 0.  1.
    8880023    1    1    2    0    0  0.46258177783E+03 -0.13930660567E+03  0.15348996394E+04  0.17387108273E+04  0.65864270000E+03 0. -1.
    8880022    1    1    2    0    0 -0.46258177783E+03  0.13930660567E+03 -0.48402855611E+03  0.70075925089E+03  0.15294330000E+03 0.  0.
<mgrwt>
<rscale>  0 0.72492113E+03</rscale>
<asrwt>0</asrwt>
<pdfrwt beam="1">  1        1 0.26848778E+00 0.81682216E+03</pdfrwt>
<pdfrwt beam="2">  1       -1 0.10681531E+00 0.81682216E+03</pdfrwt>
<totfact> 0.37590456E+00</totfact>
</mgrwt>
</event>
<event>
 4    2  0.3179755E-007  0.6608864E+03  0.7818608E-02  0.1023266E+00
          1   -1    0    0  501    0  0.00000000000E+00  0.00000000000E+00  0.18594178686E+04  0.18594178686E+04  0.50400000000E-02 0. -1.
         -1   -1    0    0    0  501 -0.00000000000E+00 -0.00000000000E+00 -0.60828115893E+03  0.60828115895E+03  0.50400000000E-02 0.  1.
    8880023    1    1    2    0    0 -0.54304688535E+02  0.34004677458E+01  0.17883161563E+04  0.19065270634E+04  0.65864270000E+03 0. -1.
    8880022    1    1    2    0    0  0.54304688535E+02 -0.34004677458E+01 -0.53717944666E+03  0.56117196412E+03  0.15294330000E+03 0.  0.
<mgrwt>
<rscale>  0 0.46526162E+03</rscale>
<asrwt>0</asrwt>
<pdfrwt beam="1">  1        1 0.28606428E+00 0.66088635E+03</pdfrwt>
<pdfrwt beam="2">  1       -1 0.93581718E-01 0.66088635E+03</pdfrwt>
<totfact> 0.43829342E+00</totfact>
</mgrwt>
</event>
<event>
 4    2  0.3179755E-007  0.7014749E+03  0.7818608E-02  0.9991137E-01
         -1   -1    0    0    0  501 -0.00000000000E+00  0.00000000000E+00  0.23822802947E+03  0.23822802952E+03  0.50400000000E-02 0.  1.
          1   -1    0    0  501    0  0.00000000000E+00 -0.00000000000E+00 -0.11341359842E+04  0.11341359842E+04  0.50400000000E-02 0. -1.
    8880023    1    1    2    0    0  0.24027320937E+03 -0.22926689204E+02 -0.81516066823E+03  0.10754319920E+04  0.65864270000E+03 0. -1.
    8880022    1    1    2    0    0 -0.24027320937E+03  0.22926689204E+02 -0.80747286519E+02  0.29693202170E+03  0.15294330000E+03 0.  1.
<mgrwt>
<rscale>  0 0.56040582E+03</rscale>
<asrwt>0</asrwt>
<pdfrwt beam="1">  1        1 0.17448246E+00 0.70147491E+03</pdfrwt>
<pdfrwt beam="2">  1       -1 0.36650467E-01 0.70147491E+03</pdfrwt>
<totfact> 0.87526195E+01</totfact>
</mgrwt>
</event>
<event>
 4    2  0.3179755E-007  0.1117765E+04  0.7818608E-02  0.9241530E-01
         -1   -1    0    0    0  501 -0.00000000000E+00  0.00000000000E+00  0.67228561934E+03  0.67228561936E+03  0.50400000000E-02 0.  1.
          1   -1    0    0  501    0  0.00000000000E+00 -0.00000000000E+00 -0.17830589001E+04  0.17830589001E+04  0.50400000000E-02 0. -1.
    8880023    1    1    2    0    0  0.50110071415E+02  0.90170806152E+03 -0.10560723594E+04  0.15377540382E+04  0.65864270000E+03 0.  0.
    8880022    1    1    2    0    0 -0.50110071415E+02 -0.90170806152E+03 -0.54700921360E+02  0.91759048125E+03  0.15294330000E+03 0.  0.
<mgrwt>
<rscale>  0 0.10634862E+04</rscale>
<asrwt>0</asrwt>
<pdfrwt beam="1">  1        1 0.27431675E+00 0.11177650E+04</pdfrwt>
<pdfrwt beam="2">  1       -1 0.10342856E+00 0.11177650E+04</pdfrwt>
<totfact> 0.36665393E+00</totfact>
</mgrwt>
</event>
<event>
 4    2  0.3179755E-007  0.8898724E+03  0.7818608E-02  0.9542489E-01
          1   -1    0    0  501    0  0.00000000000E+00  0.00000000000E+00  0.13360203828E+04  0.13360203828E+04  0.50400000000E-02 0. -1.
         -1   -1    0    0    0  501 -0.00000000000E+00 -0.00000000000E+00 -0.60151904385E+03  0.60151904387E+03  0.50400000000E-02 0.  1.
    8880023    1    1    2    0    0  0.55968357496E+03  0.21170034711E+03  0.93249379136E+03  0.12889598978E+04  0.65864270000E+03 0.  0.
    8880022    1    1    2    0    0 -0.55968357496E+03 -0.21170034711E+03 -0.19799245239E+03  0.64857952887E+03  0.15294330000E+03 0.  0.
<mgrwt>
<rscale>  0 0.81222461E+03</rscale>
<asrwt>0</asrwt>
<pdfrwt beam="1">  1        1 0.20554160E+00 0.88987243E+03</pdfrwt>
<pdfrwt beam="2">  1       -1 0.92541392E-01 0.88987243E+03</pdfrwt>
<totfact> 0.98474808E+00</totfact>
</mgrwt>
</event>
<event>
 4    2  0.3179755E-007  0.6721702E+03  0.7818608E-02  0.1014153E+00
         -1   -1    0    0    0  501 -0.00000000000E+00  0.00000000000E+00  0.16239933369E+03  0.16239933376E+03  0.50400000000E-02 0.  1.
          1   -1    0    0  501    0  0.00000000000E+00 -0.00000000000E+00 -0.21484767044E+04  0.21484767044E+04  0.50400000000E-02 0. -1.
    8880023    1    1    2    0    0 -0.13147079177E+03  0.26795387161E+02 -0.19970388584E+04  0.21071252858E+04  0.65864270000E+03 0. -1.
    8880022    1    1    2    0    0  0.13147079177E+03 -0.26795387161E+02  0.10961487691E+02  0.20375075236E+03  0.15294330000E+03 0.  0.
<mgrwt>
<rscale>  0 0.49857086E+03</rscale>
<asrwt>0</asrwt>
<pdfrwt beam="1">  1        1 0.33053486E+00 0.67217019E+03</pdfrwt>
<pdfrwt beam="2">  1       -1 0.24984514E-01 0.67217019E+03</pdfrwt>
<totfact> 0.34753813E+01</totfact>
</mgrwt>
</event>
<event>
 4    2  0.3179755E-007  0.7301243E+03  0.7818608E-02  0.9889708E-01
          1   -1    0    0  501    0  0.00000000000E+00  0.00000000000E+00  0.78447246327E+03  0.78447246329E+03  0.50400000000E-02 0. -1.
         -1   -1    0    0    0  501 -0.00000000000E+00 -0.00000000000E+00 -0.13505015411E+04  0.13505015411E+04  0.50400000000E-02 0.  1.
    8880023    1    1    2    0    0  0.19821759920E+03  0.24491046738E+03  0.58263585789E+03  0.93410176256E+03  0.65864270000E+03 0. -1.
    8880022    1    1    2    0    0 -0.19821759920E+03 -0.24491046738E+03 -0.11486649357E+04  0.12008722418E+04  0.15294330000E+03 0.  0.
<mgrwt>
<rscale>  0 0.60762666E+03</rscale>
<asrwt>0</asrwt>
<pdfrwt beam="1">  1        1 0.12068807E+00 0.73012435E+03</pdfrwt>
<pdfrwt beam="2">  1       -1 0.20776947E+00 0.73012435E+03</pdfrwt>
<totfact> 0.31691621E+00</totfact>
</mgrwt>
</event>
<event>
 4    2  0.3179755E-007  0.9627313E+03  0.7818608E-02  0.9432028E-01
         -1   -1    0    0    0  501 -0.00000000000E+00  0.00000000000E+00  0.58135818117E+04  0.58135818117E+04  0.50400000000E-02 0.  1.
          1   -1    0    0  501    0  0.00000000000E+00 -0.00000000000E+00 -0.68005651241E+03  0.68005651243E+03  0.50400000000E-02 0. -1.
    8880023    1    1    2    0    0 -0.48386500142E+03 -0.50883796763E+03 -0.30341409096E+03  0.10094115780E+04  0.65864270000E+03 0. -1.
    8880022    1    1    2    0    0  0.48386500142E+03  0.50883796763E+03  0.54369393902E+04  0.54842267461E+04  0.15294330000E+03 0.  0.
<mgrwt>
<rscale>  0 0.89486101E+03</rscale>
<asrwt>0</asrwt>
<pdfrwt beam="1">  1        1 0.10462408E+00 0.96273133E+03</pdfrwt>
<pdfrwt beam="2">  1       -1 0.89439721E+00 0.96273133E+03</pdfrwt>
<totfact> 0.32051111E-04</totfact>
</mgrwt>
</event>
<event>
 4    2  0.3179755E-007  0.8766925E+03  0.7818608E-02  0.9564534E-01
          1   -1    0    0  501    0  0.00000000000E+00  0.00000000000E+00  0.14183019054E+04  0.14183019054E+04  0.50400000000E-02 0. -1.
         -1   -1    0    0    0  501 -0.00000000000E+00 -0.00000000000E+00 -0.56219459673E+03  0.56219459675E+03  0.50400000000E-02 0.  1.
    8880023    1    1    2    0    0 -0.11855423127E+03  0.56632532568E+03  0.10344851568E+04  0.13560048769E+04  0.65864270000E+03 0.  0.
    8880022    1    1    2    0    0  0.11855423127E+03 -0.56632532568E+03 -0.17837784817E+03  0.62449162524E+03  0.15294330000E+03 0.  0.
<mgrwt>
<rscale>  0 0.79688707E+03</rscale>
<asrwt>0</asrwt>
<pdfrwt beam="1">  1        1 0.21820029E+00 0.87669247E+03</pdfrwt>
<pdfrwt beam="2">  1       -1 0.86491477E-01 0.87669247E+03</pdfrwt>
<totfact> 0.10024805E+01</totfact>
</mgrwt>
</event>
<event>
 4    2  0.3179755E-007  0.7562570E+03  0.7818608E-02  0.9814896E-01
         -1   -1    0    0    0  501 -0.00000000000E+00  0.00000000000E+00  0.35820964961E+03  0.35820964964E+03  0.50400000000E-02 0.  1.
          1   -1    0    0  501    0  0.00000000000E+00 -0.00000000000E+00 -0.94780106762E+03  0.94780106763E+03  0.50400000000E-02 0. -1.
    8880023    1    1    2    0    0 -0.36988808591E+03 -0.36017460861E+02 -0.31476102678E+03  0.81914538626E+03  0.65864270000E+03 0. -1.
    8880022    1    1    2    0    0  0.36988808591E+03  0.36017460861E+02 -0.27483039123E+03  0.48686533102E+03  0.15294330000E+03 0.  0.
<mgrwt>
<rscale>  0 0.64569240E+03</rscale>
<asrwt>0</asrwt>
<pdfrwt beam="1">  1        1 0.14581555E+00 0.75625701E+03</pdfrwt>
<pdfrwt beam="2">  1       -1 0.55109177E-01 0.75625701E+03</pdfrwt>
<totfact> 0.56627901E+01</totfact>
</mgrwt>
</event>
<event>
 4    2  0.3179755E-007  0.8178760E+03  0.7818608E-02  0.9673399E-01
          1   -1    0    0  501    0  0.00000000000E+00  0.00000000000E+00  0.78449085771E+03  0.78449085772E+03  0.50400000000E-02 0. -1.
         -1   -1    0    0    0  501 -0.00000000000E+00 -0.00000000000E+00 -0.14039688307E+04  0.14039688307E+04  0.50400000000E-02 0.  1.
    8880023    1    1    2    0    0 -0.36578931983E+03 -0.31829093401E+03  0.50023055830E+03  0.95872402853E+03  0.65864270000E+03 0. -1.
    8880022    1    1    2    0    0  0.36578931983E+03  0.31829093401E+03 -0.11197085313E+04  0.12297356599E+04  0.15294330000E+03 0.  0.
<mgrwt>
<rscale>  0 0.72622921E+03</rscale>
<asrwt>0</asrwt>
<pdfrwt beam="1">  1        1 0.12069090E+00 0.81787600E+03</pdfrwt>
<pdfrwt beam="2">  1       -1 0.21599520E+00 0.81787600E+03</pdfrwt>
<totfact> 0.27520531E+00</totfact>
</mgrwt>
</event>
<event>
 4    2  0.3179755E-007  0.1153237E+04  0.7818608E-02  0.9203976E-01
         -1   -1    0    0    0  501 -0.00000000000E+00  0.00000000000E+00  0.16140866550E+04  0.16140866550E+04  0.50400000000E-02 0.  1.
          1   -1    0    0  501    0  0.00000000000E+00 -0.00000000000E+00 -0.76314859524E+03  0.76314859525E+03  0.50400000000E-02 0. -1.
    8880023    1    1    2    0    0  0.82966307329E+03 -0.45585664832E+03  0.96801762964E+02  0.11572929130E+04  0.65864270000E+03 0. -1.
    8880022    1    1    2    0    0 -0.82966307329E+03  0.45585664832E+03  0.75413629682E+03  0.12199423372E+04  0.15294330000E+03 0.  0.
<mgrwt>
<rscale>  0 0.11012482E+04</rscale>
<asrwt>0</asrwt>
<pdfrwt beam="1">  1        1 0.11740748E+00 0.11532373E+04</pdfrwt>
<pdfrwt beam="2">  1       -1 0.24832102E+00 0.11532373E+04</pdfrwt>
<totfact> 0.16859433E+00</totfact>
</mgrwt>
</event>
<event>
 4    2  0.3179755E-007  0.1014111E+04  0.7818608E-02  0.9363325E-01
         -1   -1    0    0    0  501 -0.00000000000E+00  0.00000000000E+00  0.32952646190E+03  0.32952646194E+03  0.50400000000E-02 0.  1.
          1   -1    0    0  501    0  0.00000000000E+00 -0.00000000000E+00 -0.35481715896E+04  0.35481715896E+04  0.50400000000E-02 0. -1.
    8880023    1    1    2    0    0 -0.17892026801E+03 -0.75006505007E+03 -0.28189060939E+04  0.29957723235E+04  0.65864270000E+03 0.  0.
    8880022    1    1    2    0    0  0.17892026801E+03  0.75006505007E+03 -0.39973903378E+03  0.88192572805E+03  0.15294330000E+03 0.  0.
<mgrwt>
<rscale>  0 0.95156331E+03</rscale>
<asrwt>0</asrwt>
<pdfrwt beam="1">  1        1 0.54587253E+00 0.10141106E+04</pdfrwt>
<pdfrwt beam="2">  1       -1 0.50696381E-01 0.10141106E+04</pdfrwt>
<totfact> 0.92897550E-01</totfact>
</mgrwt>
</event>
<event>
 4    2  0.3179755E-007  0.6907062E+03  0.7818608E-02  0.1003819E+00
          1   -1    0    0  501    0  0.00000000000E+00  0.00000000000E+00  0.17466915647E+04  0.17466915647E+04  0.50400000000E-02 0. -1.
         -1   -1    0    0    0  501 -0.00000000000E+00 -0.00000000000E+00 -0.17532077765E+03  0.17532077772E+03  0.50400000000E-02 0.  1.
    8880023    1    1    2    0    0  0.20788098767E+03 -0.70934524861E+01  0.15042557003E+04  0.16552523192E+04  0.65864270000E+03 0. -1.
    8880022    1    1    2    0    0 -0.20788098767E+03  0.70934524861E+01  0.67115086753E+02  0.26676002322E+03  0.15294330000E+03 0.  0.
<mgrwt>
<rscale>  0 0.54007031E+03</rscale>
<asrwt>0</asrwt>
<pdfrwt beam="1">  1        1 0.26872179E+00 0.69070618E+03</pdfrwt>
<pdfrwt beam="2">  1       -1 0.26972427E-01 0.69070618E+03</pdfrwt>
<totfact> 0.56401708E+01</totfact>
</mgrwt>
</event>
<event>
 4    2  0.3179755E-007  0.7419940E+03  0.7818608E-02  0.9854176E-01
         -1   -1    0    0    0  501 -0.00000000000E+00  0.00000000000E+00  0.55363614206E+03  0.55363614208E+03  0.50400000000E-02 0.  1.
          1   -1    0    0  501    0  0.00000000000E+00 -0.00000000000E+00 -0.58247651763E+03  0.58247651765E+03  0.50400000000E-02 0. -1.
    8880023    1    1    2    0    0  0.21472848291E+03 -0.26577528487E+03  0.79919402807E+02  0.74628556239E+03  0.65864270000E+03 0.  1.
    8880022    1    1    2    0    0 -0.21472848291E+03  0.26577528487E+03 -0.10875977837E+03  0.38982709735E+03  0.15294330000E+03 0. -1.
<mgrwt>
<rscale>  0 0.62534427E+03</rscale>
<asrwt>0</asrwt>
<pdfrwt beam="1">  1        1 0.89611772E-01 0.74199396E+03</pdfrwt>
<pdfrwt beam="2">  1       -1 0.85174791E-01 0.74199396E+03</pdfrwt>
<totfact> 0.49814503E+01</totfact>
</mgrwt>
</event>
<event>
 4    2  0.3179755E-007  0.8262630E+03  0.7818608E-02  0.9656648E-01
         -1   -1    0    0    0  501 -0.00000000000E+00  0.00000000000E+00  0.20256151723E+04  0.20256151723E+04  0.50400000000E-02 0.  1.
          1   -1    0    0  501    0  0.00000000000E+00 -0.00000000000E+00 -0.22525595537E+03  0.22525595543E+03  0.50400000000E-02 0. -1.
    8880023    1    1    2    0    0  0.30234070428E+03 -0.39685069575E+03  0.11743320205E+04  0.14358851893E+04  0.65864270000E+03 0.  0.
    8880022    1    1    2    0    0 -0.30234070428E+03  0.39685069575E+03  0.62602719643E+03  0.81498593845E+03  0.15294330000E+03 0.  1.
<mgrwt>
<rscale>  0 0.73657692E+03</rscale>
<asrwt>0</asrwt>
<pdfrwt beam="1">  1        1 0.34654763E-01 0.82626302E+03</pdfrwt>
<pdfrwt beam="2">  1       -1 0.31163310E+00 0.82626302E+03</pdfrwt>
<totfact> 0.36667523E+00</totfact>
</mgrwt>
</event>
<event>
 4    2  0.3179755E-007  0.8686489E+03  0.7818608E-02  0.9578360E-01
          1   -1    0    0  501    0  0.00000000000E+00  0.00000000000E+00  0.95558147916E+03  0.95558147917E+03  0.50400000000E-02 0. -1.
         -1   -1    0    0    0  501 -0.00000000000E+00 -0.00000000000E+00 -0.15570373237E+04  0.15570373237E+04  0.50400000000E-02 0.  1.
    8880023    1    1    2    0    0  0.45384654493E+03 -0.33876846076E+03  0.68007596763E+03  0.11032018330E+04  0.65864270000E+03 0. -1.
    8880022    1    1    2    0    0 -0.45384654493E+03  0.33876846076E+03 -0.12815318122E+04  0.14094169699E+04  0.15294330000E+03 0.  0.
<mgrwt>
<rscale>  0 0.78745168E+03</rscale>
<asrwt>0</asrwt>
<pdfrwt beam="1">  1        1 0.14701254E+00 0.86864893E+03</pdfrwt>
<pdfrwt beam="2">  1       -1 0.23954420E+00 0.86864893E+03</pdfrwt>
<totfact> 0.13754715E+00</totfact>
</mgrwt>
</event>
<event>
 4    2  0.3179755E-007  0.8915484E+03  0.7818608E-02  0.9539738E-01
          1   -1    0    0  501    0  0.00000000000E+00  0.00000000000E+00  0.16310825093E+04  0.16310825093E+04  0.50400000000E-02 0. -1.
         -1   -1    0    0    0  501 -0.00000000000E+00 -0.00000000000E+00 -0.36167750671E+03  0.36167750674E+03  0.50400000000E-02 0.  1.
    8880023    1    1    2    0    0  0.58319348975E+03 -0.14468509231E+03  0.57045926486E+03  0.10584339382E+04  0.65864270000E+03 0.  1.
    8880022    1    1    2    0    0 -0.58319348975E+03  0.14468509231E+03  0.69894573772E+03  0.93432607783E+03  0.15294330000E+03 0.  0.
<mgrwt>
<rscale>  0 0.81416474E+03</rscale>
<asrwt>0</asrwt>
<pdfrwt beam="1">  1        1 0.25093577E+00 0.89154844E+03</pdfrwt>
<pdfrwt beam="2">  1       -1 0.55642693E-01 0.89154844E+03</pdfrwt>
<totfact> 0.17677530E+01</totfact>
</mgrwt>
</event>
<event>
 4    2  0.3179755E-007  0.6604642E+03  0.7818608E-02  0.1023686E+00
         -1   -1    0    0    0  501 -0.00000000000E+00  0.00000000000E+00  0.15207111612E+03  0.15207111620E+03  0.50400000000E-02 0.  1.
          1   -1    0    0  501    0  0.00000000000E+00 -0.00000000000E+00 -0.13694938766E+04  0.13694938766E+04  0.50400000000E-02 0. -1.
    8880023    1    1    2    0    0 -0.45933654600E+02 -0.17112781136E+02 -0.11866036221E+04  0.13580283908E+04  0.65864270000E+03 0. -1.
    8880022    1    1    2    0    0  0.45933654600E+02  0.17112781136E+02 -0.30819138392E+02  0.16353660205E+03  0.15294330000E+03 0.  0.
<mgrwt>
<rscale>  0 0.46379669E+03</rscale>
<asrwt>0</asrwt>
<pdfrwt beam="1">  1        1 0.21069136E+00 0.66046420E+03</pdfrwt>
<pdfrwt beam="2">  1       -1 0.23395557E-01 0.66046420E+03</pdfrwt>
<totfact> 0.13012502E+02</totfact>
</mgrwt>
</event>
<event>
 4    2  0.3179755E-007  0.7362107E+03  0.7818608E-02  0.9871126E-01
         -1   -1    0    0    0  501 -0.00000000000E+00  0.00000000000E+00  0.16586639805E+04  0.16586639805E+04  0.50400000000E-02 0.  1.
          1   -1    0    0  501    0  0.00000000000E+00 -0.00000000000E+00 -0.23254762238E+03  0.23254762243E+03  0.50400000000E-02 0. -1.
    8880023    1    1    2    0    0 -0.22705972845E+03 -0.23799129667E+03  0.48240291630E+03  0.88018109357E+03  0.65864270000E+03 0.  1.
    8880022    1    1    2    0    0  0.22705972845E+03  0.23799129667E+03  0.94371344185E+03  0.10110305094E+04  0.15294330000E+03 0.  0.
<mgrwt>
<rscale>  0 0.61681294E+03</rscale>
<asrwt>0</asrwt>
<pdfrwt beam="1">  1        1 0.35776558E-01 0.73621069E+03</pdfrwt>
<pdfrwt beam="2">  1       -1 0.25517907E+00 0.73621069E+03</pdfrwt>
<totfact> 0.81838584E+00</totfact>
</mgrwt>
</event>
<event>
 4    2  0.3179755E-007  0.8617946E+03  0.7818608E-02  0.9590379E-01
         -1   -1    0    0    0  501 -0.00000000000E+00  0.00000000000E+00  0.19713564855E+03  0.19713564861E+03  0.50400000000E-02 0.  1.
          1   -1    0    0  501    0  0.00000000000E+00 -0.00000000000E+00 -0.31138698824E+04  0.31138698824E+04  0.50400000000E-02 0. -1.
    8880023    1    1    2    0    0 -0.47730186919E+03  0.28471494120E+03 -0.23483191075E+04  0.25014580766E+04  0.65864270000E+03 0.  0.
    8880022    1    1    2    0    0  0.47730186919E+03 -0.28471494120E+03 -0.56841512634E+03  0.80954745441E+03  0.15294330000E+03 0.  0.
<mgrwt>
<rscale>  0 0.77936235E+03</rscale>
<asrwt>0</asrwt>
<pdfrwt beam="1">  1        1 0.47905687E+00 0.86179457E+03</pdfrwt>
<pdfrwt beam="2">  1       -1 0.30328564E-01 0.86179457E+03</pdfrwt>
<totfact> 0.51757756E+00</totfact>
</mgrwt>
</event>
<event>
 4    2  0.3179755E-007  0.1755832E+04  0.7818608E-02  0.8747370E-01
          1   -1    0    0  501    0  0.00000000000E+00  0.00000000000E+00  0.17698512504E+04  0.17698512504E+04  0.50400000000E-02 0. -1.
         -1   -1    0    0    0  501 -0.00000000000E+00 -0.00000000000E+00 -0.20195064112E+04  0.20195064112E+04  0.50400000000E-02 0.  1.
    8880023    1    1    2    0    0  0.15283964376E+04 -0.55958848323E+03 -0.96655460658E+03  0.20042886406E+04  0.65864270000E+03 0.  0.
    8880022    1    1    2    0    0 -0.15283964376E+04  0.55958848323E+03  0.71689944580E+03  0.17850690209E+04  0.15294330000E+03 0.  0.
<mgrwt>
<rscale>  0 0.17247551E+04</rscale>
<asrwt>0</asrwt>
<pdfrwt beam="1">  1        1 0.27228481E+00 0.17558318E+04</pdfrwt>
<pdfrwt beam="2">  1       -1 0.31069329E+00 0.17558318E+04</pdfrwt>
<totfact> 0.11017008E-01</totfact>
</mgrwt>
</event>
<event>
 4    2  0.3179755E-007  0.6955018E+03  0.7818608E-02  0.1001640E+00
          1   -1    0    0  501    0  0.00000000000E+00  0.00000000000E+00  0.28352988882E+04  0.28352988883E+04  0.50400000000E-02 0. -1.
         -1   -1    0    0    0  501 -0.00000000000E+00 -0.00000000000E+00 -0.15069957253E+03  0.15069957262E+03  0.50400000000E-02 0.  1.
    8880023    1    1    2    0    0  0.13631940561E+03 -0.17700161171E+03  0.26157493500E+04  0.27066339648E+04  0.65864270000E+03 0. -1.
    8880022    1    1    2    0    0 -0.13631940561E+03  0.17700161171E+03  0.68849965718E+02  0.27936449611E+03  0.15294330000E+03 0.  0.
<mgrwt>
<rscale>  0 0.54936983E+03</rscale>
<asrwt>0</asrwt>
<pdfrwt beam="1">  1        1 0.43619984E+00 0.69550180E+03</pdfrwt>
<pdfrwt beam="2">  1       -1 0.23184549E-01 0.69550180E+03</pdfrwt>
<totfact> 0.13359761E+01</totfact>
</mgrwt>
</event>
<event>
 4    2  0.3179755E-007  0.6665228E+03  0.7818608E-02  0.1018289E+00
          1   -1    0    0  501    0  0.00000000000E+00  0.00000000000E+00  0.59647728666E+03  0.59647728668E+03  0.50400000000E-02 0. -1.
         -1   -1    0    0    0  501 -0.00000000000E+00 -0.00000000000E+00 -0.11424514104E+04  0.11424514104E+04  0.50400000000E-02 0.  1.
    8880023    1    1    2    0    0 -0.82121844893E+02 -0.60814277155E+02  0.39859610267E+03  0.77661537008E+03  0.65864270000E+03 0. -1.
    8880022    1    1    2    0    0  0.82121844893E+02  0.60814277155E+02 -0.94457022644E+03  0.96231332704E+03  0.15294330000E+03 0.  0.
<mgrwt>
<rscale>  0 0.48309267E+03</rscale>
<asrwt>0</asrwt>
<pdfrwt beam="1">  1        1 0.91765736E-01 0.66652275E+03</pdfrwt>
<pdfrwt beam="2">  1       -1 0.17576176E+00 0.66652275E+03</pdfrwt>
<totfact> 0.80574532E+00</totfact>
</mgrwt>
</event>
<event>
 4    2  0.3179755E-007  0.8253569E+03  0.7818608E-02  0.9658435E-01
         -1   -1    0    0    0  501 -0.00000000000E+00  0.00000000000E+00  0.10942933581E+04  0.10942933582E+04  0.50400000000E-02 0.  1.
          1   -1    0    0  501    0  0.00000000000E+00 -0.00000000000E+00 -0.50542367129E+03  0.50542367132E+03  0.50400000000E-02 0. -1.
    8880023    1    1    2    0    0 -0.45402000134E+03 -0.20314941388E+03  0.15625367584E+02  0.82550481789E+03  0.65864270000E+03 0.  0.
    8880022    1    1    2    0    0  0.45402000134E+03  0.20314941388E+03  0.57324431927E+03  0.77421221159E+03  0.15294330000E+03 0.  0.
<mgrwt>
<rscale>  0 0.73546419E+03</rscale>
<asrwt>0</asrwt>
<pdfrwt beam="1">  1        1 0.77757487E-01 0.82535692E+03</pdfrwt>
<pdfrwt beam="2">  1       -1 0.16835283E+00 0.82535692E+03</pdfrwt>
<totfact> 0.11278892E+01</totfact>
</mgrwt>
</event>
<event>
 4    2  0.3179755E-007  0.8282922E+03  0.7818608E-02  0.9652664E-01
         -1   -1    0    0    0  501 -0.00000000000E+00  0.00000000000E+00  0.71840623292E+03  0.71840623294E+03  0.50400000000E-02 0.  1.
          1   -1    0    0  501    0  0.00000000000E+00 -0.00000000000E+00 -0.92498003929E+03  0.92498003931E+03  0.50400000000E-02 0. -1.
    8880023    1    1    2    0    0  0.49376203443E+03 -0.91961359963E+02 -0.56945517830E+03  0.10051603080E+04  0.65864270000E+03 0. -1.
    8880022    1    1    2    0    0 -0.49376203443E+03  0.91961359963E+02  0.36288137193E+03  0.63822596428E+03  0.15294330000E+03 0.  0.
<mgrwt>
<rscale>  0 0.73906451E+03</rscale>
<asrwt>0</asrwt>
<pdfrwt beam="1">  1        1 0.14230462E+00 0.82829225E+03</pdfrwt>
<pdfrwt beam="2">  1       -1 0.11052403E+00 0.82829225E+03</pdfrwt>
<totfact> 0.13372667E+01</totfact>
</mgrwt>
</event>
<event>
 4    2  0.3179755E-007  0.6625462E+03  0.7818608E-02  0.1021687E+00
         -1   -1    0    0    0  501 -0.00000000000E+00  0.00000000000E+00  0.76889586523E+03  0.76889586525E+03  0.50400000000E-02 0.  1.
          1   -1    0    0  501    0  0.00000000000E+00 -0.00000000000E+00 -0.26471122450E+03  0.26471122455E+03  0.50400000000E-02 0. -1.
    8880023    1    1    2    0    0 -0.71270510781E+02  0.88191628918E+01  0.21120228064E+03  0.69539476052E+03  0.65864270000E+03 0. -1.
    8880022    1    1    2    0    0  0.71270510781E+02 -0.88191628918E+01  0.29298236009E+03  0.33821232928E+03  0.15294330000E+03 0.  1.
<mgrwt>
<rscale>  0 0.47082643E+03</rscale>
<asrwt>0</asrwt>
<pdfrwt beam="1">  1        1 0.40724805E-01 0.66254620E+03</pdfrwt>
<pdfrwt beam="2">  1       -1 0.11829167E+00 0.66254620E+03</pdfrwt>
<totfact> 0.67821531E+01</totfact>
</mgrwt>
</event>
<event>
 4    2  0.3179755E-007  0.7701317E+03  0.7818608E-02  0.9779550E-01
          1   -1    0    0  501    0  0.00000000000E+00  0.00000000000E+00  0.50588893838E+03  0.50588893841E+03  0.50400000000E-02 0. -1.
         -1   -1    0    0    0  501 -0.00000000000E+00 -0.00000000000E+00 -0.13908320469E+04  0.13908320469E+04  0.50400000000E-02 0.  1.
    8880023    1    1    2    0    0  0.25751915282E+03 -0.30492052535E+03  0.14314819624E+03  0.78332257289E+03  0.65864270000E+03 0. -1.
    8880022    1    1    2    0    0 -0.25751915282E+03  0.30492052535E+03 -0.10280913048E+04  0.11133984124E+04  0.15294330000E+03 0.  0.
<mgrwt>
<rscale>  0 0.66471642E+03</rscale>
<asrwt>0</asrwt>
<pdfrwt beam="1">  1        1 0.77829068E-01 0.77013171E+03</pdfrwt>
<pdfrwt beam="2">  1       -1 0.21397416E+00 0.77013171E+03</pdfrwt>
<totfact> 0.54449686E+00</totfact>
</mgrwt>
</event>
<event>
 4    2  0.3179755E-007  0.7496179E+03  0.7818608E-02  0.9832767E-01
          1   -1    0    0  501    0  0.00000000000E+00  0.00000000000E+00  0.15625386855E+04  0.15625386855E+04  0.50400000000E-02 0. -1.
         -1   -1    0    0    0  501 -0.00000000000E+00 -0.00000000000E+00 -0.29171751009E+03  0.29171751013E+03  0.50400000000E-02 0.  1.
    8880023    1    1    2    0    0  0.32332856702E+03  0.15354296551E+03  0.12584791399E+04  0.14648197010E+04  0.65864270000E+03 0.  0.
    8880022    1    1    2    0    0 -0.32332856702E+03 -0.15354296551E+03  0.12342035483E+02  0.38943649465E+03  0.15294330000E+03 0.  0.
<mgrwt>
<rscale>  0 0.63633319E+03</rscale>
<asrwt>0</asrwt>
<pdfrwt beam="1">  1        1 0.24039056E+00 0.74961791E+03</pdfrwt>
<pdfrwt beam="2">  1       -1 0.44879618E-01 0.74961791E+03</pdfrwt>
<totfact> 0.30095387E+01</totfact>
</mgrwt>
</event>
<event>
 4    2  0.3179755E-007  0.7982235E+03  0.7818608E-02  0.9714650E-01
          1   -1    0    0  501    0  0.00000000000E+00  0.00000000000E+00  0.14419897786E+04  0.14419897787E+04  0.50400000000E-02 0. -1.
         -1   -1    0    0    0  501 -0.00000000000E+00 -0.00000000000E+00 -0.92874745576E+03  0.92874745577E+03  0.50400000000E-02 0.  1.
    8880023    1    1    2    0    0 -0.29718344671E+03 -0.33916446450E+03  0.12561566290E+04  0.14883179156E+04  0.65864270000E+03 0. -1.
    8880022    1    1    2    0    0  0.29718344671E+03  0.33916446450E+03 -0.74291430613E+03  0.88241931883E+03  0.15294330000E+03 0.  0.
<mgrwt>
<rscale>  0 0.70151170E+03</rscale>
<asrwt>0</asrwt>
<pdfrwt beam="1">  1        1 0.22184458E+00 0.79822349E+03</pdfrwt>
<pdfrwt beam="2">  1       -1 0.14288422E+00 0.79822349E+03</pdfrwt>
<totfact> 0.29530488E+00</totfact>
</mgrwt>
</event>
<event>
 4    2  0.3179755E-007  0.7191470E+03  0.7818608E-02  0.9925483E-01
         -1   -1    0    0    0  501 -0.00000000000E+00  0.00000000000E+00  0.90330771033E+03  0.90330771034E+03  0.50400000000E-02 0.  1.
          1   -1    0    0  501    0  0.00000000000E+00 -0.00000000000E+00 -0.31490273784E+03  0.31490273788E+03  0.50400000000E-02 0. -1.
    8880023    1    1    2    0    0  0.25197679765E+03  0.14096068234E+03  0.28900312635E+03  0.77504531082E+03  0.65864270000E+03 0. -1.
    8880022    1    1    2    0    0 -0.25197679765E+03 -0.14096068234E+03  0.29940184614E+03  0.44316513740E+03  0.15294330000E+03 0.  1.
<mgrwt>
<rscale>  0 0.59042021E+03</rscale>
<asrwt>0</asrwt>
<pdfrwt beam="1">  1        1 0.48446575E-01 0.71914701E+03</pdfrwt>
<pdfrwt beam="2">  1       -1 0.13897042E+00 0.71914701E+03</pdfrwt>
<totfact> 0.36032843E+01</totfact>
</mgrwt>
</event>
<event>
 4    2  0.3179755E-007  0.6996003E+03  0.7818608E-02  0.9998863E-01
          1   -1    0    0  501    0  0.00000000000E+00  0.00000000000E+00  0.14668872234E+04  0.14668872234E+04  0.50400000000E-02 0. -1.
         -1   -1    0    0    0  501 -0.00000000000E+00 -0.00000000000E+00 -0.21183092384E+03  0.21183092390E+03  0.50400000000E-02 0.  1.
    8880023    1    1    2    0    0  0.21306662701E+03 -0.10115817791E+03  0.46473666659E+03  0.83989329086E+03  0.65864270000E+03 0.  0.
    8880022    1    1    2    0    0 -0.21306662701E+03  0.10115817791E+03  0.79031963300E+03  0.83882485647E+03  0.15294330000E+03 0.  1.
<mgrwt>
<rscale>  0 0.55700103E+03</rscale>
<asrwt>0</asrwt>
<pdfrwt beam="1">  1        1 0.22567496E+00 0.69960029E+03</pdfrwt>
<pdfrwt beam="2">  1       -1 0.32589373E-01 0.69960029E+03</pdfrwt>
<totfact> 0.62710058E+01</totfact>
</mgrwt>
</event>
<event>
 4    2  0.3179755E-007  0.7860170E+03  0.7818608E-02  0.9741888E-01
          1   -1    0    0  501    0  0.00000000000E+00  0.00000000000E+00  0.63419737911E+03  0.63419737913E+03  0.50400000000E-02 0. -1.
         -1   -1    0    0    0  501 -0.00000000000E+00 -0.00000000000E+00 -0.10873448632E+04  0.10873448632E+04  0.50400000000E-02 0.  1.
    8880023    1    1    2    0    0 -0.38014179978E+03  0.19875787333E+03  0.30007142440E+03  0.84134745864E+03  0.65864270000E+03 0. -1.
    8880022    1    1    2    0    0  0.38014179978E+03 -0.19875787333E+03 -0.75321890851E+03  0.88019478373E+03  0.15294330000E+03 0.  0.
<mgrwt>
<rscale>  0 0.68576627E+03</rscale>
<asrwt>0</asrwt>
<pdfrwt beam="1">  1        1 0.97568828E-01 0.78601698E+03</pdfrwt>
<pdfrwt beam="2">  1       -1 0.16728382E+00 0.78601698E+03</pdfrwt>
<totfact> 0.83596626E+00</totfact>
</mgrwt>
</event>
<event>
 4    2  0.3179755E-007  0.1472845E+04  0.7818608E-02  0.8929052E-01
         -1   -1    0    0    0  501 -0.00000000000E+00  0.00000000000E+00  0.66806778436E+03  0.66806778438E+03  0.50400000000E-02 0.  1.
          1   -1    0    0  501    0  0.00000000000E+00 -0.00000000000E+00 -0.46504058999E+04  0.46504058999E+04  0.50400000000E-02 0. -1.
    8880023    1    1    2    0    0  0.83721824219E+03 -0.10171180440E+04 -0.36720857392E+04  0.39564488349E+04  0.65864270000E+03 0.  0.
    8880022    1    1    2    0    0 -0.83721824219E+03  0.10171180440E+04 -0.31025237634E+03  0.13620248494E+04  0.15294330000E+03 0.  0.
<mgrwt>
<rscale>  0 0.14347348E+04</rscale>
<asrwt>0</asrwt>
<pdfrwt beam="1">  1        1 0.71544704E+00 0.14728454E+04</pdfrwt>
<pdfrwt beam="2">  1       -1 0.10277966E+00 0.14728454E+04</pdfrwt>
<totfact> 0.19696283E-02</totfact>
</mgrwt>
</event>
<event>
 4    2  0.3179755E-007  0.7072071E+03  0.7818608E-02  0.9968522E-01
         -1   -1    0    0    0  501 -0.00000000000E+00  0.00000000000E+00  0.12448793809E+04  0.12448793810E+04  0.50400000000E-02 0.  1.
          1   -1    0    0  501    0  0.00000000000E+00 -0.00000000000E+00 -0.10819932634E+04  0.10819932634E+04  0.50400000000E-02 0. -1.
    8880023    1    1    2    0    0  0.15176582115E+03  0.20808365953E+03 -0.94436729063E+03  0.11798184012E+04  0.65864270000E+03 0. -1.
    8880022    1    1    2    0    0 -0.15176582115E+03 -0.20808365953E+03  0.11072534082E+04  0.11470542432E+04  0.15294330000E+03 0.  0.
<mgrwt>
<rscale>  0 0.57052296E+03</rscale>
<asrwt>0</asrwt>
<pdfrwt beam="1">  1        1 0.16646050E+00 0.70720710E+03</pdfrwt>
<pdfrwt beam="2">  1       -1 0.19151990E+00 0.70720710E+03</pdfrwt>
<totfact> 0.23706934E+00</totfact>
</mgrwt>
</event>
<event>
 4    2  0.3179755E-007  0.1082270E+04  0.7818608E-02  0.9281057E-01
         -1   -1    0    0    0  501 -0.00000000000E+00  0.00000000000E+00  0.20308954425E+04  0.20308954425E+04  0.50400000000E-02 0.  1.
          1   -1    0    0  501    0  0.00000000000E+00 -0.00000000000E+00 -0.11077011415E+04  0.11077011415E+04  0.50400000000E-02 0. -1.
    8880023    1    1    2    0    0 -0.33235407796E+03 -0.79185830516E+03 -0.70487506595E+03  0.12915718615E+04  0.65864270000E+03 0.  0.
    8880022    1    1    2    0    0  0.33235407796E+03  0.79185830516E+03  0.16280693670E+04  0.18470247224E+04  0.15294330000E+03 0.  0.
<mgrwt>
<rscale>  0 0.10254561E+04</rscale>
<asrwt>0</asrwt>
<pdfrwt beam="1">  1        1 0.17041556E+00 0.10822703E+04</pdfrwt>
<pdfrwt beam="2">  1       -1 0.31244545E+00 0.10822703E+04</pdfrwt>
<totfact> 0.34388992E-01</totfact>
</mgrwt>
</event>
<event>
 4    2  0.3179755E-007  0.1130265E+04  0.7818608E-02  0.9228085E-01
         -1   -1    0    0    0  501 -0.00000000000E+00  0.00000000000E+00  0.95061655677E+03  0.95061655678E+03  0.50400000000E-02 0.  1.
          1   -1    0    0  501    0  0.00000000000E+00 -0.00000000000E+00 -0.12742778887E+04  0.12742778887E+04  0.50400000000E-02 0. -1.
    8880023    1    1    2    0    0  0.71576799277E+03 -0.57564401805E+03 -0.56405340799E+03  0.12631929023E+04  0.65864270000E+03 0. -1.
    8880022    1    1    2    0    0 -0.71576799277E+03  0.57564401805E+03  0.24039207606E+03  0.96170154323E+03  0.15294330000E+03 0.  0.
<mgrwt>
<rscale>  0 0.10768193E+04</rscale>
<asrwt>0</asrwt>
<pdfrwt beam="1">  1        1 0.19604275E+00 0.11302655E+04</pdfrwt>
<pdfrwt beam="2">  1       -1 0.14624870E+00 0.11302655E+04</pdfrwt>
<totfact> 0.34847043E+00</totfact>
</mgrwt>
</event>
<event>
 4    2  0.3179755E-007  0.7335333E+03  0.7818608E-02  0.9879201E-01
          1   -1    0    0  501    0  0.00000000000E+00  0.00000000000E+00  0.59574507438E+03  0.59574507441E+03  0.50400000000E-02 0. -1.
         -1   -1    0    0    0  501 -0.00000000000E+00 -0.00000000000E+00 -0.11969591376E+04  0.11969591376E+04  0.50400000000E-02 0.  1.
    8880023    1    1    2    0    0  0.32289445623E+03  0.12378083970E+00  0.32325091622E+03  0.80159977937E+03  0.65864270000E+03 0.  0.
    8880022    1    1    2    0    0 -0.32289445623E+03 -0.12378083970E+00 -0.92446497946E+03  0.99110443267E+03  0.15294330000E+03 0.  0.
<mgrwt>
<rscale>  0 0.61279967E+03</rscale>
<asrwt>0</asrwt>
<pdfrwt beam="1">  1        1 0.91653089E-01 0.73353327E+03</pdfrwt>
<pdfrwt beam="2">  1       -1 0.18414756E+00 0.73353327E+03</pdfrwt>
<totfact> 0.69658544E+00</totfact>
</mgrwt>
</event>
<event>
 4    2  0.3179755E-007  0.6949758E+03  0.7818608E-02  0.1001872E+00
         -1   -1    0    0    0  501 -0.00000000000E+00  0.00000000000E+00  0.23359915238E+03  0.23359915243E+03  0.50400000000E-02 0.  1.
          1   -1    0    0  501    0  0.00000000000E+00 -0.00000000000E+00 -0.14198926131E+04  0.14198926131E+04  0.50400000000E-02 0. -1.
    8880023    1    1    2    0    0 -0.16711349593E+03 -0.14578839859E+03 -0.11967358794E+04  0.13838960037E+04  0.65864270000E+03 0. -1.
    8880022    1    1    2    0    0  0.16711349593E+03  0.14578839859E+03  0.10442418689E+02  0.26959576185E+03  0.15294330000E+03 0.  0.
<mgrwt>
<rscale>  0 0.54837043E+03</rscale>
<asrwt>0</asrwt>
<pdfrwt beam="1">  1        1 0.21844501E+00 0.69497582E+03</pdfrwt>
<pdfrwt beam="2">  1       -1 0.35938332E-01 0.69497582E+03</pdfrwt>
<totfact> 0.56832384E+01</totfact>
</mgrwt>
</event>
<event>
 4    2  0.3179755E-007  0.6817781E+03  0.7818608E-02  0.1008335E+00
         -1   -1    0    0    0  501 -0.00000000000E+00  0.00000000000E+00  0.15097616808E+04  0.15097616808E+04  0.50400000000E-02 0.  1.
          1   -1    0    0  501    0  0.00000000000E+00 -0.00000000000E+00 -0.93036252596E+03  0.93036252597E+03  0.50400000000E-02 0. -1.
    8880023    1    1    2    0    0 -0.14151357885E+03 -0.10480955949E+03 -0.79429491329E+03  0.10467691972E+04  0.65864270000E+03 0.  0.
    8880022    1    1    2    0    0  0.14151357885E+03  0.10480955949E+03  0.13736940681E+04  0.13933550095E+04  0.15294330000E+03 0.  0.
<mgrwt>
<rscale>  0 0.52141668E+03</rscale>
<asrwt>0</asrwt>
<pdfrwt beam="1">  1        1 0.14313270E+00 0.68177807E+03</pdfrwt>
<pdfrwt beam="2">  1       -1 0.23227102E+00 0.68177807E+03</pdfrwt>
<totfact> 0.16622693E+00</totfact>
</mgrwt>
</event>
<event>
 4    2  0.3179755E-007  0.8725842E+03  0.7818608E-02  0.9571559E-01
          1   -1    0    0  501    0  0.00000000000E+00  0.00000000000E+00  0.25659898719E+04  0.25659898719E+04  0.50400000000E-02 0. -1.
         -1   -1    0    0    0  501 -0.00000000000E+00 -0.00000000000E+00 -0.27095762616E+03  0.27095762621E+03  0.50400000000E-02 0.  1.
    8880023    1    1    2    0    0 -0.35014440039E+03 -0.45276028958E+03  0.19849221924E+04  0.21682525907E+04  0.65864270000E+03 0. -1.
    8880022    1    1    2    0    0  0.35014440039E+03  0.45276028958E+03  0.31011005326E+03  0.66869490733E+03  0.15294330000E+03 0.  0.
<mgrwt>
<rscale>  0 0.79207539E+03</rscale>
<asrwt>0</asrwt>
<pdfrwt beam="1">  1        1 0.39476770E+00 0.87258420E+03</pdfrwt>
<pdfrwt beam="2">  1       -1 0.41685786E-01 0.87258420E+03</pdfrwt>
<totfact> 0.71330780E+00</totfact>
</mgrwt>
</event>
<event>
 4    2  0.3179755E-007  0.7220005E+03  0.7818608E-02  0.9915874E-01
         -1   -1    0    0    0  501 -0.00000000000E+00  0.00000000000E+00  0.37733755259E+03  0.37733755262E+03  0.50400000000E-02 0.  1.
          1   -1    0    0  501    0  0.00000000000E+00 -0.00000000000E+00 -0.30716245404E+04  0.30716245404E+04  0.50400000000E-02 0. -1.
    8880023    1    1    2    0    0  0.12822184780E+02  0.29548286514E+03 -0.29449675222E+04  0.30321804770E+04  0.65864270000E+03 0. -1.
    8880022    1    1    2    0    0 -0.12822184780E+02 -0.29548286514E+03  0.25068053447E+03  0.41678161595E+03  0.15294330000E+03 0.  0.
<mgrwt>
<rscale>  0 0.59498089E+03</rscale>
<asrwt>0</asrwt>
<pdfrwt beam="1">  1        1 0.47255760E+00 0.72200051E+03</pdfrwt>
<pdfrwt beam="2">  1       -1 0.58051933E-01 0.72200051E+03</pdfrwt>
<totfact> 0.17254883E+00</totfact>
</mgrwt>
</event>
<event>
 4    2  0.3179755E-007  0.8681552E+03  0.7818608E-02  0.9579218E-01
          1   -1    0    0  501    0  0.00000000000E+00  0.00000000000E+00  0.66539363068E+03  0.66539363069E+03  0.50400000000E-02 0. -1.
         -1   -1    0    0    0  501 -0.00000000000E+00 -0.00000000000E+00 -0.10223278937E+04  0.10223278937E+04  0.50400000000E-02 0.  1.
    8880023    1    1    2    0    0 -0.55692524942E+02 -0.56283350905E+03  0.18721650347E+03  0.88811229114E+03  0.65864270000E+03 0. -1.
    8880022    1    1    2    0    0  0.55692524942E+02  0.56283350905E+03 -0.54415076653E+03  0.79960923330E+03  0.15294330000E+03 0.  0.
<mgrwt>
<rscale>  0 0.78687052E+03</rscale>
<asrwt>0</asrwt>
<pdfrwt beam="1">  1        1 0.10236825E+00 0.86815518E+03</pdfrwt>
<pdfrwt beam="2">  1       -1 0.15728121E+00 0.86815518E+03</pdfrwt>
<totfact> 0.91633757E+00</totfact>
</mgrwt>
</event>
<event>
 4    2  0.3179755E-007  0.9906093E+03  0.7818608E-02  0.9393948E-01
          1   -1    0    0  501    0  0.00000000000E+00  0.00000000000E+00  0.20906172218E+04  0.20906172218E+04  0.50400000000E-02 0. -1.
         -1   -1    0    0    0  501 -0.00000000000E+00 -0.00000000000E+00 -0.68807667381E+03  0.68807667383E+03  0.50400000000E-02 0.  1.
    8880023    1    1    2    0    0 -0.10090491385E+02 -0.73986134943E+03  0.16992795781E+04  0.19669412612E+04  0.65864270000E+03 0. -1.
    8880022    1    1    2    0    0  0.10090491385E+02  0.73986134943E+03 -0.29673903012E+03  0.81175263437E+03  0.15294330000E+03 0.  0.
<mgrwt>
<rscale>  0 0.92575422E+03</rscale>
<asrwt>0</asrwt>
<pdfrwt beam="1">  1        1 0.32163341E+00 0.99060933E+03</pdfrwt>
<pdfrwt beam="2">  1       -1 0.10585795E+00 0.99060933E+03</pdfrwt>
<totfact> 0.21899036E+00</totfact>
</mgrwt>
</event>
<event>
 4    2  0.3179755E-007  0.7139318E+03  0.7818608E-02  0.9943680E-01
         -1   -1    0    0    0  501 -0.00000000000E+00  0.00000000000E+00  0.22053465458E+04  0.22053465458E+04  0.50400000000E-02 0.  1.
          1   -1    0    0  501    0  0.00000000000E+00 -0.00000000000E+00 -0.32462506838E+03  0.32462506842E+03  0.50400000000E-02 0. -1.
    8880023    1    1    2    0    0  0.15070341622E+03  0.23060116284E+03  0.99188038213E+02  0.72078907397E+03  0.65864270000E+03 0.  0.
    8880022    1    1    2    0    0 -0.15070341622E+03 -0.23060116284E+03  0.17815334392E+04  0.18091825403E+04  0.15294330000E+03 0.  0.
<mgrwt>
<rscale>  0 0.58190261E+03</rscale>
<asrwt>0</asrwt>
<pdfrwt beam="1">  1        1 0.49942317E-01 0.71393181E+03</pdfrwt>
<pdfrwt beam="2">  1       -1 0.33928410E+00 0.71393181E+03</pdfrwt>
<totfact> 0.15399504E+00</totfact>
</mgrwt>
</event>
<event>
 4    2  0.3179755E-007  0.7175408E+03  0.7818608E-02  0.9930997E-01
          1   -1    0    0  501    0  0.00000000000E+00  0.00000000000E+00  0.77226771929E+03  0.77226771931E+03  0.50400000000E-02 0. -1.
         -1   -1    0    0    0  501 -0.00000000000E+00 -0.00000000000E+00 -0.52327356551E+03  0.52327356554E+03  0.50400000000E-02 0.  1.
    8880023    1    1    2    0    0  0.22820614721E+03 -0.17022496226E+03 -0.19762332605E+03  0.74425786436E+03  0.65864270000E+03 0.  1.
    8880022    1    1    2    0    0 -0.22820614721E+03  0.17022496226E+03  0.44661747983E+03  0.55128342049E+03  0.15294330000E+03 0.  0.
<mgrwt>
<rscale>  0 0.58782296E+03</rscale>
<asrwt>0</asrwt>
<pdfrwt beam="1">  1        1 0.11881042E+00 0.71754079E+03</pdfrwt>
<pdfrwt beam="2">  1       -1 0.80503626E-01 0.71754079E+03</pdfrwt>
<totfact> 0.36998074E+01</totfact>
</mgrwt>
</event>
<event>
 4    2  0.3179755E-007  0.1027321E+04  0.7818608E-02  0.9346656E-01
         -1   -1    0    0    0  501 -0.00000000000E+00  0.00000000000E+00  0.91764210717E+03  0.91764210718E+03  0.50400000000E-02 0.  1.
          1   -1    0    0  501    0  0.00000000000E+00 -0.00000000000E+00 -0.11225962155E+04  0.11225962155E+04  0.50400000000E-02 0. -1.
    8880023    1    1    2    0    0  0.72839475408E+03  0.30169238311E+03  0.32563306586E+03  0.10776939787E+04  0.65864270000E+03 0.  0.
    8880022    1    1    2    0    0 -0.72839475408E+03 -0.30169238311E+03 -0.53058717420E+03  0.96254434404E+03  0.15294330000E+03 0.  0.
<mgrwt>
<rscale>  0 0.96598818E+03</rscale>
<asrwt>0</asrwt>
<pdfrwt beam="1">  1        1 0.17270711E+00 0.10273205E+04</pdfrwt>
<pdfrwt beam="2">  1       -1 0.14117571E+00 0.10273205E+04</pdfrwt>
<totfact> 0.49987305E+00</totfact>
</mgrwt>
</event>
<event>
 4    2  0.3179755E-007  0.7949150E+03  0.7818608E-02  0.9721901E-01
         -1   -1    0    0    0  501 -0.00000000000E+00  0.00000000000E+00  0.18708425871E+04  0.18708425871E+04  0.50400000000E-02 0.  1.
          1   -1    0    0  501    0  0.00000000000E+00 -0.00000000000E+00 -0.75016647675E+03  0.75016647677E+03  0.50400000000E-02 0. -1.
    8880023    1    1    2    0    0  0.24086288540E+03  0.37425220141E+03 -0.49617682946E+03  0.93705991921E+03  0.65864270000E+03 0. -1.
    8880022    1    1    2    0    0 -0.24086288540E+03 -0.37425220141E+03  0.16168529398E+04  0.16839491447E+04  0.15294330000E+03 0.  0.
<mgrwt>
<rscale>  0 0.69727677E+03</rscale>
<asrwt>0</asrwt>
<pdfrwt beam="1">  1        1 0.11541023E+00 0.79491499E+03</pdfrwt>
<pdfrwt beam="2">  1       -1 0.28782193E+00 0.79491499E+03</pdfrwt>
<totfact> 0.10145097E+00</totfact>
</mgrwt>
</event>
<event>
 4    2  0.3179755E-007  0.8334972E+03  0.7818608E-02  0.9642566E-01
         -1   -1    0    0    0  501 -0.00000000000E+00  0.00000000000E+00  0.57478930298E+03  0.57478930300E+03  0.50400000000E-02 0.  1.
          1   -1    0    0  501    0  0.00000000000E+00 -0.00000000000E+00 -0.11597088755E+04  0.11597088755E+04  0.50400000000E-02 0. -1.
    8880023    1    1    2    0    0 -0.38991915680E+03 -0.32995524531E+03 -0.80397611279E+03  0.11580566519E+04  0.65864270000E+03 0.  0.
    8880022    1    1    2    0    0  0.38991915680E+03  0.32995524531E+03  0.21905654030E+03  0.57644152661E+03  0.15294330000E+03 0.  0.
<mgrwt>
<rscale>  0 0.74541829E+03</rscale>
<asrwt>0</asrwt>
<pdfrwt beam="1">  1        1 0.17841675E+00 0.83349722E+03</pdfrwt>
<pdfrwt beam="2">  1       -1 0.88429124E-01 0.83349722E+03</pdfrwt>
<totfact> 0.14676335E+01</totfact>
</mgrwt>
</event>
<event>
 4    2  0.3179755E-007  0.8030010E+03  0.7818608E-02  0.9704344E-01
         -1   -1    0    0    0  501 -0.00000000000E+00  0.00000000000E+00  0.47107966154E+03  0.47107966156E+03  0.50400000000E-02 0.  1.
          1   -1    0    0  501    0  0.00000000000E+00 -0.00000000000E+00 -0.22144424169E+04  0.22144424169E+04  0.50400000000E-02 0. -1.
    8880023    1    1    2    0    0  0.16825938313E+03  0.42742158237E+03 -0.19872978372E+04  0.21433999462E+04  0.65864270000E+03 0. -1.
    8880022    1    1    2    0    0 -0.16825938313E+03 -0.42742158237E+03  0.24393508191E+03  0.54212213226E+03  0.15294330000E+03 0.  0.
<mgrwt>
<rscale>  0 0.70758715E+03</rscale>
<asrwt>0</asrwt>
<pdfrwt beam="1">  1        1 0.34068344E+00 0.80300102E+03</pdfrwt>
<pdfrwt beam="2">  1       -1 0.72473795E-01 0.80300102E+03</pdfrwt>
<totfact> 0.42726969E+00</totfact>
</mgrwt>
</event>
<event>
 4    2  0.3179755E-007  0.1025020E+04  0.7818608E-02  0.9349532E-01
          1   -1    0    0  501    0  0.00000000000E+00  0.00000000000E+00  0.10758220493E+04  0.10758220494E+04  0.50400000000E-02 0. -1.
         -1   -1    0    0    0  501 -0.00000000000E+00 -0.00000000000E+00 -0.86143671208E+03  0.86143671210E+03  0.50400000000E-02 0.  1.
    8880023    1    1    2    0    0 -0.54116269143E+03  0.56920918259E+03  0.42533495412E+03  0.11097640207E+04  0.65864270000E+03 0. -1.
    8880022    1    1    2    0    0  0.54116269143E+03 -0.56920918259E+03 -0.21094961685E+03  0.82749474077E+03  0.15294330000E+03 0.  0.
<mgrwt>
<rscale>  0 0.96348026E+03</rscale>
<asrwt>0</asrwt>
<pdfrwt beam="1">  1        1 0.16551108E+00 0.10250202E+04</pdfrwt>
<pdfrwt beam="2">  1       -1 0.13252873E+00 0.10250202E+04</pdfrwt>
<totfact> 0.63864542E+00</totfact>
</mgrwt>
</event>
<event>
 4    2  0.3179755E-007  0.6620592E+03  0.7818608E-02  0.1022139E+00
         -1   -1    0    0    0  501 -0.00000000000E+00  0.00000000000E+00  0.35181181536E+03  0.35181181540E+03  0.50400000000E-02 0.  1.
          1   -1    0    0  501    0  0.00000000000E+00 -0.00000000000E+00 -0.76011710894E+03  0.76011710896E+03  0.50400000000E-02 0. -1.
    8880023    1    1    2    0    0 -0.67064059250E+02  0.38274582004E+01 -0.57429689790E+03  0.87643560556E+03  0.65864270000E+03 0. -1.
    8880022    1    1    2    0    0  0.67064059250E+02 -0.38274582004E+01  0.16599160432E+03  0.23549331880E+03  0.15294330000E+03 0.  0.
<mgrwt>
<rscale>  0 0.46922456E+03</rscale>
<asrwt>0</asrwt>
<pdfrwt beam="1">  1        1 0.11694109E+00 0.66205924E+03</pdfrwt>
<pdfrwt beam="2">  1       -1 0.54124895E-01 0.66205924E+03</pdfrwt>
<totfact> 0.84901315E+01</totfact>
</mgrwt>
</event>
<event>
 4    2  0.3179755E-007  0.7201415E+03  0.7818608E-02  0.9922107E-01
         -1   -1    0    0    0  501 -0.00000000000E+00  0.00000000000E+00  0.53679572033E+03  0.53679572036E+03  0.50400000000E-02 0.  1.
          1   -1    0    0  501    0  0.00000000000E+00 -0.00000000000E+00 -0.66615260606E+03  0.66615260608E+03  0.50400000000E-02 0. -1.
    8880023    1    1    2    0    0  0.23581846905E+03  0.17083117649E+03 -0.35617585360E+03  0.80340841803E+03  0.65864270000E+03 0.  0.
    8880022    1    1    2    0    0 -0.23581846905E+03 -0.17083117649E+03  0.22681896787E+03  0.39953990841E+03  0.15294330000E+03 0.  0.
<mgrwt>
<rscale>  0 0.59201734E+03</rscale>
<asrwt>0</asrwt>
<pdfrwt beam="1">  1        1 0.10248502E+00 0.72014155E+03</pdfrwt>
<pdfrwt beam="2">  1       -1 0.82583957E-01 0.72014155E+03</pdfrwt>
<totfact> 0.43885137E+01</totfact>
</mgrwt>
</event>
<event>
 4    2  0.3179755E-007  0.1068605E+04  0.7818608E-02  0.9296843E-01
          1   -1    0    0  501    0  0.00000000000E+00  0.00000000000E+00  0.14008023555E+04  0.14008023555E+04  0.50400000000E-02 0. -1.
         -1   -1    0    0    0  501 -0.00000000000E+00 -0.00000000000E+00 -0.76477216564E+03  0.76477216566E+03  0.50400000000E-02 0.  1.
    8880023    1    1    2    0    0 -0.81998955157E+03  0.18900482274E+03  0.74602638267E+03  0.13032541032E+04  0.65864270000E+03 0.  0.
    8880022    1    1    2    0    0  0.81998955157E+03 -0.18900482274E+03 -0.10999619282E+03  0.86232041792E+03  0.15294330000E+03 0.  0.
<mgrwt>
<rscale>  0 0.10107398E+04</rscale>
<asrwt>0</asrwt>
<pdfrwt beam="1">  1        1 0.21550805E+00 0.10686046E+04</pdfrwt>
<pdfrwt beam="2">  1       -1 0.11765726E+00 0.10686046E+04</pdfrwt>
<totfact> 0.49675318E+00</totfact>
</mgrwt>
</event>
<event>
 4    2  0.3179755E-007  0.8240090E+03  0.7818608E-02  0.9661103E-01
         -1   -1    0    0    0  501 -0.00000000000E+00  0.00000000000E+00  0.67935311911E+03  0.67935311913E+03  0.50400000000E-02 0.  1.
          1   -1    0    0  501    0  0.00000000000E+00 -0.00000000000E+00 -0.83519959169E+03  0.83519959171E+03  0.50400000000E-02 0. -1.
    8880023    1    1    2    0    0  0.47175766116E+03 -0.15041741731E+03 -0.42871706743E+03  0.92886447906E+03  0.65864270000E+03 0.  0.
    8880022    1    1    2    0    0 -0.47175766116E+03  0.15041741731E+03  0.27287059486E+03  0.58568823178E+03  0.15294330000E+03 0. -1.
<mgrwt>
<rscale>  0 0.73380665E+03</rscale>
<asrwt>0</asrwt>
<pdfrwt beam="1">  1        1 0.12849224E+00 0.82400904E+03</pdfrwt>
<pdfrwt beam="2">  1       -1 0.10451587E+00 0.82400904E+03</pdfrwt>
<totfact> 0.18090882E+01</totfact>
</mgrwt>
</event>
<event>
 4    2  0.3179755E-007  0.7355251E+03  0.7818608E-02  0.9873179E-01
          1   -1    0    0  501    0  0.00000000000E+00  0.00000000000E+00  0.90473908101E+03  0.90473908103E+03  0.50400000000E-02 0. -1.
         -1   -1    0    0    0  501 -0.00000000000E+00 -0.00000000000E+00 -0.40066893855E+03  0.40066893858E+03  0.50400000000E-02 0.  1.
    8880023    1    1    2    0    0  0.24204546641E+03  0.22045640896E+03  0.57935084496E+03  0.93629303313E+03  0.65864270000E+03 0. -1.
    8880022    1    1    2    0    0 -0.24204546641E+03 -0.22045640896E+03 -0.75280702498E+02  0.36911498648E+03  0.15294330000E+03 0.  0.
<mgrwt>
<rscale>  0 0.61578936E+03</rscale>
<asrwt>0</asrwt>
<pdfrwt beam="1">  1        1 0.13919063E+00 0.73552515E+03</pdfrwt>
<pdfrwt beam="2">  1       -1 0.61641375E-01 0.73552515E+03</pdfrwt>
<totfact> 0.49342979E+01</totfact>
</mgrwt>
</event>
<event>
 4    2  0.3179755E-007  0.7181218E+03  0.7818608E-02  0.9928993E-01
         -1   -1    0    0    0  501 -0.00000000000E+00  0.00000000000E+00  0.28706302634E+03  0.28706302638E+03  0.50400000000E-02 0.  1.
          1   -1    0    0  501    0  0.00000000000E+00 -0.00000000000E+00 -0.96399750915E+03  0.96399750916E+03  0.50400000000E-02 0. -1.
    8880023    1    1    2    0    0  0.13059593791E+03  0.25462402854E+03 -0.54177467341E+03  0.89956583857E+03  0.65864270000E+03 0. -1.
    8880022    1    1    2    0    0 -0.13059593791E+03 -0.25462402854E+03 -0.13515980939E+03  0.35149469697E+03  0.15294330000E+03 0.  1.
<mgrwt>
<rscale>  0 0.58876501E+03</rscale>
<asrwt>0</asrwt>
<pdfrwt beam="1">  1        1 0.14830731E+00 0.71812179E+03</pdfrwt>
<pdfrwt beam="2">  1       -1 0.44163543E-01 0.71812179E+03</pdfrwt>
<totfact> 0.83831110E+01</totfact>
</mgrwt>
</event>
<event>
 4    2  0.3179755E-007  0.1014924E+04  0.7818608E-02  0.9362288E-01
         -1   -1    0    0    0  501 -0.00000000000E+00  0.00000000000E+00  0.69039825663E+03  0.69039825665E+03  0.50400000000E-02 0.  1.
          1   -1    0    0  501    0  0.00000000000E+00 -0.00000000000E+00 -0.17205213269E+04  0.17205213269E+04  0.50400000000E-02 0. -1.
    8880023    1    1    2    0    0  0.18757361268E+03 -0.74904996744E+03 -0.12340102095E+04  0.15977644123E+04  0.65864270000E+03 0.  0.
    8880022    1    1    2    0    0 -0.18757361268E+03  0.74904996744E+03  0.20388713925E+03  0.81315517121E+03  0.15294330000E+03 0.  0.
<mgrwt>
<rscale>  0 0.95245275E+03</rscale>
<asrwt>0</asrwt>
<pdfrwt beam="1">  1        1 0.26469559E+00 0.10149236E+04</pdfrwt>
<pdfrwt beam="2">  1       -1 0.10621512E+00 0.10149236E+04</pdfrwt>
<totfact> 0.38467204E+00</totfact>
</mgrwt>
</event>
<event>
 4    2  0.3179755E-007  0.8770512E+03  0.7818608E-02  0.9563924E-01
         -1   -1    0    0    0  501 -0.00000000000E+00  0.00000000000E+00  0.77772606602E+03  0.77772606604E+03  0.50400000000E-02 0.  1.
          1   -1    0    0  501    0  0.00000000000E+00 -0.00000000000E+00 -0.97022837927E+03  0.97022837929E+03  0.50400000000E-02 0. -1.
    8880023    1    1    2    0    0  0.50200949138E+03 -0.28878212859E+03 -0.56433929790E+03  0.10429274647E+04  0.65864270000E+03 0.  1.
    8880022    1    1    2    0    0 -0.50200949138E+03  0.28878212859E+03  0.37183698465E+03  0.70502698062E+03  0.15294330000E+03 0.  0.
<mgrwt>
<rscale>  0 0.79730653E+03</rscale>
<asrwt>0</asrwt>
<pdfrwt beam="1">  1        1 0.14926590E+00 0.87705123E+03</pdfrwt>
<pdfrwt beam="2">  1       -1 0.11965016E+00 0.87705123E+03</pdfrwt>
<totfact> 0.10115791E+01</totfact>
</mgrwt>
</event>
<event>
 4    2  0.3179755E-007  0.1520798E+04  0.7818608E-02  0.8895088E-01
          1   -1    0    0  501    0  0.00000000000E+00  0.00000000000E+00  0.26404499463E+04  0.26404499464E+04  0.50400000000E-02 0. -1.
         -1   -1    0    0    0  501 -0.00000000000E+00 -0.00000000000E+00 -0.83421633108E+03  0.83421633110E+03  0.50400000000E-02 0.  1.
    8880023    1    1    2    0    0  0.13198830135E+04  0.37003264821E+03  0.13151167493E+04  0.20105615137E+04  0.65864270000E+03 0. -1.
    8880022    1    1    2    0    0 -0.13198830135E+04 -0.37003264821E+03  0.49111686598E+03  0.14641047637E+04  0.15294330000E+03 0.  1.
<mgrwt>
<rscale>  0 0.14841114E+04</rscale>
<asrwt>0</asrwt>
<pdfrwt beam="1">  1        1 0.40622307E+00 0.15207977E+04</pdfrwt>
<pdfrwt beam="2">  1       -1 0.12834098E+00 0.15207977E+04</pdfrwt>
<totfact> 0.53837180E-01</totfact>
</mgrwt>
</event>
<event>
 4    2  0.3179755E-007  0.6692584E+03  0.7818608E-02  0.1016200E+00
          1   -1    0    0  501    0  0.00000000000E+00  0.00000000000E+00  0.36455949598E+03  0.36455949602E+03  0.50400000000E-02 0. -1.
         -1   -1    0    0    0  501 -0.00000000000E+00 -0.00000000000E+00 -0.61458649431E+03  0.61458649433E+03  0.50400000000E-02 0.  1.
    8880023    1    1    2    0    0 -0.32467328067E+02  0.11420378658E+03 -0.81357549862E+01  0.66930787313E+03  0.65864270000E+03 0.  0.
    8880022    1    1    2    0    0  0.32467328067E+02 -0.11420378658E+03 -0.24189124334E+03  0.30983811722E+03  0.15294330000E+03 0.  0.
<mgrwt>
<rscale>  0 0.49083139E+03</rscale>
<asrwt>0</asrwt>
<pdfrwt beam="1">  1        1 0.56086077E-01 0.66925842E+03</pdfrwt>
<pdfrwt beam="2">  1       -1 0.94551768E-01 0.66925842E+03</pdfrwt>
<totfact> 0.75255234E+01</totfact>
</mgrwt>
</event>
<event>
 4    2  0.3179755E-007  0.7890798E+03  0.7818608E-02  0.9734925E-01
          1   -1    0    0  501    0  0.00000000000E+00  0.00000000000E+00  0.22139921604E+04  0.22139921604E+04  0.50400000000E-02 0. -1.
         -1   -1    0    0    0  501 -0.00000000000E+00 -0.00000000000E+00 -0.19806212203E+03  0.19806212210E+03  0.50400000000E-02 0.  1.
    8880023    1    1    2    0    0 -0.32520729482E+03 -0.28823066628E+03  0.16304952048E+04  0.18113976705E+04  0.65864270000E+03 0. -1.
    8880022    1    1    2    0    0  0.32520729482E+03  0.28823066628E+03  0.38543483358E+03  0.60065661201E+03  0.15294330000E+03 0.  0.
<mgrwt>
<rscale>  0 0.68974906E+03</rscale>
<asrwt>0</asrwt>
<pdfrwt beam="1">  1        1 0.34061416E+00 0.78907979E+03</pdfrwt>
<pdfrwt beam="2">  1       -1 0.30471097E-01 0.78907979E+03</pdfrwt>
<totfact> 0.21946096E+01</totfact>
</mgrwt>
</event>
<event>
 4    2  0.3179755E-007  0.9811188E+03  0.7818608E-02  0.9406688E-01
          1   -1    0    0  501    0  0.00000000000E+00  0.00000000000E+00  0.49426096450E+03  0.49426096453E+03  0.50400000000E-02 0. -1.
         -1   -1    0    0    0  501 -0.00000000000E+00 -0.00000000000E+00 -0.18364504556E+04  0.18364504556E+04  0.50400000000E-02 0.  1.
    8880023    1    1    2    0    0 -0.86686166415E+02 -0.72198985166E+03 -0.25478716159E+03  0.10136619463E+04  0.65864270000E+03 0. -1.
    8880022    1    1    2    0    0  0.86686166415E+02  0.72198985166E+03 -0.10874023295E+04  0.13170494738E+04  0.15294330000E+03 0.  0.
<mgrwt>
<rscale>  0 0.91527338E+03</rscale>
<asrwt>0</asrwt>
<pdfrwt beam="1">  1        1 0.76040149E-01 0.98111877E+03</pdfrwt>
<pdfrwt beam="2">  1       -1 0.28253084E+00 0.98111877E+03</pdfrwt>
<totfact> 0.19583625E+00</totfact>
</mgrwt>
</event>
<event>
 4    2  0.3179755E-007  0.8278255E+03  0.7818608E-02  0.9653578E-01
         -1   -1    0    0    0  501 -0.00000000000E+00  0.00000000000E+00  0.13171353749E+04  0.13171353749E+04  0.50400000000E-02 0.  1.
          1   -1    0    0  501    0  0.00000000000E+00 -0.00000000000E+00 -0.43736302823E+03  0.43736302826E+03  0.50400000000E-02 0. -1.
    8880023    1    1    2    0    0 -0.47730423707E+03 -0.15383587966E+03  0.12755129123E+03  0.83759438319E+03  0.65864270000E+03 0.  0.
    8880022    1    1    2    0    0  0.47730423707E+03  0.15383587966E+03  0.75222105543E+03  0.91690401997E+03  0.15294330000E+03 0.  0.
<mgrwt>
<rscale>  0 0.73849283E+03</rscale>
<asrwt>0</asrwt>
<pdfrwt beam="1">  1        1 0.67286621E-01 0.82782548E+03</pdfrwt>
<pdfrwt beam="2">  1       -1 0.20263621E+00 0.82782548E+03</pdfrwt>
<totfact> 0.78604241E+00</totfact>
</mgrwt>
</event>
<event>
 4    2  0.3179755E-007  0.9212738E+03  0.7818608E-02  0.9492709E-01
         -1   -1    0    0    0  501 -0.00000000000E+00  0.00000000000E+00  0.47393074669E+03  0.47393074672E+03  0.50400000000E-02 0.  1.
          1   -1    0    0  501    0  0.00000000000E+00 -0.00000000000E+00 -0.25616231197E+04  0.25616231197E+04  0.50400000000E-02 0. -1.
    8880023    1    1    2    0    0  0.56629372067E+03  0.30699614331E+03 -0.21803901589E+04  0.23670333039E+04  0.65864270000E+03 0. -1.
    8880022    1    1    2    0    0 -0.56629372067E+03 -0.30699614331E+03  0.92697785913E+02  0.66852056259E+03  0.15294330000E+03 0.  1.
<mgrwt>
<rscale>  0 0.84823522E+03</rscale>
<asrwt>0</asrwt>
<pdfrwt beam="1">  1        1 0.39409586E+00 0.92127380E+03</pdfrwt>
<pdfrwt beam="2">  1       -1 0.72912424E-01 0.92127380E+03</pdfrwt>
<totfact> 0.24026460E+00</totfact>
</mgrwt>
</event>
<event>
 4    2  0.3179755E-007  0.6886949E+03  0.7818608E-02  0.1004779E+00
          1   -1    0    0  501    0  0.00000000000E+00  0.00000000000E+00  0.15373928020E+04  0.15373928020E+04  0.50400000000E-02 0. -1.
         -1   -1    0    0    0  501 -0.00000000000E+00 -0.00000000000E+00 -0.59420330702E+03  0.59420330705E+03  0.50400000000E-02 0.  1.
    8880023    1    1    2    0    0  0.18347445706E+03 -0.82629591523E+02  0.14276978168E+04  0.15851251649E+04  0.65864270000E+03 0. -1.
    8880022    1    1    2    0    0 -0.18347445706E+03  0.82629591523E+02 -0.48450832191E+03  0.54647094415E+03  0.15294330000E+03 0.  0.
<mgrwt>
<rscale>  0 0.53603437E+03</rscale>
<asrwt>0</asrwt>
<pdfrwt beam="1">  1        1 0.23652197E+00 0.68869495E+03</pdfrwt>
<pdfrwt beam="2">  1       -1 0.91415895E-01 0.68869495E+03</pdfrwt>
<totfact> 0.75580830E+00</totfact>
</mgrwt>
</event>
<event>
 4    2  0.3179755E-007  0.6839464E+03  0.7818608E-02  0.1007174E+00
         -1   -1    0    0    0  501 -0.00000000000E+00  0.00000000000E+00  0.53621451210E+03  0.53621451213E+03  0.50400000000E-02 0.  1.
          1   -1    0    0  501    0  0.00000000000E+00 -0.00000000000E+00 -0.85269303435E+03  0.85269303436E+03  0.50400000000E-02 0. -1.
    8880023    1    1    2    0    0  0.17343144670E+03  0.62402342471E+02 -0.67291417764E+03  0.95947705328E+03  0.65864270000E+03 0. -1.
    8880022    1    1    2    0    0 -0.17343144670E+03 -0.62402342471E+02  0.35643565539E+03  0.42943049321E+03  0.15294330000E+03 0.  0.
<mgrwt>
<rscale>  0 0.52613435E+03</rscale>
<asrwt>0</asrwt>
<pdfrwt beam="1">  1        1 0.13118354E+00 0.68394643E+03</pdfrwt>
<pdfrwt beam="2">  1       -1 0.82494540E-01 0.68394643E+03</pdfrwt>
<totfact> 0.30075725E+01</totfact>
</mgrwt>
</event>
<event>
 4    2  0.3179755E-007  0.9670536E+03  0.7818608E-02  0.9425991E-01
         -1   -1    0    0    0  501 -0.00000000000E+00  0.00000000000E+00  0.43747072566E+03  0.43747072569E+03  0.50400000000E-02 0.  1.
          1   -1    0    0  501    0  0.00000000000E+00 -0.00000000000E+00 -0.21281138342E+04  0.21281138342E+04  0.50400000000E-02 0. -1.
    8880023    1    1    2    0    0 -0.45251893576E+03 -0.54461823247E+03 -0.15510778163E+04  0.18278498311E+04  0.65864270000E+03 0.  0.
    8880022    1    1    2    0    0  0.45251893576E+03  0.54461823247E+03 -0.13956529225E+03  0.73773472887E+03  0.15294330000E+03 0.  0.
<mgrwt>
<rscale>  0 0.89967250E+03</rscale>
<asrwt>0</asrwt>
<pdfrwt beam="1">  1        1 0.32740212E+00 0.96705357E+03</pdfrwt>
<pdfrwt beam="2">  1       -1 0.67303190E-01 0.96705357E+03</pdfrwt>
<totfact> 0.55483381E+00</totfact>
</mgrwt>
</event>
<event>
 4    2  0.3179755E-007  0.7655015E+03  0.7818608E-02  0.9791067E-01
          1   -1    0    0  501    0  0.00000000000E+00  0.00000000000E+00  0.25310346228E+04  0.25310346228E+04  0.50400000000E-02 0. -1.
         -1   -1    0    0    0  501 -0.00000000000E+00 -0.00000000000E+00 -0.19933960807E+03  0.19933960814E+03  0.50400000000E-02 0.  1.
    8880023    1    1    2    0    0  0.11973785971E+03 -0.37127502770E+03  0.21338397670E+04  0.22669946314E+04  0.65864270000E+03 0.  0.
    8880022    1    1    2    0    0 -0.11973785971E+03  0.37127502770E+03  0.19785524777E+03  0.46337959960E+03  0.15294330000E+03 0.  0.
<mgrwt>
<rscale>  0 0.65844126E+03</rscale>
<asrwt>0</asrwt>
<pdfrwt beam="1">  1        1 0.38938993E+00 0.76550147E+03</pdfrwt>
<pdfrwt beam="2">  1       -1 0.30667633E-01 0.76550147E+03</pdfrwt>
<totfact> 0.13274383E+01</totfact>
</mgrwt>
</event>
<event>
 4    2  0.3179755E-007  0.7791542E+03  0.7818608E-02  0.9757828E-01
          1   -1    0    0  501    0  0.00000000000E+00  0.00000000000E+00  0.24849921014E+04  0.24849921014E+04  0.50400000000E-02 0. -1.
         -1   -1    0    0    0  501 -0.00000000000E+00 -0.00000000000E+00 -0.18386088062E+03  0.18386088069E+03  0.50400000000E-02 0.  1.
    8880023    1    1    2    0    0  0.29941245794E+03 -0.28917688519E+03  0.85736740190E+03  0.11585163611E+04  0.65864270000E+03 0.  0.
    8880022    1    1    2    0    0 -0.29941245794E+03  0.28917688519E+03  0.14437638189E+04  0.15103366210E+04  0.15294330000E+03 0.  0.
<mgrwt>
<rscale>  0 0.67675712E+03</rscale>
<asrwt>0</asrwt>
<pdfrwt beam="1">  1        1 0.38230646E+00 0.77915422E+03</pdfrwt>
<pdfrwt beam="2">  1       -1 0.28286291E-01 0.77915422E+03</pdfrwt>
<totfact> 0.16395046E+01</totfact>
</mgrwt>
</event>
<event>
 4    2  0.3179755E-007  0.1048994E+04  0.7818608E-02  0.9320091E-01
          1   -1    0    0  501    0  0.00000000000E+00  0.00000000000E+00  0.17294619944E+04  0.17294619944E+04  0.50400000000E-02 0. -1.
         -1   -1    0    0    0  501 -0.00000000000E+00 -0.00000000000E+00 -0.86907466433E+03  0.86907466434E+03  0.50400000000E-02 0.  1.
    8880023    1    1    2    0    0  0.36668997397E+03 -0.72946369289E+03  0.12905619258E+04  0.16631112731E+04  0.65864270000E+03 0. -1.
    8880022    1    1    2    0    0 -0.36668997397E+03  0.72946369289E+03 -0.43017459571E+03  0.93542538562E+03  0.15294330000E+03 0.  0.
<mgrwt>
<rscale>  0 0.98954069E+03</rscale>
<asrwt>0</asrwt>
<pdfrwt beam="1">  1        1 0.26607108E+00 0.10489943E+04</pdfrwt>
<pdfrwt beam="2">  1       -1 0.13370380E+00 0.10489943E+04</pdfrwt>
<totfact> 0.21505079E+00</totfact>
</mgrwt>
</event>
<event>
 4    2  0.3179755E-007  0.7619568E+03  0.7818608E-02  0.9800068E-01
         -1   -1    0    0    0  501 -0.00000000000E+00  0.00000000000E+00  0.71568753942E+03  0.71568753943E+03  0.50400000000E-02 0.  1.
          1   -1    0    0  501    0  0.00000000000E+00 -0.00000000000E+00 -0.11903200650E+04  0.11903200650E+04  0.50400000000E-02 0. -1.
    8880023    1    1    2    0    0  0.35338415391E+03  0.14794476232E+03 -0.98784560656E+03  0.12475644920E+04  0.65864270000E+03 0. -1.
    8880022    1    1    2    0    0 -0.35338415391E+03 -0.14794476232E+03  0.51321308095E+03  0.65844311251E+03  0.15294330000E+03 0.  0.
<mgrwt>
<rscale>  0 0.65358918E+03</rscale>
<asrwt>0</asrwt>
<pdfrwt beam="1">  1        1 0.18312616E+00 0.76195684E+03</pdfrwt>
<pdfrwt beam="2">  1       -1 0.11010578E+00 0.76195684E+03</pdfrwt>
<totfact> 0.85479230E+00</totfact>
</mgrwt>
</event>
<event>
 4    2  0.3179755E-007  0.7163380E+03  0.7818608E-02  0.9935178E-01
          1   -1    0    0  501    0  0.00000000000E+00  0.00000000000E+00  0.10793660215E+04  0.10793660215E+04  0.50400000000E-02 0. -1.
         -1   -1    0    0    0  501 -0.00000000000E+00 -0.00000000000E+00 -0.62565082748E+03  0.62565082750E+03  0.50400000000E-02 0.  1.
    8880023    1    1    2    0    0  0.26944021572E+03  0.82047842261E+02  0.90331522320E+03  0.11528740074E+04  0.65864270000E+03 0. -1.
    8880022    1    1    2    0    0 -0.26944021572E+03 -0.82047842261E+02 -0.44960002918E+03  0.55214284159E+03  0.15294330000E+03 0.  0.
<mgrwt>
<rscale>  0 0.58586312E+03</rscale>
<asrwt>0</asrwt>
<pdfrwt beam="1">  1        1 0.16605631E+00 0.71633797E+03</pdfrwt>
<pdfrwt beam="2">  1       -1 0.96253974E-01 0.71633797E+03</pdfrwt>
<totfact> 0.14158867E+01</totfact>
</mgrwt>
</event>
<event>
 4    2  0.3179755E-007  0.8264899E+03  0.7818608E-02  0.9656201E-01
         -1   -1    0    0    0  501 -0.00000000000E+00  0.00000000000E+00  0.48461625116E+03  0.48461625119E+03  0.50400000000E-02 0.  1.
          1   -1    0    0  501    0  0.00000000000E+00 -0.00000000000E+00 -0.19511420406E+04  0.19511420406E+04  0.50400000000E-02 0. -1.
    8880023    1    1    2    0    0  0.16522874200E+03 -0.47114197438E+03 -0.16794809571E+04  0.18718284613E+04  0.65864270000E+03 0. -1.
    8880022    1    1    2    0    0 -0.16522874200E+03  0.47114197438E+03  0.21295516766E+03  0.56392983044E+03  0.15294330000E+03 0.  0.
<mgrwt>
<rscale>  0 0.73685530E+03</rscale>
<asrwt>0</asrwt>
<pdfrwt beam="1">  1        1 0.30017569E+00 0.82648987E+03</pdfrwt>
<pdfrwt beam="2">  1       -1 0.74556348E-01 0.82648987E+03</pdfrwt>
<totfact> 0.60275477E+00</totfact>
</mgrwt>
</event>
<event>
 4    2  0.3179755E-007  0.7287546E+03  0.7818608E-02  0.9894005E-01
          1   -1    0    0  501    0  0.00000000000E+00  0.00000000000E+00  0.17395795537E+04  0.17395795537E+04  0.50400000000E-02 0. -1.
         -1   -1    0    0    0  501 -0.00000000000E+00 -0.00000000000E+00 -0.28529181186E+03  0.28529181190E+03  0.50400000000E-02 0.  1.
    8880023    1    1    2    0    0  0.17304100421E+02  0.31140582713E+03  0.15065897717E+04  0.16735877531E+04  0.65864270000E+03 0.  0.
    8880022    1    1    2    0    0 -0.17304100421E+02 -0.31140582713E+03 -0.52302029829E+02  0.35128361248E+03  0.15294330000E+03 0.  0.
<mgrwt>
<rscale>  0 0.60552696E+03</rscale>
<asrwt>0</asrwt>
<pdfrwt beam="1">  1        1 0.26762763E+00 0.72875457E+03</pdfrwt>
<pdfrwt beam="2">  1       -1 0.43891048E-01 0.72875457E+03</pdfrwt>
<totfact> 0.23880607E+01</totfact>
</mgrwt>
</event>
<event>
 4    2  0.3179755E-007  0.6951761E+03  0.7818608E-02  0.1001783E+00
          1   -1    0    0  501    0  0.00000000000E+00  0.00000000000E+00  0.76830877189E+03  0.76830877191E+03  0.50400000000E-02 0. -1.
         -1   -1    0    0    0  501 -0.00000000000E+00 -0.00000000000E+00 -0.19851682006E+04  0.19851682006E+04  0.50400000000E-02 0.  1.
    8880023    1    1    2    0    0 -0.12233824705E+03  0.18572297083E+03  0.59901413100E+03  0.91765342259E+03  0.65864270000E+03 0. -1.
    8880022    1    1    2    0    0  0.12233824705E+03 -0.18572297083E+03 -0.18158735597E+04  0.18358235499E+04  0.15294330000E+03 0.  0.
<mgrwt>
<rscale>  0 0.54875163E+03</rscale>
<asrwt>0</asrwt>
<pdfrwt beam="1">  1        1 0.11820135E+00 0.69517615E+03</pdfrwt>
<pdfrwt beam="2">  1       -1 0.30541049E+00 0.69517615E+03</pdfrwt>
<totfact> 0.76962143E-01</totfact>
</mgrwt>
</event>
<event>
 4    2  0.3179755E-007  0.7325442E+03  0.7818608E-02  0.9882223E-01
          1   -1    0    0  501    0  0.00000000000E+00  0.00000000000E+00  0.51099197334E+03  0.51099197336E+03  0.50400000000E-02 0. -1.
         -1   -1    0    0    0  501 -0.00000000000E+00 -0.00000000000E+00 -0.97187190190E+03  0.97187190191E+03  0.50400000000E-02 0.  1.
    8880023    1    1    2    0    0 -0.23968735127E+03  0.21298063555E+03  0.17619392891E+03  0.75343565374E+03  0.65864270000E+03 0.  0.
    8880022    1    1    2    0    0  0.23968735127E+03 -0.21298063555E+03 -0.63707385747E+03  0.72942822153E+03  0.15294330000E+03 0.  0.
<mgrwt>
<rscale>  0 0.61130625E+03</rscale>
<asrwt>0</asrwt>
<pdfrwt beam="1">  1        1 0.78614150E-01 0.73254419E+03</pdfrwt>
<pdfrwt beam="2">  1       -1 0.14951875E+00 0.73254419E+03</pdfrwt>
<totfact> 0.15583809E+01</totfact>
</mgrwt>
</event>
<event>
 4    2  0.3286349E-007  0.6938553E+03  0.7818608E-02  0.1002371E+00
         -1   -1    0    0    0  501 -0.00000000000E+00  0.00000000000E+00  0.40884371996E+03  0.40884371999E+03  0.50400000000E-02 0.  1.
          1   -1    0    0  501    0  0.00000000000E+00 -0.00000000000E+00 -0.20468111309E+04  0.20468111309E+04  0.50400000000E-02 0. -1.
    8880023    1    1    2    0    0 -0.20468514846E+03  0.75690188353E+02 -0.19355685760E+04  0.20561762894E+04  0.65864270000E+03 0. -1.
    8880022    1    1    2    0    0  0.20468514846E+03 -0.75690188353E+02  0.29760116505E+03  0.39947856146E+03  0.15294330000E+03 0.  0.
<mgrwt>
<rscale>  0 0.54622520E+03</rscale>
<asrwt>0</asrwt>
<pdfrwt beam="1">  1        1 0.31489401E+00 0.69385533E+03</pdfrwt>
<pdfrwt beam="2">  1       -1 0.62899035E-01 0.69385533E+03</pdfrwt>
<totfact> 0.75169273E+00</totfact>
</mgrwt>
</event>
<event>
 4    2  0.3548369E-007  0.8956767E+03  0.7818608E-02  0.9533008E-01
          1   -1    0    0  501    0  0.00000000000E+00  0.00000000000E+00  0.11271984418E+04  0.11271984418E+04  0.50400000000E-02 0. -1.
         -1   -1    0    0    0  501 -0.00000000000E+00 -0.00000000000E+00 -0.17485998129E+04  0.17485998129E+04  0.50400000000E-02 0.  1.
    8880023    1    1    2    0    0  0.17806031288E+03 -0.58027664921E+03  0.87599212573E+03  0.12528363322E+04  0.65864270000E+03 0. -1.
    8880022    1    1    2    0    0 -0.17806031288E+03  0.58027664921E+03 -0.14973934969E+04  0.16229619226E+04  0.15294330000E+03 0.  0.
<mgrwt>
<rscale>  0 0.81893419E+03</rscale>
<asrwt>0</asrwt>
<pdfrwt beam="1">  1        1 0.17341514E+00 0.89567666E+03</pdfrwt>
<pdfrwt beam="2">  1       -1 0.26901536E+00 0.89567666E+03</pdfrwt>
<totfact> 0.65225526E-01</totfact>
</mgrwt>
</event>
<event>
 4    2  0.3179755E-007  0.6707925E+03  0.7818608E-02  0.1015101E+00
          1   -1    0    0  501    0  0.00000000000E+00  0.00000000000E+00  0.11882228947E+04  0.11882228947E+04  0.50400000000E-02 0. -1.
         -1   -1    0    0    0  501 -0.00000000000E+00 -0.00000000000E+00 -0.29015559096E+03  0.29015559101E+03  0.50400000000E-02 0.  1.
    8880023    1    1    2    0    0  0.96662784079E+02 -0.82514747601E+02  0.10375326473E+04  0.12354904200E+04  0.65864270000E+03 0. -1.
    8880022    1    1    2    0    0 -0.96662784079E+02  0.82514747601E+02 -0.13946534357E+03  0.24288806572E+03  0.15294330000E+03 0.  0.
<mgrwt>
<rscale>  0 0.49496703E+03</rscale>
<asrwt>0</asrwt>
<pdfrwt beam="1">  1        1 0.18280352E+00 0.67079250E+03</pdfrwt>
<pdfrwt beam="2">  1       -1 0.44639322E-01 0.67079250E+03</pdfrwt>
<totfact> 0.55995659E+01</totfact>
</mgrwt>
</event>
<event>
 4    2  0.3179755E-007  0.8034170E+03  0.7818608E-02  0.9703456E-01
         -1   -1    0    0    0  501 -0.00000000000E+00  0.00000000000E+00  0.80506160149E+03  0.80506160150E+03  0.50400000000E-02 0.  1.
          1   -1    0    0  501    0  0.00000000000E+00 -0.00000000000E+00 -0.55399105989E+03  0.55399105991E+03  0.50400000000E-02 0. -1.
    8880023    1    1    2    0    0  0.30447614898E+03  0.34491011485E+03  0.32868147706E+03  0.86804978673E+03  0.65864270000E+03 0.  1.
    8880022    1    1    2    0    0 -0.30447614898E+03 -0.34491011485E+03 -0.77610935464E+02  0.49100287468E+03  0.15294330000E+03 0. -1.
<mgrwt>
<rscale>  0 0.70811403E+03</rscale>
<asrwt>0</asrwt>
<pdfrwt beam="1">  1        1 0.85229394E-01 0.80341703E+03</pdfrwt>
<pdfrwt beam="2">  1       -1 0.12385563E+00 0.80341703E+03</pdfrwt>
<totfact> 0.22424834E+01</totfact>
</mgrwt>
</event>
<event>
 4    2  0.3179755E-007  0.8043432E+03  0.7818608E-02  0.9701483E-01
         -1   -1    0    0    0  501 -0.00000000000E+00  0.00000000000E+00  0.31899925899E+03  0.31899925903E+03  0.50400000000E-02 0.  1.
          1   -1    0    0  501    0  0.00000000000E+00 -0.00000000000E+00 -0.17535418460E+04  0.17535418460E+04  0.50400000000E-02 0. -1.
    8880023    1    1    2    0    0 -0.36392443147E+02  0.46025350789E+03 -0.13606273180E+04  0.15805931185E+04  0.65864270000E+03 0.  0.
    8880022    1    1    2    0    0  0.36392443147E+02 -0.46025350789E+03 -0.73915268973E+02  0.49194798652E+03  0.15294330000E+03 0.  0.
<mgrwt>
<rscale>  0 0.70928577E+03</rscale>
<asrwt>0</asrwt>
<pdfrwt beam="1">  1        1 0.26977566E+00 0.80434315E+03</pdfrwt>
<pdfrwt beam="2">  1       -1 0.49076810E-01 0.80434315E+03</pdfrwt>
<totfact> 0.18781623E+01</totfact>
</mgrwt>
</event>
<event>
 4    2  0.3179755E-007  0.1023084E+04  0.7818608E-02  0.9351961E-01
         -1   -1    0    0    0  501 -0.00000000000E+00  0.00000000000E+00  0.42718786815E+03  0.42718786818E+03  0.50400000000E-02 0.  1.
          1   -1    0    0  501    0  0.00000000000E+00 -0.00000000000E+00 -0.22022149941E+04  0.22022149941E+04  0.50400000000E-02 0. -1.
    8880023    1    1    2    0    0 -0.67097302867E+02  0.77999236634E+03 -0.53381732327E+03  0.11539762911E+04  0.65864270000E+03 0.  0.
    8880022    1    1    2    0    0  0.67097302867E+02 -0.77999236634E+03 -0.12412098027E+04  0.14754265711E+04  0.15294330000E+03 0.  0.
<mgrwt>
<rscale>  0 0.96136781E+03</rscale>
<asrwt>0</asrwt>
<pdfrwt beam="1">  1        1 0.33880230E+00 0.10230837E+04</pdfrwt>
<pdfrwt beam="2">  1       -1 0.65721212E-01 0.10230837E+04</pdfrwt>
<totfact> 0.51516091E+00</totfact>
</mgrwt>
</event>
<event>
 4    2  0.3179755E-007  0.1155356E+04  0.7818608E-02  0.9201790E-01
          1   -1    0    0  501    0  0.00000000000E+00  0.00000000000E+00  0.75617925109E+03  0.75617925111E+03  0.50400000000E-02 0. -1.
         -1   -1    0    0    0  501 -0.00000000000E+00 -0.00000000000E+00 -0.18125991841E+04  0.18125991841E+04  0.50400000000E-02 0.  1.
    8880023    1    1    2    0    0 -0.77542723732E+03  0.54749406916E+03 -0.20653278373E+02  0.11555405317E+04  0.65864270000E+03 0.  0.
    8880022    1    1    2    0    0  0.77542723732E+03 -0.54749406916E+03 -0.10357666546E+04  0.14132379035E+04  0.15294330000E+03 0.  0.
<mgrwt>
<rscale>  0 0.11034967E+04</rscale>
<asrwt>0</asrwt>
<pdfrwt beam="1">  1        1 0.11633527E+00 0.11553559E+04</pdfrwt>
<pdfrwt beam="2">  1       -1 0.27886141E+00 0.11553559E+04</pdfrwt>
<totfact> 0.10848760E+00</totfact>
</mgrwt>
</event>
<event>
 4    2  0.3179755E-007  0.8207218E+03  0.7818608E-02  0.9667662E-01
          1   -1    0    0  501    0  0.00000000000E+00  0.00000000000E+00  0.16619361032E+04  0.16619361032E+04  0.50400000000E-02 0. -1.
         -1   -1    0    0    0  501 -0.00000000000E+00 -0.00000000000E+00 -0.32636338599E+03  0.32636338603E+03  0.50400000000E-02 0.  1.
    8880023    1    1    2    0    0 -0.35411852818E+03 -0.33819249539E+03  0.12067181233E+04  0.14593673052E+04  0.65864270000E+03 0.  0.
    8880022    1    1    2    0    0  0.35411852818E+03  0.33819249539E+03  0.12885459384E+03  0.52893218404E+03  0.15294330000E+03 0.  0.
<mgrwt>
<rscale>  0 0.72975261E+03</rscale>
<asrwt>0</asrwt>
<pdfrwt beam="1">  1        1 0.25568248E+00 0.82072182E+03</pdfrwt>
<pdfrwt beam="2">  1       -1 0.50209752E-01 0.82072182E+03</pdfrwt>
<totfact> 0.20693452E+01</totfact>
</mgrwt>
</event>
<event>
 4    2  0.3179755E-007  0.7004985E+03  0.7818608E-02  0.9995139E-01
         -1   -1    0    0    0  501 -0.00000000000E+00  0.00000000000E+00  0.10138976944E+04  0.10138976944E+04  0.50400000000E-02 0.  1.
          1   -1    0    0  501    0  0.00000000000E+00 -0.00000000000E+00 -0.10482830993E+04  0.10482830993E+04  0.50400000000E-02 0. -1.
    8880023    1    1    2    0    0  0.18013940782E+03 -0.15632576671E+03 -0.90625710019E+03  0.11454257241E+04  0.65864270000E+03 0.  0.
    8880022    1    1    2    0    0 -0.18013940782E+03  0.15632576671E+03  0.87187169529E+03  0.91675506960E+03  0.15294330000E+03 0.  1.
<mgrwt>
<rscale>  0 0.55863876E+03</rscale>
<asrwt>0</asrwt>
<pdfrwt beam="1">  1        1 0.16127432E+00 0.70049851E+03</pdfrwt>
<pdfrwt beam="2">  1       -1 0.15598426E+00 0.70049851E+03</pdfrwt>
<totfact> 0.45540152E+00</totfact>
</mgrwt>
</event>
<event>
 4    2  0.3179755E-007  0.7700567E+03  0.7818608E-02  0.9779735E-01
          1   -1    0    0  501    0  0.00000000000E+00  0.00000000000E+00  0.13752917864E+04  0.13752917864E+04  0.50400000000E-02 0. -1.
         -1   -1    0    0    0  501 -0.00000000000E+00 -0.00000000000E+00 -0.42583572578E+03  0.42583572581E+03  0.50400000000E-02 0.  1.
    8880023    1    1    2    0    0  0.31374186806E+03  0.24646125634E+03  0.11046240586E+04  0.13465443282E+04  0.65864270000E+03 0. -1.
    8880022    1    1    2    0    0 -0.31374186806E+03 -0.24646125634E+03 -0.15516799793E+03  0.45458318408E+03  0.15294330000E+03 0.  0.
<mgrwt>
<rscale>  0 0.66461530E+03</rscale>
<asrwt>0</asrwt>
<pdfrwt beam="1">  1        1 0.21158335E+00 0.77005670E+03</pdfrwt>
<pdfrwt beam="2">  1       -1 0.65513189E-01 0.77005670E+03</pdfrwt>
<totfact> 0.19465646E+01</totfact>
</mgrwt>
</event>
<event>
 4    2  0.3179755E-007  0.6888561E+03  0.7818608E-02  0.1004701E+00
          1   -1    0    0  501    0  0.00000000000E+00  0.00000000000E+00  0.23015267491E+04  0.23015267491E+04  0.50400000000E-02 0. -1.
         -1   -1    0    0    0  501 -0.00000000000E+00 -0.00000000000E+00 -0.57480065811E+03  0.57480065813E+03  0.50400000000E-02 0.  1.
    8880023    1    1    2    0    0 -0.27382657099E+02 -0.19990676161E+03  0.22186179708E+04  0.23230988851E+04  0.65864270000E+03 0. -1.
    8880022    1    1    2    0    0  0.27382657099E+02  0.19990676161E+03 -0.49189187982E+03  0.55322852213E+03  0.15294330000E+03 0.  0.
<mgrwt>
<rscale>  0 0.53636098E+03</rscale>
<asrwt>0</asrwt>
<pdfrwt beam="1">  1        1 0.35408104E+00 0.68885610E+03</pdfrwt>
<pdfrwt beam="2">  1       -1 0.88430870E-01 0.68885610E+03</pdfrwt>
<totfact> 0.25002601E+00</totfact>
</mgrwt>
</event>
<event>
 4    2  0.3179755E-007  0.8896299E+03  0.7818608E-02  0.9542888E-01
          1   -1    0    0  501    0  0.00000000000E+00  0.00000000000E+00  0.96301384387E+03  0.96301384388E+03  0.50400000000E-02 0. -1.
         -1   -1    0    0    0  501 -0.00000000000E+00 -0.00000000000E+00 -0.93803461898E+03  0.93803461900E+03  0.50400000000E-02 0.  1.
    8880023    1    1    2    0    0  0.35842447531E+03  0.47870972747E+03  0.58733587019E+03  0.10660228601E+04  0.65864270000E+03 0. -1.
    8880022    1    1    2    0    0 -0.35842447531E+03 -0.47870972747E+03 -0.56235664531E+03  0.83502560273E+03  0.15294330000E+03 0.  1.
<mgrwt>
<rscale>  0 0.81194364E+03</rscale>
<asrwt>0</asrwt>
<pdfrwt beam="1">  1        1 0.14815598E+00 0.88962987E+03</pdfrwt>
<pdfrwt beam="2">  1       -1 0.14431302E+00 0.88962987E+03</pdfrwt>
<totfact> 0.63579781E+00</totfact>
</mgrwt>
</event>
<event>
 4    2  0.3179755E-007  0.7141939E+03  0.7818608E-02  0.9942745E-01
          1   -1    0    0  501    0  0.00000000000E+00  0.00000000000E+00  0.26602035898E+04  0.26602035898E+04  0.50400000000E-02 0. -1.
         -1   -1    0    0    0  501 -0.00000000000E+00 -0.00000000000E+00 -0.27572397114E+03  0.27572397119E+03  0.50400000000E-02 0.  1.
    8880023    1    1    2    0    0  0.26225969546E+03 -0.86502053813E+02  0.24998158915E+04  0.25998370047E+04  0.65864270000E+03 0. -1.
    8880022    1    1    2    0    0 -0.26225969546E+03  0.86502053813E+02 -0.11533627287E+03  0.33609055630E+03  0.15294330000E+03 0.  0.
<mgrwt>
<rscale>  0 0.58233672E+03</rscale>
<asrwt>0</asrwt>
<pdfrwt beam="1">  1        1 0.40926209E+00 0.71419392E+03</pdfrwt>
<pdfrwt beam="2">  1       -1 0.42419072E-01 0.71419392E+03</pdfrwt>
<totfact> 0.61059469E+00</totfact>
</mgrwt>
</event>
<event>
 4    2  0.3179755E-007  0.9891550E+03  0.7818608E-02  0.9395886E-01
          1   -1    0    0  501    0  0.00000000000E+00  0.00000000000E+00  0.19514017078E+04  0.19514017078E+04  0.50400000000E-02 0. -1.
         -1   -1    0    0    0  501 -0.00000000000E+00 -0.00000000000E+00 -0.44287599350E+03  0.44287599353E+03  0.50400000000E-02 0.  1.
    8880023    1    1    2    0    0  0.31652883349E+03  0.66665344468E+03  0.12574817289E+04  0.15999024416E+04  0.65864270000E+03 0. -1.
    8880022    1    1    2    0    0 -0.31652883349E+03 -0.66665344468E+03  0.25104398540E+03  0.79437525978E+03  0.15294330000E+03 0.  0.
<mgrwt>
<rscale>  0 0.92415038E+03</rscale>
<asrwt>0</asrwt>
<pdfrwt beam="1">  1        1 0.30021564E+00 0.98915495E+03</pdfrwt>
<pdfrwt beam="2">  1       -1 0.68134769E-01 0.98915495E+03</pdfrwt>
<totfact> 0.70962854E+00</totfact>
</mgrwt>
</event>
<event>
 4    2  0.3179755E-007  0.9670383E+03  0.7818608E-02  0.9426012E-01
         -1   -1    0    0    0  501 -0.00000000000E+00  0.00000000000E+00  0.83009402116E+03  0.83009402118E+03  0.50400000000E-02 0.  1.
          1   -1    0    0  501    0  0.00000000000E+00 -0.00000000000E+00 -0.19275459714E+04  0.19275459714E+04  0.50400000000E-02 0. -1.
    8880023    1    1    2    0    0  0.43202923559E+03 -0.56098457214E+03  0.43669599694E+03  0.10610685890E+04  0.65864270000E+03 0.  0.
    8880022    1    1    2    0    0 -0.43202923559E+03  0.56098457214E+03 -0.15341479472E+04  0.16965714036E+04  0.15294330000E+03 0. -1.
<mgrwt>
<rscale>  0 0.89965556E+03</rscale>
<asrwt>0</asrwt>
<pdfrwt beam="1">  1        1 0.29654553E+00 0.96703834E+03</pdfrwt>
<pdfrwt beam="2">  1       -1 0.12770677E+00 0.96703834E+03</pdfrwt>
<totfact> 0.17966904E+00</totfact>
</mgrwt>
</event>
<event>
 4    2  0.3179755E-007  0.1087587E+04  0.7818608E-02  0.9275004E-01
          1   -1    0    0  501    0  0.00000000000E+00  0.00000000000E+00  0.12570946855E+04  0.12570946855E+04  0.50400000000E-02 0. -1.
         -1   -1    0    0    0  501 -0.00000000000E+00 -0.00000000000E+00 -0.14940045244E+04  0.14940045244E+04  0.50400000000E-02 0.  1.
    8880023    1    1    2    0    0  0.35949823555E+02 -0.86472127868E+03  0.83050226479E+03  0.13684222659E+04  0.65864270000E+03 0.  0.
    8880022    1    1    2    0    0 -0.35949823555E+02  0.86472127868E+03 -0.10674121036E+04  0.13826769441E+04  0.15294330000E+03 0.  0.
<mgrwt>
<rscale>  0 0.10311698E+04</rscale>
<asrwt>0</asrwt>
<pdfrwt beam="1">  1        1 0.19339918E+00 0.10875870E+04</pdfrwt>
<pdfrwt beam="2">  1       -1 0.22984685E+00 0.10875870E+04</pdfrwt>
<totfact> 0.91414994E-01</totfact>
</mgrwt>
</event>
<event>
 4    2  0.3179755E-007  0.6659557E+03  0.7818608E-02  0.1018745E+00
         -1   -1    0    0    0  501 -0.00000000000E+00  0.00000000000E+00  0.20132578104E+04  0.20132578104E+04  0.50400000000E-02 0.  1.
          1   -1    0    0  501    0  0.00000000000E+00 -0.00000000000E+00 -0.15105940339E+03  0.15105940348E+03  0.50400000000E-02 0. -1.
    8880023    1    1    2    0    0 -0.94386714032E+02  0.27891024195E+02  0.62330072762E+03  0.91214075905E+03  0.65864270000E+03 0.  0.
    8880022    1    1    2    0    0  0.94386714032E+02 -0.27891024195E+02  0.12388976794E+04  0.12521764548E+04  0.15294330000E+03 0.  0.
<mgrwt>
<rscale>  0 0.48142327E+03</rscale>
<asrwt>0</asrwt>
<pdfrwt beam="1">  1        1 0.23239911E-01 0.66595568E+03</pdfrwt>
<pdfrwt beam="2">  1       -1 0.30973194E+00 0.66595568E+03</pdfrwt>
<totfact> 0.64917527E+00</totfact>
</mgrwt>
</event>
<event>
 4    2  0.3179755E-007  0.8739326E+03  0.7818608E-02  0.9569245E-01
         -1   -1    0    0    0  501 -0.00000000000E+00  0.00000000000E+00  0.36609917961E+03  0.36609917964E+03  0.50400000000E-02 0.  1.
          1   -1    0    0  501    0  0.00000000000E+00 -0.00000000000E+00 -0.26137594086E+04  0.26137594086E+04  0.50400000000E-02 0. -1.
    8880023    1    1    2    0    0  0.56722612982E+03  0.90567490907E+02 -0.22188303545E+04  0.23847361072E+04  0.65864270000E+03 0. -1.
    8880022    1    1    2    0    0 -0.56722612982E+03 -0.90567490907E+02 -0.28829874511E+02  0.59512248104E+03  0.15294330000E+03 0.  0.
<mgrwt>
<rscale>  0 0.79365634E+03</rscale>
<asrwt>0</asrwt>
<pdfrwt beam="1">  1        1 0.40211682E+00 0.87393258E+03</pdfrwt>
<pdfrwt beam="2">  1       -1 0.56322952E-01 0.87393258E+03</pdfrwt>
<totfact> 0.37435339E+00</totfact>
</mgrwt>
</event>
<event>
 4    2  0.3179755E-007  0.7178632E+03  0.7818608E-02  0.9929884E-01
         -1   -1    0    0    0  501 -0.00000000000E+00  0.00000000000E+00  0.55741249356E+03  0.55741249358E+03  0.50400000000E-02 0.  1.
          1   -1    0    0  501    0  0.00000000000E+00 -0.00000000000E+00 -0.91418133592E+03  0.91418133593E+03  0.50400000000E-02 0. -1.
    8880023    1    1    2    0    0 -0.21230748049E+03  0.19090009945E+03 -0.69789655378E+03  0.10011928487E+04  0.65864270000E+03 0. -1.
    8880022    1    1    2    0    0  0.21230748049E+03 -0.19090009945E+03  0.34112771142E+03  0.47040098082E+03  0.15294330000E+03 0.  0.
<mgrwt>
<rscale>  0 0.58834603E+03</rscale>
<asrwt>0</asrwt>
<pdfrwt beam="1">  1        1 0.14064328E+00 0.71786316E+03</pdfrwt>
<pdfrwt beam="2">  1       -1 0.85755768E-01 0.71786316E+03</pdfrwt>
<totfact> 0.24536253E+01</totfact>
</mgrwt>
</event>
<event>
 4    2  0.3179755E-007  0.6713737E+03  0.7818608E-02  0.1014697E+00
          1   -1    0    0  501    0  0.00000000000E+00  0.00000000000E+00  0.14116199414E+04  0.14116199414E+04  0.50400000000E-02 0. -1.
         -1   -1    0    0    0  501 -0.00000000000E+00 -0.00000000000E+00 -0.42687663475E+03  0.42687663478E+03  0.50400000000E-02 0.  1.
    8880023    1    1    2    0    0 -0.13010076969E+03 -0.24986266184E+01  0.13009176399E+04  0.14639430882E+04  0.65864270000E+03 0. -1.
    8880022    1    1    2    0    0  0.13010076969E+03  0.24986266184E+01 -0.31617433320E+03  0.37455348804E+03  0.15294330000E+03 0.  0.
<mgrwt>
<rscale>  0 0.49649953E+03</rscale>
<asrwt>0</asrwt>
<pdfrwt beam="1">  1        1 0.21717230E+00 0.67137371E+03</pdfrwt>
<pdfrwt beam="2">  1       -1 0.65673328E-01 0.67137371E+03</pdfrwt>
<totfact> 0.18526206E+01</totfact>
</mgrwt>
</event>
<event>
 4    2  0.3179755E-007  0.8785701E+03  0.7818608E-02  0.9561348E-01
         -1   -1    0    0    0  501 -0.00000000000E+00  0.00000000000E+00  0.12787639770E+04  0.12787639770E+04  0.50400000000E-02 0.  1.
          1   -1    0    0  501    0  0.00000000000E+00 -0.00000000000E+00 -0.47292336676E+03  0.47292336679E+03  0.50400000000E-02 0. -1.
    8880023    1    1    2    0    0  0.27654502192E+03 -0.51146662745E+03  0.73658291495E+03  0.11464902341E+04  0.65864270000E+03 0.  0.
    8880022    1    1    2    0    0 -0.27654502192E+03  0.51146662745E+03  0.69257695265E+02  0.60519710963E+03  0.15294330000E+03 0.  0.
<mgrwt>
<rscale>  0 0.79908116E+03</rscale>
<asrwt>0</asrwt>
<pdfrwt beam="1">  1        1 0.72757442E-01 0.87857013E+03</pdfrwt>
<pdfrwt beam="2">  1       -1 0.19673292E+00 0.87857013E+03</pdfrwt>
<totfact> 0.77168125E+00</totfact>
</mgrwt>
</event>
<event>
 4    2  0.3179755E-007  0.6609200E+03  0.7818608E-02  0.1023233E+00
          1   -1    0    0  501    0  0.00000000000E+00  0.00000000000E+00  0.10477714473E+04  0.10477714473E+04  0.50400000000E-02 0. -1.
         -1   -1    0    0    0  501 -0.00000000000E+00 -0.00000000000E+00 -0.24956291704E+03  0.24956291709E+03  0.50400000000E-02 0.  1.
    8880023    1    1    2    0    0  0.31141661100E+02  0.45113190483E+02  0.89166551872E+03  0.11099020707E+04  0.65864270000E+03 0. -1.
    8880022    1    1    2    0    0 -0.31141661100E+02 -0.45113190483E+02 -0.93456988465E+02  0.18743229369E+03  0.15294330000E+03 0.  0.
<mgrwt>
<rscale>  0 0.46537738E+03</rscale>
<asrwt>0</asrwt>
<pdfrwt beam="1">  1        1 0.16119561E+00 0.66091997E+03</pdfrwt>
<pdfrwt beam="2">  1       -1 0.38394295E-01 0.66091997E+03</pdfrwt>
<totfact> 0.93759398E+01</totfact>
</mgrwt>
</event>
<event>
 4    2  0.3179755E-007  0.1233015E+04  0.7818608E-02  0.9125678E-01
         -1   -1    0    0    0  501 -0.00000000000E+00  0.00000000000E+00  0.55021598354E+03  0.55021598356E+03  0.50400000000E-02 0.  1.
          1   -1    0    0  501    0  0.00000000000E+00 -0.00000000000E+00 -0.32445840412E+04  0.32445840412E+04  0.50400000000E-02 0. -1.
    8880023    1    1    2    0    0 -0.10382582602E+04 -0.92394762985E+02 -0.44485920751E+03  0.13108115532E+04  0.65864270000E+03 0.  1.
    8880022    1    1    2    0    0  0.10382582602E+04  0.92394762985E+02 -0.22495088501E+04  0.24839884716E+04  0.15294330000E+03 0.  0.
<mgrwt>
<rscale>  0 0.11854611E+04</rscale>
<asrwt>0</asrwt>
<pdfrwt beam="1">  1        1 0.49916677E+00 0.12330155E+04</pdfrwt>
<pdfrwt beam="2">  1       -1 0.84648614E-01 0.12330155E+04</pdfrwt>
<totfact> 0.54160236E-01</totfact>
</mgrwt>
</event>
<event>
 4    2  0.3179755E-007  0.7190017E+03  0.7818608E-02  0.9925978E-01
         -1   -1    0    0    0  501 -0.00000000000E+00  0.00000000000E+00  0.34049798892E+03  0.34049798896E+03  0.50400000000E-02 0.  1.
          1   -1    0    0  501    0  0.00000000000E+00 -0.00000000000E+00 -0.13960646246E+04  0.13960646246E+04  0.50400000000E-02 0. -1.
    8880023    1    1    2    0    0 -0.27891981615E+03 -0.73191449206E+02 -0.11844726872E+04  0.13856186362E+04  0.65864270000E+03 0. -1.
    8880022    1    1    2    0    0  0.27891981615E+03  0.73191449206E+02  0.12890605154E+03  0.35094397732E+03  0.15294330000E+03 0.  0.
<mgrwt>
<rscale>  0 0.59018617E+03</rscale>
<asrwt>0</asrwt>
<pdfrwt beam="1">  1        1 0.21477917E+00 0.71900171E+03</pdfrwt>
<pdfrwt beam="2">  1       -1 0.52384307E-01 0.71900171E+03</pdfrwt>
<totfact> 0.29375918E+01</totfact>
</mgrwt>
</event>
<event>
 4    2  0.3179755E-007  0.8133344E+03  0.7818608E-02  0.9682673E-01
         -1   -1    0    0    0  501 -0.00000000000E+00  0.00000000000E+00  0.34997480225E+03  0.34997480228E+03  0.50400000000E-02 0.  1.
          1   -1    0    0  501    0  0.00000000000E+00 -0.00000000000E+00 -0.22463425994E+04  0.22463425994E+04  0.50400000000E-02 0. -1.
    8880023    1    1    2    0    0  0.47318905305E+03  0.61601134651E+02 -0.19297171674E+04  0.20941158354E+04  0.65864270000E+03 0. -1.
    8880022    1    1    2    0    0 -0.47318905305E+03 -0.61601134651E+02  0.33349370189E+02  0.50220156633E+03  0.15294330000E+03 0.  0.
<mgrwt>
<rscale>  0 0.72057872E+03</rscale>
<asrwt>0</asrwt>
<pdfrwt beam="1">  1        1 0.34559116E+00 0.81333436E+03</pdfrwt>
<pdfrwt beam="2">  1       -1 0.53842279E-01 0.81333436E+03</pdfrwt>
<totfact> 0.73418621E+00</totfact>
</mgrwt>
</event>
<event>
 4    2  0.3179755E-007  0.9484705E+03  0.7818608E-02  0.9452318E-01
         -1   -1    0    0    0  501 -0.00000000000E+00  0.00000000000E+00  0.28063725822E+03  0.28063725826E+03  0.50400000000E-02 0.  1.
          1   -1    0    0  501    0  0.00000000000E+00 -0.00000000000E+00 -0.37498758150E+04  0.37498758150E+04  0.50400000000E-02 0. -1.
    8880023    1    1    2    0    0  0.46044097744E+03 -0.50376597232E+03 -0.30954161501E+04  0.32374677446E+04  0.65864270000E+03 0.  1.
    8880022    1    1    2    0    0 -0.46044097744E+03  0.50376597232E+03 -0.37382240664E+03  0.79304532865E+03  0.15294330000E+03 0.  0.
<mgrwt>
<rscale>  0 0.87892374E+03</rscale>
<asrwt>0</asrwt>
<pdfrwt beam="1">  1        1 0.57690394E+00 0.94847048E+03</pdfrwt>
<pdfrwt beam="2">  1       -1 0.43174965E-01 0.94847048E+03</pdfrwt>
<totfact> 0.87622131E-01</totfact>
</mgrwt>
</event>
<event>
 4    2  0.3179755E-007  0.1038674E+04  0.7818608E-02  0.9332622E-01
          1   -1    0    0  501    0  0.00000000000E+00  0.00000000000E+00  0.11557594450E+04  0.11557594450E+04  0.50400000000E-02 0. -1.
         -1   -1    0    0    0  501 -0.00000000000E+00 -0.00000000000E+00 -0.10872242942E+04  0.10872242942E+04  0.50400000000E-02 0.  1.
    8880023    1    1    2    0    0 -0.53152268884E+03 -0.60209475648E+03  0.66290764825E+03  0.12321896043E+04  0.65864270000E+03 0. -1.
    8880022    1    1    2    0    0  0.53152268884E+03  0.60209475648E+03 -0.59437249744E+03  0.10107941350E+04  0.15294330000E+03 0.  0.
<mgrwt>
<rscale>  0 0.97834329E+03</rscale>
<asrwt>0</asrwt>
<pdfrwt beam="1">  1        1 0.17780915E+00 0.10386745E+04</pdfrwt>
<pdfrwt beam="2">  1       -1 0.16726528E+00 0.10386745E+04</pdfrwt>
<totfact> 0.29654034E+00</totfact>
</mgrwt>
</event>
<event>
 4    2  0.3179755E-007  0.1028725E+04  0.7818608E-02  0.9344905E-01
          1   -1    0    0  501    0  0.00000000000E+00  0.00000000000E+00  0.14696691992E+04  0.14696691992E+04  0.50400000000E-02 0. -1.
         -1   -1    0    0    0  501 -0.00000000000E+00 -0.00000000000E+00 -0.83585394129E+03  0.83585394131E+03  0.50400000000E-02 0.  1.
    8880023    1    1    2    0    0  0.21534980376E+02  0.78993753711E+03  0.98783168728E+03  0.14262141202E+04  0.65864270000E+03 0.  0.
    8880022    1    1    2    0    0 -0.21534980376E+02 -0.78993753711E+03 -0.35401642940E+03  0.87930902032E+03  0.15294330000E+03 0.  0.
<mgrwt>
<rscale>  0 0.96751869E+03</rscale>
<asrwt>0</asrwt>
<pdfrwt beam="1">  1        1 0.22610295E+00 0.10287251E+04</pdfrwt>
<pdfrwt beam="2">  1       -1 0.12859291E+00 0.10287251E+04</pdfrwt>
<totfact> 0.35850403E+00</totfact>
</mgrwt>
</event>
<event>
 4    2  0.3179755E-007  0.8204787E+03  0.7818608E-02  0.9668150E-01
          1   -1    0    0  501    0  0.00000000000E+00  0.00000000000E+00  0.18408194246E+04  0.18408194246E+04  0.50400000000E-02 0. -1.
         -1   -1    0    0    0  501 -0.00000000000E+00 -0.00000000000E+00 -0.28451505312E+03  0.28451505316E+03  0.50400000000E-02 0.  1.
    8880023    1    1    2    0    0  0.17230494725E+03 -0.45791494634E+03  0.13350453233E+04  0.15670135017E+04  0.65864270000E+03 0.  0.
    8880022    1    1    2    0    0 -0.17230494725E+03  0.45791494634E+03  0.22125904819E+03  0.55832097610E+03  0.15294330000E+03 0.  0.
<mgrwt>
<rscale>  0 0.72945211E+03</rscale>
<asrwt>0</asrwt>
<pdfrwt beam="1">  1        1 0.28320299E+00 0.82047870E+03</pdfrwt>
<pdfrwt beam="2">  1       -1 0.43771546E-01 0.82047870E+03</pdfrwt>
<totfact> 0.20283509E+01</totfact>
</mgrwt>
</event>
<event>
 4    2  0.3179755E-007  0.7833356E+03  0.7818608E-02  0.9748059E-01
          1   -1    0    0  501    0  0.00000000000E+00  0.00000000000E+00  0.11518901920E+04  0.11518901920E+04  0.50400000000E-02 0. -1.
         -1   -1    0    0    0  501 -0.00000000000E+00 -0.00000000000E+00 -0.57807185246E+03  0.57807185248E+03  0.50400000000E-02 0.  1.
    8880023    1    1    2    0    0  0.42071992200E+03 -0.52906841270E+02  0.88525233526E+03  0.11820686486E+04  0.65864270000E+03 0. -1.
    8880022    1    1    2    0    0 -0.42071992200E+03  0.52906841270E+02 -0.31143399570E+03  0.54789339593E+03  0.15294330000E+03 0.  0.
<mgrwt>
<rscale>  0 0.68226059E+03</rscale>
<asrwt>0</asrwt>
<pdfrwt beam="1">  1        1 0.17721387E+00 0.78333556E+03</pdfrwt>
<pdfrwt beam="2">  1       -1 0.88934132E-01 0.78333556E+03</pdfrwt>
<totfact> 0.14777596E+01</totfact>
</mgrwt>
</event>
<event>
 4    2  0.3179755E-007  0.1035239E+04  0.7818608E-02  0.9336840E-01
         -1   -1    0    0    0  501 -0.00000000000E+00  0.00000000000E+00  0.24745831235E+04  0.24745831235E+04  0.50400000000E-02 0.  1.
          1   -1    0    0  501    0  0.00000000000E+00 -0.00000000000E+00 -0.35799875532E+03  0.35799875536E+03  0.50400000000E-02 0. -1.
    8880023    1    1    2    0    0 -0.67629939437E+03  0.42488670043E+03  0.91477239506E+03  0.13814949584E+04  0.65864270000E+03 0.  0.
    8880022    1    1    2    0    0  0.67629939437E+03 -0.42488670043E+03  0.12018119731E+04  0.14510869205E+04  0.15294330000E+03 0. -1.
<mgrwt>
<rscale>  0 0.97460893E+03</rscale>
<asrwt>0</asrwt>
<pdfrwt beam="1">  1        1 0.55076732E-01 0.10352390E+04</pdfrwt>
<pdfrwt beam="2">  1       -1 0.38070509E+00 0.10352390E+04</pdfrwt>
<totfact> 0.68591443E-01</totfact>
</mgrwt>
</event>
<event>
 4    2  0.3179755E-007  0.6635009E+03  0.7818608E-02  0.1020826E+00
          1   -1    0    0  501    0  0.00000000000E+00  0.00000000000E+00  0.22700745967E+04  0.22700745967E+04  0.50400000000E-02 0. -1.
         -1   -1    0    0    0  501 -0.00000000000E+00 -0.00000000000E+00 -0.12955142975E+03  0.12955142985E+03  0.50400000000E-02 0.  1.
    8880023    1    1    2    0    0 -0.71658359906E+02  0.35893666380E+02  0.21250969682E+04  0.22262683141E+04  0.65864270000E+03 0.  0.
    8880022    1    1    2    0    0  0.71658359906E+02 -0.35893666380E+02  0.15426198704E+02  0.17335771241E+03  0.15294330000E+03 0.  1.
<mgrwt>
<rscale>  0 0.47389854E+03</rscale>
<asrwt>0</asrwt>
<pdfrwt beam="1">  1        1 0.34924222E+00 0.66350093E+03</pdfrwt>
<pdfrwt beam="2">  1       -1 0.19930991E-01 0.66350093E+03</pdfrwt>
<totfact> 0.42180724E+01</totfact>
</mgrwt>
</event>
<event>
 4    2  0.3179755E-007  0.1058793E+04  0.7818608E-02  0.9308385E-01
          1   -1    0    0  501    0  0.00000000000E+00  0.00000000000E+00  0.17344181259E+04  0.17344181259E+04  0.50400000000E-02 0. -1.
         -1   -1    0    0    0  501 -0.00000000000E+00 -0.00000000000E+00 -0.89037523302E+03  0.89037523303E+03  0.50400000000E-02 0.  1.
    8880023    1    1    2    0    0  0.35908051746E+03  0.74719049631E+03 -0.39168224194E+03  0.11289187928E+04  0.65864270000E+03 0.  0.
    8880022    1    1    2    0    0 -0.35908051746E+03 -0.74719049631E+03  0.12357251348E+04  0.14958745661E+04  0.15294330000E+03 0.  0.
<mgrwt>
<rscale>  0 0.10001458E+04</rscale>
<asrwt>0</asrwt>
<pdfrwt beam="1">  1        1 0.26683355E+00 0.10587930E+04</pdfrwt>
<pdfrwt beam="2">  1       -1 0.13698081E+00 0.10587930E+04</pdfrwt>
<totfact> 0.20024429E+00</totfact>
</mgrwt>
</event>
<event>
 4    2  0.3179755E-007  0.7470505E+03  0.7818608E-02  0.9839866E-01
         -1   -1    0    0    0  501 -0.00000000000E+00  0.00000000000E+00  0.71503940036E+03  0.71503940038E+03  0.50400000000E-02 0.  1.
          1   -1    0    0  501    0  0.00000000000E+00 -0.00000000000E+00 -0.94193609346E+03  0.94193609347E+03  0.50400000000E-02 0. -1.
    8880023    1    1    2    0    0  0.21030959741E+03  0.28292058443E+03 -0.71613968950E+03  0.10348625247E+04  0.65864270000E+03 0. -1.
    8880022    1    1    2    0    0 -0.21030959741E+03 -0.28292058443E+03  0.48924299640E+03  0.62211296916E+03  0.15294330000E+03 0.  0.
<mgrwt>
<rscale>  0 0.63266303E+03</rscale>
<asrwt>0</asrwt>
<pdfrwt beam="1">  1        1 0.14491325E+00 0.74705046E+03</pdfrwt>
<pdfrwt beam="2">  1       -1 0.11000606E+00 0.74705046E+03</pdfrwt>
<totfact> 0.13236735E+01</totfact>
</mgrwt>
</event>
<event>
 4    2  0.3179755E-007  0.8019109E+03  0.7818608E-02  0.9706679E-01
          1   -1    0    0  501    0  0.00000000000E+00  0.00000000000E+00  0.15815881344E+04  0.15815881344E+04  0.50400000000E-02 0. -1.
         -1   -1    0    0    0  501 -0.00000000000E+00 -0.00000000000E+00 -0.33421269117E+03  0.33421269121E+03  0.50400000000E-02 0.  1.
    8880023    1    1    2    0    0  0.39282179812E+03 -0.23439694663E+03  0.11830220323E+04  0.14291963577E+04  0.65864270000E+03 0. -1.
    8880022    1    1    2    0    0 -0.39282179812E+03  0.23439694663E+03  0.64353410900E+02  0.48660446789E+03  0.15294330000E+03 0.  0.
<mgrwt>
<rscale>  0 0.70620491E+03</rscale>
<asrwt>0</asrwt>
<pdfrwt beam="1">  1        1 0.24332124E+00 0.80191091E+03</pdfrwt>
<pdfrwt beam="2">  1       -1 0.51417339E-01 0.80191091E+03</pdfrwt>
<totfact> 0.22473664E+01</totfact>
</mgrwt>
</event>
<event>
 4    2  0.3179755E-007  0.6942429E+03  0.7818608E-02  0.1002198E+00
         -1   -1    0    0    0  501 -0.00000000000E+00  0.00000000000E+00  0.14723318266E+03  0.14723318275E+03  0.50400000000E-02 0.  1.
          1   -1    0    0  501    0  0.00000000000E+00 -0.00000000000E+00 -0.34653527064E+04  0.34653527064E+04  0.50400000000E-02 0. -1.
    8880023    1    1    2    0    0  0.49865477914E+02 -0.21372056009E+03 -0.32673774441E+04  0.33403186393E+04  0.65864270000E+03 0. -1.
    8880022    1    1    2    0    0 -0.49865477914E+02  0.21372056009E+03 -0.50742079689E+02  0.27226724989E+03  0.15294330000E+03 0.  0.
<mgrwt>
<rscale>  0 0.54696983E+03</rscale>
<asrwt>0</asrwt>
<pdfrwt beam="1">  1        1 0.53313112E+00 0.69424293E+03</pdfrwt>
<pdfrwt beam="2">  1       -1 0.22651262E-01 0.69424293E+03</pdfrwt>
<totfact> 0.48067565E+00</totfact>
</mgrwt>
</event>
<event>
 4    2  0.3179755E-007  0.6686374E+03  0.7818608E-02  0.1016659E+00
         -1   -1    0    0    0  501 -0.00000000000E+00  0.00000000000E+00  0.16341632316E+03  0.16341632324E+03  0.50400000000E-02 0.  1.
          1   -1    0    0  501    0  0.00000000000E+00 -0.00000000000E+00 -0.11488617324E+04  0.11488617324E+04  0.50400000000E-02 0. -1.
    8880023    1    1    2    0    0  0.11041783926E+02 -0.11464660879E+03 -0.82889573931E+03  0.10649620269E+04  0.65864270000E+03 0. -1.
    8880022    1    1    2    0    0 -0.11041783926E+02  0.11464660879E+03 -0.15654966996E+03  0.24731602876E+03  0.15294330000E+03 0.  0.
<mgrwt>
<rscale>  0 0.48911754E+03</rscale>
<asrwt>0</asrwt>
<pdfrwt beam="1">  1        1 0.17674795E+00 0.66863740E+03</pdfrwt>
<pdfrwt beam="2">  1       -1 0.25140973E-01 0.66863740E+03</pdfrwt>
<totfact> 0.16524829E+02</totfact>
</mgrwt>
</event>
<event>
 4    2  0.3179755E-007  0.7696024E+03  0.7818608E-02  0.9780854E-01
         -1   -1    0    0    0  501 -0.00000000000E+00  0.00000000000E+00  0.51445983993E+03  0.51445983995E+03  0.50400000000E-02 0.  1.
          1   -1    0    0  501    0  0.00000000000E+00 -0.00000000000E+00 -0.20982677457E+04  0.20982677457E+04  0.50400000000E-02 0. -1.
    8880023    1    1    2    0    0  0.39802012489E+03 -0.75874576639E+01 -0.19207668433E+04  0.20692107340E+04  0.65864270000E+03 0.  0.
    8880022    1    1    2    0    0 -0.39802012489E+03  0.75874576639E+01  0.33695893756E+03  0.54351685158E+03  0.15294330000E+03 0.  0.
<mgrwt>
<rscale>  0 0.66400248E+03</rscale>
<asrwt>0</asrwt>
<pdfrwt beam="1">  1        1 0.32281042E+00 0.76960236E+03</pdfrwt>
<pdfrwt beam="2">  1       -1 0.79147669E-01 0.76960236E+03</pdfrwt>
<totfact> 0.42769748E+00</totfact>
</mgrwt>
</event>
<event>
 4    2  0.5042271E-007  0.7555341E+03  0.7818608E-02  0.9816809E-01
         -1   -1    0    0    0  501 -0.00000000000E+00  0.00000000000E+00  0.71679843685E+03  0.71679843686E+03  0.50400000000E-02 0.  1.
          1   -1    0    0  501    0  0.00000000000E+00 -0.00000000000E+00 -0.29733951867E+04  0.29733951867E+04  0.50400000000E-02 0. -1.
    8880023    1    1    2    0    0  0.31018705276E+03 -0.20200400563E+03 -0.28643593197E+04  0.29623278253E+04  0.65864270000E+03 0. -1.
    8880022    1    1    2    0    0 -0.31018705276E+03  0.20200400563E+03  0.60776256983E+03  0.72786579827E+03  0.15294330000E+03 0.  0.
<mgrwt>
<rscale>  0 0.64468209E+03</rscale>
<asrwt>0</asrwt>
<pdfrwt beam="1">  1        1 0.45744541E+00 0.75553414E+03</pdfrwt>
<pdfrwt beam="2">  1       -1 0.11027668E+00 0.75553414E+03</pdfrwt>
<totfact> 0.51222395E-01</totfact>
</mgrwt>
</event>
<event>
 4    2  0.3179755E-007  0.8918573E+03  0.7818608E-02  0.9539232E-01
          1   -1    0    0  501    0  0.00000000000E+00  0.00000000000E+00  0.13271669600E+04  0.13271669600E+04  0.50400000000E-02 0. -1.
         -1   -1    0    0    0  501 -0.00000000000E+00 -0.00000000000E+00 -0.11000028557E+04  0.11000028557E+04  0.50400000000E-02 0.  1.
    8880023    1    1    2    0    0 -0.33118745647E+03 -0.50191050017E+03  0.10621219696E+04  0.13869075550E+04  0.65864270000E+03 0.  0.
    8880022    1    1    2    0    0  0.33118745647E+03  0.50191050017E+03 -0.83495786520E+03  0.10402622608E+04  0.15294330000E+03 0.  0.
<mgrwt>
<rscale>  0 0.81452206E+03</rscale>
<asrwt>0</asrwt>
<pdfrwt beam="1">  1        1 0.20417953E+00 0.89185732E+03</pdfrwt>
<pdfrwt beam="2">  1       -1 0.16923121E+00 0.89185732E+03</pdfrwt>
<totfact> 0.22002171E+00</totfact>
</mgrwt>
</event>
<event>
 4    2  0.3179755E-007  0.8331050E+03  0.7818608E-02  0.9643321E-01
          1   -1    0    0  501    0  0.00000000000E+00  0.00000000000E+00  0.10410588461E+04  0.10410588461E+04  0.50400000000E-02 0. -1.
         -1   -1    0    0    0  501 -0.00000000000E+00 -0.00000000000E+00 -0.75468262370E+03  0.75468262372E+03  0.50400000000E-02 0.  1.
    8880023    1    1    2    0    0  0.32468164174E+03  0.39349159097E+03  0.72607687872E+03  0.11051025476E+04  0.65864270000E+03 0.  0.
    8880022    1    1    2    0    0 -0.32468164174E+03 -0.39349159097E+03 -0.43970065634E+03  0.69063892220E+03  0.15294330000E+03 0.  0.
<mgrwt>
<rscale>  0 0.74494087E+03</rscale>
<asrwt>0</asrwt>
<pdfrwt beam="1">  1        1 0.16016290E+00 0.83310504E+03</pdfrwt>
<pdfrwt beam="2">  1       -1 0.11610502E+00 0.83310504E+03</pdfrwt>
<totfact> 0.96370967E+00</totfact>
</mgrwt>
</event>
<event>
 4    2  0.3179755E-007  0.1490818E+04  0.7818608E-02  0.8916147E-01
         -1   -1    0    0    0  501 -0.00000000000E+00  0.00000000000E+00  0.28267872037E+04  0.28267872037E+04  0.50400000000E-02 0.  1.
          1   -1    0    0  501    0  0.00000000000E+00 -0.00000000000E+00 -0.15069008100E+04  0.15069008100E+04  0.50400000000E-02 0. -1.
    8880023    1    1    2    0    0  0.11461401604E+04  0.68926916755E+03 -0.89716662163E+03  0.17399561505E+04  0.65864270000E+03 0. -1.
    8880022    1    1    2    0    0 -0.11461401604E+04 -0.68926916755E+03  0.22170530153E+04  0.25937318632E+04  0.15294330000E+03 0.  0.
<mgrwt>
<rscale>  0 0.14532554E+04</rscale>
<asrwt>0</asrwt>
<pdfrwt beam="1">  1        1 0.23183090E+00 0.14908184E+04</pdfrwt>
<pdfrwt beam="2">  1       -1 0.43489034E+00 0.14908184E+04</pdfrwt>
<totfact> 0.25215355E-02</totfact>
</mgrwt>
</event>
<event>
 4    2  0.3179755E-007  0.8667095E+03  0.7818608E-02  0.9581738E-01
         -1   -1    0    0    0  501 -0.00000000000E+00  0.00000000000E+00  0.44756969803E+03  0.44756969806E+03  0.50400000000E-02 0.  1.
          1   -1    0    0  501    0  0.00000000000E+00 -0.00000000000E+00 -0.28987442387E+04  0.28987442387E+04  0.50400000000E-02 0. -1.
    8880023    1    1    2    0    0  0.51635440256E+03 -0.22528478421E+03 -0.26027004928E+04  0.27432162081E+04  0.65864270000E+03 0.  0.
    8880022    1    1    2    0    0 -0.51635440256E+03  0.22528478421E+03  0.15152595218E+03  0.60309772860E+03  0.15294330000E+03 0.  0.
<mgrwt>
<rscale>  0 0.78516749E+03</rscale>
<asrwt>0</asrwt>
<pdfrwt beam="1">  1        1 0.44596064E+00 0.86670947E+03</pdfrwt>
<pdfrwt beam="2">  1       -1 0.68856878E-01 0.86670947E+03</pdfrwt>
<totfact> 0.15854429E+00</totfact>
</mgrwt>
</event>
<event>
 4    2  0.3179755E-007  0.7024298E+03  0.7818608E-02  0.9987267E-01
         -1   -1    0    0    0  501 -0.00000000000E+00  0.00000000000E+00  0.51546231602E+03  0.51546231605E+03  0.50400000000E-02 0.  1.
          1   -1    0    0  501    0  0.00000000000E+00 -0.00000000000E+00 -0.22880780786E+04  0.22880780786E+04  0.50400000000E-02 0. -1.
    8880023    1    1    2    0    0 -0.24256168646E+03 -0.27590378666E+02 -0.21880275991E+04  0.22980148784E+04  0.65864270000E+03 0. -1.
    8880022    1    1    2    0    0  0.24256168646E+03  0.27590378666E+02  0.41541183647E+03  0.50552551630E+03  0.15294330000E+03 0.  0.
<mgrwt>
<rscale>  0 0.56212098E+03</rscale>
<asrwt>0</asrwt>
<pdfrwt beam="1">  1        1 0.35201201E+00 0.70242979E+03</pdfrwt>
<pdfrwt beam="2">  1       -1 0.79301896E-01 0.70242979E+03</pdfrwt>
<totfact> 0.32171213E+00</totfact>
</mgrwt>
</event>
<event>
 4    2  0.3179755E-007  0.6622052E+03  0.7818608E-02  0.1022003E+00
         -1   -1    0    0    0  501 -0.00000000000E+00  0.00000000000E+00  0.59912233216E+03  0.59912233218E+03  0.50400000000E-02 0.  1.
          1   -1    0    0  501    0  0.00000000000E+00 -0.00000000000E+00 -0.76583945075E+03  0.76583945076E+03  0.50400000000E-02 0. -1.
    8880023    1    1    2    0    0 -0.44613645480E+02  0.52107031746E+02 -0.60422693467E+03  0.89644069238E+03  0.65864270000E+03 0. -1.
    8880022    1    1    2    0    0  0.44613645480E+02 -0.52107031746E+02  0.43750981608E+03  0.46852109056E+03  0.15294330000E+03 0.  0.
<mgrwt>
<rscale>  0 0.46970726E+03</rscale>
<asrwt>0</asrwt>
<pdfrwt beam="1">  1        1 0.11782145E+00 0.66220520E+03</pdfrwt>
<pdfrwt beam="2">  1       -1 0.92172666E-01 0.66220520E+03</pdfrwt>
<totfact> 0.28129911E+01</totfact>
</mgrwt>
</event>
<event>
 4    2  0.3179755E-007  0.7390773E+03  0.7818608E-02  0.9862643E-01
         -1   -1    0    0    0  501 -0.00000000000E+00  0.00000000000E+00  0.21039739691E+03  0.21039739697E+03  0.50400000000E-02 0.  1.
          1   -1    0    0  501    0  0.00000000000E+00 -0.00000000000E+00 -0.26932715388E+04  0.26932715388E+04  0.50400000000E-02 0. -1.
    8880023    1    1    2    0    0 -0.33524871946E+03 -0.57731231498E+01 -0.24193242620E+04  0.25296966466E+04  0.65864270000E+03 0. -1.
    8880022    1    1    2    0    0  0.33524871946E+03  0.57731231498E+01 -0.63549879938E+02  0.37397228922E+03  0.15294330000E+03 0.  0.
<mgrwt>
<rscale>  0 0.62106425E+03</rscale>
<asrwt>0</asrwt>
<pdfrwt beam="1">  1        1 0.41434944E+00 0.73907729E+03</pdfrwt>
<pdfrwt beam="2">  1       -1 0.32368832E-01 0.73907729E+03</pdfrwt>
<totfact> 0.93742079E+00</totfact>
</mgrwt>
</event>
<event>
 4    2  0.3179755E-007  0.6826147E+03  0.7818608E-02  0.1007882E+00
         -1   -1    0    0    0  501 -0.00000000000E+00  0.00000000000E+00  0.94924840586E+02  0.94924840719E+02  0.50400000000E-02 0.  1.
          1   -1    0    0  501    0  0.00000000000E+00 -0.00000000000E+00 -0.26536468117E+04  0.26536468117E+04  0.50400000000E-02 0. -1.
    8880023    1    1    2    0    0 -0.14841825476E+03  0.10062127227E+03 -0.22974256462E+04  0.23966909322E+04  0.65864270000E+03 0. -1.
    8880022    1    1    2    0    0  0.14841825476E+03 -0.10062127227E+03 -0.26129632490E+03  0.35188072013E+03  0.15294330000E+03 0.  0.
<mgrwt>
<rscale>  0 0.52325289E+03</rscale>
<asrwt>0</asrwt>
<pdfrwt beam="1">  1        1 0.40825330E+00 0.68261470E+03</pdfrwt>
<pdfrwt beam="2">  1       -1 0.14603824E-01 0.68261470E+03</pdfrwt>
<totfact> 0.38443691E+01</totfact>
</mgrwt>
</event>
<event>
 4    2  0.3179755E-007  0.8197330E+03  0.7818608E-02  0.9669649E-01
         -1   -1    0    0    0  501 -0.00000000000E+00  0.00000000000E+00  0.38628681598E+03  0.38628681601E+03  0.50400000000E-02 0.  1.
          1   -1    0    0  501    0  0.00000000000E+00 -0.00000000000E+00 -0.35911922045E+04  0.35911922045E+04  0.50400000000E-02 0. -1.
    8880023    1    1    2    0    0 -0.48466284776E+03  0.57043738946E+02 -0.33476222339E+04  0.34465253360E+04  0.65864270000E+03 0. -1.
    8880022    1    1    2    0    0  0.48466284776E+03 -0.57043738946E+02  0.14271684540E+03  0.53095368454E+03  0.15294330000E+03 0.  0.
<mgrwt>
<rscale>  0 0.72852988E+03</rscale>
<asrwt>0</asrwt>
<pdfrwt beam="1">  1        1 0.55249109E+00 0.81973305E+03</pdfrwt>
<pdfrwt beam="2">  1       -1 0.59428743E-01 0.81973305E+03</pdfrwt>
<totfact> 0.65513153E-01</totfact>
</mgrwt>
</event>
<event>
 4    2  0.3179755E-007  0.1006327E+04  0.7818608E-02  0.9373327E-01
         -1   -1    0    0    0  501 -0.00000000000E+00  0.00000000000E+00  0.10561847736E+04  0.10561847736E+04  0.50400000000E-02 0.  1.
          1   -1    0    0  501    0  0.00000000000E+00 -0.00000000000E+00 -0.15827608165E+04  0.15827608165E+04  0.50400000000E-02 0. -1.
    8880023    1    1    2    0    0  0.15922624344E+03  0.74399593115E+03 -0.12316030633E+04  0.15904525312E+04  0.65864270000E+03 0. -1.
    8880022    1    1    2    0    0 -0.15922624344E+03 -0.74399593115E+03  0.70502702036E+03  0.10484930589E+04  0.15294330000E+03 0.  0.
<mgrwt>
<rscale>  0 0.94303654E+03</rscale>
<asrwt>0</asrwt>
<pdfrwt beam="1">  1        1 0.24350166E+00 0.10063266E+04</pdfrwt>
<pdfrwt beam="2">  1       -1 0.16248997E+00 0.10063266E+04</pdfrwt>
<totfact> 0.16138331E+00</totfact>
</mgrwt>
</event>
<event>
 4    2  0.3179755E-007  0.6755879E+03  0.7818608E-02  0.1011938E+00
          1   -1    0    0  501    0  0.00000000000E+00  0.00000000000E+00  0.76990505113E+03  0.76990505115E+03  0.50400000000E-02 0. -1.
         -1   -1    0    0    0  501 -0.00000000000E+00 -0.00000000000E+00 -0.54359511317E+03  0.54359511319E+03  0.50400000000E-02 0.  1.
    8880023    1    1    2    0    0  0.14200664810E+03  0.49426148243E+02  0.58626117253E+03  0.89449494180E+03  0.65864270000E+03 0. -1.
    8880022    1    1    2    0    0 -0.14200664810E+03 -0.49426148243E+02 -0.35995123457E+03  0.41900522254E+03  0.15294330000E+03 0.  0.
<mgrwt>
<rscale>  0 0.50711529E+03</rscale>
<asrwt>0</asrwt>
<pdfrwt beam="1">  1        1 0.11844693E+00 0.67558792E+03</pdfrwt>
<pdfrwt beam="2">  1       -1 0.83630018E-01 0.67558792E+03</pdfrwt>
<totfact> 0.34428115E+01</totfact>
</mgrwt>
</event>
<event>
 4    2  0.3179755E-007  0.6902863E+03  0.7818608E-02  0.1004017E+00
          1   -1    0    0  501    0  0.00000000000E+00  0.00000000000E+00  0.82221325265E+03  0.82221325267E+03  0.50400000000E-02 0. -1.
         -1   -1    0    0    0  501 -0.00000000000E+00 -0.00000000000E+00 -0.67777791029E+03  0.67777791031E+03  0.50400000000E-02 0.  1.
    8880023    1    1    2    0    0 -0.12485831017E+03 -0.16460692739E+03  0.64025435799E+03  0.94149927634E+03  0.65864270000E+03 0. -1.
    8880022    1    1    2    0    0  0.12485831017E+03  0.16460692739E+03 -0.49581901563E+03  0.55849188663E+03  0.15294330000E+03 0.  0.
<mgrwt>
<rscale>  0 0.53923491E+03</rscale>
<asrwt>0</asrwt>
<pdfrwt beam="1">  1        1 0.12649435E+00 0.69028635E+03</pdfrwt>
<pdfrwt beam="2">  1       -1 0.10427353E+00 0.69028635E+03</pdfrwt>
<totfact> 0.18951386E+01</totfact>
</mgrwt>
</event>
<event>
 4    2  0.3179755E-007  0.7343679E+03  0.7818608E-02  0.9876667E-01
          1   -1    0    0  501    0  0.00000000000E+00  0.00000000000E+00  0.24084101651E+04  0.24084101651E+04  0.50400000000E-02 0. -1.
         -1   -1    0    0    0  501 -0.00000000000E+00 -0.00000000000E+00 -0.16390175654E+03  0.16390175662E+03  0.50400000000E-02 0.  1.
    8880023    1    1    2    0    0  0.32286119960E+03 -0.35307352053E+02  0.20188924811E+04  0.21483070125E+04  0.65864270000E+03 0. -1.
    8880022    1    1    2    0    0 -0.32286119960E+03  0.35307352053E+02  0.22561592739E+03  0.42400490920E+03  0.15294330000E+03 0.  0.
<mgrwt>
<rscale>  0 0.61405523E+03</rscale>
<asrwt>0</asrwt>
<pdfrwt beam="1">  1        1 0.37052464E+00 0.73436787E+03</pdfrwt>
<pdfrwt beam="2">  1       -1 0.25215655E-01 0.73436787E+03</pdfrwt>
<totfact> 0.22666459E+01</totfact>
</mgrwt>
</event>
<event>
 4    2  0.3179755E-007  0.7741583E+03  0.7818608E-02  0.9769743E-01
         -1   -1    0    0    0  501 -0.00000000000E+00  0.00000000000E+00  0.19944596182E+03  0.19944596188E+03  0.50400000000E-02 0.  1.
          1   -1    0    0  501    0  0.00000000000E+00 -0.00000000000E+00 -0.19937473749E+04  0.19937473749E+04  0.50400000000E-02 0. -1.
    8880023    1    1    2    0    0  0.79192755993E+02  0.39904808888E+03 -0.14298879364E+04  0.16260075605E+04  0.65864270000E+03 0. -1.
    8880022    1    1    2    0    0 -0.79192755993E+02 -0.39904808888E+03 -0.36441347671E+03  0.56718577632E+03  0.15294330000E+03 0.  1.
<mgrwt>
<rscale>  0 0.67011918E+03</rscale>
<asrwt>0</asrwt>
<pdfrwt beam="1">  1        1 0.30673035E+00 0.77415830E+03</pdfrwt>
<pdfrwt beam="2">  1       -1 0.30683995E-01 0.77415830E+03</pdfrwt>
<totfact> 0.30516882E+01</totfact>
</mgrwt>
</event>
<event>
 4    2  0.3179755E-007  0.6870434E+03  0.7818608E-02  0.1005591E+00
         -1   -1    0    0    0  501 -0.00000000000E+00  0.00000000000E+00  0.21739926472E+03  0.21739926478E+03  0.50400000000E-02 0.  1.
          1   -1    0    0  501    0  0.00000000000E+00 -0.00000000000E+00 -0.12069434131E+04  0.12069434131E+04  0.50400000000E-02 0. -1.
    8880023    1    1    2    0    0 -0.68291882444E+02  0.18317936577E+03 -0.95090955098E+03  0.11731400776E+04  0.65864270000E+03 0.  0.
    8880022    1    1    2    0    0  0.68291882444E+02 -0.18317936577E+03 -0.38634597367E+02  0.25120260027E+03  0.15294330000E+03 0.  0.
<mgrwt>
<rscale>  0 0.53265333E+03</rscale>
<asrwt>0</asrwt>
<pdfrwt beam="1">  1        1 0.18568360E+00 0.68704342E+03</pdfrwt>
<pdfrwt beam="2">  1       -1 0.33446041E-01 0.68704342E+03</pdfrwt>
<totfact> 0.91278852E+01</totfact>
</mgrwt>
</event>
<event>
 4    2  0.3179755E-007  0.1065125E+04  0.7818608E-02  0.9300916E-01
         -1   -1    0    0    0  501 -0.00000000000E+00  0.00000000000E+00  0.18878617820E+04  0.18878617820E+04  0.50400000000E-02 0.  1.
          1   -1    0    0  501    0  0.00000000000E+00 -0.00000000000E+00 -0.56923057699E+03  0.56923057701E+03  0.50400000000E-02 0. -1.
    8880023    1    1    2    0    0 -0.72493574221E+03  0.41850930296E+03  0.11890630251E+04  0.15963592801E+04  0.65864270000E+03 0.  0.
    8880022    1    1    2    0    0  0.72493574221E+03 -0.41850930296E+03  0.12956817989E+03  0.86073307898E+03  0.15294330000E+03 0.  0.
<mgrwt>
<rscale>  0 0.10069859E+04</rscale>
<asrwt>0</asrwt>
<pdfrwt beam="1">  1        1 0.87573938E-01 0.10651254E+04</pdfrwt>
<pdfrwt beam="2">  1       -1 0.29044027E+00 0.10651254E+04</pdfrwt>
<totfact> 0.14135055E+00</totfact>
</mgrwt>
</event>
<event>
 4    2  0.3179755E-007  0.6639036E+03  0.7818608E-02  0.1020472E+00
          1   -1    0    0  501    0  0.00000000000E+00  0.00000000000E+00  0.12906734492E+04  0.12906734492E+04  0.50400000000E-02 0. -1.
         -1   -1    0    0    0  501 -0.00000000000E+00 -0.00000000000E+00 -0.13692386942E+03  0.13692386951E+03  0.50400000000E-02 0.  1.
    8880023    1    1    2    0    0  0.83390846218E+02  0.19311360992E+01  0.95789353091E+03  0.11654732881E+04  0.65864270000E+03 0.  0.
    8880022    1    1    2    0    0 -0.83390846218E+02 -0.19311360992E+01  0.19585604884E+03  0.26212403057E+03  0.15294330000E+03 0. -1.
<mgrwt>
<rscale>  0 0.47516840E+03</rscale>
<asrwt>0</asrwt>
<pdfrwt beam="1">  1        1 0.19856515E+00 0.66390358E+03</pdfrwt>
<pdfrwt beam="2">  1       -1 0.21065210E-01 0.66390358E+03</pdfrwt>
<totfact> 0.17619440E+02</totfact>
</mgrwt>
</event>
<event>
 4    2  0.3179755E-007  0.8851906E+03  0.7818608E-02  0.9550236E-01
          1   -1    0    0  501    0  0.00000000000E+00  0.00000000000E+00  0.27393791125E+04  0.27393791125E+04  0.50400000000E-02 0. -1.
         -1   -1    0    0    0  501 -0.00000000000E+00 -0.00000000000E+00 -0.23251656442E+03  0.23251656448E+03  0.50400000000E-02 0.  1.
    8880023    1    1    2    0    0  0.31742513978E+03 -0.49899237296E+03  0.19656675330E+04  0.21557855098E+04  0.65864270000E+03 0. -1.
    8880022    1    1    2    0    0 -0.31742513978E+03  0.49899237296E+03  0.54119501505E+03  0.81611016717E+03  0.15294330000E+03 0.  0.
<mgrwt>
<rscale>  0 0.80679296E+03</rscale>
<asrwt>0</asrwt>
<pdfrwt beam="1">  1        1 0.42144291E+00 0.88519055E+03</pdfrwt>
<pdfrwt beam="2">  1       -1 0.35771782E-01 0.88519055E+03</pdfrwt>
<totfact> 0.71244388E+00</totfact>
</mgrwt>
</event>
<event>
 4    2  0.3179755E-007  0.8739038E+03  0.7818608E-02  0.9569294E-01
          1   -1    0    0  501    0  0.00000000000E+00  0.00000000000E+00  0.75684998602E+03  0.75684998604E+03  0.50400000000E-02 0. -1.
         -1   -1    0    0    0  501 -0.00000000000E+00 -0.00000000000E+00 -0.91989316832E+03  0.91989316834E+03  0.50400000000E-02 0.  1.
    8880023    1    1    2    0    0  0.54025570068E+03 -0.19499089317E+03  0.29927812207E+03  0.92372900309E+03  0.65864270000E+03 0. -1.
    8880022    1    1    2    0    0 -0.54025570068E+03  0.19499089317E+03 -0.46232130437E+03  0.75301415128E+03  0.15294330000E+03 0.  1.
<mgrwt>
<rscale>  0 0.79362262E+03</rscale>
<asrwt>0</asrwt>
<pdfrwt beam="1">  1        1 0.11643846E+00 0.87390381E+03</pdfrwt>
<pdfrwt beam="2">  1       -1 0.14152202E+00 0.87390381E+03</pdfrwt>
<totfact> 0.99903024E+00</totfact>
</mgrwt>
</event>
<event>
 4    2  0.3179755E-007  0.7253085E+03  0.7818608E-02  0.9905017E-01
         -1   -1    0    0    0  501 -0.00000000000E+00  0.00000000000E+00  0.11045277783E+04  0.11045277783E+04  0.50400000000E-02 0.  1.
          1   -1    0    0  501    0  0.00000000000E+00 -0.00000000000E+00 -0.55928073953E+03  0.55928073956E+03  0.50400000000E-02 0. -1.
    8880023    1    1    2    0    0  0.25926724691E+03  0.15824908457E+03 -0.27512882655E+03  0.77573729803E+03  0.65864270000E+03 0.  0.
    8880022    1    1    2    0    0 -0.25926724691E+03 -0.15824908457E+03  0.82037586533E+03  0.88807121984E+03  0.15294330000E+03 0.  0.
<mgrwt>
<rscale>  0 0.60018777E+03</rscale>
<asrwt>0</asrwt>
<pdfrwt beam="1">  1        1 0.86043191E-01 0.72530854E+03</pdfrwt>
<pdfrwt beam="2">  1       -1 0.16992735E+00 0.72530854E+03</pdfrwt>
<totfact> 0.96513464E+00</totfact>
</mgrwt>
</event>
<event>
 4    2  0.3179755E-007  0.6620267E+03  0.7818608E-02  0.1022170E+00
          1   -1    0    0  501    0  0.00000000000E+00  0.00000000000E+00  0.81586779478E+03  0.81586779479E+03  0.50400000000E-02 0. -1.
         -1   -1    0    0    0  501 -0.00000000000E+00 -0.00000000000E+00 -0.21068376965E+03  0.21068376971E+03  0.50400000000E-02 0.  1.
    8880023    1    1    2    0    0  0.11497214848E+02 -0.65855336997E+02  0.47309518401E+03  0.81369427352E+03  0.65864270000E+03 0.  0.
    8880022    1    1    2    0    0 -0.11497214848E+02  0.65855336997E+02  0.13208884112E+03  0.21285729098E+03  0.15294330000E+03 0.  1.
<mgrwt>
<rscale>  0 0.46911654E+03</rscale>
<asrwt>0</asrwt>
<pdfrwt beam="1">  1        1 0.12551812E+00 0.66202667E+03</pdfrwt>
<pdfrwt beam="2">  1       -1 0.32412887E-01 0.66202667E+03</pdfrwt>
<totfact> 0.19426723E+02</totfact>
</mgrwt>
</event>
<event>
 4    2  0.3179755E-007  0.7622323E+03  0.7818608E-02  0.9799362E-01
         -1   -1    0    0    0  501 -0.00000000000E+00  0.00000000000E+00  0.61008161022E+03  0.61008161024E+03  0.50400000000E-02 0.  1.
          1   -1    0    0  501    0  0.00000000000E+00 -0.00000000000E+00 -0.12446138794E+04  0.12446138794E+04  0.50400000000E-02 0. -1.
    8880023    1    1    2    0    0 -0.26481621891E+03  0.27759725264E+03 -0.10310114557E+04  0.12821788848E+04  0.65864270000E+03 0.  1.
    8880022    1    1    2    0    0  0.26481621891E+03 -0.27759725264E+03  0.39647918655E+03  0.57251660487E+03  0.15294330000E+03 0.  0.
<mgrwt>
<rscale>  0 0.65396781E+03</rscale>
<asrwt>0</asrwt>
<pdfrwt beam="1">  1        1 0.19147906E+00 0.76223229E+03</pdfrwt>
<pdfrwt beam="2">  1       -1 0.93858709E-01 0.76223229E+03</pdfrwt>
<totfact> 0.11266787E+01</totfact>
</mgrwt>
</event>
<event>
 4    2  0.3179755E-007  0.6703388E+03  0.7818608E-02  0.1015421E+00
         -1   -1    0    0    0  501 -0.00000000000E+00  0.00000000000E+00  0.34827436627E+03  0.34827436630E+03  0.50400000000E-02 0.  1.
          1   -1    0    0  501    0  0.00000000000E+00 -0.00000000000E+00 -0.13261264094E+04  0.13261264095E+04  0.50400000000E-02 0. -1.
    8880023    1    1    2    0    0 -0.11449676124E+03  0.49339263449E+02 -0.12016859318E+04  0.13760098678E+04  0.65864270000E+03 0. -1.
    8880022    1    1    2    0    0  0.11449676124E+03 -0.49339263449E+02  0.22383388863E+03  0.29839090798E+03  0.15294330000E+03 0.  0.
<mgrwt>
<rscale>  0 0.49375785E+03</rscale>
<asrwt>0</asrwt>
<pdfrwt beam="1">  1        1 0.20401944E+00 0.67033878E+03</pdfrwt>
<pdfrwt beam="2">  1       -1 0.53580673E-01 0.67033878E+03</pdfrwt>
<totfact> 0.31676293E+01</totfact>
</mgrwt>
</event>
<event>
 4    2  0.3179755E-007  0.6632040E+03  0.7818608E-02  0.1021090E+00
         -1   -1    0    0    0  501 -0.00000000000E+00  0.00000000000E+00  0.13181389082E+03  0.13181389092E+03  0.50400000000E-02 0.  1.
          1   -1    0    0  501    0  0.00000000000E+00 -0.00000000000E+00 -0.25640110757E+04  0.25640110757E+04  0.50400000000E-02 0. -1.
    8880023    1    1    2    0    0  0.38054359702E+02 -0.67684694561E+02 -0.24355859932E+04  0.25242659703E+04  0.65864270000E+03 0. -1.
    8880022    1    1    2    0    0 -0.38054359702E+02  0.67684694561E+02  0.33888083739E+01  0.17155899629E+03  0.15294330000E+03 0.  0.
<mgrwt>
<rscale>  0 0.47295252E+03</rscale>
<asrwt>0</asrwt>
<pdfrwt beam="1">  1        1 0.39446321E+00 0.66320401E+03</pdfrwt>
<pdfrwt beam="2">  1       -1 0.20279062E-01 0.66320401E+03</pdfrwt>
<totfact> 0.25917729E+01</totfact>
</mgrwt>
</event>
<event>
 4    2  0.3179755E-007  0.7434672E+03  0.7818608E-02  0.9849960E-01
         -1   -1    0    0    0  501 -0.00000000000E+00  0.00000000000E+00  0.28651411085E+03  0.28651411090E+03  0.50400000000E-02 0.  1.
          1   -1    0    0  501    0  0.00000000000E+00 -0.00000000000E+00 -0.11908688378E+04  0.11908688378E+04  0.50400000000E-02 0. -1.
    8880023    1    1    2    0    0  0.15240138630E+03 -0.30936571670E+03 -0.39012476360E+03  0.83960756705E+03  0.65864270000E+03 0.  1.
    8880022    1    1    2    0    0 -0.15240138630E+03  0.30936571670E+03 -0.51422996331E+03  0.63777538162E+03  0.15294330000E+03 0. -1.
<mgrwt>
<rscale>  0 0.62748958E+03</rscale>
<asrwt>0</asrwt>
<pdfrwt beam="1">  1        1 0.18321059E+00 0.74346724E+03</pdfrwt>
<pdfrwt beam="2">  1       -1 0.44079095E-01 0.74346724E+03</pdfrwt>
<totfact> 0.56629294E+01</totfact>
</mgrwt>
</event>
<event>
 4    2  0.3179755E-007  0.1104618E+04  0.7818608E-02  0.9255932E-01
         -1   -1    0    0    0  501 -0.00000000000E+00  0.00000000000E+00  0.11716604576E+04  0.11716604576E+04  0.50400000000E-02 0.  1.
          1   -1    0    0  501    0  0.00000000000E+00 -0.00000000000E+00 -0.93538374181E+03  0.93538374182E+03  0.50400000000E-02 0. -1.
    8880023    1    1    2    0    0  0.15994101709E+03 -0.87223282065E+03 -0.17368677455E+03  0.11181898427E+04  0.65864270000E+03 0.  0.
    8880022    1    1    2    0    0 -0.15994101709E+03  0.87223282065E+03  0.40996349030E+03  0.98885435670E+03  0.15294330000E+03 0.  0.
<mgrwt>
<rscale>  0 0.10494310E+04</rscale>
<asrwt>0</asrwt>
<pdfrwt beam="1">  1        1 0.14390519E+00 0.11046182E+04</pdfrwt>
<pdfrwt beam="2">  1       -1 0.18025545E+00 0.11046182E+04</pdfrwt>
<totfact> 0.34986477E+00</totfact>
</mgrwt>
</event>
<event>
 4    2  0.3179755E-007  0.7619949E+03  0.7818608E-02  0.9799970E-01
         -1   -1    0    0    0  501 -0.00000000000E+00  0.00000000000E+00  0.50910735355E+03  0.50910735358E+03  0.50400000000E-02 0.  1.
          1   -1    0    0  501    0  0.00000000000E+00 -0.00000000000E+00 -0.82731645537E+03  0.82731645538E+03  0.50400000000E-02 0. -1.
    8880023    1    1    2    0    0 -0.32827631017E+03  0.19763785106E+03  0.76023132136E+02  0.76577789134E+03  0.65864270000E+03 0. -1.
    8880022    1    1    2    0    0  0.32827631017E+03 -0.19763785106E+03 -0.39423223395E+03  0.57064591761E+03  0.15294330000E+03 0.  0.
<mgrwt>
<rscale>  0 0.65364155E+03</rscale>
<asrwt>0</asrwt>
<pdfrwt beam="1">  1        1 0.12727945E+00 0.76199492E+03</pdfrwt>
<pdfrwt beam="2">  1       -1 0.78324208E-01 0.76199492E+03</pdfrwt>
<totfact> 0.34975102E+01</totfact>
</mgrwt>
</event>
<event>
 4    2  0.3179755E-007  0.8347686E+03  0.7818608E-02  0.9640124E-01
         -1   -1    0    0    0  501 -0.00000000000E+00  0.00000000000E+00  0.32368614148E+03  0.32368614152E+03  0.50400000000E-02 0.  1.
          1   -1    0    0  501    0  0.00000000000E+00 -0.00000000000E+00 -0.26771307176E+04  0.26771307176E+04  0.50400000000E-02 0. -1.
    8880023    1    1    2    0    0  0.49881034935E+03  0.11923362991E+03 -0.23188368525E+04  0.24645167839E+04  0.65864270000E+03 0.  0.
    8880022    1    1    2    0    0 -0.49881034935E+03 -0.11923362991E+03 -0.34607723552E+02  0.53630007521E+03  0.15294330000E+03 0.  0.
<mgrwt>
<rscale>  0 0.74696459E+03</rscale>
<asrwt>0</asrwt>
<pdfrwt beam="1">  1        1 0.41186625E+00 0.83476861E+03</pdfrwt>
<pdfrwt beam="2">  1       -1 0.49797870E-01 0.83476861E+03</pdfrwt>
<totfact> 0.43143185E+00</totfact>
</mgrwt>
</event>
<event>
 4    2  0.3663321E-007  0.6623572E+03  0.7818608E-02  0.1021862E+00
          1   -1    0    0  501    0  0.00000000000E+00  0.00000000000E+00  0.80250433311E+03  0.80250433313E+03  0.50400000000E-02 0. -1.
         -1   -1    0    0    0  501 -0.00000000000E+00 -0.00000000000E+00 -0.10145919186E+04  0.10145919187E+04  0.50400000000E-02 0.  1.
    8880023    1    1    2    0    0 -0.63083779190E+02  0.30451917187E+02  0.65637338555E+03  0.93249295439E+03  0.65864270000E+03 0. -1.
    8880022    1    1    2    0    0  0.63083779190E+02 -0.30451917187E+02 -0.86846097108E+03  0.88460329740E+03  0.15294330000E+03 0.  0.
<mgrwt>
<rscale>  0 0.47020766E+03</rscale>
<asrwt>0</asrwt>
<pdfrwt beam="1">  1        1 0.12346220E+00 0.66235722E+03</pdfrwt>
<pdfrwt beam="2">  1       -1 0.15609107E+00 0.66235722E+03</pdfrwt>
<totfact> 0.72099947E+00</totfact>
</mgrwt>
</event>
<event>
 4    2  0.4720306E-007  0.9523635E+03  0.7818608E-02  0.9446722E-01
          1   -1    0    0  501    0  0.00000000000E+00  0.00000000000E+00  0.19064632724E+04  0.19064632724E+04  0.50400000000E-02 0. -1.
         -1   -1    0    0    0  501 -0.00000000000E+00 -0.00000000000E+00 -0.10854896317E+04  0.10854896317E+04  0.50400000000E-02 0.  1.
    8880023    1    1    2    0    0 -0.53475440544E+03  0.43269350344E+03  0.16492473905E+04  0.19044718700E+04  0.65864270000E+03 0. -1.
    8880022    1    1    2    0    0  0.53475440544E+03 -0.43269350344E+03 -0.82827374976E+03  0.10874810341E+04  0.15294330000E+03 0.  0.
<mgrwt>
<rscale>  0 0.88328414E+03</rscale>
<asrwt>0</asrwt>
<pdfrwt beam="1">  1        1 0.29330204E+00 0.95236345E+03</pdfrwt>
<pdfrwt beam="2">  1       -1 0.16699841E+00 0.95236345E+03</pdfrwt>
<totfact> 0.90932337E-01</totfact>
</mgrwt>
</event>
<event>
 4    2  0.3179755E-007  0.8504450E+03  0.7818608E-02  0.9610791E-01
         -1   -1    0    0    0  501 -0.00000000000E+00  0.00000000000E+00  0.11014646312E+04  0.11014646312E+04  0.50400000000E-02 0.  1.
          1   -1    0    0  501    0  0.00000000000E+00 -0.00000000000E+00 -0.10959067949E+04  0.10959067949E+04  0.50400000000E-02 0. -1.
    8880023    1    1    2    0    0 -0.25126969521E+03  0.47572054097E+03 -0.83231779197E+03  0.11899620187E+04  0.65864270000E+03 0. -1.
    8880022    1    1    2    0    0  0.25126969521E+03 -0.47572054097E+03  0.83787562826E+03  0.10074094075E+04  0.15294330000E+03 0.  0.
<mgrwt>
<rscale>  0 0.76586044E+03</rscale>
<asrwt>0</asrwt>
<pdfrwt beam="1">  1        1 0.16860105E+00 0.85044500E+03</pdfrwt>
<pdfrwt beam="2">  1       -1 0.16945610E+00 0.85044500E+03</pdfrwt>
<totfact> 0.32466145E+00</totfact>
</mgrwt>
</event>
<event>
 4    2  0.3179755E-007  0.6921514E+03  0.7818608E-02  0.1003146E+00
          1   -1    0    0  501    0  0.00000000000E+00  0.00000000000E+00  0.22472995841E+04  0.22472995841E+04  0.50400000000E-02 0. -1.
         -1   -1    0    0    0  501 -0.00000000000E+00 -0.00000000000E+00 -0.25864636828E+03  0.25864636833E+03  0.50400000000E-02 0.  1.
    8880023    1    1    2    0    0 -0.14340381402E+03  0.15715838034E+03  0.21074869371E+04  0.22182368689E+04  0.65864270000E+03 0. -1.
    8880022    1    1    2    0    0  0.14340381402E+03 -0.15715838034E+03 -0.11883372130E+03  0.28770908349E+03  0.15294330000E+03 0.  0.
<mgrwt>
<rscale>  0 0.54291885E+03</rscale>
<asrwt>0</asrwt>
<pdfrwt beam="1">  1        1 0.34573841E+00 0.69215144E+03</pdfrwt>
<pdfrwt beam="2">  1       -1 0.39791748E-01 0.69215144E+03</pdfrwt>
<totfact> 0.13150279E+01</totfact>
</mgrwt>
</event>
<event>
 4    2  0.3179755E-007  0.1161357E+04  0.7818608E-02  0.9195633E-01
          1   -1    0    0  501    0  0.00000000000E+00  0.00000000000E+00  0.22337233924E+04  0.22337233924E+04  0.50400000000E-02 0. -1.
         -1   -1    0    0    0  501 -0.00000000000E+00 -0.00000000000E+00 -0.65647743623E+03  0.65647743625E+03  0.50400000000E-02 0.  1.
    8880023    1    1    2    0    0 -0.72803808134E+03  0.62040413998E+03  0.15293675955E+04  0.19203427281E+04  0.65864270000E+03 0.  0.
    8880022    1    1    2    0    0  0.72803808134E+03 -0.62040413998E+03  0.47878360632E+02  0.96985810056E+03  0.15294330000E+03 0.  0.
<mgrwt>
<rscale>  0 0.11098620E+04</rscale>
<asrwt>0</asrwt>
<pdfrwt beam="1">  1        1 0.34364975E+00 0.11613574E+04</pdfrwt>
<pdfrwt beam="2">  1       -1 0.10099653E+00 0.11613574E+04</pdfrwt>
<totfact> 0.19103222E+00</totfact>
</mgrwt>
</event>
<event>
 4    2  0.3179755E-007  0.8837677E+03  0.7818608E-02  0.9552609E-01
         -1   -1    0    0    0  501 -0.00000000000E+00  0.00000000000E+00  0.49751164795E+03  0.49751164797E+03  0.50400000000E-02 0.  1.
          1   -1    0    0  501    0  0.00000000000E+00 -0.00000000000E+00 -0.22590548774E+04  0.22590548774E+04  0.50400000000E-02 0. -1.
    8880023    1    1    2    0    0 -0.29986722112E+03  0.50726197633E+03 -0.19318494223E+04  0.21244028478E+04  0.65864270000E+03 0. -1.
    8880022    1    1    2    0    0  0.29986722112E+03 -0.50726197633E+03  0.17030619286E+03  0.63216367759E+03  0.15294330000E+03 0.  1.
<mgrwt>
<rscale>  0 0.80513864E+03</rscale>
<asrwt>0</asrwt>
<pdfrwt beam="1">  1        1 0.34754690E+00 0.88376766E+03</pdfrwt>
<pdfrwt beam="2">  1       -1 0.76540254E-01 0.88376766E+03</pdfrwt>
<totfact> 0.35112993E+00</totfact>
</mgrwt>
</event>
<event>
 4    2  0.3179755E-007  0.6885255E+03  0.7818608E-02  0.1004861E+00
          1   -1    0    0  501    0  0.00000000000E+00  0.00000000000E+00  0.12008704128E+04  0.12008704128E+04  0.50400000000E-02 0. -1.
         -1   -1    0    0    0  501 -0.00000000000E+00 -0.00000000000E+00 -0.42833535782E+03  0.42833535785E+03  0.50400000000E-02 0.  1.
    8880023    1    1    2    0    0 -0.12618724633E+03 -0.15599326203E+03  0.10490970045E+04  0.12548592949E+04  0.65864270000E+03 0. -1.
    8880022    1    1    2    0    0  0.12618724633E+03  0.15599326203E+03 -0.27656194954E+03  0.37434647572E+03  0.15294330000E+03 0.  0.
<mgrwt>
<rscale>  0 0.53569027E+03</rscale>
<asrwt>0</asrwt>
<pdfrwt beam="1">  1        1 0.18474929E+00 0.68852547E+03</pdfrwt>
<pdfrwt beam="2">  1       -1 0.65897749E-01 0.68852547E+03</pdfrwt>
<totfact> 0.25842798E+01</totfact>
</mgrwt>
</event>
<event>
 4    2  0.3179755E-007  0.7164460E+03  0.7818608E-02  0.9934800E-01
         -1   -1    0    0    0  501 -0.00000000000E+00  0.00000000000E+00  0.18979955513E+03  0.18979955520E+03  0.50400000000E-02 0.  1.
          1   -1    0    0  501    0  0.00000000000E+00 -0.00000000000E+00 -0.16177448238E+04  0.16177448239E+04  0.50400000000E-02 0. -1.
    8880023    1    1    2    0    0  0.21546178468E+03 -0.18182638052E+03 -0.12499594002E+04  0.14407266645E+04  0.65864270000E+03 0.  1.
    8880022    1    1    2    0    0 -0.21546178468E+03  0.18182638052E+03 -0.17798586847E+03  0.36681771454E+03  0.15294330000E+03 0. -1.
<mgrwt>
<rscale>  0 0.58603962E+03</rscale>
<asrwt>0</asrwt>
<pdfrwt beam="1">  1        1 0.24888381E+00 0.71644596E+03</pdfrwt>
<pdfrwt beam="2">  1       -1 0.29199933E-01 0.71644596E+03</pdfrwt>
<totfact> 0.59870778E+01</totfact>
</mgrwt>
</event>
<event>
 4    2  0.3179755E-007  0.1046419E+04  0.7818608E-02  0.9323199E-01
          1   -1    0    0  501    0  0.00000000000E+00  0.00000000000E+00  0.10236683900E+04  0.10236683900E+04  0.50400000000E-02 0. -1.
         -1   -1    0    0    0  501 -0.00000000000E+00 -0.00000000000E+00 -0.18746539918E+04  0.18746539918E+04  0.50400000000E-02 0.  1.
    8880023    1    1    2    0    0 -0.80957013628E+03 -0.76017621922E+02  0.61587411925E+03  0.12142049339E+04  0.65864270000E+03 0. -1.
    8880022    1    1    2    0    0  0.80957013628E+03  0.76017621922E+02 -0.14668597210E+04  0.16841174480E+04  0.15294330000E+03 0.  0.
<mgrwt>
<rscale>  0 0.98674917E+03</rscale>
<asrwt>0</asrwt>
<pdfrwt beam="1">  1        1 0.15748745E+00 0.10464190E+04</pdfrwt>
<pdfrwt beam="2">  1       -1 0.28840831E+00 0.10464190E+04</pdfrwt>
<totfact> 0.57247772E-01</totfact>
</mgrwt>
</event>
<event>
 4    2  0.3179755E-007  0.6989619E+03  0.7818608E-02  0.1000154E+00
         -1   -1    0    0    0  501 -0.00000000000E+00  0.00000000000E+00  0.88016690033E+03  0.88016690035E+03  0.50400000000E-02 0.  1.
          1   -1    0    0  501    0  0.00000000000E+00 -0.00000000000E+00 -0.10674691091E+04  0.10674691091E+04  0.50400000000E-02 0. -1.
    8880023    1    1    2    0    0  0.97745874040E+02  0.21256359274E+03 -0.92463885427E+03  0.11590965249E+04  0.65864270000E+03 0.  0.
    8880022    1    1    2    0    0 -0.97745874040E+02 -0.21256359274E+03  0.73733664554E+03  0.78853948457E+03  0.15294330000E+03 0.  1.
<mgrwt>
<rscale>  0 0.55582976E+03</rscale>
<asrwt>0</asrwt>
<pdfrwt beam="1">  1        1 0.16422602E+00 0.69896190E+03</pdfrwt>
<pdfrwt beam="2">  1       -1 0.13541029E+00 0.69896190E+03</pdfrwt>
<totfact> 0.64032548E+00</totfact>
</mgrwt>
</event>
<event>
 4    2  0.3179755E-007  0.6838476E+03  0.7818608E-02  0.1007226E+00
         -1   -1    0    0    0  501 -0.00000000000E+00  0.00000000000E+00  0.54493913991E+03  0.54493913993E+03  0.50400000000E-02 0.  1.
          1   -1    0    0  501    0  0.00000000000E+00 -0.00000000000E+00 -0.44614340259E+03  0.44614340262E+03  0.50400000000E-02 0. -1.
    8880023    1    1    2    0    0  0.15025273537E+03 -0.10612028906E+03 -0.85400953473E+02  0.68915958192E+03  0.65864270000E+03 0.  0.
    8880022    1    1    2    0    0 -0.15025273537E+03  0.10612028906E+03  0.18419669079E+03  0.30192296062E+03  0.15294330000E+03 0.  0.
<mgrwt>
<rscale>  0 0.52592230E+03</rscale>
<asrwt>0</asrwt>
<pdfrwt beam="1">  1        1 0.68637447E-01 0.68384765E+03</pdfrwt>
<pdfrwt beam="2">  1       -1 0.83836790E-01 0.68384765E+03</pdfrwt>
<totfact> 0.74846335E+01</totfact>
</mgrwt>
</event>
<event>
 4    2  0.3179755E-007  0.8620254E+03  0.7818608E-02  0.9589971E-01
         -1   -1    0    0    0  501 -0.00000000000E+00  0.00000000000E+00  0.11050976347E+04  0.11050976347E+04  0.50400000000E-02 0.  1.
          1   -1    0    0  501    0  0.00000000000E+00 -0.00000000000E+00 -0.58645515509E+03  0.58645515511E+03  0.50400000000E-02 0. -1.
    8880023    1    1    2    0    0 -0.52796417929E+03 -0.17473240402E+03  0.67397701052E+03  0.10942270352E+04  0.65864270000E+03 0.  0.
    8880022    1    1    2    0    0  0.52796417929E+03  0.17473240402E+03 -0.15533453089E+03  0.59732575462E+03  0.15294330000E+03 0.  0.
<mgrwt>
<rscale>  0 0.77963554E+03</rscale>
<asrwt>0</asrwt>
<pdfrwt beam="1">  1        1 0.90223870E-01 0.86202540E+03</pdfrwt>
<pdfrwt beam="2">  1       -1 0.17001502E+00 0.86202540E+03</pdfrwt>
<totfact> 0.88598735E+00</totfact>
</mgrwt>
</event>
<event>
 4    2  0.3179755E-007  0.1286843E+04  0.7818608E-02  0.9077006E-01
         -1   -1    0    0    0  501 -0.00000000000E+00  0.00000000000E+00  0.19879333496E+04  0.19879333496E+04  0.50400000000E-02 0.  1.
          1   -1    0    0  501    0  0.00000000000E+00 -0.00000000000E+00 -0.10457018321E+04  0.10457018321E+04  0.50400000000E-02 0. -1.
    8880023    1    1    2    0    0 -0.83630479045E+03  0.72301400569E+03 -0.34270254200E+03  0.13316944820E+04  0.65864270000E+03 0.  0.
    8880022    1    1    2    0    0  0.83630479045E+03 -0.72301400569E+03  0.12849340595E+04  0.17019406997E+04  0.15294330000E+03 0.  0.
<mgrwt>
<rscale>  0 0.12418359E+04</rscale>
<asrwt>0</asrwt>
<pdfrwt beam="1">  1        1 0.16087721E+00 0.12868431E+04</pdfrwt>
<pdfrwt beam="2">  1       -1 0.30583590E+00 0.12868431E+04</pdfrwt>
<totfact> 0.41125709E-01</totfact>
</mgrwt>
</event>
<event>
 4    2  0.3179755E-007  0.8271941E+03  0.7818608E-02  0.9654817E-01
          1   -1    0    0  501    0  0.00000000000E+00  0.00000000000E+00  0.16319041745E+04  0.16319041745E+04  0.50400000000E-02 0. -1.
         -1   -1    0    0    0  501 -0.00000000000E+00 -0.00000000000E+00 -0.63883067306E+03  0.63883067308E+03  0.50400000000E-02 0.  1.
    8880023    1    1    2    0    0 -0.11036458078E+03 -0.48811833901E+03  0.13875548198E+04  0.16154127763E+04  0.65864270000E+03 0. -1.
    8880022    1    1    2    0    0  0.11036458078E+03  0.48811833901E+03 -0.39448131837E+03  0.65532207130E+03  0.15294330000E+03 0.  0.
<mgrwt>
<rscale>  0 0.73771904E+03</rscale>
<asrwt>0</asrwt>
<pdfrwt beam="1">  1        1 0.25106218E+00 0.82719409E+03</pdfrwt>
<pdfrwt beam="2">  1       -1 0.98281643E-01 0.82719409E+03</pdfrwt>
<totfact> 0.54227610E+00</totfact>
</mgrwt>
</event>
<event>
 4    2  0.3179755E-007  0.9647477E+03  0.7818608E-02  0.9429205E-01
          1   -1    0    0  501    0  0.00000000000E+00  0.00000000000E+00  0.13777990882E+04  0.13777990882E+04  0.50400000000E-02 0. -1.
         -1   -1    0    0    0  501 -0.00000000000E+00 -0.00000000000E+00 -0.53176194047E+03  0.53176194050E+03  0.50400000000E-02 0.  1.
    8880023    1    1    2    0    0 -0.60463109117E+03  0.36242126172E+03  0.31869658542E+03  0.10160244324E+04  0.65864270000E+03 0.  0.
    8880022    1    1    2    0    0  0.60463109117E+03 -0.36242126172E+03  0.52734056234E+03  0.89353659637E+03  0.15294330000E+03 0.  0.
<mgrwt>
<rscale>  0 0.89710667E+03</rscale>
<asrwt>0</asrwt>
<pdfrwt beam="1">  1        1 0.21196909E+00 0.96474770E+03</pdfrwt>
<pdfrwt beam="2">  1       -1 0.81809529E-01 0.96474770E+03</pdfrwt>
<totfact> 0.11945528E+01</totfact>
</mgrwt>
</event>
<event>
 4    2  0.3179755E-007  0.7272259E+03  0.7818608E-02  0.9898854E-01
          1   -1    0    0  501    0  0.00000000000E+00  0.00000000000E+00  0.30902536520E+03  0.30902536524E+03  0.50400000000E-02 0. -1.
         -1   -1    0    0    0  501 -0.00000000000E+00 -0.00000000000E+00 -0.95541856537E+03  0.95541856538E+03  0.50400000000E-02 0.  1.
    8880023    1    1    2    0    0  0.56645103181E+02 -0.30304897874E+03 -0.33639257653E+03  0.80125995971E+03  0.65864270000E+03 0. -1.
    8880022    1    1    2    0    0 -0.56645103181E+02  0.30304897874E+03 -0.31000062364E+03  0.46318397091E+03  0.15294330000E+03 0.  1.
<mgrwt>
<rscale>  0 0.60316879E+03</rscale>
<asrwt>0</asrwt>
<pdfrwt beam="1">  1        1 0.47542364E-01 0.72722593E+03</pdfrwt>
<pdfrwt beam="2">  1       -1 0.14698747E+00 0.72722593E+03</pdfrwt>
<totfact> 0.31845531E+01</totfact>
</mgrwt>
</event>
<event>
 4    2  0.3179755E-007  0.7624491E+03  0.7818608E-02  0.9798808E-01
          1   -1    0    0  501    0  0.00000000000E+00  0.00000000000E+00  0.45555306683E+03  0.45555306686E+03  0.50400000000E-02 0. -1.
         -1   -1    0    0    0  501 -0.00000000000E+00 -0.00000000000E+00 -0.14597083613E+04  0.14597083613E+04  0.50400000000E-02 0.  1.
    8880023    1    1    2    0    0  0.32731163678E+03 -0.20096163464E+03  0.68672538150E+02  0.76553550533E+03  0.65864270000E+03 0. -1.
    8880022    1    1    2    0    0 -0.32731163678E+03  0.20096163464E+03 -0.10728278326E+04  0.11497259228E+04  0.15294330000E+03 0.  0.
<mgrwt>
<rscale>  0 0.65426568E+03</rscale>
<asrwt>0</asrwt>
<pdfrwt beam="1">  1        1 0.70085088E-01 0.76244914E+03</pdfrwt>
<pdfrwt beam="2">  1       -1 0.22457052E+00 0.76244914E+03</pdfrwt>
<totfact> 0.53477212E+00</totfact>
</mgrwt>
</event>
<event>
 4    2  0.3179755E-007  0.7858628E+03  0.7818608E-02  0.9742241E-01
          1   -1    0    0  501    0  0.00000000000E+00  0.00000000000E+00  0.43406007530E+03  0.43406007533E+03  0.50400000000E-02 0. -1.
         -1   -1    0    0    0  501 -0.00000000000E+00 -0.00000000000E+00 -0.18917347749E+04  0.18917347749E+04  0.50400000000E-02 0.  1.
    8880023    1    1    2    0    0 -0.42844757547E+03 -0.14238862341E+02  0.13338731414E+02  0.78597595265E+03  0.65864270000E+03 0. -1.
    8880022    1    1    2    0    0  0.42844757547E+03  0.14238862341E+02 -0.14710134310E+04  0.15398188975E+04  0.15294330000E+03 0.  0.
<mgrwt>
<rscale>  0 0.68556513E+03</rscale>
<asrwt>0</asrwt>
<pdfrwt beam="1">  1        1 0.66778474E-01 0.78586276E+03</pdfrwt>
<pdfrwt beam="2">  1       -1 0.29103612E+00 0.78586276E+03</pdfrwt>
<totfact> 0.21189489E+00</totfact>
</mgrwt>
</event>
<event>
 4    2  0.3179755E-007  0.7045225E+03  0.7818608E-02  0.9978933E-01
         -1   -1    0    0    0  501 -0.00000000000E+00  0.00000000000E+00  0.23239179579E+03  0.23239179584E+03  0.50400000000E-02 0.  1.
          1   -1    0    0  501    0  0.00000000000E+00 -0.00000000000E+00 -0.23555221617E+04  0.23555221617E+04  0.50400000000E-02 0. -1.
    8880023    1    1    2    0    0 -0.34869050954E+02 -0.24764073065E+03 -0.21784985428E+04  0.22895868381E+04  0.65864270000E+03 0. -1.
    8880022    1    1    2    0    0  0.34869050954E+02  0.24764073065E+03  0.55368176808E+02  0.29832711947E+03  0.15294330000E+03 0.  0.
<mgrwt>
<rscale>  0 0.56583712E+03</rscale>
<asrwt>0</asrwt>
<pdfrwt beam="1">  1        1 0.36238801E+00 0.70452253E+03</pdfrwt>
<pdfrwt beam="2">  1       -1 0.35752586E-01 0.70452253E+03</pdfrwt>
<totfact> 0.13452629E+01</totfact>
</mgrwt>
</event>
<event>
 4    2  0.3179755E-007  0.7915510E+03  0.7818608E-02  0.9729371E-01
         -1   -1    0    0    0  501 -0.00000000000E+00  0.00000000000E+00  0.10430680685E+04  0.10430680685E+04  0.50400000000E-02 0.  1.
          1   -1    0    0  501    0  0.00000000000E+00 -0.00000000000E+00 -0.60234208344E+03  0.60234208346E+03  0.50400000000E-02 0. -1.
    8880023    1    1    2    0    0  0.30881325856E+03  0.31205304724E+03 -0.23455276463E+03  0.82557128015E+03  0.65864270000E+03 0.  0.
    8880022    1    1    2    0    0 -0.30881325856E+03 -0.31205304724E+03  0.67527874970E+03  0.81983887183E+03  0.15294330000E+03 0.  0.
<mgrwt>
<rscale>  0 0.69294641E+03</rscale>
<asrwt>0</asrwt>
<pdfrwt beam="1">  1        1 0.92668013E-01 0.79155097E+03</pdfrwt>
<pdfrwt beam="2">  1       -1 0.16047201E+00 0.79155097E+03</pdfrwt>
<totfact> 0.10119546E+01</totfact>
</mgrwt>
</event>
<event>
 4    2  0.3179755E-007  0.9959358E+03  0.7818608E-02  0.9386894E-01
         -1   -1    0    0    0  501 -0.00000000000E+00  0.00000000000E+00  0.82753988504E+03  0.82753988506E+03  0.50400000000E-02 0.  1.
          1   -1    0    0  501    0  0.00000000000E+00 -0.00000000000E+00 -0.15344718826E+04  0.15344718826E+04  0.50400000000E-02 0. -1.
    8880023    1    1    2    0    0 -0.68104773495E+03 -0.30700466283E+03 -0.11167385463E+04  0.14963265243E+04  0.65864270000E+03 0.  0.
    8880022    1    1    2    0    0  0.68104773495E+03  0.30700466283E+03  0.40980654870E+03  0.86568524341E+03  0.15294330000E+03 0.  0.
<mgrwt>
<rscale>  0 0.93162122E+03</rscale>
<asrwt>0</asrwt>
<pdfrwt beam="1">  1        1 0.23607260E+00 0.99593578E+03</pdfrwt>
<pdfrwt beam="2">  1       -1 0.12731383E+00 0.99593578E+03</pdfrwt>
<totfact> 0.33304505E+00</totfact>
</mgrwt>
</event>
<event>
 4    2  0.3179755E-007  0.1122006E+04  0.7818608E-02  0.9236942E-01
          1   -1    0    0  501    0  0.00000000000E+00  0.00000000000E+00  0.11853821206E+04  0.11853821206E+04  0.50400000000E-02 0. -1.
         -1   -1    0    0    0  501 -0.00000000000E+00 -0.00000000000E+00 -0.10843475758E+04  0.10843475758E+04  0.50400000000E-02 0.  1.
    8880023    1    1    2    0    0 -0.32494585301E+03 -0.84823132528E+03  0.54480056724E+03  0.12472786589E+04  0.65864270000E+03 0.  0.
    8880022    1    1    2    0    0  0.32494585301E+03  0.84823132528E+03 -0.44376602244E+03  0.10224510376E+04  0.15294330000E+03 0.  0.
<mgrwt>
<rscale>  0 0.10680124E+04</rscale>
<asrwt>0</asrwt>
<pdfrwt beam="1">  1        1 0.18236648E+00 0.11220055E+04</pdfrwt>
<pdfrwt beam="2">  1       -1 0.16682270E+00 0.11220055E+04</pdfrwt>
<totfact> 0.28138919E+00</totfact>
</mgrwt>
</event>
<event>
 4    2  0.3179755E-007  0.6649772E+03  0.7818608E-02  0.1019553E+00
         -1   -1    0    0    0  501 -0.00000000000E+00  0.00000000000E+00  0.25475259472E+04  0.25475259472E+04  0.50400000000E-02 0.  1.
          1   -1    0    0  501    0  0.00000000000E+00 -0.00000000000E+00 -0.17482206319E+03  0.17482206327E+03  0.50400000000E-02 0. -1.
    8880023    1    1    2    0    0 -0.64678476320E+02 -0.64816667281E+02  0.47720602093E+03  0.81848659019E+03  0.65864270000E+03 0. -1.
    8880022    1    1    2    0    0  0.64678476320E+02  0.64816667281E+02  0.18954978630E+04  0.19038614202E+04  0.15294330000E+03 0.  0.
<mgrwt>
<rscale>  0 0.47848437E+03</rscale>
<asrwt>0</asrwt>
<pdfrwt beam="1">  1        1 0.26895701E-01 0.66497723E+03</pdfrwt>
<pdfrwt beam="2">  1       -1 0.39192708E+00 0.66497723E+03</pdfrwt>
<totfact> 0.15542673E+00</totfact>
</mgrwt>
</event>
<event>
 4    2  0.3179755E-007  0.9402680E+03  0.7818608E-02  0.9464257E-01
         -1   -1    0    0    0  501 -0.00000000000E+00  0.00000000000E+00  0.56808996400E+03  0.56808996402E+03  0.50400000000E-02 0.  1.
          1   -1    0    0  501    0  0.00000000000E+00 -0.00000000000E+00 -0.12002053547E+04  0.12002053547E+04  0.50400000000E-02 0. -1.
    8880023    1    1    2    0    0  0.22779406877E+03 -0.63119223760E+03 -0.21849288156E+03  0.96532021844E+03  0.65864270000E+03 0.  1.
    8880022    1    1    2    0    0 -0.22779406877E+03  0.63119223760E+03 -0.41362250912E+03  0.80297510026E+03  0.15294330000E+03 0. -1.
<mgrwt>
<rscale>  0 0.86971109E+03</rscale>
<asrwt>0</asrwt>
<pdfrwt beam="1">  1        1 0.18464698E+00 0.94026804E+03</pdfrwt>
<pdfrwt beam="2">  1       -1 0.87398456E-01 0.94026804E+03</pdfrwt>
<totfact> 0.13898512E+01</totfact>
</mgrwt>
</event>
<event>
 4    2  0.3179755E-007  0.6688483E+03  0.7818608E-02  0.1016502E+00
         -1   -1    0    0    0  501 -0.00000000000E+00  0.00000000000E+00  0.45607040424E+03  0.45607040427E+03  0.50400000000E-02 0.  1.
          1   -1    0    0  501    0  0.00000000000E+00 -0.00000000000E+00 -0.10017196387E+04  0.10017196387E+04  0.50400000000E-02 0. -1.
    8880023    1    1    2    0    0 -0.11612698851E+03 -0.79013284442E+01 -0.85991671557E+03  0.10894103324E+04  0.65864270000E+03 0. -1.
    8880022    1    1    2    0    0  0.11612698851E+03  0.79013284442E+01  0.31426748110E+03  0.36837971055E+03  0.15294330000E+03 0.  0.
<mgrwt>
<rscale>  0 0.48970238E+03</rscale>
<asrwt>0</asrwt>
<pdfrwt beam="1">  1        1 0.15411071E+00 0.66884835E+03</pdfrwt>
<pdfrwt beam="2">  1       -1 0.70164678E-01 0.66884835E+03</pdfrwt>
<totfact> 0.32101024E+01</totfact>
</mgrwt>
</event>
<event>
 4    2  0.3179755E-007  0.9366956E+03  0.7818608E-02  0.9469520E-01
         -1   -1    0    0    0  501 -0.00000000000E+00  0.00000000000E+00  0.14534295662E+04  0.14534295662E+04  0.50400000000E-02 0.  1.
          1   -1    0    0  501    0  0.00000000000E+00 -0.00000000000E+00 -0.11718861605E+04  0.11718861606E+04  0.50400000000E-02 0. -1.
    8880023    1    1    2    0    0 -0.42680131815E+03 -0.51130129752E+03 -0.87510823062E+03  0.12818787008E+04  0.65864270000E+03 0.  0.
    8880022    1    1    2    0    0  0.42680131815E+03  0.51130129752E+03  0.11566516363E+04  0.13434370260E+04  0.15294330000E+03 0.  0.
<mgrwt>
<rscale>  0 0.86568748E+03</rscale>
<asrwt>0</asrwt>
<pdfrwt beam="1">  1        1 0.18029018E+00 0.93669557E+03</pdfrwt>
<pdfrwt beam="2">  1       -1 0.22360455E+00 0.93669557E+03</pdfrwt>
<totfact> 0.11855098E+00</totfact>
</mgrwt>
</event>
<event>
 4    2  0.3179755E-007  0.7048007E+03  0.7818608E-02  0.9977840E-01
          1   -1    0    0  501    0  0.00000000000E+00  0.00000000000E+00  0.40468998412E+03  0.40468998415E+03  0.50400000000E-02 0. -1.
         -1   -1    0    0    0  501 -0.00000000000E+00 -0.00000000000E+00 -0.17292956727E+04  0.17292956727E+04  0.50400000000E-02 0.  1.
    8880023    1    1    2    0    0 -0.20959453893E+03 -0.13785495333E+03  0.70461944856E+02  0.70831416112E+03  0.65864270000E+03 0. -1.
    8880022    1    1    2    0    0  0.20959453893E+03  0.13785495333E+03 -0.13950676335E+04  0.14256714958E+04  0.15294330000E+03 0.  0.
<mgrwt>
<rscale>  0 0.56632685E+03</rscale>
<asrwt>0</asrwt>
<pdfrwt beam="1">  1        1 0.62259998E-01 0.70480073E+03</pdfrwt>
<pdfrwt beam="2">  1       -1 0.26604548E+00 0.70480073E+03</pdfrwt>
<totfact> 0.34042464E+00</totfact>
</mgrwt>
</event>
<event>
 4    2  0.3179755E-007  0.8666273E+03  0.7818608E-02  0.9581882E-01
          1   -1    0    0  501    0  0.00000000000E+00  0.00000000000E+00  0.16784822790E+04  0.16784822790E+04  0.50400000000E-02 0. -1.
         -1   -1    0    0    0  501 -0.00000000000E+00 -0.00000000000E+00 -0.45663027027E+03  0.45663027030E+03  0.50400000000E-02 0.  1.
    8880023    1    1    2    0    0  0.56006596967E+03  0.59654933634E+02  0.12830218729E+04  0.15482854821E+04  0.65864270000E+03 0.  0.
    8880022    1    1    2    0    0 -0.56006596967E+03 -0.59654933634E+02 -0.61169864180E+02  0.58682706719E+03  0.15294330000E+03 0.  0.
<mgrwt>
<rscale>  0 0.78507058E+03</rscale>
<asrwt>0</asrwt>
<pdfrwt beam="1">  1        1 0.25822805E+00 0.86662726E+03</pdfrwt>
<pdfrwt beam="2">  1       -1 0.70250810E-01 0.86662726E+03</pdfrwt>
<totfact> 0.10338027E+01</totfact>
</mgrwt>
</event>
<event>
 4    2  0.3529380E-007  0.7009057E+03  0.7818608E-02  0.9993465E-01
         -1   -1    0    0    0  501 -0.00000000000E+00  0.00000000000E+00  0.72780812673E+03  0.72780812674E+03  0.50400000000E-02 0.  1.
          1   -1    0    0  501    0  0.00000000000E+00 -0.00000000000E+00 -0.16504907617E+04  0.16504907617E+04  0.50400000000E-02 0. -1.
    8880023    1    1    2    0    0  0.21434844153E+03 -0.10730019311E+03 -0.15436515003E+04  0.16953255577E+04  0.65864270000E+03 0. -1.
    8880022    1    1    2    0    0 -0.21434844153E+03  0.10730019311E+03  0.62096886533E+03  0.68297333078E+03  0.15294330000E+03 0.  0.
<mgrwt>
<rscale>  0 0.55937732E+03</rscale>
<asrwt>0</asrwt>
<pdfrwt beam="1">  1        1 0.25392165E+00 0.70090569E+03</pdfrwt>
<pdfrwt beam="2">  1       -1 0.11197048E+00 0.70090569E+03</pdfrwt>
<totfact> 0.39760403E+00</totfact>
</mgrwt>
</event>
<event>
 4    2  0.3179755E-007  0.8917278E+03  0.7818608E-02  0.9539444E-01
          1   -1    0    0  501    0  0.00000000000E+00  0.00000000000E+00  0.10324009413E+04  0.10324009414E+04  0.50400000000E-02 0. -1.
         -1   -1    0    0    0  501 -0.00000000000E+00 -0.00000000000E+00 -0.55444459509E+03  0.55444459511E+03  0.50400000000E-02 0.  1.
    8880023    1    1    2    0    0 -0.59695043681E+03 -0.70841500022E+02  0.31206038642E+03  0.94475405962E+03  0.65864270000E+03 0. -1.
    8880022    1    1    2    0    0  0.59695043681E+03  0.70841500022E+02  0.16589595983E+03  0.64209147685E+03  0.15294330000E+03 0.  1.
<mgrwt>
<rscale>  0 0.81437228E+03</rscale>
<asrwt>0</asrwt>
<pdfrwt beam="1">  1        1 0.15883091E+00 0.89172784E+03</pdfrwt>
<pdfrwt beam="2">  1       -1 0.85299169E-01 0.89172784E+03</pdfrwt>
<totfact> 0.19658655E+01</totfact>
</mgrwt>
</event>
<event>
 4    2  0.3179755E-007  0.7581932E+03  0.7818608E-02  0.9809808E-01
         -1   -1    0    0    0  501 -0.00000000000E+00  0.00000000000E+00  0.25986989429E+03  0.25986989433E+03  0.50400000000E-02 0.  1.
          1   -1    0    0  501    0  0.00000000000E+00 -0.00000000000E+00 -0.15928592345E+04  0.15928592345E+04  0.50400000000E-02 0. -1.
    8880023    1    1    2    0    0  0.31659911279E+03 -0.20201929599E+03 -0.12118908713E+04  0.14295231667E+04  0.65864270000E+03 0. -1.
    8880022    1    1    2    0    0 -0.31659911279E+03  0.20201929599E+03 -0.12109846899E+03  0.42320596212E+03  0.15294330000E+03 0.  0.
<mgrwt>
<rscale>  0 0.64838858E+03</rscale>
<asrwt>0</asrwt>
<pdfrwt beam="1">  1        1 0.24505526E+00 0.75819325E+03</pdfrwt>
<pdfrwt beam="2">  1       -1 0.39979985E-01 0.75819325E+03</pdfrwt>
<totfact> 0.35458662E+01</totfact>
</mgrwt>
</event>
<event>
 4    2  0.3179755E-007  0.8350144E+03  0.7818608E-02  0.9639654E-01
         -1   -1    0    0    0  501 -0.00000000000E+00  0.00000000000E+00  0.69157697661E+03  0.69157697663E+03  0.50400000000E-02 0.  1.
          1   -1    0    0  501    0  0.00000000000E+00 -0.00000000000E+00 -0.89482809409E+03  0.89482809410E+03  0.50400000000E-02 0. -1.
    8880023    1    1    2    0    0 -0.11562408176E+03  0.50006985126E+03 -0.50085564884E+03  0.97370702558E+03  0.65864270000E+03 0.  0.
    8880022    1    1    2    0    0  0.11562408176E+03 -0.50006985126E+03  0.29760453136E+03  0.61269804515E+03  0.15294330000E+03 0.  0.
<mgrwt>
<rscale>  0 0.74726323E+03</rscale>
<asrwt>0</asrwt>
<pdfrwt beam="1">  1        1 0.13766586E+00 0.83501437E+03</pdfrwt>
<pdfrwt beam="2">  1       -1 0.10639646E+00 0.83501437E+03</pdfrwt>
<totfact> 0.15460603E+01</totfact>
</mgrwt>
</event>
<event>
 4    2  0.3179755E-007  0.7256867E+03  0.7818608E-02  0.9903794E-01
          1   -1    0    0  501    0  0.00000000000E+00  0.00000000000E+00  0.26528001189E+04  0.26528001189E+04  0.50400000000E-02 0. -1.
         -1   -1    0    0    0  501 -0.00000000000E+00 -0.00000000000E+00 -0.19093388097E+03  0.19093388103E+03  0.50400000000E-02 0.  1.
    8880023    1    1    2    0    0  0.30424269870E+03  0.15728864924E+02  0.23868001602E+04  0.24946815885E+04  0.65864270000E+03 0. -1.
    8880022    1    1    2    0    0 -0.30424269870E+03 -0.15728864924E+02  0.75066077732E+02  0.34905241146E+03  0.15294330000E+03 0.  0.
<mgrwt>
<rscale>  0 0.60077783E+03</rscale>
<asrwt>0</asrwt>
<pdfrwt beam="1">  1        1 0.40812305E+00 0.72568673E+03</pdfrwt>
<pdfrwt beam="2">  1       -1 0.29374447E-01 0.72568673E+03</pdfrwt>
<totfact> 0.11875530E+01</totfact>
</mgrwt>
</event>
<event>
 4    2  0.3179755E-007  0.6866890E+03  0.7818608E-02  0.1005768E+00
          1   -1    0    0  501    0  0.00000000000E+00  0.00000000000E+00  0.14385745991E+04  0.14385745991E+04  0.50400000000E-02 0. -1.
         -1   -1    0    0    0  501 -0.00000000000E+00 -0.00000000000E+00 -0.27862681353E+03  0.27862681358E+03  0.50400000000E-02 0.  1.
    8880023    1    1    2    0    0 -0.19016614405E+03 -0.39603185327E+02  0.12721883739E+04  0.14456849725E+04  0.65864270000E+03 0. -1.
    8880022    1    1    2    0    0  0.19016614405E+03  0.39603185327E+02 -0.11224058834E+03  0.27151644023E+03  0.15294330000E+03 0.  0.
<mgrwt>
<rscale>  0 0.53191943E+03</rscale>
<asrwt>0</asrwt>
<pdfrwt beam="1">  1        1 0.22131917E+00 0.68668900E+03</pdfrwt>
<pdfrwt beam="2">  1       -1 0.42865664E-01 0.68668900E+03</pdfrwt>
<totfact> 0.40133533E+01</totfact>
</mgrwt>
</event>
<event>
 4    2  0.3179755E-007  0.7138736E+03  0.7818608E-02  0.9943889E-01
         -1   -1    0    0    0  501 -0.00000000000E+00  0.00000000000E+00  0.47064801621E+03  0.47064801624E+03  0.50400000000E-02 0.  1.
          1   -1    0    0  501    0  0.00000000000E+00 -0.00000000000E+00 -0.76492678142E+03  0.76492678143E+03  0.50400000000E-02 0. -1.
    8880023    1    1    2    0    0 -0.25831848949E+03 -0.95272310955E+02 -0.48899185910E+03  0.86529099139E+03  0.65864270000E+03 0.  0.
    8880022    1    1    2    0    0  0.25831848949E+03  0.95272310955E+02  0.19471309390E+03  0.37028380629E+03  0.15294330000E+03 0.  0.
<mgrwt>
<rscale>  0 0.58180606E+03</rscale>
<asrwt>0</asrwt>
<pdfrwt beam="1">  1        1 0.11768104E+00 0.71387356E+03</pdfrwt>
<pdfrwt beam="2">  1       -1 0.72407387E-01 0.71387356E+03</pdfrwt>
<totfact> 0.46901441E+01</totfact>
</mgrwt>
</event>
<event>
 4    2  0.3179755E-007  0.7328032E+03  0.7818608E-02  0.9881430E-01
         -1   -1    0    0    0  501 -0.00000000000E+00  0.00000000000E+00  0.22519273339E+03  0.22519273344E+03  0.50400000000E-02 0.  1.
          1   -1    0    0  501    0  0.00000000000E+00 -0.00000000000E+00 -0.15531766651E+04  0.15531766651E+04  0.50400000000E-02 0. -1.
    8880023    1    1    2    0    0 -0.55922436609E+02 -0.31632731383E+03 -0.11884257462E+04  0.13961934855E+04  0.65864270000E+03 0.  1.
    8880022    1    1    2    0    0  0.55922436609E+02  0.31632731383E+03 -0.13955818556E+03  0.38217591311E+03  0.15294330000E+03 0.  0.
<mgrwt>
<rscale>  0 0.61169788E+03</rscale>
<asrwt>0</asrwt>
<pdfrwt beam="1">  1        1 0.23895025E+00 0.73280318E+03</pdfrwt>
<pdfrwt beam="2">  1       -1 0.34645037E-01 0.73280318E+03</pdfrwt>
<totfact> 0.48952349E+01</totfact>
</mgrwt>
</event>
<event>
 4    2  0.3179755E-007  0.6602422E+03  0.7818608E-02  0.1023910E+00
          1   -1    0    0  501    0  0.00000000000E+00  0.00000000000E+00  0.17967186407E+04  0.17967186407E+04  0.50400000000E-02 0. -1.
         -1   -1    0    0    0  501 -0.00000000000E+00 -0.00000000000E+00 -0.27348649213E+03  0.27348649217E+03  0.50400000000E-02 0.  1.
    8880023    1    1    2    0    0 -0.33997132681E+02  0.30882351946E+02  0.17049293608E+04  0.18283062808E+04  0.65864270000E+03 0. -1.
    8880022    1    1    2    0    0  0.33997132681E+02 -0.30882351946E+02 -0.18169721225E+03  0.24189885210E+03  0.15294330000E+03 0.  0.
<mgrwt>
<rscale>  0 0.46301758E+03</rscale>
<asrwt>0</asrwt>
<pdfrwt beam="1">  1        1 0.27641826E+00 0.66024218E+03</pdfrwt>
<pdfrwt beam="2">  1       -1 0.42074844E-01 0.66024218E+03</pdfrwt>
<totfact> 0.23869392E+01</totfact>
</mgrwt>
</event>
<event>
 4    2  0.3179755E-007  0.6751987E+03  0.7818608E-02  0.1012181E+00
          1   -1    0    0  501    0  0.00000000000E+00  0.00000000000E+00  0.62782337012E+03  0.62782337014E+03  0.50400000000E-02 0. -1.
         -1   -1    0    0    0  501 -0.00000000000E+00 -0.00000000000E+00 -0.43289798705E+03  0.43289798708E+03  0.50400000000E-02 0.  1.
    8880023    1    1    2    0    0 -0.36972760682E+02 -0.14393096027E+03  0.38310722775E+03  0.77631466595E+03  0.65864270000E+03 0. -1.
    8880022    1    1    2    0    0  0.36972760682E+02  0.14393096027E+03 -0.18818184468E+03  0.28440669127E+03  0.15294330000E+03 0.  1.
<mgrwt>
<rscale>  0 0.50616838E+03</rscale>
<asrwt>0</asrwt>
<pdfrwt beam="1">  1        1 0.96588210E-01 0.67519872E+03</pdfrwt>
<pdfrwt beam="2">  1       -1 0.66599691E-01 0.67519872E+03</pdfrwt>
<totfact> 0.75143169E+01</totfact>
</mgrwt>
</event>
<event>
 4    2  0.3179755E-007  0.8558910E+03  0.7818608E-02  0.9600915E-01
          1   -1    0    0  501    0  0.00000000000E+00  0.00000000000E+00  0.21260106195E+04  0.21260106195E+04  0.50400000000E-02 0. -1.
         -1   -1    0    0    0  501 -0.00000000000E+00 -0.00000000000E+00 -0.44784887602E+03  0.44784887605E+03  0.50400000000E-02 0.  1.
    8880023    1    1    2    0    0 -0.54007050815E+03 -0.84041876100E+02  0.18002139233E+04  0.19933187318E+04  0.65864270000E+03 0. -1.
    8880022    1    1    2    0    0  0.54007050815E+03  0.84041876100E+02 -0.12205217985E+03  0.58054076371E+03  0.15294330000E+03 0.  0.
<mgrwt>
<rscale>  0 0.77235664E+03</rscale>
<asrwt>0</asrwt>
<pdfrwt beam="1">  1        1 0.32707856E+00 0.85589100E+03</pdfrwt>
<pdfrwt beam="2">  1       -1 0.68899826E-01 0.85589100E+03</pdfrwt>
<totfact> 0.53902399E+00</totfact>
</mgrwt>
</event>
<event>
 4    2  0.3179755E-007  0.7249181E+03  0.7818608E-02  0.9906283E-01
          1   -1    0    0  501    0  0.00000000000E+00  0.00000000000E+00  0.50940430010E+03  0.50940430012E+03  0.50400000000E-02 0. -1.
         -1   -1    0    0    0  501 -0.00000000000E+00 -0.00000000000E+00 -0.15139377565E+04  0.15139377565E+04  0.50400000000E-02 0.  1.
    8880023    1    1    2    0    0 -0.13345851290E+03  0.27181760260E+03  0.21610018117E+03  0.75644264707E+03  0.65864270000E+03 0.  0.
    8880022    1    1    2    0    0  0.13345851290E+03 -0.27181760260E+03 -0.12206336375E+04  0.12668994095E+04  0.15294330000E+03 0.  0.
<mgrwt>
<rscale>  0 0.59957742E+03</rscale>
<asrwt>0</asrwt>
<pdfrwt beam="1">  1        1 0.78369893E-01 0.72491806E+03</pdfrwt>
<pdfrwt beam="2">  1       -1 0.23291350E+00 0.72491806E+03</pdfrwt>
<totfact> 0.40694861E+00</totfact>
</mgrwt>
</event>
<event>
 4    2  0.3179755E-007  0.9727383E+03  0.7818608E-02  0.9418127E-01
         -1   -1    0    0    0  501 -0.00000000000E+00  0.00000000000E+00  0.21069679350E+04  0.21069679350E+04  0.50400000000E-02 0.  1.
          1   -1    0    0  501    0  0.00000000000E+00 -0.00000000000E+00 -0.62129002625E+03  0.62129002627E+03  0.50400000000E-02 0. -1.
    8880023    1    1    2    0    0  0.50524709867E+03  0.50708471014E+03  0.17059979668E+04  0.19638352281E+04  0.65864270000E+03 0.  1.
    8880022    1    1    2    0    0 -0.50524709867E+03 -0.50708471014E+03 -0.22032005810E+03  0.76442273317E+03  0.15294330000E+03 0.  0.
<mgrwt>
<rscale>  0 0.90598803E+03</rscale>
<asrwt>0</asrwt>
<pdfrwt beam="1">  1        1 0.95583082E-01 0.97273827E+03</pdfrwt>
<pdfrwt beam="2">  1       -1 0.32414891E+00 0.97273827E+03</pdfrwt>
<totfact> 0.76450395E-01</totfact>
</mgrwt>
</event>
<event>
 4    2  0.3179755E-007  0.6872325E+03  0.7818608E-02  0.1005497E+00
         -1   -1    0    0    0  501 -0.00000000000E+00  0.00000000000E+00  0.30321399761E+03  0.30321399766E+03  0.50400000000E-02 0.  1.
          1   -1    0    0  501    0  0.00000000000E+00 -0.00000000000E+00 -0.84816563866E+03  0.84816563868E+03  0.50400000000E-02 0. -1.
    8880023    1    1    2    0    0 -0.10011211333E+03 -0.16868860093E+03 -0.58116213623E+03  0.90002106318E+03  0.65864270000E+03 0. -1.
    8880022    1    1    2    0    0  0.10011211333E+03  0.16868860093E+03  0.36210495184E+02  0.25135857315E+03  0.15294330000E+03 0.  0.
<mgrwt>
<rscale>  0 0.53304358E+03</rscale>
<asrwt>0</asrwt>
<pdfrwt beam="1">  1        1 0.13048702E+00 0.68723248E+03</pdfrwt>
<pdfrwt beam="2">  1       -1 0.46648308E-01 0.68723248E+03</pdfrwt>
<totfact> 0.94251665E+01</totfact>
</mgrwt>
</event>
<event>
 4    2  0.3179755E-007  0.9185168E+03  0.7818608E-02  0.9496937E-01
         -1   -1    0    0    0  501 -0.00000000000E+00  0.00000000000E+00  0.91595096695E+03  0.91595096696E+03  0.50400000000E-02 0.  1.
          1   -1    0    0  501    0  0.00000000000E+00 -0.00000000000E+00 -0.97704671787E+03  0.97704671788E+03  0.50400000000E-02 0. -1.
    8880023    1    1    2    0    0  0.43827383748E+03 -0.46666790003E+03 -0.55222638829E+03  0.10717402091E+04  0.65864270000E+03 0. -1.
    8880022    1    1    2    0    0 -0.43827383748E+03  0.46666790003E+03  0.49113063737E+03  0.82125747578E+03  0.15294330000E+03 0.  0.
<mgrwt>
<rscale>  0 0.84510022E+03</rscale>
<asrwt>0</asrwt>
<pdfrwt beam="1">  1        1 0.15031488E+00 0.91851679E+03</pdfrwt>
<pdfrwt beam="2">  1       -1 0.14091553E+00 0.91851679E+03</pdfrwt>
<totfact> 0.65762036E+00</totfact>
</mgrwt>
</event>
<event>
 4    2  0.3179755E-007  0.7432869E+03  0.7818608E-02  0.9850474E-01
          1   -1    0    0  501    0  0.00000000000E+00  0.00000000000E+00  0.90850454516E+03  0.90850454517E+03  0.50400000000E-02 0. -1.
         -1   -1    0    0    0  501 -0.00000000000E+00 -0.00000000000E+00 -0.64895511044E+03  0.64895511046E+03  0.50400000000E-02 0.  1.
    8880023    1    1    2    0    0 -0.29688423708E+03 -0.17471402697E+03  0.66966075637E+03  0.10004603822E+04  0.65864270000E+03 0. -1.
    8880022    1    1    2    0    0  0.29688423708E+03  0.17471402697E+03 -0.41011132165E+03  0.55699927344E+03  0.15294330000E+03 0.  0.
<mgrwt>
<rscale>  0 0.62722760E+03</rscale>
<asrwt>0</asrwt>
<pdfrwt beam="1">  1        1 0.13976993E+00 0.74328692E+03</pdfrwt>
<pdfrwt beam="2">  1       -1 0.99839247E-01 0.74328692E+03</pdfrwt>
<totfact> 0.17641120E+01</totfact>
</mgrwt>
</event>
<event>
 4    2  0.3179755E-007  0.1128713E+04  0.7818608E-02  0.9229741E-01
         -1   -1    0    0    0  501 -0.00000000000E+00  0.00000000000E+00  0.10231480936E+04  0.10231480936E+04  0.50400000000E-02 0.  1.
          1   -1    0    0  501    0  0.00000000000E+00 -0.00000000000E+00 -0.19936153615E+04  0.19936153615E+04  0.50400000000E-02 0. -1.
    8880023    1    1    2    0    0 -0.80727364473E+03 -0.43415712202E+03 -0.15531062431E+04  0.19199302989E+04  0.65864270000E+03 0.  0.
    8880022    1    1    2    0    0  0.80727364473E+03  0.43415712202E+03  0.58263897522E+03  0.10968331562E+04  0.15294330000E+03 0.  0.
<mgrwt>
<rscale>  0 0.10751652E+04</rscale>
<asrwt>0</asrwt>
<pdfrwt beam="1">  1        1 0.30671005E+00 0.11287131E+04</pdfrwt>
<pdfrwt beam="2">  1       -1 0.15740740E+00 0.11287131E+04</pdfrwt>
<totfact> 0.91315475E-01</totfact>
</mgrwt>
</event>
<event>
 4    2  0.3179755E-007  0.7711349E+03  0.7818608E-02  0.9777089E-01
         -1   -1    0    0    0  501 -0.00000000000E+00  0.00000000000E+00  0.30008797497E+03  0.30008797501E+03  0.50400000000E-02 0.  1.
          1   -1    0    0  501    0  0.00000000000E+00 -0.00000000000E+00 -0.27669095398E+04  0.27669095398E+04  0.50400000000E-02 0. -1.
    8880023    1    1    2    0    0  0.32101968933E+03  0.24038537763E+03 -0.25192107590E+04  0.26345913963E+04  0.65864270000E+03 0.  0.
    8880022    1    1    2    0    0 -0.32101968933E+03 -0.24038537763E+03  0.52389194142E+02  0.43240611859E+03  0.15294330000E+03 0.  0.
<mgrwt>
<rscale>  0 0.66606701E+03</rscale>
<asrwt>0</asrwt>
<pdfrwt beam="1">  1        1 0.42567837E+00 0.77113486E+03</pdfrwt>
<pdfrwt beam="2">  1       -1 0.46167383E-01 0.77113486E+03</pdfrwt>
<totfact> 0.43552756E+00</totfact>
</mgrwt>
</event>
<event>
 4    2  0.3179755E-007  0.9073686E+03  0.7818608E-02  0.9514305E-01
          1   -1    0    0  501    0  0.00000000000E+00  0.00000000000E+00  0.30094192255E+04  0.30094192255E+04  0.50400000000E-02 0. -1.
         -1   -1    0    0    0  501 -0.00000000000E+00 -0.00000000000E+00 -0.55714293182E+03  0.55714293184E+03  0.50400000000E-02 0.  1.
    8880023    1    1    2    0    0  0.25137537222E+03 -0.57124242014E+03  0.27223182463E+04  0.28695529827E+04  0.65864270000E+03 0.  0.
    8880022    1    1    2    0    0 -0.25137537222E+03  0.57124242014E+03 -0.27004195261E+03  0.69700917462E+03  0.15294330000E+03 0.  0.
<mgrwt>
<rscale>  0 0.83237358E+03</rscale>
<asrwt>0</asrwt>
<pdfrwt beam="1">  1        1 0.46298758E+00 0.90736855E+03</pdfrwt>
<pdfrwt beam="2">  1       -1 0.85714296E-01 0.90736855E+03</pdfrwt>
<totfact> 0.82682567E-01</totfact>
</mgrwt>
</event>
<event>
 4    2  0.3179755E-007  0.1187348E+04  0.7818608E-02  0.9169521E-01
         -1   -1    0    0    0  501 -0.00000000000E+00  0.00000000000E+00  0.18661150968E+04  0.18661150968E+04  0.50400000000E-02 0.  1.
          1   -1    0    0  501    0  0.00000000000E+00 -0.00000000000E+00 -0.11089263031E+04  0.11089263032E+04  0.50400000000E-02 0. -1.
    8880023    1    1    2    0    0  0.91753545833E+03 -0.36621386867E+03 -0.56707089704E+03  0.13158128755E+04  0.65864270000E+03 0. -1.
    8880022    1    1    2    0    0 -0.91753545833E+03  0.36621386867E+03  0.13242596907E+04  0.16592285245E+04  0.15294330000E+03 0.  0.
<mgrwt>
<rscale>  0 0.11373640E+04</rscale>
<asrwt>0</asrwt>
<pdfrwt beam="1">  1        1 0.17060405E+00 0.11873475E+04</pdfrwt>
<pdfrwt beam="2">  1       -1 0.28709463E+00 0.11873475E+04</pdfrwt>
<totfact> 0.49257850E-01</totfact>
</mgrwt>
</event>
<event>
 4    2  0.3179755E-007  0.7133103E+03  0.7818608E-02  0.9945908E-01
          1   -1    0    0  501    0  0.00000000000E+00  0.00000000000E+00  0.11677573607E+04  0.11677573607E+04  0.50400000000E-02 0. -1.
         -1   -1    0    0    0  501 -0.00000000000E+00 -0.00000000000E+00 -0.56699774899E+03  0.56699774902E+03  0.50400000000E-02 0.  1.
    8880023    1    1    2    0    0  0.27322599819E+03 -0.18678729892E+02  0.99918252164E+03  0.12276714784E+04  0.65864270000E+03 0. -1.
    8880022    1    1    2    0    0 -0.27322599819E+03  0.18678729892E+02 -0.39842290991E+03  0.50708363136E+03  0.15294330000E+03 0.  0.
<mgrwt>
<rscale>  0 0.58087058E+03</rscale>
<asrwt>0</asrwt>
<pdfrwt beam="1">  1        1 0.17965498E+00 0.71331027E+03</pdfrwt>
<pdfrwt beam="2">  1       -1 0.87230424E-01 0.71331027E+03</pdfrwt>
<totfact> 0.15147695E+01</totfact>
</mgrwt>
</event>
<event>
 4    2  0.3179755E-007  0.9901643E+03  0.7818608E-02  0.9394540E-01
         -1   -1    0    0    0  501 -0.00000000000E+00  0.00000000000E+00  0.10455698183E+04  0.10455698183E+04  0.50400000000E-02 0.  1.
          1   -1    0    0  501    0  0.00000000000E+00 -0.00000000000E+00 -0.88055137127E+03  0.88055137128E+03  0.50400000000E-02 0. -1.
    8880023    1    1    2    0    0 -0.65582579150E+03  0.34133233461E+03 -0.30585896235E+03  0.10363277197E+04  0.65864270000E+03 0.  0.
    8880022    1    1    2    0    0  0.65582579150E+03 -0.34133233461E+03  0.47087740940E+03  0.88979346994E+03  0.15294330000E+03 0.  0.
<mgrwt>
<rscale>  0 0.92526360E+03</rscale>
<asrwt>0</asrwt>
<pdfrwt beam="1">  1        1 0.13546944E+00 0.99016435E+03</pdfrwt>
<pdfrwt beam="2">  1       -1 0.16085689E+00 0.99016435E+03</pdfrwt>
<totfact> 0.54562045E+00</totfact>
</mgrwt>
</event>
<event>
 4    2  0.3179755E-007  0.7320083E+03  0.7818608E-02  0.9883869E-01
          1   -1    0    0  501    0  0.00000000000E+00  0.00000000000E+00  0.97038922251E+03  0.97038922252E+03  0.50400000000E-02 0. -1.
         -1   -1    0    0    0  501 -0.00000000000E+00 -0.00000000000E+00 -0.74361130227E+03  0.74361130229E+03  0.50400000000E-02 0.  1.
    8880023    1    1    2    0    0  0.25701026771E+03  0.18966193967E+03  0.77199239788E+03  0.10638648400E+04  0.65864270000E+03 0. -1.
    8880022    1    1    2    0    0 -0.25701026771E+03 -0.18966193967E+03 -0.54521447764E+03  0.65013568485E+03  0.15294330000E+03 0.  0.
<mgrwt>
<rscale>  0 0.61049457E+03</rscale>
<asrwt>0</asrwt>
<pdfrwt beam="1">  1        1 0.14929065E+00 0.73200829E+03</pdfrwt>
<pdfrwt beam="2">  1       -1 0.11440174E+00 0.73200829E+03</pdfrwt>
<totfact> 0.11476301E+01</totfact>
</mgrwt>
</event>
<event>
 4    2  0.3179755E-007  0.7556693E+03  0.7818608E-02  0.9816451E-01
          1   -1    0    0  501    0  0.00000000000E+00  0.00000000000E+00  0.12078675504E+04  0.12078675504E+04  0.50400000000E-02 0. -1.
         -1   -1    0    0    0  501 -0.00000000000E+00 -0.00000000000E+00 -0.41388437593E+03  0.41388437596E+03  0.50400000000E-02 0.  1.
    8880023    1    1    2    0    0  0.15800821679E+03 -0.33505125130E+03  0.93020301310E+03  0.11984630947E+04  0.65864270000E+03 0.  0.
    8880022    1    1    2    0    0 -0.15800821679E+03  0.33505125130E+03 -0.13621983861E+03  0.42328883167E+03  0.15294330000E+03 0.  0.
<mgrwt>
<rscale>  0 0.64487121E+03</rscale>
<asrwt>0</asrwt>
<pdfrwt beam="1">  1        1 0.18582577E+00 0.75566933E+03</pdfrwt>
<pdfrwt beam="2">  1       -1 0.63674520E-01 0.75566933E+03</pdfrwt>
<totfact> 0.27137785E+01</totfact>
</mgrwt>
</event>
<event>
 4    2  0.3179755E-007  0.7758413E+03  0.7818608E-02  0.9765698E-01
         -1   -1    0    0    0  501 -0.00000000000E+00  0.00000000000E+00  0.16749682991E+03  0.16749682999E+03  0.50400000000E-02 0.  1.
          1   -1    0    0  501    0  0.00000000000E+00 -0.00000000000E+00 -0.25358972311E+04  0.25358972311E+04  0.50400000000E-02 0. -1.
    8880023    1    1    2    0    0 -0.15229304092E+03  0.38069186850E+03 -0.19469176764E+04  0.20958096560E+04  0.65864270000E+03 0. -1.
    8880022    1    1    2    0    0  0.15229304092E+03 -0.38069186850E+03 -0.42148272476E+03  0.60758440512E+03  0.15294330000E+03 0.  1.
<mgrwt>
<rscale>  0 0.67236316E+03</rscale>
<asrwt>0</asrwt>
<pdfrwt beam="1">  1        1 0.39013801E+00 0.77584127E+03</pdfrwt>
<pdfrwt beam="2">  1       -1 0.25768745E-01 0.77584127E+03</pdfrwt>
<totfact> 0.17775337E+01</totfact>
</mgrwt>
</event>
<event>
 4    2  0.3179755E-007  0.7746014E+03  0.7818608E-02  0.9768675E-01
          1   -1    0    0  501    0  0.00000000000E+00  0.00000000000E+00  0.45827982705E+03  0.45827982708E+03  0.50400000000E-02 0. -1.
         -1   -1    0    0    0  501 -0.00000000000E+00 -0.00000000000E+00 -0.22490053874E+04  0.22490053874E+04  0.50400000000E-02 0.  1.
    8880023    1    1    2    0    0  0.99600589196E+02 -0.39531857796E+03  0.87244262068E+02  0.77949908465E+03  0.65864270000E+03 0.  0.
    8880022    1    1    2    0    0 -0.99600589196E+02  0.39531857796E+03 -0.18779698224E+04  0.19277861299E+04  0.15294330000E+03 0.  1.
<mgrwt>
<rscale>  0 0.67071072E+03</rscale>
<asrwt>0</asrwt>
<pdfrwt beam="1">  1        1 0.70504590E-01 0.77460136E+03</pdfrwt>
<pdfrwt beam="2">  1       -1 0.34600082E+00 0.77460136E+03</pdfrwt>
<totfact> 0.87273470E-01</totfact>
</mgrwt>
</event>
<event>
 4    2  0.3179755E-007  0.9689498E+03  0.7818608E-02  0.9423358E-01
         -1   -1    0    0    0  501 -0.00000000000E+00  0.00000000000E+00  0.11008699718E+04  0.11008699718E+04  0.50400000000E-02 0.  1.
          1   -1    0    0  501    0  0.00000000000E+00 -0.00000000000E+00 -0.90584539525E+03  0.90584539526E+03  0.50400000000E-02 0. -1.
    8880023    1    1    2    0    0  0.23975332982E+03 -0.66900807265E+03 -0.41851016771E+03  0.10554688187E+04  0.65864270000E+03 0. -1.
    8880022    1    1    2    0    0 -0.23975332982E+03  0.66900807265E+03  0.61353474425E+03  0.95124654840E+03  0.15294330000E+03 0.  0.
<mgrwt>
<rscale>  0 0.90178070E+03</rscale>
<asrwt>0</asrwt>
<pdfrwt beam="1">  1        1 0.13936083E+00 0.96894978E+03</pdfrwt>
<pdfrwt beam="2">  1       -1 0.16936461E+00 0.96894978E+03</pdfrwt>
<totfact> 0.45052576E+00</totfact>
</mgrwt>
</event>
<event>
 4    2  0.3179755E-007  0.6938534E+03  0.7818608E-02  0.1002372E+00
          1   -1    0    0  501    0  0.00000000000E+00  0.00000000000E+00  0.75423605851E+03  0.75423605853E+03  0.50400000000E-02 0. -1.
         -1   -1    0    0    0  501 -0.00000000000E+00 -0.00000000000E+00 -0.51242279344E+03  0.51242279346E+03  0.50400000000E-02 0.  1.
    8880023    1    1    2    0    0 -0.11224707821E+03 -0.18714405903E+03  0.53076786978E+03  0.87358287715E+03  0.65864270000E+03 0. -1.
    8880022    1    1    2    0    0  0.11224707821E+03  0.18714405903E+03 -0.28895460471E+03  0.39307597484E+03  0.15294330000E+03 0.  0.
<mgrwt>
<rscale>  0 0.54622144E+03</rscale>
<asrwt>0</asrwt>
<pdfrwt beam="1">  1        1 0.11603632E+00 0.69385338E+03</pdfrwt>
<pdfrwt beam="2">  1       -1 0.78834276E-01 0.69385338E+03</pdfrwt>
<totfact> 0.40228879E+01</totfact>
</mgrwt>
</event>
<event>
 4    2  0.3179755E-007  0.7071085E+03  0.7818608E-02  0.9968899E-01
         -1   -1    0    0    0  501 -0.00000000000E+00  0.00000000000E+00  0.15854020563E+04  0.15854020563E+04  0.50400000000E-02 0.  1.
          1   -1    0    0  501    0  0.00000000000E+00 -0.00000000000E+00 -0.23226922749E+03  0.23226922755E+03  0.50400000000E-02 0. -1.
    8880023    1    1    2    0    0 -0.23478608082E+03 -0.10520317506E+03  0.38667517466E+03  0.80592810396E+03  0.65864270000E+03 0.  0.
    8880022    1    1    2    0    0  0.23478608082E+03  0.10520317506E+03  0.96645765414E+03  0.10117431799E+04  0.15294330000E+03 0.  0.
<mgrwt>
<rscale>  0 0.57035239E+03</rscale>
<asrwt>0</asrwt>
<pdfrwt beam="1">  1        1 0.35733727E-01 0.70710849E+03</pdfrwt>
<pdfrwt beam="2">  1       -1 0.24390801E+00 0.70710849E+03</pdfrwt>
<totfact> 0.97261257E+00</totfact>
</mgrwt>
</event>
<event>
 4    2  0.3179755E-007  0.7248257E+03  0.7818608E-02  0.9906583E-01
          1   -1    0    0  501    0  0.00000000000E+00  0.00000000000E+00  0.12977701767E+04  0.12977701767E+04  0.50400000000E-02 0. -1.
         -1   -1    0    0    0  501 -0.00000000000E+00 -0.00000000000E+00 -0.23160345124E+03  0.23160345130E+03  0.50400000000E-02 0.  1.
    8880023    1    1    2    0    0 -0.10026367623E+03  0.28549836242E+03  0.54179688341E+03  0.90493988135E+03  0.65864270000E+03 0.  1.
    8880022    1    1    2    0    0  0.10026367623E+03 -0.28549836242E+03  0.52436984207E+03  0.62443374669E+03  0.15294330000E+03 0. -1.
<mgrwt>
<rscale>  0 0.59943293E+03</rscale>
<asrwt>0</asrwt>
<pdfrwt beam="1">  1        1 0.19965695E+00 0.72482572E+03</pdfrwt>
<pdfrwt beam="2">  1       -1 0.35631300E-01 0.72482572E+03</pdfrwt>
<totfact> 0.70007333E+01</totfact>
</mgrwt>
</event>
<event>
 4    2  0.3179755E-007  0.8945024E+03  0.7818608E-02  0.9534915E-01
         -1   -1    0    0    0  501 -0.00000000000E+00  0.00000000000E+00  0.92448539309E+03  0.92448539310E+03  0.50400000000E-02 0.  1.
          1   -1    0    0  501    0  0.00000000000E+00 -0.00000000000E+00 -0.84303506974E+03  0.84303506975E+03  0.50400000000E-02 0. -1.
    8880023    1    1    2    0    0  0.31471326166E+03 -0.51699111764E+03 -0.39930936760E+03  0.97958278369E+03  0.65864270000E+03 0.  0.
    8880022    1    1    2    0    0 -0.31471326166E+03  0.51699111764E+03  0.48075969096E+03  0.78793767916E+03  0.15294330000E+03 0. -1.
<mgrwt>
<rscale>  0 0.81757882E+03</rscale>
<asrwt>0</asrwt>
<pdfrwt beam="1">  1        1 0.12969770E+00 0.89450235E+03</pdfrwt>
<pdfrwt beam="2">  1       -1 0.14222852E+00 0.89450235E+03</pdfrwt>
<totfact> 0.82761791E+00</totfact>
</mgrwt>
</event>
<event>
 4    2  0.3179755E-007  0.9005533E+03  0.7818608E-02  0.9525144E-01
          1   -1    0    0  501    0  0.00000000000E+00  0.00000000000E+00  0.24344802738E+04  0.24344802739E+04  0.50400000000E-02 0. -1.
         -1   -1    0    0    0  501 -0.00000000000E+00 -0.00000000000E+00 -0.11626962871E+04  0.11626962871E+04  0.50400000000E-02 0.  1.
    8880023    1    1    2    0    0  0.61188213911E+03 -0.52784576264E+02 -0.93694112701E+03  0.12995594813E+04  0.65864270000E+03 0.  1.
    8880022    1    1    2    0    0 -0.61188213911E+03  0.52784576264E+02  0.22087251138E+04  0.22976170797E+04  0.15294330000E+03 0.  0.
<mgrwt>
<rscale>  0 0.82455169E+03</rscale>
<asrwt>0</asrwt>
<pdfrwt beam="1">  1        1 0.37453543E+00 0.90055326E+03</pdfrwt>
<pdfrwt beam="2">  1       -1 0.17887635E+00 0.90055326E+03</pdfrwt>
<totfact> 0.33092366E-01</totfact>
</mgrwt>
</event>
<event>
 4    2  0.3179755E-007  0.6723994E+03  0.7818608E-02  0.1013998E+00
          1   -1    0    0  501    0  0.00000000000E+00  0.00000000000E+00  0.34720748991E+04  0.34720748992E+04  0.50400000000E-02 0. -1.
         -1   -1    0    0    0  501 -0.00000000000E+00 -0.00000000000E+00 -0.13134007541E+03  0.13134007551E+03  0.50400000000E-02 0.  1.
    8880023    1    1    2    0    0 -0.44051685109E+02  0.12794615824E+03  0.33318380784E+04  0.33990095553E+04  0.65864270000E+03 0. -1.
    8880022    1    1    2    0    0  0.44051685109E+02 -0.12794615824E+03  0.88967453695E+01  0.20440541935E+03  0.15294330000E+03 0.  0.
<mgrwt>
<rscale>  0 0.49916101E+03</rscale>
<asrwt>0</asrwt>
<pdfrwt beam="1">  1        1 0.53416543E+00 0.67239942E+03</pdfrwt>
<pdfrwt beam="2">  1       -1 0.20206163E-01 0.67239942E+03</pdfrwt>
<totfact> 0.57775840E+00</totfact>
</mgrwt>
</event>
<event>
 4    2  0.3179755E-007  0.9562877E+03  0.7818608E-02  0.9441125E-01
          1   -1    0    0  501    0  0.00000000000E+00  0.00000000000E+00  0.12347981486E+04  0.12347981486E+04  0.50400000000E-02 0. -1.
         -1   -1    0    0    0  501 -0.00000000000E+00 -0.00000000000E+00 -0.90020820462E+03  0.90020820464E+03  0.50400000000E-02 0.  1.
    8880023    1    1    2    0    0  0.33036233144E+03 -0.60953815644E+03  0.83245802777E+03  0.12678614311E+04  0.65864270000E+03 0.  0.
    8880022    1    1    2    0    0 -0.33036233144E+03  0.60953815644E+03 -0.49786808378E+03  0.86714492217E+03  0.15294330000E+03 0.  0.
<mgrwt>
<rscale>  0 0.88767206E+03</rscale>
<asrwt>0</asrwt>
<pdfrwt beam="1">  1        1 0.18996895E+00 0.95628774E+03</pdfrwt>
<pdfrwt beam="2">  1       -1 0.13849357E+00 0.95628774E+03</pdfrwt>
<totfact> 0.43848458E+00</totfact>
</mgrwt>
</event>
<event>
 4    2  0.3179755E-007  0.9816767E+03  0.7818608E-02  0.9405933E-01
          1   -1    0    0  501    0  0.00000000000E+00  0.00000000000E+00  0.11986955495E+04  0.11986955495E+04  0.50400000000E-02 0. -1.
         -1   -1    0    0    0  501 -0.00000000000E+00 -0.00000000000E+00 -0.63226736682E+03  0.63226736684E+03  0.50400000000E-02 0.  1.
    8880023    1    1    2    0    0 -0.72241206028E+03 -0.89441021097E+02  0.20024927812E+03  0.10018926393E+04  0.65864270000E+03 0. -1.
    8880022    1    1    2    0    0  0.72241206028E+03  0.89441021097E+02  0.36617890460E+03  0.82907027705E+03  0.15294330000E+03 0.  1.
<mgrwt>
<rscale>  0 0.91589048E+03</rscale>
<asrwt>0</asrwt>
<pdfrwt beam="1">  1        1 0.18441470E+00 0.98167667E+03</pdfrwt>
<pdfrwt beam="2">  1       -1 0.97271902E-01 0.98167667E+03</pdfrwt>
<totfact> 0.10930357E+01</totfact>
</mgrwt>
</event>
<event>
 4    2  0.3179755E-007  0.7251325E+03  0.7818608E-02  0.9905587E-01
          1   -1    0    0  501    0  0.00000000000E+00  0.00000000000E+00  0.77906931281E+03  0.77906931282E+03  0.50400000000E-02 0. -1.
         -1   -1    0    0    0  501 -0.00000000000E+00 -0.00000000000E+00 -0.54031213035E+03  0.54031213037E+03  0.50400000000E-02 0.  1.
    8880023    1    1    2    0    0  0.58941219021E+02  0.29754482456E+03  0.50845808278E+03  0.88563356877E+03  0.65864270000E+03 0. -1.
    8880022    1    1    2    0    0 -0.58941219021E+02 -0.29754482456E+03 -0.26970090032E+03  0.43374787443E+03  0.15294330000E+03 0.  0.
<mgrwt>
<rscale>  0 0.59991281E+03</rscale>
<asrwt>0</asrwt>
<pdfrwt beam="1">  1        1 0.11985682E+00 0.72513254E+03</pdfrwt>
<pdfrwt beam="2">  1       -1 0.83124943E-01 0.72513254E+03</pdfrwt>
<totfact> 0.34051532E+01</totfact>
</mgrwt>
</event>
<event>
 4    2  0.3179755E-007  0.7316289E+03  0.7818608E-02  0.9885039E-01
         -1   -1    0    0    0  501 -0.00000000000E+00  0.00000000000E+00  0.14561177814E+04  0.14561177814E+04  0.50400000000E-02 0.  1.
          1   -1    0    0  501    0  0.00000000000E+00 -0.00000000000E+00 -0.29903155175E+03  0.29903155179E+03  0.50400000000E-02 0. -1.
    8880023    1    1    2    0    0  0.31721727140E+03  0.29048378607E+02  0.23622553392E+03  0.76881942920E+03  0.65864270000E+03 0.  0.
    8880022    1    1    2    0    0 -0.31721727140E+03 -0.29048378607E+02  0.92086069570E+03  0.98632990398E+03  0.15294330000E+03 0.  0.
<mgrwt>
<rscale>  0 0.60991881E+03</rscale>
<asrwt>0</asrwt>
<pdfrwt beam="1">  1        1 0.46004854E-01 0.73162888E+03</pdfrwt>
<pdfrwt beam="2">  1       -1 0.22401812E+00 0.73162888E+03</pdfrwt>
<totfact> 0.94303098E+00</totfact>
</mgrwt>
</event>
<event>
 4    2  0.3179755E-007  0.1080663E+04  0.7818608E-02  0.9282897E-01
         -1   -1    0    0    0  501 -0.00000000000E+00  0.00000000000E+00  0.54360992621E+03  0.54360992623E+03  0.50400000000E-02 0.  1.
          1   -1    0    0  501    0  0.00000000000E+00 -0.00000000000E+00 -0.19117278555E+04  0.19117278555E+04  0.50400000000E-02 0. -1.
    8880023    1    1    2    0    0 -0.59025712445E+03 -0.62098209950E+03 -0.11062774931E+04  0.15465064949E+04  0.65864270000E+03 0.  0.
    8880022    1    1    2    0    0  0.59025712445E+03  0.62098209950E+03 -0.26184043621E+03  0.90883128682E+03  0.15294330000E+03 0.  0.
<mgrwt>
<rscale>  0 0.10237275E+04</rscale>
<asrwt>0</asrwt>
<pdfrwt beam="1">  1        1 0.29411198E+00 0.10806630E+04</pdfrwt>
<pdfrwt beam="2">  1       -1 0.83632297E-01 0.10806630E+04</pdfrwt>
<totfact> 0.48522853E+00</totfact>
</mgrwt>
</event>
<event>
 4    2  0.3179755E-007  0.1091832E+04  0.7818608E-02  0.9270205E-01
          1   -1    0    0  501    0  0.00000000000E+00  0.00000000000E+00  0.99525814832E+03  0.99525814834E+03  0.50400000000E-02 0. -1.
         -1   -1    0    0    0  501 -0.00000000000E+00 -0.00000000000E+00 -0.16860121086E+04  0.16860121086E+04  0.50400000000E-02 0.  1.
    8880023    1    1    2    0    0 -0.87079607809E+03 -0.84532172522E+00  0.49778457754E+03  0.11999525891E+04  0.65864270000E+03 0.  0.
    8880022    1    1    2    0    0  0.87079607809E+03  0.84532172522E+00 -0.11885385378E+04  0.14813176678E+04  0.15294330000E+03 0.  0.
<mgrwt>
<rscale>  0 0.10357270E+04</rscale>
<asrwt>0</asrwt>
<pdfrwt beam="1">  1        1 0.15311664E+00 0.10918318E+04</pdfrwt>
<pdfrwt beam="2">  1       -1 0.25938648E+00 0.10918318E+04</pdfrwt>
<totfact> 0.92073444E-01</totfact>
</mgrwt>
</event>
<event>
 4    2  0.3179755E-007  0.7371169E+03  0.7818608E-02  0.9868426E-01
         -1   -1    0    0    0  501 -0.00000000000E+00  0.00000000000E+00  0.87968631505E+03  0.87968631506E+03  0.50400000000E-02 0.  1.
          1   -1    0    0  501    0  0.00000000000E+00 -0.00000000000E+00 -0.15425348702E+04  0.15425348702E+04  0.50400000000E-02 0. -1.
    8880023    1    1    2    0    0  0.18057527171E+03 -0.27735122137E+03 -0.14098944655E+04  0.15909568627E+04  0.65864270000E+03 0. -1.
    8880022    1    1    2    0    0 -0.18057527171E+03  0.27735122137E+03  0.74704591038E+03  0.83126432257E+03  0.15294330000E+03 0.  0.
<mgrwt>
<rscale>  0 0.61816186E+03</rscale>
<asrwt>0</asrwt>
<pdfrwt beam="1">  1        1 0.23731306E+00 0.73711691E+03</pdfrwt>
<pdfrwt beam="2">  1       -1 0.13533636E+00 0.73711691E+03</pdfrwt>
<totfact> 0.29316622E+00</totfact>
</mgrwt>
</event>
<event>
 4    2  0.3179755E-007  0.7469915E+03  0.7818608E-02  0.9840030E-01
         -1   -1    0    0    0  501 -0.00000000000E+00  0.00000000000E+00  0.31027056088E+03  0.31027056093E+03  0.50400000000E-02 0.  1.
          1   -1    0    0  501    0  0.00000000000E+00 -0.00000000000E+00 -0.17896436704E+04  0.17896436704E+04  0.50400000000E-02 0. -1.
    8880023    1    1    2    0    0  0.96913659573E+02 -0.33881231146E+03 -0.15394263854E+04  0.17110902496E+04  0.65864270000E+03 0. -1.
    8880022    1    1    2    0    0 -0.96913659573E+02  0.33881231146E+03  0.60053275922E+02  0.38882398174E+03  0.15294330000E+03 0.  0.
<mgrwt>
<rscale>  0 0.63257834E+03</rscale>
<asrwt>0</asrwt>
<pdfrwt beam="1">  1        1 0.27532979E+00 0.74699146E+03</pdfrwt>
<pdfrwt beam="2">  1       -1 0.47733934E-01 0.74699146E+03</pdfrwt>
<totfact> 0.18858423E+01</totfact>
</mgrwt>
</event>
<event>
 4    2  0.3179755E-007  0.7393309E+03  0.7818608E-02  0.9861900E-01
          1   -1    0    0  501    0  0.00000000000E+00  0.00000000000E+00  0.16004180487E+04  0.16004180487E+04  0.50400000000E-02 0. -1.
         -1   -1    0    0    0  501 -0.00000000000E+00 -0.00000000000E+00 -0.40345966596E+03  0.40345966599E+03  0.50400000000E-02 0.  1.
    8880023    1    1    2    0    0  0.30041892985E+02 -0.33451082911E+03  0.13995902296E+04  0.15828654482E+04  0.65864270000E+03 0. -1.
    8880022    1    1    2    0    0 -0.30041892985E+02  0.33451082911E+03 -0.20263184687E+03  0.42101226645E+03  0.15294330000E+03 0.  0.
<mgrwt>
<rscale>  0 0.62143823E+03</rscale>
<asrwt>0</asrwt>
<pdfrwt beam="1">  1        1 0.24621817E+00 0.73933092E+03</pdfrwt>
<pdfrwt beam="2">  1       -1 0.62070717E-01 0.73933092E+03</pdfrwt>
<totfact> 0.15254123E+01</totfact>
</mgrwt>
</event>
<event>
 4    2  0.3179755E-007  0.7008937E+03  0.7818608E-02  0.9993514E-01
          1   -1    0    0  501    0  0.00000000000E+00  0.00000000000E+00  0.26278101811E+03  0.26278101816E+03  0.50400000000E-02 0. -1.
         -1   -1    0    0    0  501 -0.00000000000E+00 -0.00000000000E+00 -0.48338773659E+04  0.48338773659E+04  0.50400000000E-02 0.  1.
    8880023    1    1    2    0    0 -0.21013891077E+03 -0.11525361676E+03 -0.21760958255E+03  0.73389774130E+03  0.65864270000E+03 0. -1.
    8880022    1    1    2    0    0  0.21013891077E+03  0.11525361676E+03 -0.43534867652E+04  0.43627606427E+04  0.15294330000E+03 0.  0.
<mgrwt>
<rscale>  0 0.55935558E+03</rscale>
<asrwt>0</asrwt>
<pdfrwt beam="1">  1        1 0.40427853E-01 0.70089369E+03</pdfrwt>
<pdfrwt beam="2">  1       -1 0.74367337E+00 0.70089369E+03</pdfrwt>
<totfact> 0.15628605E-02</totfact>
</mgrwt>
</event>
<event>
 4    2  0.3179755E-007  0.9297309E+03  0.7818608E-02  0.9479897E-01
          1   -1    0    0  501    0  0.00000000000E+00  0.00000000000E+00  0.28659287941E+04  0.28659287941E+04  0.50400000000E-02 0. -1.
         -1   -1    0    0    0  501 -0.00000000000E+00 -0.00000000000E+00 -0.28001747023E+03  0.28001747028E+03  0.50400000000E-02 0.  1.
    8880023    1    1    2    0    0 -0.12209826759E+03 -0.64473348646E+03  0.21527588517E+04  0.23449456572E+04  0.65864270000E+03 0.  0.
    8880022    1    1    2    0    0  0.12209826759E+03  0.64473348646E+03  0.43315247219E+03  0.80100060718E+03  0.15294330000E+03 0.  0.
<mgrwt>
<rscale>  0 0.85782289E+03</rscale>
<asrwt>0</asrwt>
<pdfrwt beam="1">  1        1 0.44091213E+00 0.92973085E+03</pdfrwt>
<pdfrwt beam="2">  1       -1 0.43079610E-01 0.92973085E+03</pdfrwt>
<totfact> 0.41100815E+00</totfact>
</mgrwt>
</event>
<event>
 4    2  0.3179755E-007  0.8064261E+03  0.7818608E-02  0.9697070E-01
         -1   -1    0    0    0  501 -0.00000000000E+00  0.00000000000E+00  0.18745797037E+03  0.18745797044E+03  0.50400000000E-02 0.  1.
          1   -1    0    0  501    0  0.00000000000E+00 -0.00000000000E+00 -0.26725144965E+04  0.26725144965E+04  0.50400000000E-02 0. -1.
    8880023    1    1    2    0    0 -0.43334615426E+03  0.16948150293E+03 -0.93681099985E+03  0.12360978622E+04  0.65864270000E+03 0.  0.
    8880022    1    1    2    0    0  0.43334615426E+03 -0.16948150293E+03 -0.15482455263E+04  0.16238746047E+04  0.15294330000E+03 0.  0.
<mgrwt>
<rscale>  0 0.71191516E+03</rscale>
<asrwt>0</asrwt>
<pdfrwt beam="1">  1        1 0.41115605E+00 0.80642611E+03</pdfrwt>
<pdfrwt beam="2">  1       -1 0.28839690E-01 0.80642611E+03</pdfrwt>
<totfact> 0.11732688E+01</totfact>
</mgrwt>
</event>
<event>
 4    2  0.3179755E-007  0.1041661E+04  0.7818608E-02  0.9328974E-01
         -1   -1    0    0    0  501 -0.00000000000E+00  0.00000000000E+00  0.17091701500E+04  0.17091701500E+04  0.50400000000E-02 0.  1.
          1   -1    0    0  501    0  0.00000000000E+00 -0.00000000000E+00 -0.68379122950E+03  0.68379122952E+03  0.50400000000E-02 0. -1.
    8880023    1    1    2    0    0  0.79972430497E+03  0.10811436178E+03 -0.46343683487E+02  0.10426915279E+04  0.65864270000E+03 0.  0.
    8880022    1    1    2    0    0 -0.79972430497E+03 -0.10811436178E+03  0.10717226040E+04  0.13502698516E+04  0.15294330000E+03 0.  0.
<mgrwt>
<rscale>  0 0.98158700E+03</rscale>
<asrwt>0</asrwt>
<pdfrwt beam="1">  1        1 0.10519865E+00 0.10416611E+04</pdfrwt>
<pdfrwt beam="2">  1       -1 0.26294925E+00 0.10416611E+04</pdfrwt>
<totfact> 0.16272772E+00</totfact>
</mgrwt>
</event>
<event>
 4    2  0.3179755E-007  0.8430849E+03  0.7818608E-02  0.9624391E-01
         -1   -1    0    0    0  501 -0.00000000000E+00  0.00000000000E+00  0.36380698193E+03  0.36380698197E+03  0.50400000000E-02 0.  1.
          1   -1    0    0  501    0  0.00000000000E+00 -0.00000000000E+00 -0.14933650409E+04  0.14933650409E+04  0.50400000000E-02 0. -1.
    8880023    1    1    2    0    0 -0.10598832001E+03  0.51550798648E+03 -0.37042579975E+03  0.92087322009E+03  0.65864270000E+03 0. -1.
    8880022    1    1    2    0    0  0.10598832001E+03 -0.51550798648E+03 -0.75913225922E+03  0.93629880279E+03  0.15294330000E+03 0.  0.
<mgrwt>
<rscale>  0 0.75702676E+03</rscale>
<asrwt>0</asrwt>
<pdfrwt beam="1">  1        1 0.22974846E+00 0.84308494E+03</pdfrwt>
<pdfrwt beam="2">  1       -1 0.55970306E-01 0.84308494E+03</pdfrwt>
<totfact> 0.21824729E+01</totfact>
</mgrwt>
</event>
<event>
 4    2  0.3179755E-007  0.6738955E+03  0.7818608E-02  0.1013012E+00
          1   -1    0    0  501    0  0.00000000000E+00  0.00000000000E+00  0.15241416796E+04  0.15241416797E+04  0.50400000000E-02 0. -1.
         -1   -1    0    0    0  501 -0.00000000000E+00 -0.00000000000E+00 -0.28437467030E+03  0.28437467035E+03  0.50400000000E-02 0.  1.
    8880023    1    1    2    0    0  0.13039782125E+03  0.57631379638E+02  0.13942379357E+04  0.15485588769E+04  0.65864270000E+03 0. -1.
    8880022    1    1    2    0    0 -0.13039782125E+03 -0.57631379638E+02 -0.15447092635E+03  0.25995747308E+03  0.15294330000E+03 0.  0.
<mgrwt>
<rscale>  0 0.50295051E+03</rscale>
<asrwt>0</asrwt>
<pdfrwt beam="1">  1        1 0.23448333E+00 0.67389552E+03</pdfrwt>
<pdfrwt beam="2">  1       -1 0.43749950E-01 0.67389552E+03</pdfrwt>
<totfact> 0.33831843E+01</totfact>
</mgrwt>
</event>
<event>
 4    2  0.3179755E-007  0.6767110E+03  0.7818608E-02  0.1011249E+00
         -1   -1    0    0    0  501 -0.00000000000E+00  0.00000000000E+00  0.19007999604E+03  0.19007999611E+03  0.50400000000E-02 0.  1.
          1   -1    0    0  501    0  0.00000000000E+00 -0.00000000000E+00 -0.25697658969E+04  0.25697658969E+04  0.50400000000E-02 0. -1.
    8880023    1    1    2    0    0 -0.15038906367E+03  0.38866879054E+02 -0.24412697027E+04  0.25333249836E+04  0.65864270000E+03 0. -1.
    8880022    1    1    2    0    0  0.15038906367E+03 -0.38866879054E+02  0.61583801837E+02  0.22652090946E+03  0.15294330000E+03 0.  0.
<mgrwt>
<rscale>  0 0.50981311E+03</rscale>
<asrwt>0</asrwt>
<pdfrwt beam="1">  1        1 0.39534857E+00 0.67671095E+03</pdfrwt>
<pdfrwt beam="2">  1       -1 0.29243078E-01 0.67671095E+03</pdfrwt>
<totfact> 0.13765055E+01</totfact>
</mgrwt>
</event>
<event>
 4    2  0.3179755E-007  0.6712722E+03  0.7818608E-02  0.1014767E+00
         -1   -1    0    0    0  501 -0.00000000000E+00  0.00000000000E+00  0.92621650287E+03  0.92621650288E+03  0.50400000000E-02 0.  1.
          1   -1    0    0  501    0  0.00000000000E+00 -0.00000000000E+00 -0.32965675889E+03  0.32965675892E+03  0.50400000000E-02 0. -1.
    8880023    1    1    2    0    0 -0.54009505574E+02  0.11780966039E+03  0.49332870710E+02  0.67308252181E+03  0.65864270000E+03 0. -1.
    8880022    1    1    2    0    0  0.54009505574E+02 -0.11780966039E+03  0.54722687327E+03  0.58279073999E+03  0.15294330000E+03 0.  0.
<mgrwt>
<rscale>  0 0.49623314E+03</rscale>
<asrwt>0</asrwt>
<pdfrwt beam="1">  1        1 0.50716424E-01 0.67127219E+03</pdfrwt>
<pdfrwt beam="2">  1       -1 0.14249485E+00 0.67127219E+03</pdfrwt>
<totfact> 0.31952154E+01</totfact>
</mgrwt>
</event>
<event>
 4    2  0.3179755E-007  0.7262506E+03  0.7818608E-02  0.9901977E-01
         -1   -1    0    0    0  501 -0.00000000000E+00  0.00000000000E+00  0.81115725639E+03  0.81115725641E+03  0.50400000000E-02 0.  1.
          1   -1    0    0  501    0  0.00000000000E+00 -0.00000000000E+00 -0.51026278057E+03  0.51026278060E+03  0.50400000000E-02 0. -1.
    8880023    1    1    2    0    0 -0.78672223266E+02  0.29570314039E+03 -0.16370039208E+03  0.74447141690E+03  0.65864270000E+03 0.  0.
    8880022    1    1    2    0    0  0.78672223266E+02 -0.29570314039E+03  0.46459486790E+03  0.57694862011E+03  0.15294330000E+03 0.  0.
<mgrwt>
<rscale>  0 0.60165563E+03</rscale>
<asrwt>0</asrwt>
<pdfrwt beam="1">  1        1 0.78501967E-01 0.72625056E+03</pdfrwt>
<pdfrwt beam="2">  1       -1 0.12479342E+00 0.72625056E+03</pdfrwt>
<totfact> 0.24878029E+01</totfact>
</mgrwt>
</event>
<event>
 4    2  0.3179755E-007  0.1105415E+04  0.7818608E-02  0.9255051E-01
         -1   -1    0    0    0  501 -0.00000000000E+00  0.00000000000E+00  0.10944578100E+04  0.10944578100E+04  0.50400000000E-02 0.  1.
          1   -1    0    0  501    0  0.00000000000E+00 -0.00000000000E+00 -0.13048967929E+04  0.13048967929E+04  0.50400000000E-02 0. -1.
    8880023    1    1    2    0    0 -0.55394316599E+03  0.69374238297E+03 -0.76242503375E+03  0.13428453609E+04  0.65864270000E+03 0. -1.
    8880022    1    1    2    0    0  0.55394316599E+03 -0.69374238297E+03  0.55198605084E+03  0.10565092420E+04  0.15294330000E+03 0.  1.
<mgrwt>
<rscale>  0 0.10502835E+04</rscale>
<asrwt>0</asrwt>
<pdfrwt beam="1">  1        1 0.20075335E+00 0.11054147E+04</pdfrwt>
<pdfrwt beam="2">  1       -1 0.16837812E+00 0.11054147E+04</pdfrwt>
<totfact> 0.22494089E+00</totfact>
</mgrwt>
</event>
<event>
 4    2  0.3179755E-007  0.7325908E+03  0.7818608E-02  0.9882080E-01
          1   -1    0    0  501    0  0.00000000000E+00  0.00000000000E+00  0.91632839324E+03  0.91632839325E+03  0.50400000000E-02 0. -1.
         -1   -1    0    0    0  501 -0.00000000000E+00 -0.00000000000E+00 -0.72514734752E+03  0.72514734754E+03  0.50400000000E-02 0.  1.
    8880023    1    1    2    0    0  0.31957081673E+03 -0.27451491917E+02  0.70502233601E+03  0.10167329009E+04  0.65864270000E+03 0. -1.
    8880022    1    1    2    0    0 -0.31957081673E+03  0.27451491917E+02 -0.51384129030E+03  0.62474283985E+03  0.15294330000E+03 0.  0.
<mgrwt>
<rscale>  0 0.61137678E+03</rscale>
<asrwt>0</asrwt>
<pdfrwt beam="1">  1        1 0.14097360E+00 0.73259081E+03</pdfrwt>
<pdfrwt beam="2">  1       -1 0.11156113E+00 0.73259081E+03</pdfrwt>
<totfact> 0.13449995E+01</totfact>
</mgrwt>
</event>
<event>
 4    2  0.3179755E-007  0.1018184E+04  0.7818608E-02  0.9358145E-01
          1   -1    0    0  501    0  0.00000000000E+00  0.00000000000E+00  0.14430474817E+04  0.14430474817E+04  0.50400000000E-02 0. -1.
         -1   -1    0    0    0  501 -0.00000000000E+00 -0.00000000000E+00 -0.10755929414E+04  0.10755929414E+04  0.50400000000E-02 0.  1.
    8880023    1    1    2    0    0 -0.71993664638E+03 -0.29082522533E+03  0.10579895118E+04  0.14683460423E+04  0.65864270000E+03 0. -1.
    8880022    1    1    2    0    0  0.71993664638E+03  0.29082522533E+03 -0.69053497154E+03  0.10502943808E+04  0.15294330000E+03 0.  0.
<mgrwt>
<rscale>  0 0.95601716E+03</rscale>
<asrwt>0</asrwt>
<pdfrwt beam="1">  1        1 0.22200730E+00 0.10181838E+04</pdfrwt>
<pdfrwt beam="2">  1       -1 0.16547584E+00 0.10181838E+04</pdfrwt>
<totfact> 0.19104552E+00</totfact>
</mgrwt>
</event>
<event>
 4    2  0.3179755E-007  0.1271239E+04  0.7818608E-02  0.9090803E-01
         -1   -1    0    0    0  501 -0.00000000000E+00  0.00000000000E+00  0.83365500364E+03  0.83365500365E+03  0.50400000000E-02 0.  1.
          1   -1    0    0  501    0  0.00000000000E+00 -0.00000000000E+00 -0.28177049290E+04  0.28177049290E+04  0.50400000000E-02 0. -1.
    8880023    1    1    2    0    0 -0.10868893756E+04  0.30166004203E+02 -0.21918838323E+04  0.25338515038E+04  0.65864270000E+03 0.  0.
    8880022    1    1    2    0    0  0.10868893756E+04 -0.30166004203E+02  0.20783390696E+03  0.11175084289E+04  0.15294330000E+03 0.  0.
<mgrwt>
<rscale>  0 0.12255250E+04</rscale>
<asrwt>0</asrwt>
<pdfrwt beam="1">  1        1 0.43349306E+00 0.12712390E+04</pdfrwt>
<pdfrwt beam="2">  1       -1 0.12825462E+00 0.12712390E+04</pdfrwt>
<totfact> 0.41692381E-01</totfact>
</mgrwt>
</event>
<event>
 4    2  0.3179755E-007  0.6772331E+03  0.7818608E-02  0.1010934E+00
         -1   -1    0    0    0  501 -0.00000000000E+00  0.00000000000E+00  0.16259560466E+04  0.16259560466E+04  0.50400000000E-02 0.  1.
          1   -1    0    0  501    0  0.00000000000E+00 -0.00000000000E+00 -0.15587688280E+03  0.15587688288E+03  0.50400000000E-02 0. -1.
    8880023    1    1    2    0    0  0.15758087895E+03  0.16621264594E+01  0.67187663731E+03  0.95397217890E+03  0.65864270000E+03 0. -1.
    8880022    1    1    2    0    0 -0.15758087895E+03 -0.16621264594E+01  0.79820252646E+03  0.82786075057E+03  0.15294330000E+03 0.  0.
<mgrwt>
<rscale>  0 0.51105067E+03</rscale>
<asrwt>0</asrwt>
<pdfrwt beam="1">  1        1 0.23981058E-01 0.67723312E+03</pdfrwt>
<pdfrwt beam="2">  1       -1 0.25014709E+00 0.67723312E+03</pdfrwt>
<totfact> 0.14942091E+01</totfact>
</mgrwt>
</event>
<event>
 4    2  0.3179755E-007  0.6627848E+03  0.7818608E-02  0.1021469E+00
          1   -1    0    0  501    0  0.00000000000E+00  0.00000000000E+00  0.27864660550E+04  0.27864660550E+04  0.50400000000E-02 0. -1.
         -1   -1    0    0    0  501 -0.00000000000E+00 -0.00000000000E+00 -0.85433878260E+02  0.85433878409E+02  0.50400000000E-02 0.  1.
    8880023    1    1    2    0    0 -0.25987147989E+02  0.69268255472E+02  0.25787777058E+04  0.26625886060E+04  0.65864270000E+03 0. -1.
    8880022    1    1    2    0    0  0.25987147989E+02 -0.69268255472E+02  0.12225447100E+03  0.20931132738E+03  0.15294330000E+03 0.  0.
<mgrwt>
<rscale>  0 0.47160236E+03</rscale>
<asrwt>0</asrwt>
<pdfrwt beam="1">  1        1 0.42868700E+00 0.66278475E+03</pdfrwt>
<pdfrwt beam="2">  1       -1 0.13143676E-01 0.66278475E+03</pdfrwt>
<totfact> 0.36966770E+01</totfact>
</mgrwt>
</event>
<event>
 4    2  0.3179755E-007  0.6778707E+03  0.7818608E-02  0.1010555E+00
          1   -1    0    0  501    0  0.00000000000E+00  0.00000000000E+00  0.14000535917E+04  0.14000535917E+04  0.50400000000E-02 0. -1.
         -1   -1    0    0    0  501 -0.00000000000E+00 -0.00000000000E+00 -0.38679263540E+03  0.38679263543E+03  0.50400000000E-02 0.  1.
    8880023    1    1    2    0    0  0.34240105324E+02  0.15660799862E+03  0.12749527525E+04  0.14439574707E+04  0.65864270000E+03 0. -1.
    8880022    1    1    2    0    0 -0.34240105324E+02 -0.15660799862E+03 -0.26169179618E+03  0.34288875637E+03  0.15294330000E+03 0.  0.
<mgrwt>
<rscale>  0 0.51254781E+03</rscale>
<asrwt>0</asrwt>
<pdfrwt beam="1">  1        1 0.21539286E+00 0.67787068E+03</pdfrwt>
<pdfrwt beam="2">  1       -1 0.59506560E-01 0.67787068E+03</pdfrwt>
<totfact> 0.22931553E+01</totfact>
</mgrwt>
</event>
<event>
 4    2  0.3179755E-007  0.6809357E+03  0.7818608E-02  0.1008799E+00
          1   -1    0    0  501    0  0.00000000000E+00  0.00000000000E+00  0.10219204381E+04  0.10219204381E+04  0.50400000000E-02 0. -1.
         -1   -1    0    0    0  501 -0.00000000000E+00 -0.00000000000E+00 -0.43884780059E+03  0.43884780062E+03  0.50400000000E-02 0.  1.
    8880023    1    1    2    0    0  0.83134410539E+02  0.15149867106E+03  0.86215799968E+03  0.10986308753E+04  0.65864270000E+03 0. -1.
    8880022    1    1    2    0    0 -0.83134410539E+02 -0.15149867106E+03 -0.27908536219E+03  0.36213736338E+03  0.15294330000E+03 0.  0.
<mgrwt>
<rscale>  0 0.51954652E+03</rscale>
<asrwt>0</asrwt>
<pdfrwt beam="1">  1        1 0.15721853E+00 0.68093567E+03</pdfrwt>
<pdfrwt beam="2">  1       -1 0.67515046E-01 0.68093567E+03</pdfrwt>
<totfact> 0.33445735E+01</totfact>
</mgrwt>
</event>
<event>
 4    2  0.3179755E-007  0.6917824E+03  0.7818608E-02  0.1003317E+00
         -1   -1    0    0    0  501 -0.00000000000E+00  0.00000000000E+00  0.24673060179E+03  0.24673060184E+03  0.50400000000E-02 0.  1.
          1   -1    0    0  501    0  0.00000000000E+00 -0.00000000000E+00 -0.11494210131E+04  0.11494210131E+04  0.50400000000E-02 0. -1.
    8880023    1    1    2    0    0 -0.19660782787E+03  0.78090244213E+02 -0.89992856884E+03  0.11350922251E+04  0.65864270000E+03 0.  0.
    8880022    1    1    2    0    0  0.19660782787E+03 -0.78090244213E+02 -0.27618424421E+01  0.26105938982E+03  0.15294330000E+03 0.  0.
<mgrwt>
<rscale>  0 0.54219549E+03</rscale>
<asrwt>0</asrwt>
<pdfrwt beam="1">  1        1 0.17683400E+00 0.69178243E+03</pdfrwt>
<pdfrwt beam="2">  1       -1 0.37958555E-01 0.69178243E+03</pdfrwt>
<totfact> 0.80160798E+01</totfact>
</mgrwt>
</event>
<event>
 4    2  0.3179755E-007  0.6630049E+03  0.7818608E-02  0.1021269E+00
          1   -1    0    0  501    0  0.00000000000E+00  0.00000000000E+00  0.12296594808E+04  0.12296594809E+04  0.50400000000E-02 0. -1.
         -1   -1    0    0    0  501 -0.00000000000E+00 -0.00000000000E+00 -0.31963489824E+03  0.31963489828E+03  0.50400000000E-02 0.  1.
    8880023    1    1    2    0    0  0.71947270074E+02 -0.24267752297E+02  0.11059158388E+04  0.12894283161E+04  0.65864270000E+03 0. -1.
    8880022    1    1    2    0    0 -0.71947270074E+02  0.24267752297E+02 -0.19589125619E+03  0.25986606308E+03  0.15294330000E+03 0.  0.
<mgrwt>
<rscale>  0 0.47231354E+03</rscale>
<asrwt>0</asrwt>
<pdfrwt beam="1">  1        1 0.18917839E+00 0.66300493E+03</pdfrwt>
<pdfrwt beam="2">  1       -1 0.49174599E-01 0.66300493E+03</pdfrwt>
<totfact> 0.43678592E+01</totfact>
</mgrwt>
</event>
<event>
 4    2  0.3179755E-007  0.7191969E+03  0.7818608E-02  0.9925313E-01
          1   -1    0    0  501    0  0.00000000000E+00  0.00000000000E+00  0.13927885769E+04  0.13927885769E+04  0.50400000000E-02 0. -1.
         -1   -1    0    0    0  501 -0.00000000000E+00 -0.00000000000E+00 -0.27809300715E+03  0.27809300720E+03  0.50400000000E-02 0.  1.
    8880023    1    1    2    0    0 -0.15448423366E+01 -0.28884527204E+03  0.11347043922E+04  0.13434277954E+04  0.65864270000E+03 0. -1.
    8880022    1    1    2    0    0  0.15448423366E+01  0.28884527204E+03 -0.20008822409E+02  0.32745378866E+03  0.15294330000E+03 0.  0.
<mgrwt>
<rscale>  0 0.59050053E+03</rscale>
<asrwt>0</asrwt>
<pdfrwt beam="1">  1        1 0.21427517E+00 0.71919690E+03</pdfrwt>
<pdfrwt beam="2">  1       -1 0.42783540E-01 0.71919690E+03</pdfrwt>
<totfact> 0.43151099E+01</totfact>
</mgrwt>
</event>
<event>
 4    2  0.3179755E-007  0.7034572E+03  0.7818608E-02  0.9983151E-01
         -1   -1    0    0    0  501 -0.00000000000E+00  0.00000000000E+00  0.19002428756E+04  0.19002428756E+04  0.50400000000E-02 0.  1.
          1   -1    0    0  501    0  0.00000000000E+00 -0.00000000000E+00 -0.26075321320E+03  0.26075321325E+03  0.50400000000E-02 0. -1.
    8880023    1    1    2    0    0  0.14131350618E+03  0.20266297821E+03  0.25799793050E+03  0.74927626959E+03  0.65864270000E+03 0. -1.
    8880022    1    1    2    0    0 -0.14131350618E+03 -0.20266297821E+03  0.13814917319E+04  0.14117198193E+04  0.15294330000E+03 0.  0.
<mgrwt>
<rscale>  0 0.56395254E+03</rscale>
<asrwt>0</asrwt>
<pdfrwt beam="1">  1        1 0.40115879E-01 0.70345717E+03</pdfrwt>
<pdfrwt beam="2">  1       -1 0.29234505E+00 0.70345717E+03</pdfrwt>
<totfact> 0.41026524E+00</totfact>
</mgrwt>
</event>
<event>
 4    2  0.3179755E-007  0.7407176E+03  0.7818608E-02  0.9857862E-01
         -1   -1    0    0    0  501 -0.00000000000E+00  0.00000000000E+00  0.15817378153E+03  0.15817378161E+03  0.50400000000E-02 0.  1.
          1   -1    0    0  501    0  0.00000000000E+00 -0.00000000000E+00 -0.22997162594E+04  0.22997162594E+04  0.50400000000E-02 0. -1.
    8880023    1    1    2    0    0  0.20060943655E+03 -0.27314515675E+03 -0.18249742649E+04  0.19695668804E+04  0.65864270000E+03 0.  0.
    8880022    1    1    2    0    0 -0.20060943655E+03  0.27314515675E+03 -0.31656821297E+03  0.48832316058E+03  0.15294330000E+03 0.  0.
<mgrwt>
<rscale>  0 0.62347685E+03</rscale>
<asrwt>0</asrwt>
<pdfrwt beam="1">  1        1 0.35380248E+00 0.74071764E+03</pdfrwt>
<pdfrwt beam="2">  1       -1 0.24334430E-01 0.74071764E+03</pdfrwt>
<totfact> 0.28496294E+01</totfact>
</mgrwt>
</event>
<event>
 4    2  0.3727550E-007  0.8108829E+03  0.7818608E-02  0.9687741E-01
         -1   -1    0    0    0  501 -0.00000000000E+00  0.00000000000E+00  0.12057423225E+04  0.12057423225E+04  0.50400000000E-02 0.  1.
          1   -1    0    0  501    0  0.00000000000E+00 -0.00000000000E+00 -0.14388014635E+04  0.14388014635E+04  0.50400000000E-02 0. -1.
    8880023    1    1    2    0    0  0.28851416096E+03 -0.37480731253E+03 -0.12630077409E+04  0.15009062937E+04  0.65864270000E+03 0. -1.
    8880022    1    1    2    0    0 -0.28851416096E+03  0.37480731253E+03  0.10299485998E+04  0.11436374923E+04  0.15294330000E+03 0.  0.
<mgrwt>
<rscale>  0 0.71751417E+03</rscale>
<asrwt>0</asrwt>
<pdfrwt beam="1">  1        1 0.22135407E+00 0.81088294E+03</pdfrwt>
<pdfrwt beam="2">  1       -1 0.18549882E+00 0.81088294E+03</pdfrwt>
<totfact> 0.14230655E+00</totfact>
</mgrwt>
</event>
<event>
 4    2  0.3179755E-007  0.6789845E+03  0.7818608E-02  0.1009904E+00
          1   -1    0    0  501    0  0.00000000000E+00  0.00000000000E+00  0.19080265850E+04  0.19080265850E+04  0.50400000000E-02 0. -1.
         -1   -1    0    0    0  501 -0.00000000000E+00 -0.00000000000E+00 -0.10707630411E+03  0.10707630423E+03  0.50400000000E-02 0.  1.
    8880023    1    1    2    0    0 -0.11060616935E+03 -0.12237656141E+03  0.13634641414E+04  0.15231724849E+04  0.65864270000E+03 0. -1.
    8880022    1    1    2    0    0  0.11060616935E+03  0.12237656141E+03  0.43748613945E+03  0.49193040433E+03  0.15294330000E+03 0.  1.
<mgrwt>
<rscale>  0 0.51512807E+03</rscale>
<asrwt>0</asrwt>
<pdfrwt beam="1">  1        1 0.29354255E+00 0.67898450E+03</pdfrwt>
<pdfrwt beam="2">  1       -1 0.16473278E-01 0.67898450E+03</pdfrwt>
<totfact> 0.10057565E+02</totfact>
</mgrwt>
</event>
<event>
 4    2  0.3179755E-007  0.7019412E+03  0.7818608E-02  0.9989242E-01
         -1   -1    0    0    0  501 -0.00000000000E+00  0.00000000000E+00  0.48669257800E+03  0.48669257803E+03  0.50400000000E-02 0.  1.
          1   -1    0    0  501    0  0.00000000000E+00 -0.00000000000E+00 -0.11842887013E+04  0.11842887013E+04  0.50400000000E-02 0. -1.
    8880023    1    1    2    0    0 -0.86927970075E+02 -0.22661582888E+03 -0.10207795280E+04  0.12388350402E+04  0.65864270000E+03 0. -1.
    8880022    1    1    2    0    0  0.86927970075E+02  0.22661582888E+03  0.32318340470E+03  0.43214623910E+03  0.15294330000E+03 0.  0.
<mgrwt>
<rscale>  0 0.56124489E+03</rscale>
<asrwt>0</asrwt>
<pdfrwt beam="1">  1        1 0.18219826E+00 0.70194117E+03</pdfrwt>
<pdfrwt beam="2">  1       -1 0.74875782E-01 0.70194117E+03</pdfrwt>
<totfact> 0.20421477E+01</totfact>
</mgrwt>
</event>
<event>
 4    2  0.3179755E-007  0.9502743E+03  0.7818608E-02  0.9449719E-01
          1   -1    0    0  501    0  0.00000000000E+00  0.00000000000E+00  0.14414434290E+04  0.14414434290E+04  0.50400000000E-02 0. -1.
         -1   -1    0    0    0  501 -0.00000000000E+00 -0.00000000000E+00 -0.72788676294E+03  0.72788676296E+03  0.50400000000E-02 0.  1.
    8880023    1    1    2    0    0  0.36102667694E+03 -0.58212612486E+03  0.10282834449E+04  0.14001386131E+04  0.65864270000E+03 0.  0.
    8880022    1    1    2    0    0 -0.36102667694E+03  0.58212612486E+03 -0.31472677878E+03  0.76919157887E+03  0.15294330000E+03 0.  0.
<mgrwt>
<rscale>  0 0.88094511E+03</rscale>
<asrwt>0</asrwt>
<pdfrwt beam="1">  1        1 0.22176052E+00 0.95027433E+03</pdfrwt>
<pdfrwt beam="2">  1       -1 0.11198258E+00 0.95027433E+03</pdfrwt>
<totfact> 0.53152080E+00</totfact>
</mgrwt>
</event>
<event>
 4    2  0.3179755E-007  0.6819649E+03  0.7818608E-02  0.1008233E+00
          1   -1    0    0  501    0  0.00000000000E+00  0.00000000000E+00  0.19292600046E+03  0.19292600053E+03  0.50400000000E-02 0. -1.
         -1   -1    0    0    0  501 -0.00000000000E+00 -0.00000000000E+00 -0.21359531294E+04  0.21359531294E+04  0.50400000000E-02 0.  1.
    8880023    1    1    2    0    0 -0.71859629593E+02 -0.16156149661E+03 -0.44861753235E+03  0.81629272945E+03  0.65864270000E+03 0. -1.
    8880022    1    1    2    0    0  0.71859629593E+02  0.16156149661E+03 -0.14944095966E+04  0.15125864005E+04  0.15294330000E+03 0.  0.
<mgrwt>
<rscale>  0 0.52182852E+03</rscale>
<asrwt>0</asrwt>
<pdfrwt beam="1">  1        1 0.29680925E-01 0.68196490E+03</pdfrwt>
<pdfrwt beam="2">  1       -1 0.32860816E+00 0.68196490E+03</pdfrwt>
<totfact> 0.35604111E+00</totfact>
</mgrwt>
</event>
<event>
 4    2  0.3179755E-007  0.7516149E+03  0.7818608E-02  0.9827320E-01
          1   -1    0    0  501    0  0.00000000000E+00  0.00000000000E+00  0.28103723447E+04  0.28103723447E+04  0.50400000000E-02 0. -1.
         -1   -1    0    0    0  501 -0.00000000000E+00 -0.00000000000E+00 -0.26338474223E+03  0.26338474228E+03  0.50400000000E-02 0.  1.
    8880023    1    1    2    0    0  0.31290730072E+03 -0.18221919750E+03  0.25723090906E+04  0.26798692279E+04  0.65864270000E+03 0.  0.
    8880022    1    1    2    0    0 -0.31290730072E+03  0.18221919750E+03 -0.25321488105E+02  0.39388785911E+03  0.15294330000E+03 0.  0.
<mgrwt>
<rscale>  0 0.63916780E+03</rscale>
<asrwt>0</asrwt>
<pdfrwt beam="1">  1        1 0.43236501E+00 0.75161494E+03</pdfrwt>
<pdfrwt beam="2">  1       -1 0.40520727E-01 0.75161494E+03</pdfrwt>
<totfact> 0.51834874E+00</totfact>
</mgrwt>
</event>
<event>
 4    2  0.3179755E-007  0.7789331E+03  0.7818608E-02  0.9758349E-01
          1   -1    0    0  501    0  0.00000000000E+00  0.00000000000E+00  0.13989308661E+04  0.13989308661E+04  0.50400000000E-02 0. -1.
         -1   -1    0    0    0  501 -0.00000000000E+00 -0.00000000000E+00 -0.74087837790E+03  0.74087837791E+03  0.50400000000E-02 0.  1.
    8880023    1    1    2    0    0  0.12696353464E+03 -0.39598839133E+03  0.12056644746E+04  0.14353966618E+04  0.65864270000E+03 0. -1.
    8880022    1    1    2    0    0 -0.12696353464E+03  0.39598839133E+03 -0.54761198644E+03  0.70441258216E+03  0.15294330000E+03 0.  0.
<mgrwt>
<rscale>  0 0.67646477E+03</rscale>
<asrwt>0</asrwt>
<pdfrwt beam="1">  1        1 0.21522013E+00 0.77893309E+03</pdfrwt>
<pdfrwt beam="2">  1       -1 0.11398129E+00 0.77893309E+03</pdfrwt>
<totfact> 0.55868870E+00</totfact>
</mgrwt>
</event>
<event>
 4    2  0.3179755E-007  0.6858124E+03  0.7818608E-02  0.1006210E+00
         -1   -1    0    0    0  501 -0.00000000000E+00  0.00000000000E+00  0.27575209868E+03  0.27575209872E+03  0.50400000000E-02 0.  1.
          1   -1    0    0  501    0  0.00000000000E+00 -0.00000000000E+00 -0.13618753462E+04  0.13618753462E+04  0.50400000000E-02 0. -1.
    8880023    1    1    2    0    0  0.19093477379E+03 -0.85094756068E+01 -0.11885941117E+04  0.13722589652E+04  0.65864270000E+03 0.  0.
    8880022    1    1    2    0    0 -0.19093477379E+03  0.85094756068E+01  0.10247086415E+03  0.26536847973E+03  0.15294330000E+03 0.  0.
<mgrwt>
<rscale>  0 0.53009125E+03</rscale>
<asrwt>0</asrwt>
<pdfrwt beam="1">  1        1 0.20951928E+00 0.68581244E+03</pdfrwt>
<pdfrwt beam="2">  1       -1 0.42423401E-01 0.68581244E+03</pdfrwt>
<totfact> 0.46232672E+01</totfact>
</mgrwt>
</event>
<event>
 4    2  0.3179755E-007  0.6890028E+03  0.7818608E-02  0.1004630E+00
          1   -1    0    0  501    0  0.00000000000E+00  0.00000000000E+00  0.78557586231E+03  0.78557586233E+03  0.50400000000E-02 0. -1.
         -1   -1    0    0    0  501 -0.00000000000E+00 -0.00000000000E+00 -0.61696178371E+03  0.61696178373E+03  0.50400000000E-02 0.  1.
    8880023    1    1    2    0    0  0.70113115907E+02  0.18973356333E+03  0.59240971348E+03  0.90866613724E+03  0.65864270000E+03 0. -1.
    8880022    1    1    2    0    0 -0.70113115907E+02 -0.18973356333E+03 -0.42379563487E+03  0.49387150882E+03  0.15294330000E+03 0.  0.
<mgrwt>
<rscale>  0 0.53665782E+03</rscale>
<asrwt>0</asrwt>
<pdfrwt beam="1">  1        1 0.12085782E+00 0.68900282E+03</pdfrwt>
<pdfrwt beam="2">  1       -1 0.94917198E-01 0.68900282E+03</pdfrwt>
<totfact> 0.25240331E+01</totfact>
</mgrwt>
</event>
<event>
 4    2  0.3179755E-007  0.8211431E+03  0.7818608E-02  0.9666817E-01
         -1   -1    0    0    0  501 -0.00000000000E+00  0.00000000000E+00  0.59781550536E+03  0.59781550538E+03  0.50400000000E-02 0.  1.
          1   -1    0    0  501    0  0.00000000000E+00 -0.00000000000E+00 -0.12823570138E+04  0.12823570139E+04  0.50400000000E-02 0. -1.
    8880023    1    1    2    0    0  0.33479549713E+03 -0.35829845120E+03 -0.98711897688E+03  0.12840093013E+04  0.65864270000E+03 0. -1.
    8880022    1    1    2    0    0 -0.33479549713E+03  0.35829845120E+03  0.30257746839E+03  0.59616321794E+03  0.15294330000E+03 0.  0.
<mgrwt>
<rscale>  0 0.73027312E+03</rscale>
<asrwt>0</asrwt>
<pdfrwt beam="1">  1        1 0.19728569E+00 0.82114311E+03</pdfrwt>
<pdfrwt beam="2">  1       -1 0.91971617E-01 0.82114311E+03</pdfrwt>
<totfact> 0.10991501E+01</totfact>
</mgrwt>
</event>
<event>
 4    2  0.3179755E-007  0.9445991E+03  0.7818608E-02  0.9457928E-01
          1   -1    0    0  501    0  0.00000000000E+00  0.00000000000E+00  0.47905608641E+03  0.47905608644E+03  0.50400000000E-02 0. -1.
         -1   -1    0    0    0  501 -0.00000000000E+00 -0.00000000000E+00 -0.16875026066E+04  0.16875026066E+04  0.50400000000E-02 0.  1.
    8880023    1    1    2    0    0 -0.45380677115E+03  0.50251034886E+03 -0.11225652199E+04  0.14671128502E+04  0.65864270000E+03 0.  1.
    8880022    1    1    2    0    0  0.45380677115E+03 -0.50251034886E+03 -0.85881300340E+02  0.69944584280E+03  0.15294330000E+03 0.  0.
<mgrwt>
<rscale>  0 0.87457992E+03</rscale>
<asrwt>0</asrwt>
<pdfrwt beam="1">  1        1 0.73700937E-01 0.94459909E+03</pdfrwt>
<pdfrwt beam="2">  1       -1 0.25961578E+00 0.94459909E+03</pdfrwt>
<totfact> 0.28835049E+00</totfact>
</mgrwt>
</event>
<event>
 4    2  0.3179755E-007  0.8541645E+03  0.7818608E-02  0.9604029E-01
          1   -1    0    0  501    0  0.00000000000E+00  0.00000000000E+00  0.99729755594E+03  0.99729755595E+03  0.50400000000E-02 0. -1.
         -1   -1    0    0    0  501 -0.00000000000E+00 -0.00000000000E+00 -0.53524829837E+03  0.53524829839E+03  0.50400000000E-02 0.  1.
    8880023    1    1    2    0    0  0.45124942559E+03 -0.30357985506E+03  0.45445460278E+03  0.96753602762E+03  0.65864270000E+03 0.  0.
    8880022    1    1    2    0    0 -0.45124942559E+03  0.30357985506E+03  0.75946547967E+01  0.56500982672E+03  0.15294330000E+03 0.  0.
<mgrwt>
<rscale>  0 0.77030076E+03</rscale>
<asrwt>0</asrwt>
<pdfrwt beam="1">  1        1 0.15343039E+00 0.85416449E+03</pdfrwt>
<pdfrwt beam="2">  1       -1 0.82345892E-01 0.85416449E+03</pdfrwt>
<totfact> 0.22667792E+01</totfact>
</mgrwt>
</event>
<event>
 4    2  0.3179755E-007  0.1086805E+04  0.7818608E-02  0.9275891E-01
         -1   -1    0    0    0  501 -0.00000000000E+00  0.00000000000E+00  0.55808110992E+03  0.55808110994E+03  0.50400000000E-02 0.  1.
          1   -1    0    0  501    0  0.00000000000E+00 -0.00000000000E+00 -0.27869169509E+04  0.27869169509E+04  0.50400000000E-02 0. -1.
    8880023    1    1    2    0    0 -0.45941601723E+03 -0.73230587977E+03 -0.22146813500E+04  0.24669735845E+04  0.65864270000E+03 0. -1.
    8880022    1    1    2    0    0  0.45941601723E+03  0.73230587977E+03 -0.14154490995E+02  0.87802447634E+03  0.15294330000E+03 0.  0.
<mgrwt>
<rscale>  0 0.10303298E+04</rscale>
<asrwt>0</asrwt>
<pdfrwt beam="1">  1        1 0.42875645E+00 0.10868050E+04</pdfrwt>
<pdfrwt beam="2">  1       -1 0.85858634E-01 0.10868050E+04</pdfrwt>
<totfact> 0.11523756E+00</totfact>
</mgrwt>
</event>
<event>
 4    2  0.3179755E-007  0.6665698E+03  0.7818608E-02  0.1018251E+00
         -1   -1    0    0    0  501 -0.00000000000E+00  0.00000000000E+00  0.51475393136E+03  0.51475393138E+03  0.50400000000E-02 0.  1.
          1   -1    0    0  501    0  0.00000000000E+00 -0.00000000000E+00 -0.19728782107E+04  0.19728782107E+04  0.50400000000E-02 0. -1.
    8880023    1    1    2    0    0 -0.93978690795E+02  0.40903767683E+02 -0.18975362262E+04  0.20112083553E+04  0.65864270000E+03 0. -1.
    8880022    1    1    2    0    0  0.93978690795E+02 -0.40903767683E+02  0.43941194686E+03  0.47642378676E+03  0.15294330000E+03 0.  0.
<mgrwt>
<rscale>  0 0.48323014E+03</rscale>
<asrwt>0</asrwt>
<pdfrwt beam="1">  1        1 0.30351972E+00 0.66656982E+03</pdfrwt>
<pdfrwt beam="2">  1       -1 0.79192914E-01 0.66656982E+03</pdfrwt>
<totfact> 0.52803245E+00</totfact>
</mgrwt>
</event>
<event>
 4    2  0.3179755E-007  0.7071790E+03  0.7818608E-02  0.9968629E-01
         -1   -1    0    0    0  501 -0.00000000000E+00  0.00000000000E+00  0.13120528361E+04  0.13120528361E+04  0.50400000000E-02 0.  1.
          1   -1    0    0  501    0  0.00000000000E+00 -0.00000000000E+00 -0.44608634379E+03  0.44608634382E+03  0.50400000000E-02 0. -1.
    8880023    1    1    2    0    0  0.25241887321E+03  0.50760693525E+02 -0.12920446711E+03  0.71888520373E+03  0.65864270000E+03 0. -1.
    8880022    1    1    2    0    0 -0.25241887321E+03 -0.50760693525E+02  0.99517095945E+03  0.10392539762E+04  0.15294330000E+03 0.  0.
<mgrwt>
<rscale>  0 0.57047437E+03</rscale>
<asrwt>0</asrwt>
<pdfrwt beam="1">  1        1 0.68628667E-01 0.70717900E+03</pdfrwt>
<pdfrwt beam="2">  1       -1 0.20185429E+00 0.70717900E+03</pdfrwt>
<totfact> 0.78681647E+00</totfact>
</mgrwt>
</event>
<event>
 4    2  0.3179755E-007  0.8992452E+03  0.7818608E-02  0.9527244E-01
          1   -1    0    0  501    0  0.00000000000E+00  0.00000000000E+00  0.11304893053E+04  0.11304893053E+04  0.50400000000E-02 0. -1.
         -1   -1    0    0    0  501 -0.00000000000E+00 -0.00000000000E+00 -0.96427054070E+03  0.96427054071E+03  0.50400000000E-02 0.  1.
    8880023    1    1    2    0    0  0.84147347498E+02  0.60642473932E+03  0.79766199149E+03  0.12020426779E+04  0.65864270000E+03 0.  0.
    8880022    1    1    2    0    0 -0.84147347498E+02 -0.60642473932E+03 -0.63144322687E+03  0.89271716816E+03  0.15294330000E+03 0.  0.
<mgrwt>
<rscale>  0 0.82304664E+03</rscale>
<asrwt>0</asrwt>
<pdfrwt beam="1">  1        1 0.17392143E+00 0.89924521E+03</pdfrwt>
<pdfrwt beam="2">  1       -1 0.14834931E+00 0.89924521E+03</pdfrwt>
<totfact> 0.43920319E+00</totfact>
</mgrwt>
</event>
<event>
 4    2  0.3179755E-007  0.7524746E+03  0.7818608E-02  0.9824995E-01
          1   -1    0    0  501    0  0.00000000000E+00  0.00000000000E+00  0.51383653408E+03  0.51383653411E+03  0.50400000000E-02 0. -1.
         -1   -1    0    0    0  501 -0.00000000000E+00 -0.00000000000E+00 -0.73178993740E+03  0.73178993742E+03  0.50400000000E-02 0.  1.
    8880023    1    1    2    0    0 -0.33858966030E+03  0.13328464667E+03  0.71923516381E+02  0.75590406374E+03  0.65864270000E+03 0.  0.
    8880022    1    1    2    0    0  0.33858966030E+03 -0.13328464667E+03 -0.28987691970E+03  0.48972240779E+03  0.15294330000E+03 0.  0.
<mgrwt>
<rscale>  0 0.64038270E+03</rscale>
<asrwt>0</asrwt>
<pdfrwt beam="1">  1        1 0.79051774E-01 0.75247456E+03</pdfrwt>
<pdfrwt beam="2">  1       -1 0.11258307E+00 0.75247456E+03</pdfrwt>
<totfact> 0.31542920E+01</totfact>
</mgrwt>
</event>
<event>
 4    2  0.3179755E-007  0.8246387E+03  0.7818608E-02  0.9659855E-01
         -1   -1    0    0    0  501 -0.00000000000E+00  0.00000000000E+00  0.12721638306E+04  0.12721638306E+04  0.50400000000E-02 0.  1.
          1   -1    0    0  501    0  0.00000000000E+00 -0.00000000000E+00 -0.94170634888E+03  0.94170634889E+03  0.50400000000E-02 0. -1.
    8880023    1    1    2    0    0  0.30449508889E+03  0.39179280247E+03 -0.68586746212E+03  0.10725871718E+04  0.65864270000E+03 0. -1.
    8880022    1    1    2    0    0 -0.30449508889E+03 -0.39179280247E+03  0.10163249439E+04  0.11412830077E+04  0.15294330000E+03 0.  0.
<mgrwt>
<rscale>  0 0.73458136E+03</rscale>
<asrwt>0</asrwt>
<pdfrwt beam="1">  1        1 0.14487790E+00 0.82463875E+03</pdfrwt>
<pdfrwt beam="2">  1       -1 0.19571751E+00 0.82463875E+03</pdfrwt>
<totfact> 0.27895875E+00</totfact>
</mgrwt>
</event>
<event>
 4    2  0.3179755E-007  0.6724733E+03  0.7818608E-02  0.1013949E+00
         -1   -1    0    0    0  501 -0.00000000000E+00  0.00000000000E+00  0.43567884500E+03  0.43567884503E+03  0.50400000000E-02 0.  1.
          1   -1    0    0  501    0  0.00000000000E+00 -0.00000000000E+00 -0.71324857774E+03  0.71324857776E+03  0.50400000000E-02 0. -1.
    8880023    1    1    2    0    0 -0.10338010738E+03 -0.87879179841E+02 -0.50658090591E+03  0.84192910471E+03  0.65864270000E+03 0.  0.
    8880022    1    1    2    0    0  0.10338010738E+03  0.87879179841E+02  0.22901117317E+03  0.30699831808E+03  0.15294330000E+03 0.  1.
<mgrwt>
<rscale>  0 0.49935079E+03</rscale>
<asrwt>0</asrwt>
<pdfrwt beam="1">  1        1 0.10973055E+00 0.67247335E+03</pdfrwt>
<pdfrwt beam="2">  1       -1 0.67027515E-01 0.67247335E+03</pdfrwt>
<totfact> 0.61394338E+01</totfact>
</mgrwt>
</event>
<event>
 4    2  0.3179755E-007  0.8787131E+03  0.7818608E-02  0.9561106E-01
         -1   -1    0    0    0  501 -0.00000000000E+00  0.00000000000E+00  0.66757343850E+03  0.66757343852E+03  0.50400000000E-02 0.  1.
          1   -1    0    0  501    0  0.00000000000E+00 -0.00000000000E+00 -0.16582202849E+04  0.16582202849E+04  0.50400000000E-02 0. -1.
    8880023    1    1    2    0    0 -0.26498816726E+03 -0.51779129552E+03 -0.13606054565E+04  0.16196863798E+04  0.65864270000E+03 0. -1.
    8880022    1    1    2    0    0  0.26498816726E+03  0.51779129552E+03  0.36995861008E+03  0.70610734360E+03  0.15294330000E+03 0.  0.
<mgrwt>
<rscale>  0 0.79924814E+03</rscale>
<asrwt>0</asrwt>
<pdfrwt beam="1">  1        1 0.25511081E+00 0.87871313E+03</pdfrwt>
<pdfrwt beam="2">  1       -1 0.10270361E+00 0.87871313E+03</pdfrwt>
<totfact> 0.46697401E+00</totfact>
</mgrwt>
</event>
<event>
 4    2  0.3179755E-007  0.6989089E+03  0.7818608E-02  0.1000176E+00
          1   -1    0    0  501    0  0.00000000000E+00  0.00000000000E+00  0.84527035218E+03  0.84527035220E+03  0.50400000000E-02 0. -1.
         -1   -1    0    0    0  501 -0.00000000000E+00 -0.00000000000E+00 -0.55878508557E+03  0.55878508559E+03  0.50400000000E-02 0.  1.
    8880023    1    1    2    0    0 -0.89066117741E+02 -0.21617268751E+03  0.64396657118E+03  0.95035075379E+03  0.65864270000E+03 0. -1.
    8880022    1    1    2    0    0  0.89066117741E+02  0.21617268751E+03 -0.35748130457E+03  0.45370468401E+03  0.15294330000E+03 0.  0.
<mgrwt>
<rscale>  0 0.55573218E+03</rscale>
<asrwt>0</asrwt>
<pdfrwt beam="1">  1        1 0.13004159E+00 0.69890887E+03</pdfrwt>
<pdfrwt beam="2">  1       -1 0.85966937E-01 0.69890887E+03</pdfrwt>
<totfact> 0.27869442E+01</totfact>
</mgrwt>
</event>
<event>
 4    2  0.3179755E-007  0.1148778E+04  0.7818608E-02  0.9208597E-01
         -1   -1    0    0    0  501 -0.00000000000E+00  0.00000000000E+00  0.64563007622E+03  0.64563007624E+03  0.50400000000E-02 0.  1.
          1   -1    0    0  501    0  0.00000000000E+00 -0.00000000000E+00 -0.25695641359E+04  0.25695641359E+04  0.50400000000E-02 0. -1.
    8880023    1    1    2    0    0 -0.28815868855E+03 -0.89601628947E+03 -0.95116674013E+02  0.11527089870E+04  0.65864270000E+03 0.  1.
    8880022    1    1    2    0    0  0.28815868855E+03  0.89601628947E+03 -0.18288173856E+04  0.20624852251E+04  0.15294330000E+03 0.  0.
<mgrwt>
<rscale>  0 0.10965131E+04</rscale>
<asrwt>0</asrwt>
<pdfrwt beam="1">  1        1 0.39531755E+00 0.11487780E+04</pdfrwt>
<pdfrwt beam="2">  1       -1 0.99327705E-01 0.11487780E+04</pdfrwt>
<totfact> 0.11703299E+00</totfact>
</mgrwt>
</event>
<event>
 4    2  0.3179755E-007  0.8654925E+03  0.7818608E-02  0.9583867E-01
          1   -1    0    0  501    0  0.00000000000E+00  0.00000000000E+00  0.19462728565E+04  0.19462728565E+04  0.50400000000E-02 0. -1.
         -1   -1    0    0    0  501 -0.00000000000E+00 -0.00000000000E+00 -0.37451872280E+03  0.37451872284E+03  0.50400000000E-02 0.  1.
    8880023    1    1    2    0    0 -0.37301677458E+03 -0.41967311973E+03  0.28944377690E+03  0.91260886901E+03  0.65864270000E+03 0.  1.
    8880022    1    1    2    0    0  0.37301677458E+03  0.41967311973E+03  0.12823103568E+04  0.14081827103E+04  0.15294330000E+03 0.  0.
<mgrwt>
<rscale>  0 0.78373232E+03</rscale>
<asrwt>0</asrwt>
<pdfrwt beam="1">  1        1 0.29942659E+00 0.86549249E+03</pdfrwt>
<pdfrwt beam="2">  1       -1 0.57618265E-01 0.86549249E+03</pdfrwt>
<totfact> 0.10160241E+01</totfact>
</mgrwt>
</event>
<event>
 4    2  0.3179755E-007  0.7034371E+03  0.7818608E-02  0.9983231E-01
         -1   -1    0    0    0  501 -0.00000000000E+00  0.00000000000E+00  0.12687405949E+04  0.12687405949E+04  0.50400000000E-02 0.  1.
          1   -1    0    0  501    0  0.00000000000E+00 -0.00000000000E+00 -0.71282902361E+03  0.71282902363E+03  0.50400000000E-02 0. -1.
    8880023    1    1    2    0    0  0.24427982891E+03  0.36617581657E+02 -0.51509115271E+03  0.87186156238E+03  0.65864270000E+03 0. -1.
    8880022    1    1    2    0    0 -0.24427982891E+03 -0.36617581657E+02  0.10710027240E+04  0.11097080562E+04  0.15294330000E+03 0.  0.
<mgrwt>
<rscale>  0 0.56391681E+03</rscale>
<asrwt>0</asrwt>
<pdfrwt beam="1">  1        1 0.10966600E+00 0.70343705E+03</pdfrwt>
<pdfrwt beam="2">  1       -1 0.19519086E+00 0.70343705E+03</pdfrwt>
<totfact> 0.44980497E+00</totfact>
</mgrwt>
</event>
<event>
 4    2  0.3532894E-007  0.6972634E+03  0.7818608E-02  0.1000875E+00
          1   -1    0    0  501    0  0.00000000000E+00  0.00000000000E+00  0.11015978050E+04  0.11015978050E+04  0.50400000000E-02 0. -1.
         -1   -1    0    0    0  501 -0.00000000000E+00 -0.00000000000E+00 -0.69295426540E+03  0.69295426541E+03  0.50400000000E-02 0.  1.
    8880023    1    1    2    0    0 -0.22882482373E+03 -0.22800689699E+01  0.95519172350E+03  0.11826104319E+04  0.65864270000E+03 0. -1.
    8880022    1    1    2    0    0  0.22882482373E+03  0.22800689699E+01 -0.54654818389E+03  0.61194163856E+03  0.15294330000E+03 0.  0.
<mgrwt>
<rscale>  0 0.55268280E+03</rscale>
<asrwt>0</asrwt>
<pdfrwt beam="1">  1        1 0.16947658E+00 0.69726337E+03</pdfrwt>
<pdfrwt beam="2">  1       -1 0.10660835E+00 0.69726337E+03</pdfrwt>
<totfact> 0.10815393E+01</totfact>
</mgrwt>
</event>
<event>
 4    2  0.3290311E-007  0.7640990E+03  0.7818608E-02  0.9794609E-01
         -1   -1    0    0    0  501 -0.00000000000E+00  0.00000000000E+00  0.63051948517E+03  0.63051948519E+03  0.50400000000E-02 0.  1.
          1   -1    0    0  501    0  0.00000000000E+00 -0.00000000000E+00 -0.19153705049E+04  0.19153705049E+04  0.50400000000E-02 0. -1.
    8880023    1    1    2    0    0  0.26870826190E+03  0.27898545993E+03 -0.17572193662E+04  0.19161594726E+04  0.65864270000E+03 0. -1.
    8880022    1    1    2    0    0 -0.26870826190E+03 -0.27898545993E+03  0.47236834655E+03  0.62973051752E+03  0.15294330000E+03 0.  0.
<mgrwt>
<rscale>  0 0.65652659E+03</rscale>
<asrwt>0</asrwt>
<pdfrwt beam="1">  1        1 0.29467238E+00 0.76409896E+03</pdfrwt>
<pdfrwt beam="2">  1       -1 0.97002998E-01 0.76409896E+03</pdfrwt>
<totfact> 0.36391657E+00</totfact>
</mgrwt>
</event>
<event>
 4    2  0.3179755E-007  0.9937694E+03  0.7818608E-02  0.9389755E-01
          1   -1    0    0  501    0  0.00000000000E+00  0.00000000000E+00  0.10043685757E+04  0.10043685757E+04  0.50400000000E-02 0. -1.
         -1   -1    0    0    0  501 -0.00000000000E+00 -0.00000000000E+00 -0.78441453248E+03  0.78441453250E+03  0.50400000000E-02 0.  1.
    8880023    1    1    2    0    0 -0.42902575223E+03 -0.60803312900E+03 -0.13992882567E+02  0.99386789317E+03  0.65864270000E+03 0.  0.
    8880022    1    1    2    0    0  0.42902575223E+03  0.60803312900E+03  0.23394692582E+03  0.79491521507E+03  0.15294330000E+03 0.  0.
<mgrwt>
<rscale>  0 0.92923626E+03</rscale>
<asrwt>0</asrwt>
<pdfrwt beam="1">  1        1 0.15451824E+00 0.99376938E+03</pdfrwt>
<pdfrwt beam="2">  1       -1 0.12067916E+00 0.99376938E+03</pdfrwt>
<totfact> 0.91949727E+00</totfact>
</mgrwt>
</event>
<event>
 4    2  0.3179755E-007  0.6644833E+03  0.7818608E-02  0.1019971E+00
          1   -1    0    0  501    0  0.00000000000E+00  0.00000000000E+00  0.28649941558E+04  0.28649941558E+04  0.50400000000E-02 0. -1.
         -1   -1    0    0    0  501 -0.00000000000E+00 -0.00000000000E+00 -0.13087645741E+03  0.13087645751E+03  0.50400000000E-02 0.  1.
    8880023    1    1    2    0    0  0.53084822464E+01  0.87747949664E+02  0.27399439598E+04  0.28193671261E+04  0.65864270000E+03 0. -1.
    8880022    1    1    2    0    0 -0.53084822464E+01 -0.87747949664E+02 -0.58262614335E+01  0.17650348719E+03  0.15294330000E+03 0.  0.
<mgrwt>
<rscale>  0 0.47697125E+03</rscale>
<asrwt>0</asrwt>
<pdfrwt beam="1">  1        1 0.44076834E+00 0.66448332E+03</pdfrwt>
<pdfrwt beam="2">  1       -1 0.20134839E-01 0.66448332E+03</pdfrwt>
<totfact> 0.16216282E+01</totfact>
</mgrwt>
</event>
<event>
 4    2  0.3179755E-007  0.8063239E+03  0.7818608E-02  0.9697286E-01
         -1   -1    0    0    0  501 -0.00000000000E+00  0.00000000000E+00  0.52408633802E+03  0.52408633804E+03  0.50400000000E-02 0.  1.
          1   -1    0    0  501    0  0.00000000000E+00 -0.00000000000E+00 -0.11610888839E+04  0.11610888839E+04  0.50400000000E-02 0. -1.
    8880023    1    1    2    0    0  0.43684053733E+03 -0.15974455078E+03 -0.83156804122E+03  0.11583020288E+04  0.65864270000E+03 0. -1.
    8880022    1    1    2    0    0 -0.43684053733E+03  0.15974455078E+03  0.19456549539E+03  0.52687319307E+03  0.15294330000E+03 0.  0.
<mgrwt>
<rscale>  0 0.71178629E+03</rscale>
<asrwt>0</asrwt>
<pdfrwt beam="1">  1        1 0.17862906E+00 0.80632387E+03</pdfrwt>
<pdfrwt beam="2">  1       -1 0.80628668E-01 0.80632387E+03</pdfrwt>
<totfact> 0.17933150E+01</totfact>
</mgrwt>
</event>
<event>
 4    2  0.3179755E-007  0.7118740E+03  0.7818608E-02  0.9951107E-01
         -1   -1    0    0    0  501 -0.00000000000E+00  0.00000000000E+00  0.52749247008E+03  0.52749247010E+03  0.50400000000E-02 0.  1.
          1   -1    0    0  501    0  0.00000000000E+00 -0.00000000000E+00 -0.14743854604E+04  0.14743854604E+04  0.50400000000E-02 0. -1.
    8880023    1    1    2    0    0  0.26352343493E+03 -0.59243656261E+02 -0.13301677852E+04  0.15086785458E+04  0.65864270000E+03 0.  0.
    8880022    1    1    2    0    0 -0.26352343493E+03  0.59243656261E+02  0.38327479493E+03  0.49319938464E+03  0.15294330000E+03 0.  0.
<mgrwt>
<rscale>  0 0.57847102E+03</rscale>
<asrwt>0</asrwt>
<pdfrwt beam="1">  1        1 0.22682853E+00 0.71187402E+03</pdfrwt>
<pdfrwt beam="2">  1       -1 0.81152688E-01 0.71187402E+03</pdfrwt>
<totfact> 0.10761910E+01</totfact>
</mgrwt>
</event>
<event>
 4    2  0.3179755E-007  0.7338028E+03  0.7818608E-02  0.9878381E-01
         -1   -1    0    0    0  501 -0.00000000000E+00  0.00000000000E+00  0.17229630477E+03  0.17229630485E+03  0.50400000000E-02 0.  1.
          1   -1    0    0  501    0  0.00000000000E+00 -0.00000000000E+00 -0.20928685754E+04  0.20928685754E+04  0.50400000000E-02 0. -1.
    8880023    1    1    2    0    0 -0.26653627081E+03 -0.18334335402E+03 -0.16819723251E+04  0.18350742431E+04  0.65864270000E+03 0. -1.
    8880022    1    1    2    0    0  0.26653627081E+03  0.18334335402E+03 -0.23859994553E+03  0.43009063712E+03  0.15294330000E+03 0.  0.
<mgrwt>
<rscale>  0 0.61320564E+03</rscale>
<asrwt>0</asrwt>
<pdfrwt beam="1">  1        1 0.32197976E+00 0.73380282E+03</pdfrwt>
<pdfrwt beam="2">  1       -1 0.26507125E-01 0.73380282E+03</pdfrwt>
<totfact> 0.33930733E+01</totfact>
</mgrwt>
</event>
<event>
 4    2  0.3430172E-007  0.6672185E+03  0.7818608E-02  0.1017740E+00
         -1   -1    0    0    0  501 -0.00000000000E+00  0.00000000000E+00  0.63462306745E+03  0.63462306747E+03  0.50400000000E-02 0.  1.
          1   -1    0    0  501    0  0.00000000000E+00 -0.00000000000E+00 -0.16649295082E+04  0.16649295082E+04  0.50400000000E-02 0. -1.
    8880023    1    1    2    0    0 -0.57820787376E+02 -0.89594212112E+02 -0.15821388478E+04  0.17170742286E+04  0.65864270000E+03 0. -1.
    8880022    1    1    2    0    0  0.57820787376E+02  0.89594212112E+02  0.55183240710E+03  0.58247834709E+03  0.15294330000E+03 0.  0.
<mgrwt>
<rscale>  0 0.48510885E+03</rscale>
<asrwt>0</asrwt>
<pdfrwt beam="1">  1        1 0.25614300E+00 0.66721853E+03</pdfrwt>
<pdfrwt beam="2">  1       -1 0.97634318E-01 0.66721853E+03</pdfrwt>
<totfact> 0.53720684E+00</totfact>
</mgrwt>
</event>
<event>
 4    2  0.3179755E-007  0.6750655E+03  0.7818608E-02  0.1012265E+00
          1   -1    0    0  501    0  0.00000000000E+00  0.00000000000E+00  0.36230373723E+03  0.36230373727E+03  0.50400000000E-02 0. -1.
         -1   -1    0    0    0  501 -0.00000000000E+00 -0.00000000000E+00 -0.12214264895E+04  0.12214264895E+04  0.50400000000E-02 0.  1.
    8880023    1    1    2    0    0 -0.12311265877E+02  0.14748454838E+03  0.23833881319E+02  0.67548613564E+03  0.65864270000E+03 0. -1.
    8880022    1    1    2    0    0  0.12311265877E+02 -0.14748454838E+03 -0.88295663359E+03  0.90824409114E+03  0.15294330000E+03 0.  0.
<mgrwt>
<rscale>  0 0.50584286E+03</rscale>
<asrwt>0</asrwt>
<pdfrwt beam="1">  1        1 0.55739037E-01 0.67506553E+03</pdfrwt>
<pdfrwt beam="2">  1       -1 0.18791177E+00 0.67506553E+03</pdfrwt>
<totfact> 0.12989823E+01</totfact>
</mgrwt>
</event>
<event>
 4    2  0.3179755E-007  0.8586461E+03  0.7818608E-02  0.9595976E-01
          1   -1    0    0  501    0  0.00000000000E+00  0.00000000000E+00  0.10634956463E+04  0.10634956463E+04  0.50400000000E-02 0. -1.
         -1   -1    0    0    0  501 -0.00000000000E+00 -0.00000000000E+00 -0.74730687127E+03  0.74730687129E+03  0.50400000000E-02 0.  1.
    8880023    1    1    2    0    0 -0.12377055019E+03  0.53679030741E+03  0.71200067811E+03  0.11154452721E+04  0.65864270000E+03 0. -1.
    8880022    1    1    2    0    0  0.12377055019E+03 -0.53679030741E+03 -0.39581190307E+03  0.69535724548E+03  0.15294330000E+03 0.  0.
<mgrwt>
<rscale>  0 0.77563071E+03</rscale>
<asrwt>0</asrwt>
<pdfrwt beam="1">  1        1 0.16361472E+00 0.85864614E+03</pdfrwt>
<pdfrwt beam="2">  1       -1 0.11497029E+00 0.85864614E+03</pdfrwt>
<totfact> 0.94561203E+00</totfact>
</mgrwt>
</event>
<event>
 4    2  0.3179755E-007  0.7499588E+03  0.7818608E-02  0.9831833E-01
         -1   -1    0    0    0  501 -0.00000000000E+00  0.00000000000E+00  0.72869811241E+03  0.72869811243E+03  0.50400000000E-02 0.  1.
          1   -1    0    0  501    0  0.00000000000E+00 -0.00000000000E+00 -0.45825790819E+04  0.45825790819E+04  0.50400000000E-02 0. -1.
    8880023    1    1    2    0    0  0.25855981520E+03 -0.24854533474E+03 -0.44970504899E+04  0.45591557636E+04  0.65864270000E+03 0. -1.
    8880022    1    1    2    0    0 -0.25855981520E+03  0.24854533474E+03  0.64316952047E+03  0.75212143071E+03  0.15294330000E+03 0.  0.
<mgrwt>
<rscale>  0 0.63681825E+03</rscale>
<asrwt>0</asrwt>
<pdfrwt beam="1">  1        1 0.70501215E+00 0.74995878E+03</pdfrwt>
<pdfrwt beam="2">  1       -1 0.11210740E+00 0.74995878E+03</pdfrwt>
<totfact> 0.22259071E-02</totfact>
</mgrwt>
</event>
<event>
 4    2  0.3179755E-007  0.9063422E+03  0.7818608E-02  0.9515926E-01
         -1   -1    0    0    0  501 -0.00000000000E+00  0.00000000000E+00  0.49256667162E+03  0.49256667164E+03  0.50400000000E-02 0.  1.
          1   -1    0    0  501    0  0.00000000000E+00 -0.00000000000E+00 -0.17418702761E+04  0.17418702761E+04  0.50400000000E-02 0. -1.
    8880023    1    1    2    0    0 -0.53966005814E+03 -0.31050455479E+03 -0.13072403550E+04  0.15907022377E+04  0.65864270000E+03 0.  0.
    8880022    1    1    2    0    0  0.53966005814E+03  0.31050455479E+03  0.57936750508E+02  0.64373471009E+03  0.15294330000E+03 0.  0.
<mgrwt>
<rscale>  0 0.83119778E+03</rscale>
<asrwt>0</asrwt>
<pdfrwt beam="1">  1        1 0.26798004E+00 0.90634224E+03</pdfrwt>
<pdfrwt beam="2">  1       -1 0.75779489E-01 0.90634224E+03</pdfrwt>
<totfact> 0.79634433E+00</totfact>
</mgrwt>
</event>
<event>
 4    2  0.3179755E-007  0.7258634E+03  0.7818608E-02  0.9903224E-01
          1   -1    0    0  501    0  0.00000000000E+00  0.00000000000E+00  0.90276308005E+03  0.90276308006E+03  0.50400000000E-02 0. -1.
         -1   -1    0    0    0  501 -0.00000000000E+00 -0.00000000000E+00 -0.34693390528E+03  0.34693390532E+03  0.50400000000E-02 0.  1.
    8880023    1    1    2    0    0  0.42610524639E+02 -0.30207907445E+03  0.19191490490E+03  0.75080554142E+03  0.65864270000E+03 0.  1.
    8880022    1    1    2    0    0 -0.42610524639E+02  0.30207907445E+03  0.36391426986E+03  0.49889144396E+03  0.15294330000E+03 0.  0.
<mgrwt>
<rscale>  0 0.60105308E+03</rscale>
<asrwt>0</asrwt>
<pdfrwt beam="1">  1        1 0.13888663E+00 0.72586337E+03</pdfrwt>
<pdfrwt beam="2">  1       -1 0.53374447E-01 0.72586337E+03</pdfrwt>
<totfact> 0.65637943E+01</totfact>
</mgrwt>
</event>
<event>
 4    2  0.3179755E-007  0.7909329E+03  0.7818608E-02  0.9730755E-01
         -1   -1    0    0    0  501 -0.00000000000E+00  0.00000000000E+00  0.54647590078E+03  0.54647590080E+03  0.50400000000E-02 0.  1.
          1   -1    0    0  501    0  0.00000000000E+00 -0.00000000000E+00 -0.13011467822E+04  0.13011467822E+04  0.50400000000E-02 0. -1.
    8880023    1    1    2    0    0 -0.32341541082E+03  0.29524080050E+03 -0.10373076135E+04  0.13044469899E+04  0.65864270000E+03 0. -1.
    8880022    1    1    2    0    0  0.32341541082E+03 -0.29524080050E+03  0.28263673207E+03  0.54317569309E+03  0.15294330000E+03 0.  0.
<mgrwt>
<rscale>  0 0.69214804E+03</rscale>
<asrwt>0</asrwt>
<pdfrwt beam="1">  1        1 0.20017643E+00 0.79093291E+03</pdfrwt>
<pdfrwt beam="2">  1       -1 0.84073216E-01 0.79093291E+03</pdfrwt>
<totfact> 0.13023072E+01</totfact>
</mgrwt>
</event>
<event>
 4    2  0.3179755E-007  0.6900786E+03  0.7818608E-02  0.1004115E+00
         -1   -1    0    0    0  501 -0.00000000000E+00  0.00000000000E+00  0.67038523947E+03  0.67038523949E+03  0.50400000000E-02 0.  1.
          1   -1    0    0  501    0  0.00000000000E+00 -0.00000000000E+00 -0.56371363333E+03  0.56371363335E+03  0.50400000000E-02 0. -1.
    8880023    1    1    2    0    0 -0.31353788594E+02  0.20350723999E+03 -0.30066457011E+03  0.75273345002E+03  0.65864270000E+03 0. -1.
    8880022    1    1    2    0    0  0.31353788594E+02 -0.20350723999E+03  0.40733617626E+03  0.48136542282E+03  0.15294330000E+03 0.  0.
<mgrwt>
<rscale>  0 0.53882015E+03</rscale>
<asrwt>0</asrwt>
<pdfrwt beam="1">  1        1 0.86725175E-01 0.69007859E+03</pdfrwt>
<pdfrwt beam="2">  1       -1 0.10313619E+00 0.69007859E+03</pdfrwt>
<totfact> 0.34233426E+01</totfact>
</mgrwt>
</event>
<event>
 4    2  0.3179755E-007  0.9086006E+03  0.7818608E-02  0.9512364E-01
          1   -1    0    0  501    0  0.00000000000E+00  0.00000000000E+00  0.13318580019E+04  0.13318580019E+04  0.50400000000E-02 0. -1.
         -1   -1    0    0    0  501 -0.00000000000E+00 -0.00000000000E+00 -0.11660987040E+04  0.11660987040E+04  0.50400000000E-02 0.  1.
    8880023    1    1    2    0    0 -0.50761740667E+03 -0.36615488204E+03  0.10597798806E+04  0.13959543083E+04  0.65864270000E+03 0.  0.
    8880022    1    1    2    0    0  0.50761740667E+03  0.36615488204E+03 -0.89402058269E+03  0.11020023977E+04  0.15294330000E+03 0.  0.
<mgrwt>
<rscale>  0 0.83378413E+03</rscale>
<asrwt>0</asrwt>
<pdfrwt beam="1">  1        1 0.20490123E+00 0.90860059E+03</pdfrwt>
<pdfrwt beam="2">  1       -1 0.17939980E+00 0.90860059E+03</pdfrwt>
<totfact> 0.18375593E+00</totfact>
</mgrwt>
</event>
<event>
 4    2  0.3179755E-007  0.7189348E+03  0.7818608E-02  0.9926207E-01
          1   -1    0    0  501    0  0.00000000000E+00  0.00000000000E+00  0.54377369343E+03  0.54377369345E+03  0.50400000000E-02 0. -1.
         -1   -1    0    0    0  501 -0.00000000000E+00 -0.00000000000E+00 -0.71415404945E+03  0.71415404946E+03  0.50400000000E-02 0.  1.
    8880023    1    1    2    0    0 -0.27228043531E+03 -0.94447518572E+02  0.21746219476E+03  0.75110384211E+03  0.65864270000E+03 0.  0.
    8880022    1    1    2    0    0  0.27228043531E+03  0.94447518572E+02 -0.38784255078E+03  0.50682390081E+03  0.15294330000E+03 0.  0.
<mgrwt>
<rscale>  0 0.59007826E+03</rscale>
<asrwt>0</asrwt>
<pdfrwt beam="1">  1        1 0.83657491E-01 0.71893475E+03</pdfrwt>
<pdfrwt beam="2">  1       -1 0.10986985E+00 0.71893475E+03</pdfrwt>
<totfact> 0.30986227E+01</totfact>
</mgrwt>
</event>
<event>
 4    2  0.3179755E-007  0.6726973E+03  0.7818608E-02  0.1013799E+00
          1   -1    0    0  501    0  0.00000000000E+00  0.00000000000E+00  0.11788725604E+04  0.11788725605E+04  0.50400000000E-02 0. -1.
         -1   -1    0    0    0  501 -0.00000000000E+00 -0.00000000000E+00 -0.45610448596E+03  0.45610448599E+03  0.50400000000E-02 0.  1.
    8880023    1    1    2    0    0  0.12584823247E+03  0.53607264440E+02  0.10510230204E+04  0.12478666243E+04  0.65864270000E+03 0. -1.
    8880022    1    1    2    0    0 -0.12584823247E+03 -0.53607264440E+02 -0.32825494589E+03  0.38711042214E+03  0.15294330000E+03 0.  0.
<mgrwt>
<rscale>  0 0.49992417E+03</rscale>
<asrwt>0</asrwt>
<pdfrwt beam="1">  1        1 0.18136501E+00 0.67269735E+03</pdfrwt>
<pdfrwt beam="2">  1       -1 0.70169922E-01 0.67269735E+03</pdfrwt>
<totfact> 0.23651897E+01</totfact>
</mgrwt>
</event>
<event>
 4    2  0.3179755E-007  0.1344297E+04  0.7818608E-02  0.9028221E-01
         -1   -1    0    0    0  501 -0.00000000000E+00  0.00000000000E+00  0.15815069356E+04  0.15815069356E+04  0.50400000000E-02 0.  1.
          1   -1    0    0  501    0  0.00000000000E+00 -0.00000000000E+00 -0.16796338120E+04  0.16796338120E+04  0.50400000000E-02 0. -1.
    8880023    1    1    2    0    0 -0.38149942117E+03 -0.11080532550E+04  0.97828878546E+03  0.16625832245E+04  0.65864270000E+03 0.  0.
    8880022    1    1    2    0    0  0.38149942117E+03  0.11080532550E+04 -0.10764156619E+04  0.15985575231E+04  0.15294330000E+03 0. -1.
<mgrwt>
<rscale>  0 0.13016969E+04</rscale>
<asrwt>0</asrwt>
<pdfrwt beam="1">  1        1 0.25840520E+00 0.13442969E+04</pdfrwt>
<pdfrwt beam="2">  1       -1 0.24330876E+00 0.13442969E+04</pdfrwt>
<totfact> 0.36523801E-01</totfact>
</mgrwt>
</event>
<event>
 4    2  0.3179755E-007  0.9275871E+03  0.7818608E-02  0.9483122E-01
         -1   -1    0    0    0  501 -0.00000000000E+00  0.00000000000E+00  0.41513927112E+03  0.41513927115E+03  0.50400000000E-02 0.  1.
          1   -1    0    0  501    0  0.00000000000E+00 -0.00000000000E+00 -0.20348484764E+04  0.20348484764E+04  0.50400000000E-02 0. -1.
    8880023    1    1    2    0    0  0.65218581332E+03 -0.35514129228E+02 -0.15072480448E+04  0.17698063349E+04  0.65864270000E+03 0. -1.
    8880022    1    1    2    0    0 -0.65218581332E+03  0.35514129228E+02 -0.11246116056E+03  0.68018141265E+03  0.15294330000E+03 0.  0.
<mgrwt>
<rscale>  0 0.85539654E+03</rscale>
<asrwt>0</asrwt>
<pdfrwt beam="1">  1        1 0.31305361E+00 0.92758708E+03</pdfrwt>
<pdfrwt beam="2">  1       -1 0.63867581E-01 0.92758708E+03</pdfrwt>
<totfact> 0.71647488E+00</totfact>
</mgrwt>
</event>
<event>
 4    2  0.4204200E-007  0.6898122E+03  0.7818608E-02  0.1004242E+00
         -1   -1    0    0    0  501 -0.00000000000E+00  0.00000000000E+00  0.95818788663E+03  0.95818788664E+03  0.50400000000E-02 0.  1.
          1   -1    0    0  501    0  0.00000000000E+00 -0.00000000000E+00 -0.12603349164E+04  0.12603349164E+04  0.50400000000E-02 0. -1.
    8880023    1    1    2    0    0  0.20197399529E+03  0.35172697696E+02 -0.11455389547E+04  0.13371986825E+04  0.65864270000E+03 0. -1.
    8880022    1    1    2    0    0 -0.20197399529E+03 -0.35172697696E+02  0.84339192494E+03  0.88132412057E+03  0.15294330000E+03 0.  0.
<mgrwt>
<rscale>  0 0.53828693E+03</rscale>
<asrwt>0</asrwt>
<pdfrwt beam="1">  1        1 0.19389768E+00 0.68981216E+03</pdfrwt>
<pdfrwt beam="2">  1       -1 0.14741352E+00 0.68981216E+03</pdfrwt>
<totfact> 0.37147055E+00</totfact>
</mgrwt>
</event>
<event>
 4    2  0.3179755E-007  0.7630390E+03  0.7818608E-02  0.9797303E-01
          1   -1    0    0  501    0  0.00000000000E+00  0.00000000000E+00  0.10155267882E+04  0.10155267882E+04  0.50400000000E-02 0. -1.
         -1   -1    0    0    0  501 -0.00000000000E+00 -0.00000000000E+00 -0.71064387975E+03  0.71064387976E+03  0.50400000000E-02 0.  1.
    8880023    1    1    2    0    0  0.26047417752E+03 -0.28385111734E+03  0.78306020391E+03  0.10933488662E+04  0.65864270000E+03 0. -1.
    8880022    1    1    2    0    0 -0.26047417752E+03  0.28385111734E+03 -0.47817729543E+03  0.63282180182E+03  0.15294330000E+03 0.  0.
<mgrwt>
<rscale>  0 0.65507505E+03</rscale>
<asrwt>0</asrwt>
<pdfrwt beam="1">  1        1 0.15623489E+00 0.76303896E+03</pdfrwt>
<pdfrwt beam="2">  1       -1 0.10932983E+00 0.76303896E+03</pdfrwt>
<totfact> 0.11737000E+01</totfact>
</mgrwt>
</event>
<event>
 4    2  0.3179755E-007  0.8457445E+03  0.7818608E-02  0.9619442E-01
         -1   -1    0    0    0  501 -0.00000000000E+00  0.00000000000E+00  0.40040281618E+03  0.40040281621E+03  0.50400000000E-02 0.  1.
          1   -1    0    0  501    0  0.00000000000E+00 -0.00000000000E+00 -0.14243559784E+04  0.14243559784E+04  0.50400000000E-02 0. -1.
    8880023    1    1    2    0    0  0.51164112813E+03  0.14034542232E+03 -0.94301404491E+03  0.12667119549E+04  0.65864270000E+03 0.  0.
    8880022    1    1    2    0    0 -0.51164112813E+03 -0.14034542232E+03 -0.80939117286E+02  0.55804683969E+03  0.15294330000E+03 0.  0.
<mgrwt>
<rscale>  0 0.76022621E+03</rscale>
<asrwt>0</asrwt>
<pdfrwt beam="1">  1        1 0.21913169E+00 0.84574446E+03</pdfrwt>
<pdfrwt beam="2">  1       -1 0.61600434E-01 0.84574446E+03</pdfrwt>
<totfact> 0.20168238E+01</totfact>
</mgrwt>
</event>
<event>
 4    2  0.3179755E-007  0.7007319E+03  0.7818608E-02  0.9994179E-01
          1   -1    0    0  501    0  0.00000000000E+00  0.00000000000E+00  0.17045601936E+04  0.17045601936E+04  0.50400000000E-02 0. -1.
         -1   -1    0    0    0  501 -0.00000000000E+00 -0.00000000000E+00 -0.14936457076E+03  0.14936457085E+03  0.50400000000E-02 0.  1.
    8880023    1    1    2    0    0  0.19454417130E+03  0.13916724897E+03  0.12759156451E+04  0.14556736920E+04  0.65864270000E+03 0.  0.
    8880022    1    1    2    0    0 -0.19454417130E+03 -0.13916724897E+03  0.27927997774E+03  0.39825107251E+03  0.15294330000E+03 0.  0.
<mgrwt>
<rscale>  0 0.55906234E+03</rscale>
<asrwt>0</asrwt>
<pdfrwt beam="1">  1        1 0.26224001E+00 0.70073188E+03</pdfrwt>
<pdfrwt beam="2">  1       -1 0.22979166E-01 0.70073188E+03</pdfrwt>
<totfact> 0.78976185E+01</totfact>
</mgrwt>
</event>
<event>
 4    2  0.3179755E-007  0.1154227E+04  0.7818608E-02  0.9202955E-01
          1   -1    0    0  501    0  0.00000000000E+00  0.00000000000E+00  0.44119959861E+03  0.44119959864E+03  0.50400000000E-02 0. -1.
         -1   -1    0    0    0  501 -0.00000000000E+00 -0.00000000000E+00 -0.26016826767E+04  0.26016826767E+04  0.50400000000E-02 0.  1.
    8880023    1    1    2    0    0 -0.79937943135E+03  0.50933473303E+03 -0.93082714515E+03  0.14827942291E+04  0.65864270000E+03 0.  0.
    8880022    1    1    2    0    0  0.79937943135E+03 -0.50933473303E+03 -0.12296559330E+04  0.15600880463E+04  0.15294330000E+03 0.  0.
<mgrwt>
<rscale>  0 0.11022984E+04</rscale>
<asrwt>0</asrwt>
<pdfrwt beam="1">  1        1 0.67876863E-01 0.11542268E+04</pdfrwt>
<pdfrwt beam="2">  1       -1 0.40025886E+00 0.11542268E+04</pdfrwt>
<totfact> 0.37631736E-01</totfact>
</mgrwt>
</event>
<event>
 4    2  0.3179755E-007  0.1059026E+04  0.7818608E-02  0.9308108E-01
          1   -1    0    0  501    0  0.00000000000E+00  0.00000000000E+00  0.26957801663E+04  0.26957801663E+04  0.50400000000E-02 0. -1.
         -1   -1    0    0    0  501 -0.00000000000E+00 -0.00000000000E+00 -0.79535735937E+03  0.79535735938E+03  0.50400000000E-02 0.  1.
    8880023    1    1    2    0    0 -0.42669762269E+03 -0.71109472122E+03  0.23192341300E+04  0.25495850093E+04  0.65864270000E+03 0.  0.
    8880022    1    1    2    0    0  0.42669762269E+03  0.71109472122E+03 -0.41881132305E+03  0.94155251638E+03  0.15294330000E+03 0.  0.
<mgrwt>
<rscale>  0 0.10003980E+04</rscale>
<asrwt>0</asrwt>
<pdfrwt beam="1">  1        1 0.41473542E+00 0.10590263E+04</pdfrwt>
<pdfrwt beam="2">  1       -1 0.12236267E+00 0.10590263E+04</pdfrwt>
<totfact> 0.58992000E-01</totfact>
</mgrwt>
</event>
<event>
 4    2  0.3179755E-007  0.1093268E+04  0.7818608E-02  0.9268588E-01
          1   -1    0    0  501    0  0.00000000000E+00  0.00000000000E+00  0.11836631044E+04  0.11836631044E+04  0.50400000000E-02 0. -1.
         -1   -1    0    0    0  501 -0.00000000000E+00 -0.00000000000E+00 -0.11701663458E+04  0.11701663458E+04  0.50400000000E-02 0.  1.
    8880023    1    1    2    0    0  0.52374991963E+03  0.69793387188E+03  0.64181125038E+03  0.12677371791E+04  0.65864270000E+03 0.  0.
    8880022    1    1    2    0    0 -0.52374991963E+03 -0.69793387188E+03 -0.62831449180E+03  0.10860922712E+04  0.15294330000E+03 0.  0.
<mgrwt>
<rscale>  0 0.10372685E+04</rscale>
<asrwt>0</asrwt>
<pdfrwt beam="1">  1        1 0.18210202E+00 0.10932684E+04</pdfrwt>
<pdfrwt beam="2">  1       -1 0.18002559E+00 0.10932684E+04</pdfrwt>
<totfact> 0.22676922E+00</totfact>
</mgrwt>
</event>
<event>
 4    2  0.3179755E-007  0.7023419E+03  0.7818608E-02  0.9987621E-01
          1   -1    0    0  501    0  0.00000000000E+00  0.00000000000E+00  0.45036393983E+03  0.45036393986E+03  0.50400000000E-02 0. -1.
         -1   -1    0    0    0  501 -0.00000000000E+00 -0.00000000000E+00 -0.67986433827E+03  0.67986433829E+03  0.50400000000E-02 0.  1.
    8880023    1    1    2    0    0 -0.21768399549E+03  0.10994384735E+03  0.80788672379E+02  0.70697311640E+03  0.65864270000E+03 0. -1.
    8880022    1    1    2    0    0  0.21768399549E+03 -0.10994384735E+03 -0.31028907082E+03  0.42325516175E+03  0.15294330000E+03 0.  0.
<mgrwt>
<rscale>  0 0.56196368E+03</rscale>
<asrwt>0</asrwt>
<pdfrwt beam="1">  1        1 0.69286760E-01 0.70234192E+03</pdfrwt>
<pdfrwt beam="2">  1       -1 0.10459451E+00 0.70234192E+03</pdfrwt>
<totfact> 0.45078617E+01</totfact>
</mgrwt>
</event>
<event>
 4    2  0.3179755E-007  0.8537834E+03  0.7818608E-02  0.9604719E-01
         -1   -1    0    0    0  501 -0.00000000000E+00  0.00000000000E+00  0.67017088940E+03  0.67017088942E+03  0.50400000000E-02 0.  1.
          1   -1    0    0  501    0  0.00000000000E+00 -0.00000000000E+00 -0.13374919322E+04  0.13374919322E+04  0.50400000000E-02 0. -1.
    8880023    1    1    2    0    0  0.50141153827E+03 -0.20909896043E+03 -0.10291936609E+04  0.13372306098E+04  0.65864270000E+03 0.  0.
    8880022    1    1    2    0    0 -0.50141153827E+03  0.20909896043E+03  0.36187261805E+03  0.67043221184E+03  0.15294330000E+03 0.  0.
<mgrwt>
<rscale>  0 0.76984654E+03</rscale>
<asrwt>0</asrwt>
<pdfrwt beam="1">  1        1 0.20576799E+00 0.85378341E+03</pdfrwt>
<pdfrwt beam="2">  1       -1 0.10310321E+00 0.85378341E+03</pdfrwt>
<totfact> 0.77236600E+00</totfact>
</mgrwt>
</event>
<event>
 4    2  0.3179755E-007  0.8149400E+03  0.7818608E-02  0.9679378E-01
          1   -1    0    0  501    0  0.00000000000E+00  0.00000000000E+00  0.37148566829E+04  0.37148566829E+04  0.50400000000E-02 0. -1.
         -1   -1    0    0    0  501 -0.00000000000E+00 -0.00000000000E+00 -0.14061700108E+03  0.14061700117E+03  0.50400000000E-02 0.  1.
    8880023    1    1    2    0    0  0.25922079058E+03  0.40388303144E+03  0.29093723262E+04  0.30213530843E+04  0.65864270000E+03 0.  0.
    8880022    1    1    2    0    0 -0.25922079058E+03 -0.40388303144E+03  0.66486735555E+03  0.83412059970E+03  0.15294330000E+03 0.  0.
<mgrwt>
<rscale>  0 0.72258027E+03</rscale>
<asrwt>0</asrwt>
<pdfrwt beam="1">  1        1 0.57151633E+00 0.81493995E+03</pdfrwt>
<pdfrwt beam="2">  1       -1 0.21633388E-01 0.81493995E+03</pdfrwt>
<totfact> 0.32283770E+00</totfact>
</mgrwt>
</event>
<event>
 4    2  0.3179755E-007  0.8113872E+03  0.7818608E-02  0.9686695E-01
         -1   -1    0    0    0  501 -0.00000000000E+00  0.00000000000E+00  0.14785092130E+04  0.14785092130E+04  0.50400000000E-02 0.  1.
          1   -1    0    0  501    0  0.00000000000E+00 -0.00000000000E+00 -0.41250784038E+03  0.41250784041E+03  0.50400000000E-02 0. -1.
    8880023    1    1    2    0    0  0.72001532073E+02  0.46835316754E+03  0.11761846057E+03  0.81986780562E+03  0.65864270000E+03 0.  0.
    8880022    1    1    2    0    0 -0.72001532073E+02 -0.46835316754E+03  0.94838291205E+03  0.10711492478E+04  0.15294330000E+03 0.  0.
<mgrwt>
<rscale>  0 0.71814535E+03</rscale>
<asrwt>0</asrwt>
<pdfrwt beam="1">  1        1 0.63462745E-01 0.81138716E+03</pdfrwt>
<pdfrwt beam="2">  1       -1 0.22746296E+00 0.81138716E+03</pdfrwt>
<totfact> 0.58099148E+00</totfact>
</mgrwt>
</event>
<event>
 4    2  0.3179755E-007  0.7762365E+03  0.7818608E-02  0.9764753E-01
          1   -1    0    0  501    0  0.00000000000E+00  0.00000000000E+00  0.20880667078E+04  0.20880667078E+04  0.50400000000E-02 0. -1.
         -1   -1    0    0    0  501 -0.00000000000E+00 -0.00000000000E+00 -0.63213374121E+03  0.63213374123E+03  0.50400000000E-02 0.  1.
    8880023    1    1    2    0    0  0.18885255315E+03  0.36478424937E+03  0.19265674458E+04  0.20770664806E+04  0.65864270000E+03 0.  0.
    8880022    1    1    2    0    0 -0.18885255315E+03 -0.36478424937E+03 -0.47063447916E+03  0.64313396848E+03  0.15294330000E+03 0.  0.
<mgrwt>
<rscale>  0 0.67288891E+03</rscale>
<asrwt>0</asrwt>
<pdfrwt beam="1">  1        1 0.32124103E+00 0.77623646E+03</pdfrwt>
<pdfrwt beam="2">  1       -1 0.97251344E-01 0.77623646E+03</pdfrwt>
<totfact> 0.27670196E+00</totfact>
</mgrwt>
</event>
<event>
 4    2  0.3468204E-007  0.9471367E+03  0.7818608E-02  0.9454246E-01
         -1   -1    0    0    0  501 -0.00000000000E+00  0.00000000000E+00  0.10860482802E+04  0.10860482802E+04  0.50400000000E-02 0.  1.
          1   -1    0    0  501    0  0.00000000000E+00 -0.00000000000E+00 -0.26161978099E+04  0.26161978099E+04  0.50400000000E-02 0. -1.
    8880023    1    1    2    0    0  0.67806398996E+03  0.59050423596E+02 -0.24041421959E+04  0.25839829008E+04  0.65864270000E+03 0. -1.
    8880022    1    1    2    0    0 -0.67806398996E+03 -0.59050423596E+02  0.87399266625E+03  0.11182631894E+04  0.15294330000E+03 0.  0.
<mgrwt>
<rscale>  0 0.87742807E+03</rscale>
<asrwt>0</asrwt>
<pdfrwt beam="1">  1        1 0.40249197E+00 0.94713670E+03</pdfrwt>
<pdfrwt beam="2">  1       -1 0.16708435E+00 0.94713670E+03</pdfrwt>
<totfact> 0.29973694E-01</totfact>
</mgrwt>
</event>
<event>
 4    2  0.3179755E-007  0.8989616E+03  0.7818608E-02  0.9527701E-01
          1   -1    0    0  501    0  0.00000000000E+00  0.00000000000E+00  0.67046690039E+03  0.67046690041E+03  0.50400000000E-02 0. -1.
         -1   -1    0    0    0  501 -0.00000000000E+00 -0.00000000000E+00 -0.12731802420E+04  0.12731802420E+04  0.50400000000E-02 0.  1.
    8880023    1    1    2    0    0  0.53039366153E+03 -0.30496595898E+03  0.20188287379E+03  0.92135149282E+03  0.65864270000E+03 0. -1.
    8880022    1    1    2    0    0 -0.53039366153E+03  0.30496595898E+03 -0.80459621544E+03  0.10222956496E+04  0.15294330000E+03 0.  0.
<mgrwt>
<rscale>  0 0.82272010E+03</rscale>
<asrwt>0</asrwt>
<pdfrwt beam="1">  1        1 0.10314875E+00 0.89896156E+03</pdfrwt>
<pdfrwt beam="2">  1       -1 0.19587388E+00 0.89896156E+03</pdfrwt>
<totfact> 0.47479479E+00</totfact>
</mgrwt>
</event>
<event>
 4    2  0.3179755E-007  0.8731919E+03  0.7818608E-02  0.9570515E-01
         -1   -1    0    0    0  501 -0.00000000000E+00  0.00000000000E+00  0.77753662819E+03  0.77753662821E+03  0.50400000000E-02 0.  1.
          1   -1    0    0  501    0  0.00000000000E+00 -0.00000000000E+00 -0.17577837716E+04  0.17577837716E+04  0.50400000000E-02 0. -1.
    8880023    1    1    2    0    0 -0.29715818398E+03 -0.49025592662E+03 -0.15071326409E+04  0.17418130966E+04  0.65864270000E+03 0. -1.
    8880022    1    1    2    0    0  0.29715818398E+03  0.49025592662E+03  0.52688549745E+03  0.79350730326E+03  0.15294330000E+03 0.  0.
<mgrwt>
<rscale>  0 0.79278809E+03</rscale>
<asrwt>0</asrwt>
<pdfrwt beam="1">  1        1 0.27042827E+00 0.87319188E+03</pdfrwt>
<pdfrwt beam="2">  1       -1 0.11962102E+00 0.87319188E+03</pdfrwt>
<totfact> 0.27884816E+00</totfact>
</mgrwt>
</event>
<event>
 4    2  0.3179755E-007  0.8206482E+03  0.7818608E-02  0.9667810E-01
          1   -1    0    0  501    0  0.00000000000E+00  0.00000000000E+00  0.20645043288E+04  0.20645043288E+04  0.50400000000E-02 0. -1.
         -1   -1    0    0    0  501 -0.00000000000E+00 -0.00000000000E+00 -0.38509510710E+03  0.38509510714E+03  0.50400000000E-02 0.  1.
    8880023    1    1    2    0    0 -0.17588689437E+02  0.48922788575E+03  0.17490595448E+04  0.19320126252E+04  0.65864270000E+03 0. -1.
    8880022    1    1    2    0    0  0.17588689437E+02 -0.48922788575E+03 -0.69650323106E+02  0.51758681080E+03  0.15294330000E+03 0.  0.
<mgrwt>
<rscale>  0 0.72966164E+03</rscale>
<asrwt>0</asrwt>
<pdfrwt beam="1">  1        1 0.31761605E+00 0.82064821E+03</pdfrwt>
<pdfrwt beam="2">  1       -1 0.59245400E-01 0.82064821E+03</pdfrwt>
<totfact> 0.80660326E+00</totfact>
</mgrwt>
</event>
<event>
 4    2  0.3179755E-007  0.9739606E+03  0.7818608E-02  0.9416447E-01
         -1   -1    0    0    0  501 -0.00000000000E+00  0.00000000000E+00  0.74379364927E+03  0.74379364929E+03  0.50400000000E-02 0.  1.
          1   -1    0    0  501    0  0.00000000000E+00 -0.00000000000E+00 -0.11707867410E+04  0.11707867410E+04  0.50400000000E-02 0. -1.
    8880023    1    1    2    0    0  0.28789245043E+02 -0.71691012656E+03 -0.62183077731E+03  0.11555399915E+04  0.65864270000E+03 0. -1.
    8880022    1    1    2    0    0 -0.28789245043E+02  0.71691012656E+03  0.19483768559E+03  0.75904039875E+03  0.15294330000E+03 0.  0.
<mgrwt>
<rscale>  0 0.90734412E+03</rscale>
<asrwt>0</asrwt>
<pdfrwt beam="1">  1        1 0.18012104E+00 0.97396055E+03</pdfrwt>
<pdfrwt beam="2">  1       -1 0.11442979E+00 0.97396055E+03</pdfrwt>
<totfact> 0.78467188E+00</totfact>
</mgrwt>
</event>
<event>
 4    2  0.3179755E-007  0.7811961E+03  0.7818608E-02  0.9753035E-01
          1   -1    0    0  501    0  0.00000000000E+00  0.00000000000E+00  0.32478572945E+04  0.32478572945E+04  0.50400000000E-02 0. -1.
         -1   -1    0    0    0  501 -0.00000000000E+00 -0.00000000000E+00 -0.42166691926E+03  0.42166691929E+03  0.50400000000E-02 0.  1.
    8880023    1    1    2    0    0 -0.38697338253E+03 -0.16342788692E+03  0.30647946283E+04  0.31627888632E+04  0.65864270000E+03 0. -1.
    8880022    1    1    2    0    0  0.38697338253E+03  0.16342788692E+03 -0.23860425304E+03  0.50673535065E+03  0.15294330000E+03 0.  0.
<mgrwt>
<rscale>  0 0.67945032E+03</rscale>
<asrwt>0</asrwt>
<pdfrwt beam="1">  1        1 0.49967034E+00 0.78119606E+03</pdfrwt>
<pdfrwt beam="2">  1       -1 0.64871835E-01 0.78119606E+03</pdfrwt>
<totfact> 0.10154292E+00</totfact>
</mgrwt>
</event>
<event>
 4    2  0.3179755E-007  0.6948626E+03  0.7818608E-02  0.1001922E+00
          1   -1    0    0  501    0  0.00000000000E+00  0.00000000000E+00  0.93295815915E+03  0.93295815916E+03  0.50400000000E-02 0. -1.
         -1   -1    0    0    0  501 -0.00000000000E+00 -0.00000000000E+00 -0.58372563770E+03  0.58372563772E+03  0.50400000000E-02 0.  1.
    8880023    1    1    2    0    0 -0.15008864312E+03 -0.16277987000E+03  0.75735832555E+03  0.10278257276E+04  0.65864270000E+03 0. -1.
    8880022    1    1    2    0    0  0.15008864312E+03  0.16277987000E+03 -0.40812580410E+03  0.48885806924E+03  0.15294330000E+03 0.  1.
<mgrwt>
<rscale>  0 0.54815477E+03</rscale>
<asrwt>0</asrwt>
<pdfrwt beam="1">  1        1 0.14353203E+00 0.69486264E+03</pdfrwt>
<pdfrwt beam="2">  1       -1 0.89803944E-01 0.69486264E+03</pdfrwt>
<totfact> 0.21493244E+01</totfact>
</mgrwt>
</event>
<event>
 4    2  0.3179755E-007  0.8476592E+03  0.7818608E-02  0.9615904E-01
          1   -1    0    0  501    0  0.00000000000E+00  0.00000000000E+00  0.32539511580E+04  0.32539511580E+04  0.50400000000E-02 0. -1.
         -1   -1    0    0    0  501 -0.00000000000E+00 -0.00000000000E+00 -0.21704362158E+03  0.21704362163E+03  0.50400000000E-02 0.  1.
    8880023    1    1    2    0    0  0.53243391514E+03 -0.35072224998E+02  0.26805305572E+04  0.28113644746E+04  0.65864270000E+03 0. -1.
    8880022    1    1    2    0    0 -0.53243391514E+03  0.35072224998E+02  0.35637697928E+03  0.65963030504E+03  0.15294330000E+03 0.  0.
<mgrwt>
<rscale>  0 0.76252443E+03</rscale>
<asrwt>0</asrwt>
<pdfrwt beam="1">  1        1 0.50060785E+00 0.84765921E+03</pdfrwt>
<pdfrwt beam="2">  1       -1 0.33391327E-01 0.84765921E+03</pdfrwt>
<totfact> 0.34525418E+00</totfact>
</mgrwt>
</event>
<event>
 4    2  0.3179755E-007  0.7582186E+03  0.7818608E-02  0.9809741E-01
          1   -1    0    0  501    0  0.00000000000E+00  0.00000000000E+00  0.33288910422E+03  0.33288910426E+03  0.50400000000E-02 0. -1.
         -1   -1    0    0    0  501 -0.00000000000E+00 -0.00000000000E+00 -0.24892395251E+04  0.24892395251E+04  0.50400000000E-02 0.  1.
    8880023    1    1    2    0    0 -0.28311926414E+03  0.24683740837E+03 -0.14709889732E+03  0.77235582199E+03  0.65864270000E+03 0. -1.
    8880022    1    1    2    0    0  0.28311926414E+03 -0.24683740837E+03 -0.20092515235E+04  0.20497728073E+04  0.15294330000E+03 0.  0.
<mgrwt>
<rscale>  0 0.64842377E+03</rscale>
<asrwt>0</asrwt>
<pdfrwt beam="1">  1        1 0.51213710E-01 0.75821859E+03</pdfrwt>
<pdfrwt beam="2">  1       -1 0.38295992E+00 0.75821859E+03</pdfrwt>
<totfact> 0.76147421E-01</totfact>
</mgrwt>
</event>
<event>
 4    2  0.3179755E-007  0.7808841E+03  0.7818608E-02  0.9753764E-01
         -1   -1    0    0    0  501 -0.00000000000E+00  0.00000000000E+00  0.39476147144E+03  0.39476147147E+03  0.50400000000E-02 0.  1.
          1   -1    0    0  501    0  0.00000000000E+00 -0.00000000000E+00 -0.17249551999E+04  0.17249551999E+04  0.50400000000E-02 0. -1.
    8880023    1    1    2    0    0 -0.39460876288E+03  0.14231570781E+03 -0.14591554047E+04  0.16549666274E+04  0.65864270000E+03 0. -1.
    8880022    1    1    2    0    0  0.39460876288E+03 -0.14231570781E+03  0.12896167625E+03  0.46475004399E+03  0.15294330000E+03 0.  0.
<mgrwt>
<rscale>  0 0.67903961E+03</rscale>
<asrwt>0</asrwt>
<pdfrwt beam="1">  1        1 0.26537772E+00 0.78088414E+03</pdfrwt>
<pdfrwt beam="2">  1       -1 0.60732535E-01 0.78088414E+03</pdfrwt>
<totfact> 0.13048039E+01</totfact>
</mgrwt>
</event>
<event>
 4    2  0.3179755E-007  0.1190996E+04  0.7818608E-02  0.9165924E-01
         -1   -1    0    0    0  501 -0.00000000000E+00  0.00000000000E+00  0.63730494912E+03  0.63730494914E+03  0.50400000000E-02 0.  1.
          1   -1    0    0  501    0  0.00000000000E+00 -0.00000000000E+00 -0.22601116267E+04  0.22601116267E+04  0.50400000000E-02 0. -1.
    8880023    1    1    2    0    0  0.71797942413E+03  0.68495836610E+03 -0.28475607785E+03  0.12245646765E+04  0.65864270000E+03 0.  0.
    8880022    1    1    2    0    0 -0.71797942413E+03 -0.68495836610E+03 -0.13380505998E+04  0.16728518994E+04  0.15294330000E+03 0.  0.
<mgrwt>
<rscale>  0 0.11412173E+04</rscale>
<asrwt>0</asrwt>
<pdfrwt beam="1">  1        1 0.34770948E+00 0.11909965E+04</pdfrwt>
<pdfrwt beam="2">  1       -1 0.98046916E-01 0.11909965E+04</pdfrwt>
<totfact> 0.19548375E+00</totfact>
</mgrwt>
</event>
<event>
 4    2  0.3179755E-007  0.7017882E+03  0.7818608E-02  0.9989862E-01
          1   -1    0    0  501    0  0.00000000000E+00  0.00000000000E+00  0.11906745485E+04  0.11906745485E+04  0.50400000000E-02 0. -1.
         -1   -1    0    0    0  501 -0.00000000000E+00 -0.00000000000E+00 -0.39462141964E+03  0.39462141967E+03  0.50400000000E-02 0.  1.
    8880023    1    1    2    0    0 -0.22595277269E+03 -0.87417441334E+02  0.10084753634E+04  0.12286290040E+04  0.65864270000E+03 0. -1.
    8880022    1    1    2    0    0  0.22595277269E+03  0.87417441334E+02 -0.21242223462E+03  0.35666696414E+03  0.15294330000E+03 0.  0.
<mgrwt>
<rscale>  0 0.56096993E+03</rscale>
<asrwt>0</asrwt>
<pdfrwt beam="1">  1        1 0.18318070E+00 0.70178820E+03</pdfrwt>
<pdfrwt beam="2">  1       -1 0.60710989E-01 0.70178820E+03</pdfrwt>
<totfact> 0.30898146E+01</totfact>
</mgrwt>
</event>
<event>
 4    2  0.3179755E-007  0.7063805E+03  0.7818608E-02  0.9971695E-01
         -1   -1    0    0    0  501 -0.00000000000E+00  0.00000000000E+00  0.17439581259E+04  0.17439581259E+04  0.50400000000E-02 0.  1.
          1   -1    0    0  501    0  0.00000000000E+00 -0.00000000000E+00 -0.78032503489E+03  0.78032503491E+03  0.50400000000E-02 0. -1.
    8880023    1    1    2    0    0 -0.25265760264E+03 -0.36432890821E+02 -0.60354205020E+03  0.92910517829E+03  0.65864270000E+03 0.  0.
    8880022    1    1    2    0    0  0.25265760264E+03  0.36432890821E+02  0.15671751412E+04  0.15951779825E+04  0.15294330000E+03 0.  0.
<mgrwt>
<rscale>  0 0.56908952E+03</rscale>
<asrwt>0</asrwt>
<pdfrwt beam="1">  1        1 0.12005001E+00 0.70638051E+03</pdfrwt>
<pdfrwt beam="2">  1       -1 0.26830125E+00 0.70638051E+03</pdfrwt>
<totfact> 0.12927040E+00</totfact>
</mgrwt>
</event>
<event>
 4    2  0.3179755E-007  0.7262761E+03  0.7818608E-02  0.9901895E-01
         -1   -1    0    0    0  501 -0.00000000000E+00  0.00000000000E+00  0.30781508332E+04  0.30781508332E+04  0.50400000000E-02 0.  1.
          1   -1    0    0  501    0  0.00000000000E+00 -0.00000000000E+00 -0.14644132537E+03  0.14644132546E+03  0.50400000000E-02 0. -1.
    8880023    1    1    2    0    0  0.27855717884E+03  0.12677815078E+03  0.86371352271E+03  0.11284848501E+04  0.65864270000E+03 0.  0.
    8880022    1    1    2    0    0 -0.27855717884E+03 -0.12677815078E+03  0.20679959851E+04  0.20961073085E+04  0.15294330000E+03 0.  0.
<mgrwt>
<rscale>  0 0.60169538E+03</rscale>
<asrwt>0</asrwt>
<pdfrwt beam="1">  1        1 0.22529435E-01 0.72627612E+03</pdfrwt>
<pdfrwt beam="2">  1       -1 0.47356165E+00 0.72627612E+03</pdfrwt>
<totfact> 0.53416729E-01</totfact>
</mgrwt>
</event>
<event>
 4    2  0.3179755E-007  0.7344692E+03  0.7818608E-02  0.9876361E-01
          1   -1    0    0  501    0  0.00000000000E+00  0.00000000000E+00  0.11392619998E+04  0.11392619998E+04  0.50400000000E-02 0. -1.
         -1   -1    0    0    0  501 -0.00000000000E+00 -0.00000000000E+00 -0.37089805435E+03  0.37089805438E+03  0.50400000000E-02 0.  1.
    8880023    1    1    2    0    0  0.12832595921E+03  0.29860895989E+03  0.86599663365E+02  0.73955700976E+03  0.65864270000E+03 0.  1.
    8880022    1    1    2    0    0 -0.12832595921E+03 -0.29860895989E+03  0.68176428207E+03  0.77060304441E+03  0.15294330000E+03 0.  0.
<mgrwt>
<rscale>  0 0.61420745E+03</rscale>
<asrwt>0</asrwt>
<pdfrwt beam="1">  1        1 0.17527108E+00 0.73446924E+03</pdfrwt>
<pdfrwt beam="2">  1       -1 0.57061239E-01 0.73446924E+03</pdfrwt>
<totfact> 0.37898315E+01</totfact>
</mgrwt>
</event>
<event>
 4    2  0.3179755E-007  0.6649169E+03  0.7818608E-02  0.1019603E+00
          1   -1    0    0  501    0  0.00000000000E+00  0.00000000000E+00  0.20108896454E+04  0.20108896455E+04  0.50400000000E-02 0. -1.
         -1   -1    0    0    0  501 -0.00000000000E+00 -0.00000000000E+00 -0.21793945276E+03  0.21793945282E+03  0.50400000000E-02 0.  1.
    8880023    1    1    2    0    0  0.91066562559E+02 -0.33376169481E+01  0.19055164993E+04  0.20181941418E+04  0.65864270000E+03 0. -1.
    8880022    1    1    2    0    0 -0.91066562559E+02  0.33376169481E+01 -0.11256630661E+03  0.21063495651E+03  0.15294330000E+03 0.  0.
<mgrwt>
<rscale>  0 0.47830060E+03</rscale>
<asrwt>0</asrwt>
<pdfrwt beam="1">  1        1 0.30936764E+00 0.66491689E+03</pdfrwt>
<pdfrwt beam="2">  1       -1 0.33529147E-01 0.66491689E+03</pdfrwt>
<totfact> 0.25819002E+01</totfact>
</mgrwt>
</event>
<event>
 4    2  0.3179755E-007  0.7029961E+03  0.7818608E-02  0.9984992E-01
          1   -1    0    0  501    0  0.00000000000E+00  0.00000000000E+00  0.41927079941E+03  0.41927079944E+03  0.50400000000E-02 0. -1.
         -1   -1    0    0    0  501 -0.00000000000E+00 -0.00000000000E+00 -0.87985565352E+03  0.87985565354E+03  0.50400000000E-02 0.  1.
    8880023    1    1    2    0    0  0.22635160443E+03 -0.95698974179E+02  0.57836092191E+02  0.70537122305E+03  0.65864270000E+03 0.  0.
    8880022    1    1    2    0    0 -0.22635160443E+03  0.95698974179E+02 -0.51842094630E+03  0.59375522993E+03  0.15294330000E+03 0.  0.
<mgrwt>
<rscale>  0 0.56313235E+03</rscale>
<asrwt>0</asrwt>
<pdfrwt beam="1">  1        1 0.64503200E-01 0.70299612E+03</pdfrwt>
<pdfrwt beam="2">  1       -1 0.13536241E+00 0.70299612E+03</pdfrwt>
<totfact> 0.26520453E+01</totfact>
</mgrwt>
</event>
<event>
 4    2  0.3179755E-007  0.9091845E+03  0.7818608E-02  0.9511446E-01
          1   -1    0    0  501    0  0.00000000000E+00  0.00000000000E+00  0.85380712488E+03  0.85380712489E+03  0.50400000000E-02 0. -1.
         -1   -1    0    0    0  501 -0.00000000000E+00 -0.00000000000E+00 -0.75257682355E+03  0.75257682357E+03  0.50400000000E-02 0.  1.
    8880023    1    1    2    0    0  0.43023491269E+03 -0.45574568385E+03  0.25281623604E+03  0.94368027632E+03  0.65864270000E+03 0.  1.
    8880022    1    1    2    0    0 -0.43023491269E+03  0.45574568385E+03 -0.15158593471E+03  0.66270367214E+03  0.15294330000E+03 0.  0.
<mgrwt>
<rscale>  0 0.83445225E+03</rscale>
<asrwt>0</asrwt>
<pdfrwt beam="1">  1        1 0.13135494E+00 0.90918448E+03</pdfrwt>
<pdfrwt beam="2">  1       -1 0.11578105E+00 0.90918448E+03</pdfrwt>
<totfact> 0.13576618E+01</totfact>
</mgrwt>
</event>
<event>
 4    2  0.3179755E-007  0.8795726E+03  0.7818608E-02  0.9559653E-01
         -1   -1    0    0    0  501 -0.00000000000E+00  0.00000000000E+00  0.67492012701E+03  0.67492012703E+03  0.50400000000E-02 0.  1.
          1   -1    0    0  501    0  0.00000000000E+00 -0.00000000000E+00 -0.17520193720E+04  0.17520193720E+04  0.50400000000E-02 0. -1.
    8880023    1    1    2    0    0 -0.26935565054E+03  0.51699645662E+03 -0.14660361337E+04  0.17096519980E+04  0.65864270000E+03 0. -1.
    8880022    1    1    2    0    0  0.26935565054E+03 -0.51699645662E+03  0.38893688875E+03  0.71728750100E+03  0.15294330000E+03 0.  0.
<mgrwt>
<rscale>  0 0.80025134E+03</rscale>
<asrwt>0</asrwt>
<pdfrwt beam="1">  1        1 0.26954144E+00 0.87957263E+03</pdfrwt>
<pdfrwt beam="2">  1       -1 0.10383387E+00 0.87957263E+03</pdfrwt>
<totfact> 0.39340605E+00</totfact>
</mgrwt>
</event>
<event>
 4    2  0.3179755E-007  0.7788415E+03  0.7818608E-02  0.9758565E-01
         -1   -1    0    0    0  501 -0.00000000000E+00  0.00000000000E+00  0.39315786686E+03  0.39315786689E+03  0.50400000000E-02 0.  1.
          1   -1    0    0  501    0  0.00000000000E+00 -0.00000000000E+00 -0.18434820342E+04  0.18434820342E+04  0.50400000000E-02 0. -1.
    8880023    1    1    2    0    0 -0.16967529193E+03 -0.37946572954E+03 -0.15914281939E+04  0.17717894478E+04  0.65864270000E+03 0. -1.
    8880022    1    1    2    0    0  0.16967529193E+03  0.37946572954E+03  0.14110402661E+03  0.46485045329E+03  0.15294330000E+03 0.  0.
<mgrwt>
<rscale>  0 0.67634371E+03</rscale>
<asrwt>0</asrwt>
<pdfrwt beam="1">  1        1 0.28361262E+00 0.77884154E+03</pdfrwt>
<pdfrwt beam="2">  1       -1 0.60485827E-01 0.77884154E+03</pdfrwt>
<totfact> 0.10954962E+01</totfact>
</mgrwt>
</event>
<event>
 4    2  0.3179755E-007  0.7610901E+03  0.7818608E-02  0.9802294E-01
         -1   -1    0    0    0  501 -0.00000000000E+00  0.00000000000E+00  0.33913326296E+03  0.33913326299E+03  0.50400000000E-02 0.  1.
          1   -1    0    0  501    0  0.00000000000E+00 -0.00000000000E+00 -0.14232372766E+04  0.14232372767E+04  0.50400000000E-02 0. -1.
    8880023    1    1    2    0    0 -0.32865754234E+03  0.19347380604E+03 -0.11153505671E+04  0.13502832990E+04  0.65864270000E+03 0. -1.
    8880022    1    1    2    0    0  0.32865754234E+03 -0.19347380604E+03  0.31246553444E+02  0.41208724062E+03  0.15294330000E+03 0.  0.
<mgrwt>
<rscale>  0 0.65239604E+03</rscale>
<asrwt>0</asrwt>
<pdfrwt beam="1">  1        1 0.21895958E+00 0.76109007E+03</pdfrwt>
<pdfrwt beam="2">  1       -1 0.52174349E-01 0.76109007E+03</pdfrwt>
<totfact> 0.28200990E+01</totfact>
</mgrwt>
</event>
<event>
 4    2  0.3179755E-007  0.8081392E+03  0.7818608E-02  0.9693466E-01
         -1   -1    0    0    0  501 -0.00000000000E+00  0.00000000000E+00  0.11969710722E+04  0.11969710723E+04  0.50400000000E-02 0.  1.
          1   -1    0    0  501    0  0.00000000000E+00 -0.00000000000E+00 -0.37336170957E+03  0.37336170961E+03  0.50400000000E-02 0. -1.
    8880023    1    1    2    0    0 -0.44912295033E+03 -0.13254183231E+03  0.68284174381E+03  0.10579989675E+04  0.65864270000E+03 0.  1.
    8880022    1    1    2    0    0  0.44912295033E+03  0.13254183231E+03  0.14076761886E+03  0.51233381438E+03  0.15294330000E+03 0. -1.
<mgrwt>
<rscale>  0 0.71407156E+03</rscale>
<asrwt>0</asrwt>
<pdfrwt beam="1">  1        1 0.57440263E-01 0.80813920E+03</pdfrwt>
<pdfrwt beam="2">  1       -1 0.18414940E+00 0.80813920E+03</pdfrwt>
<totfact> 0.13066992E+01</totfact>
</mgrwt>
</event>
<event>
 4    2  0.3179755E-007  0.6839334E+03  0.7818608E-02  0.1007181E+00
          1   -1    0    0  501    0  0.00000000000E+00  0.00000000000E+00  0.42515004996E+03  0.42515004999E+03  0.50400000000E-02 0. -1.
         -1   -1    0    0    0  501 -0.00000000000E+00 -0.00000000000E+00 -0.58382283822E+03  0.58382283824E+03  0.50400000000E-02 0.  1.
    8880023    1    1    2    0    0 -0.17423693417E+03  0.59968159566E+02  0.57522499684E+02  0.68634811402E+03  0.65864270000E+03 0. -1.
    8880022    1    1    2    0    0  0.17423693417E+03 -0.59968159566E+02 -0.21619528794E+03  0.32262477421E+03  0.15294330000E+03 0.  0.
<mgrwt>
<rscale>  0 0.52610639E+03</rscale>
<asrwt>0</asrwt>
<pdfrwt beam="1">  1        1 0.65407700E-01 0.68393340E+03</pdfrwt>
<pdfrwt beam="2">  1       -1 0.89818898E-01 0.68393340E+03</pdfrwt>
<totfact> 0.68736107E+01</totfact>
</mgrwt>
</event>
<event>
 4    2  0.3179755E-007  0.6740825E+03  0.7818608E-02  0.1012891E+00
          1   -1    0    0  501    0  0.00000000000E+00  0.00000000000E+00  0.14173671967E+04  0.14173671967E+04  0.50400000000E-02 0. -1.
         -1   -1    0    0    0  501 -0.00000000000E+00 -0.00000000000E+00 -0.15350221806E+03  0.15350221814E+03  0.50400000000E-02 0.  1.
    8880023    1    1    2    0    0 -0.13430581748E+01  0.14344065128E+03  0.11480686135E+04  0.13313334563E+04  0.65864270000E+03 0. -1.
    8880022    1    1    2    0    0  0.13430581748E+01 -0.14344065128E+03  0.11579636511E+03  0.23953595854E+03  0.15294330000E+03 0.  0.
<mgrwt>
<rscale>  0 0.50341682E+03</rscale>
<asrwt>0</asrwt>
<pdfrwt beam="1">  1        1 0.21805648E+00 0.67408251E+03</pdfrwt>
<pdfrwt beam="2">  1       -1 0.23615728E-01 0.67408251E+03</pdfrwt>
<totfact> 0.11851163E+02</totfact>
</mgrwt>
</event>
<event>
 4    2  0.3179755E-007  0.8616284E+03  0.7818608E-02  0.9590673E-01
          1   -1    0    0  501    0  0.00000000000E+00  0.00000000000E+00  0.29403791470E+04  0.29403791470E+04  0.50400000000E-02 0. -1.
         -1   -1    0    0    0  501 -0.00000000000E+00 -0.00000000000E+00 -0.35406117093E+03  0.35406117096E+03  0.50400000000E-02 0.  1.
    8880023    1    1    2    0    0 -0.55525255541E+03 -0.16966713262E+02  0.25780232526E+04  0.27181992875E+04  0.65864270000E+03 0. -1.
    8880022    1    1    2    0    0  0.55525255541E+03  0.16966713262E+02  0.82947234418E+01  0.57624103038E+03  0.15294330000E+03 0.  0.
<mgrwt>
<rscale>  0 0.77916564E+03</rscale>
<asrwt>0</asrwt>
<pdfrwt beam="1">  1        1 0.45236602E+00 0.86162839E+03</pdfrwt>
<pdfrwt beam="2">  1       -1 0.54470949E-01 0.86162839E+03</pdfrwt>
<totfact> 0.23607912E+00</totfact>
</mgrwt>
</event>
<event>
 4    2  0.3179755E-007  0.9670710E+03  0.7818608E-02  0.9425967E-01
         -1   -1    0    0    0  501 -0.00000000000E+00  0.00000000000E+00  0.92850290145E+03  0.92850290147E+03  0.50400000000E-02 0.  1.
          1   -1    0    0  501    0  0.00000000000E+00 -0.00000000000E+00 -0.19321581497E+04  0.19321581497E+04  0.50400000000E-02 0. -1.
    8880023    1    1    2    0    0  0.59658195946E+03  0.38145257658E+03 -0.16350853544E+04  0.18996658719E+04  0.65864270000E+03 0.  0.
    8880022    1    1    2    0    0 -0.59658195946E+03 -0.38145257658E+03  0.63143010616E+03  0.96099517924E+03  0.15294330000E+03 0.  0.
<mgrwt>
<rscale>  0 0.89969188E+03</rscale>
<asrwt>0</asrwt>
<pdfrwt beam="1">  1        1 0.29725510E+00 0.96707099E+03</pdfrwt>
<pdfrwt beam="2">  1       -1 0.14284660E+00 0.96707099E+03</pdfrwt>
<totfact> 0.13372958E+00</totfact>
</mgrwt>
</event>
<event>
 4    2  0.3179755E-007  0.7060266E+03  0.7818608E-02  0.9973063E-01
          1   -1    0    0  501    0  0.00000000000E+00  0.00000000000E+00  0.10151333064E+04  0.10151333064E+04  0.50400000000E-02 0. -1.
         -1   -1    0    0    0  501 -0.00000000000E+00 -0.00000000000E+00 -0.13435310874E+04  0.13435310874E+04  0.50400000000E-02 0.  1.
    8880023    1    1    2    0    0 -0.22870275400E+03 -0.11116806086E+03  0.87208287166E+03  0.11220525962E+04  0.65864270000E+03 0. -1.
    8880022    1    1    2    0    0  0.22870275400E+03  0.11116806086E+03 -0.12004806526E+04  0.12366117975E+04  0.15294330000E+03 0.  0.
<mgrwt>
<rscale>  0 0.56847320E+03</rscale>
<asrwt>0</asrwt>
<pdfrwt beam="1">  1        1 0.15617435E+00 0.70602655E+03</pdfrwt>
<pdfrwt beam="2">  1       -1 0.20669709E+00 0.70602655E+03</pdfrwt>
<totfact> 0.20980781E+00</totfact>
</mgrwt>
</event>
<event>
 4    2  0.3179755E-007  0.9970302E+03  0.7818608E-02  0.9385453E-01
         -1   -1    0    0    0  501 -0.00000000000E+00  0.00000000000E+00  0.74616640194E+03  0.74616640196E+03  0.50400000000E-02 0.  1.
          1   -1    0    0  501    0  0.00000000000E+00 -0.00000000000E+00 -0.14476679973E+04  0.14476679973E+04  0.50400000000E-02 0. -1.
    8880023    1    1    2    0    0 -0.41068641690E+03 -0.62577603306E+03 -0.96318639169E+03  0.13862890059E+04  0.65864270000E+03 0.  0.
    8880022    1    1    2    0    0  0.41068641690E+03  0.62577603306E+03  0.26168479635E+03  0.80754539330E+03  0.15294330000E+03 0.  0.
<mgrwt>
<rscale>  0 0.93282537E+03</rscale>
<asrwt>0</asrwt>
<pdfrwt beam="1">  1        1 0.22271815E+00 0.99703018E+03</pdfrwt>
<pdfrwt beam="2">  1       -1 0.11479483E+00 0.99703018E+03</pdfrwt>
<totfact> 0.49306488E+00</totfact>
</mgrwt>
</event>
<event>
 4    2  0.3179755E-007  0.1010031E+04  0.7818608E-02  0.9368550E-01
         -1   -1    0    0    0  501 -0.00000000000E+00  0.00000000000E+00  0.10623210133E+04  0.10623210133E+04  0.50400000000E-02 0.  1.
          1   -1    0    0  501    0  0.00000000000E+00 -0.00000000000E+00 -0.11666734879E+04  0.11666734879E+04  0.50400000000E-02 0. -1.
    8880023    1    1    2    0    0  0.57870965246E+03  0.50144606536E+03 -0.71518617150E+03  0.12376002927E+04  0.65864270000E+03 0. -1.
    8880022    1    1    2    0    0 -0.57870965246E+03 -0.50144606536E+03  0.61083369697E+03  0.99139420852E+03  0.15294330000E+03 0.  0.
<mgrwt>
<rscale>  0 0.94709736E+03</rscale>
<asrwt>0</asrwt>
<pdfrwt beam="1">  1        1 0.17948823E+00 0.10100313E+04</pdfrwt>
<pdfrwt beam="2">  1       -1 0.16343400E+00 0.10100313E+04</pdfrwt>
<totfact> 0.31197429E+00</totfact>
</mgrwt>
</event>
<event>
 4    2  0.3179755E-007  0.7315851E+03  0.7818608E-02  0.9885174E-01
         -1   -1    0    0    0  501 -0.00000000000E+00  0.00000000000E+00  0.63083471747E+03  0.63083471749E+03  0.50400000000E-02 0.  1.
          1   -1    0    0  501    0  0.00000000000E+00 -0.00000000000E+00 -0.21444312897E+04  0.21444312897E+04  0.50400000000E-02 0. -1.
    8880023    1    1    2    0    0 -0.27111569623E+03 -0.16704133884E+03 -0.20253457471E+04  0.21534256735E+04  0.65864270000E+03 0. -1.
    8880022    1    1    2    0    0  0.27111569623E+03  0.16704133884E+03  0.51174917488E+03  0.62184033371E+03  0.15294330000E+03 0.  0.
<mgrwt>
<rscale>  0 0.60985230E+03</rscale>
<asrwt>0</asrwt>
<pdfrwt beam="1">  1        1 0.32991250E+00 0.73158508E+03</pdfrwt>
<pdfrwt beam="2">  1       -1 0.97051496E-01 0.73158508E+03</pdfrwt>
<totfact> 0.25701293E+00</totfact>
</mgrwt>
</event>
<event>
 4    2  0.3179755E-007  0.1369042E+04  0.7818608E-02  0.9008119E-01
         -1   -1    0    0    0  501 -0.00000000000E+00  0.00000000000E+00  0.11540457049E+04  0.11540457049E+04  0.50400000000E-02 0.  1.
          1   -1    0    0  501    0  0.00000000000E+00 -0.00000000000E+00 -0.21906099675E+04  0.21906099675E+04  0.50400000000E-02 0. -1.
    8880023    1    1    2    0    0 -0.61496468680E+03  0.10306717812E+04 -0.15164946873E+04  0.20430448427E+04  0.65864270000E+03 0.  0.
    8880022    1    1    2    0    0  0.61496468680E+03 -0.10306717812E+04  0.47993042469E+03  0.13016108297E+04  0.15294330000E+03 0.  0.
<mgrwt>
<rscale>  0 0.13273943E+04</rscale>
<asrwt>0</asrwt>
<pdfrwt beam="1">  1        1 0.33701692E+00 0.13690420E+04</pdfrwt>
<pdfrwt beam="2">  1       -1 0.17754549E+00 0.13690420E+04</pdfrwt>
<totfact> 0.46084384E-01</totfact>
</mgrwt>
</event>
<event>
 4    2  0.3179755E-007  0.7632536E+03  0.7818608E-02  0.9796756E-01
          1   -1    0    0  501    0  0.00000000000E+00  0.00000000000E+00  0.25197708589E+04  0.25197708589E+04  0.50400000000E-02 0. -1.
         -1   -1    0    0    0  501 -0.00000000000E+00 -0.00000000000E+00 -0.38215233276E+03  0.38215233279E+03  0.50400000000E-02 0.  1.
    8880023    1    1    2    0    0  0.43329424219E+01  0.38565141831E+03  0.23247067883E+04  0.24467974270E+04  0.65864270000E+03 0. -1.
    8880022    1    1    2    0    0 -0.43329424219E+01 -0.38565141831E+03 -0.18708826217E+03  0.45512576470E+03  0.15294330000E+03 0.  0.
<mgrwt>
<rscale>  0 0.65536923E+03</rscale>
<asrwt>0</asrwt>
<pdfrwt beam="1">  1        1 0.38765705E+00 0.76325356E+03</pdfrwt>
<pdfrwt beam="2">  1       -1 0.58792668E-01 0.76325356E+03</pdfrwt>
<totfact> 0.40711002E+00</totfact>
</mgrwt>
</event>
<event>
 4    2  0.3179755E-007  0.6731717E+03  0.7818608E-02  0.1013484E+00
          1   -1    0    0  501    0  0.00000000000E+00  0.00000000000E+00  0.90962608732E+03  0.90962608733E+03  0.50400000000E-02 0. -1.
         -1   -1    0    0    0  501 -0.00000000000E+00 -0.00000000000E+00 -0.49110179910E+03  0.49110179913E+03  0.50400000000E-02 0.  1.
    8880023    1    1    2    0    0  0.12926726762E+03 -0.51380010189E+02  0.75142141265E+03  0.10088579075E+04  0.65864270000E+03 0. -1.
    8880022    1    1    2    0    0 -0.12926726762E+03  0.51380010189E+02 -0.33289712443E+03  0.39186997894E+03  0.15294330000E+03 0.  0.
<mgrwt>
<rscale>  0 0.50113036E+03</rscale>
<asrwt>0</asrwt>
<pdfrwt beam="1">  1        1 0.13994247E+00 0.67317170E+03</pdfrwt>
<pdfrwt beam="2">  1       -1 0.75554123E-01 0.67317170E+03</pdfrwt>
<totfact> 0.32555419E+01</totfact>
</mgrwt>
</event>
<event>
 4    2  0.3179755E-007  0.7570579E+03  0.7818608E-02  0.9812785E-01
         -1   -1    0    0    0  501 -0.00000000000E+00  0.00000000000E+00  0.14919617951E+04  0.14919617951E+04  0.50400000000E-02 0.  1.
          1   -1    0    0  501    0  0.00000000000E+00 -0.00000000000E+00 -0.52188110602E+03  0.52188110605E+03  0.50400000000E-02 0. -1.
    8880023    1    1    2    0    0  0.74298136331E+02  0.36579529493E+03 -0.19427858741E+03  0.78158863006E+03  0.65864270000E+03 0. -1.
    8880022    1    1    2    0    0 -0.74298136331E+02 -0.36579529493E+03  0.11643592765E+04  0.12322542711E+04  0.15294330000E+03 0.  0.
<mgrwt>
<rscale>  0 0.64680934E+03</rscale>
<asrwt>0</asrwt>
<pdfrwt beam="1">  1        1 0.80289403E-01 0.75705787E+03</pdfrwt>
<pdfrwt beam="2">  1       -1 0.22953258E+00 0.75705787E+03</pdfrwt>
<totfact> 0.41215508E+00</totfact>
</mgrwt>
</event>
<event>
 4    2  0.3179755E-007  0.7946745E+03  0.7818608E-02  0.9722431E-01
         -1   -1    0    0    0  501 -0.00000000000E+00  0.00000000000E+00  0.78730910061E+03  0.78730910062E+03  0.50400000000E-02 0.  1.
          1   -1    0    0  501    0  0.00000000000E+00 -0.00000000000E+00 -0.14657766656E+04  0.14657766656E+04  0.50400000000E-02 0. -1.
    8880023    1    1    2    0    0 -0.29118328578E+03 -0.33602027969E+03 -0.12695742848E+04  0.14977738164E+04  0.65864270000E+03 0. -1.
    8880022    1    1    2    0    0  0.29118328578E+03  0.33602027969E+03  0.59110671981E+03  0.75531194980E+03  0.15294330000E+03 0.  0.
<mgrwt>
<rscale>  0 0.69696800E+03</rscale>
<asrwt>0</asrwt>
<pdfrwt beam="1">  1        1 0.22550410E+00 0.79467449E+03</pdfrwt>
<pdfrwt beam="2">  1       -1 0.12112448E+00 0.79467449E+03</pdfrwt>
<totfact> 0.43255289E+00</totfact>
</mgrwt>
</event>
<event>
 4    2  0.3179755E-007  0.7226275E+03  0.7818608E-02  0.9913794E-01
         -1   -1    0    0    0  501 -0.00000000000E+00  0.00000000000E+00  0.45488389882E+03  0.45488389885E+03  0.50400000000E-02 0.  1.
          1   -1    0    0  501    0  0.00000000000E+00 -0.00000000000E+00 -0.16385331302E+04  0.16385331302E+04  0.50400000000E-02 0. -1.
    8880023    1    1    2    0    0 -0.35801643120E+02 -0.29512458381E+03 -0.14797831300E+04  0.16467995008E+04  0.65864270000E+03 0. -1.
    8880022    1    1    2    0    0  0.35801643120E+02  0.29512458381E+03  0.29613389864E+03  0.44661752827E+03  0.15294330000E+03 0.  0.
<mgrwt>
<rscale>  0 0.59597419E+03</rscale>
<asrwt>0</asrwt>
<pdfrwt beam="1">  1        1 0.25208202E+00 0.72262749E+03</pdfrwt>
<pdfrwt beam="2">  1       -1 0.69982139E-01 0.72262749E+03</pdfrwt>
<totfact> 0.11316150E+01</totfact>
</mgrwt>
</event>
<event>
 4    2  0.3179755E-007  0.7465019E+03  0.7818608E-02  0.9841397E-01
          1   -1    0    0  501    0  0.00000000000E+00  0.00000000000E+00  0.19018022592E+04  0.19018022592E+04  0.50400000000E-02 0. -1.
         -1   -1    0    0    0  501 -0.00000000000E+00 -0.00000000000E+00 -0.23870963137E+03  0.23870963142E+03  0.50400000000E-02 0.  1.
    8880023    1    1    2    0    0  0.27892174582E+03  0.21367626191E+03  0.15813360025E+04  0.17486819735E+04  0.65864270000E+03 0.  0.
    8880022    1    1    2    0    0 -0.27892174582E+03 -0.21367626191E+03  0.81756625324E+02  0.39182991717E+03  0.15294330000E+03 0.  0.
<mgrwt>
<rscale>  0 0.63187497E+03</rscale>
<asrwt>0</asrwt>
<pdfrwt beam="1">  1        1 0.29258496E+00 0.74650190E+03</pdfrwt>
<pdfrwt beam="2">  1       -1 0.36724560E-01 0.74650190E+03</pdfrwt>
<totfact> 0.25663905E+01</totfact>
</mgrwt>
</event>
<event>
 4    2  0.3179755E-007  0.7098453E+03  0.7818608E-02  0.9958576E-01
          1   -1    0    0  501    0  0.00000000000E+00  0.00000000000E+00  0.12374997611E+04  0.12374997611E+04  0.50400000000E-02 0. -1.
         -1   -1    0    0    0  501 -0.00000000000E+00 -0.00000000000E+00 -0.58224727445E+03  0.58224727447E+03  0.50400000000E-02 0.  1.
    8880023    1    1    2    0    0 -0.26154194942E+03 -0.40815726341E+02  0.10824422759E+04  0.12944348581E+04  0.65864270000E+03 0.  0.
    8880022    1    1    2    0    0  0.26154194942E+03  0.40815726341E+02 -0.42718978924E+03  0.52531217754E+03  0.15294330000E+03 0.  0.
<mgrwt>
<rscale>  0 0.57504525E+03</rscale>
<asrwt>0</asrwt>
<pdfrwt beam="1">  1        1 0.19038458E+00 0.70984528E+03</pdfrwt>
<pdfrwt beam="2">  1       -1 0.89576505E-01 0.70984528E+03</pdfrwt>
<totfact> 0.12734463E+01</totfact>
</mgrwt>
</event>
<event>
 4    2  0.3179755E-007  0.6681971E+03  0.7818608E-02  0.1016990E+00
         -1   -1    0    0    0  501 -0.00000000000E+00  0.00000000000E+00  0.62580081194E+03  0.62580081196E+03  0.50400000000E-02 0.  1.
          1   -1    0    0  501    0  0.00000000000E+00 -0.00000000000E+00 -0.73828957513E+03  0.73828957515E+03  0.50400000000E-02 0. -1.
    8880023    1    1    2    0    0  0.45842213567E+02 -0.10283813543E+03 -0.56390938211E+03  0.87434614892E+03  0.65864270000E+03 0. -1.
    8880022    1    1    2    0    0 -0.45842213567E+02  0.10283813543E+03  0.45142061891E+03  0.48974423818E+03  0.15294330000E+03 0.  0.
<mgrwt>
<rscale>  0 0.48788782E+03</rscale>
<asrwt>0</asrwt>
<pdfrwt beam="1">  1        1 0.11358301E+00 0.66819712E+03</pdfrwt>
<pdfrwt beam="2">  1       -1 0.96277048E-01 0.66819712E+03</pdfrwt>
<totfact> 0.26998606E+01</totfact>
</mgrwt>
</event>
<event>
 4    2  0.3179755E-007  0.6939339E+03  0.7818608E-02  0.1002336E+00
          1   -1    0    0  501    0  0.00000000000E+00  0.00000000000E+00  0.43521809562E+03  0.43521809565E+03  0.50400000000E-02 0. -1.
         -1   -1    0    0    0  501 -0.00000000000E+00 -0.00000000000E+00 -0.95429646067E+03  0.95429646069E+03  0.50400000000E-02 0.  1.
    8880023    1    1    2    0    0 -0.25491308427E+02 -0.21698904933E+03  0.11337135989E+03  0.70313393165E+03  0.65864270000E+03 0. -1.
    8880022    1    1    2    0    0  0.25491308427E+02  0.21698904933E+03 -0.63244972495E+03  0.68638062468E+03  0.15294330000E+03 0.  0.
<mgrwt>
<rscale>  0 0.54637636E+03</rscale>
<asrwt>0</asrwt>
<pdfrwt beam="1">  1        1 0.66956630E-01 0.69393390E+03</pdfrwt>
<pdfrwt beam="2">  1       -1 0.14681484E+00 0.69393390E+03</pdfrwt>
<totfact> 0.20436290E+01</totfact>
</mgrwt>
</event>
<event>
 4    2  0.3179755E-007  0.7114926E+03  0.7818608E-02  0.9952499E-01
          1   -1    0    0  501    0  0.00000000000E+00  0.00000000000E+00  0.13847545663E+04  0.13847545663E+04  0.50400000000E-02 0. -1.
         -1   -1    0    0    0  501 -0.00000000000E+00 -0.00000000000E+00 -0.25896187968E+03  0.25896187973E+03  0.50400000000E-02 0.  1.
    8880023    1    1    2    0    0  0.17668830857E+03 -0.20296011699E+03  0.11286367765E+04  0.13341824264E+04  0.65864270000E+03 0.  0.
    8880022    1    1    2    0    0 -0.17668830857E+03  0.20296011699E+03 -0.28440897934E+01  0.30953401968E+03  0.15294330000E+03 0. -1.
<mgrwt>
<rscale>  0 0.57783031E+03</rscale>
<asrwt>0</asrwt>
<pdfrwt beam="1">  1        1 0.21303916E+00 0.71149264E+03</pdfrwt>
<pdfrwt beam="2">  1       -1 0.39840289E-01 0.71149264E+03</pdfrwt>
<totfact> 0.49835122E+01</totfact>
</mgrwt>
</event>
<event>
 4    2  0.3179755E-007  0.7510687E+03  0.7818608E-02  0.9828804E-01
          1   -1    0    0  501    0  0.00000000000E+00  0.00000000000E+00  0.10146502999E+04  0.10146502999E+04  0.50400000000E-02 0. -1.
         -1   -1    0    0    0  501 -0.00000000000E+00 -0.00000000000E+00 -0.46126909917E+03  0.46126909920E+03  0.50400000000E-02 0.  1.
    8880023    1    1    2    0    0  0.81717833136E+02  0.35159084398E+03  0.72870115412E+03  0.10464747986E+04  0.65864270000E+03 0. -1.
    8880022    1    1    2    0    0 -0.81717833136E+02 -0.35159084398E+03 -0.17531995340E+03  0.42944460050E+03  0.15294330000E+03 0.  0.
<mgrwt>
<rscale>  0 0.63839411E+03</rscale>
<asrwt>0</asrwt>
<pdfrwt beam="1">  1        1 0.15610005E+00 0.75106866E+03</pdfrwt>
<pdfrwt beam="2">  1       -1 0.70964477E-01 0.75106866E+03</pdfrwt>
<totfact> 0.30359647E+01</totfact>
</mgrwt>
</event>
<event>
 4    2  0.3179755E-007  0.6978385E+03  0.7818608E-02  0.1000629E+00
         -1   -1    0    0    0  501 -0.00000000000E+00  0.00000000000E+00  0.18011721681E+03  0.18011721688E+03  0.50400000000E-02 0.  1.
          1   -1    0    0  501    0  0.00000000000E+00 -0.00000000000E+00 -0.19542840687E+04  0.19542840687E+04  0.50400000000E-02 0. -1.
    8880023    1    1    2    0    0  0.66781529701E+02  0.22070012189E+03 -0.17148751124E+04  0.18514251737E+04  0.65864270000E+03 0. -1.
    8880022    1    1    2    0    0 -0.66781529701E+02 -0.22070012189E+03 -0.59291739512E+02  0.28297611189E+03  0.15294330000E+03 0.  0.
<mgrwt>
<rscale>  0 0.55375339E+03</rscale>
<asrwt>0</asrwt>
<pdfrwt beam="1">  1        1 0.30065907E+00 0.69783846E+03</pdfrwt>
<pdfrwt beam="2">  1       -1 0.27710342E-01 0.69783846E+03</pdfrwt>
<totfact> 0.39088406E+01</totfact>
</mgrwt>
</event>
<event>
 4    2  0.3179755E-007  0.8250750E+03  0.7818608E-02  0.9658992E-01
         -1   -1    0    0    0  501 -0.00000000000E+00  0.00000000000E+00  0.68720921092E+03  0.68720921094E+03  0.50400000000E-02 0.  1.
          1   -1    0    0  501    0  0.00000000000E+00 -0.00000000000E+00 -0.14598020399E+04  0.14598020399E+04  0.50400000000E-02 0. -1.
    8880023    1    1    2    0    0  0.31263998201E+03  0.38625740602E+03 -0.12120589574E+04  0.14662317909E+04  0.65864270000E+03 0. -1.
    8880022    1    1    2    0    0 -0.31263998201E+03 -0.38625740602E+03  0.43946612844E+03  0.68077945997E+03  0.15294330000E+03 0.  0.
<mgrwt>
<rscale>  0 0.73511772E+03</rscale>
<asrwt>0</asrwt>
<pdfrwt beam="1">  1        1 0.22458493E+00 0.82507500E+03</pdfrwt>
<pdfrwt beam="2">  1       -1 0.10572449E+00 0.82507500E+03</pdfrwt>
<totfact> 0.60118974E+00</totfact>
</mgrwt>
</event>
<event>
 4    2  0.3179755E-007  0.7343509E+03  0.7818608E-02  0.9876719E-01
         -1   -1    0    0    0  501 -0.00000000000E+00  0.00000000000E+00  0.20646010550E+03  0.20646010556E+03  0.50400000000E-02 0.  1.
          1   -1    0    0  501    0  0.00000000000E+00 -0.00000000000E+00 -0.16432364750E+04  0.16432364750E+04  0.50400000000E-02 0. -1.
    8880023    1    1    2    0    0  0.32118866929E+03  0.47946546409E+02 -0.63341582283E+03  0.96978700933E+03  0.65864270000E+03 0.  1.
    8880022    1    1    2    0    0 -0.32118866929E+03 -0.47946546409E+02 -0.80336054668E+03  0.87990957124E+03  0.15294330000E+03 0.  0.
<mgrwt>
<rscale>  0 0.61402974E+03</rscale>
<asrwt>0</asrwt>
<pdfrwt beam="1">  1        1 0.25280560E+00 0.73435090E+03</pdfrwt>
<pdfrwt beam="2">  1       -1 0.31763094E-01 0.73435090E+03</pdfrwt>
<totfact> 0.49580794E+01</totfact>
</mgrwt>
</event>
<event>
 4    2  0.3179755E-007  0.1793728E+04  0.7818608E-02  0.8726014E-01
          1   -1    0    0  501    0  0.00000000000E+00  0.00000000000E+00  0.34767210822E+04  0.34767210822E+04  0.50400000000E-02 0. -1.
         -1   -1    0    0    0  501 -0.00000000000E+00 -0.00000000000E+00 -0.10508429806E+04  0.10508429807E+04  0.50400000000E-02 0.  1.
    8880023    1    1    2    0    0  0.21281494675E+03 -0.16547992181E+04  0.21975280696E+04  0.28366512786E+04  0.65864270000E+03 0.  1.
    8880022    1    1    2    0    0 -0.21281494675E+03  0.16547992181E+04  0.22835003194E+03  0.16909127842E+04  0.15294330000E+03 0.  0.
<mgrwt>
<rscale>  0 0.17633909E+04</rscale>
<asrwt>0</asrwt>
<pdfrwt beam="1">  1        1 0.53488017E+00 0.17937282E+04</pdfrwt>
<pdfrwt beam="2">  1       -1 0.16166815E+00 0.17937282E+04</pdfrwt>
<totfact> 0.68104557E-02</totfact>
</mgrwt>
</event>
<event>
 4    2  0.3595784E-007  0.9757975E+03  0.7818608E-02  0.9413930E-01
         -1   -1    0    0    0  501 -0.00000000000E+00  0.00000000000E+00  0.14419164847E+04  0.14419164847E+04  0.50400000000E-02 0.  1.
          1   -1    0    0  501    0  0.00000000000E+00 -0.00000000000E+00 -0.23271028833E+04  0.23271028833E+04  0.50400000000E-02 0. -1.
    8880023    1    1    2    0    0 -0.67610788634E+03  0.24748458636E+03 -0.21186908040E+04  0.23326018571E+04  0.65864270000E+03 0. -1.
    8880022    1    1    2    0    0  0.67610788634E+03 -0.24748458636E+03  0.12335044054E+04  0.14364175109E+04  0.15294330000E+03 0.  0.
<mgrwt>
<rscale>  0 0.90938094E+03</rscale>
<asrwt>0</asrwt>
<pdfrwt beam="1">  1        1 0.35801583E+00 0.97579747E+03</pdfrwt>
<pdfrwt beam="2">  1       -1 0.22183331E+00 0.97579747E+03</pdfrwt>
<totfact> 0.19529577E-01</totfact>
</mgrwt>
</event>
<event>
 4    2  0.3179755E-007  0.1056131E+04  0.7818608E-02  0.9311547E-01
          1   -1    0    0  501    0  0.00000000000E+00  0.00000000000E+00  0.14678815335E+04  0.14678815336E+04  0.50400000000E-02 0. -1.
         -1   -1    0    0    0  501 -0.00000000000E+00 -0.00000000000E+00 -0.11935999913E+04  0.11935999913E+04  0.50400000000E-02 0.  1.
    8880023    1    1    2    0    0  0.58976412629E+03 -0.57773751878E+03  0.10708989479E+04  0.15040735116E+04  0.65864270000E+03 0. -1.
    8880022    1    1    2    0    0 -0.58976412629E+03  0.57773751878E+03 -0.79661740566E+03  0.11574080133E+04  0.15294330000E+03 0.  0.
<mgrwt>
<rscale>  0 0.99726713E+03</rscale>
<asrwt>0</asrwt>
<pdfrwt beam="1">  1        1 0.22582793E+00 0.10561309E+04</pdfrwt>
<pdfrwt beam="2">  1       -1 0.18363077E+00 0.10561309E+04</pdfrwt>
<totfact> 0.13474733E+00</totfact>
</mgrwt>
</event>
<event>
 4    2  0.3179755E-007  0.7595644E+03  0.7818608E-02  0.9806237E-01
          1   -1    0    0  501    0  0.00000000000E+00  0.00000000000E+00  0.23901406651E+03  0.23901406657E+03  0.50400000000E-02 0. -1.
         -1   -1    0    0    0  501 -0.00000000000E+00 -0.00000000000E+00 -0.22437473454E+04  0.22437473454E+04  0.50400000000E-02 0.  1.
    8880023    1    1    2    0    0 -0.37634755394E+03  0.38605273731E+02 -0.46663462823E+03  0.89145158648E+03  0.65864270000E+03 0. -1.
    8880022    1    1    2    0    0  0.37634755394E+03 -0.38605273731E+02 -0.15380986506E+04  0.15913098255E+04  0.15294330000E+03 0.  0.
<mgrwt>
<rscale>  0 0.65028926E+03</rscale>
<asrwt>0</asrwt>
<pdfrwt beam="1">  1        1 0.36771396E-01 0.75956438E+03</pdfrwt>
<pdfrwt beam="2">  1       -1 0.34519189E+00 0.75956438E+03</pdfrwt>
<totfact> 0.20794321E+00</totfact>
</mgrwt>
</event>
<event>
 4    2  0.3179755E-007  0.7186655E+03  0.7818608E-02  0.9927127E-01
          1   -1    0    0  501    0  0.00000000000E+00  0.00000000000E+00  0.33104435522E+03  0.33104435526E+03  0.50400000000E-02 0. -1.
         -1   -1    0    0    0  501 -0.00000000000E+00 -0.00000000000E+00 -0.10429405439E+04  0.10429405439E+04  0.50400000000E-02 0.  1.
    8880023    1    1    2    0    0 -0.14142189209E+03  0.25033933153E+03 -0.16483983440E+03  0.73732781701E+03  0.65864270000E+03 0. -1.
    8880022    1    1    2    0    0  0.14142189209E+03 -0.25033933153E+03 -0.54705635425E+03  0.63665708212E+03  0.15294330000E+03 0.  0.
<mgrwt>
<rscale>  0 0.58964399E+03</rscale>
<asrwt>0</asrwt>
<pdfrwt beam="1">  1        1 0.50929901E-01 0.71866553E+03</pdfrwt>
<pdfrwt beam="2">  1       -1 0.16045239E+00 0.71866553E+03</pdfrwt>
<totfact> 0.22971480E+01</totfact>
</mgrwt>
</event>
<event>
 4    2  0.3179755E-007  0.8521008E+03  0.7818608E-02  0.9607772E-01
          1   -1    0    0  501    0  0.00000000000E+00  0.00000000000E+00  0.19994870402E+04  0.19994870402E+04  0.50400000000E-02 0. -1.
         -1   -1    0    0    0  501 -0.00000000000E+00 -0.00000000000E+00 -0.26827868786E+03  0.26827868790E+03  0.50400000000E-02 0.  1.
    8880023    1    1    2    0    0  0.47374650873E+03 -0.26044141353E+03  0.13215489758E+04  0.15724399468E+04  0.65864270000E+03 0. -1.
    8880022    1    1    2    0    0 -0.47374650873E+03  0.26044141353E+03  0.40965937651E+03  0.69532578134E+03  0.15294330000E+03 0.  0.
<mgrwt>
<rscale>  0 0.76783899E+03</rscale>
<asrwt>0</asrwt>
<pdfrwt beam="1">  1        1 0.30761340E+00 0.85210075E+03</pdfrwt>
<pdfrwt beam="2">  1       -1 0.41273643E-01 0.85210075E+03</pdfrwt>
<totfact> 0.17621670E+01</totfact>
</mgrwt>
</event>
<event>
 4    2  0.3179755E-007  0.7457717E+03  0.7818608E-02  0.9843443E-01
          1   -1    0    0  501    0  0.00000000000E+00  0.00000000000E+00  0.26928978007E+04  0.26928978007E+04  0.50400000000E-02 0. -1.
         -1   -1    0    0    0  501 -0.00000000000E+00 -0.00000000000E+00 -0.12957083380E+03  0.12957083390E+03  0.50400000000E-02 0.  1.
    8880023    1    1    2    0    0 -0.27358064171E+03  0.21798815099E+03  0.12578726777E+04  0.14623334370E+04  0.65864270000E+03 0.  1.
    8880022    1    1    2    0    0  0.27358064171E+03 -0.21798815099E+03  0.13054542892E+04  0.13601351975E+04  0.15294330000E+03 0.  0.
<mgrwt>
<rscale>  0 0.63082376E+03</rscale>
<asrwt>0</asrwt>
<pdfrwt beam="1">  1        1 0.41429197E+00 0.74577169E+03</pdfrwt>
<pdfrwt beam="2">  1       -1 0.19933975E-01 0.74577169E+03</pdfrwt>
<totfact> 0.21465688E+01</totfact>
</mgrwt>
</event>
<event>
 4    2  0.3179755E-007  0.7229025E+03  0.7818608E-02  0.9912885E-01
         -1   -1    0    0    0  501 -0.00000000000E+00  0.00000000000E+00  0.29847197835E+03  0.29847197840E+03  0.50400000000E-02 0.  1.
          1   -1    0    0  501    0  0.00000000000E+00 -0.00000000000E+00 -0.12590073474E+04  0.12590073474E+04  0.50400000000E-02 0. -1.
    8880023    1    1    2    0    0  0.57458674017E+00  0.29795552695E+03 -0.98484362285E+03  0.12216812162E+04  0.65864270000E+03 0.  0.
    8880022    1    1    2    0    0 -0.57458674017E+00 -0.29795552695E+03  0.24308253849E+02  0.33579810960E+03  0.15294330000E+03 0.  0.
<mgrwt>
<rscale>  0 0.59640893E+03</rscale>
<asrwt>0</asrwt>
<pdfrwt beam="1">  1        1 0.19369344E+00 0.72290251E+03</pdfrwt>
<pdfrwt beam="2">  1       -1 0.45918767E-01 0.72290251E+03</pdfrwt>
<totfact> 0.46991083E+01</totfact>
</mgrwt>
</event>
<event>
 4    2  0.3179755E-007  0.7761169E+03  0.7818608E-02  0.9765039E-01
         -1   -1    0    0    0  501 -0.00000000000E+00  0.00000000000E+00  0.20877411391E+03  0.20877411397E+03  0.50400000000E-02 0.  1.
          1   -1    0    0  501    0  0.00000000000E+00 -0.00000000000E+00 -0.24283891465E+04  0.24283891465E+04  0.50400000000E-02 0. -1.
    8880023    1    1    2    0    0  0.45918266236E+02 -0.40796911421E+03 -0.20036564356E+04  0.21487197591E+04  0.65864270000E+03 0.  0.
    8880022    1    1    2    0    0 -0.45918266236E+02  0.40796911421E+03 -0.21595859699E+03  0.48844350129E+03  0.15294330000E+03 0.  0.
<mgrwt>
<rscale>  0 0.67272994E+03</rscale>
<asrwt>0</asrwt>
<pdfrwt beam="1">  1        1 0.37359831E+00 0.77611693E+03</pdfrwt>
<pdfrwt beam="2">  1       -1 0.32119096E-01 0.77611693E+03</pdfrwt>
<totfact> 0.14358048E+01</totfact>
</mgrwt>
</event>
<event>
 4    2  0.3179755E-007  0.8249283E+03  0.7818608E-02  0.9659282E-01
         -1   -1    0    0    0  501 -0.00000000000E+00  0.00000000000E+00  0.44960530937E+03  0.44960530940E+03  0.50400000000E-02 0.  1.
          1   -1    0    0  501    0  0.00000000000E+00 -0.00000000000E+00 -0.13261232878E+04  0.13261232878E+04  0.50400000000E-02 0. -1.
    8880023    1    1    2    0    0 -0.13934046110E+03  0.47673970635E+03 -0.94174113835E+03  0.12519517122E+04  0.65864270000E+03 0.  0.
    8880022    1    1    2    0    0  0.13934046110E+03 -0.47673970635E+03  0.65223159899E+02  0.52377688505E+03  0.15294330000E+03 0.  0.
<mgrwt>
<rscale>  0 0.73493740E+03</rscale>
<asrwt>0</asrwt>
<pdfrwt beam="1">  1        1 0.20401897E+00 0.82492831E+03</pdfrwt>
<pdfrwt beam="2">  1       -1 0.69170048E-01 0.82492831E+03</pdfrwt>
<totfact> 0.18749914E+01</totfact>
</mgrwt>
</event>
<event>
 4    2  0.3179755E-007  0.7643340E+03  0.7818608E-02  0.9794014E-01
         -1   -1    0    0    0  501 -0.00000000000E+00  0.00000000000E+00  0.26165800955E+03  0.26165800960E+03  0.50400000000E-02 0.  1.
          1   -1    0    0  501    0  0.00000000000E+00 -0.00000000000E+00 -0.19804039867E+04  0.19804039867E+04  0.50400000000E-02 0. -1.
    8880023    1    1    2    0    0  0.29610489099E+01 -0.38779832435E+03 -0.16514972962E+04  0.18197938987E+04  0.65864270000E+03 0. -1.
    8880022    1    1    2    0    0 -0.29610489099E+01  0.38779832435E+03 -0.67248681022E+02  0.42226809765E+03  0.15294330000E+03 0.  0.
<mgrwt>
<rscale>  0 0.65684797E+03</rscale>
<asrwt>0</asrwt>
<pdfrwt beam="1">  1        1 0.30467753E+00 0.76433403E+03</pdfrwt>
<pdfrwt beam="2">  1       -1 0.40255080E-01 0.76433403E+03</pdfrwt>
<totfact> 0.19216787E+01</totfact>
</mgrwt>
</event>
<event>
 4    2  0.3179755E-007  0.8020483E+03  0.7818608E-02  0.9706385E-01
          1   -1    0    0  501    0  0.00000000000E+00  0.00000000000E+00  0.31582078721E+03  0.31582078725E+03  0.50400000000E-02 0. -1.
         -1   -1    0    0    0  501 -0.00000000000E+00 -0.00000000000E+00 -0.33214277321E+04  0.33214277321E+04  0.50400000000E-02 0.  1.
    8880023    1    1    2    0    0  0.79945243696E+02  0.45064394893E+03 -0.25058199807E+03  0.84028135450E+03  0.65864270000E+03 0. -1.
    8880022    1    1    2    0    0 -0.79945243696E+02 -0.45064394893E+03 -0.27550249468E+04  0.27969671649E+04  0.15294330000E+03 0.  0.
<mgrwt>
<rscale>  0 0.70637921E+03</rscale>
<asrwt>0</asrwt>
<pdfrwt beam="1">  1        1 0.48587816E-01 0.80204826E+03</pdfrwt>
<pdfrwt beam="2">  1       -1 0.51098886E+00 0.80204826E+03</pdfrwt>
<totfact> 0.10913532E-01</totfact>
</mgrwt>
</event>
<event>
 4    2  0.3179755E-007  0.6722160E+03  0.7818608E-02  0.1014122E+00
         -1   -1    0    0    0  501 -0.00000000000E+00  0.00000000000E+00  0.16449653502E+03  0.16449653510E+03  0.50400000000E-02 0.  1.
          1   -1    0    0  501    0  0.00000000000E+00 -0.00000000000E+00 -0.14828198659E+04  0.14828198659E+04  0.50400000000E-02 0. -1.
    8880023    1    1    2    0    0  0.45570708063E+02  0.12644138434E+03 -0.12717070424E+04  0.14384412123E+04  0.65864270000E+03 0.  0.
    8880022    1    1    2    0    0 -0.45570708063E+02 -0.12644138434E+03 -0.46616288441E+02  0.20887518874E+03  0.15294330000E+03 0.  0.
<mgrwt>
<rscale>  0 0.49868895E+03</rscale>
<asrwt>0</asrwt>
<pdfrwt beam="1">  1        1 0.22812612E+00 0.67221598E+03</pdfrwt>
<pdfrwt beam="2">  1       -1 0.25307160E-01 0.67221598E+03</pdfrwt>
<totfact> 0.95032251E+01</totfact>
</mgrwt>
</event>
<event>
 4    2  0.3179755E-007  0.7710036E+03  0.7818608E-02  0.9777410E-01
         -1   -1    0    0    0  501 -0.00000000000E+00  0.00000000000E+00  0.26686427239E+03  0.26686427244E+03  0.50400000000E-02 0.  1.
          1   -1    0    0  501    0  0.00000000000E+00 -0.00000000000E+00 -0.21673008427E+04  0.21673008427E+04  0.50400000000E-02 0. -1.
    8880023    1    1    2    0    0  0.17960341797E+03 -0.35830008895E+03 -0.18475020785E+04  0.20019266914E+04  0.65864270000E+03 0. -1.
    8880022    1    1    2    0    0 -0.17960341797E+03  0.35830008895E+03 -0.52934491785E+02  0.43223842370E+03  0.15294330000E+03 0.  0.
<mgrwt>
<rscale>  0 0.66589046E+03</rscale>
<asrwt>0</asrwt>
<pdfrwt beam="1">  1        1 0.33343089E+00 0.77100360E+03</pdfrwt>
<pdfrwt beam="2">  1       -1 0.41056043E-01 0.77100360E+03</pdfrwt>
<totfact> 0.13883905E+01</totfact>
</mgrwt>
</event>
<event>
 4    2  0.3179755E-007  0.8042373E+03  0.7818608E-02  0.9701708E-01
          1   -1    0    0  501    0  0.00000000000E+00  0.00000000000E+00  0.17917963993E+04  0.17917963994E+04  0.50400000000E-02 0. -1.
         -1   -1    0    0    0  501 -0.00000000000E+00 -0.00000000000E+00 -0.24383293195E+03  0.24383293200E+03  0.50400000000E-02 0.  1.
    8880023    1    1    2    0    0 -0.39603802791E+03  0.23694144895E+03  0.11702649236E+04  0.14199709742E+04  0.65864270000E+03 0.  1.
    8880022    1    1    2    0    0  0.39603802791E+03 -0.23694144895E+03  0.37769854377E+03  0.61565835718E+03  0.15294330000E+03 0.  0.
<mgrwt>
<rscale>  0 0.70915188E+03</rscale>
<asrwt>0</asrwt>
<pdfrwt beam="1">  1        1 0.27566099E+00 0.80423726E+03</pdfrwt>
<pdfrwt beam="2">  1       -1 0.37512758E-01 0.80423726E+03</pdfrwt>
<totfact> 0.29059405E+01</totfact>
</mgrwt>
</event>
<event>
 4    2  0.3179755E-007  0.8094230E+03  0.7818608E-02  0.9690780E-01
         -1   -1    0    0    0  501 -0.00000000000E+00  0.00000000000E+00  0.36562558849E+03  0.36562558853E+03  0.50400000000E-02 0.  1.
          1   -1    0    0  501    0  0.00000000000E+00 -0.00000000000E+00 -0.37322944833E+04  0.37322944833E+04  0.50400000000E-02 0. -1.
    8880023    1    1    2    0    0  0.41735032008E+03  0.21719603621E+03 -0.34944467654E+04  0.35869658223E+04  0.65864270000E+03 0. -1.
    8880022    1    1    2    0    0 -0.41735032008E+03 -0.21719603621E+03  0.12777787065E+03  0.51095424948E+03  0.15294330000E+03 0.  0.
<mgrwt>
<rscale>  0 0.71568406E+03</rscale>
<asrwt>0</asrwt>
<pdfrwt beam="1">  1        1 0.57419913E+00 0.80942301E+03</pdfrwt>
<pdfrwt beam="2">  1       -1 0.56250093E-01 0.80942301E+03</pdfrwt>
<totfact> 0.56396272E-01</totfact>
</mgrwt>
</event>
<event>
 4    2  0.3179755E-007  0.1141110E+04  0.7818608E-02  0.9216609E-01
          1   -1    0    0  501    0  0.00000000000E+00  0.00000000000E+00  0.41557028999E+04  0.41557028999E+04  0.50400000000E-02 0. -1.
         -1   -1    0    0    0  501 -0.00000000000E+00 -0.00000000000E+00 -0.33882085774E+03  0.33882085778E+03  0.50400000000E-02 0.  1.
    8880023    1    1    2    0    0  0.22594233162E+01  0.93183486105E+03  0.31164784674E+04  0.33188205069E+04  0.65864270000E+03 0.  0.
    8880022    1    1    2    0    0 -0.22594233162E+01 -0.93183486105E+03  0.70040357479E+03  0.11757032508E+04  0.15294330000E+03 0.  0.
<mgrwt>
<rscale>  0 0.10883628E+04</rscale>
<asrwt>0</asrwt>
<pdfrwt beam="1">  1        1 0.63933892E+00 0.11411098E+04</pdfrwt>
<pdfrwt beam="2">  1       -1 0.52126285E-01 0.11411098E+04</pdfrwt>
<totfact> 0.26617825E-01</totfact>
</mgrwt>
</event>
<event>
 4    2  0.3179755E-007  0.7610823E+03  0.7818608E-02  0.9802314E-01
          1   -1    0    0  501    0  0.00000000000E+00  0.00000000000E+00  0.63602409887E+03  0.63602409889E+03  0.50400000000E-02 0. -1.
         -1   -1    0    0    0  501 -0.00000000000E+00 -0.00000000000E+00 -0.62834351551E+03  0.62834351553E+03  0.50400000000E-02 0.  1.
    8880023    1    1    2    0    0 -0.36394963347E+03 -0.11391525579E+03  0.23275050924E+03  0.79587626364E+03  0.65864270000E+03 0. -1.
    8880022    1    1    2    0    0  0.36394963347E+03  0.11391525579E+03 -0.22506992589E+03  0.46849135078E+03  0.15294330000E+03 0.  0.
<mgrwt>
<rscale>  0 0.65238529E+03</rscale>
<asrwt>0</asrwt>
<pdfrwt beam="1">  1        1 0.97849862E-01 0.76108227E+03</pdfrwt>
<pdfrwt beam="2">  1       -1 0.96668233E-01 0.76108227E+03</pdfrwt>
<totfact> 0.33123352E+01</totfact>
</mgrwt>
</event>
<event>
 4    2  0.3179755E-007  0.8401844E+03  0.7818608E-02  0.9629833E-01
         -1   -1    0    0    0  501 -0.00000000000E+00  0.00000000000E+00  0.91944025321E+03  0.91944025322E+03  0.50400000000E-02 0.  1.
          1   -1    0    0  501    0  0.00000000000E+00 -0.00000000000E+00 -0.17032810750E+04  0.17032810750E+04  0.50400000000E-02 0. -1.
    8880023    1    1    2    0    0 -0.50604948246E+03 -0.12654438509E+03 -0.15026043682E+04  0.17215486207E+04  0.65864270000E+03 0. -1.
    8880022    1    1    2    0    0  0.50604948246E+03  0.12654438509E+03  0.71876354638E+03  0.90117270748E+03  0.15294330000E+03 0.  0.
<mgrwt>
<rscale>  0 0.75352735E+03</rscale>
<asrwt>0</asrwt>
<pdfrwt beam="1">  1        1 0.26204324E+00 0.84018436E+03</pdfrwt>
<pdfrwt beam="2">  1       -1 0.14145235E+00 0.84018436E+03</pdfrwt>
<totfact> 0.19976295E+00</totfact>
</mgrwt>
</event>
<event>
 4    2  0.3179755E-007  0.9381122E+03  0.7818608E-02  0.9467428E-01
          1   -1    0    0  501    0  0.00000000000E+00  0.00000000000E+00  0.23742015487E+04  0.23742015487E+04  0.50400000000E-02 0. -1.
         -1   -1    0    0    0  501 -0.00000000000E+00 -0.00000000000E+00 -0.40141561519E+03  0.40141561522E+03  0.50400000000E-02 0.  1.
    8880023    1    1    2    0    0 -0.56081588801E+03  0.36294593716E+03  0.18571366057E+04  0.20806274996E+04  0.65864270000E+03 0. -1.
    8880022    1    1    2    0    0  0.56081588801E+03 -0.36294593716E+03  0.11564932786E+03  0.69498966438E+03  0.15294330000E+03 0.  0.
<mgrwt>
<rscale>  0 0.86728379E+03</rscale>
<asrwt>0</asrwt>
<pdfrwt beam="1">  1        1 0.36526176E+00 0.93811216E+03</pdfrwt>
<pdfrwt beam="2">  1       -1 0.61756251E-01 0.93811216E+03</pdfrwt>
<totfact> 0.45138023E+00</totfact>
</mgrwt>
</event>
<event>
 4    2  0.3179755E-007  0.8923738E+03  0.7818608E-02  0.9538387E-01
          1   -1    0    0  501    0  0.00000000000E+00  0.00000000000E+00  0.33069873388E+04  0.33069873388E+04  0.50400000000E-02 0. -1.
         -1   -1    0    0    0  501 -0.00000000000E+00 -0.00000000000E+00 -0.37510532840E+03  0.37510532843E+03  0.50400000000E-02 0.  1.
    8880023    1    1    2    0    0 -0.35352583505E+03  0.48738108589E+03  0.29278901581E+04  0.30608612878E+04  0.65864270000E+03 0. -1.
    8880022    1    1    2    0    0  0.35352583505E+03 -0.48738108589E+03  0.39918523184E+01  0.62123137947E+03  0.15294330000E+03 0.  0.
<mgrwt>
<rscale>  0 0.81511939E+03</rscale>
<asrwt>0</asrwt>
<pdfrwt beam="1">  1        1 0.50876729E+00 0.89237383E+03</pdfrwt>
<pdfrwt beam="2">  1       -1 0.57708511E-01 0.89237383E+03</pdfrwt>
<totfact> 0.11314213E+00</totfact>
</mgrwt>
</event>
<event>
 4    2  0.3179755E-007  0.6977279E+03  0.7818608E-02  0.1000676E+00
         -1   -1    0    0    0  501 -0.00000000000E+00  0.00000000000E+00  0.61313995737E+03  0.61313995739E+03  0.50400000000E-02 0.  1.
          1   -1    0    0  501    0  0.00000000000E+00 -0.00000000000E+00 -0.17535912507E+04  0.17535912507E+04  0.50400000000E-02 0. -1.
    8880023    1    1    2    0    0  0.21257942761E+03 -0.88453460942E+02 -0.16475426569E+04  0.17891956406E+04  0.65864270000E+03 0. -1.
    8880022    1    1    2    0    0 -0.21257942761E+03  0.88453460942E+02  0.50709136352E+03  0.57753556753E+03  0.15294330000E+03 0.  0.
<mgrwt>
<rscale>  0 0.55354799E+03</rscale>
<asrwt>0</asrwt>
<pdfrwt beam="1">  1        1 0.26978327E+00 0.69772791E+03</pdfrwt>
<pdfrwt beam="2">  1       -1 0.94329225E-01 0.69772791E+03</pdfrwt>
<totfact> 0.50313166E+00</totfact>
</mgrwt>
</event>
<event>
 4    2  0.3179755E-007  0.6838831E+03  0.7818608E-02  0.1007207E+00
          1   -1    0    0  501    0  0.00000000000E+00  0.00000000000E+00  0.17906109405E+04  0.17906109405E+04  0.50400000000E-02 0. -1.
         -1   -1    0    0    0  501 -0.00000000000E+00 -0.00000000000E+00 -0.42953215140E+03  0.42953215143E+03  0.50400000000E-02 0.  1.
    8880023    1    1    2    0    0 -0.10165020761E+03  0.15347023656E+03  0.16843673885E+04  0.18179080241E+04  0.65864270000E+03 0. -1.
    8880022    1    1    2    0    0  0.10165020761E+03 -0.15347023656E+03 -0.32328859947E+03  0.40223506781E+03  0.15294330000E+03 0.  0.
<mgrwt>
<rscale>  0 0.52599842E+03</rscale>
<asrwt>0</asrwt>
<pdfrwt beam="1">  1        1 0.27547861E+00 0.68388309E+03</pdfrwt>
<pdfrwt beam="2">  1       -1 0.66081869E-01 0.68388309E+03</pdfrwt>
<totfact> 0.10112522E+01</totfact>
</mgrwt>
</event>
<event>
 4    2  0.3179755E-007  0.9029352E+03  0.7818608E-02  0.9521336E-01
          1   -1    0    0  501    0  0.00000000000E+00  0.00000000000E+00  0.29044207397E+04  0.29044207397E+04  0.50400000000E-02 0. -1.
         -1   -1    0    0    0  501 -0.00000000000E+00 -0.00000000000E+00 -0.32828206097E+03  0.32828206101E+03  0.50400000000E-02 0.  1.
    8880023    1    1    2    0    0  0.57722582240E+03  0.21975469713E+03  0.24121578486E+04  0.25756159399E+04  0.65864270000E+03 0.  0.
    8880022    1    1    2    0    0 -0.57722582240E+03 -0.21975469713E+03  0.16398083007E+03  0.65708686077E+03  0.15294330000E+03 0.  0.
<mgrwt>
<rscale>  0 0.82728919E+03</rscale>
<asrwt>0</asrwt>
<pdfrwt beam="1">  1        1 0.44683398E+00 0.90293520E+03</pdfrwt>
<pdfrwt beam="2">  1       -1 0.50504931E-01 0.90293520E+03</pdfrwt>
<totfact> 0.28753529E+00</totfact>
</mgrwt>
</event>
<event>
 4    2  0.3179755E-007  0.9251425E+03  0.7818608E-02  0.9486819E-01
         -1   -1    0    0    0  501 -0.00000000000E+00  0.00000000000E+00  0.50838304798E+03  0.50838304800E+03  0.50400000000E-02 0.  1.
          1   -1    0    0  501    0  0.00000000000E+00 -0.00000000000E+00 -0.21069541861E+04  0.21069541861E+04  0.50400000000E-02 0. -1.
    8880023    1    1    2    0    0  0.17318037691E+03  0.62616854361E+03 -0.17046586925E+04  0.19395231250E+04  0.65864270000E+03 0. -1.
    8880022    1    1    2    0    0 -0.17318037691E+03 -0.62616854361E+03  0.10608755438E+03  0.67581410918E+03  0.15294330000E+03 0.  0.
<mgrwt>
<rscale>  0 0.85262646E+03</rscale>
<asrwt>0</asrwt>
<pdfrwt beam="1">  1        1 0.32414679E+00 0.92514253E+03</pdfrwt>
<pdfrwt beam="2">  1       -1 0.78212778E-01 0.92514253E+03</pdfrwt>
<totfact> 0.42220947E+00</totfact>
</mgrwt>
</event>
<event>
 4    2  0.3179755E-007  0.9049403E+03  0.7818608E-02  0.9518147E-01
          1   -1    0    0  501    0  0.00000000000E+00  0.00000000000E+00  0.13999727780E+04  0.13999727780E+04  0.50400000000E-02 0. -1.
         -1   -1    0    0    0  501 -0.00000000000E+00 -0.00000000000E+00 -0.63659102301E+03  0.63659102303E+03  0.50400000000E-02 0.  1.
    8880023    1    1    2    0    0 -0.56147758480E+03  0.26429100515E+03  0.10058159027E+04  0.13529902624E+04  0.65864270000E+03 0. -1.
    8880022    1    1    2    0    0  0.56147758480E+03 -0.26429100515E+03 -0.24243414780E+03  0.68357353860E+03  0.15294330000E+03 0.  0.
<mgrwt>
<rscale>  0 0.82959049E+03</rscale>
<asrwt>0</asrwt>
<pdfrwt beam="1">  1        1 0.21538042E+00 0.90494034E+03</pdfrwt>
<pdfrwt beam="2">  1       -1 0.97937082E-01 0.90494034E+03</pdfrwt>
<totfact> 0.78042754E+00</totfact>
</mgrwt>
</event>
<event>
 4    2  0.3179755E-007  0.8480511E+03  0.7818608E-02  0.9615182E-01
          1   -1    0    0  501    0  0.00000000000E+00  0.00000000000E+00  0.12453916187E+04  0.12453916187E+04  0.50400000000E-02 0. -1.
         -1   -1    0    0    0  501 -0.00000000000E+00 -0.00000000000E+00 -0.53823111856E+03  0.53823111858E+03  0.50400000000E-02 0.  1.
    8880023    1    1    2    0    0  0.11893122708E+03  0.52080313588E+03  0.85949791341E+03  0.12074466500E+04  0.65864270000E+03 0. -1.
    8880022    1    1    2    0    0 -0.11893122708E+03 -0.52080313588E+03 -0.15233741326E+03  0.57617608733E+03  0.15294330000E+03 0.  0.
<mgrwt>
<rscale>  0 0.76299433E+03</rscale>
<asrwt>0</asrwt>
<pdfrwt beam="1">  1        1 0.19159871E+00 0.84805115E+03</pdfrwt>
<pdfrwt beam="2">  1       -1 0.82804788E-01 0.84805115E+03</pdfrwt>
<totfact> 0.14641728E+01</totfact>
</mgrwt>
</event>
<event>
 4    2  0.3179755E-007  0.6834681E+03  0.7818608E-02  0.1007426E+00
         -1   -1    0    0    0  501 -0.00000000000E+00  0.00000000000E+00  0.13861880004E+03  0.13861880013E+03  0.50400000000E-02 0.  1.
          1   -1    0    0  501    0  0.00000000000E+00 -0.00000000000E+00 -0.15357554327E+04  0.15357554327E+04  0.50400000000E-02 0. -1.
    8880023    1    1    2    0    0  0.16998445050E+03  0.66511272269E+02 -0.10723501476E+04  0.12716381199E+04  0.65864270000E+03 0. -1.
    8880022    1    1    2    0    0 -0.16998445050E+03 -0.66511272269E+02 -0.32478648511E+03  0.40273611295E+03  0.15294330000E+03 0. -1.
<mgrwt>
<rscale>  0 0.52510513E+03</rscale>
<asrwt>0</asrwt>
<pdfrwt beam="1">  1        1 0.23627006E+00 0.68346812E+03</pdfrwt>
<pdfrwt beam="2">  1       -1 0.21325970E-01 0.68346812E+03</pdfrwt>
<totfact> 0.11662678E+02</totfact>
</mgrwt>
</event>
<event>
 4    2  0.3179755E-007  0.1069118E+04  0.7818608E-02  0.9296244E-01
          1   -1    0    0  501    0  0.00000000000E+00  0.00000000000E+00  0.17652743527E+04  0.17652743527E+04  0.50400000000E-02 0. -1.
         -1   -1    0    0    0  501 -0.00000000000E+00 -0.00000000000E+00 -0.88966648613E+03  0.88966648615E+03  0.50400000000E-02 0.  1.
    8880023    1    1    2    0    0  0.64543873469E+03  0.54093635381E+03  0.13134253610E+04  0.16935464813E+04  0.65864270000E+03 0. -1.
    8880022    1    1    2    0    0 -0.64543873469E+03 -0.54093635381E+03 -0.43781749451E+03  0.96139435750E+03  0.15294330000E+03 0.  0.
<mgrwt>
<rscale>  0 0.10112936E+04</rscale>
<asrwt>0</asrwt>
<pdfrwt beam="1">  1        1 0.27158067E+00 0.10691181E+04</pdfrwt>
<pdfrwt beam="2">  1       -1 0.13687177E+00 0.10691181E+04</pdfrwt>
<totfact> 0.19096900E+00</totfact>
</mgrwt>
</event>
<event>
 4    2  0.3179755E-007  0.1581303E+04  0.7818608E-02  0.8854261E-01
          1   -1    0    0  501    0  0.00000000000E+00  0.00000000000E+00  0.22668955955E+04  0.22668955955E+04  0.50400000000E-02 0. -1.
         -1   -1    0    0    0  501 -0.00000000000E+00 -0.00000000000E+00 -0.13071910915E+04  0.13071910915E+04  0.50400000000E-02 0.  1.
    8880023    1    1    2    0    0  0.16960297045E+03  0.14275657299E+04 -0.35423084309E+03  0.16204933746E+04  0.65864270000E+03 0.  0.
    8880022    1    1    2    0    0 -0.16960297045E+03 -0.14275657299E+04  0.13139353471E+04  0.19535933124E+04  0.15294330000E+03 0.  0.
<mgrwt>
<rscale>  0 0.15462590E+04</rscale>
<asrwt>0</asrwt>
<pdfrwt beam="1">  1        1 0.34875316E+00 0.15813030E+04</pdfrwt>
<pdfrwt beam="2">  1       -1 0.20110633E+00 0.15813030E+04</pdfrwt>
<totfact> 0.27154928E-01</totfact>
</mgrwt>
</event>
<event>
 4    2  0.3179755E-007  0.6679662E+03  0.7818608E-02  0.1017165E+00
          1   -1    0    0  501    0  0.00000000000E+00  0.00000000000E+00  0.33992861515E+03  0.33992861519E+03  0.50400000000E-02 0. -1.
         -1   -1    0    0    0  501 -0.00000000000E+00 -0.00000000000E+00 -0.12013191486E+04  0.12013191486E+04  0.50400000000E-02 0.  1.
    8880023    1    1    2    0    0 -0.11061607264E+03  0.11522315907E+02 -0.88901025440E+01  0.66802538835E+03  0.65864270000E+03 0.  0.
    8880022    1    1    2    0    0  0.11061607264E+03 -0.11522315907E+02 -0.85250043086E+03  0.87322237542E+03  0.15294330000E+03 0.  0.
<mgrwt>
<rscale>  0 0.48723791E+03</rscale>
<asrwt>0</asrwt>
<pdfrwt beam="1">  1        1 0.52296711E-01 0.66796623E+03</pdfrwt>
<pdfrwt beam="2">  1       -1 0.18481833E+00 0.66796623E+03</pdfrwt>
<totfact> 0.14853876E+01</totfact>
</mgrwt>
</event>
<event>
 4    2  0.3179755E-007  0.8239073E+03  0.7818608E-02  0.9661305E-01
         -1   -1    0    0    0  501 -0.00000000000E+00  0.00000000000E+00  0.22909000023E+03  0.22909000029E+03  0.50400000000E-02 0.  1.
          1   -1    0    0  501    0  0.00000000000E+00 -0.00000000000E+00 -0.22909983893E+04  0.22909983893E+04  0.50400000000E-02 0. -1.
    8880023    1    1    2    0    0  0.12155783593E+03  0.47982982755E+03 -0.16968914804E+04  0.18863360977E+04  0.65864270000E+03 0.  0.
    8880022    1    1    2    0    0 -0.12155783593E+03 -0.47982982755E+03 -0.36501690869E+03  0.63375229193E+03  0.15294330000E+03 0.  0.
<mgrwt>
<rscale>  0 0.73368138E+03</rscale>
<asrwt>0</asrwt>
<pdfrwt beam="1">  1        1 0.35246127E+00 0.82390726E+03</pdfrwt>
<pdfrwt beam="2">  1       -1 0.35244617E-01 0.82390726E+03</pdfrwt>
<totfact> 0.14987112E+01</totfact>
</mgrwt>
</event>
<event>
 4    2  0.3179755E-007  0.8087516E+03  0.7818608E-02  0.9692183E-01
         -1   -1    0    0    0  501 -0.00000000000E+00  0.00000000000E+00  0.26459842511E+04  0.26459842511E+04  0.50400000000E-02 0.  1.
          1   -1    0    0  501    0  0.00000000000E+00 -0.00000000000E+00 -0.21625544923E+03  0.21625544929E+03  0.50400000000E-02 0. -1.
    8880023    1    1    2    0    0  0.30938983429E+03  0.35291203785E+03  0.72044272232E+03  0.10831052112E+04  0.65864270000E+03 0. -1.
    8880022    1    1    2    0    0 -0.30938983429E+03 -0.35291203785E+03  0.17092860796E+04  0.17791344893E+04  0.15294330000E+03 0.  0.
<mgrwt>
<rscale>  0 0.71484115E+03</rscale>
<asrwt>0</asrwt>
<pdfrwt beam="1">  1        1 0.33270068E-01 0.80875162E+03</pdfrwt>
<pdfrwt beam="2">  1       -1 0.40707451E+00 0.80875162E+03</pdfrwt>
<totfact> 0.90749364E-01</totfact>
</mgrwt>
</event>
<event>
 4    2  0.3179755E-007  0.1153182E+04  0.7818608E-02  0.9204033E-01
         -1   -1    0    0    0  501 -0.00000000000E+00  0.00000000000E+00  0.63741551791E+03  0.63741551793E+03  0.50400000000E-02 0.  1.
          1   -1    0    0  501    0  0.00000000000E+00 -0.00000000000E+00 -0.18599048324E+04  0.18599048324E+04  0.50400000000E-02 0. -1.
    8880023    1    1    2    0    0  0.53860347966E+03  0.77841191526E+03 -0.96711113896E+03  0.15050358732E+04  0.65864270000E+03 0.  0.
    8880022    1    1    2    0    0 -0.53860347966E+03 -0.77841191526E+03 -0.25537817555E+03  0.99228447720E+03  0.15294330000E+03 0.  0.
<mgrwt>
<rscale>  0 0.11011896E+04</rscale>
<asrwt>0</asrwt>
<pdfrwt beam="1">  1        1 0.28613920E+00 0.11531821E+04</pdfrwt>
<pdfrwt beam="2">  1       -1 0.98063926E-01 0.11531821E+04</pdfrwt>
<totfact> 0.36626277E+00</totfact>
</mgrwt>
</event>
<event>
 4    2  0.3179755E-007  0.7369231E+03  0.7818608E-02  0.9869002E-01
          1   -1    0    0  501    0  0.00000000000E+00  0.00000000000E+00  0.27724283136E+03  0.27724283140E+03  0.50400000000E-02 0. -1.
         -1   -1    0    0    0  501 -0.00000000000E+00 -0.00000000000E+00 -0.15768616991E+04  0.15768616991E+04  0.50400000000E-02 0.  1.
    8880023    1    1    2    0    0 -0.17480870526E+03  0.28051258044E+03 -0.30977012593E+03  0.79938296730E+03  0.65864270000E+03 0. -1.
    8880022    1    1    2    0    0  0.17480870526E+03 -0.28051258044E+03 -0.98984874178E+03  0.10547215632E+04  0.15294330000E+03 0.  0.
<mgrwt>
<rscale>  0 0.61787371E+03</rscale>
<asrwt>0</asrwt>
<pdfrwt beam="1">  1        1 0.42652744E-01 0.73692306E+03</pdfrwt>
<pdfrwt beam="2">  1       -1 0.24259410E+00 0.73692306E+03</pdfrwt>
<totfact> 0.78593914E+00</totfact>
</mgrwt>
</event>
<event>
 4    2  0.3179755E-007  0.7273413E+03  0.7818608E-02  0.9898486E-01
          1   -1    0    0  501    0  0.00000000000E+00  0.00000000000E+00  0.22347771099E+04  0.22347771099E+04  0.50400000000E-02 0. -1.
         -1   -1    0    0    0  501 -0.00000000000E+00 -0.00000000000E+00 -0.41712248743E+03  0.41712248746E+03  0.50400000000E-02 0.  1.
    8880023    1    1    2    0    0 -0.37465401074E+02  0.30628673755E+03  0.20899288754E+04  0.22128777942E+04  0.65864270000E+03 0. -1.
    8880022    1    1    2    0    0  0.37465401074E+02 -0.30628673755E+03 -0.27227425286E+03  0.43902180317E+03  0.15294330000E+03 0.  0.
<mgrwt>
<rscale>  0 0.60334739E+03</rscale>
<asrwt>0</asrwt>
<pdfrwt beam="1">  1        1 0.34381186E+00 0.72734134E+03</pdfrwt>
<pdfrwt beam="2">  1       -1 0.64172691E-01 0.72734134E+03</pdfrwt>
<totfact> 0.53728808E+00</totfact>
</mgrwt>
</event>
<event>
 4    2  0.3179755E-007  0.7625558E+03  0.7818608E-02  0.9798535E-01
          1   -1    0    0  501    0  0.00000000000E+00  0.00000000000E+00  0.45111274666E+03  0.45111274668E+03  0.50400000000E-02 0. -1.
         -1   -1    0    0    0  501 -0.00000000000E+00 -0.00000000000E+00 -0.15585623567E+04  0.15585623567E+04  0.50400000000E-02 0.  1.
    8880023    1    1    2    0    0  0.38155341154E+03  0.45804650900E+02  0.66057530568E+02  0.76541157263E+03  0.65864270000E+03 0. -1.
    8880022    1    1    2    0    0 -0.38155341154E+03 -0.45804650900E+02 -0.11735071406E+04  0.12442635307E+04  0.15294330000E+03 0.  0.
<mgrwt>
<rscale>  0 0.65441207E+03</rscale>
<asrwt>0</asrwt>
<pdfrwt beam="1">  1        1 0.69401962E-01 0.76255575E+03</pdfrwt>
<pdfrwt beam="2">  1       -1 0.23977882E+00 0.76255575E+03</pdfrwt>
<totfact> 0.43085049E+00</totfact>
</mgrwt>
</event>
<event>
 4    2  0.3179755E-007  0.1115602E+04  0.7818608E-02  0.9243881E-01
          1   -1    0    0  501    0  0.00000000000E+00  0.00000000000E+00  0.15627218028E+04  0.15627218028E+04  0.50400000000E-02 0. -1.
         -1   -1    0    0    0  501 -0.00000000000E+00 -0.00000000000E+00 -0.93873665951E+03  0.93873665953E+03  0.50400000000E-02 0.  1.
    8880023    1    1    2    0    0 -0.89596317704E+03 -0.89480859044E+02 -0.34710697303E+03  0.11683536689E+04  0.65864270000E+03 0.  0.
    8880022    1    1    2    0    0  0.89596317704E+03  0.89480859044E+02  0.97109211628E+03  0.13331047934E+04  0.15294330000E+03 0.  0.
<mgrwt>
<rscale>  0 0.10611757E+04</rscale>
<asrwt>0</asrwt>
<pdfrwt beam="1">  1        1 0.24041874E+00 0.11156017E+04</pdfrwt>
<pdfrwt beam="2">  1       -1 0.14442102E+00 0.11156017E+04</pdfrwt>
<totfact> 0.22658020E+00</totfact>
</mgrwt>
</event>
<event>
 4    2  0.3179755E-007  0.7993158E+03  0.7818608E-02  0.9712277E-01
         -1   -1    0    0    0  501 -0.00000000000E+00  0.00000000000E+00  0.47985012385E+03  0.47985012388E+03  0.50400000000E-02 0.  1.
          1   -1    0    0  501    0  0.00000000000E+00 -0.00000000000E+00 -0.18867595843E+04  0.18867595843E+04  0.50400000000E-02 0. -1.
    8880023    1    1    2    0    0  0.37206224694E+03 -0.25819616138E+03 -0.16477290723E+04  0.18313702180E+04  0.65864270000E+03 0. -1.
    8880022    1    1    2    0    0 -0.37206224694E+03  0.25819616138E+03  0.24081961189E+03  0.53523949017E+03  0.15294330000E+03 0.  0.
<mgrwt>
<rscale>  0 0.70290486E+03</rscale>
<asrwt>0</asrwt>
<pdfrwt beam="1">  1        1 0.29027070E+00 0.79931582E+03</pdfrwt>
<pdfrwt beam="2">  1       -1 0.73823097E-01 0.79931582E+03</pdfrwt>
<totfact> 0.68237044E+00</totfact>
</mgrwt>
</event>
<event>
 4    2  0.3179755E-007  0.8050724E+03  0.7818608E-02  0.9699934E-01
          1   -1    0    0  501    0  0.00000000000E+00  0.00000000000E+00  0.78104659524E+03  0.78104659526E+03  0.50400000000E-02 0. -1.
         -1   -1    0    0    0  501 -0.00000000000E+00 -0.00000000000E+00 -0.62970397616E+03  0.62970397618E+03  0.50400000000E-02 0.  1.
    8880023    1    1    2    0    0  0.43606962346E+03 -0.15548216357E+03  0.35814025856E+03  0.88113907572E+03  0.65864270000E+03 0. -1.
    8880022    1    1    2    0    0 -0.43606962346E+03  0.15548216357E+03 -0.20679763948E+03  0.52961149572E+03  0.15294330000E+03 0.  1.
<mgrwt>
<rscale>  0 0.71020730E+03</rscale>
<asrwt>0</asrwt>
<pdfrwt beam="1">  1        1 0.12016101E+00 0.80507244E+03</pdfrwt>
<pdfrwt beam="2">  1       -1 0.96877535E-01 0.80507244E+03</pdfrwt>
<totfact> 0.24019544E+01</totfact>
</mgrwt>
</event>
<event>
 4    2  0.3179755E-007  0.6813277E+03  0.7818608E-02  0.1008582E+00
          1   -1    0    0  501    0  0.00000000000E+00  0.00000000000E+00  0.14320202502E+04  0.14320202503E+04  0.50400000000E-02 0. -1.
         -1   -1    0    0    0  501 -0.00000000000E+00 -0.00000000000E+00 -0.14560651705E+03  0.14560651713E+03  0.50400000000E-02 0.  1.
    8880023    1    1    2    0    0  0.49096042415E+02  0.16729248439E+03  0.95662830346E+03  0.11744552414E+04  0.65864270000E+03 0. -1.
    8880022    1    1    2    0    0 -0.49096042415E+02 -0.16729248439E+03  0.32978542974E+03  0.40317152603E+03  0.15294330000E+03 0.  1.
<mgrwt>
<rscale>  0 0.52041949E+03</rscale>
<asrwt>0</asrwt>
<pdfrwt beam="1">  1        1 0.22031080E+00 0.68132768E+03</pdfrwt>
<pdfrwt beam="2">  1       -1 0.22401004E-01 0.68132768E+03</pdfrwt>
<totfact> 0.12648548E+02</totfact>
</mgrwt>
</event>
<event>
 4    2  0.3179755E-007  0.1268964E+04  0.7818608E-02  0.9092835E-01
         -1   -1    0    0    0  501 -0.00000000000E+00  0.00000000000E+00  0.22083544050E+04  0.22083544050E+04  0.50400000000E-02 0.  1.
          1   -1    0    0  501    0  0.00000000000E+00 -0.00000000000E+00 -0.18567064321E+04  0.18567064321E+04  0.50400000000E-02 0. -1.
    8880023    1    1    2    0    0 -0.51467859891E+03  0.95475990112E+03 -0.14684459387E+04  0.19407741265E+04  0.65864270000E+03 0.  0.
    8880022    1    1    2    0    0  0.51467859891E+03 -0.95475990112E+03  0.18200939116E+04  0.21242867106E+04  0.15294330000E+03 0.  0.
<mgrwt>
<rscale>  0 0.12231453E+04</rscale>
<asrwt>0</asrwt>
<pdfrwt beam="1">  1        1 0.28564714E+00 0.12689644E+04</pdfrwt>
<pdfrwt beam="2">  1       -1 0.33974683E+00 0.12689644E+04</pdfrwt>
<totfact> 0.66148425E-02</totfact>
</mgrwt>
</event>
<event>
 4    2  0.3179755E-007  0.6915362E+03  0.7818608E-02  0.1003431E+00
         -1   -1    0    0    0  501 -0.00000000000E+00  0.00000000000E+00  0.50308406615E+03  0.50308406617E+03  0.50400000000E-02 0.  1.
          1   -1    0    0  501    0  0.00000000000E+00 -0.00000000000E+00 -0.52522847805E+03  0.52522847808E+03  0.50400000000E-02 0. -1.
    8880023    1    1    2    0    0 -0.29419944868E+02  0.20867818719E+03 -0.19166065020E+03  0.71760443843E+03  0.65864270000E+03 0.  0.
    8880022    1    1    2    0    0  0.29419944868E+02 -0.20867818719E+03  0.16951623829E+03  0.31070810582E+03  0.15294330000E+03 0.  0.
<mgrwt>
<rscale>  0 0.54171134E+03</rscale>
<asrwt>0</asrwt>
<pdfrwt beam="1">  1        1 0.80804381E-01 0.69153621E+03</pdfrwt>
<pdfrwt beam="2">  1       -1 0.77397549E-01 0.69153621E+03</pdfrwt>
<totfact> 0.70952724E+01</totfact>
</mgrwt>
</event>
<event>
 4    2  0.3179755E-007  0.9003280E+03  0.7818608E-02  0.9525505E-01
          1   -1    0    0  501    0  0.00000000000E+00  0.00000000000E+00  0.28994414904E+04  0.28994414904E+04  0.50400000000E-02 0. -1.
         -1   -1    0    0    0  501 -0.00000000000E+00 -0.00000000000E+00 -0.33651800558E+03  0.33651800562E+03  0.50400000000E-02 0.  1.
    8880023    1    1    2    0    0  0.58328649898E+03 -0.19119928400E+03  0.24274349638E+04  0.25890212467E+04  0.65864270000E+03 0. -1.
    8880022    1    1    2    0    0 -0.58328649898E+03  0.19119928400E+03  0.13548852101E+03  0.64693824932E+03  0.15294330000E+03 0.  0.
<mgrwt>
<rscale>  0 0.82429260E+03</rscale>
<asrwt>0</asrwt>
<pdfrwt beam="1">  1        1 0.44606794E+00 0.90032800E+03</pdfrwt>
<pdfrwt beam="2">  1       -1 0.51771999E-01 0.90032800E+03</pdfrwt>
<totfact> 0.27661201E+00</totfact>
</mgrwt>
</event>
<event>
 4    2  0.3179755E-007  0.6742437E+03  0.7818608E-02  0.1012787E+00
          1   -1    0    0  501    0  0.00000000000E+00  0.00000000000E+00  0.22356125015E+03  0.22356125020E+03  0.50400000000E-02 0. -1.
         -1   -1    0    0    0  501 -0.00000000000E+00 -0.00000000000E+00 -0.96463793224E+03  0.96463793226E+03  0.50400000000E-02 0.  1.
    8880023    1    1    2    0    0 -0.32090551696E+02  0.14058646248E+03 -0.38974433438E+03  0.77878444347E+03  0.65864270000E+03 0.  0.
    8880022    1    1    2    0    0  0.32090551696E+02 -0.14058646248E+03 -0.35133234771E+03  0.40941473899E+03  0.15294330000E+03 0.  0.
<mgrwt>
<rscale>  0 0.50381752E+03</rscale>
<asrwt>0</asrwt>
<pdfrwt beam="1">  1        1 0.34394039E-01 0.67424370E+03</pdfrwt>
<pdfrwt beam="2">  1       -1 0.14840583E+00 0.67424370E+03</pdfrwt>
<totfact> 0.47404581E+01</totfact>
</mgrwt>
</event>
<event>
 4    2  0.3179755E-007  0.1437706E+04  0.7818608E-02  0.8954924E-01
         -1   -1    0    0    0  501 -0.00000000000E+00  0.00000000000E+00  0.15791480675E+04  0.15791480675E+04  0.50400000000E-02 0.  1.
          1   -1    0    0  501    0  0.00000000000E+00 -0.00000000000E+00 -0.20626124765E+04  0.20626124766E+04  0.50400000000E-02 0. -1.
    8880023    1    1    2    0    0 -0.11245643525E+04 -0.60707785437E+03  0.94384392987E+03  0.17198372232E+04  0.65864270000E+03 0.  0.
    8880022    1    1    2    0    0  0.11245643525E+04  0.60707785437E+03 -0.14273083389E+04  0.19219233209E+04  0.15294330000E+03 0.  0.
<mgrwt>
<rscale>  0 0.13984732E+04</rscale>
<asrwt>0</asrwt>
<pdfrwt beam="1">  1        1 0.31732499E+00 0.14377061E+04</pdfrwt>
<pdfrwt beam="2">  1       -1 0.24294586E+00 0.14377061E+04</pdfrwt>
<totfact> 0.19922618E-01</totfact>
</mgrwt>
</event>
<event>
 4    2  0.3179755E-007  0.7446910E+03  0.7818608E-02  0.9846487E-01
          1   -1    0    0  501    0  0.00000000000E+00  0.00000000000E+00  0.14918179956E+04  0.14918179956E+04  0.50400000000E-02 0. -1.
         -1   -1    0    0    0  501 -0.00000000000E+00 -0.00000000000E+00 -0.42188054713E+03  0.42188054716E+03  0.50400000000E-02 0.  1.
    8880023    1    1    2    0    0 -0.20956068690E+03  0.27719801316E+03  0.12792051355E+04  0.14801791800E+04  0.65864270000E+03 0.  0.
    8880022    1    1    2    0    0  0.20956068690E+03 -0.27719801316E+03 -0.20926768706E+03  0.43351936272E+03  0.15294330000E+03 0.  0.
<mgrwt>
<rscale>  0 0.62926331E+03</rscale>
<asrwt>0</asrwt>
<pdfrwt beam="1">  1        1 0.22951046E+00 0.74469096E+03</pdfrwt>
<pdfrwt beam="2">  1       -1 0.64904699E-01 0.74469096E+03</pdfrwt>
<totfact> 0.16531996E+01</totfact>
</mgrwt>
</event>
<event>
 4    2  0.3179755E-007  0.7159080E+03  0.7818608E-02  0.9936683E-01
         -1   -1    0    0    0  501 -0.00000000000E+00  0.00000000000E+00  0.25636772620E+03  0.25636772625E+03  0.50400000000E-02 0.  1.
          1   -1    0    0  501    0  0.00000000000E+00 -0.00000000000E+00 -0.26408233238E+04  0.26408233238E+04  0.50400000000E-02 0. -1.
    8880023    1    1    2    0    0  0.26282626702E+03  0.98165249347E+02 -0.24656638846E+04  0.25674934588E+04  0.65864270000E+03 0. -1.
    8880022    1    1    2    0    0 -0.26282626702E+03 -0.98165249347E+02  0.81208286976E+02  0.32969759129E+03  0.15294330000E+03 0.  0.
<mgrwt>
<rscale>  0 0.58515938E+03</rscale>
<asrwt>0</asrwt>
<pdfrwt beam="1">  1        1 0.40628049E+00 0.71590800E+03</pdfrwt>
<pdfrwt beam="2">  1       -1 0.39441191E-01 0.71590800E+03</pdfrwt>
<totfact> 0.71891702E+00</totfact>
</mgrwt>
</event>
<event>
 4    2  0.3179755E-007  0.6891196E+03  0.7818608E-02  0.1004574E+00
          1   -1    0    0  501    0  0.00000000000E+00  0.00000000000E+00  0.55147531620E+03  0.55147531622E+03  0.50400000000E-02 0. -1.
         -1   -1    0    0    0  501 -0.00000000000E+00 -0.00000000000E+00 -0.82054765907E+03  0.82054765908E+03  0.50400000000E-02 0.  1.
    8880023    1    1    2    0    0 -0.35509265547E+01  0.20264004006E+03  0.29793157731E+03  0.75076562650E+03  0.65864270000E+03 0. -1.
    8880022    1    1    2    0    0  0.35509265547E+01 -0.20264004006E+03 -0.56700392019E+03  0.62125734880E+03  0.15294330000E+03 0.  0.
<mgrwt>
<rscale>  0 0.53689373E+03</rscale>
<asrwt>0</asrwt>
<pdfrwt beam="1">  1        1 0.84842356E-01 0.68911958E+03</pdfrwt>
<pdfrwt beam="2">  1       -1 0.12623810E+00 0.68911958E+03</pdfrwt>
<totfact> 0.21791379E+01</totfact>
</mgrwt>
</event>
<event>
 4    2  0.3179755E-007  0.7403501E+03  0.7818608E-02  0.9858928E-01
          1   -1    0    0  501    0  0.00000000000E+00  0.00000000000E+00  0.18926663196E+04  0.18926663196E+04  0.50400000000E-02 0. -1.
         -1   -1    0    0    0  501 -0.00000000000E+00 -0.00000000000E+00 -0.32482447734E+03  0.32482447738E+03  0.50400000000E-02 0.  1.
    8880023    1    1    2    0    0 -0.17354273627E+03 -0.29015693100E+03  0.16749381391E+04  0.18312662564E+04  0.65864270000E+03 0. -1.
    8880022    1    1    2    0    0  0.17354273627E+03  0.29015693100E+03 -0.10709629683E+03  0.38622454056E+03  0.15294330000E+03 0.  0.
<mgrwt>
<rscale>  0 0.62293758E+03</rscale>
<asrwt>0</asrwt>
<pdfrwt beam="1">  1        1 0.29117944E+00 0.74035014E+03</pdfrwt>
<pdfrwt beam="2">  1       -1 0.49972995E-01 0.74035014E+03</pdfrwt>
<totfact> 0.14771990E+01</totfact>
</mgrwt>
</event>
<event>
 4    2  0.3179755E-007  0.6701734E+03  0.7818608E-02  0.1015539E+00
          1   -1    0    0  501    0  0.00000000000E+00  0.00000000000E+00  0.82005516771E+03  0.82005516772E+03  0.50400000000E-02 0. -1.
         -1   -1    0    0    0  501 -0.00000000000E+00 -0.00000000000E+00 -0.31009651572E+03  0.31009651576E+03  0.50400000000E-02 0.  1.
    8880023    1    1    2    0    0  0.72614741536E+02 -0.10024626886E+03  0.61282796845E+03  0.90812473829E+03  0.65864270000E+03 0. -1.
    8880022    1    1    2    0    0 -0.72614741536E+02  0.10024626886E+03 -0.10286931646E+03  0.22202694520E+03  0.15294330000E+03 0.  0.
<mgrwt>
<rscale>  0 0.49331432E+03</rscale>
<asrwt>0</asrwt>
<pdfrwt beam="1">  1        1 0.12616233E+00 0.67017343E+03</pdfrwt>
<pdfrwt beam="2">  1       -1 0.47707157E-01 0.67017343E+03</pdfrwt>
<totfact> 0.95593240E+01</totfact>
</mgrwt>
</event>
<event>
 4    2  0.3179755E-007  0.7762898E+03  0.7818608E-02  0.9764626E-01
          1   -1    0    0  501    0  0.00000000000E+00  0.00000000000E+00  0.16561899945E+04  0.16561899945E+04  0.50400000000E-02 0. -1.
         -1   -1    0    0    0  501 -0.00000000000E+00 -0.00000000000E+00 -0.42578521163E+03  0.42578521166E+03  0.50400000000E-02 0.  1.
    8880023    1    1    2    0    0  0.35284638384E+03  0.21051154567E+03  0.14089059399E+04  0.16086148809E+04  0.65864270000E+03 0. -1.
    8880022    1    1    2    0    0 -0.35284638384E+03 -0.21051154567E+03 -0.17850115702E+03  0.47336032524E+03  0.15294330000E+03 0.  0.
<mgrwt>
<rscale>  0 0.67295986E+03</rscale>
<asrwt>0</asrwt>
<pdfrwt beam="1">  1        1 0.25479846E+00 0.77628982E+03</pdfrwt>
<pdfrwt beam="2">  1       -1 0.65505417E-01 0.77628982E+03</pdfrwt>
<totfact> 0.12491460E+01</totfact>
</mgrwt>
</event>
<event>
 4    2  0.3179755E-007  0.6765782E+03  0.7818608E-02  0.1011329E+00
         -1   -1    0    0    0  501 -0.00000000000E+00  0.00000000000E+00  0.37037954587E+03  0.37037954590E+03  0.50400000000E-02 0.  1.
          1   -1    0    0  501    0  0.00000000000E+00 -0.00000000000E+00 -0.28973560442E+04  0.28973560442E+04  0.50400000000E-02 0. -1.
    8880023    1    1    2    0    0 -0.43813370779E+02  0.14841912365E+03 -0.28215424614E+04  0.29015271695E+04  0.65864270000E+03 0. -1.
    8880022    1    1    2    0    0  0.43813370779E+02 -0.14841912365E+03  0.29456596304E+03  0.36620842061E+03  0.15294330000E+03 0.  0.
<mgrwt>
<rscale>  0 0.50949680E+03</rscale>
<asrwt>0</asrwt>
<pdfrwt beam="1">  1        1 0.44574707E+00 0.67657820E+03</pdfrwt>
<pdfrwt beam="2">  1       -1 0.56981470E-01 0.67657820E+03</pdfrwt>
<totfact> 0.24081899E+00</totfact>
</mgrwt>
</event>
<event>
 4    2  0.3179755E-007  0.7232903E+03  0.7818608E-02  0.9911606E-01
         -1   -1    0    0    0  501 -0.00000000000E+00  0.00000000000E+00  0.10450822586E+04  0.10450822586E+04  0.50400000000E-02 0.  1.
          1   -1    0    0  501    0  0.00000000000E+00 -0.00000000000E+00 -0.48000191617E+03  0.48000191620E+03  0.50400000000E-02 0. -1.
    8880023    1    1    2    0    0 -0.26013143312E+03 -0.14720818575E+03 -0.14676481612E+03  0.73803030423E+03  0.65864270000E+03 0. -1.
    8880022    1    1    2    0    0  0.26013143312E+03  0.14720818575E+03  0.71184515855E+03  0.78705387059E+03  0.15294330000E+03 0.  0.
<mgrwt>
<rscale>  0 0.59702090E+03</rscale>
<asrwt>0</asrwt>
<pdfrwt beam="1">  1        1 0.73846450E-01 0.72329027E+03</pdfrwt>
<pdfrwt beam="2">  1       -1 0.16078188E+00 0.72329027E+03</pdfrwt>
<totfact> 0.13942812E+01</totfact>
</mgrwt>
</event>
<event>
 4    2  0.3179755E-007  0.6914684E+03  0.7818608E-02  0.1003462E+00
         -1   -1    0    0    0  501 -0.00000000000E+00  0.00000000000E+00  0.17961615987E+03  0.17961615994E+03  0.50400000000E-02 0.  1.
          1   -1    0    0  501    0  0.00000000000E+00 -0.00000000000E+00 -0.26214548850E+04  0.26214548850E+04  0.50400000000E-02 0. -1.
    8880023    1    1    2    0    0  0.95183254813E+01  0.21030397287E+03 -0.24449426796E+04  0.25408410561E+04  0.65864270000E+03 0. -1.
    8880022    1    1    2    0    0 -0.95183254813E+01 -0.21030397287E+03  0.31039545135E+01  0.26022998880E+03  0.15294330000E+03 0.  0.
<mgrwt>
<rscale>  0 0.54157782E+03</rscale>
<asrwt>0</asrwt>
<pdfrwt beam="1">  1        1 0.40330072E+00 0.69146841E+03</pdfrwt>
<pdfrwt beam="2">  1       -1 0.27633257E-01 0.69146841E+03</pdfrwt>
<totfact> 0.13954255E+01</totfact>
</mgrwt>
</event>
<event>
 4    2  0.3179755E-007  0.6633275E+03  0.7818608E-02  0.1020980E+00
         -1   -1    0    0    0  501 -0.00000000000E+00  0.00000000000E+00  0.10714917270E+03  0.10714917282E+03  0.50400000000E-02 0.  1.
          1   -1    0    0  501    0  0.00000000000E+00 -0.00000000000E+00 -0.16288611186E+04  0.16288611186E+04  0.50400000000E-02 0. -1.
    8880023    1    1    2    0    0 -0.24480004377E+02 -0.74792364002E+02 -0.11924682368E+04  0.13645452980E+04  0.65864270000E+03 0.  0.
    8880022    1    1    2    0    0  0.24480004377E+02  0.74792364002E+02 -0.32924370904E+03  0.37146499335E+03  0.15294330000E+03 0. -1.
<mgrwt>
<rscale>  0 0.47334699E+03</rscale>
<asrwt>0</asrwt>
<pdfrwt beam="1">  1        1 0.25059400E+00 0.66332750E+03</pdfrwt>
<pdfrwt beam="2">  1       -1 0.16484489E-01 0.66332750E+03</pdfrwt>
<totfact> 0.15472457E+02</totfact>
</mgrwt>
</event>
<event>
 4    2  0.3179755E-007  0.9185663E+03  0.7818608E-02  0.9496861E-01
         -1   -1    0    0    0  501 -0.00000000000E+00  0.00000000000E+00  0.23447979248E+03  0.23447979253E+03  0.50400000000E-02 0.  1.
          1   -1    0    0  501    0  0.00000000000E+00 -0.00000000000E+00 -0.38454171115E+04  0.38454171115E+04  0.50400000000E-02 0. -1.
    8880023    1    1    2    0    0 -0.18606112410E+03  0.61264600997E+03 -0.31370742114E+04  0.32687916253E+04  0.65864270000E+03 0.  0.
    8880022    1    1    2    0    0  0.18606112410E+03 -0.61264600997E+03 -0.47386310762E+03  0.81110527874E+03  0.15294330000E+03 0.  0.
<mgrwt>
<rscale>  0 0.84515658E+03</rscale>
<asrwt>0</asrwt>
<pdfrwt beam="1">  1        1 0.59160259E+00 0.91856632E+03</pdfrwt>
<pdfrwt beam="2">  1       -1 0.36073817E-01 0.91856632E+03</pdfrwt>
<totfact> 0.10195076E+00</totfact>
</mgrwt>
</event>
<event>
 4    2  0.3179755E-007  0.8644107E+03  0.7818608E-02  0.9585765E-01
          1   -1    0    0  501    0  0.00000000000E+00  0.00000000000E+00  0.15960660998E+04  0.15960660998E+04  0.50400000000E-02 0. -1.
         -1   -1    0    0    0  501 -0.00000000000E+00 -0.00000000000E+00 -0.44430374815E+03  0.44430374818E+03  0.50400000000E-02 0.  1.
    8880023    1    1    2    0    0 -0.17554478532E+03  0.53158224340E+03  0.11760187405E+04  0.14595293547E+04  0.65864270000E+03 0.  0.
    8880022    1    1    2    0    0  0.17554478532E+03 -0.53158224340E+03 -0.24256388849E+02  0.58084049322E+03  0.15294330000E+03 0.  0.
<mgrwt>
<rscale>  0 0.78245535E+03</rscale>
<asrwt>0</asrwt>
<pdfrwt beam="1">  1        1 0.24554863E+00 0.86441070E+03</pdfrwt>
<pdfrwt beam="2">  1       -1 0.68354422E-01 0.86441070E+03</pdfrwt>
<totfact> 0.12439621E+01</totfact>
</mgrwt>
</event>
<event>
 4    2  0.3179755E-007  0.9360446E+03  0.7818608E-02  0.9470484E-01
          1   -1    0    0  501    0  0.00000000000E+00  0.00000000000E+00  0.32941811705E+04  0.32941811705E+04  0.50400000000E-02 0. -1.
         -1   -1    0    0    0  501 -0.00000000000E+00 -0.00000000000E+00 -0.45864969601E+03  0.45864969604E+03  0.50400000000E-02 0.  1.
    8880023    1    1    2    0    0 -0.21976036117E+03  0.62775374408E+03  0.29188773426E+04  0.30652935466E+04  0.65864270000E+03 0. -1.
    8880022    1    1    2    0    0  0.21976036117E+03 -0.62775374408E+03 -0.83345868098E+02  0.68753731993E+03  0.15294330000E+03 0.  0.
<mgrwt>
<rscale>  0 0.86495361E+03</rscale>
<asrwt>0</asrwt>
<pdfrwt beam="1">  1        1 0.50679708E+00 0.93604465E+03</pdfrwt>
<pdfrwt beam="2">  1       -1 0.70561494E-01 0.93604465E+03</pdfrwt>
<totfact> 0.76636357E-01</totfact>
</mgrwt>
</event>
<event>
 4    2  0.3179755E-007  0.1153379E+04  0.7818608E-02  0.9203829E-01
          1   -1    0    0  501    0  0.00000000000E+00  0.00000000000E+00  0.50536172297E+03  0.50536172299E+03  0.50400000000E-02 0. -1.
         -1   -1    0    0    0  501 -0.00000000000E+00 -0.00000000000E+00 -0.23225397584E+04  0.23225397584E+04  0.50400000000E-02 0.  1.
    8880023    1    1    2    0    0  0.92836425150E+03  0.18604761805E+03 -0.13012929740E+04  0.17388638561E+04  0.65864270000E+03 0.  1.
    8880022    1    1    2    0    0 -0.92836425150E+03 -0.18604761805E+03 -0.51588506141E+03  0.10890376253E+04  0.15294330000E+03 0.  0.
<mgrwt>
<rscale>  0 0.11013990E+04</rscale>
<asrwt>0</asrwt>
<pdfrwt beam="1">  1        1 0.77747959E-01 0.11533794E+04</pdfrwt>
<pdfrwt beam="2">  1       -1 0.35731380E+00 0.11533794E+04</pdfrwt>
<totfact> 0.60722324E-01</totfact>
</mgrwt>
</event>
<event>
 4    2  0.3179755E-007  0.8358930E+03  0.7818608E-02  0.9637974E-01
          1   -1    0    0  501    0  0.00000000000E+00  0.00000000000E+00  0.63311205562E+03  0.63311205564E+03  0.50400000000E-02 0. -1.
         -1   -1    0    0    0  501 -0.00000000000E+00 -0.00000000000E+00 -0.10195986114E+04  0.10195986114E+04  0.50400000000E-02 0.  1.
    8880023    1    1    2    0    0 -0.50881604679E+03  0.77543875786E+02  0.19801083410E+03  0.85902579637E+03  0.65864270000E+03 0.  0.
    8880022    1    1    2    0    0  0.50881604679E+03 -0.77543875786E+02 -0.58449738987E+03  0.79368487066E+03  0.15294330000E+03 0.  0.
<mgrwt>
<rscale>  0 0.74833023E+03</rscale>
<asrwt>0</asrwt>
<pdfrwt beam="1">  1        1 0.97401855E-01 0.83589295E+03</pdfrwt>
<pdfrwt beam="2">  1       -1 0.15686132E+00 0.83589295E+03</pdfrwt>
<totfact> 0.99724076E+00</totfact>
</mgrwt>
</event>
<event>
 4    2  0.3179755E-007  0.7589178E+03  0.7818608E-02  0.9807917E-01
          1   -1    0    0  501    0  0.00000000000E+00  0.00000000000E+00  0.46336231754E+03  0.46336231757E+03  0.50400000000E-02 0. -1.
         -1   -1    0    0    0  501 -0.00000000000E+00 -0.00000000000E+00 -0.96394127902E+03  0.96394127903E+03  0.50400000000E-02 0.  1.
    8880023    1    1    2    0    0 -0.27639471647E+03  0.25642148306E+03  0.29007144888E+02  0.75947194615E+03  0.65864270000E+03 0. -1.
    8880022    1    1    2    0    0  0.27639471647E+03 -0.25642148306E+03 -0.52958610636E+03  0.66783165045E+03  0.15294330000E+03 0.  0.
<mgrwt>
<rscale>  0 0.64939383E+03</rscale>
<asrwt>0</asrwt>
<pdfrwt beam="1">  1        1 0.71286510E-01 0.75891780E+03</pdfrwt>
<pdfrwt beam="2">  1       -1 0.14829866E+00 0.75891780E+03</pdfrwt>
<totfact> 0.18156025E+01</totfact>
</mgrwt>
</event>
