<event>
 4    1  0.5223852E-007  0.7782886E+03  0.7818608E-02  0.9759873E-01
         -2   -1    0    0    0  501 -0.00000000000E+00  0.00000000000E+00  0.56063204973E+03  0.56063204973E+03  0.25500000000E-02 0.  1.
          2   -1    0    0  501    0  0.00000000000E+00 -0.00000000000E+00 -0.11326439619E+04  0.11326439619E+04  0.25500000000E-02 0. -1.
    8880023    1    1    2    0    0 -0.34569400897E+03  0.22895097802E+03  0.20012610451E+03  0.80360659663E+03  0.65864270000E+03 0.  0.
    8880022    1    1    2    0    0  0.34569400897E+03 -0.22895097802E+03 -0.77213801666E+03  0.88966941498E+03  0.15294330000E+03 0.  0.
<mgrwt>
<rscale>  0 0.67561194E+03</rscale>
<asrwt>0</asrwt>
<pdfrwt beam="1">  1        2 0.17425292E+00 0.77828857E+03</pdfrwt>
<pdfrwt beam="2">  1       -2 0.86251085E-01 0.77828857E+03</pdfrwt>
<totfact> 0.24606863E+01</totfact>
</mgrwt>
</event>
<event>
 4    1  0.5223852E-007  0.7872364E+03  0.7818608E-02  0.9739105E-01
         -2   -1    0    0    0  501 -0.00000000000E+00  0.00000000000E+00  0.28517519984E+03  0.28517519985E+03  0.25500000000E-02 0.  1.
          2   -1    0    0  501    0  0.00000000000E+00 -0.00000000000E+00 -0.19244307026E+04  0.19244307026E+04  0.25500000000E-02 0. -1.
    8880023    1    1    2    0    0 -0.59777954306E+02 -0.42703336417E+03 -0.38866490940E+03  0.87795302608E+03  0.65864270000E+03 0.  1.
    8880022    1    1    2    0    0  0.59777954306E+02  0.42703336417E+03 -0.12505905934E+04  0.13316528764E+04  0.15294330000E+03 0.  0.
<mgrwt>
<rscale>  0 0.68735463E+03</rscale>
<asrwt>0</asrwt>
<pdfrwt beam="1">  1        2 0.29606625E+00 0.78723637E+03</pdfrwt>
<pdfrwt beam="2">  1       -2 0.43873109E-01 0.78723637E+03</pdfrwt>
<totfact> 0.37182671E+01</totfact>
</mgrwt>
</event>
<event>
 4    1  0.5223852E-007  0.8363740E+03  0.7818608E-02  0.9637056E-01
          2   -1    0    0  501    0  0.00000000000E+00  0.00000000000E+00  0.14463372513E+04  0.14463372513E+04  0.25500000000E-02 0. -1.
         -2   -1    0    0    0  501 -0.00000000000E+00 -0.00000000000E+00 -0.73500723516E+03  0.73500723516E+03  0.25500000000E-02 0.  1.
    8880023    1    1    2    0    0  0.40548669554E+03  0.31826381340E+03 -0.41469064534E+03  0.93353620860E+03  0.65864270000E+03 0.  1.
    8880022    1    1    2    0    0 -0.40548669554E+03 -0.31826381340E+03  0.11260206614E+04  0.12478082778E+04  0.15294330000E+03 0.  0.
<mgrwt>
<rscale>  0 0.74891404E+03</rscale>
<asrwt>0</asrwt>
<pdfrwt beam="1">  1        2 0.22251342E+00 0.83637403E+03</pdfrwt>
<pdfrwt beam="2">  1       -2 0.11307804E+00 0.83637403E+03</pdfrwt>
<totfact> 0.84696243E+00</totfact>
</mgrwt>
</event>
<event>
 4    1  0.5223852E-007  0.7251140E+03  0.7818608E-02  0.9905647E-01
          2   -1    0    0  501    0  0.00000000000E+00  0.00000000000E+00  0.33253047504E+03  0.33253047505E+03  0.25500000000E-02 0. -1.
         -2   -1    0    0    0  501 -0.00000000000E+00 -0.00000000000E+00 -0.12432637544E+04  0.12432637544E+04  0.25500000000E-02 0.  1.
    8880023    1    1    2    0    0  0.29298624088E+03 -0.78352979273E+02 -0.98986093855E+03  0.12270350487E+04  0.65864270000E+03 0.  0.
    8880022    1    1    2    0    0 -0.29298624088E+03  0.78352979273E+02  0.79127659214E+02  0.34875918077E+03  0.15294330000E+03 0.  0.
<mgrwt>
<rscale>  0 0.59988385E+03</rscale>
<asrwt>0</asrwt>
<pdfrwt beam="1">  1        2 0.51158535E-01 0.72511401E+03</pdfrwt>
<pdfrwt beam="2">  1       -2 0.19127134E+00 0.72511401E+03</pdfrwt>
<totfact> 0.15154914E+01</totfact>
</mgrwt>
</event>
<event>
 4    1  0.5223852E-007  0.9659305E+03  0.7818608E-02  0.9427555E-01
          2   -1    0    0  501    0  0.00000000000E+00  0.00000000000E+00  0.19345810203E+04  0.19345810203E+04  0.25500000000E-02 0. -1.
         -2   -1    0    0    0  501 -0.00000000000E+00 -0.00000000000E+00 -0.10962101234E+04  0.10962101234E+04  0.25500000000E-02 0.  1.
    8880023    1    1    2    0    0  0.68568504097E+03 -0.17043321984E+03 -0.79085134534E+03  0.12483859638E+04  0.65864270000E+03 0.  0.
    8880022    1    1    2    0    0 -0.68568504097E+03  0.17043321984E+03  0.16292222422E+04  0.17824051799E+04  0.15294330000E+03 0.  0.
<mgrwt>
<rscale>  0 0.89842307E+03</rscale>
<asrwt>0</asrwt>
<pdfrwt beam="1">  1        2 0.29762785E+00 0.96593047E+03</pdfrwt>
<pdfrwt beam="2">  1       -2 0.16864771E+00 0.96593047E+03</pdfrwt>
<totfact> 0.15857709E+00</totfact>
</mgrwt>
</event>
<event>
 4    1  0.5223852E-007  0.6647404E+03  0.7818608E-02  0.1019752E+00
         -2   -1    0    0    0  501 -0.00000000000E+00  0.00000000000E+00  0.28523053546E+03  0.28523053547E+03  0.25500000000E-02 0.  1.
          2   -1    0    0  501    0  0.00000000000E+00 -0.00000000000E+00 -0.13374543586E+04  0.13374543586E+04  0.25500000000E-02 0. -1.
    8880023    1    1    2    0    0  0.65229307443E+02 -0.61763824943E+02 -0.12217664620E+03  0.67587496755E+03  0.65864270000E+03 0.  1.
    8880022    1    1    2    0    0 -0.65229307443E+02  0.61763824943E+02 -0.93004717691E+03  0.94680992650E+03  0.15294330000E+03 0.  0.
<mgrwt>
<rscale>  0 0.47776148E+03</rscale>
<asrwt>0</asrwt>
<pdfrwt beam="1">  1        2 0.20576221E+00 0.66474043E+03</pdfrwt>
<pdfrwt beam="2">  1       -2 0.43881622E-01 0.66474043E+03</pdfrwt>
<totfact> 0.79441123E+01</totfact>
</mgrwt>
</event>
<event>
 4    1  0.5223852E-007  0.6720518E+03  0.7818608E-02  0.1014233E+00
         -2   -1    0    0    0  501 -0.00000000000E+00  0.00000000000E+00  0.32803478545E+03  0.32803478546E+03  0.25500000000E-02 0.  1.
          2   -1    0    0  501    0  0.00000000000E+00 -0.00000000000E+00 -0.26318877829E+04  0.26318877829E+04  0.25500000000E-02 0. -1.
    8880023    1    1    2    0    0 -0.92134849201E+02  0.96719291788E+02 -0.25497165820E+02  0.67253532515E+03  0.65864270000E+03 0.  1.
    8880022    1    1    2    0    0  0.92134849201E+02 -0.96719291788E+02 -0.22783558316E+04  0.22873872432E+04  0.15294330000E+03 0.  0.
<mgrwt>
<rscale>  0 0.49826509E+03</rscale>
<asrwt>0</asrwt>
<pdfrwt beam="1">  1        2 0.40490580E+00 0.67205183E+03</pdfrwt>
<pdfrwt beam="2">  1       -2 0.50466892E-01 0.67205183E+03</pdfrwt>
<totfact> 0.11540722E+01</totfact>
</mgrwt>
</event>
<event>
 4    1  0.5223852E-007  0.9769999E+03  0.7818608E-02  0.9412287E-01
          2   -1    0    0  501    0  0.00000000000E+00  0.00000000000E+00  0.16199262073E+04  0.16199262073E+04  0.25500000000E-02 0. -1.
         -2   -1    0    0    0  501 -0.00000000000E+00 -0.00000000000E+00 -0.63018270465E+03  0.63018270466E+03  0.25500000000E-02 0.  1.
    8880023    1    1    2    0    0  0.56382451727E+02  0.71940225901E+03 -0.46536907430E+02  0.97810760203E+03  0.65864270000E+03 0.  1.
    8880022    1    1    2    0    0 -0.56382451727E+02 -0.71940225901E+03  0.10362804100E+04  0.12720013099E+04  0.15294330000E+03 0. -1.
<mgrwt>
<rscale>  0 0.91071345E+03</rscale>
<asrwt>0</asrwt>
<pdfrwt beam="1">  1        2 0.24921941E+00 0.97699990E+03</pdfrwt>
<pdfrwt beam="2">  1       -2 0.96951186E-01 0.97699990E+03</pdfrwt>
<totfact> 0.96493854E+00</totfact>
</mgrwt>
</event>
<event>
 4    1  0.5223852E-007  0.7318686E+03  0.7818608E-02  0.9884300E-01
          2   -1    0    0  501    0  0.00000000000E+00  0.00000000000E+00  0.14431384039E+04  0.14431384039E+04  0.25500000000E-02 0. -1.
         -2   -1    0    0    0  501 -0.00000000000E+00 -0.00000000000E+00 -0.24401379036E+03  0.24401379037E+03  0.25500000000E-02 0.  1.
    8880023    1    1    2    0    0  0.30919680898E+03 -0.78858951410E+02  0.45128170492E+03  0.85981787860E+03  0.65864270000E+03 0.  1.
    8880022    1    1    2    0    0 -0.30919680898E+03  0.78858951410E+02  0.74784290861E+03  0.82733431566E+03  0.15294330000E+03 0. -1.
<mgrwt>
<rscale>  0 0.61028265E+03</rscale>
<asrwt>0</asrwt>
<pdfrwt beam="1">  1        2 0.22202130E+00 0.73186857E+03</pdfrwt>
<pdfrwt beam="2">  1       -2 0.37540582E-01 0.73186857E+03</pdfrwt>
<totfact> 0.93308725E+01</totfact>
</mgrwt>
</event>
<event>
 4    1  0.5223852E-007  0.7585490E+03  0.7818608E-02  0.9808878E-01
         -2   -1    0    0    0  501 -0.00000000000E+00  0.00000000000E+00  0.50296247671E+03  0.50296247672E+03  0.25500000000E-02 0.  1.
          2   -1    0    0  501    0  0.00000000000E+00 -0.00000000000E+00 -0.67491323024E+03  0.67491323025E+03  0.25500000000E-02 0. -1.
    8880023    1    1    2    0    0  0.16120871803E+03  0.33999732219E+03 -0.94983318287E+02  0.76447267242E+03  0.65864270000E+03 0. -1.
    8880022    1    1    2    0    0 -0.16120871803E+03 -0.33999732219E+03 -0.76967435242E+02  0.41340303454E+03  0.15294330000E+03 0. -1.
<mgrwt>
<rscale>  0 0.64888245E+03</rscale>
<asrwt>0</asrwt>
<pdfrwt beam="1">  1        2 0.10383281E+00 0.75854903E+03</pdfrwt>
<pdfrwt beam="2">  1       -2 0.77378842E-01 0.75854903E+03</pdfrwt>
<totfact> 0.64664694E+01</totfact>
</mgrwt>
</event>
<event>
 4    1  0.5223852E-007  0.1066198E+04  0.7818608E-02  0.9299658E-01
         -2   -1    0    0    0  501 -0.00000000000E+00  0.00000000000E+00  0.12998053972E+04  0.12998053972E+04  0.25500000000E-02 0.  1.
          2   -1    0    0  501    0  0.00000000000E+00 -0.00000000000E+00 -0.10202155909E+04  0.10202155909E+04  0.25500000000E-02 0. -1.
    8880023    1    1    2    0    0  0.64427828391E+03  0.53653899095E+03  0.78965926998E+03  0.13267782651E+04  0.65864270000E+03 0.  0.
    8880022    1    1    2    0    0 -0.64427828391E+03 -0.53653899095E+03 -0.51006946372E+03  0.99324272299E+03  0.15294330000E+03 0.  0.
<mgrwt>
<rscale>  0 0.10081438E+04</rscale>
<asrwt>0</asrwt>
<pdfrwt beam="1">  1        2 0.15695625E+00 0.10661983E+04</pdfrwt>
<pdfrwt beam="2">  1       -2 0.19997006E+00 0.10661983E+04</pdfrwt>
<totfact> 0.32047734E+00</totfact>
</mgrwt>
</event>
<event>
 4    1  0.5223852E-007  0.6942880E+03  0.7818608E-02  0.1002178E+00
          2   -1    0    0  501    0  0.00000000000E+00  0.00000000000E+00  0.39800432876E+04  0.39800432876E+04  0.25500000000E-02 0. -1.
         -2   -1    0    0    0  501 -0.00000000000E+00 -0.00000000000E+00 -0.10775337697E+03  0.10775337700E+03  0.25500000000E-02 0.  1.
    8880023    1    1    2    0    0  0.15561547870E+03 -0.15494986399E+03  0.10878398037E+04  0.12905158977E+04  0.65864270000E+03 0.  1.
    8880022    1    1    2    0    0 -0.15561547870E+03  0.15494986399E+03  0.27844501069E+04  0.27972807668E+04  0.15294330000E+03 0.  0.
<mgrwt>
<rscale>  0 0.54705625E+03</rscale>
<asrwt>0</asrwt>
<pdfrwt beam="1">  1        2 0.61231434E+00 0.69428801E+03</pdfrwt>
<pdfrwt beam="2">  1       -2 0.16577443E-01 0.69428801E+03</pdfrwt>
<totfact> 0.11677423E+01</totfact>
</mgrwt>
</event>
<event>
 4    1  0.5223852E-007  0.1020357E+04  0.7818608E-02  0.9355397E-01
          2   -1    0    0  501    0  0.00000000000E+00  0.00000000000E+00  0.26312594520E+04  0.26312594520E+04  0.25500000000E-02 0. -1.
         -2   -1    0    0    0  501 -0.00000000000E+00 -0.00000000000E+00 -0.42744039785E+03  0.42744039786E+03  0.25500000000E-02 0.  1.
    8880023    1    1    2    0    0 -0.72518674897E+03 -0.28534435203E+03  0.41501920425E+03  0.11015300115E+04  0.65864270000E+03 0. -1.
    8880022    1    1    2    0    0  0.72518674897E+03  0.28534435203E+03  0.17887998499E+04  0.19571698383E+04  0.15294330000E+03 0.  0.
<mgrwt>
<rscale>  0 0.95839067E+03</rscale>
<asrwt>0</asrwt>
<pdfrwt beam="1">  1        2 0.40480915E+00 0.10203565E+04</pdfrwt>
<pdfrwt beam="2">  1       -2 0.65760060E-01 0.10203565E+04</pdfrwt>
<totfact> 0.62806712E+00</totfact>
</mgrwt>
</event>
<event>
 4    1  0.5223852E-007  0.6996564E+03  0.7818608E-02  0.9998630E-01
         -2   -1    0    0    0  501 -0.00000000000E+00  0.00000000000E+00  0.16001257677E+03  0.16001257679E+03  0.25500000000E-02 0.  1.
          2   -1    0    0  501    0  0.00000000000E+00 -0.00000000000E+00 -0.25264349410E+04  0.25264349410E+04  0.25500000000E-02 0. -1.
    8880023    1    1    2    0    0  0.23552127646E+03 -0.15445382498E+02 -0.67631410361E+03  0.97309804466E+03  0.65864270000E+03 0.  1.
    8880022    1    1    2    0    0 -0.23552127646E+03  0.15445382498E+02 -0.16901082607E+04  0.17133494732E+04  0.15294330000E+03 0.  0.
<mgrwt>
<rscale>  0 0.55710363E+03</rscale>
<asrwt>0</asrwt>
<pdfrwt beam="1">  1        2 0.38868227E+00 0.69965637E+03</pdfrwt>
<pdfrwt beam="2">  1       -2 0.24617321E-01 0.69965637E+03</pdfrwt>
<totfact> 0.51932307E+01</totfact>
</mgrwt>
</event>
<event>
 4    1  0.5223852E-007  0.7332108E+03  0.7818608E-02  0.9880184E-01
          2   -1    0    0  501    0  0.00000000000E+00  0.00000000000E+00  0.26994128462E+04  0.26994128462E+04  0.25500000000E-02 0. -1.
         -2   -1    0    0    0  501 -0.00000000000E+00 -0.00000000000E+00 -0.39230343263E+03  0.39230343264E+03  0.25500000000E-02 0.  1.
    8880023    1    1    2    0    0  0.29512652826E+03  0.12918309451E+03 -0.23884764812E+02  0.73359977361E+03  0.65864270000E+03 0.  1.
    8880022    1    1    2    0    0 -0.29512652826E+03 -0.12918309451E+03  0.23309941784E+04  0.23581165052E+04  0.15294330000E+03 0.  0.
<mgrwt>
<rscale>  0 0.61231351E+03</rscale>
<asrwt>0</asrwt>
<pdfrwt beam="1">  1        2 0.41529429E+00 0.73321085E+03</pdfrwt>
<pdfrwt beam="2">  1       -2 0.60354374E-01 0.73321085E+03</pdfrwt>
<totfact> 0.71952832E+00</totfact>
</mgrwt>
</event>
<event>
 4    1  0.5223852E-007  0.7002421E+03  0.7818608E-02  0.9996198E-01
         -2   -1    0    0    0  501 -0.00000000000E+00  0.00000000000E+00  0.20479695626E+03  0.20479695627E+03  0.25500000000E-02 0.  1.
          2   -1    0    0  501    0  0.00000000000E+00 -0.00000000000E+00 -0.15984791224E+04  0.15984791224E+04  0.25500000000E-02 0. -1.
    8880023    1    1    2    0    0 -0.39828989466E+02 -0.23439802692E+03 -0.48543345369E+03  0.85204731538E+03  0.65864270000E+03 0.  1.
    8880022    1    1    2    0    0  0.39828989466E+02  0.23439802692E+03 -0.90824871244E+03  0.95122876328E+03  0.15294330000E+03 0.  0.
<mgrwt>
<rscale>  0 0.55817244E+03</rscale>
<asrwt>0</asrwt>
<pdfrwt beam="1">  1        2 0.24591986E+00 0.70024209E+03</pdfrwt>
<pdfrwt beam="2">  1       -2 0.31507225E-01 0.70024209E+03</pdfrwt>
<totfact> 0.10700794E+02</totfact>
</mgrwt>
</event>
<event>
 4    1  0.5223852E-007  0.6903673E+03  0.7818608E-02  0.1003979E+00
          2   -1    0    0  501    0  0.00000000000E+00  0.00000000000E+00  0.59581844136E+03  0.59581844137E+03  0.25500000000E-02 0. -1.
         -2   -1    0    0    0  501 -0.00000000000E+00 -0.00000000000E+00 -0.91684199848E+03  0.91684199849E+03  0.25500000000E-02 0.  1.
    8880023    1    1    2    0    0  0.10023465639E+03  0.18096906729E+03 -0.74565441549E+03  0.10161729692E+04  0.65864270000E+03 0.  0.
    8880022    1    1    2    0    0 -0.10023465639E+03 -0.18096906729E+03  0.42463085837E+03  0.49648747069E+03  0.15294330000E+03 0.  0.
<mgrwt>
<rscale>  0 0.53939625E+03</rscale>
<asrwt>0</asrwt>
<pdfrwt beam="1">  1        2 0.91664375E-01 0.69036729E+03</pdfrwt>
<pdfrwt beam="2">  1       -2 0.14105262E+00 0.69036729E+03</pdfrwt>
<totfact> 0.17964057E+01</totfact>
</mgrwt>
</event>
<event>
 4    1  0.5223852E-007  0.7148535E+03  0.7818608E-02  0.9940401E-01
         -2   -1    0    0    0  501 -0.00000000000E+00  0.00000000000E+00  0.71510537630E+03  0.71510537631E+03  0.25500000000E-02 0.  1.
          2   -1    0    0  501    0  0.00000000000E+00 -0.00000000000E+00 -0.57607170632E+03  0.57607170632E+03  0.25500000000E-02 0. -1.
    8880023    1    1    2    0    0  0.27175941151E+03 -0.57897560562E+02  0.45186066706E+03  0.84569118120E+03  0.65864270000E+03 0.  1.
    8880022    1    1    2    0    0 -0.27175941151E+03  0.57897560562E+02 -0.31282699707E+03  0.44548590143E+03  0.15294330000E+03 0.  0.
<mgrwt>
<rscale>  0 0.58342615E+03</rscale>
<asrwt>0</asrwt>
<pdfrwt beam="1">  1        2 0.88626416E-01 0.71485349E+03</pdfrwt>
<pdfrwt beam="2">  1       -2 0.11001621E+00 0.71485349E+03</pdfrwt>
<totfact> 0.34737144E+01</totfact>
</mgrwt>
</event>
<event>
 4    1  0.5223852E-007  0.8500971E+03  0.7818608E-02  0.9611427E-01
          2   -1    0    0  501    0  0.00000000000E+00  0.00000000000E+00  0.17134222336E+04  0.17134222336E+04  0.25500000000E-02 0. -1.
         -2   -1    0    0    0  501 -0.00000000000E+00 -0.00000000000E+00 -0.35296224732E+03  0.35296224733E+03  0.25500000000E-02 0.  1.
    8880023    1    1    2    0    0  0.53707947939E+03 -0.20011746405E+02  0.36569373129E+03  0.92541717541E+03  0.65864270000E+03 0. -1.
    8880022    1    1    2    0    0 -0.53707947939E+03  0.20011746405E+02  0.99476625499E+03  0.11409673055E+04  0.15294330000E+03 0.  0.
<mgrwt>
<rscale>  0 0.76544429E+03</rscale>
<asrwt>0</asrwt>
<pdfrwt beam="1">  1        2 0.26360342E+00 0.85009708E+03</pdfrwt>
<pdfrwt beam="2">  1       -2 0.54301883E-01 0.85009708E+03</pdfrwt>
<totfact> 0.31246847E+01</totfact>
</mgrwt>
</event>
<event>
 4    1  0.5223852E-007  0.7212247E+03  0.7818608E-02  0.9918464E-01
          2   -1    0    0  501    0  0.00000000000E+00  0.00000000000E+00  0.12746385105E+04  0.12746385105E+04  0.25500000000E-02 0. -1.
         -2   -1    0    0    0  501 -0.00000000000E+00 -0.00000000000E+00 -0.26759969042E+03  0.26759969044E+03  0.25500000000E-02 0.  1.
    8880023    1    1    2    0    0 -0.19856025985E+03  0.21663039101E+03  0.33975275509E+03  0.79724340321E+03  0.65864270000E+03 0.  0.
    8880022    1    1    2    0    0  0.19856025985E+03 -0.21663039101E+03  0.66728606494E+03  0.74499479768E+03  0.15294330000E+03 0.  0.
<mgrwt>
<rscale>  0 0.59374753E+03</rscale>
<asrwt>0</asrwt>
<pdfrwt beam="1">  1        2 0.19609823E+00 0.72122473E+03</pdfrwt>
<pdfrwt beam="2">  1       -2 0.41169183E-01 0.72122473E+03</pdfrwt>
<totfact> 0.97365938E+01</totfact>
</mgrwt>
</event>
<event>
 4    1  0.5223852E-007  0.7846368E+03  0.7818608E-02  0.9745056E-01
         -2   -1    0    0    0  501 -0.00000000000E+00  0.00000000000E+00  0.33670622645E+03  0.33670622646E+03  0.25500000000E-02 0.  1.
          2   -1    0    0  501    0  0.00000000000E+00 -0.00000000000E+00 -0.17329476918E+04  0.17329476918E+04  0.25500000000E-02 0. -1.
    8880023    1    1    2    0    0 -0.41073518533E+03  0.11463524318E+03 -0.22867993349E+03  0.81728168320E+03  0.65864270000E+03 0.  1.
    8880022    1    1    2    0    0  0.41073518533E+03 -0.11463524318E+03 -0.11675615318E+04  0.12523722350E+04  0.15294330000E+03 0.  0.
<mgrwt>
<rscale>  0 0.68396402E+03</rscale>
<asrwt>0</asrwt>
<pdfrwt beam="1">  1        2 0.26660733E+00 0.78463676E+03</pdfrwt>
<pdfrwt beam="2">  1       -2 0.51800959E-01 0.78463676E+03</pdfrwt>
<totfact> 0.33843051E+01</totfact>
</mgrwt>
</event>
<event>
 4    1  0.5223852E-007  0.7161036E+03  0.7818608E-02  0.9935997E-01
          2   -1    0    0  501    0  0.00000000000E+00  0.00000000000E+00  0.19230943266E+04  0.19230943266E+04  0.25500000000E-02 0. -1.
         -2   -1    0    0    0  501 -0.00000000000E+00 -0.00000000000E+00 -0.69731477185E+03  0.69731477186E+03  0.25500000000E-02 0.  1.
    8880023    1    1    2    0    0  0.19764933507E+03  0.19982213046E+03 -0.49474129845E+03  0.87038686923E+03  0.65864270000E+03 0.  1.
    8880022    1    1    2    0    0 -0.19764933507E+03 -0.19982213046E+03  0.17205208532E+04  0.17500222292E+04  0.15294330000E+03 0.  0.
<mgrwt>
<rscale>  0 0.58547971E+03</rscale>
<asrwt>0</asrwt>
<pdfrwt beam="1">  1        2 0.29586066E+00 0.71610359E+03</pdfrwt>
<pdfrwt beam="2">  1       -2 0.10727920E+00 0.71610359E+03</pdfrwt>
<totfact> 0.53520818E+00</totfact>
</mgrwt>
</event>
<event>
 4    1  0.5223852E-007  0.8621260E+03  0.7818608E-02  0.9589793E-01
         -2   -1    0    0    0  501 -0.00000000000E+00  0.00000000000E+00  0.36052289910E+03  0.36052289910E+03  0.25500000000E-02 0.  1.
          2   -1    0    0  501    0  0.00000000000E+00 -0.00000000000E+00 -0.15792053860E+04  0.15792053860E+04  0.25500000000E-02 0. -1.
    8880023    1    1    2    0    0 -0.22166850523E+03  0.51020980153E+03 -0.43237553482E+03  0.96447383435E+03  0.65864270000E+03 0.  0.
    8880022    1    1    2    0    0  0.22166850523E+03 -0.51020980153E+03 -0.78630695206E+03  0.97525445072E+03  0.15294330000E+03 0.  0.
<mgrwt>
<rscale>  0 0.77975453E+03</rscale>
<asrwt>0</asrwt>
<pdfrwt beam="1">  1        2 0.24295467E+00 0.86212596E+03</pdfrwt>
<pdfrwt beam="2">  1       -2 0.55465063E-01 0.86212596E+03</pdfrwt>
<totfact> 0.35415354E+01</totfact>
</mgrwt>
</event>
<event>
 4    1  0.5223852E-007  0.8898070E+03  0.7818608E-02  0.9542597E-01
          2   -1    0    0  501    0  0.00000000000E+00  0.00000000000E+00  0.65385424080E+03  0.65385424080E+03  0.25500000000E-02 0. -1.
         -2   -1    0    0    0  501 -0.00000000000E+00 -0.00000000000E+00 -0.10106742922E+04  0.10106742922E+04  0.25500000000E-02 0.  1.
    8880023    1    1    2    0    0  0.38272554368E+03  0.45985586305E+03 -0.51362177155E+03  0.10274063398E+04  0.65864270000E+03 0.  1.
    8880022    1    1    2    0    0 -0.38272554368E+03 -0.45985586305E+03  0.15680172019E+03  0.63712219317E+03  0.15294330000E+03 0.  0.
<mgrwt>
<rscale>  0 0.81214879E+03</rscale>
<asrwt>0</asrwt>
<pdfrwt beam="1">  1        2 0.10059296E+00 0.88980698E+03</pdfrwt>
<pdfrwt beam="2">  1       -2 0.15548835E+00 0.88980698E+03</pdfrwt>
<totfact> 0.12172637E+01</totfact>
</mgrwt>
</event>
<event>
 4    1  0.5223852E-007  0.6631587E+03  0.7818608E-02  0.1021131E+00
          2   -1    0    0  501    0  0.00000000000E+00  0.00000000000E+00  0.15377483455E+04  0.15377483455E+04  0.25500000000E-02 0. -1.
         -2   -1    0    0    0  501 -0.00000000000E+00 -0.00000000000E+00 -0.16351710615E+03  0.16351710617E+03  0.25500000000E-02 0.  1.
    8880023    1    1    2    0    0  0.66349533164E+02  0.39585583650E+02  0.55633917374E+03  0.86561698313E+03  0.65864270000E+03 0.  1.
    8880022    1    1    2    0    0 -0.66349533164E+02 -0.39585583650E+02  0.81789206558E+03  0.83564846852E+03  0.15294330000E+03 0.  0.
<mgrwt>
<rscale>  0 0.47280748E+03</rscale>
<asrwt>0</asrwt>
<pdfrwt beam="1">  1        2 0.23657667E+00 0.66315872E+03</pdfrwt>
<pdfrwt beam="2">  1       -2 0.25156478E-01 0.66315872E+03</pdfrwt>
<totfact> 0.17529901E+02</totfact>
</mgrwt>
</event>
<event>
 4    1  0.5223852E-007  0.1031005E+04  0.7818608E-02  0.9342072E-01
         -2   -1    0    0    0  501 -0.00000000000E+00  0.00000000000E+00  0.87009701770E+03  0.87009701771E+03  0.25500000000E-02 0.  1.
          2   -1    0    0  501    0  0.00000000000E+00 -0.00000000000E+00 -0.23016258888E+04  0.23016258888E+04  0.25500000000E-02 0. -1.
    8880023    1    1    2    0    0  0.31843232344E+03 -0.72647252111E+03  0.44937945455E+03  0.11246837640E+04  0.65864270000E+03 0.  0.
    8880022    1    1    2    0    0 -0.31843232344E+03  0.72647252111E+03 -0.18809083257E+04  0.20470391425E+04  0.15294330000E+03 0.  0.
<mgrwt>
<rscale>  0 0.97000197E+03</rscale>
<asrwt>0</asrwt>
<pdfrwt beam="1">  1        2 0.35409629E+00 0.10310052E+04</pdfrwt>
<pdfrwt beam="2">  1       -2 0.13386108E+00 0.10310052E+04</pdfrwt>
<totfact> 0.18208967E+00</totfact>
</mgrwt>
</event>
<event>
 4    1  0.5223852E-007  0.8334252E+03  0.7818608E-02  0.9642704E-01
         -2   -1    0    0    0  501 -0.00000000000E+00  0.00000000000E+00  0.76415318579E+03  0.76415318580E+03  0.25500000000E-02 0.  1.
          2   -1    0    0  501    0  0.00000000000E+00 -0.00000000000E+00 -0.22291673242E+04  0.22291673242E+04  0.25500000000E-02 0. -1.
    8880023    1    1    2    0    0  0.30474874355E+03  0.40977510452E+03  0.49008980802E+03  0.96684314093E+03  0.65864270000E+03 0.  1.
    8880022    1    1    2    0    0 -0.30474874355E+03 -0.40977510452E+03 -0.19551039464E+04  0.20264773690E+04  0.15294330000E+03 0.  0.
<mgrwt>
<rscale>  0 0.74533069E+03</rscale>
<asrwt>0</asrwt>
<pdfrwt beam="1">  1        2 0.34294882E+00 0.83342525E+03</pdfrwt>
<pdfrwt beam="2">  1       -2 0.11756203E+00 0.83342525E+03</pdfrwt>
<totfact> 0.28544965E+00</totfact>
</mgrwt>
</event>
<event>
 4    1  0.5223852E-007  0.6821259E+03  0.7818608E-02  0.1008146E+00
          2   -1    0    0  501    0  0.00000000000E+00  0.00000000000E+00  0.21192644865E+04  0.21192644865E+04  0.25500000000E-02 0. -1.
         -2   -1    0    0    0  501 -0.00000000000E+00 -0.00000000000E+00 -0.47285604432E+03  0.47285604433E+03  0.25500000000E-02 0.  1.
    8880023    1    1    2    0    0  0.60199214684E+02 -0.16691801229E+03 -0.21563595587E+03  0.71539823875E+03  0.65864270000E+03 0.  0.
    8880022    1    1    2    0    0 -0.60199214684E+02  0.16691801229E+03  0.18620443980E+04  0.18767222921E+04  0.15294330000E+03 0. -1.
<mgrwt>
<rscale>  0 0.52218264E+03</rscale>
<asrwt>0</asrwt>
<pdfrwt beam="1">  1        2 0.32604068E+00 0.68212592E+03</pdfrwt>
<pdfrwt beam="2">  1       -2 0.72747085E-01 0.68212592E+03</pdfrwt>
<totfact> 0.10279783E+01</totfact>
</mgrwt>
</event>
<event>
 4    1  0.5223852E-007  0.1172516E+04  0.7818608E-02  0.9184313E-01
         -2   -1    0    0    0  501 -0.00000000000E+00  0.00000000000E+00  0.12395689485E+04  0.12395689485E+04  0.25500000000E-02 0.  1.
          2   -1    0    0  501    0  0.00000000000E+00 -0.00000000000E+00 -0.10309881907E+04  0.10309881907E+04  0.25500000000E-02 0. -1.
    8880023    1    1    2    0    0  0.97003241662E+03 -0.44326357645E+01  0.45563272224E+03  0.12579323994E+04  0.65864270000E+03 0.  0.
    8880022    1    1    2    0    0 -0.97003241662E+03  0.44326357645E+01 -0.24705196444E+03  0.10126247398E+04  0.15294330000E+03 0.  0.
<mgrwt>
<rscale>  0 0.11216818E+04</rscale>
<asrwt>0</asrwt>
<pdfrwt beam="1">  1        2 0.15861357E+00 0.11725156E+04</pdfrwt>
<pdfrwt beam="2">  1       -2 0.19070291E+00 0.11725156E+04</pdfrwt>
<totfact> 0.35970179E+00</totfact>
</mgrwt>
</event>
<event>
 4    1  0.5223852E-007  0.1262052E+04  0.7818608E-02  0.9099044E-01
         -2   -1    0    0    0  501 -0.00000000000E+00  0.00000000000E+00  0.80540725728E+03  0.80540725729E+03  0.25500000000E-02 0.  1.
          2   -1    0    0  501    0  0.00000000000E+00 -0.00000000000E+00 -0.25880916108E+04  0.25880916108E+04  0.25500000000E-02 0. -1.
    8880023    1    1    2    0    0  0.10015416681E+04 -0.39481441712E+03  0.49415522504E+02  0.12630187002E+04  0.65864270000E+03 0.  1.
    8880022    1    1    2    0    0 -0.10015416681E+04  0.39481441712E+03 -0.18320998760E+04  0.21304801679E+04  0.15294330000E+03 0.  0.
<mgrwt>
<rscale>  0 0.12159098E+04</rscale>
<asrwt>0</asrwt>
<pdfrwt beam="1">  1        2 0.39816794E+00 0.12620516E+04</pdfrwt>
<pdfrwt beam="2">  1       -2 0.12390881E+00 0.12620516E+04</pdfrwt>
<totfact> 0.14763442E+00</totfact>
</mgrwt>
</event>
<event>
 4    1  0.5223852E-007  0.8034752E+03  0.7818608E-02  0.9703332E-01
          2   -1    0    0  501    0  0.00000000000E+00  0.00000000000E+00  0.13654521247E+04  0.13654521247E+04  0.25500000000E-02 0. -1.
         -2   -1    0    0    0  501 -0.00000000000E+00 -0.00000000000E+00 -0.61958288941E+03  0.61958288942E+03  0.25500000000E-02 0.  1.
    8880023    1    1    2    0    0 -0.68575197213E+02  0.45503812045E+03 -0.27956329926E+03  0.85072210109E+03  0.65864270000E+03 0.  0.
    8880022    1    1    2    0    0  0.68575197213E+02 -0.45503812045E+03  0.10254325346E+04  0.11343129130E+04  0.15294330000E+03 0.  0.
<mgrwt>
<rscale>  0 0.70818773E+03</rscale>
<asrwt>0</asrwt>
<pdfrwt beam="1">  1        2 0.21006955E+00 0.80347524E+03</pdfrwt>
<pdfrwt beam="2">  1       -2 0.95320446E-01 0.80347524E+03</pdfrwt>
<totfact> 0.14223441E+01</totfact>
</mgrwt>
</event>
<event>
 4    1  0.5223852E-007  0.8347400E+03  0.7818608E-02  0.9640179E-01
          2   -1    0    0  501    0  0.00000000000E+00  0.00000000000E+00  0.15264933789E+04  0.15264933789E+04  0.25500000000E-02 0. -1.
         -2   -1    0    0    0  501 -0.00000000000E+00 -0.00000000000E+00 -0.93990692921E+03  0.93990692921E+03  0.25500000000E-02 0.  1.
    8880023    1    1    2    0    0 -0.49827135544E+03  0.12126937856E+03 -0.68947833227E+03  0.10826685470E+04  0.65864270000E+03 0.  1.
    8880022    1    1    2    0    0  0.49827135544E+03 -0.12126937856E+03  0.12760647819E+04  0.13837317610E+04  0.15294330000E+03 0.  0.
<mgrwt>
<rscale>  0 0.74692978E+03</rscale>
<asrwt>0</asrwt>
<pdfrwt beam="1">  1        2 0.23484513E+00 0.83473997E+03</pdfrwt>
<pdfrwt beam="2">  1       -2 0.14460107E+00 0.83473997E+03</pdfrwt>
<totfact> 0.41046517E+00</totfact>
</mgrwt>
</event>
<event>
 4    1  0.5223852E-007  0.8443544E+03  0.7818608E-02  0.9622024E-01
          2   -1    0    0  501    0  0.00000000000E+00  0.00000000000E+00  0.11662956914E+04  0.11662956914E+04  0.25500000000E-02 0. -1.
         -2   -1    0    0    0  501 -0.00000000000E+00 -0.00000000000E+00 -0.41818402203E+03  0.41818402204E+03  0.25500000000E-02 0.  1.
    8880023    1    1    2    0    0 -0.37802193838E+03  0.36908468538E+03  0.49793154892E+03  0.98023983012E+03  0.65864270000E+03 0. -1.
    8880022    1    1    2    0    0  0.37802193838E+03 -0.36908468538E+03  0.25018012040E+03  0.60423988327E+03  0.15294330000E+03 0.  1.
<mgrwt>
<rscale>  0 0.75855498E+03</rscale>
<asrwt>0</asrwt>
<pdfrwt beam="1">  1        2 0.17943011E+00 0.84435437E+03</pdfrwt>
<pdfrwt beam="2">  1       -2 0.64336003E-01 0.84435437E+03</pdfrwt>
<totfact> 0.44691936E+01</totfact>
</mgrwt>
</event>
<event>
 4    1  0.5223852E-007  0.9944344E+03  0.7818608E-02  0.9388876E-01
         -2   -1    0    0    0  501 -0.00000000000E+00  0.00000000000E+00  0.97734873584E+03  0.97734873585E+03  0.25500000000E-02 0.  1.
          2   -1    0    0  501    0  0.00000000000E+00 -0.00000000000E+00 -0.90566882816E+03  0.90566882817E+03  0.25500000000E-02 0. -1.
    8880023    1    1    2    0    0 -0.73021793521E+03 -0.14788959885E+03  0.37692458477E+03  0.10634716335E+04  0.65864270000E+03 0.  1.
    8880022    1    1    2    0    0  0.73021793521E+03  0.14788959885E+03 -0.30524467709E+03  0.81954593053E+03  0.15294330000E+03 0.  0.
<mgrwt>
<rscale>  0 0.92996855E+03</rscale>
<asrwt>0</asrwt>
<pdfrwt beam="1">  1        2 0.13933367E+00 0.99443440E+03</pdfrwt>
<pdfrwt beam="2">  1       -2 0.15036134E+00 0.99443440E+03</pdfrwt>
<totfact> 0.85833700E+00</totfact>
</mgrwt>
</event>
<event>
 4    1  0.5223852E-007  0.6616644E+03  0.7818608E-02  0.1022512E+00
          2   -1    0    0  501    0  0.00000000000E+00  0.00000000000E+00  0.12576123113E+04  0.12576123113E+04  0.25500000000E-02 0. -1.
         -2   -1    0    0    0  501 -0.00000000000E+00 -0.00000000000E+00 -0.15544320493E+03  0.15544320495E+03  0.25500000000E-02 0.  1.
    8880023    1    1    2    0    0  0.38732912850E+02  0.49893360643E+02  0.63351448276E+03  0.91604606440E+03  0.65864270000E+03 0.  1.
    8880022    1    1    2    0    0 -0.38732912850E+02 -0.49893360643E+02  0.46865462358E+03  0.49700945182E+03  0.15294330000E+03 0. -1.
<mgrwt>
<rscale>  0 0.46790746E+03</rscale>
<asrwt>0</asrwt>
<pdfrwt beam="1">  1        2 0.19347882E+00 0.66166441E+03</pdfrwt>
<pdfrwt beam="2">  1       -2 0.23914339E-01 0.66166441E+03</pdfrwt>
<totfact> 0.27627788E+02</totfact>
</mgrwt>
</event>
<event>
 4    1  0.5223852E-007  0.7513909E+03  0.7818608E-02  0.9827928E-01
         -2   -1    0    0    0  501 -0.00000000000E+00  0.00000000000E+00  0.44642630249E+03  0.44642630250E+03  0.25500000000E-02 0.  1.
          2   -1    0    0  501    0  0.00000000000E+00 -0.00000000000E+00 -0.19664894448E+04  0.19664894448E+04  0.25500000000E-02 0. -1.
    8880023    1    1    2    0    0 -0.10804965623E+03 -0.34511345728E+03  0.88995625263E+02  0.75664288418E+03  0.65864270000E+03 0.  1.
    8880022    1    1    2    0    0  0.10804965623E+03  0.34511345728E+03 -0.16090587676E+04  0.16562728632E+04  0.15294330000E+03 0.  0.
<mgrwt>
<rscale>  0 0.63885060E+03</rscale>
<asrwt>0</asrwt>
<pdfrwt beam="1">  1        2 0.30253683E+00 0.75139087E+03</pdfrwt>
<pdfrwt beam="2">  1       -2 0.68680971E-01 0.75139087E+03</pdfrwt>
<totfact> 0.13972246E+01</totfact>
</mgrwt>
</event>
<event>
 4    1  0.5223852E-007  0.9336300E+03  0.7818608E-02  0.9474069E-01
         -2   -1    0    0    0  501 -0.00000000000E+00  0.00000000000E+00  0.23003870048E+03  0.23003870049E+03  0.25500000000E-02 0.  1.
          2   -1    0    0  501    0  0.00000000000E+00 -0.00000000000E+00 -0.29556547117E+04  0.29556547117E+04  0.25500000000E-02 0. -1.
    8880023    1    1    2    0    0  0.20760725110E+03  0.62829444882E+03 -0.12398269405E+04  0.15520424395E+04  0.65864270000E+03 0. -1.
    8880022    1    1    2    0    0 -0.20760725110E+03 -0.62829444882E+03 -0.14857890706E+04  0.16336509727E+04  0.15294330000E+03 0.  1.
<mgrwt>
<rscale>  0 0.86222915E+03</rscale>
<asrwt>0</asrwt>
<pdfrwt beam="1">  1        2 0.45471608E+00 0.93362995E+03</pdfrwt>
<pdfrwt beam="2">  1       -2 0.35390571E-01 0.93362995E+03</pdfrwt>
<totfact> 0.14343549E+01</totfact>
</mgrwt>
</event>
<event>
 4    1  0.5223852E-007  0.6854158E+03  0.7818608E-02  0.1006412E+00
         -2   -1    0    0    0  501 -0.00000000000E+00  0.00000000000E+00  0.25221480465E+03  0.25221480466E+03  0.25500000000E-02 0.  1.
          2   -1    0    0  501    0  0.00000000000E+00 -0.00000000000E+00 -0.11777592106E+04  0.11777592106E+04  0.25500000000E-02 0. -1.
    8880023    1    1    2    0    0 -0.17543687890E+03  0.72156616554E+02 -0.28077333983E+03  0.74069464046E+03  0.65864270000E+03 0.  1.
    8880022    1    1    2    0    0  0.17543687890E+03 -0.72156616554E+02 -0.64477106611E+03  0.68927937478E+03  0.15294330000E+03 0.  0.
<mgrwt>
<rscale>  0 0.52925781E+03</rscale>
<asrwt>0</asrwt>
<pdfrwt beam="1">  1        2 0.18119372E+00 0.68541585E+03</pdfrwt>
<pdfrwt beam="2">  1       -2 0.38802278E-01 0.68541585E+03</pdfrwt>
<totfact> 0.12491932E+02</totfact>
</mgrwt>
</event>
<event>
 4    1  0.5223852E-007  0.6686600E+03  0.7818608E-02  0.1016642E+00
          2   -1    0    0  501    0  0.00000000000E+00  0.00000000000E+00  0.17101423377E+04  0.17101423377E+04  0.25500000000E-02 0. -1.
         -2   -1    0    0    0  501 -0.00000000000E+00 -0.00000000000E+00 -0.38631368713E+03  0.38631368714E+03  0.25500000000E-02 0.  1.
    8880023    1    1    2    0    0  0.59105354260E+02  0.99007734635E+02 -0.85559732725E+02  0.67411174782E+03  0.65864270000E+03 0.  1.
    8880022    1    1    2    0    0 -0.59105354260E+02 -0.99007734635E+02  0.14093883833E+04  0.14223442770E+04  0.15294330000E+03 0.  0.
<mgrwt>
<rscale>  0 0.48918030E+03</rscale>
<asrwt>0</asrwt>
<pdfrwt beam="1">  1        2 0.26309882E+00 0.66865999E+03</pdfrwt>
<pdfrwt beam="2">  1       -2 0.59432876E-01 0.66865999E+03</pdfrwt>
<totfact> 0.26562046E+01</totfact>
</mgrwt>
</event>
<event>
 4    1  0.5223852E-007  0.1085098E+04  0.7818608E-02  0.9277832E-01
          2   -1    0    0  501    0  0.00000000000E+00  0.00000000000E+00  0.40072451737E+04  0.40072451737E+04  0.25500000000E-02 0. -1.
         -2   -1    0    0    0  501 -0.00000000000E+00 -0.00000000000E+00 -0.30862126789E+03  0.30862126790E+03  0.25500000000E-02 0.  1.
    8880023    1    1    2    0    0  0.40143110040E+03 -0.76320399155E+03  0.98885729530E+03  0.14680859027E+04  0.65864270000E+03 0.  0.
    8880022    1    1    2    0    0 -0.40143110040E+03  0.76320399155E+03  0.27097666105E+04  0.28477805388E+04  0.15294330000E+03 0.  0.
<mgrwt>
<rscale>  0 0.10284956E+04</rscale>
<asrwt>0</asrwt>
<pdfrwt beam="1">  1        2 0.61649920E+00 0.10850979E+04</pdfrwt>
<pdfrwt beam="2">  1       -2 0.47480199E-01 0.10850979E+04</pdfrwt>
<totfact> 0.14755043E+00</totfact>
</mgrwt>
</event>
<event>
 4    1  0.5223852E-007  0.8290597E+03  0.7818608E-02  0.9651165E-01
         -2   -1    0    0    0  501 -0.00000000000E+00  0.00000000000E+00  0.43190639655E+03  0.43190639656E+03  0.25500000000E-02 0.  1.
          2   -1    0    0  501    0  0.00000000000E+00 -0.00000000000E+00 -0.30564001324E+04  0.30564001324E+04  0.25500000000E-02 0. -1.
    8880023    1    1    2    0    0 -0.18786289915E+03  0.46715873267E+03 -0.18034584378E+02  0.82925581269E+03  0.65864270000E+03 0.  1.
    8880022    1    1    2    0    0  0.18786289915E+03 -0.46715873267E+03 -0.26064591515E+04  0.26590507163E+04  0.15294330000E+03 0.  0.
<mgrwt>
<rscale>  0 0.74000374E+03</rscale>
<asrwt>0</asrwt>
<pdfrwt beam="1">  1        2 0.47021539E+00 0.82905968E+03</pdfrwt>
<pdfrwt beam="2">  1       -2 0.66447140E-01 0.82905968E+03</pdfrwt>
<totfact> 0.35160828E+00</totfact>
</mgrwt>
</event>
<event>
 4    1  0.5223852E-007  0.7524688E+03  0.7818608E-02  0.9825010E-01
         -2   -1    0    0    0  501 -0.00000000000E+00  0.00000000000E+00  0.14521043689E+03  0.14521043691E+03  0.25500000000E-02 0.  1.
          2   -1    0    0  501    0  0.00000000000E+00 -0.00000000000E+00 -0.25695758585E+04  0.25695758585E+04  0.25500000000E-02 0. -1.
    8880023    1    1    2    0    0  0.34708972521E+03 -0.10921453367E+03 -0.19918527121E+04  0.21292455295E+04  0.65864270000E+03 0. -1.
    8880022    1    1    2    0    0 -0.34708972521E+03  0.10921453367E+03 -0.43251270953E+03  0.58554076598E+03  0.15294330000E+03 0.  0.
<mgrwt>
<rscale>  0 0.64037457E+03</rscale>
<asrwt>0</asrwt>
<pdfrwt beam="1">  1        2 0.39531933E+00 0.75246880E+03</pdfrwt>
<pdfrwt beam="2">  1       -2 0.22340069E-01 0.75246880E+03</pdfrwt>
<totfact> 0.57951109E+01</totfact>
</mgrwt>
</event>
<event>
 4    1  0.5223852E-007  0.1216863E+04  0.7818608E-02  0.9140902E-01
         -2   -1    0    0    0  501 -0.00000000000E+00  0.00000000000E+00  0.50581764568E+03  0.50581764569E+03  0.25500000000E-02 0.  1.
          2   -1    0    0  501    0  0.00000000000E+00 -0.00000000000E+00 -0.29322878644E+04  0.29322878644E+04  0.25500000000E-02 0. -1.
    8880023    1    1    2    0    0 -0.73858371933E+03 -0.70812414956E+03 -0.64304040937E+03  0.13763200558E+04  0.65864270000E+03 0.  0.
    8880022    1    1    2    0    0  0.73858371933E+03  0.70812414956E+03 -0.17834298093E+04  0.20617854543E+04  0.15294330000E+03 0.  0.
<mgrwt>
<rscale>  0 0.11684803E+04</rscale>
<asrwt>0</asrwt>
<pdfrwt beam="1">  1        2 0.45112120E+00 0.12168632E+04</pdfrwt>
<pdfrwt beam="2">  1       -2 0.77818101E-01 0.12168632E+04</pdfrwt>
<totfact> 0.27959444E+00</totfact>
</mgrwt>
</event>
<event>
 4    1  0.6064865E-007  0.9881765E+03  0.7818608E-02  0.9397192E-01
         -2   -1    0    0    0  501 -0.00000000000E+00  0.00000000000E+00  0.96539170141E+03  0.96539170141E+03  0.25500000000E-02 0.  1.
          2   -1    0    0  501    0  0.00000000000E+00 -0.00000000000E+00 -0.24074086664E+04  0.24074086664E+04  0.25500000000E-02 0. -1.
    8880023    1    1    2    0    0 -0.30618932378E+03  0.67002292855E+03  0.62762548624E+03  0.11706436623E+04  0.65864270000E+03 0.  0.
    8880022    1    1    2    0    0  0.30618932378E+03 -0.67002292855E+03 -0.20696424512E+04  0.22021567055E+04  0.15294330000E+03 0.  0.
<mgrwt>
<rscale>  0 0.92307093E+03</rscale>
<asrwt>0</asrwt>
<pdfrwt beam="1">  1        2 0.37037056E+00 0.98817652E+03</pdfrwt>
<pdfrwt beam="2">  1       -2 0.14852180E+00 0.98817652E+03</pdfrwt>
<totfact> 0.12181056E+00</totfact>
</mgrwt>
</event>
<event>
 4    1  0.5223852E-007  0.7576255E+03  0.7818608E-02  0.9811294E-01
          2   -1    0    0  501    0  0.00000000000E+00  0.00000000000E+00  0.17827111269E+04  0.17827111269E+04  0.25500000000E-02 0. -1.
         -2   -1    0    0    0  501 -0.00000000000E+00 -0.00000000000E+00 -0.35431737467E+03  0.35431737468E+03  0.25500000000E-02 0.  1.
    8880023    1    1    2    0    0 -0.73579104929E+02  0.36711350394E+03  0.11939986527E+03  0.76697636440E+03  0.65864270000E+03 0.  1.
    8880022    1    1    2    0    0  0.73579104929E+02 -0.36711350394E+03  0.13089938870E+04  0.13700521372E+04  0.15294330000E+03 0.  0.
<mgrwt>
<rscale>  0 0.64759951E+03</rscale>
<asrwt>0</asrwt>
<pdfrwt beam="1">  1        2 0.27426325E+00 0.75762551E+03</pdfrwt>
<pdfrwt beam="2">  1       -2 0.54510365E-01 0.75762551E+03</pdfrwt>
<totfact> 0.28708904E+01</totfact>
</mgrwt>
</event>
<event>
 4    1  0.5223852E-007  0.7751677E+03  0.7818608E-02  0.9767313E-01
         -2   -1    0    0    0  501 -0.00000000000E+00  0.00000000000E+00  0.14150937904E+04  0.14150937904E+04  0.25500000000E-02 0.  1.
          2   -1    0    0  501    0  0.00000000000E+00 -0.00000000000E+00 -0.12900415404E+04  0.12900415404E+04  0.25500000000E-02 0. -1.
    8880023    1    1    2    0    0  0.60543033341E+02 -0.40423916050E+03  0.12654967733E+04  0.14840374144E+04  0.65864270000E+03 0.  0.
    8880022    1    1    2    0    0 -0.60543033341E+02  0.40423916050E+03 -0.11404445233E+04  0.12210979164E+04  0.15294330000E+03 0.  0.
<mgrwt>
<rscale>  0 0.67146604E+03</rscale>
<asrwt>0</asrwt>
<pdfrwt beam="1">  1        2 0.19846793E+00 0.77516770E+03</pdfrwt>
<pdfrwt beam="2">  1       -2 0.21770674E+00 0.77516770E+03</pdfrwt>
<totfact> 0.17589783E+00</totfact>
</mgrwt>
</event>
<event>
 4    1  0.5223852E-007  0.7050964E+03  0.7818608E-02  0.9976682E-01
          2   -1    0    0  501    0  0.00000000000E+00  0.00000000000E+00  0.29405637400E+04  0.29405637400E+04  0.25500000000E-02 0. -1.
         -2   -1    0    0    0  501 -0.00000000000E+00 -0.00000000000E+00 -0.14979700242E+03  0.14979700244E+03  0.25500000000E-02 0.  1.
    8880023    1    1    2    0    0  0.16315930955E+03 -0.19165014323E+03  0.75363865760E+03  0.10320524067E+04  0.65864270000E+03 0.  1.
    8880022    1    1    2    0    0 -0.16315930955E+03  0.19165014323E+03  0.20371280800E+04  0.20583083357E+04  0.15294330000E+03 0.  0.
<mgrwt>
<rscale>  0 0.56684628E+03</rscale>
<asrwt>0</asrwt>
<pdfrwt beam="1">  1        2 0.45239443E+00 0.70509641E+03</pdfrwt>
<pdfrwt beam="2">  1       -2 0.23045692E-01 0.70509641E+03</pdfrwt>
<totfact> 0.33440966E+01</totfact>
</mgrwt>
</event>
<event>
 4    1  0.5223852E-007  0.8503672E+03  0.7818608E-02  0.9610933E-01
         -2   -1    0    0    0  501 -0.00000000000E+00  0.00000000000E+00  0.98360627867E+03  0.98360627867E+03  0.25500000000E-02 0.  1.
          2   -1    0    0  501    0  0.00000000000E+00 -0.00000000000E+00 -0.61570066530E+03  0.61570066531E+03  0.25500000000E-02 0. -1.
    8880023    1    1    2    0    0 -0.23607527530E+03  0.48330394407E+03  0.54820563316E+03  0.10117578072E+04  0.65864270000E+03 0.  1.
    8880022    1    1    2    0    0  0.23607527530E+03 -0.48330394407E+03 -0.18030001980E+03  0.58754913677E+03  0.15294330000E+03 0.  0.
<mgrwt>
<rscale>  0 0.76576744E+03</rscale>
<asrwt>0</asrwt>
<pdfrwt beam="1">  1        2 0.94723179E-01 0.85036724E+03</pdfrwt>
<pdfrwt beam="2">  1       -2 0.15132404E+00 0.85036724E+03</pdfrwt>
<totfact> 0.14141817E+01</totfact>
</mgrwt>
</event>
<event>
 4    1  0.5223852E-007  0.8751249E+03  0.7818608E-02  0.9567206E-01
         -2   -1    0    0    0  501 -0.00000000000E+00  0.00000000000E+00  0.39602239900E+03  0.39602239900E+03  0.25500000000E-02 0.  1.
          2   -1    0    0  501    0  0.00000000000E+00 -0.00000000000E+00 -0.49865224628E+04  0.49865224628E+04  0.25500000000E-02 0. -1.
    8880023    1    1    2    0    0 -0.28588982141E+03 -0.50030025292E+03 -0.13278647680E+03  0.88514167665E+03  0.65864270000E+03 0.  1.
    8880022    1    1    2    0    0  0.28588982141E+03  0.50030025292E+03 -0.44577135870E+04  0.44974031852E+04  0.15294330000E+03 0.  0.
<mgrwt>
<rscale>  0 0.79505288E+03</rscale>
<asrwt>0</asrwt>
<pdfrwt beam="1">  1        2 0.76715726E+00 0.87512487E+03</pdfrwt>
<pdfrwt beam="2">  1       -2 0.60926527E-01 0.87512487E+03</pdfrwt>
<totfact> 0.10196088E-01</totfact>
</mgrwt>
</event>
<event>
 4    1  0.5223852E-007  0.7738235E+03  0.7818608E-02  0.9770551E-01
         -2   -1    0    0    0  501 -0.00000000000E+00  0.00000000000E+00  0.91702781829E+03  0.91702781830E+03  0.25500000000E-02 0.  1.
          2   -1    0    0  501    0  0.00000000000E+00 -0.00000000000E+00 -0.19384440442E+04  0.19384440442E+04  0.25500000000E-02 0. -1.
    8880023    1    1    2    0    0  0.33388008317E+03 -0.23133667075E+03  0.72230190839E+03  0.10585475040E+04  0.65864270000E+03 0.  1.
    8880022    1    1    2    0    0 -0.33388008317E+03  0.23133667075E+03 -0.17437181343E+04  0.17969243584E+04  0.15294330000E+03 0.  0.
<mgrwt>
<rscale>  0 0.66967177E+03</rscale>
<asrwt>0</asrwt>
<pdfrwt beam="1">  1        2 0.29822216E+00 0.77382348E+03</pdfrwt>
<pdfrwt beam="2">  1       -2 0.14108120E+00 0.77382348E+03</pdfrwt>
<totfact> 0.26251957E+00</totfact>
</mgrwt>
</event>
<event>
 4    1  0.5223852E-007  0.7882979E+03  0.7818608E-02  0.9736694E-01
          2   -1    0    0  501    0  0.00000000000E+00  0.00000000000E+00  0.24575244791E+04  0.24575244791E+04  0.25500000000E-02 0. -1.
         -2   -1    0    0    0  501 -0.00000000000E+00 -0.00000000000E+00 -0.51209287760E+03  0.51209287760E+03  0.25500000000E-02 0.  1.
    8880023    1    1    2    0    0 -0.42369785502E+03  0.89908407640E+02 -0.16871084790E+03  0.80614945921E+03  0.65864270000E+03 0.  0.
    8880022    1    1    2    0    0  0.42369785502E+03 -0.89908407640E+02  0.21141424494E+04  0.21634678975E+04  0.15294330000E+03 0.  0.
<mgrwt>
<rscale>  0 0.68873446E+03</rscale>
<asrwt>0</asrwt>
<pdfrwt beam="1">  1        2 0.37808069E+00 0.78829791E+03</pdfrwt>
<pdfrwt beam="2">  1       -2 0.78783519E-01 0.78829791E+03</pdfrwt>
<totfact> 0.54897439E+00</totfact>
</mgrwt>
</event>
<event>
 4    1  0.5223852E-007  0.8562942E+03  0.7818608E-02  0.9600190E-01
         -2   -1    0    0    0  501 -0.00000000000E+00  0.00000000000E+00  0.18607235745E+03  0.18607235747E+03  0.25500000000E-02 0.  1.
          2   -1    0    0  501    0  0.00000000000E+00 -0.00000000000E+00 -0.46752488458E+04  0.46752488458E+04  0.25500000000E-02 0. -1.
    8880023    1    1    2    0    0  0.46945449505E+03 -0.28114415987E+03 -0.95877514014E+03  0.12854919436E+04  0.65864270000E+03 0.  1.
    8880022    1    1    2    0    0 -0.46945449505E+03  0.28114415987E+03 -0.35304013483E+04  0.35758292597E+04  0.15294330000E+03 0.  0.
<mgrwt>
<rscale>  0 0.77283630E+03</rscale>
<asrwt>0</asrwt>
<pdfrwt beam="1">  1        2 0.71926896E+00 0.85629421E+03</pdfrwt>
<pdfrwt beam="2">  1       -2 0.28626520E-01 0.85629421E+03</pdfrwt>
<totfact> 0.10203052E+00</totfact>
</mgrwt>
</event>
<event>
 4    1  0.5223852E-007  0.6680144E+03  0.7818608E-02  0.1017128E+00
          2   -1    0    0  501    0  0.00000000000E+00  0.00000000000E+00  0.50418224553E+03  0.50418224553E+03  0.25500000000E-02 0. -1.
         -2   -1    0    0    0  501 -0.00000000000E+00 -0.00000000000E+00 -0.49345070597E+03  0.49345070598E+03  0.25500000000E-02 0.  1.
    8880023    1    1    2    0    0  0.10561101699E+03 -0.35767660918E+02 -0.21619964583E+03  0.70212926559E+03  0.65864270000E+03 0.  1.
    8880022    1    1    2    0    0 -0.10561101699E+03  0.35767660918E+02  0.22693118539E+03  0.29550368592E+03  0.15294330000E+03 0.  0.
<mgrwt>
<rscale>  0 0.48737374E+03</rscale>
<asrwt>0</asrwt>
<pdfrwt beam="1">  1        2 0.77566500E-01 0.66801439E+03</pdfrwt>
<pdfrwt beam="2">  1       -2 0.75915493E-01 0.66801439E+03</pdfrwt>
<totfact> 0.96291407E+01</totfact>
</mgrwt>
</event>
<event>
 4    1  0.5223852E-007  0.6820991E+03  0.7818608E-02  0.1008160E+00
          2   -1    0    0  501    0  0.00000000000E+00  0.00000000000E+00  0.10231368958E+04  0.10231368958E+04  0.25500000000E-02 0. -1.
         -2   -1    0    0    0  501 -0.00000000000E+00 -0.00000000000E+00 -0.20541103524E+03  0.20541103526E+03  0.25500000000E-02 0.  1.
    8880023    1    1    2    0    0 -0.42980915673E+02  0.17205123440E+03  0.58921427659E+03  0.90135046256E+03  0.65864270000E+03 0.  0.
    8880022    1    1    2    0    0  0.42980915673E+02 -0.17205123440E+03  0.22851158401E+03  0.32719746853E+03  0.15294330000E+03 0.  1.
<mgrwt>
<rscale>  0 0.52212372E+03</rscale>
<asrwt>0</asrwt>
<pdfrwt beam="1">  1        2 0.15740568E+00 0.68209911E+03</pdfrwt>
<pdfrwt beam="2">  1       -2 0.31601697E-01 0.68209911E+03</pdfrwt>
<totfact> 0.22945313E+02</totfact>
</mgrwt>
</event>
<event>
 4    1  0.5223852E-007  0.7302046E+03  0.7818608E-02  0.9889458E-01
         -2   -1    0    0    0  501 -0.00000000000E+00  0.00000000000E+00  0.58182999671E+03  0.58182999672E+03  0.25500000000E-02 0.  1.
          2   -1    0    0  501    0  0.00000000000E+00 -0.00000000000E+00 -0.82262147754E+03  0.82262147754E+03  0.25500000000E-02 0. -1.
    8880023    1    1    2    0    0  0.47629218342E+02 -0.31164081741E+03  0.27552940206E+03  0.78045832635E+03  0.65864270000E+03 0.  0.
    8880022    1    1    2    0    0 -0.47629218342E+02  0.31164081741E+03 -0.51632088288E+03  0.62399314790E+03  0.15294330000E+03 0. -1.
<mgrwt>
<rscale>  0 0.60774929E+03</rscale>
<asrwt>0</asrwt>
<pdfrwt beam="1">  1        2 0.12655715E+00 0.73020459E+03</pdfrwt>
<pdfrwt beam="2">  1       -2 0.89512307E-01 0.73020459E+03</pdfrwt>
<totfact> 0.36075860E+01</totfact>
</mgrwt>
</event>
<event>
 4    1  0.5223852E-007  0.7434181E+03  0.7818608E-02  0.9850100E-01
         -2   -1    0    0    0  501 -0.00000000000E+00  0.00000000000E+00  0.61832855344E+03  0.61832855345E+03  0.25500000000E-02 0.  1.
          2   -1    0    0  501    0  0.00000000000E+00 -0.00000000000E+00 -0.13674544993E+04  0.13674544993E+04  0.25500000000E-02 0. -1.
    8880023    1    1    2    0    0 -0.77908980715E+02 -0.33584298065E+03  0.35149969288E+03  0.82232752434E+03  0.65864270000E+03 0.  1.
    8880022    1    1    2    0    0  0.77908980715E+02  0.33584298065E+03 -0.11006256387E+04  0.11634555284E+04  0.15294330000E+03 0.  0.
<mgrwt>
<rscale>  0 0.62741825E+03</rscale>
<asrwt>0</asrwt>
<pdfrwt beam="1">  1        2 0.21037761E+00 0.74341813E+03</pdfrwt>
<pdfrwt beam="2">  1       -2 0.95127470E-01 0.74341813E+03</pdfrwt>
<totfact> 0.14356802E+01</totfact>
</mgrwt>
</event>
<event>
 4    1  0.5223852E-007  0.6629681E+03  0.7818608E-02  0.1021303E+00
          2   -1    0    0  501    0  0.00000000000E+00  0.00000000000E+00  0.26036544196E+04  0.26036544196E+04  0.25500000000E-02 0. -1.
         -2   -1    0    0    0  501 -0.00000000000E+00 -0.00000000000E+00 -0.11173542169E+03  0.11173542172E+03  0.25500000000E-02 0.  1.
    8880023    1    1    2    0    0  0.32248816000E+02  0.68385190037E+02  0.91862322211E+03  0.11328704034E+04  0.65864270000E+03 0.  1.
    8880022    1    1    2    0    0 -0.32248816000E+02 -0.68385190037E+02  0.15732957758E+04  0.15825194380E+04  0.15294330000E+03 0.  0.
<mgrwt>
<rscale>  0 0.47219497E+03</rscale>
<asrwt>0</asrwt>
<pdfrwt beam="1">  1        2 0.40056226E+00 0.66296812E+03</pdfrwt>
<pdfrwt beam="2">  1       -2 0.17190063E-01 0.66296812E+03</pdfrwt>
<totfact> 0.88577747E+01</totfact>
</mgrwt>
</event>
<event>
 4    1  0.5223852E-007  0.8127363E+03  0.7818608E-02  0.9683905E-01
         -2   -1    0    0    0  501 -0.00000000000E+00  0.00000000000E+00  0.28278751518E+03  0.28278751519E+03  0.25500000000E-02 0.  1.
          2   -1    0    0  501    0  0.00000000000E+00 -0.00000000000E+00 -0.15692672381E+04  0.15692672381E+04  0.25500000000E-02 0. -1.
    8880023    1    1    2    0    0 -0.70032467998E+02  0.47098366885E+03 -0.63866572303E+03  0.10336509444E+04  0.65864270000E+03 0.  1.
    8880022    1    1    2    0    0  0.70032467998E+02 -0.47098366885E+03 -0.64781399992E+03  0.81840380889E+03  0.15294330000E+03 0. -1.
<mgrwt>
<rscale>  0 0.71983210E+03</rscale>
<asrwt>0</asrwt>
<pdfrwt beam="1">  1        2 0.24142572E+00 0.81273635E+03</pdfrwt>
<pdfrwt beam="2">  1       -2 0.43505772E-01 0.81273635E+03</pdfrwt>
<totfact> 0.59038720E+01</totfact>
</mgrwt>
</event>
<event>
 4    1  0.5223852E-007  0.1067058E+04  0.7818608E-02  0.9298651E-01
         -2   -1    0    0    0  501 -0.00000000000E+00  0.00000000000E+00  0.94155308855E+03  0.94155308856E+03  0.25500000000E-02 0.  1.
          2   -1    0    0  501    0  0.00000000000E+00 -0.00000000000E+00 -0.15046522657E+04  0.15046522657E+04  0.25500000000E-02 0. -1.
    8880023    1    1    2    0    0 -0.28565444293E+03  0.78943263196E+03  0.41791790536E+03  0.11459790238E+04  0.65864270000E+03 0.  0.
    8880022    1    1    2    0    0  0.28565444293E+03 -0.78943263196E+03 -0.98101708256E+03  0.13002263305E+04  0.15294330000E+03 0.  0.
<mgrwt>
<rscale>  0 0.10090713E+04</rscale>
<asrwt>0</asrwt>
<pdfrwt beam="1">  1        2 0.23148496E+00 0.10670579E+04</pdfrwt>
<pdfrwt beam="2">  1       -2 0.14485432E+00 0.10670579E+04</pdfrwt>
<totfact> 0.40852707E+00</totfact>
</mgrwt>
</event>
<event>
 4    1  0.5223852E-007  0.1161461E+04  0.7818608E-02  0.9195527E-01
         -2   -1    0    0    0  501 -0.00000000000E+00  0.00000000000E+00  0.65410213687E+03  0.65410213687E+03  0.25500000000E-02 0.  1.
          2   -1    0    0  501    0  0.00000000000E+00 -0.00000000000E+00 -0.28233777587E+04  0.28233777587E+04  0.25500000000E-02 0. -1.
    8880023    1    1    2    0    0 -0.15783126307E+03 -0.94354111745E+03 -0.67795252935E+02  0.11634375576E+04  0.65864270000E+03 0.  1.
    8880022    1    1    2    0    0  0.15783126307E+03  0.94354111745E+03 -0.21014803689E+04  0.23140423379E+04  0.15294330000E+03 0.  0.
<mgrwt>
<rscale>  0 0.11099715E+04</rscale>
<asrwt>0</asrwt>
<pdfrwt beam="1">  1        2 0.43436580E+00 0.11614606E+04</pdfrwt>
<pdfrwt beam="2">  1       -2 0.10063110E+00 0.11614606E+04</pdfrwt>
<totfact> 0.18076360E+00</totfact>
</mgrwt>
</event>
<event>
 4    1  0.5223852E-007  0.1108930E+04  0.7818608E-02  0.9251178E-01
         -2   -1    0    0    0  501 -0.00000000000E+00  0.00000000000E+00  0.96285372820E+03  0.96285372821E+03  0.25500000000E-02 0.  1.
          2   -1    0    0  501    0  0.00000000000E+00 -0.00000000000E+00 -0.13067556837E+04  0.13067556837E+04  0.25500000000E-02 0. -1.
    8880023    1    1    2    0    0 -0.13920428509E+03 -0.88121385778E+03 -0.68372162916E+03  0.13027667361E+04  0.65864270000E+03 0. -1.
    8880022    1    1    2    0    0  0.13920428509E+03  0.88121385778E+03  0.33981967370E+03  0.96684267582E+03  0.15294330000E+03 0.  0.
<mgrwt>
<rscale>  0 0.10540446E+04</rscale>
<asrwt>0</asrwt>
<pdfrwt beam="1">  1        2 0.20103934E+00 0.11089301E+04</pdfrwt>
<pdfrwt beam="2">  1       -2 0.14813134E+00 0.11089301E+04</pdfrwt>
<totfact> 0.49769736E+00</totfact>
</mgrwt>
</event>
<event>
 4    1  0.5223852E-007  0.6636025E+03  0.7818608E-02  0.1020736E+00
          2   -1    0    0  501    0  0.00000000000E+00  0.00000000000E+00  0.15685932058E+04  0.15685932058E+04  0.25500000000E-02 0. -1.
         -2   -1    0    0    0  501 -0.00000000000E+00 -0.00000000000E+00 -0.12116652959E+03  0.12116652961E+03  0.25500000000E-02 0.  1.
    8880023    1    1    2    0    0 -0.53611840294E+02 -0.60694852450E+02  0.91779262123E+03  0.11325685835E+04  0.65864270000E+03 0.  1.
    8880022    1    1    2    0    0  0.53611840294E+02  0.60694852450E+02  0.52963405498E+03  0.55719115189E+03  0.15294330000E+03 0.  0.
<mgrwt>
<rscale>  0 0.47422033E+03</rscale>
<asrwt>0</asrwt>
<pdfrwt beam="1">  1        2 0.24132202E+00 0.66360252E+03</pdfrwt>
<pdfrwt beam="2">  1       -2 0.18641006E-01 0.66360252E+03</pdfrwt>
<totfact> 0.28614896E+02</totfact>
</mgrwt>
</event>
<event>
 4    1  0.5223852E-007  0.6611543E+03  0.7818608E-02  0.1023004E+00
         -2   -1    0    0    0  501 -0.00000000000E+00  0.00000000000E+00  0.60368285643E+03  0.60368285643E+03  0.25500000000E-02 0.  1.
          2   -1    0    0  501    0  0.00000000000E+00 -0.00000000000E+00 -0.20104710077E+04  0.20104710077E+04  0.25500000000E-02 0. -1.
    8880023    1    1    2    0    0  0.52366290312E+02 -0.23927505474E+02  0.41790518940E+03  0.78215708619E+03  0.65864270000E+03 0.  0.
    8880022    1    1    2    0    0 -0.52366290312E+02  0.23927505474E+02 -0.18246933407E+04  0.18319967779E+04  0.15294330000E+03 0. -1.
<mgrwt>
<rscale>  0 0.46618043E+03</rscale>
<asrwt>0</asrwt>
<pdfrwt beam="1">  1        2 0.30930323E+00 0.66115426E+03</pdfrwt>
<pdfrwt beam="2">  1       -2 0.92874287E-01 0.66115426E+03</pdfrwt>
<totfact> 0.68132334E+00</totfact>
</mgrwt>
</event>
<event>
 4    1  0.5223852E-007  0.8287480E+03  0.7818608E-02  0.9651773E-01
          2   -1    0    0  501    0  0.00000000000E+00  0.00000000000E+00  0.25944373145E+04  0.25944373145E+04  0.25500000000E-02 0. -1.
         -2   -1    0    0    0  501 -0.00000000000E+00 -0.00000000000E+00 -0.56326666507E+03  0.56326666507E+03  0.25500000000E-02 0.  1.
    8880023    1    1    2    0    0  0.50677366454E+02 -0.50044457894E+03 -0.21061779041E+03  0.85509241136E+03  0.65864270000E+03 0.  1.
    8880022    1    1    2    0    0 -0.50677366454E+02  0.50044457894E+03  0.22417884398E+04  0.23026115682E+04  0.15294330000E+03 0.  0.
<mgrwt>
<rscale>  0 0.73962233E+03</rscale>
<asrwt>0</asrwt>
<pdfrwt beam="1">  1        2 0.39914420E+00 0.82874796E+03</pdfrwt>
<pdfrwt beam="2">  1       -2 0.86656411E-01 0.82874796E+03</pdfrwt>
<totfact> 0.36709384E+00</totfact>
</mgrwt>
</event>
<event>
 4    1  0.5223852E-007  0.6723420E+03  0.7818608E-02  0.1014037E+00
         -2   -1    0    0    0  501 -0.00000000000E+00  0.00000000000E+00  0.12397604659E+03  0.12397604662E+03  0.25500000000E-02 0.  1.
          2   -1    0    0  501    0  0.00000000000E+00 -0.00000000000E+00 -0.17288232440E+04  0.17288232440E+04  0.25500000000E-02 0. -1.
    8880023    1    1    2    0    0  0.10350253896E+03  0.86722089202E+02 -0.92861172422E+03  0.11464569058E+04  0.65864270000E+03 0.  0.
    8880022    1    1    2    0    0 -0.10350253896E+03 -0.86722089202E+02 -0.67623547315E+03  0.70634238475E+03  0.15294330000E+03 0.  0.
<mgrwt>
<rscale>  0 0.49901332E+03</rscale>
<asrwt>0</asrwt>
<pdfrwt beam="1">  1        2 0.26597279E+00 0.67234195E+03</pdfrwt>
<pdfrwt beam="2">  1       -2 0.19073239E-01 0.67234195E+03</pdfrwt>
<totfact> 0.22457232E+02</totfact>
</mgrwt>
</event>
<event>
 4    1  0.5223852E-007  0.7485989E+03  0.7818608E-02  0.9835572E-01
         -2   -1    0    0    0  501 -0.00000000000E+00  0.00000000000E+00  0.14053549263E+03  0.14053549266E+03  0.25500000000E-02 0.  1.
          2   -1    0    0  501    0  0.00000000000E+00 -0.00000000000E+00 -0.33407408972E+04  0.33407408972E+04  0.25500000000E-02 0. -1.
    8880023    1    1    2    0    0  0.17857372663E+03 -0.30773610789E+03 -0.10104644170E+04  0.12575526360E+04  0.65864270000E+03 0.  0.
    8880022    1    1    2    0    0 -0.17857372663E+03  0.30773610789E+03 -0.21897409876E+04  0.22237237539E+04  0.15294330000E+03 0.  0.
<mgrwt>
<rscale>  0 0.63488005E+03</rscale>
<asrwt>0</asrwt>
<pdfrwt beam="1">  1        2 0.51396008E+00 0.74859889E+03</pdfrwt>
<pdfrwt beam="2">  1       -2 0.21620848E-01 0.74859889E+03</pdfrwt>
<totfact> 0.20827703E+01</totfact>
</mgrwt>
</event>
<event>
 4    1  0.5223852E-007  0.8580108E+03  0.7818608E-02  0.9597112E-01
         -2   -1    0    0    0  501 -0.00000000000E+00  0.00000000000E+00  0.61087724786E+03  0.61087724786E+03  0.25500000000E-02 0.  1.
          2   -1    0    0  501    0  0.00000000000E+00 -0.00000000000E+00 -0.27371910725E+04  0.27371910725E+04  0.25500000000E-02 0. -1.
    8880023    1    1    2    0    0  0.52339136727E+03 -0.16862334638E+03  0.25834174286E+03  0.89605971824E+03  0.65864270000E+03 0.  1.
    8880022    1    1    2    0    0 -0.52339136727E+03  0.16862334638E+03 -0.23846555675E+04  0.24520086021E+04  0.15294330000E+03 0.  0.
<mgrwt>
<rscale>  0 0.77487645E+03</rscale>
<asrwt>0</asrwt>
<pdfrwt beam="1">  1        2 0.42110631E+00 0.85801082E+03</pdfrwt>
<pdfrwt beam="2">  1       -2 0.93981116E-01 0.85801082E+03</pdfrwt>
<totfact> 0.25007852E+00</totfact>
</mgrwt>
</event>
<event>
 4    1  0.5223852E-007  0.8283693E+03  0.7818608E-02  0.9652514E-01
         -2   -1    0    0    0  501 -0.00000000000E+00  0.00000000000E+00  0.53124550489E+03  0.53124550490E+03  0.25500000000E-02 0.  1.
          2   -1    0    0  501    0  0.00000000000E+00 -0.00000000000E+00 -0.95065793796E+03  0.95065793796E+03  0.25500000000E-02 0. -1.
    8880023    1    1    2    0    0  0.31029089205E+03  0.39510139365E+03 -0.31401721417E+02  0.82896430763E+03  0.65864270000E+03 0.  0.
    8880022    1    1    2    0    0 -0.31029089205E+03 -0.39510139365E+03 -0.38801071165E+03  0.65293913523E+03  0.15294330000E+03 0.  0.
<mgrwt>
<rscale>  0 0.73915889E+03</rscale>
<asrwt>0</asrwt>
<pdfrwt beam="1">  1        2 0.14625507E+00 0.82836934E+03</pdfrwt>
<pdfrwt beam="2">  1       -2 0.81730078E-01 0.82836934E+03</pdfrwt>
<totfact> 0.36029497E+01</totfact>
</mgrwt>
</event>
<event>
 4    1  0.9846704E-007  0.1068785E+04  0.7818608E-02  0.9296633E-01
         -2   -1    0    0    0  501 -0.00000000000E+00  0.00000000000E+00  0.14820742140E+04  0.14820742140E+04  0.25500000000E-02 0.  1.
          2   -1    0    0  501    0  0.00000000000E+00 -0.00000000000E+00 -0.17609518407E+04  0.17609518407E+04  0.25500000000E-02 0. -1.
    8880023    1    1    2    0    0 -0.83940352934E+03 -0.62393725396E+02  0.11548080558E+04  0.15734939193E+04  0.65864270000E+03 0.  0.
    8880022    1    1    2    0    0  0.83940352934E+03  0.62393725396E+02 -0.14336856825E+04  0.16695321354E+04  0.15294330000E+03 0.  0.
<mgrwt>
<rscale>  0 0.10109344E+04</rscale>
<asrwt>0</asrwt>
<pdfrwt beam="1">  1        2 0.27091567E+00 0.10687850E+04</pdfrwt>
<pdfrwt beam="2">  1       -2 0.22801142E+00 0.10687850E+04</pdfrwt>
<totfact> 0.78849730E-01</totfact>
</mgrwt>
</event>
<event>
 4    1  0.5223852E-007  0.1449261E+04  0.7818608E-02  0.8946321E-01
          2   -1    0    0  501    0  0.00000000000E+00  0.00000000000E+00  0.10533625575E+04  0.10533625575E+04  0.25500000000E-02 0. -1.
         -2   -1    0    0    0  501 -0.00000000000E+00 -0.00000000000E+00 -0.22517437338E+04  0.22517437338E+04  0.25500000000E-02 0.  1.
    8880023    1    1    2    0    0 -0.44472758300E+03  0.12119259748E+04 -0.13694424975E+04  0.19939233064E+04  0.65864270000E+03 0.  0.
    8880022    1    1    2    0    0  0.44472758300E+03 -0.12119259748E+04  0.17106132115E+03  0.13111829849E+04  0.15294330000E+03 0.  0.
<mgrwt>
<rscale>  0 0.14104050E+04</rscale>
<asrwt>0</asrwt>
<pdfrwt beam="1">  1        2 0.16205578E+00 0.14492610E+04</pdfrwt>
<pdfrwt beam="2">  1       -2 0.34642211E+00 0.14492610E+04</pdfrwt>
<totfact> 0.36390617E-01</totfact>
</mgrwt>
</event>
<event>
 4    1  0.5223852E-007  0.9202808E+03  0.7818608E-02  0.9494229E-01
         -2   -1    0    0    0  501 -0.00000000000E+00  0.00000000000E+00  0.89444209782E+03  0.89444209783E+03  0.25500000000E-02 0.  1.
          2   -1    0    0  501    0  0.00000000000E+00 -0.00000000000E+00 -0.83454207748E+03  0.83454207749E+03  0.25500000000E-02 0. -1.
    8880023    1    1    2    0    0 -0.42034469694E+03  0.48622716587E+03 -0.31088046464E+03  0.97137191160E+03  0.65864270000E+03 0. -1.
    8880022    1    1    2    0    0  0.42034469694E+03 -0.48622716587E+03  0.37078048498E+03  0.75761226372E+03  0.15294330000E+03 0.  0.
<mgrwt>
<rscale>  0 0.84710661E+03</rscale>
<asrwt>0</asrwt>
<pdfrwt beam="1">  1        2 0.12839109E+00 0.92028079E+03</pdfrwt>
<pdfrwt beam="2">  1       -2 0.13760648E+00 0.92028079E+03</pdfrwt>
<totfact> 0.12209471E+01</totfact>
</mgrwt>
</event>
<event>
 4    1  0.5223852E-007  0.8490684E+03  0.7818608E-02  0.9613312E-01
         -2   -1    0    0    0  501 -0.00000000000E+00  0.00000000000E+00  0.13250563552E+04  0.13250563552E+04  0.25500000000E-02 0.  1.
          2   -1    0    0  501    0  0.00000000000E+00 -0.00000000000E+00 -0.87300881402E+03  0.87300881402E+03  0.25500000000E-02 0. -1.
    8880023    1    1    2    0    0 -0.53558048675E+03  0.16138170901E+02  0.10700209727E+04  0.13659655877E+04  0.65864270000E+03 0.  1.
    8880022    1    1    2    0    0  0.53558048675E+03 -0.16138170901E+02 -0.61797343161E+03  0.83209958150E+03  0.15294330000E+03 0.  0.
<mgrwt>
<rscale>  0 0.76421304E+03</rscale>
<asrwt>0</asrwt>
<pdfrwt beam="1">  1        2 0.13430905E+00 0.84906837E+03</pdfrwt>
<pdfrwt beam="2">  1       -2 0.20385482E+00 0.84906837E+03</pdfrwt>
<totfact> 0.38775388E+00</totfact>
</mgrwt>
</event>
<event>
 4    1  0.5223852E-007  0.8491967E+03  0.7818608E-02  0.9613077E-01
         -2   -1    0    0    0  501 -0.00000000000E+00  0.00000000000E+00  0.17653588680E+04  0.17653588680E+04  0.25500000000E-02 0.  1.
          2   -1    0    0  501    0  0.00000000000E+00 -0.00000000000E+00 -0.10056614788E+04  0.10056614788E+04  0.25500000000E-02 0. -1.
    8880023    1    1    2    0    0 -0.53548975625E+03  0.23991494950E+02  0.15715001525E+04  0.17862664433E+04  0.65864270000E+03 0.  1.
    8880022    1    1    2    0    0  0.53548975625E+03 -0.23991494950E+02 -0.81180276335E+03  0.98475390351E+03  0.15294330000E+03 0.  0.
<mgrwt>
<rscale>  0 0.76436673E+03</rscale>
<asrwt>0</asrwt>
<pdfrwt beam="1">  1        2 0.15471715E+00 0.84919672E+03</pdfrwt>
<pdfrwt beam="2">  1       -2 0.27159367E+00 0.84919672E+03</pdfrwt>
<totfact> 0.12096941E+00</totfact>
</mgrwt>
</event>
<event>
 4    1  0.5223852E-007  0.6786521E+03  0.7818608E-02  0.1010097E+00
         -2   -1    0    0    0  501 -0.00000000000E+00  0.00000000000E+00  0.10358370589E+03  0.10358370593E+03  0.25500000000E-02 0.  1.
          2   -1    0    0  501    0  0.00000000000E+00 -0.00000000000E+00 -0.19795666208E+04  0.19795666208E+04  0.25500000000E-02 0. -1.
    8880023    1    1    2    0    0  0.12361231366E+03 -0.10713756473E+03 -0.14812924824E+04  0.16293545000E+04  0.65864270000E+03 0.  1.
    8880022    1    1    2    0    0 -0.12361231366E+03  0.10713756473E+03 -0.39469043248E+03  0.45379582675E+03  0.15294330000E+03 0. -1.
<mgrwt>
<rscale>  0 0.51436261E+03</rscale>
<asrwt>0</asrwt>
<pdfrwt beam="1">  1        2 0.30454868E+00 0.67865210E+03</pdfrwt>
<pdfrwt beam="2">  1       -2 0.15935956E-01 0.67865210E+03</pdfrwt>
<totfact> 0.22329585E+02</totfact>
</mgrwt>
</event>
<event>
 4    1  0.5223852E-007  0.7103752E+03  0.7818608E-02  0.9956610E-01
         -2   -1    0    0    0  501 -0.00000000000E+00  0.00000000000E+00  0.16913750777E+03  0.16913750779E+03  0.25500000000E-02 0.  1.
          2   -1    0    0  501    0  0.00000000000E+00 -0.00000000000E+00 -0.15655261838E+04  0.15655261838E+04  0.25500000000E-02 0. -1.
    8880023    1    1    2    0    0  0.23825328174E+02 -0.26505675055E+03 -0.84808360322E+03  0.11062905277E+04  0.65864270000E+03 0.  1.
    8880022    1    1    2    0    0 -0.23825328174E+02  0.26505675055E+03 -0.54830507281E+03  0.62837316394E+03  0.15294330000E+03 0.  1.
<mgrwt>
<rscale>  0 0.57594431E+03</rscale>
<asrwt>0</asrwt>
<pdfrwt beam="1">  1        2 0.24085017E+00 0.71037521E+03</pdfrwt>
<pdfrwt beam="2">  1       -2 0.26021156E-01 0.71037521E+03</pdfrwt>
<totfact> 0.15852494E+02</totfact>
</mgrwt>
</event>
<event>
 4    1  0.5223852E-007  0.7695987E+03  0.7818608E-02  0.9780863E-01
         -2   -1    0    0    0  501 -0.00000000000E+00  0.00000000000E+00  0.83480965138E+03  0.83480965138E+03  0.25500000000E-02 0.  1.
          2   -1    0    0  501    0  0.00000000000E+00 -0.00000000000E+00 -0.67969543790E+03  0.67969543791E+03  0.25500000000E-02 0. -1.
    8880023    1    1    2    0    0 -0.14734031027E+03  0.36981452989E+03  0.53991815840E+03  0.94010306753E+03  0.65864270000E+03 0.  1.
    8880022    1    1    2    0    0  0.14734031027E+03 -0.36981452989E+03 -0.38480394492E+03  0.57440202176E+03  0.15294330000E+03 0.  0.
<mgrwt>
<rscale>  0 0.66399754E+03</rscale>
<asrwt>0</asrwt>
<pdfrwt beam="1">  1        2 0.10456853E+00 0.76959870E+03</pdfrwt>
<pdfrwt beam="2">  1       -2 0.12843225E+00 0.76959870E+03</pdfrwt>
<totfact> 0.19273930E+01</totfact>
</mgrwt>
</event>
<event>
 4    1  0.5223852E-007  0.8953849E+03  0.7818608E-02  0.9533481E-01
         -2   -1    0    0    0  501 -0.00000000000E+00  0.00000000000E+00  0.49080717996E+03  0.49080717997E+03  0.25500000000E-02 0.  1.
          2   -1    0    0  501    0  0.00000000000E+00 -0.00000000000E+00 -0.17125679072E+04  0.17125679072E+04  0.25500000000E-02 0. -1.
    8880023    1    1    2    0    0 -0.41371190412E+03 -0.44356104147E+03 -0.76791287585E+02  0.89867182288E+03  0.65864270000E+03 0.  0.
    8880022    1    1    2    0    0  0.41371190412E+03  0.44356104147E+03 -0.11449694397E+04  0.13047032643E+04  0.15294330000E+03 0.  0.
<mgrwt>
<rscale>  0 0.81859757E+03</rscale>
<asrwt>0</asrwt>
<pdfrwt beam="1">  1        2 0.26347198E+00 0.89538491E+03</pdfrwt>
<pdfrwt beam="2">  1       -2 0.75508798E-01 0.89538491E+03</pdfrwt>
<totfact> 0.15335973E+01</totfact>
</mgrwt>
</event>
<event>
 4    1  0.5223852E-007  0.7027428E+03  0.7818608E-02  0.9986008E-01
         -2   -1    0    0    0  501 -0.00000000000E+00  0.00000000000E+00  0.62485452003E+02  0.62485452055E+02  0.25500000000E-02 0.  1.
          2   -1    0    0  501    0  0.00000000000E+00 -0.00000000000E+00 -0.39440086558E+04  0.39440086558E+04  0.25500000000E-02 0. -1.
    8880023    1    1    2    0    0 -0.16410451356E+03  0.18195331974E+03 -0.26564493642E+04  0.27478301863E+04  0.65864270000E+03 0.  1.
    8880022    1    1    2    0    0  0.16410451356E+03 -0.18195331974E+03 -0.12250738396E+04  0.12586639216E+04  0.15294330000E+03 0. -1.
<mgrwt>
<rscale>  0 0.56268058E+03</rscale>
<asrwt>0</asrwt>
<pdfrwt beam="1">  1        2 0.60677037E+00 0.70274285E+03</pdfrwt>
<pdfrwt beam="2">  1       -2 0.96131496E-02 0.70274285E+03</pdfrwt>
<totfact> 0.30751099E+01</totfact>
</mgrwt>
</event>
<event>
 4    1  0.5223852E-007  0.1015842E+04  0.7818608E-02  0.9361119E-01
          2   -1    0    0  501    0  0.00000000000E+00  0.00000000000E+00  0.87533520672E+03  0.87533520672E+03  0.25500000000E-02 0. -1.
         -2   -1    0    0    0  501 -0.00000000000E+00 -0.00000000000E+00 -0.10859341336E+04  0.10859341336E+04  0.25500000000E-02 0.  1.
    8880023    1    1    2    0    0  0.76770240990E+03  0.93582578580E+02  0.25276595195E+03  0.10468168521E+04  0.65864270000E+03 0.  1.
    8880022    1    1    2    0    0 -0.76770240990E+03 -0.93582578580E+02 -0.46336487881E+03  0.91445248817E+03  0.15294330000E+03 0. -1.
<mgrwt>
<rscale>  0 0.95345715E+03</rscale>
<asrwt>0</asrwt>
<pdfrwt beam="1">  1        2 0.13466695E+00 0.10158420E+04</pdfrwt>
<pdfrwt beam="2">  1       -2 0.16706679E+00 0.10158420E+04</pdfrwt>
<totfact> 0.67503038E+00</totfact>
</mgrwt>
</event>
<event>
 4    1  0.5223852E-007  0.7479527E+03  0.7818608E-02  0.9837359E-01
          2   -1    0    0  501    0  0.00000000000E+00  0.00000000000E+00  0.97221509504E+03  0.97221509505E+03  0.25500000000E-02 0. -1.
         -2   -1    0    0    0  501 -0.00000000000E+00 -0.00000000000E+00 -0.48003665459E+03  0.48003665460E+03  0.25500000000E-02 0.  1.
    8880023    1    1    2    0    0  0.32264901047E+03 -0.14669921969E+03 -0.90390347182E+02  0.75339476116E+03  0.65864270000E+03 0.  0.
    8880022    1    1    2    0    0 -0.32264901047E+03  0.14669921969E+03  0.58256878763E+03  0.69885698849E+03  0.15294330000E+03 0.  0.
<mgrwt>
<rscale>  0 0.63395618E+03</rscale>
<asrwt>0</asrwt>
<pdfrwt beam="1">  1        2 0.14957155E+00 0.74795271E+03</pdfrwt>
<pdfrwt beam="2">  1       -2 0.73851794E-01 0.74795271E+03</pdfrwt>
<totfact> 0.44056607E+01</totfact>
</mgrwt>
</event>
<event>
 4    1  0.5223852E-007  0.6799063E+03  0.7818608E-02  0.1009377E+00
         -2   -1    0    0    0  501 -0.00000000000E+00  0.00000000000E+00  0.38434179139E+03  0.38434179140E+03  0.25500000000E-02 0.  1.
          2   -1    0    0  501    0  0.00000000000E+00 -0.00000000000E+00 -0.95569716362E+03  0.95569716362E+03  0.25500000000E-02 0. -1.
    8880023    1    1    2    0    0 -0.14680223435E+03  0.83135515575E+02  0.46561376215E+02  0.68149877328E+03  0.65864270000E+03 0.  0.
    8880022    1    1    2    0    0  0.14680223435E+03 -0.83135515575E+02 -0.61791674844E+03  0.65854018175E+03  0.15294330000E+03 0.  0.
<mgrwt>
<rscale>  0 0.51723114E+03</rscale>
<asrwt>0</asrwt>
<pdfrwt beam="1">  1        2 0.14703033E+00 0.67990633E+03</pdfrwt>
<pdfrwt beam="2">  1       -2 0.59129506E-01 0.67990633E+03</pdfrwt>
<totfact> 0.73341914E+01</totfact>
</mgrwt>
</event>
<event>
 4    1  0.5223852E-007  0.8392899E+03  0.7818608E-02  0.9631521E-01
         -2   -1    0    0    0  501 -0.00000000000E+00  0.00000000000E+00  0.17719904579E+04  0.17719904579E+04  0.25500000000E-02 0.  1.
          2   -1    0    0  501    0  0.00000000000E+00 -0.00000000000E+00 -0.71900190466E+03  0.71900190467E+03  0.25500000000E-02 0. -1.
    8880023    1    1    2    0    0 -0.15129487158E+03 -0.49770188562E+03  0.15453748172E+04  0.17585763666E+04  0.65864270000E+03 0.  0.
    8880022    1    1    2    0    0  0.15129487158E+03  0.49770188562E+03 -0.49238626402E+03  0.73241599595E+03  0.15294330000E+03 0.  0.
<mgrwt>
<rscale>  0 0.75244605E+03</rscale>
<asrwt>0</asrwt>
<pdfrwt beam="1">  1        2 0.11061568E+00 0.83928989E+03</pdfrwt>
<pdfrwt beam="2">  1       -2 0.27261391E+00 0.83928989E+03</pdfrwt>
<totfact> 0.18912346E+00</totfact>
</mgrwt>
</event>
<event>
 4    1  0.5223852E-007  0.9242622E+03  0.7818608E-02  0.9488154E-01
         -2   -1    0    0    0  501 -0.00000000000E+00  0.00000000000E+00  0.13164157512E+04  0.13164157512E+04  0.25500000000E-02 0.  1.
          2   -1    0    0  501    0  0.00000000000E+00 -0.00000000000E+00 -0.74616634307E+03  0.74616634307E+03  0.25500000000E-02 0. -1.
    8880023    1    1    2    0    0 -0.56000632548E+03  0.32686895338E+03  0.92515118259E+03  0.13077328910E+04  0.65864270000E+03 0.  0.
    8880022    1    1    2    0    0  0.56000632548E+03 -0.32686895338E+03 -0.35490177442E+03  0.75484920333E+03  0.15294330000E+03 0.  0.
<mgrwt>
<rscale>  0 0.85162803E+03</rscale>
<asrwt>0</asrwt>
<pdfrwt beam="1">  1        2 0.11479482E+00 0.92426219E+03</pdfrwt>
<pdfrwt beam="2">  1       -2 0.20252550E+00 0.92426219E+03</pdfrwt>
<totfact> 0.48380112E+00</totfact>
</mgrwt>
</event>
<event>
 4    1  0.5223852E-007  0.1060657E+04  0.7818608E-02  0.9306178E-01
         -2   -1    0    0    0  501 -0.00000000000E+00  0.00000000000E+00  0.20104048098E+04  0.20104048098E+04  0.25500000000E-02 0.  1.
          2   -1    0    0  501    0  0.00000000000E+00 -0.00000000000E+00 -0.52133224183E+03  0.52133224184E+03  0.25500000000E-02 0. -1.
    8880023    1    1    2    0    0 -0.45123177111E+03  0.69826469328E+03  0.12773388917E+04  0.16602977274E+04  0.65864270000E+03 0.  0.
    8880022    1    1    2    0    0  0.45123177111E+03 -0.69826469328E+03  0.21173367628E+03  0.87143932424E+03  0.15294330000E+03 0.  0.
<mgrwt>
<rscale>  0 0.10021606E+04</rscale>
<asrwt>0</asrwt>
<pdfrwt beam="1">  1        2 0.80204960E-01 0.10606573E+04</pdfrwt>
<pdfrwt beam="2">  1       -2 0.30929305E+00 0.10606573E+04</pdfrwt>
<totfact> 0.16364368E+00</totfact>
</mgrwt>
</event>
<event>
 4    1  0.5223852E-007  0.7278958E+03  0.7818608E-02  0.9896722E-01
          2   -1    0    0  501    0  0.00000000000E+00  0.00000000000E+00  0.44316401133E+03  0.44316401133E+03  0.25500000000E-02 0. -1.
         -2   -1    0    0    0  501 -0.00000000000E+00 -0.00000000000E+00 -0.18799015999E+04  0.18799015999E+04  0.25500000000E-02 0.  1.
    8880023    1    1    2    0    0  0.27207564703E+03 -0.14831378731E+03 -0.17254922026E+04  0.18727401541E+04  0.65864270000E+03 0.  1.
    8880022    1    1    2    0    0 -0.27207564703E+03  0.14831378731E+03  0.28875461404E+03  0.45032545715E+03  0.15294330000E+03 0.  0.
<mgrwt>
<rscale>  0 0.60420419E+03</rscale>
<asrwt>0</asrwt>
<pdfrwt beam="1">  1        2 0.68179080E-01 0.72789583E+03</pdfrwt>
<pdfrwt beam="2">  1       -2 0.28921563E+00 0.72789583E+03</pdfrwt>
<totfact> 0.27276341E+00</totfact>
</mgrwt>
</event>
<event>
 4    1  0.5223852E-007  0.6831922E+03  0.7818608E-02  0.1007573E+00
         -2   -1    0    0    0  501 -0.00000000000E+00  0.00000000000E+00  0.11918711434E+03  0.11918711437E+03  0.25500000000E-02 0.  1.
          2   -1    0    0  501    0  0.00000000000E+00 -0.00000000000E+00 -0.22936131082E+04  0.22936131082E+04  0.25500000000E-02 0. -1.
    8880023    1    1    2    0    0 -0.83688939768E+02  0.16105146547E+03 -0.20129632571E+04  0.21257405048E+04  0.65864270000E+03 0. -1.
    8880022    1    1    2    0    0  0.83688939768E+02 -0.16105146547E+03 -0.16146273675E+03  0.28705971773E+03  0.15294330000E+03 0.  0.
<mgrwt>
<rscale>  0 0.52450860E+03</rscale>
<asrwt>0</asrwt>
<pdfrwt beam="1">  1        2 0.35286352E+00 0.68319223E+03</pdfrwt>
<pdfrwt beam="2">  1       -2 0.18336481E-01 0.68319223E+03</pdfrwt>
<totfact> 0.11809357E+02</totfact>
</mgrwt>
</event>
<event>
 4    1  0.5223852E-007  0.7511826E+03  0.7818608E-02  0.9828494E-01
         -2   -1    0    0    0  501 -0.00000000000E+00  0.00000000000E+00  0.18661989655E+03  0.18661989656E+03  0.25500000000E-02 0.  1.
          2   -1    0    0  501    0  0.00000000000E+00 -0.00000000000E+00 -0.24629128713E+04  0.24629128713E+04  0.25500000000E-02 0. -1.
    8880023    1    1    2    0    0 -0.34791859928E+03 -0.97044715879E+02 -0.70560635224E+03  0.10306093145E+04  0.65864270000E+03 0.  1.
    8880022    1    1    2    0    0  0.34791859928E+03  0.97044715879E+02 -0.15706866225E+04  0.16189234534E+04  0.15294330000E+03 0.  0.
<mgrwt>
<rscale>  0 0.63855552E+03</rscale>
<asrwt>0</asrwt>
<pdfrwt beam="1">  1        2 0.37890965E+00 0.75118256E+03</pdfrwt>
<pdfrwt beam="2">  1       -2 0.28710755E-01 0.75118256E+03</pdfrwt>
<totfact> 0.42333719E+01</totfact>
</mgrwt>
</event>
<event>
 4    1  0.5223852E-007  0.7944445E+03  0.7818608E-02  0.9722939E-01
         -2   -1    0    0    0  501 -0.00000000000E+00  0.00000000000E+00  0.53231795187E+03  0.53231795187E+03  0.25500000000E-02 0.  1.
          2   -1    0    0  501    0  0.00000000000E+00 -0.00000000000E+00 -0.12916178193E+04  0.12916178193E+04  0.25500000000E-02 0. -1.
    8880023    1    1    2    0    0  0.40680363818E+03  0.17844514234E+03  0.14247257729E+03  0.80711864704E+03  0.65864270000E+03 0.  1.
    8880022    1    1    2    0    0 -0.40680363818E+03 -0.17844514234E+03 -0.90177244476E+03  0.10168171242E+04  0.15294330000E+03 0.  0.
<mgrwt>
<rscale>  0 0.69667264E+03</rscale>
<asrwt>0</asrwt>
<pdfrwt beam="1">  1        2 0.19871043E+00 0.79444451E+03</pdfrwt>
<pdfrwt beam="2">  1       -2 0.81895070E-01 0.79444451E+03</pdfrwt>
<totfact> 0.22258850E+01</totfact>
</mgrwt>
</event>
<event>
 4    1  0.5223852E-007  0.7885273E+03  0.7818608E-02  0.9736175E-01
          2   -1    0    0  501    0  0.00000000000E+00  0.00000000000E+00  0.86691142360E+03  0.86691142360E+03  0.25500000000E-02 0. -1.
         -2   -1    0    0    0  501 -0.00000000000E+00 -0.00000000000E+00 -0.56928480525E+03  0.56928480526E+03  0.25500000000E-02 0.  1.
    8880023    1    1    2    0    0 -0.37855930446E+03 -0.21132409319E+03 -0.14070961570E+03  0.80098340905E+03  0.65864270000E+03 0.  0.
    8880022    1    1    2    0    0  0.37855930446E+03  0.21132409319E+03  0.43833623405E+03  0.63521281981E+03  0.15294330000E+03 0.  0.
<mgrwt>
<rscale>  0 0.68903221E+03</rscale>
<asrwt>0</asrwt>
<pdfrwt beam="1">  1        2 0.13337099E+00 0.78852725E+03</pdfrwt>
<pdfrwt beam="2">  1       -2 0.87582278E-01 0.78852725E+03</pdfrwt>
<totfact> 0.35149206E+01</totfact>
</mgrwt>
</event>
<event>
 4    1  0.5223852E-007  0.6811674E+03  0.7818608E-02  0.1008671E+00
         -2   -1    0    0    0  501 -0.00000000000E+00  0.00000000000E+00  0.53032610273E+03  0.53032610274E+03  0.25500000000E-02 0.  1.
          2   -1    0    0  501    0  0.00000000000E+00 -0.00000000000E+00 -0.12735771961E+04  0.12735771961E+04  0.25500000000E-02 0. -1.
    8880023    1    1    2    0    0  0.17199273676E+03  0.24441116480E+02  0.29344326958E+03  0.74168593650E+03  0.65864270000E+03 0.  1.
    8880022    1    1    2    0    0 -0.17199273676E+03 -0.24441116480E+02 -0.10366943629E+04  0.10622173623E+04  0.15294330000E+03 0.  0.
<mgrwt>
<rscale>  0 0.52006322E+03</rscale>
<asrwt>0</asrwt>
<pdfrwt beam="1">  1        2 0.19593495E+00 0.68116744E+03</pdfrwt>
<pdfrwt beam="2">  1       -2 0.81588632E-01 0.68116744E+03</pdfrwt>
<totfact> 0.23294189E+01</totfact>
</mgrwt>
</event>
<event>
 4    1  0.5223852E-007  0.1077460E+04  0.7818608E-02  0.9286577E-01
          2   -1    0    0  501    0  0.00000000000E+00  0.00000000000E+00  0.18373932958E+04  0.18373932958E+04  0.25500000000E-02 0. -1.
         -2   -1    0    0    0  501 -0.00000000000E+00 -0.00000000000E+00 -0.83783158098E+03  0.83783158098E+03  0.25500000000E-02 0.  1.
    8880023    1    1    2    0    0 -0.84882624885E+03 -0.81261114182E+02 -0.29538595158E+03  0.11172163784E+04  0.65864270000E+03 0.  0.
    8880022    1    1    2    0    0  0.84882624885E+03  0.81261114182E+02  0.12949476664E+04  0.15580084984E+04  0.15294330000E+03 0.  0.
<mgrwt>
<rscale>  0 0.10202808E+04</rscale>
<asrwt>0</asrwt>
<pdfrwt beam="1">  1        2 0.28267589E+00 0.10774598E+04</pdfrwt>
<pdfrwt beam="2">  1       -2 0.12889717E+00 0.10774598E+04</pdfrwt>
<totfact> 0.36046135E+00</totfact>
</mgrwt>
</event>
<event>
 4    1  0.5223852E-007  0.7096710E+03  0.7818608E-02  0.9959225E-01
         -2   -1    0    0    0  501 -0.00000000000E+00  0.00000000000E+00  0.46477233209E+03  0.46477233209E+03  0.25500000000E-02 0.  1.
          2   -1    0    0  501    0  0.00000000000E+00 -0.00000000000E+00 -0.90511944783E+03  0.90511944783E+03  0.25500000000E-02 0. -1.
    8880023    1    1    2    0    0  0.25721164079E+03  0.60538548110E+02  0.13140021396E+03  0.72173330702E+03  0.65864270000E+03 0.  1.
    8880022    1    1    2    0    0 -0.25721164079E+03 -0.60538548110E+02 -0.57174732970E+03  0.64815847291E+03  0.15294330000E+03 0.  0.
<mgrwt>
<rscale>  0 0.57474894E+03</rscale>
<asrwt>0</asrwt>
<pdfrwt beam="1">  1        2 0.13924915E+00 0.70967102E+03</pdfrwt>
<pdfrwt beam="2">  1       -2 0.71503436E-01 0.70967102E+03</pdfrwt>
<totfact> 0.52539318E+01</totfact>
</mgrwt>
</event>
<event>
 4    1  0.5223852E-007  0.7696924E+03  0.7818608E-02  0.9780632E-01
         -2   -1    0    0    0  501 -0.00000000000E+00  0.00000000000E+00  0.37585759261E+03  0.37585759262E+03  0.25500000000E-02 0.  1.
          2   -1    0    0  501    0  0.00000000000E+00 -0.00000000000E+00 -0.19721220528E+04  0.19721220528E+04  0.25500000000E-02 0. -1.
    8880023    1    1    2    0    0 -0.33286557003E+02  0.39687294956E+03 -0.81163646823E+02  0.77395986769E+03  0.65864270000E+03 0.  1.
    8880022    1    1    2    0    0  0.33286557003E+02 -0.39687294956E+03 -0.15151008134E+04  0.15740197777E+04  0.15294330000E+03 0.  0.
<mgrwt>
<rscale>  0 0.66412393E+03</rscale>
<asrwt>0</asrwt>
<pdfrwt beam="1">  1        2 0.30340339E+00 0.76969237E+03</pdfrwt>
<pdfrwt beam="2">  1       -2 0.57824246E-01 0.76969237E+03</pdfrwt>
<totfact> 0.19980570E+01</totfact>
</mgrwt>
</event>
<event>
 4    1  0.5223852E-007  0.1796527E+04  0.7818608E-02  0.8724460E-01
          2   -1    0    0  501    0  0.00000000000E+00  0.00000000000E+00  0.28787727350E+04  0.28787727350E+04  0.25500000000E-02 0. -1.
         -2   -1    0    0    0  501 -0.00000000000E+00 -0.00000000000E+00 -0.18478646576E+04  0.18478646576E+04  0.25500000000E-02 0.  1.
    8880023    1    1    2    0    0  0.13457950587E+04 -0.99122824446E+03  0.20791342897E+04  0.27477822646E+04  0.65864270000E+03 0.  0.
    8880022    1    1    2    0    0 -0.13457950587E+04  0.99122824446E+03 -0.10482262123E+04  0.19788551281E+04  0.15294330000E+03 0.  0.
<mgrwt>
<rscale>  0 0.17662425E+04</rscale>
<asrwt>0</asrwt>
<pdfrwt beam="1">  1        2 0.44288811E+00 0.17965266E+04</pdfrwt>
<pdfrwt beam="2">  1       -2 0.28428687E+00 0.17965266E+04</pdfrwt>
<totfact> 0.74330642E-02</totfact>
</mgrwt>
</event>
<event>
 4    1  0.5223852E-007  0.6657880E+03  0.7818608E-02  0.1018881E+00
         -2   -1    0    0    0  501 -0.00000000000E+00  0.00000000000E+00  0.74357869447E+03  0.74357869447E+03  0.25500000000E-02 0.  1.
          2   -1    0    0  501    0  0.00000000000E+00 -0.00000000000E+00 -0.29908209893E+03  0.29908209894E+03  0.25500000000E-02 0. -1.
    8880023    1    1    2    0    0 -0.21441346770E+02  0.94887725886E+02  0.52150652307E+03  0.84572020890E+03  0.65864270000E+03 0.  1.
    8880022    1    1    2    0    0  0.21441346770E+02 -0.94887725886E+02 -0.77009927526E+02  0.19694058451E+03  0.15294330000E+03 0.  0.
<mgrwt>
<rscale>  0 0.48092488E+03</rscale>
<asrwt>0</asrwt>
<pdfrwt beam="1">  1        2 0.46012631E-01 0.66578797E+03</pdfrwt>
<pdfrwt beam="2">  1       -2 0.11439672E+00 0.66578797E+03</pdfrwt>
<totfact> 0.66776388E+01</totfact>
</mgrwt>
</event>
<event>
 4    1  0.5223852E-007  0.6587581E+03  0.7818608E-02  0.1025466E+00
         -2   -1    0    0    0  501 -0.00000000000E+00  0.00000000000E+00  0.40047848928E+03  0.40047848929E+03  0.25500000000E-02 0.  1.
          2   -1    0    0  501    0  0.00000000000E+00 -0.00000000000E+00 -0.59353485003E+03  0.59353485003E+03  0.25500000000E-02 0. -1.
    8880023    1    1    2    0    0 -0.11853229816E+02 -0.33965015646E+01  0.97010943090E+02  0.66586287224E+03  0.65864270000E+03 0.  1.
    8880022    1    1    2    0    0  0.11853229816E+02  0.33965015646E+01 -0.29006730384E+03  0.32815046709E+03  0.15294330000E+03 0.  0.
<mgrwt>
<rscale>  0 0.45764507E+03</rscale>
<asrwt>0</asrwt>
<pdfrwt beam="1">  1        2 0.91313054E-01 0.65875811E+03</pdfrwt>
<pdfrwt beam="2">  1       -2 0.61612075E-01 0.65875811E+03</pdfrwt>
<totfact> 0.12501252E+02</totfact>
</mgrwt>
</event>
<event>
 4    1  0.5223852E-007  0.1070548E+04  0.7818608E-02  0.9294578E-01
          2   -1    0    0  501    0  0.00000000000E+00  0.00000000000E+00  0.82873135030E+03  0.82873135030E+03  0.25500000000E-02 0. -1.
         -2   -1    0    0    0  501 -0.00000000000E+00 -0.00000000000E+00 -0.11942701716E+04  0.11942701716E+04  0.25500000000E-02 0.  1.
    8880023    1    1    2    0    0 -0.62893424393E+03 -0.56276530639E+03 -0.44972984133E+03  0.11611762182E+04  0.65864270000E+03 0.  0.
    8880022    1    1    2    0    0  0.62893424393E+03  0.56276530639E+03  0.84191020020E+02  0.86182530372E+03  0.15294330000E+03 0.  0.
<mgrwt>
<rscale>  0 0.10128355E+04</rscale>
<asrwt>0</asrwt>
<pdfrwt beam="1">  1        2 0.12749713E+00 0.10705481E+04</pdfrwt>
<pdfrwt beam="2">  1       -2 0.18373387E+00 0.10705481E+04</pdfrwt>
<totfact> 0.55337302E+00</totfact>
</mgrwt>
</event>
<event>
 4    1  0.5223852E-007  0.8693759E+03  0.7818608E-02  0.9577098E-01
          2   -1    0    0  501    0  0.00000000000E+00  0.00000000000E+00  0.29319377748E+04  0.29319377748E+04  0.25500000000E-02 0. -1.
         -2   -1    0    0    0  501 -0.00000000000E+00 -0.00000000000E+00 -0.20235869935E+03  0.20235869937E+03  0.25500000000E-02 0.  1.
    8880023    1    1    2    0    0 -0.53674516783E+03  0.18414349280E+03  0.11006154460E+04  0.14025579372E+04  0.65864270000E+03 0.  0.
    8880022    1    1    2    0    0  0.53674516783E+03 -0.18414349280E+03  0.16289636295E+04  0.17317385370E+04  0.15294330000E+03 0.  0.
<mgrwt>
<rscale>  0 0.78830690E+03</rscale>
<asrwt>0</asrwt>
<pdfrwt beam="1">  1        2 0.45106730E+00 0.86937587E+03</pdfrwt>
<pdfrwt beam="2">  1       -2 0.31132111E-01 0.86937587E+03</pdfrwt>
<totfact> 0.19067711E+01</totfact>
</mgrwt>
</event>
<event>
 4    1  0.5223852E-007  0.7791129E+03  0.7818608E-02  0.9757925E-01
          2   -1    0    0  501    0  0.00000000000E+00  0.00000000000E+00  0.38498860656E+03  0.38498860657E+03  0.25500000000E-02 0. -1.
         -2   -1    0    0    0  501 -0.00000000000E+00 -0.00000000000E+00 -0.14729479953E+04  0.14729479953E+04  0.25500000000E-02 0.  1.
    8880023    1    1    2    0    0 -0.34764706966E+03 -0.22879740085E+03 -0.11713222983E+04  0.14067739223E+04  0.65864270000E+03 0.  1.
    8880022    1    1    2    0    0  0.34764706966E+03  0.22879740085E+03  0.83362909618E+02  0.45116267952E+03  0.15294330000E+03 0.  0.
<mgrwt>
<rscale>  0 0.67670253E+03</rscale>
<asrwt>0</asrwt>
<pdfrwt beam="1">  1        2 0.59229017E-01 0.77911292E+03</pdfrwt>
<pdfrwt beam="2">  1       -2 0.22660738E+00 0.77911292E+03</pdfrwt>
<totfact> 0.76036489E+00</totfact>
</mgrwt>
</event>
<event>
 4    1  0.5223852E-007  0.8305033E+03  0.7818608E-02  0.9648354E-01
          2   -1    0    0  501    0  0.00000000000E+00  0.00000000000E+00  0.17003012961E+04  0.17003012961E+04  0.25500000000E-02 0. -1.
         -2   -1    0    0    0  501 -0.00000000000E+00 -0.00000000000E+00 -0.50639093917E+03  0.50639093917E+03  0.25500000000E-02 0.  1.
    8880023    1    1    2    0    0 -0.21279199791E+02 -0.50544308120E+03 -0.73257227730E+02  0.83372797743E+03  0.65864270000E+03 0.  1.
    8880022    1    1    2    0    0  0.21279199791E+02  0.50544308120E+03  0.12671675847E+04  0.13729642578E+04  0.15294330000E+03 0.  0.
<mgrwt>
<rscale>  0 0.74176822E+03</rscale>
<asrwt>0</asrwt>
<pdfrwt beam="1">  1        2 0.26158482E+00 0.83050329E+03</pdfrwt>
<pdfrwt beam="2">  1       -2 0.77906297E-01 0.83050329E+03</pdfrwt>
<totfact> 0.14636380E+01</totfact>
</mgrwt>
</event>
<event>
 4    1  0.5223852E-007  0.6630392E+03  0.7818608E-02  0.1021238E+00
          2   -1    0    0  501    0  0.00000000000E+00  0.00000000000E+00  0.50754178003E+03  0.50754178003E+03  0.25500000000E-02 0. -1.
         -2   -1    0    0    0  501 -0.00000000000E+00 -0.00000000000E+00 -0.63281225861E+03  0.63281225861E+03  0.25500000000E-02 0.  1.
    8880023    1    1    2    0    0 -0.56284389916E+02  0.51408697493E+02 -0.43050338508E+03  0.79054042120E+03  0.65864270000E+03 0.  1.
    8880022    1    1    2    0    0  0.56284389916E+02 -0.51408697493E+02  0.30523290650E+03  0.34981361744E+03  0.15294330000E+03 0.  0.
<mgrwt>
<rscale>  0 0.47242383E+03</rscale>
<asrwt>0</asrwt>
<pdfrwt beam="1">  1        2 0.78083351E-01 0.66303921E+03</pdfrwt>
<pdfrwt beam="2">  1       -2 0.97355732E-01 0.66303921E+03</pdfrwt>
<totfact> 0.54198826E+01</totfact>
</mgrwt>
</event>
<event>
 4    1  0.5223852E-007  0.7966651E+03  0.7818608E-02  0.9718054E-01
         -2   -1    0    0    0  501 -0.00000000000E+00  0.00000000000E+00  0.33922746396E+03  0.33922746397E+03  0.25500000000E-02 0.  1.
          2   -1    0    0  501    0  0.00000000000E+00 -0.00000000000E+00 -0.18956337813E+04  0.18956337813E+04  0.25500000000E-02 0. -1.
    8880023    1    1    2    0    0 -0.44031143803E+03 -0.83612059482E+02 -0.23415070431E+03  0.83036250972E+03  0.65864270000E+03 0.  1.
    8880022    1    1    2    0    0  0.44031143803E+03  0.83612059482E+02 -0.13222556131E+04  0.14044987356E+04  0.15294330000E+03 0.  0.
<mgrwt>
<rscale>  0 0.69951988E+03</rscale>
<asrwt>0</asrwt>
<pdfrwt beam="1">  1        2 0.29163596E+00 0.79666514E+03</pdfrwt>
<pdfrwt beam="2">  1       -2 0.52188842E-01 0.79666514E+03</pdfrwt>
<totfact> 0.27121946E+01</totfact>
</mgrwt>
</event>
<event>
 4    1  0.5223852E-007  0.1040194E+04  0.7818608E-02  0.9330764E-01
         -2   -1    0    0    0  501 -0.00000000000E+00  0.00000000000E+00  0.69442035374E+03  0.69442035375E+03  0.25500000000E-02 0.  1.
          2   -1    0    0  501    0  0.00000000000E+00 -0.00000000000E+00 -0.40236101375E+04  0.40236101375E+04  0.25500000000E-02 0. -1.
    8880023    1    1    2    0    0  0.80076629011E+03 -0.83464814830E+02  0.23033220991E+03  0.10653901444E+04  0.65864270000E+03 0.  0.
    8880022    1    1    2    0    0 -0.80076629011E+03  0.83464814830E+02 -0.35595219937E+04  0.36526403468E+04  0.15294330000E+03 0.  0.
<mgrwt>
<rscale>  0 0.97999375E+03</rscale>
<asrwt>0</asrwt>
<pdfrwt beam="1">  1        2 0.61901693E+00 0.10401938E+04</pdfrwt>
<pdfrwt beam="2">  1       -2 0.10683390E+00 0.10401938E+04</pdfrwt>
<totfact> 0.24070450E-01</totfact>
</mgrwt>
</event>
<event>
 4    1  0.5223852E-007  0.7247031E+03  0.7818608E-02  0.9906982E-01
         -2   -1    0    0    0  501 -0.00000000000E+00  0.00000000000E+00  0.75466558070E+03  0.75466558070E+03  0.25500000000E-02 0.  1.
          2   -1    0    0  501    0  0.00000000000E+00 -0.00000000000E+00 -0.15998618679E+04  0.15998618679E+04  0.25500000000E-02 0. -1.
    8880023    1    1    2    0    0 -0.23690143360E+03  0.18778212959E+03  0.55570858325E+03  0.91323964719E+03  0.65864270000E+03 0.  1.
    8880022    1    1    2    0    0  0.23690143360E+03 -0.18778212959E+03 -0.14009048704E+04  0.14412878014E+04  0.15294330000E+03 0.  0.
<mgrwt>
<rscale>  0 0.59924100E+03</rscale>
<asrwt>0</asrwt>
<pdfrwt beam="1">  1        2 0.24613259E+00 0.72470313E+03</pdfrwt>
<pdfrwt beam="2">  1       -2 0.11610240E+00 0.72470313E+03</pdfrwt>
<totfact> 0.66235759E+00</totfact>
</mgrwt>
</event>
<event>
 4    1  0.5223852E-007  0.7669020E+03  0.7818608E-02  0.9787556E-01
          2   -1    0    0  501    0  0.00000000000E+00  0.00000000000E+00  0.19195305297E+04  0.19195305297E+04  0.25500000000E-02 0. -1.
         -2   -1    0    0    0  501 -0.00000000000E+00 -0.00000000000E+00 -0.28365604738E+03  0.28365604739E+03  0.25500000000E-02 0.  1.
    8880023    1    1    2    0    0 -0.31365200026E+03  0.23653955028E+03  0.33712465621E+03  0.83773013328E+03  0.65864270000E+03 0.  0.
    8880022    1    1    2    0    0  0.31365200026E+03 -0.23653955028E+03  0.12987498261E+04  0.13654564438E+04  0.15294330000E+03 0.  0.
<mgrwt>
<rscale>  0 0.66034671E+03</rscale>
<asrwt>0</asrwt>
<pdfrwt beam="1">  1        2 0.29531239E+00 0.76690204E+03</pdfrwt>
<pdfrwt beam="2">  1       -2 0.43639392E-01 0.76690204E+03</pdfrwt>
<totfact> 0.37902352E+01</totfact>
</mgrwt>
</event>
<event>
 4    1  0.5223852E-007  0.9644124E+03  0.7818608E-02  0.9429674E-01
          2   -1    0    0  501    0  0.00000000000E+00  0.00000000000E+00  0.51555376378E+03  0.51555376379E+03  0.25500000000E-02 0. -1.
         -2   -1    0    0    0  501 -0.00000000000E+00 -0.00000000000E+00 -0.18557988904E+04  0.18557988904E+04  0.25500000000E-02 0.  1.
    8880023    1    1    2    0    0  0.62355316094E+03 -0.32781478838E+03 -0.14458830445E+03  0.97519078341E+03  0.65864270000E+03 0.  1.
    8880022    1    1    2    0    0 -0.62355316094E+03  0.32781478838E+03 -0.11956568221E+04  0.13961618707E+04  0.15294330000E+03 0.  0.
<mgrwt>
<rscale>  0 0.89673337E+03</rscale>
<asrwt>0</asrwt>
<pdfrwt beam="1">  1        2 0.79315964E-01 0.96441240E+03</pdfrwt>
<pdfrwt beam="2">  1       -2 0.28550752E+00 0.96441240E+03</pdfrwt>
<totfact> 0.23362910E+00</totfact>
</mgrwt>
</event>
<event>
 4    1  0.5223852E-007  0.8574309E+03  0.7818608E-02  0.9598150E-01
         -2   -1    0    0    0  501 -0.00000000000E+00  0.00000000000E+00  0.49361832671E+03  0.49361832672E+03  0.25500000000E-02 0.  1.
          2   -1    0    0  501    0  0.00000000000E+00 -0.00000000000E+00 -0.18635630721E+04  0.18635630721E+04  0.25500000000E-02 0. -1.
    8880023    1    1    2    0    0  0.41889103359E+03 -0.35483504735E+03  0.17127408125E+02  0.85760198415E+03  0.65864270000E+03 0.  0.
    8880022    1    1    2    0    0 -0.41889103359E+03  0.35483504735E+03 -0.13870721535E+04  0.14995794147E+04  0.15294330000E+03 0.  0.
<mgrwt>
<rscale>  0 0.77418763E+03</rscale>
<asrwt>0</asrwt>
<pdfrwt beam="1">  1        2 0.28670201E+00 0.85743094E+03</pdfrwt>
<pdfrwt beam="2">  1       -2 0.75941282E-01 0.85743094E+03</pdfrwt>
<totfact> 0.12569079E+01</totfact>
</mgrwt>
</event>
<event>
 4    1  0.5223852E-007  0.9465512E+03  0.7818608E-02  0.9455094E-01
         -2   -1    0    0    0  501 -0.00000000000E+00  0.00000000000E+00  0.12893713275E+04  0.12893713275E+04  0.25500000000E-02 0.  1.
          2   -1    0    0  501    0  0.00000000000E+00 -0.00000000000E+00 -0.61309549247E+03  0.61309549247E+03  0.25500000000E-02 0. -1.
    8880023    1    1    2    0    0 -0.59459158239E+03 -0.32956012056E+03  0.74179123351E+03  0.12025861563E+04  0.65864270000E+03 0.  1.
    8880022    1    1    2    0    0  0.59459158239E+03  0.32956012056E+03 -0.65515398496E+02  0.69988066366E+03  0.15294330000E+03 0.  0.
<mgrwt>
<rscale>  0 0.87677124E+03</rscale>
<asrwt>0</asrwt>
<pdfrwt beam="1">  1        2 0.94322385E-01 0.94655123E+03</pdfrwt>
<pdfrwt beam="2">  1       -2 0.19836482E+00 0.94655123E+03</pdfrwt>
<totfact> 0.65802392E+00</totfact>
</mgrwt>
</event>
<event>
 4    1  0.5223852E-007  0.1328605E+04  0.7818608E-02  0.9041243E-01
          2   -1    0    0  501    0  0.00000000000E+00  0.00000000000E+00  0.18198459782E+04  0.18198459782E+04  0.25500000000E-02 0. -1.
         -2   -1    0    0    0  501 -0.00000000000E+00 -0.00000000000E+00 -0.12401692050E+04  0.12401692051E+04  0.25500000000E-02 0.  1.
    8880023    1    1    2    0    0  0.14051062558E+03  0.11452670400E+04  0.11560775907E+04  0.17611659294E+04  0.65864270000E+03 0.  0.
    8880022    1    1    2    0    0 -0.14051062558E+03 -0.11452670400E+04 -0.57640081756E+03  0.12988492539E+04  0.15294330000E+03 0.  0.
<mgrwt>
<rscale>  0 0.12853756E+04</rscale>
<asrwt>0</asrwt>
<pdfrwt beam="1">  1        2 0.27997630E+00 0.13286045E+04</pdfrwt>
<pdfrwt beam="2">  1       -2 0.19079526E+00 0.13286045E+04</pdfrwt>
<totfact> 0.12324349E+00</totfact>
</mgrwt>
</event>
<event>
 4    1  0.5223852E-007  0.7327940E+03  0.7818608E-02  0.9881458E-01
          2   -1    0    0  501    0  0.00000000000E+00  0.00000000000E+00  0.26053824463E+04  0.26053824463E+04  0.25500000000E-02 0. -1.
         -2   -1    0    0    0  501 -0.00000000000E+00 -0.00000000000E+00 -0.13686275275E+03  0.13686275278E+03  0.25500000000E-02 0.  1.
    8880023    1    1    2    0    0 -0.14518602786E+02  0.32088312304E+03  0.10542303588E+04  0.12838958775E+04  0.65864270000E+03 0.  0.
    8880022    1    1    2    0    0  0.14518602786E+02 -0.32088312304E+03  0.14142893347E+04  0.14583493216E+04  0.15294330000E+03 0.  0.
<mgrwt>
<rscale>  0 0.61168394E+03</rscale>
<asrwt>0</asrwt>
<pdfrwt beam="1">  1        2 0.40082808E+00 0.73279395E+03</pdfrwt>
<pdfrwt beam="2">  1       -2 0.21055807E-01 0.73279395E+03</pdfrwt>
<totfact> 0.61538075E+01</totfact>
</mgrwt>
</event>
<event>
 4    1  0.5223852E-007  0.9078611E+03  0.7818608E-02  0.9513528E-01
          2   -1    0    0  501    0  0.00000000000E+00  0.00000000000E+00  0.10811764912E+04  0.10811764912E+04  0.25500000000E-02 0. -1.
         -2   -1    0    0    0  501 -0.00000000000E+00 -0.00000000000E+00 -0.70321787292E+03  0.70321787293E+03  0.25500000000E-02 0.  1.
    8880023    1    1    2    0    0  0.19891462307E+03  0.59231289020E+03 -0.18854907553E+03  0.92723381480E+03  0.65864270000E+03 0.  1.
    8880022    1    1    2    0    0 -0.19891462307E+03 -0.59231289020E+03  0.56650769379E+03  0.85716054932E+03  0.15294330000E+03 0. -1.
<mgrwt>
<rscale>  0 0.83293763E+03</rscale>
<asrwt>0</asrwt>
<pdfrwt beam="1">  1        2 0.16633484E+00 0.90786111E+03</pdfrwt>
<pdfrwt beam="2">  1       -2 0.10818737E+00 0.90786111E+03</pdfrwt>
<totfact> 0.15330060E+01</totfact>
</mgrwt>
</event>
<event>
 4    1  0.5223852E-007  0.1022057E+04  0.7818608E-02  0.9353253E-01
          2   -1    0    0  501    0  0.00000000000E+00  0.00000000000E+00  0.23843182217E+04  0.23843182217E+04  0.25500000000E-02 0. -1.
         -2   -1    0    0    0  501 -0.00000000000E+00 -0.00000000000E+00 -0.43566393136E+03  0.43566393136E+03  0.25500000000E-02 0.  1.
    8880023    1    1    2    0    0 -0.78071950328E+03 -0.35586408178E+02  0.43734413626E+03  0.11116966470E+04  0.65864270000E+03 0.  1.
    8880022    1    1    2    0    0  0.78071950328E+03  0.35586408178E+02  0.15113101541E+04  0.17082855060E+04  0.15294330000E+03 0.  0.
<mgrwt>
<rscale>  0 0.96024673E+03</rscale>
<asrwt>0</asrwt>
<pdfrwt beam="1">  1        2 0.36681819E+00 0.10220565E+04</pdfrwt>
<pdfrwt beam="2">  1       -2 0.67025220E-01 0.10220565E+04</pdfrwt>
<totfact> 0.83459943E+00</totfact>
</mgrwt>
</event>
<event>
 4    1  0.5223852E-007  0.8999089E+03  0.7818608E-02  0.9526178E-01
         -2   -1    0    0    0  501 -0.00000000000E+00  0.00000000000E+00  0.32311091920E+03  0.32311091921E+03  0.25500000000E-02 0.  1.
          2   -1    0    0  501    0  0.00000000000E+00 -0.00000000000E+00 -0.20302208606E+04  0.20302208606E+04  0.25500000000E-02 0. -1.
    8880023    1    1    2    0    0  0.22835014643E+03 -0.56910633222E+03 -0.60986944261E+03  0.10870955570E+04  0.65864270000E+03 0.  0.
    8880022    1    1    2    0    0 -0.22835014643E+03  0.56910633222E+03 -0.10972404988E+04  0.12662362228E+04  0.15294330000E+03 0.  0.
<mgrwt>
<rscale>  0 0.82381043E+03</rscale>
<asrwt>0</asrwt>
<pdfrwt beam="1">  1        2 0.31234166E+00 0.89990889E+03</pdfrwt>
<pdfrwt beam="2">  1       -2 0.49709373E-01 0.89990889E+03</pdfrwt>
<totfact> 0.24984605E+01</totfact>
</mgrwt>
</event>
<event>
 4    1  0.5223852E-007  0.7631673E+03  0.7818608E-02  0.9796976E-01
          2   -1    0    0  501    0  0.00000000000E+00  0.00000000000E+00  0.16286404989E+04  0.16286404989E+04  0.25500000000E-02 0. -1.
         -2   -1    0    0    0  501 -0.00000000000E+00 -0.00000000000E+00 -0.28432910532E+03  0.28432910533E+03  0.25500000000E-02 0.  1.
    8880023    1    1    2    0    0  0.11178082515E+01 -0.38550334579E+03  0.35790965592E+03  0.84292562375E+03  0.65864270000E+03 0.  1.
    8880022    1    1    2    0    0 -0.11178082515E+01  0.38550334579E+03  0.98640173761E+03  0.10700439804E+04  0.15294330000E+03 0.  0.
<mgrwt>
<rscale>  0 0.65525096E+03</rscale>
<asrwt>0</asrwt>
<pdfrwt beam="1">  1        2 0.25056008E+00 0.76316727E+03</pdfrwt>
<pdfrwt beam="2">  1       -2 0.43742938E-01 0.76316727E+03</pdfrwt>
<totfact> 0.54428217E+01</totfact>
</mgrwt>
</event>
<event>
 4    1  0.5223852E-007  0.7092144E+03  0.7818608E-02  0.9960930E-01
          2   -1    0    0  501    0  0.00000000000E+00  0.00000000000E+00  0.11497031020E+04  0.11497031020E+04  0.25500000000E-02 0. -1.
         -2   -1    0    0    0  501 -0.00000000000E+00 -0.00000000000E+00 -0.47780002433E+03  0.47780002434E+03  0.25500000000E-02 0.  1.
    8880023    1    1    2    0    0 -0.76646616710E+01 -0.26289932347E+03 -0.17255869899E+03  0.72990513917E+03  0.65864270000E+03 0.  1.
    8880022    1    1    2    0    0  0.76646616710E+01  0.26289932347E+03  0.84446177664E+03  0.89759798716E+03  0.15294330000E+03 0.  0.
<mgrwt>
<rscale>  0 0.57397086E+03</rscale>
<asrwt>0</asrwt>
<pdfrwt beam="1">  1        2 0.17687740E+00 0.70921436E+03</pdfrwt>
<pdfrwt beam="2">  1       -2 0.73507696E-01 0.70921436E+03</pdfrwt>
<totfact> 0.34656595E+01</totfact>
</mgrwt>
</event>
<event>
 4    1  0.5223852E-007  0.8620640E+03  0.7818608E-02  0.9589902E-01
         -2   -1    0    0    0  501 -0.00000000000E+00  0.00000000000E+00  0.31592011296E+03  0.31592011297E+03  0.25500000000E-02 0.  1.
          2   -1    0    0  501    0  0.00000000000E+00 -0.00000000000E+00 -0.21784318901E+04  0.21784318901E+04  0.25500000000E-02 0. -1.
    8880023    1    1    2    0    0 -0.49520795855E+03 -0.25320589489E+03 -0.45838220361E+03  0.97635475022E+03  0.65864270000E+03 0.  1.
    8880022    1    1    2    0    0  0.49520795855E+03  0.25320589489E+03 -0.14041295735E+04  0.15179972528E+04  0.15294330000E+03 0.  0.
<mgrwt>
<rscale>  0 0.77968122E+03</rscale>
<asrwt>0</asrwt>
<pdfrwt beam="1">  1        2 0.33514336E+00 0.86206401E+03</pdfrwt>
<pdfrwt beam="2">  1       -2 0.48603096E-01 0.86206401E+03</pdfrwt>
<totfact> 0.21766503E+01</totfact>
</mgrwt>
</event>
<event>
 4    1  0.5223852E-007  0.6737754E+03  0.7818608E-02  0.1013089E+00
          2   -1    0    0  501    0  0.00000000000E+00  0.00000000000E+00  0.40529478706E+03  0.40529478707E+03  0.25500000000E-02 0. -1.
         -2   -1    0    0    0  501 -0.00000000000E+00 -0.00000000000E+00 -0.13690873942E+04  0.13690873942E+04  0.25500000000E-02 0.  1.
    8880023    1    1    2    0    0 -0.11707680149E+03  0.80350151866E+02 -0.12500827401E+04  0.14200986542E+04  0.65864270000E+03 0.  1.
    8880022    1    1    2    0    0  0.11707680149E+03 -0.80350151866E+02  0.28629013292E+03  0.35428352710E+03  0.15294330000E+03 0.  0.
<mgrwt>
<rscale>  0 0.50265019E+03</rscale>
<asrwt>0</asrwt>
<pdfrwt beam="1">  1        2 0.62353045E-01 0.67377543E+03</pdfrwt>
<pdfrwt beam="2">  1       -2 0.21062883E+00 0.67377543E+03</pdfrwt>
<totfact> 0.91473418E+00</totfact>
</mgrwt>
</event>
<event>
 4    1  0.5223852E-007  0.8562021E+03  0.7818608E-02  0.9600355E-01
         -2   -1    0    0    0  501 -0.00000000000E+00  0.00000000000E+00  0.41428682707E+03  0.41428682708E+03  0.25500000000E-02 0.  1.
          2   -1    0    0  501    0  0.00000000000E+00 -0.00000000000E+00 -0.18112562774E+04  0.18112562774E+04  0.25500000000E-02 0. -1.
    8880023    1    1    2    0    0  0.22667145807E+03 -0.49788737393E+03 -0.16923111942E+03  0.87276638630E+03  0.65864270000E+03 0.  0.
    8880022    1    1    2    0    0 -0.22667145807E+03  0.49788737393E+03 -0.12277383309E+04  0.13527767181E+04  0.15294330000E+03 0.  0.
<mgrwt>
<rscale>  0 0.77272671E+03</rscale>
<asrwt>0</asrwt>
<pdfrwt beam="1">  1        2 0.27865481E+00 0.85620208E+03</pdfrwt>
<pdfrwt beam="2">  1       -2 0.63736436E-01 0.85620208E+03</pdfrwt>
<totfact> 0.19689015E+01</totfact>
</mgrwt>
</event>
<event>
 4    1  0.5223852E-007  0.1104836E+04  0.7818608E-02  0.9255690E-01
         -2   -1    0    0    0  501 -0.00000000000E+00  0.00000000000E+00  0.10788082669E+04  0.10788082669E+04  0.25500000000E-02 0.  1.
          2   -1    0    0  501    0  0.00000000000E+00 -0.00000000000E+00 -0.18806245279E+04  0.18806245279E+04  0.25500000000E-02 0. -1.
    8880023    1    1    2    0    0 -0.66515357342E+03  0.58687661341E+03  0.62727290349E+03  0.12704861028E+04  0.65864270000E+03 0.  0.
    8880022    1    1    2    0    0  0.66515357342E+03 -0.58687661341E+03 -0.14290891645E+04  0.16889466921E+04  0.15294330000E+03 0.  0.
<mgrwt>
<rscale>  0 0.10496646E+04</rscale>
<asrwt>0</asrwt>
<pdfrwt beam="1">  1        2 0.28932685E+00 0.11048365E+04</pdfrwt>
<pdfrwt beam="2">  1       -2 0.16597050E+00 0.11048365E+04</pdfrwt>
<totfact> 0.17424135E+00</totfact>
</mgrwt>
</event>
<event>
 4    1  0.5223852E-007  0.7910368E+03  0.7818608E-02  0.9730522E-01
          2   -1    0    0  501    0  0.00000000000E+00  0.00000000000E+00  0.21155087646E+04  0.21155087646E+04  0.25500000000E-02 0. -1.
         -2   -1    0    0    0  501 -0.00000000000E+00 -0.00000000000E+00 -0.19455807690E+03  0.19455807692E+03  0.25500000000E-02 0.  1.
    8880023    1    1    2    0    0  0.15242681204E+03 -0.41072512237E+03  0.14321350230E+04  0.16360776234E+04  0.65864270000E+03 0.  0.
    8880022    1    1    2    0    0 -0.15242681204E+03  0.41072512237E+03  0.48881566466E+03  0.67398921817E+03  0.15294330000E+03 0.  0.
<mgrwt>
<rscale>  0 0.69228234E+03</rscale>
<asrwt>0</asrwt>
<pdfrwt beam="1">  1        2 0.32546286E+00 0.79103683E+03</pdfrwt>
<pdfrwt beam="2">  1       -2 0.29932014E-01 0.79103683E+03</pdfrwt>
<totfact> 0.60845308E+01</totfact>
</mgrwt>
</event>
<event>
 4    1  0.5223852E-007  0.6928713E+03  0.7818608E-02  0.1002817E+00
         -2   -1    0    0    0  501 -0.00000000000E+00  0.00000000000E+00  0.21996737312E+03  0.21996737314E+03  0.25500000000E-02 0.  1.
          2   -1    0    0  501    0  0.00000000000E+00 -0.00000000000E+00 -0.29279885807E+04  0.29279885807E+04  0.25500000000E-02 0. -1.
    8880023    1    1    2    0    0  0.80498567221E+02  0.19945022536E+03 -0.35192406162E+03  0.77712364726E+03  0.65864270000E+03 0.  1.
    8880022    1    1    2    0    0 -0.80498567221E+02 -0.19945022536E+03 -0.23560971459E+04  0.23708323065E+04  0.15294330000E+03 0.  0.
<mgrwt>
<rscale>  0 0.54432236E+03</rscale>
<asrwt>0</asrwt>
<pdfrwt beam="1">  1        2 0.45045975E+00 0.69287129E+03</pdfrwt>
<pdfrwt beam="2">  1       -2 0.33841136E-01 0.69287129E+03</pdfrwt>
<totfact> 0.16856416E+01</totfact>
</mgrwt>
</event>
<event>
 4    1  0.5223852E-007  0.7602873E+03  0.7818608E-02  0.9804364E-01
          2   -1    0    0  501    0  0.00000000000E+00  0.00000000000E+00  0.43491362340E+04  0.43491362340E+04  0.25500000000E-02 0. -1.
         -2   -1    0    0    0  501 -0.00000000000E+00 -0.00000000000E+00 -0.11053218434E+03  0.11053218437E+03  0.25500000000E-02 0.  1.
    8880023    1    1    2    0    0  0.58654481307E+02 -0.37521489533E+03  0.14129998231E+04  0.16045576563E+04  0.65864270000E+03 0.  1.
    8880022    1    1    2    0    0 -0.58654481307E+02  0.37521489533E+03  0.28256042265E+04  0.28551107620E+04  0.15294330000E+03 0.  0.
<mgrwt>
<rscale>  0 0.65128856E+03</rscale>
<asrwt>0</asrwt>
<pdfrwt beam="1">  1        2 0.66909786E+00 0.76028730E+03</pdfrwt>
<pdfrwt beam="2">  1       -2 0.17004952E-01 0.76028730E+03</pdfrwt>
<totfact> 0.54187498E+00</totfact>
</mgrwt>
</event>
<event>
 4    1  0.5223852E-007  0.7527697E+03  0.7818608E-02  0.9824199E-01
          2   -1    0    0  501    0  0.00000000000E+00  0.00000000000E+00  0.74164576853E+03  0.74164576854E+03  0.25500000000E-02 0. -1.
         -2   -1    0    0    0  501 -0.00000000000E+00 -0.00000000000E+00 -0.61584048531E+03  0.61584048532E+03  0.25500000000E-02 0.  1.
    8880023    1    1    2    0    0  0.29110740450E+03  0.21933649753E+03 -0.26844807288E+03  0.79920372509E+03  0.65864270000E+03 0.  1.
    8880022    1    1    2    0    0 -0.29110740450E+03 -0.21933649753E+03  0.39425335610E+03  0.55828252876E+03  0.15294330000E+03 0.  0.
<mgrwt>
<rscale>  0 0.64079912E+03</rscale>
<asrwt>0</asrwt>
<pdfrwt beam="1">  1        2 0.11409935E+00 0.75276970E+03</pdfrwt>
<pdfrwt beam="2">  1       -2 0.94744690E-01 0.75276970E+03</pdfrwt>
<totfact> 0.36160121E+01</totfact>
</mgrwt>
</event>
<event>
 4    1  0.5223852E-007  0.1395802E+04  0.7818608E-02  0.8986952E-01
          2   -1    0    0  501    0  0.00000000000E+00  0.00000000000E+00  0.25917582601E+04  0.25917582601E+04  0.25500000000E-02 0. -1.
         -2   -1    0    0    0  501 -0.00000000000E+00 -0.00000000000E+00 -0.80293083325E+03  0.80293083325E+03  0.25500000000E-02 0.  1.
    8880023    1    1    2    0    0  0.11861784328E+04 -0.32777016118E+03  0.24940736307E+03  0.14179093032E+04  0.65864270000E+03 0.  0.
    8880022    1    1    2    0    0 -0.11861784328E+04  0.32777016118E+03  0.15394200638E+04  0.19767797901E+04  0.15294330000E+03 0.  0.
<mgrwt>
<rscale>  0 0.13551328E+04</rscale>
<asrwt>0</asrwt>
<pdfrwt beam="1">  1        2 0.39873204E+00 0.13958018E+04</pdfrwt>
<pdfrwt beam="2">  1       -2 0.12352782E+00 0.13958018E+04</pdfrwt>
<totfact> 0.14587191E+00</totfact>
</mgrwt>
</event>
<event>
 4    1  0.5223852E-007  0.1150077E+04  0.7818608E-02  0.9207248E-01
          2   -1    0    0  501    0  0.00000000000E+00  0.00000000000E+00  0.16307631559E+04  0.16307631559E+04  0.25500000000E-02 0. -1.
         -2   -1    0    0    0  501 -0.00000000000E+00 -0.00000000000E+00 -0.13088154719E+04  0.13088154719E+04  0.25500000000E-02 0.  1.
    8880023    1    1    2    0    0 -0.13395952488E+02  0.94270271636E+03 -0.84826236287E+03  0.14290651159E+04  0.65864270000E+03 0.  1.
    8880022    1    1    2    0    0  0.13395952488E+02 -0.94270271636E+03  0.11702100468E+04  0.15105135119E+04  0.15294330000E+03 0.  0.
<mgrwt>
<rscale>  0 0.10978932E+04</rscale>
<asrwt>0</asrwt>
<pdfrwt beam="1">  1        2 0.25088664E+00 0.11500774E+04</pdfrwt>
<pdfrwt beam="2">  1       -2 0.20135623E+00 0.11500774E+04</pdfrwt>
<totfact> 0.13628192E+00</totfact>
</mgrwt>
</event>
<event>
 4    1  0.5223852E-007  0.7416155E+03  0.7818608E-02  0.9855266E-01
          2   -1    0    0  501    0  0.00000000000E+00  0.00000000000E+00  0.88702303184E+03  0.88702303185E+03  0.25500000000E-02 0. -1.
         -2   -1    0    0    0  501 -0.00000000000E+00 -0.00000000000E+00 -0.62447895589E+03  0.62447895590E+03  0.25500000000E-02 0.  1.
    8880023    1    1    2    0    0  0.76282241705E+02 -0.33221125102E+03 -0.32943407557E+03  0.81149264452E+03  0.65864270000E+03 0.  0.
    8880022    1    1    2    0    0 -0.76282241705E+02  0.33221125102E+03  0.59197815152E+03  0.70000934322E+03  0.15294330000E+03 0.  0.
<mgrwt>
<rscale>  0 0.62479137E+03</rscale>
<asrwt>0</asrwt>
<pdfrwt beam="1">  1        2 0.13646508E+00 0.74161547E+03</pdfrwt>
<pdfrwt beam="2">  1       -2 0.96073686E-01 0.74161547E+03</pdfrwt>
<totfact> 0.27594574E+01</totfact>
</mgrwt>
</event>
<event>
 4    1  0.5223852E-007  0.1190966E+04  0.7818608E-02  0.9165955E-01
          2   -1    0    0  501    0  0.00000000000E+00  0.00000000000E+00  0.17212004789E+04  0.17212004789E+04  0.25500000000E-02 0. -1.
         -2   -1    0    0    0  501 -0.00000000000E+00 -0.00000000000E+00 -0.72177211388E+03  0.72177211389E+03  0.25500000000E-02 0.  1.
    8880023    1    1    2    0    0 -0.51615979956E+03  0.84744779220E+03  0.32848491021E+03  0.12354356485E+04  0.65864270000E+03 0.  0.
    8880022    1    1    2    0    0  0.51615979956E+03 -0.84744779220E+03  0.67094345483E+03  0.12075369443E+04  0.15294330000E+03 0.  0.
<mgrwt>
<rscale>  0 0.11411846E+04</rscale>
<asrwt>0</asrwt>
<pdfrwt beam="1">  1        2 0.26480007E+00 0.11909655E+04</pdfrwt>
<pdfrwt beam="2">  1       -2 0.11104186E+00 0.11909655E+04</pdfrwt>
<totfact> 0.59886849E+00</totfact>
</mgrwt>
</event>
<event>
 4    1  0.5223852E-007  0.7298757E+03  0.7818608E-02  0.9890485E-01
          2   -1    0    0  501    0  0.00000000000E+00  0.00000000000E+00  0.25596523169E+04  0.25596523169E+04  0.25500000000E-02 0. -1.
         -2   -1    0    0    0  501 -0.00000000000E+00 -0.00000000000E+00 -0.14545376155E+03  0.14545376157E+03  0.25500000000E-02 0.  1.
    8880023    1    1    2    0    0 -0.22719228804E+03 -0.21746729182E+03  0.21389952168E+04  0.22600927198E+04  0.65864270000E+03 0.  0.
    8880022    1    1    2    0    0  0.22719228804E+03  0.21746729182E+03  0.27520333856E+03  0.44501335859E+03  0.15294330000E+03 0.  0.
<mgrwt>
<rscale>  0 0.60724647E+03</rscale>
<asrwt>0</asrwt>
<pdfrwt beam="1">  1        2 0.39379264E+00 0.72987572E+03</pdfrwt>
<pdfrwt beam="2">  1       -2 0.22377503E-01 0.72987572E+03</pdfrwt>
<totfact> 0.58712267E+01</totfact>
</mgrwt>
</event>
<event>
 4    1  0.5223852E-007  0.7841991E+03  0.7818608E-02  0.9746064E-01
          2   -1    0    0  501    0  0.00000000000E+00  0.00000000000E+00  0.90207032848E+03  0.90207032849E+03  0.25500000000E-02 0. -1.
         -2   -1    0    0    0  501 -0.00000000000E+00 -0.00000000000E+00 -0.85900435132E+03  0.85900435133E+03  0.25500000000E-02 0.  1.
    8880023    1    1    2    0    0 -0.31363871538E+03  0.28773037052E+03 -0.59119371170E+03  0.98207852075E+03  0.65864270000E+03 0.  1.
    8880022    1    1    2    0    0  0.31363871538E+03 -0.28773037052E+03  0.63425968886E+03  0.77899615906E+03  0.15294330000E+03 0.  0.
<mgrwt>
<rscale>  0 0.68339154E+03</rscale>
<asrwt>0</asrwt>
<pdfrwt beam="1">  1        2 0.13878005E+00 0.78419909E+03</pdfrwt>
<pdfrwt beam="2">  1       -2 0.13215452E+00 0.78419909E+03</pdfrwt>
<totfact> 0.12326037E+01</totfact>
</mgrwt>
</event>
<event>
 4    1  0.5223852E-007  0.6951587E+03  0.7818608E-02  0.1001791E+00
         -2   -1    0    0    0  501 -0.00000000000E+00  0.00000000000E+00  0.26134978055E+03  0.26134978056E+03  0.25500000000E-02 0.  1.
          2   -1    0    0  501    0  0.00000000000E+00 -0.00000000000E+00 -0.14844004847E+04  0.14844004847E+04  0.25500000000E-02 0. -1.
    8880023    1    1    2    0    0 -0.19550380685E+03  0.10589461563E+03 -0.25445902858E+03  0.74026685162E+03  0.65864270000E+03 0.  1.
    8880022    1    1    2    0    0  0.19550380685E+03 -0.10589461563E+03 -0.96859167557E+03  0.10054834136E+04  0.15294330000E+03 0.  0.
<mgrwt>
<rscale>  0 0.54871846E+03</rscale>
<asrwt>0</asrwt>
<pdfrwt beam="1">  1        2 0.22836930E+00 0.69515870E+03</pdfrwt>
<pdfrwt beam="2">  1       -2 0.40207659E-01 0.69515870E+03</pdfrwt>
<totfact> 0.77739607E+01</totfact>
</mgrwt>
</event>
<event>
 4    1  0.5223852E-007  0.6684057E+03  0.7818608E-02  0.1016832E+00
         -2   -1    0    0    0  501 -0.00000000000E+00  0.00000000000E+00  0.40545789777E+03  0.40545789777E+03  0.25500000000E-02 0.  1.
          2   -1    0    0  501    0  0.00000000000E+00 -0.00000000000E+00 -0.15676115484E+04  0.15676115485E+04  0.25500000000E-02 0. -1.
    8880023    1    1    2    0    0 -0.96120564506E+02 -0.60965366450E+02  0.11804771326E+03  0.67874988596E+03  0.65864270000E+03 0.  1.
    8880022    1    1    2    0    0  0.96120564506E+02  0.60965366450E+02 -0.12802013639E+04  0.12943195603E+04  0.15294330000E+03 0.  0.
<mgrwt>
<rscale>  0 0.48847186E+03</rscale>
<asrwt>0</asrwt>
<pdfrwt beam="1">  1        2 0.24117100E+00 0.66840567E+03</pdfrwt>
<pdfrwt beam="2">  1       -2 0.62378139E-01 0.66840567E+03</pdfrwt>
<totfact> 0.28699911E+01</totfact>
</mgrwt>
</event>
<event>
 4    1  0.5223852E-007  0.8877165E+03  0.7818608E-02  0.9546045E-01
          2   -1    0    0  501    0  0.00000000000E+00  0.00000000000E+00  0.26877810366E+04  0.26877810366E+04  0.25500000000E-02 0. -1.
         -2   -1    0    0    0  501 -0.00000000000E+00 -0.00000000000E+00 -0.71573236432E+03  0.71573236433E+03  0.25500000000E-02 0.  1.
    8880023    1    1    2    0    0  0.35760415296E+03  0.47576223108E+03 -0.38505014516E+03  0.96762815755E+03  0.65864270000E+03 0.  1.
    8880022    1    1    2    0    0 -0.35760415296E+03 -0.47576223108E+03  0.23570988175E+04  0.24358852434E+04  0.15294330000E+03 0.  0.
<mgrwt>
<rscale>  0 0.80972566E+03</rscale>
<asrwt>0</asrwt>
<pdfrwt beam="1">  1        2 0.41350478E+00 0.88771653E+03</pdfrwt>
<pdfrwt beam="2">  1       -2 0.11011267E+00 0.88771653E+03</pdfrwt>
<totfact> 0.18228020E+00</totfact>
</mgrwt>
</event>
<event>
 4    1  0.5223852E-007  0.7205975E+03  0.7818608E-02  0.9920569E-01
          2   -1    0    0  501    0  0.00000000000E+00  0.00000000000E+00  0.36442443308E+04  0.36442443308E+04  0.25500000000E-02 0. -1.
         -2   -1    0    0    0  501 -0.00000000000E+00 -0.00000000000E+00 -0.20543977505E+03  0.20543977507E+03  0.25500000000E-02 0.  1.
    8880023    1    1    2    0    0  0.95088683673E+02 -0.27642116393E+03  0.46493200383E+03  0.85756777696E+03  0.65864270000E+03 0.  1.
    8880022    1    1    2    0    0 -0.95088683673E+02  0.27642116393E+03  0.29738725520E+04  0.29921163290E+04  0.15294330000E+03 0.  0.
<mgrwt>
<rscale>  0 0.59274678E+03</rscale>
<asrwt>0</asrwt>
<pdfrwt beam="1">  1        2 0.56065299E+00 0.72059748E+03</pdfrwt>
<pdfrwt beam="2">  1       -2 0.31606118E-01 0.72059748E+03</pdfrwt>
<totfact> 0.65249989E+00</totfact>
</mgrwt>
</event>
<event>
 4    1  0.5223852E-007  0.6829285E+03  0.7818608E-02  0.1007713E+00
          2   -1    0    0  501    0  0.00000000000E+00  0.00000000000E+00  0.21391859728E+04  0.21391859728E+04  0.25500000000E-02 0. -1.
         -2   -1    0    0    0  501 -0.00000000000E+00 -0.00000000000E+00 -0.40591578174E+03  0.40591578175E+03  0.25500000000E-02 0.  1.
    8880023    1    1    2    0    0  0.77745121739E+02 -0.16290140616E+03 -0.10562621325E+03  0.69104867793E+03  0.65864270000E+03 0.  1.
    8880022    1    1    2    0    0 -0.77745121739E+02  0.16290140616E+03  0.18388964043E+04  0.18540530766E+04  0.15294330000E+03 0.  0.
<mgrwt>
<rscale>  0 0.52393643E+03</rscale>
<asrwt>0</asrwt>
<pdfrwt beam="1">  1        2 0.32910554E+00 0.68292853E+03</pdfrwt>
<pdfrwt beam="2">  1       -2 0.62448581E-01 0.68292853E+03</pdfrwt>
<totfact> 0.13943502E+01</totfact>
</mgrwt>
</event>
<event>
 4    1  0.5223852E-007  0.7789806E+03  0.7818608E-02  0.9758237E-01
          2   -1    0    0  501    0  0.00000000000E+00  0.00000000000E+00  0.12588227252E+04  0.12588227252E+04  0.25500000000E-02 0. -1.
         -2   -1    0    0    0  501 -0.00000000000E+00 -0.00000000000E+00 -0.62086277956E+03  0.62086277956E+03  0.25500000000E-02 0.  1.
    8880023    1    1    2    0    0 -0.26042347169E+03  0.32431504417E+03 -0.30595947360E+03  0.83691220461E+03  0.65864270000E+03 0. -1.
    8880022    1    1    2    0    0  0.26042347169E+03 -0.32431504417E+03  0.94391941929E+03  0.10427733002E+04  0.15294330000E+03 0.  0.
<mgrwt>
<rscale>  0 0.67652765E+03</rscale>
<asrwt>0</asrwt>
<pdfrwt beam="1">  1        2 0.19366503E+00 0.77898064E+03</pdfrwt>
<pdfrwt beam="2">  1       -2 0.95517352E-01 0.77898064E+03</pdfrwt>
<totfact> 0.16352420E+01</totfact>
</mgrwt>
</event>
<event>
 4    1  0.5223852E-007  0.7709915E+03  0.7818608E-02  0.9777440E-01
          2   -1    0    0  501    0  0.00000000000E+00  0.00000000000E+00  0.60011018293E+03  0.60011018294E+03  0.25500000000E-02 0. -1.
         -2   -1    0    0    0  501 -0.00000000000E+00 -0.00000000000E+00 -0.83354065526E+03  0.83354065527E+03  0.25500000000E-02 0.  1.
    8880023    1    1    2    0    0 -0.38070826026E+03 -0.12521542400E+03 -0.50894917536E+03  0.92382744666E+03  0.65864270000E+03 0.  0.
    8880022    1    1    2    0    0  0.38070826026E+03  0.12521542400E+03  0.27551870303E+03  0.50982339155E+03  0.15294330000E+03 0.  0.
<mgrwt>
<rscale>  0 0.66587418E+03</rscale>
<asrwt>0</asrwt>
<pdfrwt beam="1">  1        2 0.92324643E-01 0.77099150E+03</pdfrwt>
<pdfrwt beam="2">  1       -2 0.12823702E+00 0.77099150E+03</pdfrwt>
<totfact> 0.22546284E+01</totfact>
</mgrwt>
</event>
<event>
 4    1  0.5223852E-007  0.6998432E+03  0.7818608E-02  0.9997852E-01
          2   -1    0    0  501    0  0.00000000000E+00  0.00000000000E+00  0.74063187579E+03  0.74063187580E+03  0.25500000000E-02 0. -1.
         -2   -1    0    0    0  501 -0.00000000000E+00 -0.00000000000E+00 -0.11738603286E+04  0.11738603286E+04  0.25500000000E-02 0.  1.
    8880023    1    1    2    0    0 -0.44433819001E+02  0.23237033033E+03 -0.10353703529E+04  0.12497088896E+04  0.65864270000E+03 0.  1.
    8880022    1    1    2    0    0  0.44433819001E+02 -0.23237033033E+03  0.60214190016E+03  0.66478331479E+03  0.15294330000E+03 0.  0.
<mgrwt>
<rscale>  0 0.55744515E+03</rscale>
<asrwt>0</asrwt>
<pdfrwt beam="1">  1        2 0.11394337E+00 0.69984323E+03</pdfrwt>
<pdfrwt beam="2">  1       -2 0.18059390E+00 0.69984323E+03</pdfrwt>
<totfact> 0.70179174E+00</totfact>
</mgrwt>
</event>
<event>
 4    1  0.5223852E-007  0.1337379E+04  0.7818608E-02  0.9033935E-01
          2   -1    0    0  501    0  0.00000000000E+00  0.00000000000E+00  0.14030516386E+04  0.14030516386E+04  0.25500000000E-02 0. -1.
         -2   -1    0    0    0  501 -0.00000000000E+00 -0.00000000000E+00 -0.15030793769E+04  0.15030793769E+04  0.25500000000E-02 0.  1.
    8880023    1    1    2    0    0  0.32545110993E+03  0.11175215395E+04 -0.78124452306E+03  0.15488466765E+04  0.65864270000E+03 0.  0.
    8880022    1    1    2    0    0 -0.32545110993E+03 -0.11175215395E+04  0.68121678479E+03  0.13572843391E+04  0.15294330000E+03 0.  0.
<mgrwt>
<rscale>  0 0.12945044E+04</rscale>
<asrwt>0</asrwt>
<pdfrwt beam="1">  1        2 0.21585410E+00 0.13373792E+04</pdfrwt>
<pdfrwt beam="2">  1       -2 0.23124298E+00 0.13373792E+04</pdfrwt>
<totfact> 0.11578804E+00</totfact>
</mgrwt>
</event>
<event>
 4    1  0.5223852E-007  0.7454234E+03  0.7818608E-02  0.9844422E-01
         -2   -1    0    0    0  501 -0.00000000000E+00  0.00000000000E+00  0.52810487670E+03  0.52810487671E+03  0.25500000000E-02 0.  1.
          2   -1    0    0  501    0  0.00000000000E+00 -0.00000000000E+00 -0.80888889492E+03  0.80888889493E+03  0.25500000000E-02 0. -1.
    8880023    1    1    2    0    0  0.34766803569E+03 -0.31190484447E+02  0.15154569263E+03  0.76067221099E+03  0.65864270000E+03 0.  1.
    8880022    1    1    2    0    0 -0.34766803569E+03  0.31190484447E+02 -0.43232971086E+03  0.57632156064E+03  0.15294330000E+03 0. -1.
<mgrwt>
<rscale>  0 0.63032155E+03</rscale>
<asrwt>0</asrwt>
<pdfrwt beam="1">  1        2 0.12444445E+00 0.74542345E+03</pdfrwt>
<pdfrwt beam="2">  1       -2 0.81246904E-01 0.74542345E+03</pdfrwt>
<totfact> 0.45952371E+01</totfact>
</mgrwt>
</event>
<event>
 4    1  0.5223852E-007  0.1205783E+04  0.7818608E-02  0.9151521E-01
         -2   -1    0    0    0  501 -0.00000000000E+00  0.00000000000E+00  0.38582295108E+03  0.38582295109E+03  0.25500000000E-02 0.  1.
          2   -1    0    0  501    0  0.00000000000E+00 -0.00000000000E+00 -0.41621743096E+04  0.41621743096E+04  0.25500000000E-02 0. -1.
    8880023    1    1    2    0    0 -0.47864929458E+03 -0.88938039962E+03 -0.30910405047E+04  0.33178975648E+04  0.65864270000E+03 0.  0.
    8880022    1    1    2    0    0  0.47864929458E+03  0.88938039962E+03 -0.68531085377E+03  0.12300996959E+04  0.15294330000E+03 0.  0.
<mgrwt>
<rscale>  0 0.11568130E+04</rscale>
<asrwt>0</asrwt>
<pdfrwt beam="1">  1        2 0.64033448E+00 0.12057831E+04</pdfrwt>
<pdfrwt beam="2">  1       -2 0.59357380E-01 0.12057831E+04</pdfrwt>
<totfact> 0.67999069E-01</totfact>
</mgrwt>
</event>
<event>
 4    1  0.5223852E-007  0.7464394E+03  0.7818608E-02  0.9841571E-01
         -2   -1    0    0    0  501 -0.00000000000E+00  0.00000000000E+00  0.18163211378E+03  0.18163211380E+03  0.25500000000E-02 0.  1.
          2   -1    0    0  501    0  0.00000000000E+00 -0.00000000000E+00 -0.24005007484E+04  0.24005007484E+04  0.25500000000E-02 0. -1.
    8880023    1    1    2    0    0 -0.31994574646E+01  0.35121411305E+03 -0.72738680117E+03  0.10422395860E+04  0.65864270000E+03 0.  1.
    8880022    1    1    2    0    0  0.31994574646E+01 -0.35121411305E+03 -0.14914818334E+04  0.15398932762E+04  0.15294330000E+03 0.  0.
<mgrwt>
<rscale>  0 0.63178511E+03</rscale>
<asrwt>0</asrwt>
<pdfrwt beam="1">  1        2 0.36930778E+00 0.74643941E+03</pdfrwt>
<pdfrwt beam="2">  1       -2 0.27943404E-01 0.74643941E+03</pdfrwt>
<totfact> 0.48274293E+01</totfact>
</mgrwt>
</event>
<event>
 4    1  0.5223852E-007  0.7568961E+03  0.7818608E-02  0.9813210E-01
          2   -1    0    0  501    0  0.00000000000E+00  0.00000000000E+00  0.16295364074E+04  0.16295364074E+04  0.25500000000E-02 0. -1.
         -2   -1    0    0    0  501 -0.00000000000E+00 -0.00000000000E+00 -0.36998435800E+03  0.36998435801E+03  0.25500000000E-02 0.  1.
    8880023    1    1    2    0    0 -0.17936659898E+03  0.32696962427E+03  0.89722650487E+02  0.76219542920E+03  0.65864270000E+03 0.  1.
    8880022    1    1    2    0    0  0.17936659898E+03 -0.32696962427E+03  0.11698293989E+04  0.12373253362E+04  0.15294330000E+03 0.  0.
<mgrwt>
<rscale>  0 0.64658393E+03</rscale>
<asrwt>0</asrwt>
<pdfrwt beam="1">  1        2 0.25069790E+00 0.75689611E+03</pdfrwt>
<pdfrwt beam="2">  1       -2 0.56920672E-01 0.75689611E+03</pdfrwt>
<totfact> 0.31828816E+01</totfact>
</mgrwt>
</event>
<event>
 4    1  0.5223852E-007  0.1008792E+04  0.7818608E-02  0.9370144E-01
          2   -1    0    0  501    0  0.00000000000E+00  0.00000000000E+00  0.13209244955E+04  0.13209244955E+04  0.25500000000E-02 0. -1.
         -2   -1    0    0    0  501 -0.00000000000E+00 -0.00000000000E+00 -0.75982494271E+03  0.75982494271E+03  0.25500000000E-02 0.  1.
    8880023    1    1    2    0    0  0.10245431813E+03  0.75720157973E+03 -0.15716724824E+03  0.10209617377E+04  0.65864270000E+03 0.  0.
    8880022    1    1    2    0    0 -0.10245431813E+03 -0.75720157973E+03  0.71826680100E+03  0.10597877005E+04  0.15294330000E+03 0.  0.
<mgrwt>
<rscale>  0 0.94573948E+03</rscale>
<asrwt>0</asrwt>
<pdfrwt beam="1">  1        2 0.20321915E+00 0.10087920E+04</pdfrwt>
<pdfrwt beam="2">  1       -2 0.11689615E+00 0.10087920E+04</pdfrwt>
<totfact> 0.90368665E+00</totfact>
</mgrwt>
</event>
<event>
 4    1  0.5223852E-007  0.7530540E+03  0.7818608E-02  0.9823434E-01
          2   -1    0    0  501    0  0.00000000000E+00  0.00000000000E+00  0.28046389628E+04  0.28046389628E+04  0.25500000000E-02 0. -1.
         -2   -1    0    0    0  501 -0.00000000000E+00 -0.00000000000E+00 -0.14109445340E+03  0.14109445342E+03  0.25500000000E-02 0.  1.
    8880023    1    1    2    0    0 -0.26741860789E+03 -0.24853048611E+03  0.11014584474E+04  0.13342792182E+04  0.65864270000E+03 0.  1.
    8880022    1    1    2    0    0  0.26741860789E+03  0.24853048611E+03  0.15620860620E+04  0.16114541980E+04  0.15294330000E+03 0.  0.
<mgrwt>
<rscale>  0 0.64119988E+03</rscale>
<asrwt>0</asrwt>
<pdfrwt beam="1">  1        2 0.43148291E+00 0.75305400E+03</pdfrwt>
<pdfrwt beam="2">  1       -2 0.21706839E-01 0.75305400E+03</pdfrwt>
<totfact> 0.44516237E+01</totfact>
</mgrwt>
</event>
<event>
 4    1  0.5223852E-007  0.7381379E+03  0.7818608E-02  0.9865405E-01
          2   -1    0    0  501    0  0.00000000000E+00  0.00000000000E+00  0.17692244215E+04  0.17692244215E+04  0.25500000000E-02 0. -1.
         -2   -1    0    0    0  501 -0.00000000000E+00 -0.00000000000E+00 -0.50683574735E+03  0.50683574736E+03  0.25500000000E-02 0.  1.
    8880023    1    1    2    0    0  0.79079029957E+02  0.32370336512E+03 -0.20296467723E+03  0.76553394963E+03  0.65864270000E+03 0.  0.
    8880022    1    1    2    0    0 -0.79079029957E+02 -0.32370336512E+03  0.14653533514E+04  0.15105262192E+04  0.15294330000E+03 0.  0.
<mgrwt>
<rscale>  0 0.61967612E+03</rscale>
<asrwt>0</asrwt>
<pdfrwt beam="1">  1        2 0.27218837E+00 0.73813791E+03</pdfrwt>
<pdfrwt beam="2">  1       -2 0.77974731E-01 0.73813791E+03</pdfrwt>
<totfact> 0.13554802E+01</totfact>
</mgrwt>
</event>
<event>
 4    1  0.5223852E-007  0.1148258E+04  0.7818608E-02  0.9209137E-01
         -2   -1    0    0    0  501 -0.00000000000E+00  0.00000000000E+00  0.86292711293E+03  0.86292711293E+03  0.25500000000E-02 0.  1.
          2   -1    0    0  501    0  0.00000000000E+00 -0.00000000000E+00 -0.26062406761E+04  0.26062406761E+04  0.25500000000E-02 0. -1.
    8880023    1    1    2    0    0 -0.94050668407E+03 -0.11582930698E+02  0.32374825149E+03  0.11930256174E+04  0.65864270000E+03 0.  1.
    8880022    1    1    2    0    0  0.94050668407E+03  0.11582930698E+02 -0.20670618146E+04  0.22761421716E+04  0.15294330000E+03 0.  0.
<mgrwt>
<rscale>  0 0.10959611E+04</rscale>
<asrwt>0</asrwt>
<pdfrwt beam="1">  1        2 0.40096010E+00 0.11482583E+04</pdfrwt>
<pdfrwt beam="2">  1       -2 0.13275802E+00 0.11482583E+04</pdfrwt>
<totfact> 0.12266925E+00</totfact>
</mgrwt>
</event>
<event>
 4    1  0.5223852E-007  0.6831047E+03  0.7818608E-02  0.1007619E+00
         -2   -1    0    0    0  501 -0.00000000000E+00  0.00000000000E+00  0.36158979060E+03  0.36158979061E+03  0.25500000000E-02 0.  1.
          2   -1    0    0  501    0  0.00000000000E+00 -0.00000000000E+00 -0.82824963551E+03  0.82824963552E+03  0.25500000000E-02 0. -1.
    8880023    1    1    2    0    0 -0.16662050645E+03  0.71129500883E+02 -0.19115760673E+02  0.68337209310E+03  0.65864270000E+03 0.  1.
    8880022    1    1    2    0    0  0.16662050645E+03 -0.71129500883E+02 -0.44754408424E+03  0.50646733302E+03  0.15294330000E+03 0.  1.
<mgrwt>
<rscale>  0 0.52431886E+03</rscale>
<asrwt>0</asrwt>
<pdfrwt beam="1">  1        2 0.12742302E+00 0.68310468E+03</pdfrwt>
<pdfrwt beam="2">  1       -2 0.55629199E-01 0.68310468E+03</pdfrwt>
<totfact> 0.10153633E+02</totfact>
</mgrwt>
</event>
<event>
 4    1  0.5223852E-007  0.7589365E+03  0.7818608E-02  0.9807869E-01
         -2   -1    0    0    0  501 -0.00000000000E+00  0.00000000000E+00  0.38603451967E+03  0.38603451968E+03  0.25500000000E-02 0.  1.
          2   -1    0    0  501    0  0.00000000000E+00 -0.00000000000E+00 -0.23591032671E+04  0.23591032671E+04  0.25500000000E-02 0. -1.
    8880023    1    1    2    0    0 -0.32138404589E+03 -0.19719709852E+03 -0.29582060143E+02  0.75951280777E+03  0.65864270000E+03 0.  0.
    8880022    1    1    2    0    0  0.32138404589E+03  0.19719709852E+03 -0.19434866872E+04  0.19856249790E+04  0.15294330000E+03 0. -1.
<mgrwt>
<rscale>  0 0.64941975E+03</rscale>
<asrwt>0</asrwt>
<pdfrwt beam="1">  1        2 0.36293895E+00 0.75893650E+03</pdfrwt>
<pdfrwt beam="2">  1       -2 0.59389928E-01 0.75893650E+03</pdfrwt>
<totfact> 0.11579167E+01</totfact>
</mgrwt>
</event>
<event>
 4    1  0.5223852E-007  0.9209289E+03  0.7818608E-02  0.9493236E-01
         -2   -1    0    0    0  501 -0.00000000000E+00  0.00000000000E+00  0.16915732646E+04  0.16915732646E+04  0.25500000000E-02 0.  1.
          2   -1    0    0  501    0  0.00000000000E+00 -0.00000000000E+00 -0.71475684111E+03  0.71475684111E+03  0.25500000000E-02 0. -1.
    8880023    1    1    2    0    0  0.56406544014E+03  0.31004850240E+03  0.13594879382E+04  0.16420467578E+04  0.65864270000E+03 0.  1.
    8880022    1    1    2    0    0 -0.56406544014E+03 -0.31004850240E+03 -0.38267151472E+03  0.76428334784E+03  0.15294330000E+03 0.  0.
<mgrwt>
<rscale>  0 0.84784333E+03</rscale>
<asrwt>0</asrwt>
<pdfrwt beam="1">  1        2 0.10996259E+00 0.92092893E+03</pdfrwt>
<pdfrwt beam="2">  1       -2 0.26024204E+00 0.92092893E+03</pdfrwt>
<totfact> 0.22383028E+00</totfact>
</mgrwt>
</event>
<event>
 4    1  0.5223852E-007  0.7437940E+03  0.7818608E-02  0.9849030E-01
         -2   -1    0    0    0  501 -0.00000000000E+00  0.00000000000E+00  0.51644120949E+03  0.51644120949E+03  0.25500000000E-02 0.  1.
          2   -1    0    0  501    0  0.00000000000E+00 -0.00000000000E+00 -0.80501960269E+03  0.80501960270E+03  0.25500000000E-02 0. -1.
    8880023    1    1    2    0    0  0.98736916027E+02  0.33116520377E+03  0.13268196898E+03  0.75553562585E+03  0.65864270000E+03 0.  1.
    8880022    1    1    2    0    0 -0.98736916027E+02 -0.33116520377E+03 -0.42126036218E+03  0.56592518634E+03  0.15294330000E+03 0.  0.
<mgrwt>
<rscale>  0 0.62796399E+03</rscale>
<asrwt>0</asrwt>
<pdfrwt beam="1">  1        2 0.12384917E+00 0.74379404E+03</pdfrwt>
<pdfrwt beam="2">  1       -2 0.79452494E-01 0.74379404E+03</pdfrwt>
<totfact> 0.48636608E+01</totfact>
</mgrwt>
</event>
<event>
 4    1  0.7904119E-007  0.1143981E+04  0.7818608E-02  0.9213599E-01
          2   -1    0    0  501    0  0.00000000000E+00  0.00000000000E+00  0.18112321858E+04  0.18112321858E+04  0.25500000000E-02 0. -1.
         -2   -1    0    0    0  501 -0.00000000000E+00 -0.00000000000E+00 -0.15596728945E+04  0.15596728945E+04  0.25500000000E-02 0.  1.
    8880023    1    1    2    0    0 -0.90105374327E+03  0.25096929280E+03 -0.11867827242E+04  0.16483770427E+04  0.65864270000E+03 0.  1.
    8880022    1    1    2    0    0  0.90105374327E+03 -0.25096929280E+03  0.14383420154E+04  0.17225280376E+04  0.15294330000E+03 0.  0.
<mgrwt>
<rscale>  0 0.10914163E+04</rscale>
<asrwt>0</asrwt>
<pdfrwt beam="1">  1        2 0.27865111E+00 0.11439815E+04</pdfrwt>
<pdfrwt beam="2">  1       -2 0.23994967E+00 0.11439815E+04</pdfrwt>
<totfact> 0.61720125E-01</totfact>
</mgrwt>
</event>
<event>
 4    1  0.5223852E-007  0.9868456E+03  0.7818608E-02  0.9398974E-01
          2   -1    0    0  501    0  0.00000000000E+00  0.00000000000E+00  0.36414010188E+04  0.36414010188E+04  0.25500000000E-02 0. -1.
         -2   -1    0    0    0  501 -0.00000000000E+00 -0.00000000000E+00 -0.22771067355E+03  0.22771067357E+03  0.25500000000E-02 0.  1.
    8880023    1    1    2    0    0 -0.73305007888E+03 -0.51881493461E+02  0.13431533057E+04  0.16667108677E+04  0.65864270000E+03 0.  0.
    8880022    1    1    2    0    0  0.73305007888E+03  0.51881493461E+02  0.20705370395E+04  0.22024008247E+04  0.15294330000E+03 0.  0.
<mgrwt>
<rscale>  0 0.92160205E+03</rscale>
<asrwt>0</asrwt>
<pdfrwt beam="1">  1        2 0.56021551E+00 0.98684564E+03</pdfrwt>
<pdfrwt beam="2">  1       -2 0.35032413E-01 0.98684564E+03</pdfrwt>
<totfact> 0.51420554E+00</totfact>
</mgrwt>
</event>
<event>
 4    1  0.5223852E-007  0.6618875E+03  0.7818608E-02  0.1022301E+00
          2   -1    0    0  501    0  0.00000000000E+00  0.00000000000E+00  0.74583657965E+03  0.74583657966E+03  0.25500000000E-02 0. -1.
         -2   -1    0    0    0  501 -0.00000000000E+00 -0.00000000000E+00 -0.96477845168E+03  0.96477845169E+03  0.25500000000E-02 0.  1.
    8880023    1    1    2    0    0 -0.62511645697E+02 -0.19421336322E+02 -0.83898598968E+03  0.10686405342E+04  0.65864270000E+03 0.  1.
    8880022    1    1    2    0    0  0.62511645697E+02  0.19421336322E+02  0.62004411765E+03  0.64197449716E+03  0.15294330000E+03 0.  0.
<mgrwt>
<rscale>  0 0.46865379E+03</rscale>
<asrwt>0</asrwt>
<pdfrwt beam="1">  1        2 0.11474409E+00 0.66188753E+03</pdfrwt>
<pdfrwt beam="2">  1       -2 0.14842745E+00 0.66188753E+03</pdfrwt>
<totfact> 0.11938493E+01</totfact>
</mgrwt>
</event>
<event>
 4    1  0.5223852E-007  0.6670070E+03  0.7818608E-02  0.1017906E+00
         -2   -1    0    0    0  501 -0.00000000000E+00  0.00000000000E+00  0.85669256823E+02  0.85669256861E+02  0.25500000000E-02 0.  1.
          2   -1    0    0  501    0  0.00000000000E+00 -0.00000000000E+00 -0.25954597365E+04  0.25954597365E+04  0.25500000000E-02 0. -1.
    8880023    1    1    2    0    0  0.96674554639E+02 -0.41739632281E+02 -0.13414827033E+04  0.14981569397E+04  0.65864270000E+03 0.  1.
    8880022    1    1    2    0    0 -0.96674554639E+02  0.41739632281E+02 -0.11683077764E+04  0.11829720537E+04  0.15294330000E+03 0. -1.
<mgrwt>
<rscale>  0 0.48449961E+03</rscale>
<asrwt>0</asrwt>
<pdfrwt beam="1">  1        2 0.39930144E+00 0.66700703E+03</pdfrwt>
<pdfrwt beam="2">  1       -2 0.13179888E-01 0.66700703E+03</pdfrwt>
<totfact> 0.14016718E+02</totfact>
</mgrwt>
</event>
<event>
 4    1  0.5223852E-007  0.7514373E+03  0.7818608E-02  0.9827802E-01
          2   -1    0    0  501    0  0.00000000000E+00  0.00000000000E+00  0.39502711935E+03  0.39502711936E+03  0.25500000000E-02 0. -1.
         -2   -1    0    0    0  501 -0.00000000000E+00 -0.00000000000E+00 -0.12690383464E+04  0.12690383464E+04  0.25500000000E-02 0.  1.
    8880023    1    1    2    0    0 -0.27009992279E+03 -0.24061125960E+03 -0.10006832659E+04  0.12514091863E+04  0.65864270000E+03 0.  1.
    8880022    1    1    2    0    0  0.27009992279E+03  0.24061125960E+03  0.12667203888E+03  0.41265627947E+03  0.15294330000E+03 0.  0.
<mgrwt>
<rscale>  0 0.63891629E+03</rscale>
<asrwt>0</asrwt>
<pdfrwt beam="1">  1        2 0.60773403E-01 0.75143726E+03</pdfrwt>
<pdfrwt beam="2">  1       -2 0.19523667E+00 0.75143726E+03</pdfrwt>
<totfact> 0.11736540E+01</totfact>
</mgrwt>
</event>
<event>
 4    1  0.5223852E-007  0.8400576E+03  0.7818608E-02  0.9630072E-01
         -2   -1    0    0    0  501 -0.00000000000E+00  0.00000000000E+00  0.11018062811E+04  0.11018062811E+04  0.25500000000E-02 0.  1.
          2   -1    0    0  501    0  0.00000000000E+00 -0.00000000000E+00 -0.16170768847E+04  0.16170768847E+04  0.25500000000E-02 0. -1.
    8880023    1    1    2    0    0  0.50019228763E+03 -0.14728983716E+03  0.88298357925E+03  0.12187521603E+04  0.65864270000E+03 0.  1.
    8880022    1    1    2    0    0 -0.50019228763E+03  0.14728983716E+03 -0.13982541829E+04  0.15001310055E+04  0.15294330000E+03 0.  0.
<mgrwt>
<rscale>  0 0.75337421E+03</rscale>
<asrwt>0</asrwt>
<pdfrwt beam="1">  1        2 0.24878106E+00 0.84005763E+03</pdfrwt>
<pdfrwt beam="2">  1       -2 0.16950866E+00 0.84005763E+03</pdfrwt>
<totfact> 0.23809825E+00</totfact>
</mgrwt>
</event>
<event>
 4    1  0.5223852E-007  0.1037480E+04  0.7818608E-02  0.9334086E-01
          2   -1    0    0  501    0  0.00000000000E+00  0.00000000000E+00  0.25965081470E+04  0.25965081470E+04  0.25500000000E-02 0. -1.
         -2   -1    0    0    0  501 -0.00000000000E+00 -0.00000000000E+00 -0.48587667227E+03  0.48587667228E+03  0.25500000000E-02 0.  1.
    8880023    1    1    2    0    0 -0.42202719439E+03  0.68150330712E+03  0.20076312281E+04  0.22598555406E+04  0.65864270000E+03 0. -1.
    8880022    1    1    2    0    0  0.42202719439E+03 -0.68150330712E+03  0.10300024669E+03  0.82252927866E+03  0.15294330000E+03 0.  0.
<mgrwt>
<rscale>  0 0.97704485E+03</rscale>
<asrwt>0</asrwt>
<pdfrwt beam="1">  1        2 0.39946279E+00 0.10374796E+04</pdfrwt>
<pdfrwt beam="2">  1       -2 0.74750258E-01 0.10374796E+04</pdfrwt>
<totfact> 0.49560156E+00</totfact>
</mgrwt>
</event>
<event>
 4    1  0.5223852E-007  0.9051454E+03  0.7818608E-02  0.9517822E-01
          2   -1    0    0  501    0  0.00000000000E+00  0.00000000000E+00  0.15702175462E+04  0.15702175462E+04  0.25500000000E-02 0. -1.
         -2   -1    0    0    0  501 -0.00000000000E+00 -0.00000000000E+00 -0.55110030280E+03  0.55110030281E+03  0.25500000000E-02 0.  1.
    8880023    1    1    2    0    0  0.38960438439E+03  0.48341125389E+03 -0.15239423597E+02  0.90527369509E+03  0.65864270000E+03 0.  0.
    8880022    1    1    2    0    0 -0.38960438439E+03 -0.48341125389E+03  0.10343566670E+04  0.12160441539E+04  0.15294330000E+03 0.  0.
<mgrwt>
<rscale>  0 0.82982570E+03</rscale>
<asrwt>0</asrwt>
<pdfrwt beam="1">  1        2 0.24157193E+00 0.90514542E+03</pdfrwt>
<pdfrwt beam="2">  1       -2 0.84784663E-01 0.90514542E+03</pdfrwt>
<totfact> 0.14142204E+01</totfact>
</mgrwt>
</event>
<event>
 4    1  0.5223852E-007  0.6885095E+03  0.7818608E-02  0.1004869E+00
         -2   -1    0    0    0  501 -0.00000000000E+00  0.00000000000E+00  0.27000043444E+03  0.27000043445E+03  0.25500000000E-02 0.  1.
          2   -1    0    0  501    0  0.00000000000E+00 -0.00000000000E+00 -0.19593392435E+04  0.19593392435E+04  0.25500000000E-02 0. -1.
    8880023    1    1    2    0    0 -0.18934792923E+03 -0.66200124890E+02 -0.19742956425E+03  0.71625675141E+03  0.65864270000E+03 0.  1.
    8880022    1    1    2    0    0  0.18934792923E+03  0.66200124890E+02 -0.14919092448E+04  0.15130829265E+04  0.15294330000E+03 0.  0.
<mgrwt>
<rscale>  0 0.53565777E+03</rscale>
<asrwt>0</asrwt>
<pdfrwt beam="1">  1        2 0.30143680E+00 0.68850948E+03</pdfrwt>
<pdfrwt beam="2">  1       -2 0.41538530E-01 0.68850948E+03</pdfrwt>
<totfact> 0.40139847E+01</totfact>
</mgrwt>
</event>
<event>
 4    1  0.5223852E-007  0.8411654E+03  0.7818608E-02  0.9627987E-01
          2   -1    0    0  501    0  0.00000000000E+00  0.00000000000E+00  0.41987126173E+04  0.41987126173E+04  0.25500000000E-02 0. -1.
         -2   -1    0    0    0  501 -0.00000000000E+00 -0.00000000000E+00 -0.24581675556E+03  0.24581675557E+03  0.25500000000E-02 0.  1.
    8880023    1    1    2    0    0 -0.47889460739E+03 -0.21073429600E+03  0.56556611500E+03  0.10136193690E+04  0.65864270000E+03 0.  1.
    8880022    1    1    2    0    0  0.47889460739E+03  0.21073429600E+03  0.33873297467E+04  0.34309100039E+04  0.15294330000E+03 0.  0.
<mgrwt>
<rscale>  0 0.75471208E+03</rscale>
<asrwt>0</asrwt>
<pdfrwt beam="1">  1        2 0.64595583E+00 0.84116538E+03</pdfrwt>
<pdfrwt beam="2">  1       -2 0.37817960E-01 0.84116538E+03</pdfrwt>
<totfact> 0.16866821E+00</totfact>
</mgrwt>
</event>
<event>
 4    1  0.5223852E-007  0.1616010E+04  0.7818608E-02  0.8831783E-01
          2   -1    0    0  501    0  0.00000000000E+00  0.00000000000E+00  0.12494176764E+04  0.12494176764E+04  0.25500000000E-02 0. -1.
         -2   -1    0    0    0  501 -0.00000000000E+00 -0.00000000000E+00 -0.20092502834E+04  0.20092502834E+04  0.25500000000E-02 0.  1.
    8880023    1    1    2    0    0 -0.10890250213E+04 -0.99584286027E+03 -0.57015182585E+02  0.16170155957E+04  0.65864270000E+03 0.  0.
    8880022    1    1    2    0    0  0.10890250213E+04  0.99584286027E+03 -0.70281742438E+03  0.16416523641E+04  0.15294330000E+03 0.  0.
<mgrwt>
<rscale>  0 0.15818391E+04</rscale>
<asrwt>0</asrwt>
<pdfrwt beam="1">  1        2 0.19221810E+00 0.16160101E+04</pdfrwt>
<pdfrwt beam="2">  1       -2 0.30911543E+00 0.16160101E+04</pdfrwt>
<totfact> 0.46169732E-01</totfact>
</mgrwt>
</event>
<event>
 4    1  0.5223852E-007  0.7007230E+03  0.7818608E-02  0.9994215E-01
          2   -1    0    0  501    0  0.00000000000E+00  0.00000000000E+00  0.48001374686E+03  0.48001374687E+03  0.25500000000E-02 0. -1.
         -2   -1    0    0    0  501 -0.00000000000E+00 -0.00000000000E+00 -0.11949727257E+04  0.11949727257E+04  0.25500000000E-02 0.  1.
    8880023    1    1    2    0    0  0.23184342200E+03 -0.58746190858E+02 -0.10332747075E+04  0.12484667855E+04  0.65864270000E+03 0.  1.
    8880022    1    1    2    0    0 -0.23184342200E+03  0.58746190858E+02  0.31831572866E+03  0.42651968699E+03  0.15294330000E+03 0.  0.
<mgrwt>
<rscale>  0 0.55904620E+03</rscale>
<asrwt>0</asrwt>
<pdfrwt beam="1">  1        2 0.73848269E-01 0.70072298E+03</pdfrwt>
<pdfrwt beam="2">  1       -2 0.18384196E+00 0.70072298E+03</pdfrwt>
<totfact> 0.11261287E+01</totfact>
</mgrwt>
</event>
<event>
 4    1  0.5223852E-007  0.7253477E+03  0.7818608E-02  0.9904890E-01
          2   -1    0    0  501    0  0.00000000000E+00  0.00000000000E+00  0.54584308956E+03  0.54584308956E+03  0.25500000000E-02 0. -1.
         -2   -1    0    0    0  501 -0.00000000000E+00 -0.00000000000E+00 -0.84655758108E+03  0.84655758109E+03  0.25500000000E-02 0.  1.
    8880023    1    1    2    0    0  0.94592225667E+02  0.28874096094E+03 -0.59843820731E+03  0.94034968278E+03  0.65864270000E+03 0.  1.
    8880022    1    1    2    0    0 -0.94592225667E+02 -0.28874096094E+03  0.29772371578E+03  0.45205098787E+03  0.15294330000E+03 0.  0.
<mgrwt>
<rscale>  0 0.60024886E+03</rscale>
<asrwt>0</asrwt>
<pdfrwt beam="1">  1        2 0.83975860E-01 0.72534767E+03</pdfrwt>
<pdfrwt beam="2">  1       -2 0.13023963E+00 0.72534767E+03</pdfrwt>
<totfact> 0.24373454E+01</totfact>
</mgrwt>
</event>
<event>
 4    1  0.5223852E-007  0.8764012E+03  0.7818608E-02  0.9565030E-01
          2   -1    0    0  501    0  0.00000000000E+00  0.00000000000E+00  0.22347971791E+04  0.22347971791E+04  0.25500000000E-02 0. -1.
         -2   -1    0    0    0  501 -0.00000000000E+00 -0.00000000000E+00 -0.46212129543E+03  0.46212129544E+03  0.25500000000E-02 0.  1.
    8880023    1    1    2    0    0  0.48598930966E+03  0.31318233550E+03  0.55019379692E+02  0.87812648450E+03  0.65864270000E+03 0.  1.
    8880022    1    1    2    0    0 -0.48598930966E+03 -0.31318233550E+03  0.17176565040E+04  0.18187919900E+04  0.15294330000E+03 0.  0.
<mgrwt>
<rscale>  0 0.79654638E+03</rscale>
<asrwt>0</asrwt>
<pdfrwt beam="1">  1        2 0.34381496E+00 0.87640116E+03</pdfrwt>
<pdfrwt beam="2">  1       -2 0.71095581E-01 0.87640116E+03</pdfrwt>
<totfact> 0.90650796E+00</totfact>
</mgrwt>
</event>
<event>
 4    1  0.5223852E-007  0.8248666E+03  0.7818608E-02  0.9659404E-01
          2   -1    0    0  501    0  0.00000000000E+00  0.00000000000E+00  0.29105039707E+04  0.29105039707E+04  0.25500000000E-02 0. -1.
         -2   -1    0    0    0  501 -0.00000000000E+00 -0.00000000000E+00 -0.31785367820E+03  0.31785367821E+03  0.25500000000E-02 0.  1.
    8880023    1    1    2    0    0  0.21451970324E+03 -0.44785719211E+03  0.30025796065E+03  0.87781536601E+03  0.65864270000E+03 0.  0.
    8880022    1    1    2    0    0 -0.21451970324E+03  0.44785719211E+03  0.22923923318E+04  0.23505422829E+04  0.15294330000E+03 0.  0.
<mgrwt>
<rscale>  0 0.73486158E+03</rscale>
<asrwt>0</asrwt>
<pdfrwt beam="1">  1        2 0.44776983E+00 0.82486664E+03</pdfrwt>
<pdfrwt beam="2">  1       -2 0.48900567E-01 0.82486664E+03</pdfrwt>
<totfact> 0.82118130E+00</totfact>
</mgrwt>
</event>
<event>
 4    1  0.5223852E-007  0.9972248E+03  0.7818608E-02  0.9385198E-01
         -2   -1    0    0    0  501 -0.00000000000E+00  0.00000000000E+00  0.36338718300E+03  0.36338718301E+03  0.25500000000E-02 0.  1.
          2   -1    0    0  501    0  0.00000000000E+00 -0.00000000000E+00 -0.28980286957E+04  0.28980286957E+04  0.25500000000E-02 0. -1.
    8880023    1    1    2    0    0 -0.30073876162E+03  0.68571369588E+03 -0.55922294046E+03  0.11433230422E+04  0.65864270000E+03 0.  1.
    8880022    1    1    2    0    0  0.30073876162E+03 -0.68571369588E+03 -0.19754185723E+04  0.21180928365E+04  0.15294330000E+03 0.  0.
<mgrwt>
<rscale>  0 0.93303945E+03</rscale>
<asrwt>0</asrwt>
<pdfrwt beam="1">  1        2 0.44585055E+00 0.99722479E+03</pdfrwt>
<pdfrwt beam="2">  1       -2 0.55905722E-01 0.99722479E+03</pdfrwt>
<totfact> 0.61802481E+00</totfact>
</mgrwt>
</event>
<event>
 4    1  0.5223852E-007  0.7532286E+03  0.7818608E-02  0.9822964E-01
          2   -1    0    0  501    0  0.00000000000E+00  0.00000000000E+00  0.45711019485E+03  0.45711019486E+03  0.25500000000E-02 0. -1.
         -2   -1    0    0    0  501 -0.00000000000E+00 -0.00000000000E+00 -0.15827123879E+04  0.15827123879E+04  0.25500000000E-02 0.  1.
    8880023    1    1    2    0    0 -0.21447747304E+03  0.29587577463E+03 -0.13777696265E+04  0.15702236817E+04  0.65864270000E+03 0.  1.
    8880022    1    1    2    0    0  0.21447747304E+03 -0.29587577463E+03  0.25216743343E+03  0.46959890114E+03  0.15294330000E+03 0.  0.
<mgrwt>
<rscale>  0 0.64144579E+03</rscale>
<asrwt>0</asrwt>
<pdfrwt beam="1">  1        2 0.70324646E-01 0.75322856E+03</pdfrwt>
<pdfrwt beam="2">  1       -2 0.24349421E+00 0.75322856E+03</pdfrwt>
<totfact> 0.49441673E+00</totfact>
</mgrwt>
</event>
<event>
 4    1  0.5223852E-007  0.7473733E+03  0.7818608E-02  0.9838967E-01
          2   -1    0    0  501    0  0.00000000000E+00  0.00000000000E+00  0.35560744123E+04  0.35560744123E+04  0.25500000000E-02 0. -1.
         -2   -1    0    0    0  501 -0.00000000000E+00 -0.00000000000E+00 -0.10463260509E+03  0.10463260512E+03  0.25500000000E-02 0.  1.
    8880023    1    1    2    0    0  0.81843599420E+02 -0.34359614361E+03  0.15509534979E+04  0.17216340039E+04  0.65864270000E+03 0.  1.
    8880022    1    1    2    0    0 -0.81843599420E+02  0.34359614361E+03  0.19004883094E+04  0.19390730135E+04  0.15294330000E+03 0.  0.
<mgrwt>
<rscale>  0 0.63312621E+03</rscale>
<asrwt>0</asrwt>
<pdfrwt beam="1">  1        2 0.54708834E+00 0.74737333E+03</pdfrwt>
<pdfrwt beam="2">  1       -2 0.16097325E-01 0.74737333E+03</pdfrwt>
<totfact> 0.24885683E+01</totfact>
</mgrwt>
</event>
<event>
 4    1  0.5223852E-007  0.6891212E+03  0.7818608E-02  0.1004573E+00
         -2   -1    0    0    0  501 -0.00000000000E+00  0.00000000000E+00  0.18908125683E+03  0.18908125685E+03  0.25500000000E-02 0.  1.
          2   -1    0    0  501    0  0.00000000000E+00 -0.00000000000E+00 -0.34133981982E+04  0.34133981982E+04  0.25500000000E-02 0. -1.
    8880023    1    1    2    0    0 -0.16407151042E+03 -0.11898909635E+03 -0.46460404305E+03  0.83111069579E+03  0.65864270000E+03 0.  1.
    8880022    1    1    2    0    0  0.16407151042E+03  0.11898909635E+03 -0.27597128983E+04  0.27713687592E+04  0.15294330000E+03 0.  0.
<mgrwt>
<rscale>  0 0.53689706E+03</rscale>
<asrwt>0</asrwt>
<pdfrwt beam="1">  1        2 0.52513814E+00 0.68912123E+03</pdfrwt>
<pdfrwt beam="2">  1       -2 0.29089426E-01 0.68912123E+03</pdfrwt>
<totfact> 0.11037940E+01</totfact>
</mgrwt>
</event>
<event>
 4    1  0.5223852E-007  0.8053258E+03  0.7818608E-02  0.9699397E-01
          2   -1    0    0  501    0  0.00000000000E+00  0.00000000000E+00  0.23227604509E+04  0.23227604509E+04  0.25500000000E-02 0. -1.
         -2   -1    0    0    0  501 -0.00000000000E+00 -0.00000000000E+00 -0.20901605766E+03  0.20901605768E+03  0.25500000000E-02 0.  1.
    8880023    1    1    2    0    0 -0.18719015894E+03 -0.42390956543E+03  0.82119891763E+03  0.11501814395E+04  0.65864270000E+03 0.  1.
    8880022    1    1    2    0    0  0.18719015894E+03  0.42390956543E+03  0.12925454756E+04  0.13815950690E+04  0.15294330000E+03 0.  0.
<mgrwt>
<rscale>  0 0.71052725E+03</rscale>
<asrwt>0</asrwt>
<pdfrwt beam="1">  1        2 0.35734777E+00 0.80532582E+03</pdfrwt>
<pdfrwt beam="2">  1       -2 0.32156315E-01 0.80532582E+03</pdfrwt>
<totfact> 0.40801539E+01</totfact>
</mgrwt>
</event>
<event>
 4    1  0.5223852E-007  0.7559678E+03  0.7818608E-02  0.9815660E-01
          2   -1    0    0  501    0  0.00000000000E+00  0.00000000000E+00  0.26121559844E+04  0.26121559844E+04  0.25500000000E-02 0. -1.
         -2   -1    0    0    0  501 -0.00000000000E+00 -0.00000000000E+00 -0.34999517881E+03  0.34999517882E+03  0.25500000000E-02 0.  1.
    8880023    1    1    2    0    0  0.25914279020E+03 -0.26556003693E+03  0.99407084407E+02  0.76247563477E+03  0.65864270000E+03 0.  1.
    8880022    1    1    2    0    0 -0.25914279020E+03  0.26556003693E+03  0.21627537212E+04  0.21996755285E+04  0.15294330000E+03 0.  0.
<mgrwt>
<rscale>  0 0.64528845E+03</rscale>
<asrwt>0</asrwt>
<pdfrwt beam="1">  1        2 0.40187017E+00 0.75596781E+03</pdfrwt>
<pdfrwt beam="2">  1       -2 0.53845410E-01 0.75596781E+03</pdfrwt>
<totfact> 0.10218325E+01</totfact>
</mgrwt>
</event>
<event>
 4    1  0.5223852E-007  0.6681711E+03  0.7818608E-02  0.1017009E+00
         -2   -1    0    0    0  501 -0.00000000000E+00  0.00000000000E+00  0.18310290837E+03  0.18310290839E+03  0.25500000000E-02 0.  1.
          2   -1    0    0  501    0  0.00000000000E+00 -0.00000000000E+00 -0.13765390606E+04  0.13765390606E+04  0.25500000000E-02 0. -1.
    8880023    1    1    2    0    0  0.10904426367E+03 -0.27418020443E+02 -0.48347875594E+03  0.82474499876E+03  0.65864270000E+03 0.  0.
    8880022    1    1    2    0    0 -0.10904426367E+03  0.27418020443E+02 -0.70995739631E+03  0.73489697024E+03  0.15294330000E+03 0. -1.
<mgrwt>
<rscale>  0 0.48781472E+03</rscale>
<asrwt>0</asrwt>
<pdfrwt beam="1">  1        2 0.21177523E+00 0.66817109E+03</pdfrwt>
<pdfrwt beam="2">  1       -2 0.28169679E-01 0.66817109E+03</pdfrwt>
<totfact> 0.17549345E+02</totfact>
</mgrwt>
</event>
<event>
 4    1  0.5223852E-007  0.6655434E+03  0.7818608E-02  0.1019082E+00
         -2   -1    0    0    0  501 -0.00000000000E+00  0.00000000000E+00  0.36859866174E+03  0.36859866175E+03  0.25500000000E-02 0.  1.
          2   -1    0    0  501    0  0.00000000000E+00 -0.00000000000E+00 -0.77227825673E+03  0.77227825673E+03  0.25500000000E-02 0. -1.
    8880023    1    1    2    0    0  0.49458915277E+02  0.81802682432E+02  0.35106930139E+02  0.66646872842E+03  0.65864270000E+03 0.  1.
    8880022    1    1    2    0    0 -0.49458915277E+02 -0.81802682432E+02 -0.43878652513E+03  0.47440819006E+03  0.15294330000E+03 0.  0.
<mgrwt>
<rscale>  0 0.48019431E+03</rscale>
<asrwt>0</asrwt>
<pdfrwt beam="1">  1        2 0.11881204E+00 0.66554344E+03</pdfrwt>
<pdfrwt beam="2">  1       -2 0.56707487E-01 0.66554344E+03</pdfrwt>
<totfact> 0.10714130E+02</totfact>
</mgrwt>
</event>
<event>
 4    1  0.5223852E-007  0.8858414E+03  0.7818608E-02  0.9549154E-01
          2   -1    0    0  501    0  0.00000000000E+00  0.00000000000E+00  0.15364836332E+04  0.15364836332E+04  0.25500000000E-02 0. -1.
         -2   -1    0    0    0  501 -0.00000000000E+00 -0.00000000000E+00 -0.42789565086E+03  0.42789565087E+03  0.25500000000E-02 0.  1.
    8880023    1    1    2    0    0 -0.59147257635E+03  0.32633974960E+02  0.10121102363E+04  0.13450212347E+04  0.65864270000E+03 0.  0.
    8880022    1    1    2    0    0  0.59147257635E+03 -0.32633974960E+02  0.96477746000E+02  0.61935804942E+03  0.15294330000E+03 0.  0.
<mgrwt>
<rscale>  0 0.80754911E+03</rscale>
<asrwt>0</asrwt>
<pdfrwt beam="1">  1        2 0.23638209E+00 0.88584140E+03</pdfrwt>
<pdfrwt beam="2">  1       -2 0.65830101E-01 0.88584140E+03</pdfrwt>
<totfact> 0.25952876E+01</totfact>
</mgrwt>
</event>
<event>
 4    1  0.5223852E-007  0.6788077E+03  0.7818608E-02  0.1010006E+00
          2   -1    0    0  501    0  0.00000000000E+00  0.00000000000E+00  0.26548995989E+04  0.26548995989E+04  0.25500000000E-02 0. -1.
         -2   -1    0    0    0  501 -0.00000000000E+00 -0.00000000000E+00 -0.11130583000E+03  0.11130583003E+03  0.25500000000E-02 0.  1.
    8880023    1    1    2    0    0  0.14252207304E+03  0.81591324770E+02  0.10139937864E+04  0.12202308350E+04  0.65864270000E+03 0.  1.
    8880022    1    1    2    0    0 -0.14252207304E+03 -0.81591324770E+02  0.15295999825E+04  0.15459745939E+04  0.15294330000E+03 0.  0.
<mgrwt>
<rscale>  0 0.51472140E+03</rscale>
<asrwt>0</asrwt>
<pdfrwt beam="1">  1        2 0.40844610E+00 0.67880770E+03</pdfrwt>
<pdfrwt beam="2">  1       -2 0.17123974E-01 0.67880770E+03</pdfrwt>
<totfact> 0.83137034E+01</totfact>
</mgrwt>
</event>
<event>
 4    1  0.5223852E-007  0.7251179E+03  0.7818608E-02  0.9905634E-01
          2   -1    0    0  501    0  0.00000000000E+00  0.00000000000E+00  0.90811951236E+03  0.90811951237E+03  0.25500000000E-02 0. -1.
         -2   -1    0    0    0  501 -0.00000000000E+00 -0.00000000000E+00 -0.38693159345E+03  0.38693159345E+03  0.25500000000E-02 0.  1.
    8880023    1    1    2    0    0  0.20625936285E+03  0.22235761048E+03  0.67437697621E+02  0.72824712909E+03  0.65864270000E+03 0.  0.
    8880022    1    1    2    0    0 -0.20625936285E+03 -0.22235761048E+03  0.45375022130E+03  0.56680397673E+03  0.15294330000E+03 0.  0.
<mgrwt>
<rscale>  0 0.59989000E+03</rscale>
<asrwt>0</asrwt>
<pdfrwt beam="1">  1        2 0.13971069E+00 0.72511795E+03</pdfrwt>
<pdfrwt beam="2">  1       -2 0.59527938E-01 0.72511795E+03</pdfrwt>
<totfact> 0.77442808E+01</totfact>
</mgrwt>
</event>
<event>
 4    1  0.5223852E-007  0.8155066E+03  0.7818608E-02  0.9678219E-01
         -2   -1    0    0    0  501 -0.00000000000E+00  0.00000000000E+00  0.72779913759E+03  0.72779913760E+03  0.25500000000E-02 0.  1.
          2   -1    0    0  501    0  0.00000000000E+00 -0.00000000000E+00 -0.89331597399E+03  0.89331597399E+03  0.25500000000E-02 0. -1.
    8880023    1    1    2    0    0 -0.92179764140E+02 -0.47195738695E+03  0.36099694767E+03  0.89183512294E+03  0.65864270000E+03 0.  1.
    8880022    1    1    2    0    0  0.92179764140E+02  0.47195738695E+03 -0.52651378407E+03  0.72927998865E+03  0.15294330000E+03 0.  0.
<mgrwt>
<rscale>  0 0.72328568E+03</rscale>
<asrwt>0</asrwt>
<pdfrwt beam="1">  1        2 0.13743323E+00 0.81550665E+03</pdfrwt>
<pdfrwt beam="2">  1       -2 0.11196910E+00 0.81550665E+03</pdfrwt>
<totfact> 0.18814166E+01</totfact>
</mgrwt>
</event>
<event>
 4    1  0.5223852E-007  0.9944047E+03  0.7818608E-02  0.9388915E-01
         -2   -1    0    0    0  501 -0.00000000000E+00  0.00000000000E+00  0.16382626403E+04  0.16382626403E+04  0.25500000000E-02 0.  1.
          2   -1    0    0  501    0  0.00000000000E+00 -0.00000000000E+00 -0.95862043769E+03  0.95862043769E+03  0.25500000000E-02 0. -1.
    8880023    1    1    2    0    0 -0.28204829753E+03 -0.68955002077E+03  0.12850040371E+04  0.16248310850E+04  0.65864270000E+03 0.  1.
    8880022    1    1    2    0    0  0.28204829753E+03  0.68955002077E+03 -0.60536183450E+03  0.97205199294E+03  0.15294330000E+03 0.  0.
<mgrwt>
<rscale>  0 0.92993584E+03</rscale>
<asrwt>0</asrwt>
<pdfrwt beam="1">  1        2 0.14748007E+00 0.99440469E+03</pdfrwt>
<pdfrwt beam="2">  1       -2 0.25204040E+00 0.99440469E+03</pdfrwt>
<totfact> 0.16694340E+00</totfact>
</mgrwt>
</event>
<event>
 4    1  0.5223852E-007  0.6624692E+03  0.7818608E-02  0.1021758E+00
         -2   -1    0    0    0  501 -0.00000000000E+00  0.00000000000E+00  0.10164420838E+03  0.10164420841E+03  0.25500000000E-02 0.  1.
          2   -1    0    0  501    0  0.00000000000E+00 -0.00000000000E+00 -0.32643126372E+04  0.32643126372E+04  0.25500000000E-02 0. -1.
    8880023    1    1    2    0    0 -0.70802422218E+02  0.65026581790E+01 -0.10174154657E+04  0.12140838948E+04  0.65864270000E+03 0.  1.
    8880022    1    1    2    0    0  0.70802422218E+02 -0.65026581790E+01 -0.21452529631E+04  0.21518729508E+04  0.15294330000E+03 0.  0.
<mgrwt>
<rscale>  0 0.47057482E+03</rscale>
<asrwt>0</asrwt>
<pdfrwt beam="1">  1        2 0.50220186E+00 0.66246922E+03</pdfrwt>
<pdfrwt beam="2">  1       -2 0.15637573E-01 0.66246922E+03</pdfrwt>
<totfact> 0.41525490E+01</totfact>
</mgrwt>
</event>
<event>
 4    1  0.5223852E-007  0.8905445E+03  0.7818608E-02  0.9541384E-01
         -2   -1    0    0    0  501 -0.00000000000E+00  0.00000000000E+00  0.37372882941E+03  0.37372882942E+03  0.25500000000E-02 0.  1.
          2   -1    0    0  501    0  0.00000000000E+00 -0.00000000000E+00 -0.16285094516E+04  0.16285094516E+04  0.25500000000E-02 0. -1.
    8880023    1    1    2    0    0  0.54107516784E+02 -0.59693525986E+03 -0.48281521569E+03  0.10130054623E+04  0.65864270000E+03 0.  1.
    8880022    1    1    2    0    0 -0.54107516784E+02  0.59693525986E+03 -0.77196540647E+03  0.98923281872E+03  0.15294330000E+03 0. -1.
<mgrwt>
<rscale>  0 0.81300287E+03</rscale>
<asrwt>0</asrwt>
<pdfrwt beam="1">  1        2 0.25053991E+00 0.89054452E+03</pdfrwt>
<pdfrwt beam="2">  1       -2 0.57496744E-01 0.89054452E+03</pdfrwt>
<totfact> 0.30760882E+01</totfact>
</mgrwt>
</event>
<event>
 4    1  0.5223852E-007  0.8178259E+03  0.7818608E-02  0.9673501E-01
          2   -1    0    0  501    0  0.00000000000E+00  0.00000000000E+00  0.10008205182E+04  0.10008205182E+04  0.25500000000E-02 0. -1.
         -2   -1    0    0    0  501 -0.00000000000E+00 -0.00000000000E+00 -0.70153007006E+03  0.70153007006E+03  0.25500000000E-02 0.  1.
    8880023    1    1    2    0    0  0.31498819042E+03 -0.36852598772E+03 -0.33991006596E+03  0.88565118581E+03  0.65864270000E+03 0.  0.
    8880022    1    1    2    0    0 -0.31498819042E+03  0.36852598772E+03  0.63920051412E+03  0.81669940247E+03  0.15294330000E+03 0. -1.
<mgrwt>
<rscale>  0 0.72616704E+03</rscale>
<asrwt>0</asrwt>
<pdfrwt beam="1">  1        2 0.15397239E+00 0.81782588E+03</pdfrwt>
<pdfrwt beam="2">  1       -2 0.10792770E+00 0.81782588E+03</pdfrwt>
<totfact> 0.17474063E+01</totfact>
</mgrwt>
</event>
<event>
 4    1  0.5223852E-007  0.7063761E+03  0.7818608E-02  0.9971713E-01
         -2   -1    0    0    0  501 -0.00000000000E+00  0.00000000000E+00  0.61961239039E+03  0.61961239040E+03  0.25500000000E-02 0.  1.
          2   -1    0    0  501    0  0.00000000000E+00 -0.00000000000E+00 -0.51418589140E+03  0.51418589140E+03  0.25500000000E-02 0. -1.
    8880023    1    1    2    0    0 -0.21512025628E+03 -0.13740534153E+03  0.31132366808E+03  0.77193884804E+03  0.65864270000E+03 0.  1.
    8880022    1    1    2    0    0  0.21512025628E+03  0.13740534153E+03 -0.20589716909E+03  0.36185943376E+03  0.15294330000E+03 0. -1.
<mgrwt>
<rscale>  0 0.56908181E+03</rscale>
<asrwt>0</asrwt>
<pdfrwt beam="1">  1        2 0.79105522E-01 0.70637607E+03</pdfrwt>
<pdfrwt beam="2">  1       -2 0.95324983E-01 0.70637607E+03</pdfrwt>
<totfact> 0.55913577E+01</totfact>
</mgrwt>
</event>
<event>
 4    1  0.5223852E-007  0.8741363E+03  0.7818608E-02  0.9568896E-01
         -2   -1    0    0    0  501 -0.00000000000E+00  0.00000000000E+00  0.51690613747E+03  0.51690613748E+03  0.25500000000E-02 0.  1.
          2   -1    0    0  501    0  0.00000000000E+00 -0.00000000000E+00 -0.19307953962E+04  0.19307953962E+04  0.25500000000E-02 0. -1.
    8880023    1    1    2    0    0 -0.52136653466E+03  0.24182839508E+03  0.41877800420E+02  0.87513884188E+03  0.65864270000E+03 0.  1.
    8880022    1    1    2    0    0  0.52136653466E+03 -0.24182839508E+03 -0.14557670592E+04  0.15725626918E+04  0.15294330000E+03 0.  0.
<mgrwt>
<rscale>  0 0.79389503E+03</rscale>
<asrwt>0</asrwt>
<pdfrwt beam="1">  1        2 0.29704544E+00 0.87413628E+03</pdfrwt>
<pdfrwt beam="2">  1       -2 0.79524022E-01 0.87413628E+03</pdfrwt>
<totfact> 0.10393443E+01</totfact>
</mgrwt>
</event>
<event>
 4    1  0.5223852E-007  0.7663950E+03  0.7818608E-02  0.9788824E-01
          2   -1    0    0  501    0  0.00000000000E+00  0.00000000000E+00  0.25820020763E+04  0.25820020763E+04  0.25500000000E-02 0. -1.
         -2   -1    0    0    0  501 -0.00000000000E+00 -0.00000000000E+00 -0.26833076285E+03  0.26833076286E+03  0.25500000000E-02 0.  1.
    8880023    1    1    2    0    0 -0.38992071079E+03 -0.38895944799E+02  0.35074702635E+03  0.84284324639E+03  0.65864270000E+03 0.  0.
    8880022    1    1    2    0    0  0.38992071079E+03  0.38895944799E+02  0.19629242871E+04  0.20074895928E+04  0.15294330000E+03 0.  0.
<mgrwt>
<rscale>  0 0.65965760E+03</rscale>
<asrwt>0</asrwt>
<pdfrwt beam="1">  1        2 0.39723108E+00 0.76639498E+03</pdfrwt>
<pdfrwt beam="2">  1       -2 0.41281656E-01 0.76639498E+03</pdfrwt>
<totfact> 0.18124628E+01</totfact>
</mgrwt>
</event>
<event>
 4    1  0.5223852E-007  0.7855283E+03  0.7818608E-02  0.9743008E-01
         -2   -1    0    0    0  501 -0.00000000000E+00  0.00000000000E+00  0.46911792646E+03  0.46911792647E+03  0.25500000000E-02 0.  1.
          2   -1    0    0  501    0  0.00000000000E+00 -0.00000000000E+00 -0.15017871066E+04  0.15017871066E+04  0.25500000000E-02 0. -1.
    8880023    1    1    2    0    0  0.12306025425E+03  0.41000080052E+03  0.59634881833E+02  0.78778868232E+03  0.65864270000E+03 0.  1.
    8880022    1    1    2    0    0 -0.12306025425E+03 -0.41000080052E+03 -0.10923040620E+04  0.11831163508E+04  0.15294330000E+03 0.  0.
<mgrwt>
<rscale>  0 0.68512869E+03</rscale>
<asrwt>0</asrwt>
<pdfrwt beam="1">  1        2 0.23104417E+00 0.78552829E+03</pdfrwt>
<pdfrwt beam="2">  1       -2 0.72171989E-01 0.78552829E+03</pdfrwt>
<totfact> 0.22446788E+01</totfact>
</mgrwt>
</event>
<event>
 4    1  0.5223852E-007  0.7131553E+03  0.7818608E-02  0.9946465E-01
          2   -1    0    0  501    0  0.00000000000E+00  0.00000000000E+00  0.12652611492E+04  0.12652611492E+04  0.25500000000E-02 0. -1.
         -2   -1    0    0    0  501 -0.00000000000E+00 -0.00000000000E+00 -0.31958776501E+03  0.31958776502E+03  0.25500000000E-02 0.  1.
    8880023    1    1    2    0    0  0.25844332628E+03 -0.89372177704E+02  0.14869464136E+03  0.72849203268E+03  0.65864270000E+03 0.  1.
    8880022    1    1    2    0    0 -0.25844332628E+03  0.89372177704E+02  0.79697874279E+03  0.85635688152E+03  0.15294330000E+03 0.  0.
<mgrwt>
<rscale>  0 0.58061273E+03</rscale>
<asrwt>0</asrwt>
<pdfrwt beam="1">  1        2 0.19465556E+00 0.71315534E+03</pdfrwt>
<pdfrwt beam="2">  1       -2 0.49167348E-01 0.71315534E+03</pdfrwt>
<totfact> 0.69264253E+01</totfact>
</mgrwt>
</event>
<event>
 4    1  0.5223852E-007  0.6863760E+03  0.7818608E-02  0.1005925E+00
         -2   -1    0    0    0  501 -0.00000000000E+00  0.00000000000E+00  0.43817819204E+03  0.43817819205E+03  0.25500000000E-02 0.  1.
          2   -1    0    0  501    0  0.00000000000E+00 -0.00000000000E+00 -0.70929018618E+03  0.70929018618E+03  0.25500000000E-02 0. -1.
    8880023    1    1    2    0    0 -0.96619515751E+02  0.16723182141E+03  0.10852280590E+03  0.69490230866E+03  0.65864270000E+03 0.  1.
    8880022    1    1    2    0    0  0.96619515751E+02 -0.16723182141E+03 -0.37963480004E+03  0.45256606957E+03  0.15294330000E+03 0.  0.
<mgrwt>
<rscale>  0 0.53126880E+03</rscale>
<asrwt>0</asrwt>
<pdfrwt beam="1">  1        2 0.10912157E+00 0.68637600E+03</pdfrwt>
<pdfrwt beam="2">  1       -2 0.67412029E-01 0.68637600E+03</pdfrwt>
<totfact> 0.82665094E+01</totfact>
</mgrwt>
</event>
<event>
 4    1  0.5223852E-007  0.9511381E+03  0.7818608E-02  0.9448479E-01
          2   -1    0    0  501    0  0.00000000000E+00  0.00000000000E+00  0.17217623620E+04  0.17217623620E+04  0.25500000000E-02 0. -1.
         -2   -1    0    0    0  501 -0.00000000000E+00 -0.00000000000E+00 -0.50402946645E+03  0.50402946645E+03  0.25500000000E-02 0.  1.
    8880023    1    1    2    0    0 -0.42396870343E+02 -0.68487659028E+03  0.17331057184E+03  0.96679894451E+03  0.65864270000E+03 0.  1.
    8880022    1    1    2    0    0  0.42396870343E+02  0.68487659028E+03  0.10444223237E+04  0.12589928839E+04  0.15294330000E+03 0.  0.
<mgrwt>
<rscale>  0 0.88191245E+03</rscale>
<asrwt>0</asrwt>
<pdfrwt beam="1">  1        2 0.26488652E+00 0.95113808E+03</pdfrwt>
<pdfrwt beam="2">  1       -2 0.77542995E-01 0.95113808E+03</pdfrwt>
<totfact> 0.14198568E+01</totfact>
</mgrwt>
</event>
<event>
 4    1  0.5223852E-007  0.1069334E+04  0.7818608E-02  0.9295992E-01
         -2   -1    0    0    0  501 -0.00000000000E+00  0.00000000000E+00  0.10008163260E+04  0.10008163261E+04  0.25500000000E-02 0.  1.
          2   -1    0    0  501    0  0.00000000000E+00 -0.00000000000E+00 -0.10518538610E+04  0.10518538611E+04  0.25500000000E-02 0. -1.
    8880023    1    1    2    0    0 -0.44440874137E+03 -0.71565797120E+03  0.32487310650E+03  0.11175948294E+04  0.65864270000E+03 0. -1.
    8880022    1    1    2    0    0  0.44440874137E+03  0.71565797120E+03 -0.37591064150E+03  0.93507535769E+03  0.15294330000E+03 0.  0.
<mgrwt>
<rscale>  0 0.10115266E+04</rscale>
<asrwt>0</asrwt>
<pdfrwt beam="1">  1        2 0.16182367E+00 0.10693342E+04</pdfrwt>
<pdfrwt beam="2">  1       -2 0.15397174E+00 0.10693342E+04</pdfrwt>
<totfact> 0.64245686E+00</totfact>
</mgrwt>
</event>
<event>
 4    1  0.5223852E-007  0.8050700E+03  0.7818608E-02  0.9699939E-01
          2   -1    0    0  501    0  0.00000000000E+00  0.00000000000E+00  0.15599784764E+04  0.15599784764E+04  0.25500000000E-02 0. -1.
         -2   -1    0    0    0  501 -0.00000000000E+00 -0.00000000000E+00 -0.37387635204E+03  0.37387635205E+03  0.25500000000E-02 0.  1.
    8880023    1    1    2    0    0  0.46096051911E+03  0.42928887602E+02  0.19353936911E+03  0.82800675313E+03  0.65864270000E+03 0.  1.
    8880022    1    1    2    0    0 -0.46096051911E+03 -0.42928887602E+02  0.99256275528E+03  0.11058480754E+04  0.15294330000E+03 0.  0.
<mgrwt>
<rscale>  0 0.71020422E+03</rscale>
<asrwt>0</asrwt>
<pdfrwt beam="1">  1        2 0.23999668E+00 0.80506999E+03</pdfrwt>
<pdfrwt beam="2">  1       -2 0.57519440E-01 0.80506999E+03</pdfrwt>
<totfact> 0.33837127E+01</totfact>
</mgrwt>
</event>
<event>
 4    1  0.5223852E-007  0.1063042E+04  0.7818608E-02  0.9303365E-01
          2   -1    0    0  501    0  0.00000000000E+00  0.00000000000E+00  0.16945634943E+04  0.16945634943E+04  0.25500000000E-02 0. -1.
         -2   -1    0    0    0  501 -0.00000000000E+00 -0.00000000000E+00 -0.67429319239E+03  0.67429319239E+03  0.25500000000E-02 0.  1.
    8880023    1    1    2    0    0 -0.33165216689E+03  0.76567294423E+03  0.28026689080E+02  0.10634114532E+04  0.65864270000E+03 0.  0.
    8880022    1    1    2    0    0  0.33165216689E+03 -0.76567294423E+03  0.99224361284E+03  0.13054452335E+04  0.15294330000E+03 0.  0.
<mgrwt>
<rscale>  0 0.10047366E+04</rscale>
<asrwt>0</asrwt>
<pdfrwt beam="1">  1        2 0.26070207E+00 0.10630421E+04</pdfrwt>
<pdfrwt beam="2">  1       -2 0.10373742E+00 0.10630421E+04</pdfrwt>
<totfact> 0.73993115E+00</totfact>
</mgrwt>
</event>
<event>
 4    1  0.5223852E-007  0.8656948E+03  0.7818608E-02  0.9583513E-01
          2   -1    0    0  501    0  0.00000000000E+00  0.00000000000E+00  0.18435164364E+04  0.18435164364E+04  0.25500000000E-02 0. -1.
         -2   -1    0    0    0  501 -0.00000000000E+00 -0.00000000000E+00 -0.28692523295E+03  0.28692523297E+03  0.25500000000E-02 0.  1.
    8880023    1    1    2    0    0  0.55375907583E+03  0.94700465720E+02  0.82954094449E+03  0.11989852698E+04  0.65864270000E+03 0. -1.
    8880022    1    1    2    0    0 -0.55375907583E+03 -0.94700465720E+02  0.72705025891E+03  0.93145639956E+03  0.15294330000E+03 0.  0.
<mgrwt>
<rscale>  0 0.78397101E+03</rscale>
<asrwt>0</asrwt>
<pdfrwt beam="1">  1        2 0.28361792E+00 0.86569481E+03</pdfrwt>
<pdfrwt beam="2">  1       -2 0.44142343E-01 0.86569481E+03</pdfrwt>
<totfact> 0.40320206E+01</totfact>
</mgrwt>
</event>
<event>
 4    1  0.5223852E-007  0.8232448E+03  0.7818608E-02  0.9662622E-01
          2   -1    0    0  501    0  0.00000000000E+00  0.00000000000E+00  0.15850104711E+04  0.15850104711E+04  0.25500000000E-02 0. -1.
         -2   -1    0    0    0  501 -0.00000000000E+00 -0.00000000000E+00 -0.50965993801E+03  0.50965993801E+03  0.25500000000E-02 0.  1.
    8880023    1    1    2    0    0  0.25257590277E+03 -0.42441404278E+03 -0.81768772991E+02  0.82729571791E+03  0.65864270000E+03 0.  0.
    8880022    1    1    2    0    0 -0.25257590277E+03  0.42441404278E+03  0.11571193060E+04  0.12673746912E+04  0.15294330000E+03 0.  0.
<mgrwt>
<rscale>  0 0.73286567E+03</rscale>
<asrwt>0</asrwt>
<pdfrwt beam="1">  1        2 0.24384776E+00 0.82324484E+03</pdfrwt>
<pdfrwt beam="2">  1       -2 0.78409222E-01 0.82324484E+03</pdfrwt>
<totfact> 0.16714681E+01</totfact>
</mgrwt>
</event>
<event>
 4    1  0.5223852E-007  0.6607755E+03  0.7818608E-02  0.1023376E+00
         -2   -1    0    0    0  501 -0.00000000000E+00  0.00000000000E+00  0.22239908875E+03  0.22239908877E+03  0.25500000000E-02 0.  1.
          2   -1    0    0  501    0  0.00000000000E+00 -0.00000000000E+00 -0.91806786134E+03  0.91806786134E+03  0.25500000000E-02 0. -1.
    8880023    1    1    2    0    0 -0.15795095634E+02 -0.50640971079E+02 -0.32581135031E+03  0.73673416865E+03  0.65864270000E+03 0.  1.
    8880022    1    1    2    0    0  0.15795095634E+02  0.50640971079E+02 -0.36985742228E+03  0.40373278146E+03  0.15294330000E+03 0.  0.
<mgrwt>
<rscale>  0 0.46487885E+03</rscale>
<asrwt>0</asrwt>
<pdfrwt beam="1">  1        2 0.14124121E+00 0.66077545E+03</pdfrwt>
<pdfrwt beam="2">  1       -2 0.34215245E-01 0.66077545E+03</pdfrwt>
<totfact> 0.23128885E+02</totfact>
</mgrwt>
</event>
<event>
 4    1  0.5223852E-007  0.9129647E+03  0.7818608E-02  0.9505531E-01
          2   -1    0    0  501    0  0.00000000000E+00  0.00000000000E+00  0.14719272790E+04  0.14719272790E+04  0.25500000000E-02 0. -1.
         -2   -1    0    0    0  501 -0.00000000000E+00 -0.00000000000E+00 -0.62857227725E+03  0.62857227726E+03  0.25500000000E-02 0.  1.
    8880023    1    1    2    0    0  0.18487676716E+03 -0.60457837158E+03 -0.13781473191E+03  0.92330792968E+03  0.65864270000E+03 0.  1.
    8880022    1    1    2    0    0 -0.18487676716E+03  0.60457837158E+03  0.98116973363E+03  0.11771916266E+04  0.15294330000E+03 0.  0.
<mgrwt>
<rscale>  0 0.83877234E+03</rscale>
<asrwt>0</asrwt>
<pdfrwt beam="1">  1        2 0.22645035E+00 0.91296475E+03</pdfrwt>
<pdfrwt beam="2">  1       -2 0.96703427E-01 0.91296475E+03</pdfrwt>
<totfact> 0.11823296E+01</totfact>
</mgrwt>
</event>
<event>
 4    1  0.5223852E-007  0.8559076E+03  0.7818608E-02  0.9600885E-01
          2   -1    0    0  501    0  0.00000000000E+00  0.00000000000E+00  0.75407030344E+03  0.75407030344E+03  0.25500000000E-02 0. -1.
         -2   -1    0    0    0  501 -0.00000000000E+00 -0.00000000000E+00 -0.11189729094E+04  0.11189729094E+04  0.25500000000E-02 0.  1.
    8880023    1    1    2    0    0  0.40296299350E+03  0.36930805893E+03  0.38005709335E+03  0.93649410943E+03  0.65864270000E+03 0.  0.
    8880022    1    1    2    0    0 -0.40296299350E+03 -0.36930805893E+03 -0.74495969934E+03  0.93654910345E+03  0.15294330000E+03 0.  0.
<mgrwt>
<rscale>  0 0.77237639E+03</rscale>
<asrwt>0</asrwt>
<pdfrwt beam="1">  1        2 0.11601082E+00 0.85590760E+03</pdfrwt>
<pdfrwt beam="2">  1       -2 0.17214968E+00 0.85590760E+03</pdfrwt>
<totfact> 0.77075367E+00</totfact>
</mgrwt>
</event>
<event>
 4    1  0.5223852E-007  0.7472207E+03  0.7818608E-02  0.9839392E-01
          2   -1    0    0  501    0  0.00000000000E+00  0.00000000000E+00  0.15472932187E+04  0.15472932187E+04  0.25500000000E-02 0. -1.
         -2   -1    0    0    0  501 -0.00000000000E+00 -0.00000000000E+00 -0.22909460278E+03  0.22909460280E+03  0.25500000000E-02 0.  1.
    8880023    1    1    2    0    0 -0.24050187847E+03 -0.25823915395E+03  0.11127348822E+04  0.13403423960E+04  0.65864270000E+03 0. -1.
    8880022    1    1    2    0    0  0.24050187847E+03  0.25823915395E+03  0.20546373363E+03  0.43604542542E+03  0.15294330000E+03 0.  0.
<mgrwt>
<rscale>  0 0.63290736E+03</rscale>
<asrwt>0</asrwt>
<pdfrwt beam="1">  1        2 0.23804511E+00 0.74722073E+03</pdfrwt>
<pdfrwt beam="2">  1       -2 0.35245324E-01 0.74722073E+03</pdfrwt>
<totfact> 0.92001192E+01</totfact>
</mgrwt>
</event>
<event>
 4    1  0.5223852E-007  0.9356617E+03  0.7818608E-02  0.9471051E-01
         -2   -1    0    0    0  501 -0.00000000000E+00  0.00000000000E+00  0.67513967136E+03  0.67513967136E+03  0.25500000000E-02 0.  1.
          2   -1    0    0  501    0  0.00000000000E+00 -0.00000000000E+00 -0.29955482945E+04  0.29955482945E+04  0.25500000000E-02 0. -1.
    8880023    1    1    2    0    0 -0.28023332804E+03  0.60259598416E+03  0.28452922042E+03  0.97796713739E+03  0.65864270000E+03 0.  0.
    8880022    1    1    2    0    0  0.28023332804E+03 -0.60259598416E+03 -0.26049378436E+04  0.26927208285E+04  0.15294330000E+03 0.  0.
<mgrwt>
<rscale>  0 0.86452177E+03</rscale>
<asrwt>0</asrwt>
<pdfrwt beam="1">  1        2 0.46085357E+00 0.93566171E+03</pdfrwt>
<pdfrwt beam="2">  1       -2 0.10386764E+00 0.93566171E+03</pdfrwt>
<totfact> 0.13619289E+00</totfact>
</mgrwt>
</event>
<event>
 4    1  0.5223852E-007  0.7853124E+03  0.7818608E-02  0.9743503E-01
          2   -1    0    0  501    0  0.00000000000E+00  0.00000000000E+00  0.22374232292E+03  0.22374232293E+03  0.25500000000E-02 0. -1.
         -2   -1    0    0    0  501 -0.00000000000E+00 -0.00000000000E+00 -0.24297162727E+04  0.24297162727E+04  0.25500000000E-02 0.  1.
    8880023    1    1    2    0    0 -0.42314842036E+03  0.62054971105E+02 -0.20115252897E+04  0.21593863949E+04  0.65864270000E+03 0.  1.
    8880022    1    1    2    0    0  0.42314842036E+03 -0.62054971105E+02 -0.19444866003E+03  0.49407220069E+03  0.15294330000E+03 0.  0.
<mgrwt>
<rscale>  0 0.68484688E+03</rscale>
<asrwt>0</asrwt>
<pdfrwt beam="1">  1        2 0.34421898E-01 0.78531243E+03</pdfrwt>
<pdfrwt beam="2">  1       -2 0.37380248E+00 0.78531243E+03</pdfrwt>
<totfact> 0.17576128E+00</totfact>
</mgrwt>
</event>
<event>
 4    1  0.5223852E-007  0.6786677E+03  0.7818608E-02  0.1010087E+00
         -2   -1    0    0    0  501 -0.00000000000E+00  0.00000000000E+00  0.53828282470E+03  0.53828282470E+03  0.25500000000E-02 0.  1.
          2   -1    0    0  501    0  0.00000000000E+00 -0.00000000000E+00 -0.14354048549E+04  0.14354048549E+04  0.25500000000E-02 0. -1.
    8880023    1    1    2    0    0 -0.15571112802E+03  0.50336375807E+02  0.30988815413E+03  0.74607009085E+03  0.65864270000E+03 0.  1.
    8880022    1    1    2    0    0  0.15571112802E+03 -0.50336375807E+02 -0.12070101843E+04  0.12276175888E+04  0.15294330000E+03 0.  0.
<mgrwt>
<rscale>  0 0.51439873E+03</rscale>
<asrwt>0</asrwt>
<pdfrwt beam="1">  1        2 0.22083151E+00 0.67866775E+03</pdfrwt>
<pdfrwt beam="2">  1       -2 0.82812743E-01 0.67866775E+03</pdfrwt>
<totfact> 0.18229560E+01</totfact>
</mgrwt>
</event>
<event>
 4    1  0.5223852E-007  0.6637792E+03  0.7818608E-02  0.1020580E+00
         -2   -1    0    0    0  501 -0.00000000000E+00  0.00000000000E+00  0.23198310828E+03  0.23198310829E+03  0.25500000000E-02 0.  1.
          2   -1    0    0  501    0  0.00000000000E+00 -0.00000000000E+00 -0.75818453364E+03  0.75818453365E+03  0.25500000000E-02 0. -1.
    8880023    1    1    2    0    0 -0.82301658648E+02 -0.43692402161E+01 -0.43859620558E+03  0.79559379779E+03  0.65864270000E+03 0. -1.
    8880022    1    1    2    0    0  0.82301658648E+02  0.43692402161E+01 -0.87605219784E+02  0.19457384414E+03  0.15294330000E+03 0.  1.
<mgrwt>
<rscale>  0 0.47477779E+03</rscale>
<asrwt>0</asrwt>
<pdfrwt beam="1">  1        2 0.11664377E+00 0.66377922E+03</pdfrwt>
<pdfrwt beam="2">  1       -2 0.35689709E-01 0.66377922E+03</pdfrwt>
<totfact> 0.27604538E+02</totfact>
</mgrwt>
</event>
<event>
 4    1  0.5223852E-007  0.8227823E+03  0.7818608E-02  0.9663542E-01
         -2   -1    0    0    0  501 -0.00000000000E+00  0.00000000000E+00  0.63037978746E+03  0.63037978747E+03  0.25500000000E-02 0.  1.
          2   -1    0    0  501    0  0.00000000000E+00 -0.00000000000E+00 -0.21440576620E+04  0.21440576620E+04  0.25500000000E-02 0. -1.
    8880023    1    1    2    0    0 -0.43156153259E+03 -0.23856908510E+03  0.30988027623E+03  0.87920222739E+03  0.65864270000E+03 0.  0.
    8880022    1    1    2    0    0  0.43156153259E+03  0.23856908510E+03 -0.18235581508E+04  0.18952352221E+04  0.15294330000E+03 0.  0.
<mgrwt>
<rscale>  0 0.73229574E+03</rscale>
<asrwt>0</asrwt>
<pdfrwt beam="1">  1        2 0.32985502E+00 0.82278234E+03</pdfrwt>
<pdfrwt beam="2">  1       -2 0.96981507E-01 0.82278234E+03</pdfrwt>
<totfact> 0.50656360E+00</totfact>
</mgrwt>
</event>
<event>
 4    1  0.5223852E-007  0.8697736E+03  0.7818608E-02  0.9576409E-01
         -2   -1    0    0    0  501 -0.00000000000E+00  0.00000000000E+00  0.64521046617E+03  0.64521046617E+03  0.25500000000E-02 0.  1.
          2   -1    0    0  501    0  0.00000000000E+00 -0.00000000000E+00 -0.98740827737E+03  0.98740827738E+03  0.25500000000E-02 0. -1.
    8880023    1    1    2    0    0  0.53212624759E+03  0.19884048425E+03  0.12847746007E+03  0.87921132020E+03  0.65864270000E+03 0. -1.
    8880022    1    1    2    0    0 -0.53212624759E+03 -0.19884048425E+03 -0.47067527127E+03  0.75340742335E+03  0.15294330000E+03 0.  0.
<mgrwt>
<rscale>  0 0.78877458E+03</rscale>
<asrwt>0</asrwt>
<pdfrwt beam="1">  1        2 0.15190897E+00 0.86977358E+03</pdfrwt>
<pdfrwt beam="2">  1       -2 0.99263149E-01 0.86977358E+03</pdfrwt>
<totfact> 0.21676761E+01</totfact>
</mgrwt>
</event>
<event>
 4    1  0.5223852E-007  0.7297122E+03  0.7818608E-02  0.9890997E-01
         -2   -1    0    0    0  501 -0.00000000000E+00  0.00000000000E+00  0.71781008456E+03  0.71781008456E+03  0.25500000000E-02 0.  1.
          2   -1    0    0  501    0  0.00000000000E+00 -0.00000000000E+00 -0.48791235265E+03  0.48791235266E+03  0.25500000000E-02 0. -1.
    8880023    1    1    2    0    0  0.64641997816E+02  0.30739397624E+03  0.38318317390E+03  0.82420215696E+03  0.65864270000E+03 0.  1.
    8880022    1    1    2    0    0 -0.64641997816E+02 -0.30739397624E+03 -0.15328544199E+03  0.38152028027E+03  0.15294330000E+03 0.  0.
<mgrwt>
<rscale>  0 0.60699615E+03</rscale>
<asrwt>0</asrwt>
<pdfrwt beam="1">  1        2 0.75063439E-01 0.72971217E+03</pdfrwt>
<pdfrwt beam="2">  1       -2 0.11043232E+00 0.72971217E+03</pdfrwt>
<totfact> 0.41781444E+01</totfact>
</mgrwt>
</event>
<event>
 4    1  0.5223852E-007  0.6681908E+03  0.7818608E-02  0.1016994E+00
          2   -1    0    0  501    0  0.00000000000E+00  0.00000000000E+00  0.31240818339E+03  0.31240818340E+03  0.25500000000E-02 0. -1.
         -2   -1    0    0    0  501 -0.00000000000E+00 -0.00000000000E+00 -0.15686651345E+04  0.15686651345E+04  0.25500000000E-02 0.  1.
    8880023    1    1    2    0    0 -0.57321022935E+02  0.96866268273E+02 -0.14581189507E+04  0.16039295041E+04  0.65864270000E+03 0.  1.
    8880022    1    1    2    0    0  0.57321022935E+02 -0.96866268273E+02  0.20186199960E+03  0.27714381375E+03  0.15294330000E+03 0.  0.
<mgrwt>
<rscale>  0 0.48787014E+03</rscale>
<asrwt>0</asrwt>
<pdfrwt beam="1">  1        2 0.48062798E-01 0.66819083E+03</pdfrwt>
<pdfrwt beam="2">  1       -2 0.24133309E+00 0.66819083E+03</pdfrwt>
<totfact> 0.78967114E+00</totfact>
</mgrwt>
</event>
<event>
 4    1  0.5223852E-007  0.7104185E+03  0.7818608E-02  0.9956450E-01
         -2   -1    0    0    0  501 -0.00000000000E+00  0.00000000000E+00  0.76716802957E+03  0.76716802957E+03  0.25500000000E-02 0.  1.
          2   -1    0    0  501    0  0.00000000000E+00 -0.00000000000E+00 -0.42993829999E+03  0.42993830000E+03  0.25500000000E-02 0. -1.
    8880023    1    1    2    0    0  0.10359888964E+01  0.26623904727E+03  0.48113494374E+03  0.85801243809E+03  0.65864270000E+03 0.  1.
    8880022    1    1    2    0    0 -0.10359888964E+01 -0.26623904727E+03 -0.14390521417E+03  0.33909389149E+03  0.15294330000E+03 0.  0.
<mgrwt>
<rscale>  0 0.57601771E+03</rscale>
<asrwt>0</asrwt>
<pdfrwt beam="1">  1        2 0.66144355E-01 0.71041855E+03</pdfrwt>
<pdfrwt beam="2">  1       -2 0.11802585E+00 0.71041855E+03</pdfrwt>
<totfact> 0.41120444E+01</totfact>
</mgrwt>
</event>
<event>
 4    1  0.5223852E-007  0.7068867E+03  0.7818608E-02  0.9969749E-01
         -2   -1    0    0    0  501 -0.00000000000E+00  0.00000000000E+00  0.92241398061E+02  0.92241398096E+02  0.25500000000E-02 0.  1.
          2   -1    0    0  501    0  0.00000000000E+00 -0.00000000000E+00 -0.36101757373E+04  0.36101757373E+04  0.25500000000E-02 0. -1.
    8880023    1    1    2    0    0  0.63089888798E+02  0.24879349682E+03 -0.14513244681E+04  0.16143207414E+04  0.65864270000E+03 0.  0.
    8880022    1    1    2    0    0 -0.63089888798E+02 -0.24879349682E+03 -0.20666098712E+04  0.20880963941E+04  0.15294330000E+03 0.  0.
<mgrwt>
<rscale>  0 0.56996823E+03</rscale>
<asrwt>0</asrwt>
<pdfrwt beam="1">  1        2 0.55541154E+00 0.70688666E+03</pdfrwt>
<pdfrwt beam="2">  1       -2 0.14190987E-01 0.70688666E+03</pdfrwt>
<totfact> 0.28444670E+01</totfact>
</mgrwt>
</event>
<event>
 4    1  0.5223852E-007  0.9915545E+03  0.7818608E-02  0.9392691E-01
         -2   -1    0    0    0  501 -0.00000000000E+00  0.00000000000E+00  0.11865168174E+04  0.11865168174E+04  0.25500000000E-02 0.  1.
          2   -1    0    0  501    0  0.00000000000E+00 -0.00000000000E+00 -0.80286938098E+03  0.80286938099E+03  0.25500000000E-02 0. -1.
    8880023    1    1    2    0    0  0.27412229946E+02 -0.74068796337E+03 -0.22668639856E+03  0.10171366766E+04  0.65864270000E+03 0.  0.
    8880022    1    1    2    0    0 -0.27412229946E+02  0.74068796337E+03  0.61033383502E+03  0.97224952179E+03  0.15294330000E+03 0.  0.
<mgrwt>
<rscale>  0 0.92679608E+03</rscale>
<asrwt>0</asrwt>
<pdfrwt beam="1">  1        2 0.12351837E+00 0.99155448E+03</pdfrwt>
<pdfrwt beam="2">  1       -2 0.18254105E+00 0.99155448E+03</pdfrwt>
<totfact> 0.59282032E+00</totfact>
</mgrwt>
</event>
<event>
 4    1  0.5223852E-007  0.9202251E+03  0.7818608E-02  0.9494314E-01
         -2   -1    0    0    0  501 -0.00000000000E+00  0.00000000000E+00  0.42777924588E+03  0.42777924589E+03  0.25500000000E-02 0.  1.
          2   -1    0    0  501    0  0.00000000000E+00 -0.00000000000E+00 -0.20027685142E+04  0.20027685142E+04  0.25500000000E-02 0. -1.
    8880023    1    1    2    0    0 -0.59512493591E+03 -0.24254975706E+03 -0.25566975353E+03  0.95508183059E+03  0.65864270000E+03 0.  0.
    8880022    1    1    2    0    0  0.59512493591E+03  0.24254975706E+03 -0.13193195148E+04  0.14754659295E+04  0.15294330000E+03 0.  0.
<mgrwt>
<rscale>  0 0.84704333E+03</rscale>
<asrwt>0</asrwt>
<pdfrwt beam="1">  1        2 0.30811823E+00 0.92022512E+03</pdfrwt>
<pdfrwt beam="2">  1       -2 0.65812193E-01 0.92022512E+03</pdfrwt>
<totfact> 0.14324464E+01</totfact>
</mgrwt>
</event>
<event>
 4    1  0.5223852E-007  0.9128696E+03  0.7818608E-02  0.9505680E-01
          2   -1    0    0  501    0  0.00000000000E+00  0.00000000000E+00  0.13013556609E+04  0.13013556609E+04  0.25500000000E-02 0. -1.
         -2   -1    0    0    0  501 -0.00000000000E+00 -0.00000000000E+00 -0.56170482852E+03  0.56170482853E+03  0.25500000000E-02 0.  1.
    8880023    1    1    2    0    0 -0.31044216075E+03 -0.55058735623E+03  0.48643821252E+02  0.91416475519E+03  0.65864270000E+03 0.  0.
    8880022    1    1    2    0    0  0.31044216075E+03  0.55058735623E+03  0.69100701109E+03  0.94889573421E+03  0.15294330000E+03 0.  0.
<mgrwt>
<rscale>  0 0.83866376E+03</rscale>
<asrwt>0</asrwt>
<pdfrwt beam="1">  1        2 0.20020856E+00 0.91286964E+03</pdfrwt>
<pdfrwt beam="2">  1       -2 0.86416128E-01 0.91286964E+03</pdfrwt>
<totfact> 0.19211680E+01</totfact>
</mgrwt>
</event>
<event>
 4    1  0.5223852E-007  0.7840806E+03  0.7818608E-02  0.9746337E-01
         -2   -1    0    0    0  501 -0.00000000000E+00  0.00000000000E+00  0.33881345491E+03  0.33881345492E+03  0.25500000000E-02 0.  1.
          2   -1    0    0  501    0  0.00000000000E+00 -0.00000000000E+00 -0.27947170412E+04  0.27947170412E+04  0.25500000000E-02 0. -1.
    8880023    1    1    2    0    0 -0.92149506787E+02 -0.41530789996E+03 -0.16862774535E+03  0.80200854492E+03  0.65864270000E+03 0.  0.
    8880022    1    1    2    0    0  0.92149506787E+02  0.41530789996E+03 -0.22872758409E+04  0.23315219512E+04  0.15294330000E+03 0.  0.
<mgrwt>
<rscale>  0 0.68323647E+03</rscale>
<asrwt>0</asrwt>
<pdfrwt beam="1">  1        2 0.42995645E+00 0.78408060E+03</pdfrwt>
<pdfrwt beam="2">  1       -2 0.52125149E-01 0.78408060E+03</pdfrwt>
<totfact> 0.85103863E+00</totfact>
</mgrwt>
</event>
<event>
 4    1  0.5223852E-007  0.1110634E+04  0.7818608E-02  0.9249308E-01
         -2   -1    0    0    0  501 -0.00000000000E+00  0.00000000000E+00  0.23487190392E+04  0.23487190392E+04  0.25500000000E-02 0.  1.
          2   -1    0    0  501    0  0.00000000000E+00 -0.00000000000E+00 -0.11690761130E+04  0.11690761130E+04  0.25500000000E-02 0. -1.
    8880023    1    1    2    0    0 -0.68629488485E+03 -0.57332073691E+03  0.20045064149E+04  0.22916268260E+04  0.65864270000E+03 0.  0.
    8880022    1    1    2    0    0  0.68629488485E+03  0.57332073691E+03 -0.82486348863E+03  0.12261683262E+04  0.15294330000E+03 0.  0.
<mgrwt>
<rscale>  0 0.10558665E+04</rscale>
<asrwt>0</asrwt>
<pdfrwt beam="1">  1        2 0.17985787E+00 0.11106338E+04</pdfrwt>
<pdfrwt beam="2">  1       -2 0.36134138E+00 0.11106338E+04</pdfrwt>
<totfact> 0.25941567E-01</totfact>
</mgrwt>
</event>
<event>
 4    1  0.5223852E-007  0.7163349E+03  0.7818608E-02  0.9935188E-01
         -2   -1    0    0    0  501 -0.00000000000E+00  0.00000000000E+00  0.17373786145E+03  0.17373786147E+03  0.25500000000E-02 0.  1.
          2   -1    0    0  501    0  0.00000000000E+00 -0.00000000000E+00 -0.22898235823E+04  0.22898235823E+04  0.25500000000E-02 0. -1.
    8880023    1    1    2    0    0 -0.20155873009E+03  0.19672220479E+03 -0.66473549128E+03  0.97724563297E+03  0.65864270000E+03 0.  1.
    8880022    1    1    2    0    0  0.20155873009E+03 -0.19672220479E+03 -0.14513502295E+04  0.14863158108E+04  0.15294330000E+03 0.  0.
<mgrwt>
<rscale>  0 0.58585818E+03</rscale>
<asrwt>0</asrwt>
<pdfrwt beam="1">  1        2 0.35228053E+00 0.71633495E+03</pdfrwt>
<pdfrwt beam="2">  1       -2 0.26728903E-01 0.71633495E+03</pdfrwt>
<totfact> 0.60587505E+01</totfact>
</mgrwt>
</event>
<event>
 4    1  0.5223852E-007  0.7112857E+03  0.7818608E-02  0.9953257E-01
         -2   -1    0    0    0  501 -0.00000000000E+00  0.00000000000E+00  0.12513623923E+04  0.12513623923E+04  0.25500000000E-02 0.  1.
          2   -1    0    0  501    0  0.00000000000E+00 -0.00000000000E+00 -0.82133692268E+03  0.82133692269E+03  0.25500000000E-02 0. -1.
    8880023    1    1    2    0    0 -0.16145635807E+03 -0.21459024313E+03  0.11142473798E+04  0.13219207834E+04  0.65864270000E+03 0.  0.
    8880022    1    1    2    0    0  0.16145635807E+03  0.21459024313E+03 -0.68422191020E+03  0.75077853154E+03  0.15294330000E+03 0.  0.
<mgrwt>
<rscale>  0 0.57748202E+03</rscale>
<asrwt>0</asrwt>
<pdfrwt beam="1">  1        2 0.12635953E+00 0.71128569E+03</pdfrwt>
<pdfrwt beam="2">  1       -2 0.19251729E+00 0.71128569E+03</pdfrwt>
<totfact> 0.50884392E+00</totfact>
</mgrwt>
</event>
<event>
 4    1  0.5223852E-007  0.1310290E+04  0.7818608E-02  0.9056725E-01
          2   -1    0    0  501    0  0.00000000000E+00  0.00000000000E+00  0.15345417203E+04  0.15345417203E+04  0.25500000000E-02 0. -1.
         -2   -1    0    0    0  501 -0.00000000000E+00 -0.00000000000E+00 -0.10976110895E+04  0.10976110895E+04  0.25500000000E-02 0.  1.
    8880023    1    1    2    0    0  0.44471744149E+03 -0.10417653961E+04 -0.19717964752E+03  0.13250429287E+04  0.65864270000E+03 0.  0.
    8880022    1    1    2    0    0 -0.44471744149E+03  0.10417653961E+04  0.63411027826E+03  0.13071098811E+04  0.15294330000E+03 0.  0.
<mgrwt>
<rscale>  0 0.12663002E+04</rscale>
<asrwt>0</asrwt>
<pdfrwt beam="1">  1        2 0.23608334E+00 0.13102896E+04</pdfrwt>
<pdfrwt beam="2">  1       -2 0.16886324E+00 0.13102896E+04</pdfrwt>
<totfact> 0.25313175E+00</totfact>
</mgrwt>
</event>
<event>
 4    1  0.5223852E-007  0.7284406E+03  0.7818608E-02  0.9894997E-01
         -2   -1    0    0    0  501 -0.00000000000E+00  0.00000000000E+00  0.83880080666E+03  0.83880080666E+03  0.25500000000E-02 0.  1.
          2   -1    0    0  501    0  0.00000000000E+00 -0.00000000000E+00 -0.91689178172E+03  0.91689178172E+03  0.25500000000E-02 0. -1.
    8880023    1    1    2    0    0  0.24571053379E+03 -0.19089736226E+03  0.63270061961E+03  0.96485011772E+03  0.65864270000E+03 0.  1.
    8880022    1    1    2    0    0 -0.24571053379E+03  0.19089736226E+03 -0.71079159467E+03  0.79084247066E+03  0.15294330000E+03 0.  0.
<mgrwt>
<rscale>  0 0.60504388E+03</rscale>
<asrwt>0</asrwt>
<pdfrwt beam="1">  1        2 0.14106027E+00 0.72844058E+03</pdfrwt>
<pdfrwt beam="2">  1       -2 0.12904628E+00 0.72844058E+03</pdfrwt>
<totfact> 0.12874869E+01</totfact>
</mgrwt>
</event>
<event>
 4    1  0.5223852E-007  0.6830134E+03  0.7818608E-02  0.1007668E+00
          2   -1    0    0  501    0  0.00000000000E+00  0.00000000000E+00  0.19235301071E+04  0.19235301071E+04  0.25500000000E-02 0. -1.
         -2   -1    0    0    0  501 -0.00000000000E+00 -0.00000000000E+00 -0.17325971231E+03  0.17325971233E+03  0.25500000000E-02 0.  1.
    8880023    1    1    2    0    0  0.18082291417E+03  0.47358831711E+00  0.56014455488E+03  0.88332852281E+03  0.65864270000E+03 0.  1.
    8880022    1    1    2    0    0 -0.18082291417E+03 -0.47358831711E+00  0.11901258399E+04  0.12134612966E+04  0.15294330000E+03 0. -1.
<mgrwt>
<rscale>  0 0.52412088E+03</rscale>
<asrwt>0</asrwt>
<pdfrwt beam="1">  1        2 0.29592772E+00 0.68301344E+03</pdfrwt>
<pdfrwt beam="2">  1       -2 0.26655339E-01 0.68301344E+03</pdfrwt>
<totfact> 0.97029405E+01</totfact>
</mgrwt>
</event>
<event>
 4    1  0.5223852E-007  0.6694801E+03  0.7818608E-02  0.1016038E+00
         -2   -1    0    0    0  501 -0.00000000000E+00  0.00000000000E+00  0.31702238810E+03  0.31702238811E+03  0.25500000000E-02 0.  1.
          2   -1    0    0  501    0  0.00000000000E+00 -0.00000000000E+00 -0.16438870135E+04  0.16438870135E+04  0.25500000000E-02 0. -1.
    8880023    1    1    2    0    0  0.91743681941E+02 -0.77308147143E+02 -0.52204090920E+02  0.67151241698E+03  0.65864270000E+03 0.  0.
    8880022    1    1    2    0    0 -0.91743681941E+02  0.77308147143E+02 -0.12746605345E+04  0.12893969846E+04  0.15294330000E+03 0. -1.
<mgrwt>
<rscale>  0 0.49143757E+03</rscale>
<asrwt>0</asrwt>
<pdfrwt beam="1">  1        2 0.25290569E+00 0.66948014E+03</pdfrwt>
<pdfrwt beam="2">  1       -2 0.48772676E-01 0.66948014E+03</pdfrwt>
<totfact> 0.43398727E+01</totfact>
</mgrwt>
</event>
<event>
 4    1  0.5223852E-007  0.6621767E+03  0.7818608E-02  0.1022029E+00
          2   -1    0    0  501    0  0.00000000000E+00  0.00000000000E+00  0.35134904036E+04  0.35134904036E+04  0.25500000000E-02 0. -1.
         -2   -1    0    0    0  501 -0.00000000000E+00 -0.00000000000E+00 -0.13181779632E+03  0.13181779634E+03  0.25500000000E-02 0.  1.
    8880023    1    1    2    0    0 -0.89530059375E+01  0.67731672017E+02  0.71935752297E+03  0.97772858597E+03  0.65864270000E+03 0.  1.
    8880022    1    1    2    0    0  0.89530059375E+01 -0.67731672017E+02  0.26623150843E+04  0.26675796139E+04  0.15294330000E+03 0.  0.
<mgrwt>
<rscale>  0 0.46961308E+03</rscale>
<asrwt>0</asrwt>
<pdfrwt beam="1">  1        2 0.54053693E+00 0.66217667E+03</pdfrwt>
<pdfrwt beam="2">  1       -2 0.20279663E-01 0.66217667E+03</pdfrwt>
<totfact> 0.18156099E+01</totfact>
</mgrwt>
</event>
<event>
 4    1  0.5223852E-007  0.8159151E+03  0.7818608E-02  0.9677385E-01
          2   -1    0    0  501    0  0.00000000000E+00  0.00000000000E+00  0.76177280368E+03  0.76177280369E+03  0.25500000000E-02 0. -1.
         -2   -1    0    0    0  501 -0.00000000000E+00 -0.00000000000E+00 -0.11216387425E+04  0.11216387425E+04  0.25500000000E-02 0.  1.
    8880023    1    1    2    0    0  0.28142955916E+03 -0.39077436497E+03 -0.85087862800E+03  0.11788604018E+04  0.65864270000E+03 0.  1.
    8880022    1    1    2    0    0 -0.28142955916E+03  0.39077436497E+03  0.49101268919E+03  0.70455114438E+03  0.15294330000E+03 0.  0.
<mgrwt>
<rscale>  0 0.72379374E+03</rscale>
<asrwt>0</asrwt>
<pdfrwt beam="1">  1        2 0.11719582E+00 0.81591507E+03</pdfrwt>
<pdfrwt beam="2">  1       -2 0.17255981E+00 0.81591507E+03</pdfrwt>
<totfact> 0.75882019E+00</totfact>
</mgrwt>
</event>
<event>
 4    1  0.5223852E-007  0.8720334E+03  0.7818608E-02  0.9572507E-01
         -2   -1    0    0    0  501 -0.00000000000E+00  0.00000000000E+00  0.63694328699E+03  0.63694328700E+03  0.25500000000E-02 0.  1.
          2   -1    0    0  501    0  0.00000000000E+00 -0.00000000000E+00 -0.13899584503E+04  0.13899584503E+04  0.25500000000E-02 0. -1.
    8880023    1    1    2    0    0 -0.57057770782E+03  0.32758920960E+02  0.20973113772E+03  0.89689989629E+03  0.65864270000E+03 0.  0.
    8880022    1    1    2    0    0  0.57057770782E+03 -0.32758920960E+02 -0.96274630106E+03  0.11300018411E+04  0.15294330000E+03 0.  0.
<mgrwt>
<rscale>  0 0.79142913E+03</rscale>
<asrwt>0</asrwt>
<pdfrwt beam="1">  1        2 0.21383976E+00 0.87203341E+03</pdfrwt>
<pdfrwt beam="2">  1       -2 0.97991275E-01 0.87203341E+03</pdfrwt>
<totfact> 0.12808048E+01</totfact>
</mgrwt>
</event>
<event>
 4    1  0.5223852E-007  0.7270400E+03  0.7818608E-02  0.9899447E-01
         -2   -1    0    0    0  501 -0.00000000000E+00  0.00000000000E+00  0.32465734993E+03  0.32465734994E+03  0.25500000000E-02 0.  1.
          2   -1    0    0  501    0  0.00000000000E+00 -0.00000000000E+00 -0.14644360428E+04  0.14644360428E+04  0.25500000000E-02 0. -1.
    8880023    1    1    2    0    0  0.30773207619E+03  0.88276733305E+01 -0.15139305865E+03  0.74263518837E+03  0.65864270000E+03 0.  1.
    8880022    1    1    2    0    0 -0.30773207619E+03 -0.88276733305E+01 -0.98838563424E+03  0.10464582044E+04  0.15294330000E+03 0.  0.
<mgrwt>
<rscale>  0 0.60288086E+03</rscale>
<asrwt>0</asrwt>
<pdfrwt beam="1">  1        2 0.22529785E+00 0.72704000E+03</pdfrwt>
<pdfrwt beam="2">  1       -2 0.49947285E-01 0.72704000E+03</pdfrwt>
<totfact> 0.51612336E+01</totfact>
</mgrwt>
</event>
<event>
 4    1  0.5223852E-007  0.9287640E+03  0.7818608E-02  0.9481350E-01
          2   -1    0    0  501    0  0.00000000000E+00  0.00000000000E+00  0.14203119795E+04  0.14203119795E+04  0.25500000000E-02 0. -1.
         -2   -1    0    0    0  501 -0.00000000000E+00 -0.00000000000E+00 -0.55902095206E+03  0.55902095207E+03  0.25500000000E-02 0.  1.
    8880023    1    1    2    0    0  0.16721383817E+03 -0.63311287035E+03  0.91624049317E+03  0.13046452475E+04  0.65864270000E+03 0.  0.
    8880022    1    1    2    0    0 -0.16721383817E+03  0.63311287035E+03 -0.54949465688E+02  0.67468768410E+03  0.15294330000E+03 0.  0.
<mgrwt>
<rscale>  0 0.85672893E+03</rscale>
<asrwt>0</asrwt>
<pdfrwt beam="1">  1        2 0.21850953E+00 0.92876401E+03</pdfrwt>
<pdfrwt beam="2">  1       -2 0.86003226E-01 0.92876401E+03</pdfrwt>
<totfact> 0.16574526E+01</totfact>
</mgrwt>
</event>
<event>
 4    1  0.5223852E-007  0.8766763E+03  0.7818608E-02  0.9564561E-01
          2   -1    0    0  501    0  0.00000000000E+00  0.00000000000E+00  0.17748108540E+04  0.17748108540E+04  0.25500000000E-02 0. -1.
         -2   -1    0    0    0  501 -0.00000000000E+00 -0.00000000000E+00 -0.43651438004E+03  0.43651438005E+03  0.25500000000E-02 0.  1.
    8880023    1    1    2    0    0 -0.36170189146E+03  0.45157821340E+03  0.16196077952E+03  0.89151143653E+03  0.65864270000E+03 0.  0.
    8880022    1    1    2    0    0  0.36170189146E+03 -0.45157821340E+03  0.11763356944E+04  0.13198137975E+04  0.15294330000E+03 0.  0.
<mgrwt>
<rscale>  0 0.79686817E+03</rscale>
<asrwt>0</asrwt>
<pdfrwt beam="1">  1        2 0.27304782E+00 0.87667631E+03</pdfrwt>
<pdfrwt beam="2">  1       -2 0.67156059E-01 0.87667631E+03</pdfrwt>
<totfact> 0.18376204E+01</totfact>
</mgrwt>
</event>
<event>
 4    1  0.5223852E-007  0.8417857E+03  0.7818608E-02  0.9626822E-01
         -2   -1    0    0    0  501 -0.00000000000E+00  0.00000000000E+00  0.43603403680E+03  0.43603403681E+03  0.25500000000E-02 0.  1.
          2   -1    0    0  501    0  0.00000000000E+00 -0.00000000000E+00 -0.22387451866E+04  0.22387451866E+04  0.25500000000E-02 0. -1.
    8880023    1    1    2    0    0 -0.22436050094E+03  0.47376715913E+03 -0.54812825021E+02  0.84356837749E+03  0.65864270000E+03 0.  1.
    8880022    1    1    2    0    0  0.22436050094E+03 -0.47376715913E+03 -0.17478983248E+04  0.18312108460E+04  0.15294330000E+03 0.  0.
<mgrwt>
<rscale>  0 0.75546058E+03</rscale>
<asrwt>0</asrwt>
<pdfrwt beam="1">  1        2 0.34442233E+00 0.84178570E+03</pdfrwt>
<pdfrwt beam="2">  1       -2 0.67082161E-01 0.84178570E+03</pdfrwt>
<totfact> 0.10287293E+01</totfact>
</mgrwt>
</event>
<event>
 4    1  0.5223852E-007  0.8566380E+03  0.7818608E-02  0.9599572E-01
          2   -1    0    0  501    0  0.00000000000E+00  0.00000000000E+00  0.80538794663E+03  0.80538794663E+03  0.25500000000E-02 0. -1.
         -2   -1    0    0    0  501 -0.00000000000E+00 -0.00000000000E+00 -0.10567052689E+04  0.10567052689E+04  0.25500000000E-02 0.  1.
    8880023    1    1    2    0    0  0.53692108327E+03 -0.10832449725E+03 -0.72477769523E+03  0.11221102264E+04  0.65864270000E+03 0.  1.
    8880022    1    1    2    0    0 -0.53692108327E+03  0.10832449725E+03  0.47346037300E+03  0.73998298912E+03  0.15294330000E+03 0.  0.
<mgrwt>
<rscale>  0 0.77324514E+03</rscale>
<asrwt>0</asrwt>
<pdfrwt beam="1">  1        2 0.12390584E+00 0.85663799E+03</pdfrwt>
<pdfrwt beam="2">  1       -2 0.16257004E+00 0.85663799E+03</pdfrwt>
<totfact> 0.82770594E+00</totfact>
</mgrwt>
</event>
<event>
 4    1  0.5223852E-007  0.7628328E+03  0.7818608E-02  0.9797828E-01
         -2   -1    0    0    0  501 -0.00000000000E+00  0.00000000000E+00  0.74359463701E+03  0.74359463701E+03  0.25500000000E-02 0.  1.
          2   -1    0    0  501    0  0.00000000000E+00 -0.00000000000E+00 -0.17215425450E+04  0.17215425450E+04  0.25500000000E-02 0. -1.
    8880023    1    1    2    0    0 -0.33452203995E+03  0.19025935927E+03  0.51198870915E+03  0.91871990485E+03  0.65864270000E+03 0.  1.
    8880022    1    1    2    0    0  0.33452203995E+03 -0.19025935927E+03 -0.14899366172E+04  0.15464172772E+04  0.15294330000E+03 0.  0.
<mgrwt>
<rscale>  0 0.65479224E+03</rscale>
<asrwt>0</asrwt>
<pdfrwt beam="1">  1        2 0.26485270E+00 0.76283276E+03</pdfrwt>
<pdfrwt beam="2">  1       -2 0.11439918E+00 0.76283276E+03</pdfrwt>
<totfact> 0.58548529E+00</totfact>
</mgrwt>
</event>
<event>
 4    1  0.5223852E-007  0.8687901E+03  0.7818608E-02  0.9578115E-01
         -2   -1    0    0    0  501 -0.00000000000E+00  0.00000000000E+00  0.27304381244E+03  0.27304381246E+03  0.25500000000E-02 0.  1.
          2   -1    0    0  501    0  0.00000000000E+00 -0.00000000000E+00 -0.19940446120E+04  0.19940446120E+04  0.25500000000E-02 0. -1.
    8880023    1    1    2    0    0  0.55982493818E+03  0.87075091473E+02 -0.12057936369E+04  0.14861811915E+04  0.65864270000E+03 0.  0.
    8880022    1    1    2    0    0 -0.55982493818E+03 -0.87075091473E+02 -0.51520716258E+03  0.78090723288E+03  0.15294330000E+03 0.  0.
<mgrwt>
<rscale>  0 0.78761780E+03</rscale>
<asrwt>0</asrwt>
<pdfrwt beam="1">  1        2 0.30677608E+00 0.86879010E+03</pdfrwt>
<pdfrwt beam="2">  1       -2 0.42006742E-01 0.86879010E+03</pdfrwt>
<totfact> 0.36779811E+01</totfact>
</mgrwt>
</event>
<event>
 4    1  0.5223852E-007  0.9096412E+03  0.7818608E-02  0.9510728E-01
          2   -1    0    0  501    0  0.00000000000E+00  0.00000000000E+00  0.10796144745E+04  0.10796144745E+04  0.25500000000E-02 0. -1.
         -2   -1    0    0    0  501 -0.00000000000E+00 -0.00000000000E+00 -0.11637062269E+04  0.11637062269E+04  0.25500000000E-02 0.  1.
    8880023    1    1    2    0    0  0.39168816735E+03  0.49011967919E+03 -0.84760181727E+03  0.12433326053E+04  0.65864270000E+03 0.  1.
    8880022    1    1    2    0    0 -0.39168816735E+03 -0.49011967919E+03  0.76351006483E+03  0.99998809617E+03  0.15294330000E+03 0.  0.
<mgrwt>
<rscale>  0 0.83497471E+03</rscale>
<asrwt>0</asrwt>
<pdfrwt beam="1">  1        2 0.16609453E+00 0.90964121E+03</pdfrwt>
<pdfrwt beam="2">  1       -2 0.17903173E+00 0.90964121E+03</pdfrwt>
<totfact> 0.41360400E+00</totfact>
</mgrwt>
</event>
<event>
 4    1  0.5223852E-007  0.8563421E+03  0.7818608E-02  0.9600103E-01
         -2   -1    0    0    0  501 -0.00000000000E+00  0.00000000000E+00  0.12160156406E+04  0.12160156406E+04  0.25500000000E-02 0.  1.
          2   -1    0    0  501    0  0.00000000000E+00 -0.00000000000E+00 -0.63256087186E+03  0.63256087186E+03  0.25500000000E-02 0. -1.
    8880023    1    1    2    0    0 -0.16335336035E+03 -0.52232875695E+03 -0.20130485990E+03  0.87968488878E+03  0.65864270000E+03 0.  0.
    8880022    1    1    2    0    0  0.16335336035E+03  0.52232875695E+03  0.78475962863E+03  0.96889162367E+03  0.15294330000E+03 0.  0.
<mgrwt>
<rscale>  0 0.77289331E+03</rscale>
<asrwt>0</asrwt>
<pdfrwt beam="1">  1        2 0.97317059E-01 0.85634214E+03</pdfrwt>
<pdfrwt beam="2">  1       -2 0.18707933E+00 0.85634214E+03</pdfrwt>
<totfact> 0.75931702E+00</totfact>
</mgrwt>
</event>
<event>
 4    1  0.5223852E-007  0.7780584E+03  0.7818608E-02  0.9760418E-01
          2   -1    0    0  501    0  0.00000000000E+00  0.00000000000E+00  0.28103147866E+04  0.28103147866E+04  0.25500000000E-02 0. -1.
         -2   -1    0    0    0  501 -0.00000000000E+00 -0.00000000000E+00 -0.25585421190E+03  0.25585421191E+03  0.25500000000E-02 0.  1.
    8880023    1    1    2    0    0  0.32763676579E+03 -0.25341435650E+03  0.41538298315E+03  0.88199655064E+03  0.65864270000E+03 0.  1.
    8880022    1    1    2    0    0 -0.32763676579E+03  0.25341435650E+03  0.21390775916E+04  0.21841724479E+04  0.15294330000E+03 0.  0.
<mgrwt>
<rscale>  0 0.67530711E+03</rscale>
<asrwt>0</asrwt>
<pdfrwt beam="1">  1        2 0.43235611E+00 0.77805841E+03</pdfrwt>
<pdfrwt beam="2">  1       -2 0.39362188E-01 0.77805841E+03</pdfrwt>
<totfact> 0.14618040E+01</totfact>
</mgrwt>
</event>
<event>
 4    1  0.5223852E-007  0.9483555E+03  0.7818608E-02  0.9452484E-01
          2   -1    0    0  501    0  0.00000000000E+00  0.00000000000E+00  0.17959879763E+04  0.17959879763E+04  0.25500000000E-02 0. -1.
         -2   -1    0    0    0  501 -0.00000000000E+00 -0.00000000000E+00 -0.92669107701E+03  0.92669107702E+03  0.25500000000E-02 0.  1.
    8880023    1    1    2    0    0 -0.35856751480E+03 -0.58051462416E+03 -0.58130415255E+03  0.11123365568E+04  0.65864270000E+03 0.  1.
    8880022    1    1    2    0    0  0.35856751480E+03  0.58051462416E+03  0.14506010518E+04  0.16103424965E+04  0.15294330000E+03 0.  0.
<mgrwt>
<rscale>  0 0.87879481E+03</rscale>
<asrwt>0</asrwt>
<pdfrwt beam="1">  1        2 0.27630584E+00 0.94835547E+03</pdfrwt>
<pdfrwt beam="2">  1       -2 0.14256786E+00 0.94835547E+03</pdfrwt>
<totfact> 0.29773422E+00</totfact>
</mgrwt>
</event>
<event>
 4    1  0.5223852E-007  0.7420321E+03  0.7818608E-02  0.9854067E-01
         -2   -1    0    0    0  501 -0.00000000000E+00  0.00000000000E+00  0.77823824212E+03  0.77823824213E+03  0.25500000000E-02 0.  1.
          2   -1    0    0  501    0  0.00000000000E+00 -0.00000000000E+00 -0.71223282732E+03  0.71223282732E+03  0.25500000000E-02 0. -1.
    8880023    1    1    2    0    0 -0.56947647586E+02 -0.33698429013E+03  0.51694603594E+03  0.90434775208E+03  0.65864270000E+03 0.  0.
    8880022    1    1    2    0    0  0.56947647586E+02  0.33698429013E+03 -0.45094062113E+03  0.58612331737E+03  0.15294330000E+03 0.  0.
<mgrwt>
<rscale>  0 0.62539997E+03</rscale>
<asrwt>0</asrwt>
<pdfrwt beam="1">  1        2 0.10957428E+00 0.74203211E+03</pdfrwt>
<pdfrwt beam="2">  1       -2 0.11972896E+00 0.74203211E+03</pdfrwt>
<totfact> 0.21714783E+01</totfact>
</mgrwt>
</event>
<event>
 4    1  0.5223852E-007  0.9083777E+03  0.7818608E-02  0.9512714E-01
         -2   -1    0    0    0  501 -0.00000000000E+00  0.00000000000E+00  0.55556537565E+03  0.55556537565E+03  0.25500000000E-02 0.  1.
          2   -1    0    0  501    0  0.00000000000E+00 -0.00000000000E+00 -0.21246006620E+04  0.21246006620E+04  0.25500000000E-02 0. -1.
    8880023    1    1    2    0    0  0.23705014216E+03  0.57891882880E+03  0.77984291351E+02  0.91171900068E+03  0.65864270000E+03 0.  0.
    8880022    1    1    2    0    0 -0.23705014216E+03 -0.57891882880E+03 -0.16470195777E+04  0.17684470370E+04  0.15294330000E+03 0.  0.
<mgrwt>
<rscale>  0 0.83352898E+03</rscale>
<asrwt>0</asrwt>
<pdfrwt beam="1">  1        2 0.32686164E+00 0.90837767E+03</pdfrwt>
<pdfrwt beam="2">  1       -2 0.85471597E-01 0.90837767E+03</pdfrwt>
<totfact> 0.68751813E+00</totfact>
</mgrwt>
</event>
<event>
 4    1  0.5223852E-007  0.7540988E+03  0.7818608E-02  0.9820632E-01
         -2   -1    0    0    0  501 -0.00000000000E+00  0.00000000000E+00  0.27179989664E+03  0.27179989666E+03  0.25500000000E-02 0.  1.
          2   -1    0    0  501    0  0.00000000000E+00 -0.00000000000E+00 -0.27253036768E+04  0.27253036768E+04  0.25500000000E-02 0. -1.
    8880023    1    1    2    0    0 -0.25586494527E+03  0.26341587763E+03 -0.30724052018E+03  0.81428602979E+03  0.65864270000E+03 0.  0.
    8880022    1    1    2    0    0  0.25586494527E+03 -0.26341587763E+03 -0.21462632600E+04  0.21828175437E+04  0.15294330000E+03 0. -1.
<mgrwt>
<rscale>  0 0.64266986E+03</rscale>
<asrwt>0</asrwt>
<pdfrwt beam="1">  1        2 0.41927747E+00 0.75409880E+03</pdfrwt>
<pdfrwt beam="2">  1       -2 0.41815371E-01 0.75409880E+03</pdfrwt>
<totfact> 0.14629723E+01</totfact>
</mgrwt>
</event>
<event>
 4    1  0.5223852E-007  0.7191939E+03  0.7818608E-02  0.9925323E-01
         -2   -1    0    0    0  501 -0.00000000000E+00  0.00000000000E+00  0.41198232728E+03  0.41198232729E+03  0.25500000000E-02 0.  1.
          2   -1    0    0  501    0  0.00000000000E+00 -0.00000000000E+00 -0.15112133420E+04  0.15112133420E+04  0.25500000000E-02 0. -1.
    8880023    1    1    2    0    0 -0.80248254307E+02  0.27747059305E+03  0.57201008136E+02  0.72146508850E+03  0.65864270000E+03 0.  1.
    8880022    1    1    2    0    0  0.80248254307E+02 -0.27747059305E+03 -0.11564320229E+04  0.12017305808E+04  0.15294330000E+03 0.  0.
<mgrwt>
<rscale>  0 0.59049575E+03</rscale>
<asrwt>0</asrwt>
<pdfrwt beam="1">  1        2 0.23249436E+00 0.71919394E+03</pdfrwt>
<pdfrwt beam="2">  1       -2 0.63381897E-01 0.71919394E+03</pdfrwt>
<totfact> 0.29613872E+01</totfact>
</mgrwt>
</event>
<event>
 4    1  0.5223852E-007  0.8178024E+03  0.7818608E-02  0.9673548E-01
         -2   -1    0    0    0  501 -0.00000000000E+00  0.00000000000E+00  0.47784801301E+03  0.47784801302E+03  0.25500000000E-02 0.  1.
          2   -1    0    0  501    0  0.00000000000E+00 -0.00000000000E+00 -0.18995856272E+04  0.18995856272E+04  0.25500000000E-02 0. -1.
    8880023    1    1    2    0    0 -0.17821316076E+02  0.48443057344E+03  0.51050396269E+02  0.81939424517E+03  0.65864270000E+03 0.  1.
    8880022    1    1    2    0    0  0.17821316076E+02 -0.48443057344E+03 -0.14727880105E+04  0.15580393951E+04  0.15294330000E+03 0.  0.
<mgrwt>
<rscale>  0 0.72613793E+03</rscale>
<asrwt>0</asrwt>
<pdfrwt beam="1">  1        2 0.29224394E+00 0.81780241E+03</pdfrwt>
<pdfrwt beam="2">  1       -2 0.73515080E-01 0.81780241E+03</pdfrwt>
<totfact> 0.12974558E+01</totfact>
</mgrwt>
</event>
<event>
 4    1  0.5223852E-007  0.6632758E+03  0.7818608E-02  0.1021026E+00
         -2   -1    0    0    0  501 -0.00000000000E+00  0.00000000000E+00  0.39772102912E+03  0.39772102913E+03  0.25500000000E-02 0.  1.
          2   -1    0    0  501    0  0.00000000000E+00 -0.00000000000E+00 -0.62053106372E+03  0.62053106373E+03  0.25500000000E-02 0. -1.
    8880023    1    1    2    0    0 -0.66102496464E+01 -0.77980285792E+02  0.82033451683E+02  0.66832949496E+03  0.65864270000E+03 0.  1.
    8880022    1    1    2    0    0  0.66102496464E+01  0.77980285792E+02 -0.30484348628E+03  0.34992259789E+03  0.15294330000E+03 0.  0.
<mgrwt>
<rscale>  0 0.47318211E+03</rscale>
<asrwt>0</asrwt>
<pdfrwt beam="1">  1        2 0.95466317E-01 0.66327583E+03</pdfrwt>
<pdfrwt beam="2">  1       -2 0.61187851E-01 0.66327583E+03</pdfrwt>
<totfact> 0.12019455E+02</totfact>
</mgrwt>
</event>
<event>
 4    1  0.5223852E-007  0.8488861E+03  0.7818608E-02  0.9613647E-01
         -2   -1    0    0    0  501 -0.00000000000E+00  0.00000000000E+00  0.29391716290E+03  0.29391716292E+03  0.25500000000E-02 0.  1.
          2   -1    0    0  501    0  0.00000000000E+00 -0.00000000000E+00 -0.24474020436E+04  0.24474020436E+04  0.25500000000E-02 0. -1.
    8880023    1    1    2    0    0  0.51581141426E+03  0.14399977157E+03 -0.47478239990E+03  0.97263861881E+03  0.65864270000E+03 0.  0.
    8880022    1    1    2    0    0 -0.51581141426E+03 -0.14399977157E+03 -0.16787024808E+04  0.17686805877E+04  0.15294330000E+03 0.  0.
<mgrwt>
<rscale>  0 0.76399471E+03</rscale>
<asrwt>0</asrwt>
<pdfrwt beam="1">  1        2 0.37652338E+00 0.84888607E+03</pdfrwt>
<pdfrwt beam="2">  1       -2 0.45218027E-01 0.84888607E+03</pdfrwt>
<totfact> 0.17839774E+01</totfact>
</mgrwt>
</event>
<event>
 4    1  0.5223852E-007  0.6915864E+03  0.7818608E-02  0.1003408E+00
          2   -1    0    0  501    0  0.00000000000E+00  0.00000000000E+00  0.15712674988E+04  0.15712674988E+04  0.25500000000E-02 0. -1.
         -2   -1    0    0    0  501 -0.00000000000E+00 -0.00000000000E+00 -0.16162056951E+03  0.16162056953E+03  0.25500000000E-02 0.  1.
    8880023    1    1    2    0    0  0.19955445437E+03  0.68260983778E+02  0.73271182329E+03  0.10075506759E+04  0.65864270000E+03 0.  1.
    8880022    1    1    2    0    0 -0.19955445437E+03 -0.68260983778E+02  0.67693510596E+03  0.72533739243E+03  0.15294330000E+03 0. -1.
<mgrwt>
<rscale>  0 0.54181013E+03</rscale>
<asrwt>0</asrwt>
<pdfrwt beam="1">  1        2 0.24173346E+00 0.69158640E+03</pdfrwt>
<pdfrwt beam="2">  1       -2 0.24864703E-01 0.69158640E+03</pdfrwt>
<totfact> 0.17112755E+02</totfact>
</mgrwt>
</event>
<event>
 4    1  0.5223852E-007  0.8316096E+03  0.7818608E-02  0.9646209E-01
          2   -1    0    0  501    0  0.00000000000E+00  0.00000000000E+00  0.14239157319E+04  0.14239157319E+04  0.25500000000E-02 0. -1.
         -2   -1    0    0    0  501 -0.00000000000E+00 -0.00000000000E+00 -0.66322578631E+03  0.66322578631E+03  0.25500000000E-02 0.  1.
    8880023    1    1    2    0    0 -0.45432993149E+03 -0.22660219455E+03 -0.31387703728E+03  0.88887189291E+03  0.65864270000E+03 0.  0.
    8880022    1    1    2    0    0  0.45432993149E+03  0.22660219455E+03  0.10745669828E+04  0.11982696253E+04  0.15294330000E+03 0.  0.
<mgrwt>
<rscale>  0 0.74311838E+03</rscale>
<asrwt>0</asrwt>
<pdfrwt beam="1">  1        2 0.21906396E+00 0.83160955E+03</pdfrwt>
<pdfrwt beam="2">  1       -2 0.10203474E+00 0.83160955E+03</pdfrwt>
<totfact> 0.11181879E+01</totfact>
</mgrwt>
</event>
<event>
 4    1  0.5223852E-007  0.6661806E+03  0.7818608E-02  0.1018563E+00
          2   -1    0    0  501    0  0.00000000000E+00  0.00000000000E+00  0.16693119219E+04  0.16693119219E+04  0.25500000000E-02 0. -1.
         -2   -1    0    0    0  501 -0.00000000000E+00 -0.00000000000E+00 -0.25058546588E+03  0.25058546590E+03  0.25500000000E-02 0.  1.
    8880023    1    1    2    0    0  0.88681241817E+02  0.46065371368E+02  0.21153418151E+03  0.69895872360E+03  0.65864270000E+03 0.  0.
    8880022    1    1    2    0    0 -0.88681241817E+02 -0.46065371368E+02  0.12071922745E+04  0.12209386642E+04  0.15294330000E+03 0. -1.
<mgrwt>
<rscale>  0 0.48208829E+03</rscale>
<asrwt>0</asrwt>
<pdfrwt beam="1">  1        2 0.25681721E+00 0.66618060E+03</pdfrwt>
<pdfrwt beam="2">  1       -2 0.38551611E-01 0.66618060E+03</pdfrwt>
<totfact> 0.66935779E+01</totfact>
</mgrwt>
</event>
<event>
 4    1  0.5223852E-007  0.7239136E+03  0.7818608E-02  0.9909559E-01
          2   -1    0    0  501    0  0.00000000000E+00  0.00000000000E+00  0.40211461594E+04  0.40211461594E+04  0.25500000000E-02 0. -1.
         -2   -1    0    0    0  501 -0.00000000000E+00 -0.00000000000E+00 -0.15915327296E+03  0.15915327298E+03  0.25500000000E-02 0.  1.
    8880023    1    1    2    0    0  0.20266195823E+03 -0.22174053708E+03  0.72252854954E+03  0.10227895415E+04  0.65864270000E+03 0.  1.
    8880022    1    1    2    0    0 -0.20266195823E+03  0.22174053708E+03  0.31394643370E+04  0.31575098909E+04  0.15294330000E+03 0.  0.
<mgrwt>
<rscale>  0 0.59800227E+03</rscale>
<asrwt>0</asrwt>
<pdfrwt beam="1">  1        2 0.61863782E+00 0.72391363E+03</pdfrwt>
<pdfrwt beam="2">  1       -2 0.24485121E-01 0.72391363E+03</pdfrwt>
<totfact> 0.54389146E+00</totfact>
</mgrwt>
</event>
<event>
 4    1  0.5223852E-007  0.1277800E+04  0.7818608E-02  0.9084972E-01
         -2   -1    0    0    0  501 -0.00000000000E+00  0.00000000000E+00  0.20975397449E+04  0.20975397449E+04  0.25500000000E-02 0.  1.
          2   -1    0    0  501    0  0.00000000000E+00 -0.00000000000E+00 -0.17826830210E+04  0.17826830210E+04  0.25500000000E-02 0. -1.
    8880023    1    1    2    0    0  0.10057004784E+04  0.43304695351E+03  0.16881296478E+04  0.21172045320E+04  0.65864270000E+03 0.  0.
    8880022    1    1    2    0    0 -0.10057004784E+04 -0.43304695351E+03 -0.13732729240E+04  0.17630182339E+04  0.15294330000E+03 0.  0.
<mgrwt>
<rscale>  0 0.12323863E+04</rscale>
<asrwt>0</asrwt>
<pdfrwt beam="1">  1        2 0.27425892E+00 0.12778002E+04</pdfrwt>
<pdfrwt beam="2">  1       -2 0.32269842E+00 0.12778002E+04</pdfrwt>
<totfact> 0.19654053E-01</totfact>
</mgrwt>
</event>
<event>
 4    1  0.5223852E-007  0.7022506E+03  0.7818608E-02  0.9987990E-01
          2   -1    0    0  501    0  0.00000000000E+00  0.00000000000E+00  0.10132239169E+04  0.10132239169E+04  0.25500000000E-02 0. -1.
         -2   -1    0    0    0  501 -0.00000000000E+00 -0.00000000000E+00 -0.25145157273E+03  0.25145157275E+03  0.25500000000E-02 0.  1.
    8880023    1    1    2    0    0  0.15957702706E+03  0.18406748929E+03  0.64738447170E+03  0.95512435245E+03  0.65864270000E+03 0. -1.
    8880022    1    1    2    0    0 -0.15957702706E+03 -0.18406748929E+03  0.11438787251E+03  0.30955113725E+03  0.15294330000E+03 0. -1.
<mgrwt>
<rscale>  0 0.56180003E+03</rscale>
<asrwt>0</asrwt>
<pdfrwt beam="1">  1        2 0.15588060E+00 0.70225058E+03</pdfrwt>
<pdfrwt beam="2">  1       -2 0.38684858E-01 0.70225058E+03</pdfrwt>
<totfact> 0.15824246E+02</totfact>
</mgrwt>
</event>
<event>
 4    1  0.5223852E-007  0.8290214E+03  0.7818608E-02  0.9651239E-01
         -2   -1    0    0    0  501 -0.00000000000E+00  0.00000000000E+00  0.36050328205E+03  0.36050328206E+03  0.25500000000E-02 0.  1.
          2   -1    0    0  501    0  0.00000000000E+00 -0.00000000000E+00 -0.21012908861E+04  0.21012908861E+04  0.25500000000E-02 0. -1.
    8880023    1    1    2    0    0  0.49979437570E+03  0.60595857188E+02 -0.22754400617E+03  0.85968177653E+03  0.65864270000E+03 0.  1.
    8880022    1    1    2    0    0 -0.49979437570E+03 -0.60595857188E+02 -0.15132435979E+04  0.16021123917E+04  0.15294330000E+03 0.  0.
<mgrwt>
<rscale>  0 0.73995690E+03</rscale>
<asrwt>0</asrwt>
<pdfrwt beam="1">  1        2 0.32327551E+00 0.82902140E+03</pdfrwt>
<pdfrwt beam="2">  1       -2 0.55462045E-01 0.82902140E+03</pdfrwt>
<totfact> 0.18379237E+01</totfact>
</mgrwt>
</event>
<event>
 4    1  0.5223852E-007  0.7100577E+03  0.7818608E-02  0.9957787E-01
          2   -1    0    0  501    0  0.00000000000E+00  0.00000000000E+00  0.52656452135E+03  0.52656452136E+03  0.25500000000E-02 0. -1.
         -2   -1    0    0    0  501 -0.00000000000E+00 -0.00000000000E+00 -0.14809494911E+04  0.14809494911E+04  0.25500000000E-02 0.  1.
    8880023    1    1    2    0    0 -0.16729691421E+03  0.20587233651E+03 -0.13391635879E+04  0.15157641630E+04  0.65864270000E+03 0.  1.
    8880022    1    1    2    0    0  0.16729691421E+03 -0.20587233651E+03  0.38477861814E+03  0.49174984946E+03  0.15294330000E+03 0.  0.
<mgrwt>
<rscale>  0 0.57540594E+03</rscale>
<asrwt>0</asrwt>
<pdfrwt beam="1">  1        2 0.81009927E-01 0.71005766E+03</pdfrwt>
<pdfrwt beam="2">  1       -2 0.22783838E+00 0.71005766E+03</pdfrwt>
<totfact> 0.52652247E+00</totfact>
</mgrwt>
</event>
<event>
 4    1  0.5223852E-007  0.9587320E+03  0.7818608E-02  0.9437660E-01
          2   -1    0    0  501    0  0.00000000000E+00  0.00000000000E+00  0.40617379945E+04  0.40617379945E+04  0.25500000000E-02 0. -1.
         -2   -1    0    0    0  501 -0.00000000000E+00 -0.00000000000E+00 -0.50493923302E+03  0.50493923303E+03  0.25500000000E-02 0.  1.
    8880023    1    1    2    0    0 -0.69647055389E+03 -0.16901690416E+02  0.20278913277E+02  0.95894647409E+03  0.65864270000E+03 0.  0.
    8880022    1    1    2    0    0  0.69647055389E+03  0.16901690416E+02  0.35365198482E+04  0.36077307534E+04  0.15294330000E+03 0.  0.
<mgrwt>
<rscale>  0 0.89040138E+03</rscale>
<asrwt>0</asrwt>
<pdfrwt beam="1">  1        2 0.62488278E+00 0.95873203E+03</pdfrwt>
<pdfrwt beam="2">  1       -2 0.77682957E-01 0.95873203E+03</pdfrwt>
<totfact> 0.47856625E-01</totfact>
</mgrwt>
</event>
<event>
 4    1  0.5223852E-007  0.6746161E+03  0.7818608E-02  0.1012549E+00
          2   -1    0    0  501    0  0.00000000000E+00  0.00000000000E+00  0.26298136873E+04  0.26298136873E+04  0.25500000000E-02 0. -1.
         -2   -1    0    0    0  501 -0.00000000000E+00 -0.00000000000E+00 -0.92468761210E+02  0.92468761245E+02  0.25500000000E-02 0.  1.
    8880023    1    1    2    0    0 -0.11877762280E+03  0.84785518346E+02  0.12761230727E+04  0.14434670106E+04  0.65864270000E+03 0.  1.
    8880022    1    1    2    0    0  0.11877762280E+03 -0.84785518346E+02  0.12612218534E+04  0.12788154379E+04  0.15294330000E+03 0.  0.
<mgrwt>
<rscale>  0 0.50473897E+03</rscale>
<asrwt>0</asrwt>
<pdfrwt beam="1">  1        2 0.40458671E+00 0.67461612E+03</pdfrwt>
<pdfrwt beam="2">  1       -2 0.14225964E-01 0.67461612E+03</pdfrwt>
<totfact> 0.11777460E+02</totfact>
</mgrwt>
</event>
<event>
 4    1  0.5223852E-007  0.1105123E+04  0.7818608E-02  0.9255374E-01
          2   -1    0    0  501    0  0.00000000000E+00  0.00000000000E+00  0.25174429332E+04  0.25174429332E+04  0.25500000000E-02 0. -1.
         -2   -1    0    0    0  501 -0.00000000000E+00 -0.00000000000E+00 -0.14038740853E+04  0.14038740853E+04  0.25500000000E-02 0.  1.
    8880023    1    1    2    0    0 -0.27276927701E+03 -0.84444246211E+03 -0.10830117347E+04  0.15473237457E+04  0.65864270000E+03 0.  0.
    8880022    1    1    2    0    0  0.27276927701E+03  0.84444246211E+03  0.21965805826E+04  0.23739932727E+04  0.15294330000E+03 0. -1.
<mgrwt>
<rscale>  0 0.10499710E+04</rscale>
<asrwt>0</asrwt>
<pdfrwt beam="1">  1        2 0.38729891E+00 0.11051228E+04</pdfrwt>
<pdfrwt beam="2">  1       -2 0.21598063E+00 0.11051228E+04</pdfrwt>
<totfact> 0.35310317E-01</totfact>
</mgrwt>
</event>
<event>
 4    1  0.5223852E-007  0.1035447E+04  0.7818608E-02  0.9336584E-01
          2   -1    0    0  501    0  0.00000000000E+00  0.00000000000E+00  0.11631870569E+04  0.11631870569E+04  0.25500000000E-02 0. -1.
         -2   -1    0    0    0  501 -0.00000000000E+00 -0.00000000000E+00 -0.88541946495E+03  0.88541946495E+03  0.25500000000E-02 0.  1.
    8880023    1    1    2    0    0 -0.46488705801E+03  0.64978518030E+03 -0.26731840274E+03  0.10693970694E+04  0.65864270000E+03 0.  0.
    8880022    1    1    2    0    0  0.46488705801E+03 -0.64978518030E+03  0.54508599469E+03  0.97920945250E+03  0.15294330000E+03 0.  0.
<mgrwt>
<rscale>  0 0.97483537E+03</rscale>
<asrwt>0</asrwt>
<pdfrwt beam="1">  1        2 0.17895186E+00 0.10354472E+04</pdfrwt>
<pdfrwt beam="2">  1       -2 0.13621838E+00 0.10354472E+04</pdfrwt>
<totfact> 0.75954612E+00</totfact>
</mgrwt>
</event>
<event>
 4    1  0.5223852E-007  0.8229133E+03  0.7818608E-02  0.9663281E-01
         -2   -1    0    0    0  501 -0.00000000000E+00  0.00000000000E+00  0.10812207347E+04  0.10812207347E+04  0.25500000000E-02 0.  1.
          2   -1    0    0  501    0  0.00000000000E+00 -0.00000000000E+00 -0.11993868336E+04  0.11993868337E+04  0.25500000000E-02 0. -1.
    8880023    1    1    2    0    0  0.15386242517E+02  0.49309162055E+03  0.85012694110E+03  0.11831745877E+04  0.65864270000E+03 0.  1.
    8880022    1    1    2    0    0 -0.15386242517E+02 -0.49309162055E+03 -0.96829304003E+03  0.10974329807E+04  0.15294330000E+03 0.  0.
<mgrwt>
<rscale>  0 0.73245715E+03</rscale>
<asrwt>0</asrwt>
<pdfrwt beam="1">  1        2 0.18452105E+00 0.82291329E+03</pdfrwt>
<pdfrwt beam="2">  1       -2 0.16634165E+00 0.82291329E+03</pdfrwt>
<totfact> 0.43451088E+00</totfact>
</mgrwt>
</event>
<event>
 4    1  0.5223852E-007  0.7977590E+03  0.7818608E-02  0.9715663E-01
          2   -1    0    0  501    0  0.00000000000E+00  0.00000000000E+00  0.14068720755E+04  0.14068720755E+04  0.25500000000E-02 0. -1.
         -2   -1    0    0    0  501 -0.00000000000E+00 -0.00000000000E+00 -0.40441554339E+03  0.40441554340E+03  0.25500000000E-02 0.  1.
    8880023    1    1    2    0    0  0.12082560051E+03 -0.43360169078E+03  0.11701356229E+03  0.80629500309E+03  0.65864270000E+03 0.  0.
    8880022    1    1    2    0    0 -0.12082560051E+03  0.43360169078E+03  0.88544296979E+03  0.10049926158E+04  0.15294330000E+03 0.  0.
<mgrwt>
<rscale>  0 0.70091857E+03</rscale>
<asrwt>0</asrwt>
<pdfrwt beam="1">  1        2 0.21644186E+00 0.79775902E+03</pdfrwt>
<pdfrwt beam="2">  1       -2 0.62217776E-01 0.79775902E+03</pdfrwt>
<totfact> 0.34944085E+01</totfact>
</mgrwt>
</event>
<event>
 4    1  0.5223852E-007  0.7095597E+03  0.7818608E-02  0.9959640E-01
          2   -1    0    0  501    0  0.00000000000E+00  0.00000000000E+00  0.23861246558E+04  0.23861246558E+04  0.25500000000E-02 0. -1.
         -2   -1    0    0    0  501 -0.00000000000E+00 -0.00000000000E+00 -0.45184810610E+03  0.45184810611E+03  0.25500000000E-02 0.  1.
    8880023    1    1    2    0    0  0.21024039277E+02  0.26310209881E+03 -0.15520925731E+03  0.72633659170E+03  0.65864270000E+03 0.  1.
    8880022    1    1    2    0    0 -0.21024039277E+02 -0.26310209881E+03  0.20894858070E+04  0.21116361702E+04  0.15294330000E+03 0.  0.
<mgrwt>
<rscale>  0 0.57455944E+03</rscale>
<asrwt>0</asrwt>
<pdfrwt beam="1">  1        2 0.36709610E+00 0.70955967E+03</pdfrwt>
<pdfrwt beam="2">  1       -2 0.69515093E-01 0.70955967E+03</pdfrwt>
<totfact> 0.80478550E+00</totfact>
</mgrwt>
</event>
<event>
 4    1  0.5223852E-007  0.7557076E+03  0.7818608E-02  0.9816350E-01
          2   -1    0    0  501    0  0.00000000000E+00  0.00000000000E+00  0.20636069706E+04  0.20636069706E+04  0.25500000000E-02 0. -1.
         -2   -1    0    0    0  501 -0.00000000000E+00 -0.00000000000E+00 -0.42837904709E+03  0.42837904709E+03  0.25500000000E-02 0.  1.
    8880023    1    1    2    0    0  0.49884501242E+02  0.36714471035E+03 -0.52289861331E+02  0.75751444716E+03  0.65864270000E+03 0.  0.
    8880022    1    1    2    0    0 -0.49884501242E+02 -0.36714471035E+03  0.16875177848E+04  0.17344715705E+04  0.15294330000E+03 0.  0.
<mgrwt>
<rscale>  0 0.64492466E+03</rscale>
<asrwt>0</asrwt>
<pdfrwt beam="1">  1        2 0.31747799E+00 0.75570755E+03</pdfrwt>
<pdfrwt beam="2">  1       -2 0.65904470E-01 0.75570755E+03</pdfrwt>
<totfact> 0.13512546E+01</totfact>
</mgrwt>
</event>
<event>
 4    1  0.5223852E-007  0.7253277E+03  0.7818608E-02  0.9904955E-01
          2   -1    0    0  501    0  0.00000000000E+00  0.00000000000E+00  0.41996744339E+03  0.41996744340E+03  0.25500000000E-02 0. -1.
         -2   -1    0    0    0  501 -0.00000000000E+00 -0.00000000000E+00 -0.13890743408E+04  0.13890743408E+04  0.25500000000E-02 0.  1.
    8880023    1    1    2    0    0  0.18932994675E+02 -0.30320224226E+03 -0.11970147766E+04  0.13996230348E+04  0.65864270000E+03 0.  1.
    8880022    1    1    2    0    0 -0.18932994675E+02  0.30320224226E+03  0.22790787912E+03  0.40941874943E+03  0.15294330000E+03 0.  0.
<mgrwt>
<rscale>  0 0.60021768E+03</rscale>
<asrwt>0</asrwt>
<pdfrwt beam="1">  1        2 0.64610376E-01 0.72532769E+03</pdfrwt>
<pdfrwt beam="2">  1       -2 0.21370374E+00 0.72532769E+03</pdfrwt>
<totfact> 0.83517561E+00</totfact>
</mgrwt>
</event>
<event>
 4    1  0.5223852E-007  0.9082640E+03  0.7818608E-02  0.9512893E-01
          2   -1    0    0  501    0  0.00000000000E+00  0.00000000000E+00  0.24344399240E+04  0.24344399240E+04  0.25500000000E-02 0. -1.
         -2   -1    0    0    0  501 -0.00000000000E+00 -0.00000000000E+00 -0.26898045852E+03  0.26898045854E+03  0.25500000000E-02 0.  1.
    8880023    1    1    2    0    0 -0.39943301071E+03 -0.48123449389E+03  0.87456217787E+03  0.12608737357E+04  0.65864270000E+03 0.  0.
    8880022    1    1    2    0    0  0.39943301071E+03  0.48123449389E+03  0.12908972876E+04  0.14425466469E+04  0.15294330000E+03 0.  0.
<mgrwt>
<rscale>  0 0.83339892E+03</rscale>
<asrwt>0</asrwt>
<pdfrwt beam="1">  1        2 0.37452922E+00 0.90826404E+03</pdfrwt>
<pdfrwt beam="2">  1       -2 0.41381609E-01 0.90826404E+03</pdfrwt>
<totfact> 0.21469244E+01</totfact>
</mgrwt>
</event>
<event>
 4    1  0.5223852E-007  0.7194129E+03  0.7818608E-02  0.9924577E-01
         -2   -1    0    0    0  501 -0.00000000000E+00  0.00000000000E+00  0.55189142442E+03  0.55189142442E+03  0.25500000000E-02 0.  1.
          2   -1    0    0  501    0  0.00000000000E+00 -0.00000000000E+00 -0.60103787369E+03  0.60103787369E+03  0.25500000000E-02 0. -1.
    8880023    1    1    2    0    0 -0.27892088384E+03 -0.77122679000E+02  0.19408419846E+03  0.74513330983E+03  0.65864270000E+03 0.  0.
    8880022    1    1    2    0    0  0.27892088384E+03  0.77122679000E+02 -0.24323064773E+03  0.40779598829E+03  0.15294330000E+03 0.  0.
<mgrwt>
<rscale>  0 0.59084807E+03</rscale>
<asrwt>0</asrwt>
<pdfrwt beam="1">  1        2 0.92467366E-01 0.71941294E+03</pdfrwt>
<pdfrwt beam="2">  1       -2 0.84906372E-01 0.71941294E+03</pdfrwt>
<totfact> 0.60634991E+01</totfact>
</mgrwt>
</event>
<event>
 4    1  0.5223852E-007  0.7170199E+03  0.7818608E-02  0.9932802E-01
         -2   -1    0    0    0  501 -0.00000000000E+00  0.00000000000E+00  0.50868513169E+03  0.50868513170E+03  0.25500000000E-02 0.  1.
          2   -1    0    0  501    0  0.00000000000E+00 -0.00000000000E+00 -0.25123310132E+04  0.25123310132E+04  0.25500000000E-02 0. -1.
    8880023    1    1    2    0    0 -0.21418307697E+03  0.18556114315E+03  0.23866704141E+03  0.75569801589E+03  0.65864270000E+03 0.  1.
    8880022    1    1    2    0    0  0.21418307697E+03 -0.18556114315E+03 -0.22423129229E+04  0.22653181290E+04  0.15294330000E+03 0.  0.
<mgrwt>
<rscale>  0 0.58697583E+03</rscale>
<asrwt>0</asrwt>
<pdfrwt beam="1">  1        2 0.38651246E+00 0.71701990E+03</pdfrwt>
<pdfrwt beam="2">  1       -2 0.78259252E-01 0.71701990E+03</pdfrwt>
<totfact> 0.52538669E+00</totfact>
</mgrwt>
</event>
<event>
 4    1  0.5223852E-007  0.8194176E+03  0.7818608E-02  0.9670284E-01
          2   -1    0    0  501    0  0.00000000000E+00  0.00000000000E+00  0.41852261190E+03  0.41852261191E+03  0.25500000000E-02 0. -1.
         -2   -1    0    0    0  501 -0.00000000000E+00 -0.00000000000E+00 -0.10592462538E+04  0.10592462538E+04  0.25500000000E-02 0.  1.
    8880023    1    1    2    0    0  0.24470340583E+03  0.42161025495E+03 -0.36253496760E+03  0.89603391281E+03  0.65864270000E+03 0. -1.
    8880022    1    1    2    0    0 -0.24470340583E+03 -0.42161025495E+03 -0.27818867429E+03  0.58173495290E+03  0.15294330000E+03 0. -1.
<mgrwt>
<rscale>  0 0.72813944E+03</rscale>
<asrwt>0</asrwt>
<pdfrwt beam="1">  1        2 0.64388094E-01 0.81941758E+03</pdfrwt>
<pdfrwt beam="2">  1       -2 0.16296096E+00 0.81941758E+03</pdfrwt>
<totfact> 0.18248213E+01</totfact>
</mgrwt>
</event>
<event>
 4    1  0.5223852E-007  0.6961927E+03  0.7818608E-02  0.1001338E+00
          2   -1    0    0  501    0  0.00000000000E+00  0.00000000000E+00  0.37834854323E+04  0.37834854323E+04  0.25500000000E-02 0. -1.
         -2   -1    0    0    0  501 -0.00000000000E+00 -0.00000000000E+00 -0.62202371061E+02  0.62202371114E+02  0.25500000000E-02 0.  1.
    8880023    1    1    2    0    0  0.19254044895E+03  0.11748319972E+03  0.25747232650E+04  0.26671865747E+04  0.65864270000E+03 0.  0.
    8880022    1    1    2    0    0 -0.19254044895E+03 -0.11748319972E+03  0.11465597963E+04  0.11785012287E+04  0.15294330000E+03 0. -1.
<mgrwt>
<rscale>  0 0.55067544E+03</rscale>
<asrwt>0</asrwt>
<pdfrwt beam="1">  1        2 0.58207488E+00 0.69619274E+03</pdfrwt>
<pdfrwt beam="2">  1       -2 0.95695923E-02 0.69619274E+03</pdfrwt>
<totfact> 0.40981207E+01</totfact>
</mgrwt>
</event>
<event>
 4    1  0.5223852E-007  0.8487801E+03  0.7818608E-02  0.9613842E-01
          2   -1    0    0  501    0  0.00000000000E+00  0.00000000000E+00  0.16492244503E+04  0.16492244503E+04  0.25500000000E-02 0. -1.
         -2   -1    0    0    0  501 -0.00000000000E+00 -0.00000000000E+00 -0.41845070350E+03  0.41845070351E+03  0.25500000000E-02 0.  1.
    8880023    1    1    2    0    0 -0.14099322609E+03  0.51646715829E+03  0.16419913585E+03  0.86451661515E+03  0.65864270000E+03 0. -1.
    8880022    1    1    2    0    0  0.14099322609E+03 -0.51646715829E+03  0.10665746109E+04  0.12031585386E+04  0.15294330000E+03 0.  1.
<mgrwt>
<rscale>  0 0.76386776E+03</rscale>
<asrwt>0</asrwt>
<pdfrwt beam="1">  1        2 0.25372684E+00 0.84878008E+03</pdfrwt>
<pdfrwt beam="2">  1       -2 0.64377031E-01 0.84878008E+03</pdfrwt>
<totfact> 0.23672607E+01</totfact>
</mgrwt>
</event>
<event>
 4    1  0.5223852E-007  0.9071418E+03  0.7818608E-02  0.9514663E-01
          2   -1    0    0  501    0  0.00000000000E+00  0.00000000000E+00  0.13708127124E+04  0.13708127124E+04  0.25500000000E-02 0. -1.
         -2   -1    0    0    0  501 -0.00000000000E+00 -0.00000000000E+00 -0.74861194316E+03  0.74861194316E+03  0.25500000000E-02 0.  1.
    8880023    1    1    2    0    0  0.42428067518E+03  0.45725488448E+03 -0.33474599842E+03  0.96693392247E+03  0.65864270000E+03 0.  1.
    8880022    1    1    2    0    0 -0.42428067518E+03 -0.45725488448E+03  0.95694676769E+03  0.11524907331E+04  0.15294330000E+03 0.  0.
<mgrwt>
<rscale>  0 0.83211392E+03</rscale>
<asrwt>0</asrwt>
<pdfrwt beam="1">  1        2 0.21089426E+00 0.90714185E+03</pdfrwt>
<pdfrwt beam="2">  1       -2 0.11517107E+00 0.90714185E+03</pdfrwt>
<totfact> 0.88652512E+00</totfact>
</mgrwt>
</event>
<event>
 4    1  0.5223852E-007  0.7910545E+03  0.7818608E-02  0.9730483E-01
         -2   -1    0    0    0  501 -0.00000000000E+00  0.00000000000E+00  0.48704675011E+03  0.48704675012E+03  0.25500000000E-02 0.  1.
          2   -1    0    0  501    0  0.00000000000E+00 -0.00000000000E+00 -0.17049833926E+04  0.17049833926E+04  0.25500000000E-02 0. -1.
    8880023    1    1    2    0    0  0.40838288241E+03 -0.15868361057E+03  0.97592142289E+02  0.79705175454E+03  0.65864270000E+03 0.  1.
    8880022    1    1    2    0    0 -0.40838288241E+03  0.15868361057E+03 -0.13155287847E+04  0.13949783882E+04  0.15294330000E+03 0.  0.
<mgrwt>
<rscale>  0 0.69230522E+03</rscale>
<asrwt>0</asrwt>
<pdfrwt beam="1">  1        2 0.26230513E+00 0.79105453E+03</pdfrwt>
<pdfrwt beam="2">  1       -2 0.74930270E-01 0.79105453E+03</pdfrwt>
<totfact> 0.15946970E+01</totfact>
</mgrwt>
</event>
<event>
 4    1  0.5223852E-007  0.1333781E+04  0.7818608E-02  0.9036924E-01
          2   -1    0    0  501    0  0.00000000000E+00  0.00000000000E+00  0.18769478470E+04  0.18769478470E+04  0.25500000000E-02 0. -1.
         -2   -1    0    0    0  501 -0.00000000000E+00 -0.00000000000E+00 -0.11155330961E+04  0.11155330961E+04  0.25500000000E-02 0.  1.
    8880023    1    1    2    0    0  0.58685987159E+03 -0.10003781552E+04 -0.34990929763E+03  0.13789154017E+04  0.65864270000E+03 0.  0.
    8880022    1    1    2    0    0 -0.58685987159E+03  0.10003781552E+04  0.11113240485E+04  0.16135655413E+04  0.15294330000E+03 0.  0.
<mgrwt>
<rscale>  0 0.12907616E+04</rscale>
<asrwt>0</asrwt>
<pdfrwt beam="1">  1        2 0.28876121E+00 0.13337808E+04</pdfrwt>
<pdfrwt beam="2">  1       -2 0.17162048E+00 0.13337808E+04</pdfrwt>
<totfact> 0.15542185E+00</totfact>
</mgrwt>
</event>
<event>
 4    1  0.5223852E-007  0.6605121E+03  0.7818608E-02  0.1023638E+00
         -2   -1    0    0    0  501 -0.00000000000E+00  0.00000000000E+00  0.14277907432E+03  0.14277907434E+03  0.25500000000E-02 0.  1.
          2   -1    0    0  501    0  0.00000000000E+00 -0.00000000000E+00 -0.20876935063E+04  0.20876935063E+04  0.25500000000E-02 0. -1.
    8880023    1    1    2    0    0 -0.32336424981E+02 -0.37688638827E+02 -0.65375910422E+03  0.92934237528E+03  0.65864270000E+03 0.  1.
    8880022    1    1    2    0    0  0.32336424981E+02  0.37688638827E+02 -0.12911553278E+04  0.13011302054E+04  0.15294330000E+03 0.  0.
<mgrwt>
<rscale>  0 0.46396413E+03</rscale>
<asrwt>0</asrwt>
<pdfrwt beam="1">  1        2 0.32118359E+00 0.66051214E+03</pdfrwt>
<pdfrwt beam="2">  1       -2 0.21966013E-01 0.66051214E+03</pdfrwt>
<totfact> 0.11204221E+02</totfact>
</mgrwt>
</event>
<event>
 4    1  0.5223852E-007  0.9157695E+03  0.7818608E-02  0.9501176E-01
          2   -1    0    0  501    0  0.00000000000E+00  0.00000000000E+00  0.27608966771E+04  0.27608966771E+04  0.25500000000E-02 0. -1.
         -2   -1    0    0    0  501 -0.00000000000E+00 -0.00000000000E+00 -0.39602610112E+03  0.39602610112E+03  0.25500000000E-02 0.  1.
    8880023    1    1    2    0    0 -0.32304086411E+03 -0.54814982244E+03  0.25895245813E+03  0.95167757647E+03  0.65864270000E+03 0.  0.
    8880022    1    1    2    0    0  0.32304086411E+03  0.54814982244E+03  0.21059181179E+04  0.22052452018E+04  0.15294330000E+03 0.  0.
<mgrwt>
<rscale>  0 0.84197154E+03</rscale>
<asrwt>0</asrwt>
<pdfrwt beam="1">  1        2 0.42475335E+00 0.91576953E+03</pdfrwt>
<pdfrwt beam="2">  1       -2 0.60927090E-01 0.91576953E+03</pdfrwt>
<totfact> 0.63000573E+00</totfact>
</mgrwt>
</event>
<event>
 4    1  0.5223852E-007  0.6642398E+03  0.7818608E-02  0.1020180E+00
         -2   -1    0    0    0  501 -0.00000000000E+00  0.00000000000E+00  0.16340429835E+03  0.16340429837E+03  0.25500000000E-02 0.  1.
          2   -1    0    0  501    0  0.00000000000E+00 -0.00000000000E+00 -0.29236714154E+04  0.29236714154E+04  0.25500000000E-02 0. -1.
    8880023    1    1    2    0    0  0.21063389710E+02  0.83430830494E+02 -0.52961996631E+03  0.84953627635E+03  0.65864270000E+03 0.  1.
    8880022    1    1    2    0    0 -0.21063389710E+02 -0.83430830494E+02 -0.22306471508E+04  0.22375394374E+04  0.15294330000E+03 0.  0.
<mgrwt>
<rscale>  0 0.47621769E+03</rscale>
<asrwt>0</asrwt>
<pdfrwt beam="1">  1        2 0.44979557E+00 0.66423985E+03</pdfrwt>
<pdfrwt beam="2">  1       -2 0.25139125E-01 0.66423985E+03</pdfrwt>
<totfact> 0.29500471E+01</totfact>
</mgrwt>
</event>
<event>
 4    1  0.5223852E-007  0.1274198E+04  0.7818608E-02  0.9088168E-01
          2   -1    0    0  501    0  0.00000000000E+00  0.00000000000E+00  0.27168176340E+04  0.27168176340E+04  0.25500000000E-02 0. -1.
         -2   -1    0    0    0  501 -0.00000000000E+00 -0.00000000000E+00 -0.12809257848E+04  0.12809257848E+04  0.25500000000E-02 0.  1.
    8880023    1    1    2    0    0  0.10537768136E+04 -0.28164585125E+03  0.22787592215E+04  0.26108090229E+04  0.65864270000E+03 0.  0.
    8880022    1    1    2    0    0 -0.10537768136E+04  0.28164585125E+03 -0.84286737231E+03  0.13869343960E+04  0.15294330000E+03 0.  0.
<mgrwt>
<rscale>  0 0.12286197E+04</rscale>
<asrwt>0</asrwt>
<pdfrwt beam="1">  1        2 0.41797194E+00 0.12741979E+04</pdfrwt>
<pdfrwt beam="2">  1       -2 0.19706551E+00 0.12741979E+04</pdfrwt>
<totfact> 0.34934797E-01</totfact>
</mgrwt>
</event>
<event>
 4    1  0.5223852E-007  0.7095984E+03  0.7818608E-02  0.9959495E-01
          2   -1    0    0  501    0  0.00000000000E+00  0.00000000000E+00  0.22260102258E+04  0.22260102258E+04  0.25500000000E-02 0. -1.
         -2   -1    0    0    0  501 -0.00000000000E+00 -0.00000000000E+00 -0.15526605001E+03  0.15526605003E+03  0.25500000000E-02 0.  1.
    8880023    1    1    2    0    0 -0.15220609615E+03  0.21576138842E+03  0.77797931522E+03  0.10529870339E+04  0.65864270000E+03 0.  1.
    8880022    1    1    2    0    0  0.15220609615E+03 -0.21576138842E+03  0.12927648605E+04  0.13282892419E+04  0.15294330000E+03 0.  0.
<mgrwt>
<rscale>  0 0.57462535E+03</rscale>
<asrwt>0</asrwt>
<pdfrwt beam="1">  1        2 0.34246308E+00 0.70959839E+03</pdfrwt>
<pdfrwt beam="2">  1       -2 0.23887087E-01 0.70959839E+03</pdfrwt>
<totfact> 0.80570498E+01</totfact>
</mgrwt>
</event>
<event>
 4    1  0.6785045E-007  0.9310790E+03  0.7818608E-02  0.9477876E-01
         -2   -1    0    0    0  501 -0.00000000000E+00  0.00000000000E+00  0.67294083598E+03  0.67294083598E+03  0.25500000000E-02 0.  1.
          2   -1    0    0  501    0  0.00000000000E+00 -0.00000000000E+00 -0.34777841408E+04  0.34777841408E+04  0.25500000000E-02 0. -1.
    8880023    1    1    2    0    0 -0.15349779781E+03 -0.63995020341E+03  0.29610186133E+03  0.97702832882E+03  0.65864270000E+03 0.  0.
    8880022    1    1    2    0    0  0.15349779781E+03  0.63995020341E+03 -0.31009451661E+04  0.31736966480E+04  0.15294330000E+03 0.  0.
<mgrwt>
<rscale>  0 0.85934734E+03</rscale>
<asrwt>0</asrwt>
<pdfrwt beam="1">  1        2 0.53504370E+00 0.93107897E+03</pdfrwt>
<pdfrwt beam="2">  1       -2 0.10352936E+00 0.93107897E+03</pdfrwt>
<totfact> 0.67009788E-01</totfact>
</mgrwt>
</event>
<event>
 4    1  0.5223852E-007  0.6920198E+03  0.7818608E-02  0.1003207E+00
         -2   -1    0    0    0  501 -0.00000000000E+00  0.00000000000E+00  0.50061324818E+03  0.50061324819E+03  0.25500000000E-02 0.  1.
          2   -1    0    0  501    0  0.00000000000E+00 -0.00000000000E+00 -0.54302568843E+03  0.54302568843E+03  0.25500000000E-02 0. -1.
    8880023    1    1    2    0    0 -0.17809006312E+03 -0.11560787440E+03  0.16301742045E+03  0.71096141726E+03  0.65864270000E+03 0.  1.
    8880022    1    1    2    0    0  0.17809006312E+03  0.11560787440E+03 -0.20542986069E+03  0.33267751936E+03  0.15294330000E+03 0. -1.
<mgrwt>
<rscale>  0 0.54266118E+03</rscale>
<asrwt>0</asrwt>
<pdfrwt beam="1">  1        2 0.83542414E-01 0.69201984E+03</pdfrwt>
<pdfrwt beam="2">  1       -2 0.77017423E-01 0.69201984E+03</pdfrwt>
<totfact> 0.85385652E+01</totfact>
</mgrwt>
</event>
<event>
 4    1  0.5223852E-007  0.8330490E+03  0.7818608E-02  0.9643429E-01
          2   -1    0    0  501    0  0.00000000000E+00  0.00000000000E+00  0.13072734515E+04  0.13072734515E+04  0.25500000000E-02 0. -1.
         -2   -1    0    0    0  501 -0.00000000000E+00 -0.00000000000E+00 -0.38833293848E+03  0.38833293849E+03  0.25500000000E-02 0.  1.
    8880023    1    1    2    0    0  0.47509950415E+03 -0.18558249840E+03  0.78922346081E+03  0.11475383566E+04  0.65864270000E+03 0. -1.
    8880022    1    1    2    0    0 -0.47509950415E+03  0.18558249840E+03  0.12971705220E+03  0.54806803337E+03  0.15294330000E+03 0.  0.
<mgrwt>
<rscale>  0 0.74487261E+03</rscale>
<asrwt>0</asrwt>
<pdfrwt beam="1">  1        2 0.20111900E+00 0.83304898E+03</pdfrwt>
<pdfrwt beam="2">  1       -2 0.59743527E-01 0.83304898E+03</pdfrwt>
<totfact> 0.43272754E+01</totfact>
</mgrwt>
</event>
<event>
 4    1  0.5223852E-007  0.7620369E+03  0.7818608E-02  0.9799863E-01
          2   -1    0    0  501    0  0.00000000000E+00  0.00000000000E+00  0.20952736536E+04  0.20952736536E+04  0.25500000000E-02 0. -1.
         -2   -1    0    0    0  501 -0.00000000000E+00 -0.00000000000E+00 -0.32231080895E+03  0.32231080896E+03  0.25500000000E-02 0.  1.
    8880023    1    1    2    0    0  0.32223799292E+03  0.20749128055E+03  0.19504608880E+03  0.78660227473E+03  0.65864270000E+03 0.  1.
    8880022    1    1    2    0    0 -0.32223799292E+03 -0.20749128055E+03  0.15779167558E+04  0.16309821878E+04  0.15294330000E+03 0.  0.
<mgrwt>
<rscale>  0 0.65369919E+03</rscale>
<asrwt>0</asrwt>
<pdfrwt beam="1">  1        2 0.32234980E+00 0.76203685E+03</pdfrwt>
<pdfrwt beam="2">  1       -2 0.49586277E-01 0.76203685E+03</pdfrwt>
<totfact> 0.23524359E+01</totfact>
</mgrwt>
</event>
<event>
 4    1  0.5223852E-007  0.7469066E+03  0.7818608E-02  0.9840267E-01
          2   -1    0    0  501    0  0.00000000000E+00  0.00000000000E+00  0.11828341539E+04  0.11828341539E+04  0.25500000000E-02 0. -1.
         -2   -1    0    0    0  501 -0.00000000000E+00 -0.00000000000E+00 -0.13499092938E+04  0.13499092938E+04  0.25500000000E-02 0.  1.
    8880023    1    1    2    0    0 -0.26203821571E+03  0.23536191865E+03 -0.12096723673E+04  0.14216809423E+04  0.65864270000E+03 0.  1.
    8880022    1    1    2    0    0  0.26203821571E+03 -0.23536191865E+03  0.10425972274E+04  0.11110625054E+04  0.15294330000E+03 0.  0.
<mgrwt>
<rscale>  0 0.63245649E+03</rscale>
<asrwt>0</asrwt>
<pdfrwt beam="1">  1        2 0.18197448E+00 0.74690660E+03</pdfrwt>
<pdfrwt beam="2">  1       -2 0.20767835E+00 0.74690660E+03</pdfrwt>
<totfact> 0.23645564E+00</totfact>
</mgrwt>
</event>
<event>
 4    1  0.5223852E-007  0.7938497E+03  0.7818608E-02  0.9724255E-01
         -2   -1    0    0    0  501 -0.00000000000E+00  0.00000000000E+00  0.11789954858E+04  0.11789954858E+04  0.25500000000E-02 0.  1.
          2   -1    0    0  501    0  0.00000000000E+00 -0.00000000000E+00 -0.13244219773E+04  0.13244219773E+04  0.25500000000E-02 0. -1.
    8880023    1    1    2    0    0  0.26052388777E+03 -0.35848920340E+03  0.99354219426E+03  0.12717403442E+04  0.65864270000E+03 0.  1.
    8880022    1    1    2    0    0 -0.26052388777E+03  0.35848920340E+03 -0.11389686857E+04  0.12316771189E+04  0.15294330000E+03 0.  0.
<mgrwt>
<rscale>  0 0.69590823E+03</rscale>
<asrwt>0</asrwt>
<pdfrwt beam="1">  1        2 0.20375723E+00 0.79384974E+03</pdfrwt>
<pdfrwt beam="2">  1       -2 0.18138392E+00 0.79384974E+03</pdfrwt>
<totfact> 0.28933169E+00</totfact>
</mgrwt>
</event>
<event>
 4    1  0.5223852E-007  0.7529757E+03  0.7818608E-02  0.9823644E-01
          2   -1    0    0  501    0  0.00000000000E+00  0.00000000000E+00  0.55798825971E+03  0.55798825972E+03  0.25500000000E-02 0. -1.
         -2   -1    0    0    0  501 -0.00000000000E+00 -0.00000000000E+00 -0.88334600411E+03  0.88334600412E+03  0.25500000000E-02 0.  1.
    8880023    1    1    2    0    0  0.46209963366E+02 -0.36197628459E+03 -0.59739228516E+03  0.96117112937E+03  0.65864270000E+03 0.  1.
    8880022    1    1    2    0    0 -0.46209963366E+02  0.36197628459E+03  0.27203454075E+03  0.48016313446E+03  0.15294330000E+03 0.  0.
<mgrwt>
<rscale>  0 0.64108953E+03</rscale>
<asrwt>0</asrwt>
<pdfrwt beam="1">  1        2 0.85844348E-01 0.75297570E+03</pdfrwt>
<pdfrwt beam="2">  1       -2 0.13589938E+00 0.75297570E+03</pdfrwt>
<totfact> 0.21261817E+01</totfact>
</mgrwt>
</event>
<event>
 4    1  0.5223852E-007  0.7564276E+03  0.7818608E-02  0.9814445E-01
         -2   -1    0    0    0  501 -0.00000000000E+00  0.00000000000E+00  0.64011151993E+03  0.64011151993E+03  0.25500000000E-02 0.  1.
          2   -1    0    0  501    0  0.00000000000E+00 -0.00000000000E+00 -0.68473801549E+03  0.68473801549E+03  0.25500000000E-02 0. -1.
    8880023    1    1    2    0    0  0.35260579415E+03 -0.11849753249E+03  0.28143347293E+03  0.80708581775E+03  0.65864270000E+03 0.  0.
    8880022    1    1    2    0    0 -0.35260579415E+03  0.11849753249E+03 -0.32605996849E+03  0.51776371767E+03  0.15294330000E+03 0.  0.
<mgrwt>
<rscale>  0 0.64593054E+03</rscale>
<asrwt>0</asrwt>
<pdfrwt beam="1">  1        2 0.10534431E+00 0.75642760E+03</pdfrwt>
<pdfrwt beam="2">  1       -2 0.98478696E-01 0.75642760E+03</pdfrwt>
<totfact> 0.36539203E+01</totfact>
</mgrwt>
</event>
<event>
 4    1  0.5223852E-007  0.1168850E+04  0.7818608E-02  0.9188013E-01
         -2   -1    0    0    0  501 -0.00000000000E+00  0.00000000000E+00  0.15996028331E+04  0.15996028331E+04  0.25500000000E-02 0.  1.
          2   -1    0    0  501    0  0.00000000000E+00 -0.00000000000E+00 -0.10047551363E+04  0.10047551363E+04  0.25500000000E-02 0. -1.
    8880023    1    1    2    0    0 -0.92746331034E+03 -0.26872334517E+03 -0.37473104173E+03  0.12274501978E+04  0.65864270000E+03 0.  0.
    8880022    1    1    2    0    0  0.92746331034E+03  0.26872334517E+03  0.96957873850E+03  0.13769077716E+04  0.15294330000E+03 0.  0.
<mgrwt>
<rscale>  0 0.11178011E+04</rscale>
<asrwt>0</asrwt>
<pdfrwt beam="1">  1        2 0.15457771E+00 0.11688501E+04</pdfrwt>
<pdfrwt beam="2">  1       -2 0.24609274E+00 0.11688501E+04</pdfrwt>
<totfact> 0.16601054E+00</totfact>
</mgrwt>
</event>
<event>
 4    1  0.5223852E-007  0.8826798E+03  0.7818608E-02  0.9554428E-01
         -2   -1    0    0    0  501 -0.00000000000E+00  0.00000000000E+00  0.87311970172E+03  0.87311970172E+03  0.25500000000E-02 0.  1.
          2   -1    0    0  501    0  0.00000000000E+00 -0.00000000000E+00 -0.17243972924E+04  0.17243972924E+04  0.25500000000E-02 0. -1.
    8880023    1    1    2    0    0 -0.37424161760E+03  0.45305265675E+03  0.57084677672E+03  0.10511849252E+04  0.65864270000E+03 0.  1.
    8880022    1    1    2    0    0  0.37424161760E+03 -0.45305265675E+03 -0.14221243674E+04  0.15463320690E+04  0.15294330000E+03 0.  0.
<mgrwt>
<rscale>  0 0.80387275E+03</rscale>
<asrwt>0</asrwt>
<pdfrwt beam="1">  1        2 0.26529189E+00 0.88267984E+03</pdfrwt>
<pdfrwt beam="2">  1       -2 0.13432611E+00 0.88267984E+03</pdfrwt>
<totfact> 0.38367370E+00</totfact>
</mgrwt>
</event>
<event>
 4    1  0.5223852E-007  0.1171548E+04  0.7818608E-02  0.9185289E-01
         -2   -1    0    0    0  501 -0.00000000000E+00  0.00000000000E+00  0.64021999712E+03  0.64021999713E+03  0.25500000000E-02 0.  1.
          2   -1    0    0  501    0  0.00000000000E+00 -0.00000000000E+00 -0.20559663140E+04  0.20559663140E+04  0.25500000000E-02 0. -1.
    8880023    1    1    2    0    0 -0.38182355095E+03 -0.89046313552E+03 -0.12285675759E+04  0.16976166571E+04  0.65864270000E+03 0.  0.
    8880022    1    1    2    0    0  0.38182355095E+03  0.89046313552E+03 -0.18717874097E+03  0.99856965398E+03  0.15294330000E+03 0.  0.
<mgrwt>
<rscale>  0 0.11206573E+04</rscale>
<asrwt>0</asrwt>
<pdfrwt beam="1">  1        2 0.31630251E+00 0.11715477E+04</pdfrwt>
<pdfrwt beam="2">  1       -2 0.98495385E-01 0.11715477E+04</pdfrwt>
<totfact> 0.52297838E+00</totfact>
</mgrwt>
</event>
<event>
 4    1  0.5223852E-007  0.6823729E+03  0.7818608E-02  0.1008012E+00
         -2   -1    0    0    0  501 -0.00000000000E+00  0.00000000000E+00  0.22561819293E+04  0.22561819293E+04  0.25500000000E-02 0.  1.
          2   -1    0    0  501    0  0.00000000000E+00 -0.00000000000E+00 -0.20007579478E+03  0.20007579480E+03  0.25500000000E-02 0. -1.
    8880023    1    1    2    0    0  0.87000055770E+02  0.15573552847E+03  0.21079359859E+04  0.22156323908E+04  0.65864270000E+03 0.  0.
    8880022    1    1    2    0    0 -0.87000055770E+02 -0.15573552847E+03 -0.51829851305E+02  0.24062533331E+03  0.15294330000E+03 0.  0.
<mgrwt>
<rscale>  0 0.52272430E+03</rscale>
<asrwt>0</asrwt>
<pdfrwt beam="1">  1        2 0.30780891E-01 0.68237290E+03</pdfrwt>
<pdfrwt beam="2">  1       -2 0.34710492E+00 0.68237290E+03</pdfrwt>
<totfact> 0.29762496E+00</totfact>
</mgrwt>
</event>
<event>
 4    1  0.5223852E-007  0.7171799E+03  0.7818608E-02  0.9932246E-01
         -2   -1    0    0    0  501 -0.00000000000E+00  0.00000000000E+00  0.81677217895E+03  0.81677217895E+03  0.25500000000E-02 0.  1.
          2   -1    0    0  501    0  0.00000000000E+00 -0.00000000000E+00 -0.66167098677E+03  0.66167098677E+03  0.25500000000E-02 0. -1.
    8880023    1    1    2    0    0  0.11806708270E+03  0.25806386284E+03  0.59582892281E+03  0.93239428615E+03  0.65864270000E+03 0.  1.
    8880022    1    1    2    0    0 -0.11806708270E+03 -0.25806386284E+03 -0.44072773063E+03  0.54604887957E+03  0.15294330000E+03 0.  0.
<mgrwt>
<rscale>  0 0.58723629E+03</rscale>
<asrwt>0</asrwt>
<pdfrwt beam="1">  1        2 0.10179554E+00 0.71717989E+03</pdfrwt>
<pdfrwt beam="2">  1       -2 0.12565726E+00 0.71717989E+03</pdfrwt>
<totfact> 0.21159065E+01</totfact>
</mgrwt>
</event>
<event>
 4    1  0.5223852E-007  0.6797797E+03  0.7818608E-02  0.1009449E+00
         -2   -1    0    0    0  501 -0.00000000000E+00  0.00000000000E+00  0.28706897523E+03  0.28706897524E+03  0.25500000000E-02 0.  1.
          2   -1    0    0  501    0  0.00000000000E+00 -0.00000000000E+00 -0.99951501672E+03  0.99951501672E+03  0.25500000000E-02 0. -1.
    8880023    1    1    2    0    0 -0.16778167159E+03 -0.11814807440E+02 -0.17337992389E+03  0.70154193265E+03  0.65864270000E+03 0.  1.
    8880022    1    1    2    0    0  0.16778167159E+03  0.11814807440E+02 -0.53906611760E+03  0.58504205931E+03  0.15294330000E+03 0.  0.
<mgrwt>
<rscale>  0 0.51694400E+03</rscale>
<asrwt>0</asrwt>
<pdfrwt beam="1">  1        2 0.15377154E+00 0.67977973E+03</pdfrwt>
<pdfrwt beam="2">  1       -2 0.44164458E-01 0.67977973E+03</pdfrwt>
<totfact> 0.12473075E+02</totfact>
</mgrwt>
</event>
<event>
 4    1  0.5223852E-007  0.1146682E+04  0.7818608E-02  0.9210778E-01
         -2   -1    0    0    0  501 -0.00000000000E+00  0.00000000000E+00  0.17444547871E+04  0.17444547871E+04  0.25500000000E-02 0.  1.
          2   -1    0    0  501    0  0.00000000000E+00 -0.00000000000E+00 -0.19956184845E+04  0.19956184845E+04  0.25500000000E-02 0. -1.
    8880023    1    1    2    0    0  0.84508971116E+03  0.40852603804E+03 -0.16737496552E+04  0.20288711783E+04  0.65864270000E+03 0.  0.
    8880022    1    1    2    0    0 -0.84508971116E+03 -0.40852603804E+03  0.14225859578E+04  0.17112020933E+04  0.15294330000E+03 0.  0.
<mgrwt>
<rscale>  0 0.10942867E+04</rscale>
<asrwt>0</asrwt>
<pdfrwt beam="1">  1        2 0.30701823E+00 0.11466823E+04</pdfrwt>
<pdfrwt beam="2">  1       -2 0.26837766E+00 0.11466823E+04</pdfrwt>
<totfact> 0.32714825E-01</totfact>
</mgrwt>
</event>
<event>
 4    1  0.5223852E-007  0.7376617E+03  0.7818608E-02  0.9866811E-01
         -2   -1    0    0    0  501 -0.00000000000E+00  0.00000000000E+00  0.29108281297E+03  0.29108281298E+03  0.25500000000E-02 0.  1.
          2   -1    0    0  501    0  0.00000000000E+00 -0.00000000000E+00 -0.23995053716E+04  0.23995053716E+04  0.25500000000E-02 0. -1.
    8880023    1    1    2    0    0 -0.33199617412E+03 -0.10636216279E+02 -0.22387056650E+03  0.77088444370E+03  0.65864270000E+03 0.  1.
    8880022    1    1    2    0    0  0.33199617412E+03  0.10636216279E+02 -0.18845519922E+04  0.19197037409E+04  0.15294330000E+03 0.  0.
<mgrwt>
<rscale>  0 0.61897058E+03</rscale>
<asrwt>0</asrwt>
<pdfrwt beam="1">  1        2 0.36915466E+00 0.73766171E+03</pdfrwt>
<pdfrwt beam="2">  1       -2 0.44781973E-01 0.73766171E+03</pdfrwt>
<totfact> 0.19664416E+01</totfact>
</mgrwt>
</event>
<event>
 4    1  0.5223852E-007  0.9988417E+03  0.7818608E-02  0.9383075E-01
          2   -1    0    0  501    0  0.00000000000E+00  0.00000000000E+00  0.20222576546E+04  0.20222576546E+04  0.25500000000E-02 0. -1.
         -2   -1    0    0    0  501 -0.00000000000E+00 -0.00000000000E+00 -0.47589558754E+03  0.47589558755E+03  0.25500000000E-02 0.  1.
    8880023    1    1    2    0    0  0.12213531212E+03 -0.74091660881E+03  0.31414802809E+03  0.10470786243E+04  0.65864270000E+03 0.  1.
    8880022    1    1    2    0    0 -0.12213531212E+03  0.74091660881E+03  0.12322140389E+04  0.14510746178E+04  0.15294330000E+03 0.  0.
<mgrwt>
<rscale>  0 0.93481754E+03</rscale>
<asrwt>0</asrwt>
<pdfrwt beam="1">  1        2 0.31111656E+00 0.99884166E+03</pdfrwt>
<pdfrwt beam="2">  1       -2 0.73214707E-01 0.99884166E+03</pdfrwt>
<totfact> 0.10970769E+01</totfact>
</mgrwt>
</event>
<event>
 4    1  0.5223852E-007  0.7948143E+03  0.7818608E-02  0.9722123E-01
          2   -1    0    0  501    0  0.00000000000E+00  0.00000000000E+00  0.13787661127E+04  0.13787661127E+04  0.25500000000E-02 0. -1.
         -2   -1    0    0    0  501 -0.00000000000E+00 -0.00000000000E+00 -0.29211402846E+03  0.29211402847E+03  0.25500000000E-02 0.  1.
    8880023    1    1    2    0    0  0.21261174101E+03 -0.39078865070E+03  0.74590374789E+03  0.10900009767E+04  0.65864270000E+03 0. -1.
    8880022    1    1    2    0    0 -0.21261174101E+03  0.39078865070E+03  0.34074833637E+03  0.58087916444E+03  0.15294330000E+03 0.  1.
<mgrwt>
<rscale>  0 0.69714748E+03</rscale>
<asrwt>0</asrwt>
<pdfrwt beam="1">  1        2 0.21211786E+00 0.79481427E+03</pdfrwt>
<pdfrwt beam="2">  1       -2 0.44940620E-01 0.79481427E+03</pdfrwt>
<totfact> 0.70893985E+01</totfact>
</mgrwt>
</event>
<event>
 4    1  0.5223852E-007  0.9201110E+03  0.7818608E-02  0.9494489E-01
         -2   -1    0    0    0  501 -0.00000000000E+00  0.00000000000E+00  0.18600641752E+04  0.18600641752E+04  0.25500000000E-02 0.  1.
          2   -1    0    0  501    0  0.00000000000E+00 -0.00000000000E+00 -0.63924797848E+03  0.63924797848E+03  0.25500000000E-02 0. -1.
    8880023    1    1    2    0    0 -0.67921622124E+02  0.63889023458E+03 -0.19183755350E+03  0.93989676656E+03  0.65864270000E+03 0.  0.
    8880022    1    1    2    0    0  0.67921622124E+02 -0.63889023458E+03  0.14126537503E+04  0.15594153872E+04  0.15294330000E+03 0.  0.
<mgrwt>
<rscale>  0 0.84691360E+03</rscale>
<asrwt>0</asrwt>
<pdfrwt beam="1">  1        2 0.98345844E-01 0.92011102E+03</pdfrwt>
<pdfrwt beam="2">  1       -2 0.28616371E+00 0.92011102E+03</pdfrwt>
<totfact> 0.17968525E+00</totfact>
</mgrwt>
</event>
<event>
 4    1  0.5223852E-007  0.6617880E+03  0.7818608E-02  0.1022395E+00
         -2   -1    0    0    0  501 -0.00000000000E+00  0.00000000000E+00  0.22720876572E+03  0.22720876574E+03  0.25500000000E-02 0.  1.
          2   -1    0    0  501    0  0.00000000000E+00 -0.00000000000E+00 -0.84369178969E+03  0.84369178969E+03  0.25500000000E-02 0. -1.
    8880023    1    1    2    0    0 -0.60482263324E+02 -0.22249179436E+02 -0.32925326402E+03  0.73916916081E+03  0.65864270000E+03 0.  1.
    8880022    1    1    2    0    0  0.60482263324E+02  0.22249179436E+02 -0.28722975994E+03  0.33173139462E+03  0.15294330000E+03 0.  0.
<mgrwt>
<rscale>  0 0.46832148E+03</rscale>
<asrwt>0</asrwt>
<pdfrwt beam="1">  1        2 0.12979874E+00 0.66178798E+03</pdfrwt>
<pdfrwt beam="2">  1       -2 0.34955195E-01 0.66178798E+03</pdfrwt>
<totfact> 0.24942786E+02</totfact>
</mgrwt>
</event>
<event>
 4    1  0.5223852E-007  0.9645509E+03  0.7818608E-02  0.9429480E-01
         -2   -1    0    0    0  501 -0.00000000000E+00  0.00000000000E+00  0.43707058406E+03  0.43707058407E+03  0.25500000000E-02 0.  1.
          2   -1    0    0  501    0  0.00000000000E+00 -0.00000000000E+00 -0.16253136388E+04  0.16253136388E+04  0.25500000000E-02 0. -1.
    8880023    1    1    2    0    0 -0.46837423291E+03 -0.52647299279E+03 -0.68836826290E+03  0.11849933780E+04  0.65864270000E+03 0.  1.
    8880022    1    1    2    0    0  0.46837423291E+03  0.52647299279E+03 -0.49987479185E+03  0.87739084491E+03  0.15294330000E+03 0. -1.
<mgrwt>
<rscale>  0 0.89688757E+03</rscale>
<asrwt>0</asrwt>
<pdfrwt beam="1">  1        2 0.25004825E+00 0.96455090E+03</pdfrwt>
<pdfrwt beam="2">  1       -2 0.67241629E-01 0.96455090E+03</pdfrwt>
<totfact> 0.21953961E+01</totfact>
</mgrwt>
</event>
<event>
 4    1  0.5223852E-007  0.9549730E+03  0.7818608E-02  0.9442995E-01
          2   -1    0    0  501    0  0.00000000000E+00  0.00000000000E+00  0.28717972194E+04  0.28717972194E+04  0.25500000000E-02 0. -1.
         -2   -1    0    0    0  501 -0.00000000000E+00 -0.00000000000E+00 -0.32216712647E+03  0.32216712648E+03  0.25500000000E-02 0.  1.
    8880023    1    1    2    0    0 -0.68560877483E+03 -0.90021342846E+02  0.62027073538E+03  0.11387314107E+04  0.65864270000E+03 0.  1.
    8880022    1    1    2    0    0  0.68560877483E+03  0.90021342846E+02  0.19293593576E+04  0.20552329352E+04  0.15294330000E+03 0.  0.
<mgrwt>
<rscale>  0 0.88620282E+03</rscale>
<asrwt>0</asrwt>
<pdfrwt beam="1">  1        2 0.44181496E+00 0.95497301E+03</pdfrwt>
<pdfrwt beam="2">  1       -2 0.49564173E-01 0.95497301E+03</pdfrwt>
<totfact> 0.82671771E+00</totfact>
</mgrwt>
</event>
<event>
 4    1  0.5223852E-007  0.6766937E+03  0.7818608E-02  0.1011259E+00
          2   -1    0    0  501    0  0.00000000000E+00  0.00000000000E+00  0.34763347228E+03  0.34763347229E+03  0.25500000000E-02 0. -1.
         -2   -1    0    0    0  501 -0.00000000000E+00 -0.00000000000E+00 -0.12296365393E+04  0.12296365393E+04  0.25500000000E-02 0.  1.
    8880023    1    1    2    0    0 -0.15521578252E+03  0.34935415204E+01 -0.10854657937E+04  0.12791209245E+04  0.65864270000E+03 0.  1.
    8880022    1    1    2    0    0  0.15521578252E+03 -0.34935415204E+01  0.20346272667E+03  0.29814908709E+03  0.15294330000E+03 0.  0.
<mgrwt>
<rscale>  0 0.50977202E+03</rscale>
<asrwt>0</asrwt>
<pdfrwt beam="1">  1        2 0.53482073E-01 0.67669369E+03</pdfrwt>
<pdfrwt beam="2">  1       -2 0.18917485E+00 0.67669369E+03</pdfrwt>
<totfact> 0.14963519E+01</totfact>
</mgrwt>
</event>
<event>
 4    1  0.5223852E-007  0.6966617E+03  0.7818608E-02  0.1001134E+00
          2   -1    0    0  501    0  0.00000000000E+00  0.00000000000E+00  0.16345369346E+04  0.16345369346E+04  0.25500000000E-02 0. -1.
         -2   -1    0    0    0  501 -0.00000000000E+00 -0.00000000000E+00 -0.26596288492E+03  0.26596288493E+03  0.25500000000E-02 0.  1.
    8880023    1    1    2    0    0 -0.12361213073E+03 -0.19038755465E+03  0.23635244647E+03  0.73566301052E+03  0.65864270000E+03 0.  1.
    8880022    1    1    2    0    0  0.12361213073E+03  0.19038755465E+03  0.11322216033E+04  0.11648368091E+04  0.15294330000E+03 0.  0.
<mgrwt>
<rscale>  0 0.55155712E+03</rscale>
<asrwt>0</asrwt>
<pdfrwt beam="1">  1        2 0.25146722E+00 0.69666174E+03</pdfrwt>
<pdfrwt beam="2">  1       -2 0.40917368E-01 0.69666174E+03</pdfrwt>
<totfact> 0.62065838E+01</totfact>
</mgrwt>
</event>
<event>
 4    1  0.5223852E-007  0.7750998E+03  0.7818608E-02  0.9767476E-01
          2   -1    0    0  501    0  0.00000000000E+00  0.00000000000E+00  0.16614992350E+04  0.16614992350E+04  0.25500000000E-02 0. -1.
         -2   -1    0    0    0  501 -0.00000000000E+00 -0.00000000000E+00 -0.30572645283E+03  0.30572645284E+03  0.25500000000E-02 0.  1.
    8880023    1    1    2    0    0  0.52342572975E+02  0.40525265038E+03  0.31128092165E+03  0.83526970137E+03  0.65864270000E+03 0.  0.
    8880022    1    1    2    0    0 -0.52342572975E+02 -0.40525265038E+03  0.10444918605E+04  0.11319559864E+04  0.15294330000E+03 0.  0.
<mgrwt>
<rscale>  0 0.67137550E+03</rscale>
<asrwt>0</asrwt>
<pdfrwt beam="1">  1        2 0.25561526E+00 0.77509978E+03</pdfrwt>
<pdfrwt beam="2">  1       -2 0.47034840E-01 0.77509978E+03</pdfrwt>
<totfact> 0.45108448E+01</totfact>
</mgrwt>
</event>
<event>
 4    1  0.5223852E-007  0.6701051E+03  0.7818608E-02  0.1015588E+00
         -2   -1    0    0    0  501 -0.00000000000E+00  0.00000000000E+00  0.24243583708E+03  0.24243583709E+03  0.25500000000E-02 0.  1.
          2   -1    0    0  501    0  0.00000000000E+00 -0.00000000000E+00 -0.20585417809E+04  0.20585417809E+04  0.25500000000E-02 0. -1.
    8880023    1    1    2    0    0  0.71780897567E+02  0.10038968273E+03 -0.23865930526E+03  0.71133610614E+03  0.65864270000E+03 0.  1.
    8880022    1    1    2    0    0 -0.71780897567E+02 -0.10038968273E+03 -0.15774466386E+04  0.15896415118E+04  0.15294330000E+03 0.  0.
<mgrwt>
<rscale>  0 0.49313049E+03</rscale>
<asrwt>0</asrwt>
<pdfrwt beam="1">  1        2 0.31669872E+00 0.67010506E+03</pdfrwt>
<pdfrwt beam="2">  1       -2 0.37297822E-01 0.67010506E+03</pdfrwt>
<totfact> 0.43801751E+01</totfact>
</mgrwt>
</event>
<event>
 4    1  0.5223852E-007  0.9231857E+03  0.7818608E-02  0.9489792E-01
          2   -1    0    0  501    0  0.00000000000E+00  0.00000000000E+00  0.57307583703E+03  0.57307583704E+03  0.25500000000E-02 0. -1.
         -2   -1    0    0    0  501 -0.00000000000E+00 -0.00000000000E+00 -0.13681313998E+04  0.13681313998E+04  0.25500000000E-02 0.  1.
    8880023    1    1    2    0    0  0.63859711614E+03 -0.10322495297E+03 -0.24434830826E+02  0.92350903346E+03  0.65864270000E+03 0.  0.
    8880022    1    1    2    0    0 -0.63859711614E+03  0.10322495297E+03 -0.77062073198E+03  0.10176982034E+04  0.15294330000E+03 0.  0.
<mgrwt>
<rscale>  0 0.85040651E+03</rscale>
<asrwt>0</asrwt>
<pdfrwt beam="1">  1        2 0.88165514E-01 0.92318572E+03</pdfrwt>
<pdfrwt beam="2">  1       -2 0.21048175E+00 0.92318572E+03</pdfrwt>
<totfact> 0.59747796E+00</totfact>
</mgrwt>
</event>
<event>
 4    1  0.5223852E-007  0.6662417E+03  0.7818608E-02  0.1018514E+00
         -2   -1    0    0    0  501 -0.00000000000E+00  0.00000000000E+00  0.65542646371E+02  0.65542646420E+02  0.25500000000E-02 0.  1.
          2   -1    0    0  501    0  0.00000000000E+00 -0.00000000000E+00 -0.29037215462E+04  0.29037215462E+04  0.25500000000E-02 0. -1.
    8880023    1    1    2    0    0  0.43826563809E+02  0.90260810850E+02 -0.19001306973E+04  0.20135477781E+04  0.65864270000E+03 0.  1.
    8880022    1    1    2    0    0 -0.43826563809E+02 -0.90260810850E+02 -0.93804820247E+03  0.95571641445E+03  0.15294330000E+03 0.  0.
<mgrwt>
<rscale>  0 0.48226826E+03</rscale>
<asrwt>0</asrwt>
<pdfrwt beam="1">  1        2 0.44672629E+00 0.66624169E+03</pdfrwt>
<pdfrwt beam="2">  1       -2 0.10083486E-01 0.66624169E+03</pdfrwt>
<totfact> 0.14380252E+02</totfact>
</mgrwt>
</event>
<event>
 4    1  0.5223852E-007  0.6623418E+03  0.7818608E-02  0.1021876E+00
         -2   -1    0    0    0  501 -0.00000000000E+00  0.00000000000E+00  0.32308665640E+03  0.32308665641E+03  0.25500000000E-02 0.  1.
          2   -1    0    0  501    0  0.00000000000E+00 -0.00000000000E+00 -0.10937376347E+04  0.10937376347E+04  0.25500000000E-02 0. -1.
    8880023    1    1    2    0    0  0.47878710173E+02  0.50931592342E+02 -0.36158930861E+02  0.66332802785E+03  0.65864270000E+03 0.  1.
    8880022    1    1    2    0    0 -0.47878710173E+02 -0.50931592342E+02 -0.73449204740E+03  0.75349626322E+03  0.15294330000E+03 0.  0.
<mgrwt>
<rscale>  0 0.47015687E+03</rscale>
<asrwt>0</asrwt>
<pdfrwt beam="1">  1        2 0.16826733E+00 0.66234176E+03</pdfrwt>
<pdfrwt beam="2">  1       -2 0.49705640E-01 0.66234176E+03</pdfrwt>
<totfact> 0.86083785E+01</totfact>
</mgrwt>
</event>
<event>
 4    1  0.5223852E-007  0.8835959E+03  0.7818608E-02  0.9552896E-01
         -2   -1    0    0    0  501 -0.00000000000E+00  0.00000000000E+00  0.45502802233E+03  0.45502802234E+03  0.25500000000E-02 0.  1.
          2   -1    0    0  501    0  0.00000000000E+00 -0.00000000000E+00 -0.22804057599E+04  0.22804057599E+04  0.25500000000E-02 0. -1.
    8880023    1    1    2    0    0 -0.39239152264E+03  0.43927254207E+03 -0.80233032881E+02  0.88723109677E+03  0.65864270000E+03 0.  1.
    8880022    1    1    2    0    0  0.39239152264E+03 -0.43927254207E+03 -0.17451447047E+04  0.18482026855E+04  0.15294330000E+03 0.  0.
<mgrwt>
<rscale>  0 0.80493881E+03</rscale>
<asrwt>0</asrwt>
<pdfrwt beam="1">  1        2 0.35083165E+00 0.88359588E+03</pdfrwt>
<pdfrwt beam="2">  1       -2 0.70004312E-01 0.88359588E+03</pdfrwt>
<totfact> 0.88368865E+00</totfact>
</mgrwt>
</event>
<event>
 4    1  0.5223852E-007  0.8963217E+03  0.7818608E-02  0.9531962E-01
          2   -1    0    0  501    0  0.00000000000E+00  0.00000000000E+00  0.85185091184E+03  0.85185091184E+03  0.25500000000E-02 0. -1.
         -2   -1    0    0    0  501 -0.00000000000E+00 -0.00000000000E+00 -0.10495942966E+04  0.10495942966E+04  0.25500000000E-02 0.  1.
    8880023    1    1    2    0    0 -0.44780222329E+02 -0.60628140626E+03  0.44750355088E+03  0.10018243590E+04  0.65864270000E+03 0. -1.
    8880022    1    1    2    0    0  0.44780222329E+02  0.60628140626E+03 -0.64524693568E+03  0.89962084953E+03  0.15294330000E+03 0.  0.
<mgrwt>
<rscale>  0 0.81967828E+03</rscale>
<asrwt>0</asrwt>
<pdfrwt beam="1">  1        2 0.13105399E+00 0.89632172E+03</pdfrwt>
<pdfrwt beam="2">  1       -2 0.16147604E+00 0.89632172E+03</pdfrwt>
<totfact> 0.77843697E+00</totfact>
</mgrwt>
</event>
<event>
 4    1  0.5223852E-007  0.1096164E+04  0.7818608E-02  0.9265339E-01
          2   -1    0    0  501    0  0.00000000000E+00  0.00000000000E+00  0.77068076355E+03  0.77068076355E+03  0.25500000000E-02 0. -1.
         -2   -1    0    0    0  501 -0.00000000000E+00 -0.00000000000E+00 -0.35283579337E+04  0.35283579337E+04  0.25500000000E-02 0.  1.
    8880023    1    1    2    0    0 -0.67637407370E+03 -0.55703066636E+03 -0.31437647256E+04  0.33293891192E+04  0.65864270000E+03 0.  1.
    8880022    1    1    2    0    0  0.67637407370E+03  0.55703066636E+03  0.38608755542E+03  0.96964957809E+03  0.15294330000E+03 0.  0.
<mgrwt>
<rscale>  0 0.10403739E+04</rscale>
<asrwt>0</asrwt>
<pdfrwt beam="1">  1        2 0.11856627E+00 0.10961639E+04</pdfrwt>
<pdfrwt beam="2">  1       -2 0.54282429E+00 0.10961639E+04</pdfrwt>
<totfact> 0.33071160E-02</totfact>
</mgrwt>
</event>
<event>
 4    1  0.5223852E-007  0.9354651E+03  0.7818608E-02  0.9471342E-01
          2   -1    0    0  501    0  0.00000000000E+00  0.00000000000E+00  0.11619106966E+04  0.11619106966E+04  0.25500000000E-02 0. -1.
         -2   -1    0    0    0  501 -0.00000000000E+00 -0.00000000000E+00 -0.64099306379E+03  0.64099306380E+03  0.25500000000E-02 0.  1.
    8880023    1    1    2    0    0 -0.56273906435E+03 -0.35300077259E+03 -0.15324472697E+02  0.93559064004E+03  0.65864270000E+03 0.  0.
    8880022    1    1    2    0    0  0.56273906435E+03  0.35300077259E+03  0.53624210549E+03  0.86731312034E+03  0.15294330000E+03 0.  0.
<mgrwt>
<rscale>  0 0.86430004E+03</rscale>
<asrwt>0</asrwt>
<pdfrwt beam="1">  1        2 0.17875549E+00 0.93546513E+03</pdfrwt>
<pdfrwt beam="2">  1       -2 0.98614318E-01 0.93546513E+03</pdfrwt>
<totfact> 0.17043413E+01</totfact>
</mgrwt>
</event>
<event>
 4    1  0.5223852E-007  0.6766508E+03  0.7818608E-02  0.1011285E+00
         -2   -1    0    0    0  501 -0.00000000000E+00  0.00000000000E+00  0.15177514406E+03  0.15177514408E+03  0.25500000000E-02 0.  1.
          2   -1    0    0  501    0  0.00000000000E+00 -0.00000000000E+00 -0.20906329077E+04  0.20906329077E+04  0.25500000000E-02 0. -1.
    8880023    1    1    2    0    0  0.52962594116E+02  0.14574329551E+03 -0.66032099899E+03  0.94545236396E+03  0.65864270000E+03 0.  1.
    8880022    1    1    2    0    0 -0.52962594116E+02 -0.14574329551E+03 -0.12785367647E+04  0.12969556879E+04  0.15294330000E+03 0.  0.
<mgrwt>
<rscale>  0 0.50966995E+03</rscale>
<asrwt>0</asrwt>
<pdfrwt beam="1">  1        2 0.32163581E+00 0.67665083E+03</pdfrwt>
<pdfrwt beam="2">  1       -2 0.23350024E-01 0.67665083E+03</pdfrwt>
<totfact> 0.99957256E+01</totfact>
</mgrwt>
</event>
<event>
 4    1  0.5223852E-007  0.1051955E+04  0.7818608E-02  0.9316535E-01
          2   -1    0    0  501    0  0.00000000000E+00  0.00000000000E+00  0.17311340578E+04  0.17311340578E+04  0.25500000000E-02 0. -1.
         -2   -1    0    0    0  501 -0.00000000000E+00 -0.00000000000E+00 -0.19365156430E+04  0.19365156430E+04  0.25500000000E-02 0.  1.
    8880023    1    1    2    0    0 -0.56594788910E+03  0.59371811349E+03 -0.16748555460E+04  0.19778143284E+04  0.65864270000E+03 0.  0.
    8880022    1    1    2    0    0  0.56594788910E+03 -0.59371811349E+03  0.14694739607E+04  0.16898353724E+04  0.15294330000E+03 0.  0.
<mgrwt>
<rscale>  0 0.99274727E+03</rscale>
<asrwt>0</asrwt>
<pdfrwt beam="1">  1        2 0.26632831E+00 0.10519546E+04</pdfrwt>
<pdfrwt beam="2">  1       -2 0.29792549E+00 0.10519546E+04</pdfrwt>
<totfact> 0.30778425E-01</totfact>
</mgrwt>
</event>
<event>
 4    1  0.5223852E-007  0.7144455E+03  0.7818608E-02  0.9941849E-01
          2   -1    0    0  501    0  0.00000000000E+00  0.00000000000E+00  0.29720044925E+04  0.29720044925E+04  0.25500000000E-02 0. -1.
         -2   -1    0    0    0  501 -0.00000000000E+00 -0.00000000000E+00 -0.89406888697E+02  0.89406888733E+02  0.25500000000E-02 0.  1.
    8880023    1    1    2    0    0  0.26444747193E+03 -0.81790755013E+02  0.20296145914E+04  0.21516895196E+04  0.65864270000E+03 0.  1.
    8880022    1    1    2    0    0 -0.26444747193E+03  0.81790755013E+02  0.85298301248E+03  0.90972186167E+03  0.15294330000E+03 0. -1.
<mgrwt>
<rscale>  0 0.58275278E+03</rscale>
<asrwt>0</asrwt>
<pdfrwt beam="1">  1        2 0.45723148E+00 0.71444552E+03</pdfrwt>
<pdfrwt beam="2">  1       -2 0.13754905E-01 0.71444552E+03</pdfrwt>
<totfact> 0.77843858E+01</totfact>
</mgrwt>
</event>
<event>
 4    1  0.5223852E-007  0.7872691E+03  0.7818608E-02  0.9739031E-01
          2   -1    0    0  501    0  0.00000000000E+00  0.00000000000E+00  0.56837847766E+03  0.56837847766E+03  0.25500000000E-02 0. -1.
         -2   -1    0    0    0  501 -0.00000000000E+00 -0.00000000000E+00 -0.12018023755E+04  0.12018023755E+04  0.25500000000E-02 0.  1.
    8880023    1    1    2    0    0 -0.46249392765E+02  0.42876973228E+03 -0.93489659240E+03  0.12222210661E+04  0.65864270000E+03 0.  1.
    8880022    1    1    2    0    0  0.46249392765E+02 -0.42876973228E+03  0.30147269457E+03  0.54795978706E+03  0.15294330000E+03 0.  0.
<mgrwt>
<rscale>  0 0.68739727E+03</rscale>
<asrwt>0</asrwt>
<pdfrwt beam="1">  1        2 0.87442843E-01 0.78726914E+03</pdfrwt>
<pdfrwt beam="2">  1       -2 0.18489267E+00 0.78726914E+03</pdfrwt>
<totfact> 0.90061302E+00</totfact>
</mgrwt>
</event>
<event>
 4    1  0.5223852E-007  0.1153455E+04  0.7818608E-02  0.9203752E-01
         -2   -1    0    0    0  501 -0.00000000000E+00  0.00000000000E+00  0.75817084730E+03  0.75817084731E+03  0.25500000000E-02 0.  1.
          2   -1    0    0  501    0  0.00000000000E+00 -0.00000000000E+00 -0.26189802770E+04  0.26189802770E+04  0.25500000000E-02 0. -1.
    8880023    1    1    2    0    0 -0.41629831480E+03  0.85049590571E+03  0.13645811597E+03  0.11614984271E+04  0.65864270000E+03 0.  0.
    8880022    1    1    2    0    0  0.41629831480E+03 -0.85049590571E+03 -0.19972675457E+04  0.22156526972E+04  0.15294330000E+03 0.  0.
<mgrwt>
<rscale>  0 0.11014790E+04</rscale>
<asrwt>0</asrwt>
<pdfrwt beam="1">  1        2 0.40292004E+00 0.11534547E+04</pdfrwt>
<pdfrwt beam="2">  1       -2 0.11664167E+00 0.11534547E+04</pdfrwt>
<totfact> 0.16697166E+00</totfact>
</mgrwt>
</event>
<event>
 4    1  0.5223852E-007  0.8370547E+03  0.7818608E-02  0.9635759E-01
         -2   -1    0    0    0  501 -0.00000000000E+00  0.00000000000E+00  0.15801494737E+04  0.15801494737E+04  0.25500000000E-02 0.  1.
          2   -1    0    0  501    0  0.00000000000E+00 -0.00000000000E+00 -0.58064999717E+03  0.58064999717E+03  0.25500000000E-02 0. -1.
    8880023    1    1    2    0    0  0.24532318792E+03 -0.45460638325E+03  0.12982979905E+04  0.15447453863E+04  0.65864270000E+03 0.  1.
    8880022    1    1    2    0    0 -0.24532318792E+03  0.45460638325E+03 -0.29879851390E+03  0.61605408460E+03  0.15294330000E+03 0.  0.
<mgrwt>
<rscale>  0 0.74973959E+03</rscale>
<asrwt>0</asrwt>
<pdfrwt beam="1">  1        2 0.89330769E-01 0.83705474E+03</pdfrwt>
<pdfrwt beam="2">  1       -2 0.24309992E+00 0.83705474E+03</pdfrwt>
<totfact> 0.37181083E+00</totfact>
</mgrwt>
</event>
<event>
 4    1  0.5223852E-007  0.1110340E+04  0.7818608E-02  0.9249630E-01
         -2   -1    0    0    0  501 -0.00000000000E+00  0.00000000000E+00  0.66456279437E+03  0.66456279438E+03  0.25500000000E-02 0.  1.
          2   -1    0    0  501    0  0.00000000000E+00 -0.00000000000E+00 -0.15901691540E+04  0.15901691540E+04  0.25500000000E-02 0. -1.
    8880023    1    1    2    0    0 -0.89369875713E+03  0.18629291770E+02 -0.29093039361E+03  0.11478219458E+04  0.65864270000E+03 0. -1.
    8880022    1    1    2    0    0  0.89369875713E+03 -0.18629291770E+02 -0.63467596602E+03  0.11069100026E+04  0.15294330000E+03 0.  0.
<mgrwt>
<rscale>  0 0.10555523E+04</rscale>
<asrwt>0</asrwt>
<pdfrwt beam="1">  1        2 0.24464141E+00 0.11103399E+04</pdfrwt>
<pdfrwt beam="2">  1       -2 0.10224043E+00 0.11103399E+04</pdfrwt>
<totfact> 0.87182047E+00</totfact>
</mgrwt>
</event>
<event>
 4    1  0.5223852E-007  0.1368622E+04  0.7818608E-02  0.9008456E-01
          2   -1    0    0  501    0  0.00000000000E+00  0.00000000000E+00  0.12585105425E+04  0.12585105425E+04  0.25500000000E-02 0. -1.
         -2   -1    0    0    0  501 -0.00000000000E+00 -0.00000000000E+00 -0.18383853249E+04  0.18383853249E+04  0.25500000000E-02 0.  1.
    8880023    1    1    2    0    0 -0.48721290310E+03  0.10963304966E+04 -0.11237013349E+04  0.17708280173E+04  0.65864270000E+03 0.  1.
    8880022    1    1    2    0    0  0.48721290310E+03 -0.10963304966E+04  0.54382655254E+03  0.13260678501E+04  0.15294330000E+03 0.  0.
<mgrwt>
<rscale>  0 0.13269588E+04</rscale>
<asrwt>0</asrwt>
<pdfrwt beam="1">  1        2 0.19361701E+00 0.13686224E+04</pdfrwt>
<pdfrwt beam="2">  1       -2 0.28282851E+00 0.13686224E+04</pdfrwt>
<totfact> 0.67659820E-01</totfact>
</mgrwt>
</event>
<event>
 4    1  0.5223852E-007  0.6673028E+03  0.7818608E-02  0.1017675E+00
          2   -1    0    0  501    0  0.00000000000E+00  0.00000000000E+00  0.16277339766E+04  0.16277339766E+04  0.25500000000E-02 0. -1.
         -2   -1    0    0    0  501 -0.00000000000E+00 -0.00000000000E+00 -0.29320028056E+03  0.29320028058E+03  0.25500000000E-02 0.  1.
    8880023    1    1    2    0    0  0.14446794395E+02 -0.10617981128E+03  0.10286027001E+03  0.67518390354E+03  0.65864270000E+03 0.  1.
    8880022    1    1    2    0    0 -0.14446794395E+02  0.10617981128E+03  0.12316734260E+04  0.12457503536E+04  0.15294330000E+03 0.  0.
<mgrwt>
<rscale>  0 0.48535080E+03</rscale>
<asrwt>0</asrwt>
<pdfrwt beam="1">  1        2 0.25042061E+00 0.66730283E+03</pdfrwt>
<pdfrwt beam="2">  1       -2 0.45107736E-01 0.66730283E+03</pdfrwt>
<totfact> 0.51821472E+01</totfact>
</mgrwt>
</event>
<event>
 4    1  0.5223852E-007  0.7410285E+03  0.7818608E-02  0.9856961E-01
          2   -1    0    0  501    0  0.00000000000E+00  0.00000000000E+00  0.18912022365E+04  0.18912022365E+04  0.25500000000E-02 0. -1.
         -2   -1    0    0    0  501 -0.00000000000E+00 -0.00000000000E+00 -0.24138500109E+03  0.24138500110E+03  0.25500000000E-02 0.  1.
    8880023    1    1    2    0    0 -0.27354180546E+03 -0.20121601772E+03  0.42905406752E+03  0.85627717722E+03  0.65864270000E+03 0.  1.
    8880022    1    1    2    0    0  0.27354180546E+03  0.20121601772E+03  0.12207631679E+04  0.12763100604E+04  0.15294330000E+03 0.  0.
<mgrwt>
<rscale>  0 0.62393243E+03</rscale>
<asrwt>0</asrwt>
<pdfrwt beam="1">  1        2 0.29095418E+00 0.74102848E+03</pdfrwt>
<pdfrwt beam="2">  1       -2 0.37136155E-01 0.74102848E+03</pdfrwt>
<totfact> 0.53988028E+01</totfact>
</mgrwt>
</event>
<event>
 4    1  0.5223852E-007  0.6658132E+03  0.7818608E-02  0.1018861E+00
         -2   -1    0    0    0  501 -0.00000000000E+00  0.00000000000E+00  0.22447670709E+03  0.22447670711E+03  0.25500000000E-02 0.  1.
          2   -1    0    0  501    0  0.00000000000E+00 -0.00000000000E+00 -0.18911141050E+04  0.18911141050E+04  0.25500000000E-02 0. -1.
    8880023    1    1    2    0    0 -0.70358598981E+02  0.67429365176E+02 -0.28859783481E+03  0.72566932432E+03  0.65864270000E+03 0.  0.
    8880022    1    1    2    0    0  0.70358598981E+02 -0.67429365176E+02 -0.13780395631E+04  0.13899214877E+04  0.15294330000E+03 0. -1.
<mgrwt>
<rscale>  0 0.48100009E+03</rscale>
<asrwt>0</asrwt>
<pdfrwt beam="1">  1        2 0.29094062E+00 0.66581323E+03</pdfrwt>
<pdfrwt beam="2">  1       -2 0.34534879E-01 0.66581323E+03</pdfrwt>
<totfact> 0.62598252E+01</totfact>
</mgrwt>
</event>
<event>
 4    1  0.5223852E-007  0.8328477E+03  0.7818608E-02  0.9643817E-01
          2   -1    0    0  501    0  0.00000000000E+00  0.00000000000E+00  0.97188069019E+03  0.97188069019E+03  0.25500000000E-02 0. -1.
         -2   -1    0    0    0  501 -0.00000000000E+00 -0.00000000000E+00 -0.10319164136E+04  0.10319164136E+04  0.25500000000E-02 0.  1.
    8880023    1    1    2    0    0  0.21019961278E+03 -0.46437186505E+03 -0.75796308505E+03  0.11261187108E+04  0.65864270000E+03 0.  0.
    8880022    1    1    2    0    0 -0.21019961278E+03  0.46437186505E+03  0.69792736168E+03  0.87767839295E+03  0.15294330000E+03 0.  0.
<mgrwt>
<rscale>  0 0.74462749E+03</rscale>
<asrwt>0</asrwt>
<pdfrwt beam="1">  1        2 0.14952011E+00 0.83284771E+03</pdfrwt>
<pdfrwt beam="2">  1       -2 0.15875637E+00 0.83284771E+03</pdfrwt>
<totfact> 0.68169127E+00</totfact>
</mgrwt>
</event>
<event>
 4    1  0.5223852E-007  0.9423370E+03  0.7818608E-02  0.9461226E-01
          2   -1    0    0  501    0  0.00000000000E+00  0.00000000000E+00  0.11899295780E+04  0.11899295780E+04  0.25500000000E-02 0. -1.
         -2   -1    0    0    0  501 -0.00000000000E+00 -0.00000000000E+00 -0.96848156979E+03  0.96848156980E+03  0.25500000000E-02 0.  1.
    8880023    1    1    2    0    0  0.22747623680E+03 -0.63438422021E+03  0.81618530240E+03  0.12466585063E+04  0.65864270000E+03 0.  0.
    8880022    1    1    2    0    0 -0.22747623680E+03  0.63438422021E+03 -0.59473729420E+03  0.91175264151E+03  0.15294330000E+03 0.  0.
<mgrwt>
<rscale>  0 0.87203816E+03</rscale>
<asrwt>0</asrwt>
<pdfrwt beam="1">  1        2 0.18306609E+00 0.94233698E+03</pdfrwt>
<pdfrwt beam="2">  1       -2 0.14899717E+00 0.94233698E+03</pdfrwt>
<totfact> 0.58426391E+00</totfact>
</mgrwt>
</event>
<event>
 4    1  0.5223852E-007  0.7794983E+03  0.7818608E-02  0.9757017E-01
          2   -1    0    0  501    0  0.00000000000E+00  0.00000000000E+00  0.78646264794E+03  0.78646264795E+03  0.25500000000E-02 0. -1.
         -2   -1    0    0    0  501 -0.00000000000E+00 -0.00000000000E+00 -0.60086382454E+03  0.60086382454E+03  0.25500000000E-02 0.  1.
    8880023    1    1    2    0    0  0.60265963493E+02 -0.41252324695E+03 -0.19382678727E+03  0.80323498763E+03  0.65864270000E+03 0.  1.
    8880022    1    1    2    0    0 -0.60265963493E+02  0.41252324695E+03  0.37942561068E+03  0.58409148486E+03  0.15294330000E+03 0.  0.
<mgrwt>
<rscale>  0 0.67721176E+03</rscale>
<asrwt>0</asrwt>
<pdfrwt beam="1">  1        2 0.12099425E+00 0.77949831E+03</pdfrwt>
<pdfrwt beam="2">  1       -2 0.92440588E-01 0.77949831E+03</pdfrwt>
<totfact> 0.35398758E+01</totfact>
</mgrwt>
</event>
<event>
 4    1  0.5223852E-007  0.6944285E+03  0.7818608E-02  0.1002115E+00
          2   -1    0    0  501    0  0.00000000000E+00  0.00000000000E+00  0.90867263919E+03  0.90867263920E+03  0.25500000000E-02 0. -1.
         -2   -1    0    0    0  501 -0.00000000000E+00 -0.00000000000E+00 -0.42454439924E+03  0.42454439925E+03  0.25500000000E-02 0.  1.
    8880023    1    1    2    0    0 -0.14703195894E+03 -0.16371430778E+03 -0.89411285090E+02  0.70016094984E+03  0.65864270000E+03 0.  1.
    8880022    1    1    2    0    0  0.14703195894E+03  0.16371430778E+03  0.57353952504E+03  0.63305608860E+03  0.15294330000E+03 0.  0.
<mgrwt>
<rscale>  0 0.54732541E+03</rscale>
<asrwt>0</asrwt>
<pdfrwt beam="1">  1        2 0.13979579E+00 0.69442853E+03</pdfrwt>
<pdfrwt beam="2">  1       -2 0.65314523E-01 0.69442853E+03</pdfrwt>
<totfact> 0.63676785E+01</totfact>
</mgrwt>
</event>
<event>
 4    1  0.5223852E-007  0.7043887E+03  0.7818608E-02  0.9979460E-01
          2   -1    0    0  501    0  0.00000000000E+00  0.00000000000E+00  0.13471479501E+04  0.13471479501E+04  0.25500000000E-02 0. -1.
         -2   -1    0    0    0  501 -0.00000000000E+00 -0.00000000000E+00 -0.25553362148E+03  0.25553362149E+03  0.25500000000E-02 0.  1.
    8880023    1    1    2    0    0 -0.24777195882E+03 -0.31019943374E+02  0.31295223309E+03  0.77078044015E+03  0.65864270000E+03 0.  1.
    8880022    1    1    2    0    0  0.24777195882E+03  0.31019943374E+02  0.77866209550E+03  0.83190113141E+03  0.15294330000E+03 0.  0.
<mgrwt>
<rscale>  0 0.56560112E+03</rscale>
<asrwt>0</asrwt>
<pdfrwt beam="1">  1        2 0.20725353E+00 0.70438866E+03</pdfrwt>
<pdfrwt beam="2">  1       -2 0.39312865E-01 0.70438866E+03</pdfrwt>
<totfact> 0.96940407E+01</totfact>
</mgrwt>
</event>
<event>
 4    1  0.5223852E-007  0.7129671E+03  0.7818608E-02  0.9947144E-01
         -2   -1    0    0    0  501 -0.00000000000E+00  0.00000000000E+00  0.76801164756E+03  0.76801164756E+03  0.25500000000E-02 0.  1.
          2   -1    0    0  501    0  0.00000000000E+00 -0.00000000000E+00 -0.51601999868E+03  0.51601999868E+03  0.25500000000E-02 0. -1.
    8880023    1    1    2    0    0 -0.26323307982E+03 -0.72250872513E+02  0.51154427621E+03  0.87749620836E+03  0.65864270000E+03 0.  1.
    8880022    1    1    2    0    0  0.26323307982E+03  0.72250872513E+02 -0.25955262733E+03  0.40653543789E+03  0.15294330000E+03 0.  0.
<mgrwt>
<rscale>  0 0.58029908E+03</rscale>
<asrwt>0</asrwt>
<pdfrwt beam="1">  1        2 0.79387693E-01 0.71296707E+03</pdfrwt>
<pdfrwt beam="2">  1       -2 0.11815564E+00 0.71296707E+03</pdfrwt>
<totfact> 0.33246406E+01</totfact>
</mgrwt>
</event>
<event>
 4    1  0.5223852E-007  0.6965022E+03  0.7818608E-02  0.1001203E+00
         -2   -1    0    0    0  501 -0.00000000000E+00  0.00000000000E+00  0.23542707456E+03  0.23542707457E+03  0.25500000000E-02 0.  1.
          2   -1    0    0  501    0  0.00000000000E+00 -0.00000000000E+00 -0.25663099749E+04  0.25663099749E+04  0.25500000000E-02 0. -1.
    8880023    1    1    2    0    0  0.17596206812E+03  0.14262695631E+03 -0.30985987242E+03  0.76231781094E+03  0.65864270000E+03 0.  0.
    8880022    1    1    2    0    0 -0.17596206812E+03 -0.14262695631E+03 -0.20210230280E+04  0.20394192386E+04  0.15294330000E+03 0.  0.
<mgrwt>
<rscale>  0 0.55125759E+03</rscale>
<asrwt>0</asrwt>
<pdfrwt beam="1">  1        2 0.39481690E+00 0.69650219E+03</pdfrwt>
<pdfrwt beam="2">  1       -2 0.36219552E-01 0.69650219E+03</pdfrwt>
<totfact> 0.24104858E+01</totfact>
</mgrwt>
</event>
<event>
 4    1  0.5223852E-007  0.6649206E+03  0.7818608E-02  0.1019600E+00
         -2   -1    0    0    0  501 -0.00000000000E+00  0.00000000000E+00  0.57925078871E+03  0.57925078872E+03  0.25500000000E-02 0.  1.
          2   -1    0    0  501    0  0.00000000000E+00 -0.00000000000E+00 -0.13295456691E+04  0.13295456691E+04  0.25500000000E-02 0. -1.
    8880023    1    1    2    0    0  0.88572359681E+02 -0.21544271727E+02  0.37913631857E+03  0.76541738474E+03  0.65864270000E+03 0.  1.
    8880022    1    1    2    0    0 -0.88572359681E+02  0.21544271727E+02 -0.11294311989E+04  0.11433790730E+04  0.15294330000E+03 0.  0.
<mgrwt>
<rscale>  0 0.47831197E+03</rscale>
<asrwt>0</asrwt>
<pdfrwt beam="1">  1        2 0.20454549E+00 0.66492062E+03</pdfrwt>
<pdfrwt beam="2">  1       -2 0.89115507E-01 0.66492062E+03</pdfrwt>
<totfact> 0.17733511E+01</totfact>
</mgrwt>
</event>
<event>
 4    1  0.5223852E-007  0.6603342E+03  0.7818608E-02  0.1023817E+00
         -2   -1    0    0    0  501 -0.00000000000E+00  0.00000000000E+00  0.21855168634E+03  0.21855168635E+03  0.25500000000E-02 0.  1.
          2   -1    0    0  501    0  0.00000000000E+00 -0.00000000000E+00 -0.18193323270E+04  0.18193323270E+04  0.25500000000E-02 0. -1.
    8880023    1    1    2    0    0 -0.28935804738E+02  0.37332573441E+02 -0.29654929562E+03  0.72386648826E+03  0.65864270000E+03 0.  1.
    8880022    1    1    2    0    0  0.28935804738E+02 -0.37332573441E+02 -0.13042313451E+04  0.13140175251E+04  0.15294330000E+03 0.  0.
<mgrwt>
<rscale>  0 0.46334112E+03</rscale>
<asrwt>0</asrwt>
<pdfrwt beam="1">  1        2 0.27989727E+00 0.66033416E+03</pdfrwt>
<pdfrwt beam="2">  1       -2 0.33623338E-01 0.66033416E+03</pdfrwt>
<totfact> 0.72076791E+01</totfact>
</mgrwt>
</event>
<event>
 4    1  0.5223852E-007  0.9405534E+03  0.7818608E-02  0.9463838E-01
         -2   -1    0    0    0  501 -0.00000000000E+00  0.00000000000E+00  0.39317198865E+03  0.39317198866E+03  0.25500000000E-02 0.  1.
          2   -1    0    0  501    0  0.00000000000E+00 -0.00000000000E+00 -0.20279030011E+04  0.20279030011E+04  0.25500000000E-02 0. -1.
    8880023    1    1    2    0    0 -0.38183861112E+03 -0.55229497777E+03 -0.43170637342E+03  0.10348966453E+04  0.65864270000E+03 0.  0.
    8880022    1    1    2    0    0  0.38183861112E+03  0.55229497777E+03 -0.12030246390E+04  0.13861783444E+04  0.15294330000E+03 0.  0.
<mgrwt>
<rscale>  0 0.87003218E+03</rscale>
<asrwt>0</asrwt>
<pdfrwt beam="1">  1        2 0.31198507E+00 0.94055339E+03</pdfrwt>
<pdfrwt beam="2">  1       -2 0.60487999E-01 0.94055339E+03</pdfrwt>
<totfact> 0.16584150E+01</totfact>
</mgrwt>
</event>
<event>
 4    1  0.5223852E-007  0.9116318E+03  0.7818608E-02  0.9507611E-01
          2   -1    0    0  501    0  0.00000000000E+00  0.00000000000E+00  0.12001507408E+04  0.12001507408E+04  0.25500000000E-02 0. -1.
         -2   -1    0    0    0  501 -0.00000000000E+00 -0.00000000000E+00 -0.51075874670E+03  0.51075874671E+03  0.25500000000E-02 0.  1.
    8880023    1    1    2    0    0 -0.53696570875E+03  0.33004556404E+03  0.47403054528E+03  0.10275102972E+04  0.65864270000E+03 0.  0.
    8880022    1    1    2    0    0  0.53696570875E+03 -0.33004556404E+03  0.21536144886E+03  0.68339919036E+03  0.15294330000E+03 0. -1.
<mgrwt>
<rscale>  0 0.83725008E+03</rscale>
<asrwt>0</asrwt>
<pdfrwt beam="1">  1        2 0.18463857E+00 0.91163175E+03</pdfrwt>
<pdfrwt beam="2">  1       -2 0.78578270E-01 0.91163175E+03</pdfrwt>
<totfact> 0.27339328E+01</totfact>
</mgrwt>
</event>
<event>
 4    1  0.5223852E-007  0.8824355E+03  0.7818608E-02  0.9554838E-01
          2   -1    0    0  501    0  0.00000000000E+00  0.00000000000E+00  0.47976858707E+03  0.47976858708E+03  0.25500000000E-02 0. -1.
         -2   -1    0    0    0  501 -0.00000000000E+00 -0.00000000000E+00 -0.25158066220E+04  0.25158066220E+04  0.25500000000E-02 0.  1.
    8880023    1    1    2    0    0  0.56235441692E+03  0.16923249918E+03 -0.21971195811E+04  0.23677049624E+04  0.65864270000E+03 0.  1.
    8880022    1    1    2    0    0 -0.56235441692E+03 -0.16923249918E+03  0.16108154626E+03  0.62787024661E+03  0.15294330000E+03 0.  0.
<mgrwt>
<rscale>  0 0.80358822E+03</rscale>
<asrwt>0</asrwt>
<pdfrwt beam="1">  1        2 0.73810553E-01 0.88243546E+03</pdfrwt>
<pdfrwt beam="2">  1       -2 0.38704716E+00 0.88243546E+03</pdfrwt>
<totfact> 0.60411237E-01</totfact>
</mgrwt>
</event>
<event>
 4    1  0.5223852E-007  0.1298258E+04  0.7818608E-02  0.9067066E-01
          2   -1    0    0  501    0  0.00000000000E+00  0.00000000000E+00  0.14239401239E+04  0.14239401239E+04  0.25500000000E-02 0. -1.
         -2   -1    0    0    0  501 -0.00000000000E+00 -0.00000000000E+00 -0.11053788179E+04  0.11053788179E+04  0.25500000000E-02 0.  1.
    8880023    1    1    2    0    0 -0.38913415968E+02  0.11181007864E+04  0.48909419496E+03  0.13873308763E+04  0.65864270000E+03 0.  1.
    8880022    1    1    2    0    0  0.38913415968E+02 -0.11181007864E+04 -0.17053288896E+03  0.11419880655E+04  0.15294330000E+03 0. -1.
<mgrwt>
<rscale>  0 0.12537527E+04</rscale>
<asrwt>0</asrwt>
<pdfrwt beam="1">  1        2 0.21906771E+00 0.12982580E+04</pdfrwt>
<pdfrwt beam="2">  1       -2 0.17005828E+00 0.12982580E+04</pdfrwt>
<totfact> 0.28719374E+00</totfact>
</mgrwt>
</event>
<event>
 4    1  0.5223852E-007  0.7181126E+03  0.7818608E-02  0.9929025E-01
         -2   -1    0    0    0  501 -0.00000000000E+00  0.00000000000E+00  0.34291488335E+03  0.34291488336E+03  0.25500000000E-02 0.  1.
          2   -1    0    0  501    0  0.00000000000E+00 -0.00000000000E+00 -0.21472183418E+04  0.21472183418E+04  0.25500000000E-02 0. -1.
    8880023    1    1    2    0    0  0.89210902176E+02 -0.27187662274E+03 -0.65247650114E+02  0.72107069360E+03  0.65864270000E+03 0.  1.
    8880022    1    1    2    0    0 -0.89210902176E+02  0.27187662274E+03 -0.17390558084E+04  0.17690625316E+04  0.15294330000E+03 0.  0.
<mgrwt>
<rscale>  0 0.58875012E+03</rscale>
<asrwt>0</asrwt>
<pdfrwt beam="1">  1        2 0.33034128E+00 0.71811259E+03</pdfrwt>
<pdfrwt beam="2">  1       -2 0.52756137E-01 0.71811259E+03</pdfrwt>
<totfact> 0.19530639E+01</totfact>
</mgrwt>
</event>
<event>
 4    1  0.5223852E-007  0.8666375E+03  0.7818608E-02  0.9581864E-01
         -2   -1    0    0    0  501 -0.00000000000E+00  0.00000000000E+00  0.29962728299E+03  0.29962728300E+03  0.25500000000E-02 0.  1.
          2   -1    0    0  501    0  0.00000000000E+00 -0.00000000000E+00 -0.23210618864E+04  0.23210618864E+04  0.25500000000E-02 0. -1.
    8880023    1    1    2    0    0 -0.14968893265E+03 -0.54299496399E+03 -0.52208373506E+03  0.10117469744E+04  0.65864270000E+03 0.  0.
    8880022    1    1    2    0    0  0.14968893265E+03  0.54299496399E+03 -0.14993508683E+04  0.16089421950E+04  0.15294330000E+03 0.  0.
<mgrwt>
<rscale>  0 0.78508263E+03</rscale>
<asrwt>0</asrwt>
<pdfrwt beam="1">  1        2 0.35708643E+00 0.86663748E+03</pdfrwt>
<pdfrwt beam="2">  1       -2 0.46096507E-01 0.86663748E+03</pdfrwt>
<totfact> 0.20168203E+01</totfact>
</mgrwt>
</event>
<event>
 4    1  0.5223852E-007  0.1175164E+04  0.7818608E-02  0.9181651E-01
          2   -1    0    0  501    0  0.00000000000E+00  0.00000000000E+00  0.12486389516E+04  0.12486389516E+04  0.25500000000E-02 0. -1.
         -2   -1    0    0    0  501 -0.00000000000E+00 -0.00000000000E+00 -0.97184172924E+03  0.97184172924E+03  0.25500000000E-02 0.  1.
    8880023    1    1    2    0    0 -0.92067383778E+03  0.31553232304E+03 -0.66889656499E+02  0.11770664360E+04  0.65864270000E+03 0.  1.
    8880022    1    1    2    0    0  0.92067383778E+03 -0.31553232304E+03  0.34368687881E+03  0.10434142447E+04  0.15294330000E+03 0. -1.
<mgrwt>
<rscale>  0 0.11244847E+04</rscale>
<asrwt>0</asrwt>
<pdfrwt beam="1">  1        2 0.19209830E+00 0.11751643E+04</pdfrwt>
<pdfrwt beam="2">  1       -2 0.14951411E+00 0.11751643E+04</pdfrwt>
<totfact> 0.52210664E+00</totfact>
</mgrwt>
</event>
<event>
 4    1  0.5223852E-007  0.7391001E+03  0.7818608E-02  0.9862576E-01
          2   -1    0    0  501    0  0.00000000000E+00  0.00000000000E+00  0.31357982955E+04  0.31357982955E+04  0.25500000000E-02 0. -1.
         -2   -1    0    0    0  501 -0.00000000000E+00 -0.00000000000E+00 -0.10593529631E+03  0.10593529634E+03  0.25500000000E-02 0.  1.
    8880023    1    1    2    0    0  0.28492321801E+03  0.17685435805E+03  0.24077117211E+04  0.25185997385E+04  0.65864270000E+03 0.  0.
    8880022    1    1    2    0    0 -0.28492321801E+03 -0.17685435805E+03  0.62215127801E+03  0.72313385335E+03  0.15294330000E+03 0.  0.
<mgrwt>
<rscale>  0 0.62109786E+03</rscale>
<asrwt>0</asrwt>
<pdfrwt beam="1">  1        2 0.48243045E+00 0.73910007E+03</pdfrwt>
<pdfrwt beam="2">  1       -2 0.16297740E-01 0.73910007E+03</pdfrwt>
<totfact> 0.46127682E+01</totfact>
</mgrwt>
</event>
<event>
 4    1  0.5223852E-007  0.8187633E+03  0.7818608E-02  0.9671604E-01
          2   -1    0    0  501    0  0.00000000000E+00  0.00000000000E+00  0.25032579155E+04  0.25032579155E+04  0.25500000000E-02 0. -1.
         -2   -1    0    0    0  501 -0.00000000000E+00 -0.00000000000E+00 -0.21694572640E+03  0.21694572641E+03  0.25500000000E-02 0.  1.
    8880023    1    1    2    0    0 -0.42264944084E+03  0.24068769298E+03  0.78345487751E+03  0.11332143958E+04  0.65864270000E+03 0.  0.
    8880022    1    1    2    0    0  0.42264944084E+03 -0.24068769298E+03  0.15028573116E+04  0.15869892462E+04  0.15294330000E+03 0.  0.
<mgrwt>
<rscale>  0 0.72732915E+03</rscale>
<asrwt>0</asrwt>
<pdfrwt beam="1">  1        2 0.38511662E+00 0.81876329E+03</pdfrwt>
<pdfrwt beam="2">  1       -2 0.33376264E-01 0.81876329E+03</pdfrwt>
<totfact> 0.30047846E+01</totfact>
</mgrwt>
</event>
<event>
 4    1  0.5223852E-007  0.7861455E+03  0.7818608E-02  0.9741594E-01
         -2   -1    0    0    0  501 -0.00000000000E+00  0.00000000000E+00  0.23493190587E+03  0.23493190589E+03  0.25500000000E-02 0.  1.
          2   -1    0    0  501    0  0.00000000000E+00 -0.00000000000E+00 -0.24359039333E+04  0.24359039333E+04  0.25500000000E-02 0. -1.
    8880023    1    1    2    0    0  0.37555141251E+03  0.20778749153E+03 -0.55332806068E+03  0.96135147271E+03  0.65864270000E+03 0.  0.
    8880022    1    1    2    0    0 -0.37555141251E+03 -0.20778749153E+03 -0.16476439667E+04  0.17094843664E+04  0.15294330000E+03 0.  0.
<mgrwt>
<rscale>  0 0.68593382E+03</rscale>
<asrwt>0</asrwt>
<pdfrwt beam="1">  1        2 0.37475443E+00 0.78614548E+03</pdfrwt>
<pdfrwt beam="2">  1       -2 0.36143372E-01 0.78614548E+03</pdfrwt>
<totfact> 0.28313216E+01</totfact>
</mgrwt>
</event>
<event>
 4    1  0.5223852E-007  0.9251749E+03  0.7818608E-02  0.9486769E-01
         -2   -1    0    0    0  501 -0.00000000000E+00  0.00000000000E+00  0.65606233544E+03  0.65606233545E+03  0.25500000000E-02 0.  1.
          2   -1    0    0  501    0  0.00000000000E+00 -0.00000000000E+00 -0.16375077033E+04  0.16375077033E+04  0.25500000000E-02 0. -1.
    8880023    1    1    2    0    0  0.58050870336E+03 -0.29180142990E+03  0.19076911451E+03  0.94463828553E+03  0.65864270000E+03 0.  1.
    8880022    1    1    2    0    0 -0.58050870336E+03  0.29180142990E+03 -0.11722144824E+04  0.13489317532E+04  0.15294330000E+03 0.  0.
<mgrwt>
<rscale>  0 0.85266320E+03</rscale>
<asrwt>0</asrwt>
<pdfrwt beam="1">  1        2 0.25192426E+00 0.92517492E+03</pdfrwt>
<pdfrwt beam="2">  1       -2 0.10093267E+00 0.92517492E+03</pdfrwt>
<totfact> 0.86259972E+00</totfact>
</mgrwt>
</event>
<event>
 4    1  0.5223852E-007  0.7884078E+03  0.7818608E-02  0.9736445E-01
         -2   -1    0    0    0  501 -0.00000000000E+00  0.00000000000E+00  0.37165693642E+03  0.37165693643E+03  0.25500000000E-02 0.  1.
          2   -1    0    0  501    0  0.00000000000E+00 -0.00000000000E+00 -0.18738749940E+04  0.18738749940E+04  0.25500000000E-02 0. -1.
    8880023    1    1    2    0    0 -0.39829000469E+03  0.17070926103E+03 -0.13081499855E+03  0.79918668016E+03  0.65864270000E+03 0.  0.
    8880022    1    1    2    0    0  0.39829000469E+03 -0.17070926103E+03 -0.13714030590E+04  0.14463452502E+04  0.15294330000E+03 0.  0.
<mgrwt>
<rscale>  0 0.68887708E+03</rscale>
<asrwt>0</asrwt>
<pdfrwt beam="1">  1        2 0.28828846E+00 0.78840775E+03</pdfrwt>
<pdfrwt beam="2">  1       -2 0.57177991E-01 0.78840775E+03</pdfrwt>
<totfact> 0.23088758E+01</totfact>
</mgrwt>
</event>
<event>
 4    1  0.5223852E-007  0.6626843E+03  0.7818608E-02  0.1021561E+00
          2   -1    0    0  501    0  0.00000000000E+00  0.00000000000E+00  0.32648921158E+04  0.32648921158E+04  0.25500000000E-02 0. -1.
         -2   -1    0    0    0  501 -0.00000000000E+00 -0.00000000000E+00 -0.61239931856E+02  0.61239931910E+02  0.25500000000E-02 0.  1.
    8880023    1    1    2    0    0 -0.23726149161E+02 -0.69118636741E+02  0.19158571107E+04  0.20272293879E+04  0.65864270000E+03 0.  1.
    8880022    1    1    2    0    0  0.23726149161E+02  0.69118636741E+02  0.12877950732E+04  0.12989026598E+04  0.15294330000E+03 0.  0.
<mgrwt>
<rscale>  0 0.47127641E+03</rscale>
<asrwt>0</asrwt>
<pdfrwt beam="1">  1        2 0.50229114E+00 0.66268433E+03</pdfrwt>
<pdfrwt beam="2">  1       -2 0.94215271E-02 0.66268433E+03</pdfrwt>
<totfact> 0.95905448E+01</totfact>
</mgrwt>
</event>
<event>
 4    1  0.5223852E-007  0.7122586E+03  0.7818608E-02  0.9949708E-01
          2   -1    0    0  501    0  0.00000000000E+00  0.00000000000E+00  0.16881886350E+04  0.16881886350E+04  0.25500000000E-02 0. -1.
         -2   -1    0    0    0  501 -0.00000000000E+00 -0.00000000000E+00 -0.71427092172E+03  0.71427092173E+03  0.25500000000E-02 0.  1.
    8880023    1    1    2    0    0 -0.62976185460E+02 -0.26369696398E+03 -0.51653989527E+03  0.87984416712E+03  0.65864270000E+03 0.  0.
    8880022    1    1    2    0    0  0.62976185460E+02  0.26369696398E+03  0.14904576085E+04  0.15226153896E+04  0.15294330000E+03 0.  0.
<mgrwt>
<rscale>  0 0.57911556E+03</rscale>
<asrwt>0</asrwt>
<pdfrwt beam="1">  1        2 0.25972133E+00 0.71225859E+03</pdfrwt>
<pdfrwt beam="2">  1       -2 0.10988783E+00 0.71225859E+03</pdfrwt>
<totfact> 0.67855647E+00</totfact>
</mgrwt>
</event>
<event>
 4    1  0.5223852E-007  0.7849462E+03  0.7818608E-02  0.9744344E-01
         -2   -1    0    0    0  501 -0.00000000000E+00  0.00000000000E+00  0.12945702810E+04  0.12945702810E+04  0.25500000000E-02 0.  1.
          2   -1    0    0  501    0  0.00000000000E+00 -0.00000000000E+00 -0.45146845338E+03  0.45146845339E+03  0.25500000000E-02 0. -1.
    8880023    1    1    2    0    0  0.40354065263E+03  0.13958960103E+03  0.99533330900E+03  0.12676075565E+04  0.65864270000E+03 0.  1.
    8880022    1    1    2    0    0 -0.40354065263E+03 -0.13958960103E+03 -0.15223148138E+03  0.47843117789E+03  0.15294330000E+03 0.  0.
<mgrwt>
<rscale>  0 0.68436848E+03</rscale>
<asrwt>0</asrwt>
<pdfrwt beam="1">  1        2 0.69456685E-01 0.78494619E+03</pdfrwt>
<pdfrwt beam="2">  1       -2 0.19916466E+00 0.78494619E+03</pdfrwt>
<totfact> 0.94746987E+00</totfact>
</mgrwt>
</event>
<event>
 4    1  0.5223852E-007  0.7620099E+03  0.7818608E-02  0.9799932E-01
          2   -1    0    0  501    0  0.00000000000E+00  0.00000000000E+00  0.14084517251E+04  0.14084517251E+04  0.25500000000E-02 0. -1.
         -2   -1    0    0    0  501 -0.00000000000E+00 -0.00000000000E+00 -0.62387845674E+03  0.62387845674E+03  0.25500000000E-02 0.  1.
    8880023    1    1    2    0    0 -0.34167836237E+03 -0.17350720462E+03 -0.34002478013E+03  0.83443148954E+03  0.65864270000E+03 0.  0.
    8880022    1    1    2    0    0  0.34167836237E+03  0.17350720462E+03  0.11245980485E+04  0.11978986923E+04  0.15294330000E+03 0.  0.
<mgrwt>
<rscale>  0 0.65366212E+03</rscale>
<asrwt>0</asrwt>
<pdfrwt beam="1">  1        2 0.21668488E+00 0.76200988E+03</pdfrwt>
<pdfrwt beam="2">  1       -2 0.95981302E-01 0.76200988E+03</pdfrwt>
<totfact> 0.13296578E+01</totfact>
</mgrwt>
</event>
<event>
 4    1  0.5223852E-007  0.7451501E+03  0.7818608E-02  0.9845191E-01
         -2   -1    0    0    0  501 -0.00000000000E+00  0.00000000000E+00  0.19398063034E+03  0.19398063035E+03  0.25500000000E-02 0.  1.
          2   -1    0    0  501    0  0.00000000000E+00 -0.00000000000E+00 -0.36319903531E+04  0.36319903531E+04  0.25500000000E-02 0. -1.
    8880023    1    1    2    0    0 -0.24184019112E+03  0.25090196367E+03 -0.58409010421E+03  0.94678927408E+03  0.65864270000E+03 0.  1.
    8880022    1    1    2    0    0  0.24184019112E+03 -0.25090196367E+03 -0.28539196186E+04  0.28791817094E+04  0.15294330000E+03 0.  0.
<mgrwt>
<rscale>  0 0.62992695E+03</rscale>
<asrwt>0</asrwt>
<pdfrwt beam="1">  1        2 0.55876770E+00 0.74515011E+03</pdfrwt>
<pdfrwt beam="2">  1       -2 0.29843177E-01 0.74515011E+03</pdfrwt>
<totfact> 0.73704147E+00</totfact>
</mgrwt>
</event>
<event>
 4    1  0.5223852E-007  0.7203790E+03  0.7818608E-02  0.9921306E-01
          2   -1    0    0  501    0  0.00000000000E+00  0.00000000000E+00  0.30586000079E+04  0.30586000079E+04  0.25500000000E-02 0. -1.
         -2   -1    0    0    0  501 -0.00000000000E+00 -0.00000000000E+00 -0.59716618300E+03  0.59716618301E+03  0.25500000000E-02 0.  1.
    8880023    1    1    2    0    0  0.16771877090E+03 -0.23875959269E+03 -0.36681688235E+03  0.80839381532E+03  0.65864270000E+03 0.  1.
    8880022    1    1    2    0    0 -0.16771877090E+03  0.23875959269E+03  0.28282507073E+04  0.28473723756E+04  0.15294330000E+03 0.  0.
<mgrwt>
<rscale>  0 0.59239749E+03</rscale>
<asrwt>0</asrwt>
<pdfrwt beam="1">  1        2 0.47055385E+00 0.72037902E+03</pdfrwt>
<pdfrwt beam="2">  1       -2 0.91871719E-01 0.72037902E+03</pdfrwt>
<totfact> 0.17349857E+00</totfact>
</mgrwt>
</event>
<event>
 4    1  0.5223852E-007  0.7254709E+03  0.7818608E-02  0.9904491E-01
          2   -1    0    0  501    0  0.00000000000E+00  0.00000000000E+00  0.61378215983E+03  0.61378215984E+03  0.25500000000E-02 0. -1.
         -2   -1    0    0    0  501 -0.00000000000E+00 -0.00000000000E+00 -0.69414202986E+03  0.69414202987E+03  0.25500000000E-02 0.  1.
    8880023    1    1    2    0    0  0.48915017617E+02  0.30017517966E+03 -0.41062564619E+03  0.83361948454E+03  0.65864270000E+03 0.  1.
    8880022    1    1    2    0    0 -0.48915017617E+02 -0.30017517966E+03  0.33026577616E+03  0.47430470517E+03  0.15294330000E+03 0.  0.
<mgrwt>
<rscale>  0 0.60044121E+03</rscale>
<asrwt>0</asrwt>
<pdfrwt beam="1">  1        2 0.94428025E-01 0.72547090E+03</pdfrwt>
<pdfrwt beam="2">  1       -2 0.10679108E+00 0.72547090E+03</pdfrwt>
<totfact> 0.34551237E+01</totfact>
</mgrwt>
</event>
<event>
 4    1  0.5223852E-007  0.6714658E+03  0.7818608E-02  0.1014633E+00
         -2   -1    0    0    0  501 -0.00000000000E+00  0.00000000000E+00  0.27790808356E+04  0.27790808356E+04  0.25500000000E-02 0.  1.
          2   -1    0    0  501    0  0.00000000000E+00 -0.00000000000E+00 -0.53140081171E+03  0.53140081171E+03  0.25500000000E-02 0. -1.
    8880023    1    1    2    0    0  0.12383052018E+03  0.41498575540E+02  0.27176048376E+04  0.27993289176E+04  0.65864270000E+03 0.  1.
    8880022    1    1    2    0    0 -0.12383052018E+03 -0.41498575540E+02 -0.46992481371E+03  0.51115272968E+03  0.15294330000E+03 0.  0.
<mgrwt>
<rscale>  0 0.49674073E+03</rscale>
<asrwt>0</asrwt>
<pdfrwt beam="1">  1        2 0.81753972E-01 0.67146581E+03</pdfrwt>
<pdfrwt beam="2">  1       -2 0.42755089E+00 0.67146581E+03</pdfrwt>
<totfact> 0.30413878E-01</totfact>
</mgrwt>
</event>
<event>
 4    1  0.5223852E-007  0.7855261E+03  0.7818608E-02  0.9743013E-01
         -2   -1    0    0    0  501 -0.00000000000E+00  0.00000000000E+00  0.40874167564E+03  0.40874167564E+03  0.25500000000E-02 0.  1.
          2   -1    0    0  501    0  0.00000000000E+00 -0.00000000000E+00 -0.13670354457E+04  0.13670354457E+04  0.25500000000E-02 0. -1.
    8880023    1    1    2    0    0  0.42670124632E+03 -0.34161880901E+02 -0.83529014441E+02  0.78995461277E+03  0.65864270000E+03 0.  1.
    8880022    1    1    2    0    0 -0.42670124632E+03  0.34161880901E+02 -0.87476475564E+03  0.98582250859E+03  0.15294330000E+03 0.  0.
<mgrwt>
<rscale>  0 0.68512579E+03</rscale>
<asrwt>0</asrwt>
<pdfrwt beam="1">  1        2 0.21031314E+00 0.78552606E+03</pdfrwt>
<pdfrwt beam="2">  1       -2 0.62883335E-01 0.78552606E+03</pdfrwt>
<totfact> 0.36030811E+01</totfact>
</mgrwt>
</event>
<event>
 4    1  0.5223852E-007  0.8309721E+03  0.7818608E-02  0.9647444E-01
          2   -1    0    0  501    0  0.00000000000E+00  0.00000000000E+00  0.71722928954E+03  0.71722928954E+03  0.25500000000E-02 0. -1.
         -2   -1    0    0    0  501 -0.00000000000E+00 -0.00000000000E+00 -0.69238456255E+03  0.69238456256E+03  0.25500000000E-02 0.  1.
    8880023    1    1    2    0    0  0.28580014318E+03  0.41835712128E+03  0.19527460918E+03  0.85360809627E+03  0.65864270000E+03 0. -1.
    8880022    1    1    2    0    0 -0.28580014318E+03 -0.41835712128E+03 -0.17042988219E+03  0.55600575583E+03  0.15294330000E+03 0.  1.
<mgrwt>
<rscale>  0 0.74234058E+03</rscale>
<asrwt>0</asrwt>
<pdfrwt beam="1">  1        2 0.11034297E+00 0.83097209E+03</pdfrwt>
<pdfrwt beam="2">  1       -2 0.10652070E+00 0.83097209E+03</pdfrwt>
<totfact> 0.28399903E+01</totfact>
</mgrwt>
</event>
<event>
 4    1  0.5223852E-007  0.6676579E+03  0.7818608E-02  0.1017401E+00
          2   -1    0    0  501    0  0.00000000000E+00  0.00000000000E+00  0.10735923996E+04  0.10735923996E+04  0.25500000000E-02 0. -1.
         -2   -1    0    0    0  501 -0.00000000000E+00 -0.00000000000E+00 -0.22150567606E+03  0.22150567607E+03  0.25500000000E-02 0.  1.
    8880023    1    1    2    0    0 -0.93294358360E+02 -0.57035370225E+02  0.33929216549E+03  0.74892339434E+03  0.65864270000E+03 0.  1.
    8880022    1    1    2    0    0  0.93294358360E+02  0.57035370225E+02  0.51279455809E+03  0.54617468138E+03  0.15294330000E+03 0.  0.
<mgrwt>
<rscale>  0 0.48636454E+03</rscale>
<asrwt>0</asrwt>
<pdfrwt beam="1">  1        2 0.16516806E+00 0.66765790E+03</pdfrwt>
<pdfrwt beam="2">  1       -2 0.34077797E-01 0.66765790E+03</pdfrwt>
<totfact> 0.18539614E+02</totfact>
</mgrwt>
</event>
<event>
 4    1  0.5223852E-007  0.6975077E+03  0.7818608E-02  0.1000770E+00
          2   -1    0    0  501    0  0.00000000000E+00  0.00000000000E+00  0.54141454134E+03  0.54141454135E+03  0.25500000000E-02 0. -1.
         -2   -1    0    0    0  501 -0.00000000000E+00 -0.00000000000E+00 -0.67210171515E+03  0.67210171515E+03  0.25500000000E-02 0.  1.
    8880023    1    1    2    0    0 -0.22016142634E+03  0.65082179867E+02 -0.41965206147E+03  0.81401769191E+03  0.65864270000E+03 0.  0.
    8880022    1    1    2    0    0  0.22016142634E+03 -0.65082179867E+02  0.28896488767E+03  0.39949856458E+03  0.15294330000E+03 0.  0.
<mgrwt>
<rscale>  0 0.55313823E+03</rscale>
<asrwt>0</asrwt>
<pdfrwt beam="1">  1        2 0.83294544E-01 0.69750767E+03</pdfrwt>
<pdfrwt beam="2">  1       -2 0.10340026E+00 0.69750767E+03</pdfrwt>
<totfact> 0.43461255E+01</totfact>
</mgrwt>
</event>
<event>
 4    1  0.5223852E-007  0.7974137E+03  0.7818608E-02  0.9716416E-01
          2   -1    0    0  501    0  0.00000000000E+00  0.00000000000E+00  0.18164106696E+04  0.18164106696E+04  0.25500000000E-02 0. -1.
         -2   -1    0    0    0  501 -0.00000000000E+00 -0.00000000000E+00 -0.48712293188E+03  0.48712293188E+03  0.25500000000E-02 0.  1.
    8880023    1    1    2    0    0  0.32555772205E+03 -0.30995245911E+03 -0.94187047361E+02  0.80295688766E+03  0.65864270000E+03 0.  1.
    8880022    1    1    2    0    0 -0.32555772205E+03  0.30995245911E+03  0.14234747851E+04  0.15005767139E+04  0.15294330000E+03 0.  0.
<mgrwt>
<rscale>  0 0.70047726E+03</rscale>
<asrwt>0</asrwt>
<pdfrwt beam="1">  1        2 0.27944779E+00 0.79741367E+03</pdfrwt>
<pdfrwt beam="2">  1       -2 0.74941990E-01 0.79741367E+03</pdfrwt>
<totfact> 0.13842422E+01</totfact>
</mgrwt>
</event>
<event>
 4    1  0.5223852E-007  0.7164649E+03  0.7818608E-02  0.9934734E-01
         -2   -1    0    0    0  501 -0.00000000000E+00  0.00000000000E+00  0.35178072430E+04  0.35178072430E+04  0.25500000000E-02 0.  1.
          2   -1    0    0  501    0  0.00000000000E+00 -0.00000000000E+00 -0.11726329801E+03  0.11726329804E+03  0.25500000000E-02 0. -1.
    8880023    1    1    2    0    0  0.24672265403E+03  0.13652736364E+03  0.31431861478E+04  0.32238084861E+04  0.65864270000E+03 0.  0.
    8880022    1    1    2    0    0 -0.24672265403E+03 -0.13652736364E+03  0.25735779714E+03  0.41126205490E+03  0.15294330000E+03 0.  0.
<mgrwt>
<rscale>  0 0.58607061E+03</rscale>
<asrwt>0</asrwt>
<pdfrwt beam="1">  1        2 0.18040507E-01 0.71646493E+03</pdfrwt>
<pdfrwt beam="2">  1       -2 0.54120112E+00 0.71646493E+03</pdfrwt>
<totfact> 0.31847028E-01</totfact>
</mgrwt>
</event>
<event>
 4    1  0.5223852E-007  0.9659738E+03  0.7818608E-02  0.9427494E-01
         -2   -1    0    0    0  501 -0.00000000000E+00  0.00000000000E+00  0.24574708638E+03  0.24574708640E+03  0.25500000000E-02 0.  1.
          2   -1    0    0  501    0  0.00000000000E+00 -0.00000000000E+00 -0.44825173670E+04  0.44825173670E+04  0.25500000000E-02 0. -1.
    8880023    1    1    2    0    0  0.17476654417E+02  0.70639212535E+03 -0.92127853022E+03  0.13348631408E+04  0.65864270000E+03 0.  0.
    8880022    1    1    2    0    0 -0.17476654417E+02 -0.70639212535E+03 -0.33154917504E+04  0.33934013125E+04  0.15294330000E+03 0.  0.
<mgrwt>
<rscale>  0 0.89847134E+03</rscale>
<asrwt>0</asrwt>
<pdfrwt beam="1">  1        2 0.68961800E+00 0.96597385E+03</pdfrwt>
<pdfrwt beam="2">  1       -2 0.37807247E-01 0.96597385E+03</pdfrwt>
<totfact> 0.91496288E-01</totfact>
</mgrwt>
</event>
<event>
 4    1  0.5223852E-007  0.9712688E+03  0.7818608E-02  0.9420152E-01
          2   -1    0    0  501    0  0.00000000000E+00  0.00000000000E+00  0.22557158281E+04  0.22557158281E+04  0.25500000000E-02 0. -1.
         -2   -1    0    0    0  501 -0.00000000000E+00 -0.00000000000E+00 -0.38931721611E+03  0.38931721612E+03  0.25500000000E-02 0.  1.
    8880023    1    1    2    0    0 -0.39558706275E+03  0.59419165889E+03  0.49197862961E+03  0.10887635326E+04  0.65864270000E+03 0.  0.
    8880022    1    1    2    0    0  0.39558706275E+03 -0.59419165889E+03  0.13744199823E+04  0.15562695116E+04  0.15294330000E+03 0.  0.
<mgrwt>
<rscale>  0 0.90435683E+03</rscale>
<asrwt>0</asrwt>
<pdfrwt beam="1">  1        2 0.34703320E+00 0.97126879E+03</pdfrwt>
<pdfrwt beam="2">  1       -2 0.59894957E-01 0.97126879E+03</pdfrwt>
<totfact> 0.12621235E+01</totfact>
</mgrwt>
</event>
<event>
 4    1  0.5223852E-007  0.8190501E+03  0.7818608E-02  0.9671025E-01
          2   -1    0    0  501    0  0.00000000000E+00  0.00000000000E+00  0.10799631676E+04  0.10799631676E+04  0.25500000000E-02 0. -1.
         -2   -1    0    0    0  501 -0.00000000000E+00 -0.00000000000E+00 -0.51114751821E+03  0.51114751822E+03  0.25500000000E-02 0.  1.
    8880023    1    1    2    0    0 -0.23767382115E+03 -0.42490470810E+03 -0.10451206153E+02  0.81911677446E+03  0.65864270000E+03 0.  1.
    8880022    1    1    2    0    0  0.23767382115E+03  0.42490470810E+03  0.57926685551E+03  0.77199391133E+03  0.15294330000E+03 0.  0.
<mgrwt>
<rscale>  0 0.72768443E+03</rscale>
<asrwt>0</asrwt>
<pdfrwt beam="1">  1        2 0.16614818E+00 0.81905010E+03</pdfrwt>
<pdfrwt beam="2">  1       -2 0.78638081E-01 0.81905010E+03</pdfrwt>
<totfact> 0.32544299E+01</totfact>
</mgrwt>
</event>
<event>
 4    1  0.5223852E-007  0.6691802E+03  0.7818608E-02  0.1016258E+00
         -2   -1    0    0    0  501 -0.00000000000E+00  0.00000000000E+00  0.10872911093E+04  0.10872911093E+04  0.25500000000E-02 0.  1.
          2   -1    0    0  501    0  0.00000000000E+00 -0.00000000000E+00 -0.41570600724E+03  0.41570600725E+03  0.25500000000E-02 0. -1.
    8880023    1    1    2    0    0  0.42659599452E+02 -0.11032691738E+03  0.95122311419E+03  0.11630251456E+04  0.65864270000E+03 0.  1.
    8880022    1    1    2    0    0 -0.42659599452E+02  0.11032691738E+03 -0.27963801217E+03  0.33997197089E+03  0.15294330000E+03 0.  0.
<mgrwt>
<rscale>  0 0.49061669E+03</rscale>
<asrwt>0</asrwt>
<pdfrwt beam="1">  1        2 0.63954770E-01 0.66918015E+03</pdfrwt>
<pdfrwt beam="2">  1       -2 0.16727556E+00 0.66918015E+03</pdfrwt>
<totfact> 0.17346158E+01</totfact>
</mgrwt>
</event>
<event>
 4    1  0.5223852E-007  0.7916983E+03  0.7818608E-02  0.9729042E-01
         -2   -1    0    0    0  501 -0.00000000000E+00  0.00000000000E+00  0.52165266333E+03  0.52165266333E+03  0.25500000000E-02 0.  1.
          2   -1    0    0  501    0  0.00000000000E+00 -0.00000000000E+00 -0.16374146051E+04  0.16374146051E+04  0.25500000000E-02 0. -1.
    8880023    1    1    2    0    0 -0.43911935055E+03 -0.12258075773E+02 -0.14040114954E+04  0.16118419742E+04  0.65864270000E+03 0. -1.
    8880022    1    1    2    0    0  0.43911935055E+03  0.12258075773E+02  0.28824955361E+03  0.54722529421E+03  0.15294330000E+03 0.  0.
<mgrwt>
<rscale>  0 0.69313665E+03</rscale>
<asrwt>0</asrwt>
<pdfrwt beam="1">  1        2 0.25190994E+00 0.79169835E+03</pdfrwt>
<pdfrwt beam="2">  1       -2 0.80254257E-01 0.79169835E+03</pdfrwt>
<totfact> 0.14898253E+01</totfact>
</mgrwt>
</event>
<event>
 4    1  0.5223852E-007  0.1005213E+04  0.7818608E-02  0.9374770E-01
         -2   -1    0    0    0  501 -0.00000000000E+00  0.00000000000E+00  0.37342324779E+03  0.37342324780E+03  0.25500000000E-02 0.  1.
          2   -1    0    0  501    0  0.00000000000E+00 -0.00000000000E+00 -0.31715780463E+04  0.31715780463E+04  0.25500000000E-02 0. -1.
    8880023    1    1    2    0    0  0.10033793306E+03  0.75271143659E+03 -0.50577503609E+03  0.11252825427E+04  0.65864270000E+03 0.  0.
    8880022    1    1    2    0    0 -0.10033793306E+03 -0.75271143659E+03 -0.22923797624E+04  0.24197187513E+04  0.15294330000E+03 0.  0.
<mgrwt>
<rscale>  0 0.94181460E+03</rscale>
<asrwt>0</asrwt>
<pdfrwt beam="1">  1        2 0.48793506E+00 0.10052126E+04</pdfrwt>
<pdfrwt beam="2">  1       -2 0.57449733E-01 0.10052126E+04</pdfrwt>
<totfact> 0.39426404E+00</totfact>
</mgrwt>
</event>
<event>
 4    1  0.5223852E-007  0.9280738E+03  0.7818608E-02  0.9482389E-01
         -2   -1    0    0    0  501 -0.00000000000E+00  0.00000000000E+00  0.23026057644E+03  0.23026057646E+03  0.25500000000E-02 0.  1.
          2   -1    0    0  501    0  0.00000000000E+00 -0.00000000000E+00 -0.37702720443E+04  0.37702720443E+04  0.25500000000E-02 0. -1.
    8880023    1    1    2    0    0 -0.63674824774E+03 -0.14853448538E+03 -0.96278572124E+03  0.13372648861E+04  0.65864270000E+03 0.  1.
    8880022    1    1    2    0    0  0.63674824774E+03  0.14853448538E+03 -0.25772257466E+04  0.26632677347E+04  0.15294330000E+03 0.  0.
<mgrwt>
<rscale>  0 0.85594769E+03</rscale>
<asrwt>0</asrwt>
<pdfrwt beam="1">  1        2 0.58004181E+00 0.92807383E+03</pdfrwt>
<pdfrwt beam="2">  1       -2 0.35424707E-01 0.92807383E+03</pdfrwt>
<totfact> 0.40980745E+00</totfact>
</mgrwt>
</event>
<event>
 4    1  0.5223852E-007  0.1865200E+04  0.7818608E-02  0.8687302E-01
         -2   -1    0    0    0  501 -0.00000000000E+00  0.00000000000E+00  0.19998535433E+04  0.19998535433E+04  0.25500000000E-02 0.  1.
          2   -1    0    0  501    0  0.00000000000E+00 -0.00000000000E+00 -0.22882293758E+04  0.22882293758E+04  0.25500000000E-02 0. -1.
    8880023    1    1    2    0    0  0.17277196747E+04 -0.24524652126E+03  0.99738893001E+03  0.21151255316E+04  0.65864270000E+03 0.  0.
    8880022    1    1    2    0    0 -0.17277196747E+04  0.24524652126E+03 -0.12857647625E+04  0.21729573875E+04  0.15294330000E+03 0.  0.
<mgrwt>
<rscale>  0 0.18361610E+04</rscale>
<asrwt>0</asrwt>
<pdfrwt beam="1">  1        2 0.35203529E+00 0.18652001E+04</pdfrwt>
<pdfrwt beam="2">  1       -2 0.30766978E+00 0.18652001E+04</pdfrwt>
<totfact> 0.11810607E-01</totfact>
</mgrwt>
</event>
<event>
 4    1  0.5223852E-007  0.7575043E+03  0.7818608E-02  0.9811612E-01
         -2   -1    0    0    0  501 -0.00000000000E+00  0.00000000000E+00  0.45359423921E+03  0.45359423921E+03  0.25500000000E-02 0.  1.
          2   -1    0    0  501    0  0.00000000000E+00 -0.00000000000E+00 -0.77315019818E+03  0.77315019819E+03  0.25500000000E-02 0. -1.
    8880023    1    1    2    0    0 -0.26780942300E+03 -0.26130571426E+03 -0.92532967924E+02  0.76313505998E+03  0.65864270000E+03 0.  0.
    8880022    1    1    2    0    0  0.26780942300E+03  0.26130571426E+03 -0.22702299105E+03  0.46360937742E+03  0.15294330000E+03 0.  0.
<mgrwt>
<rscale>  0 0.64743089E+03</rscale>
<asrwt>0</asrwt>
<pdfrwt beam="1">  1        2 0.11894618E+00 0.75750430E+03</pdfrwt>
<pdfrwt beam="2">  1       -2 0.69783729E-01 0.75750430E+03</pdfrwt>
<totfact> 0.68289752E+01</totfact>
</mgrwt>
</event>
<event>
 4    1  0.5223852E-007  0.6827223E+03  0.7818608E-02  0.1007824E+00
          2   -1    0    0  501    0  0.00000000000E+00  0.00000000000E+00  0.23963980951E+04  0.23963980951E+04  0.25500000000E-02 0. -1.
         -2   -1    0    0    0  501 -0.00000000000E+00 -0.00000000000E+00 -0.99250232118E+02  0.99250232151E+02  0.25500000000E-02 0.  1.
    8880023    1    1    2    0    0 -0.16694180223E+03  0.66558192497E+02  0.12714704681E+04  0.14431725177E+04  0.65864270000E+03 0.  1.
    8880022    1    1    2    0    0  0.16694180223E+03 -0.66558192497E+02  0.10256773948E+04  0.10524758095E+04  0.15294330000E+03 0.  0.
<mgrwt>
<rscale>  0 0.52348761E+03</rscale>
<asrwt>0</asrwt>
<pdfrwt beam="1">  1        2 0.36867663E+00 0.68272232E+03</pdfrwt>
<pdfrwt beam="2">  1       -2 0.15269267E-01 0.68272232E+03</pdfrwt>
<totfact> 0.14157565E+02</totfact>
</mgrwt>
</event>
<event>
 4    1  0.5223852E-007  0.6918041E+03  0.7818608E-02  0.1003307E+00
         -2   -1    0    0    0  501 -0.00000000000E+00  0.00000000000E+00  0.76616402365E+03  0.76616402366E+03  0.25500000000E-02 0.  1.
          2   -1    0    0  501    0  0.00000000000E+00 -0.00000000000E+00 -0.90911921163E+03  0.90911921163E+03  0.25500000000E-02 0. -1.
    8880023    1    1    2    0    0 -0.34912954332E+02  0.20871936414E+03  0.58243276016E+03  0.90433445899E+03  0.65864270000E+03 0.  0.
    8880022    1    1    2    0    0  0.34912954332E+02 -0.20871936414E+03 -0.72538794814E+03  0.77094877629E+03  0.15294330000E+03 0.  0.
<mgrwt>
<rscale>  0 0.54223801E+03</rscale>
<asrwt>0</asrwt>
<pdfrwt beam="1">  1        2 0.13986449E+00 0.69180409E+03</pdfrwt>
<pdfrwt beam="2">  1       -2 0.11787139E+00 0.69180409E+03</pdfrwt>
<totfact> 0.16404044E+01</totfact>
</mgrwt>
</event>
<event>
 4    1  0.5223852E-007  0.7020295E+03  0.7818608E-02  0.9988884E-01
         -2   -1    0    0    0  501 -0.00000000000E+00  0.00000000000E+00  0.96285289651E+03  0.96285289652E+03  0.25500000000E-02 0.  1.
          2   -1    0    0  501    0  0.00000000000E+00 -0.00000000000E+00 -0.44831750557E+03  0.44831750558E+03  0.25500000000E-02 0. -1.
    8880023    1    1    2    0    0 -0.19430654822E+03 -0.14587720814E+03  0.75914524691E+03  0.10339956028E+04  0.65864270000E+03 0.  1.
    8880022    1    1    2    0    0  0.19430654822E+03  0.14587720814E+03 -0.24460985597E+03  0.37717479925E+03  0.15294330000E+03 0.  0.
<mgrwt>
<rscale>  0 0.56140348E+03</rscale>
<asrwt>0</asrwt>
<pdfrwt beam="1">  1        2 0.68971924E-01 0.70202949E+03</pdfrwt>
<pdfrwt beam="2">  1       -2 0.14813121E+00 0.70202949E+03</pdfrwt>
<totfact> 0.22008755E+01</totfact>
</mgrwt>
</event>
<event>
 4    1  0.5223852E-007  0.6823916E+03  0.7818608E-02  0.1008002E+00
          2   -1    0    0  501    0  0.00000000000E+00  0.00000000000E+00  0.47164876331E+03  0.47164876331E+03  0.25500000000E-02 0. -1.
         -2   -1    0    0    0  501 -0.00000000000E+00 -0.00000000000E+00 -0.51949841581E+03  0.51949841582E+03  0.25500000000E-02 0.  1.
    8880023    1    1    2    0    0  0.11955743488E+03  0.13249167425E+03  0.13219725870E+03  0.69507866134E+03  0.65864270000E+03 0. -1.
    8880022    1    1    2    0    0 -0.11955743488E+03 -0.13249167425E+03 -0.18004691120E+03  0.29606851779E+03  0.15294330000E+03 0.  0.
<mgrwt>
<rscale>  0 0.52276514E+03</rscale>
<asrwt>0</asrwt>
<pdfrwt beam="1">  1        2 0.72561348E-01 0.68239155E+03</pdfrwt>
<pdfrwt beam="2">  1       -2 0.79922834E-01 0.68239155E+03</pdfrwt>
<totfact> 0.92630779E+01</totfact>
</mgrwt>
</event>
<event>
 4    1  0.5223852E-007  0.7338236E+03  0.7818608E-02  0.9878318E-01
         -2   -1    0    0    0  501 -0.00000000000E+00  0.00000000000E+00  0.70167621417E+03  0.70167621417E+03  0.25500000000E-02 0.  1.
          2   -1    0    0  501    0  0.00000000000E+00 -0.00000000000E+00 -0.96502571775E+03  0.96502571776E+03  0.25500000000E-02 0. -1.
    8880023    1    1    2    0    0  0.24157770658E+03  0.21523727652E+03  0.45549531760E+03  0.86369732206E+03  0.65864270000E+03 0.  1.
    8880022    1    1    2    0    0 -0.24157770658E+03 -0.21523727652E+03 -0.71884482118E+03  0.80300460987E+03  0.15294330000E+03 0.  0.
<mgrwt>
<rscale>  0 0.61323693E+03</rscale>
<asrwt>0</asrwt>
<pdfrwt beam="1">  1        2 0.14846549E+00 0.73382360E+03</pdfrwt>
<pdfrwt beam="2">  1       -2 0.10795019E+00 0.73382360E+03</pdfrwt>
<totfact> 0.18576912E+01</totfact>
</mgrwt>
</event>
<event>
 4    1  0.5223852E-007  0.6602068E+03  0.7818608E-02  0.1023946E+00
         -2   -1    0    0    0  501 -0.00000000000E+00  0.00000000000E+00  0.39378563429E+03  0.39378563430E+03  0.25500000000E-02 0.  1.
          2   -1    0    0  501    0  0.00000000000E+00 -0.00000000000E+00 -0.44412415878E+03  0.44412415878E+03  0.25500000000E-02 0. -1.
    8880023    1    1    2    0    0 -0.43246356287E+02 -0.13874525556E+02  0.26685269970E+02  0.66074583592E+03  0.65864270000E+03 0.  1.
    8880022    1    1    2    0    0  0.43246356287E+02  0.13874525556E+02 -0.77023794453E+02  0.17716395716E+03  0.15294330000E+03 0.  0.
<mgrwt>
<rscale>  0 0.46289270E+03</rscale>
<asrwt>0</asrwt>
<pdfrwt beam="1">  1        2 0.68326794E-01 0.66020675E+03</pdfrwt>
<pdfrwt beam="2">  1       -2 0.60582405E-01 0.66020675E+03</pdfrwt>
<totfact> 0.18157011E+02</totfact>
</mgrwt>
</event>
<event>
 4    1  0.5223852E-007  0.1484275E+04  0.7818608E-02  0.8920821E-01
          2   -1    0    0  501    0  0.00000000000E+00  0.00000000000E+00  0.25940027122E+04  0.25940027122E+04  0.25500000000E-02 0. -1.
         -2   -1    0    0    0  501 -0.00000000000E+00 -0.00000000000E+00 -0.89355917178E+03  0.89355917178E+03  0.25500000000E-02 0.  1.
    8880023    1    1    2    0    0  0.10334479177E+04  0.83740484619E+03  0.15403905434E+04  0.21391294275E+04  0.65864270000E+03 0.  0.
    8880022    1    1    2    0    0 -0.10334479177E+04 -0.83740484619E+03  0.16005299700E+03  0.13484324565E+04  0.15294330000E+03 0.  0.
<mgrwt>
<rscale>  0 0.14465144E+04</rscale>
<asrwt>0</asrwt>
<pdfrwt beam="1">  1        2 0.39907735E+00 0.14842748E+04</pdfrwt>
<pdfrwt beam="2">  1       -2 0.13747064E+00 0.14842748E+04</pdfrwt>
<totfact> 0.10959345E+00</totfact>
</mgrwt>
</event>
<event>
 4    1  0.5223852E-007  0.6985733E+03  0.7818608E-02  0.1000317E+00
          2   -1    0    0  501    0  0.00000000000E+00  0.00000000000E+00  0.32844445412E+04  0.32844445412E+04  0.25500000000E-02 0. -1.
         -2   -1    0    0    0  501 -0.00000000000E+00 -0.00000000000E+00 -0.10543799681E+03  0.10543799685E+03  0.25500000000E-02 0.  1.
    8880023    1    1    2    0    0  0.57535395495E+02 -0.22557520722E+03  0.11778129491E+04  0.13693969640E+04  0.65864270000E+03 0.  0.
    8880022    1    1    2    0    0 -0.57535395495E+02  0.22557520722E+03  0.20011935953E+04  0.20204855740E+04  0.15294330000E+03 0.  0.
<mgrwt>
<rscale>  0 0.55511380E+03</rscale>
<asrwt>0</asrwt>
<pdfrwt beam="1">  1        2 0.50529904E+00 0.69857333E+03</pdfrwt>
<pdfrwt beam="2">  1       -2 0.16221234E-01 0.69857333E+03</pdfrwt>
<totfact> 0.37631029E+01</totfact>
</mgrwt>
</event>
<event>
 4    1  0.5223852E-007  0.1609666E+04  0.7818608E-02  0.8835843E-01
          2   -1    0    0  501    0  0.00000000000E+00  0.00000000000E+00  0.44362064419E+04  0.44362064419E+04  0.25500000000E-02 0. -1.
         -2   -1    0    0    0  501 -0.00000000000E+00 -0.00000000000E+00 -0.61120162252E+03  0.61120162253E+03  0.25500000000E-02 0.  1.
    8880023    1    1    2    0    0  0.66324362085E+03  0.13104662458E+04  0.11051277760E+04  0.19525192674E+04  0.65864270000E+03 0. -1.
    8880022    1    1    2    0    0 -0.66324362085E+03 -0.13104662458E+04  0.27198770433E+04  0.30948887970E+04  0.15294330000E+03 0.  0.
<mgrwt>
<rscale>  0 0.15753387E+04</rscale>
<asrwt>0</asrwt>
<pdfrwt beam="1">  1        2 0.68249328E+00 0.16096658E+04</pdfrwt>
<pdfrwt beam="2">  1       -2 0.94031021E-01 0.16096658E+04</pdfrwt>
<totfact> 0.13075976E-01</totfact>
</mgrwt>
</event>
<event>
 4    1  0.5223852E-007  0.9663408E+03  0.7818608E-02  0.9426983E-01
          2   -1    0    0  501    0  0.00000000000E+00  0.00000000000E+00  0.11203838659E+04  0.11203838659E+04  0.25500000000E-02 0. -1.
         -2   -1    0    0    0  501 -0.00000000000E+00 -0.00000000000E+00 -0.10400183881E+04  0.10400183881E+04  0.25500000000E-02 0.  1.
    8880023    1    1    2    0    0  0.17967093119E+03 -0.68390250326E+03  0.71175334043E+03  0.12001696969E+04  0.65864270000E+03 0. -1.
    8880022    1    1    2    0    0 -0.17967093119E+03  0.68390250326E+03 -0.63138786269E+03  0.96023255707E+03  0.15294330000E+03 0.  0.
<mgrwt>
<rscale>  0 0.89887959E+03</rscale>
<asrwt>0</asrwt>
<pdfrwt beam="1">  1        2 0.17236675E+00 0.96634077E+03</pdfrwt>
<pdfrwt beam="2">  1       -2 0.16000283E+00 0.96634077E+03</pdfrwt>
<totfact> 0.53024652E+00</totfact>
</mgrwt>
</event>
<event>
 4    1  0.5223852E-007  0.6868458E+03  0.7818608E-02  0.1005689E+00
          2   -1    0    0  501    0  0.00000000000E+00  0.00000000000E+00  0.39719448405E+03  0.39719448406E+03  0.25500000000E-02 0. -1.
         -2   -1    0    0    0  501 -0.00000000000E+00 -0.00000000000E+00 -0.12108678562E+04  0.12108678562E+04  0.25500000000E-02 0.  1.
    8880023    1    1    2    0    0 -0.88884445014E+02  0.17333935694E+03 -0.10571990338E+04  0.12607247838E+04  0.65864270000E+03 0.  1.
    8880022    1    1    2    0    0  0.88884445014E+02 -0.17333935694E+03  0.24352566164E+03  0.34733755645E+03  0.15294330000E+03 0.  0.
<mgrwt>
<rscale>  0 0.53224453E+03</rscale>
<asrwt>0</asrwt>
<pdfrwt beam="1">  1        2 0.61106844E-01 0.68684582E+03</pdfrwt>
<pdfrwt beam="2">  1       -2 0.18628736E+00 0.68684582E+03</pdfrwt>
<totfact> 0.13463829E+01</totfact>
</mgrwt>
</event>
<event>
 4    1  0.5223852E-007  0.7814528E+03  0.7818608E-02  0.9752435E-01
          2   -1    0    0  501    0  0.00000000000E+00  0.00000000000E+00  0.20043713524E+04  0.20043713524E+04  0.25500000000E-02 0. -1.
         -2   -1    0    0    0  501 -0.00000000000E+00 -0.00000000000E+00 -0.31362255999E+03  0.31362256000E+03  0.25500000000E-02 0.  1.
    8880023    1    1    2    0    0 -0.68466254652E+01  0.42048944213E+03  0.26736626966E+03  0.82592564777E+03  0.65864270000E+03 0.  0.
    8880022    1    1    2    0    0  0.68466254652E+01 -0.42048944213E+03  0.14233825228E+04  0.14920682647E+04  0.15294330000E+03 0. -1.
<mgrwt>
<rscale>  0 0.67978816E+03</rscale>
<asrwt>0</asrwt>
<pdfrwt beam="1">  1        2 0.30836484E+00 0.78145278E+03</pdfrwt>
<pdfrwt beam="2">  1       -2 0.48249623E-01 0.78145278E+03</pdfrwt>
<totfact> 0.27811840E+01</totfact>
</mgrwt>
</event>
<event>
 4    1  0.5223852E-007  0.6739272E+03  0.7818608E-02  0.1012991E+00
          2   -1    0    0  501    0  0.00000000000E+00  0.00000000000E+00  0.63087639001E+03  0.63087639002E+03  0.25500000000E-02 0. -1.
         -2   -1    0    0    0  501 -0.00000000000E+00 -0.00000000000E+00 -0.31602938425E+03  0.31602938426E+03  0.25500000000E-02 0.  1.
    8880023    1    1    2    0    0 -0.13823559812E+03 -0.35475724914E+02  0.17835984979E+03  0.69712986590E+03  0.65864270000E+03 0.  1.
    8880022    1    1    2    0    0  0.13823559812E+03  0.35475724914E+02  0.13648715597E+03  0.24977590838E+03  0.15294330000E+03 0. -1.
<mgrwt>
<rscale>  0 0.50302951E+03</rscale>
<asrwt>0</asrwt>
<pdfrwt beam="1">  1        2 0.97057905E-01 0.67392716E+03</pdfrwt>
<pdfrwt beam="2">  1       -2 0.48619906E-01 0.67392716E+03</pdfrwt>
<totfact> 0.18941008E+02</totfact>
</mgrwt>
</event>
<event>
 4    1  0.5223852E-007  0.8903562E+03  0.7818608E-02  0.9541694E-01
         -2   -1    0    0    0  501 -0.00000000000E+00  0.00000000000E+00  0.38128835884E+03  0.38128835885E+03  0.25500000000E-02 0.  1.
          2   -1    0    0  501    0  0.00000000000E+00 -0.00000000000E+00 -0.23753533719E+04  0.23753533719E+04  0.25500000000E-02 0. -1.
    8880023    1    1    2    0    0 -0.24520218302E+03  0.54662580250E+03 -0.27825802014E+03  0.93282453363E+03  0.65864270000E+03 0.  1.
    8880022    1    1    2    0    0  0.24520218302E+03 -0.54662580250E+03 -0.17158069929E+04  0.18238171971E+04  0.15294330000E+03 0. -1.
<mgrwt>
<rscale>  0 0.81278479E+03</rscale>
<asrwt>0</asrwt>
<pdfrwt beam="1">  1        2 0.36543897E+00 0.89035616E+03</pdfrwt>
<pdfrwt beam="2">  1       -2 0.58659749E-01 0.89035616E+03</pdfrwt>
<totfact> 0.11418527E+01</totfact>
</mgrwt>
</event>
<event>
 4    1  0.5223852E-007  0.7971039E+03  0.7818608E-02  0.9717093E-01
         -2   -1    0    0    0  501 -0.00000000000E+00  0.00000000000E+00  0.33030971532E+03  0.33030971533E+03  0.25500000000E-02 0.  1.
          2   -1    0    0  501    0  0.00000000000E+00 -0.00000000000E+00 -0.13942811550E+04  0.13942811550E+04  0.25500000000E-02 0. -1.
    8880023    1    1    2    0    0  0.27229593812E+03 -0.35695846141E+03 -0.35732744482E+03  0.87353164234E+03  0.65864270000E+03 0.  0.
    8880022    1    1    2    0    0 -0.27229593812E+03  0.35695846141E+03 -0.70664399489E+03  0.85105922803E+03  0.15294330000E+03 0.  0.
<mgrwt>
<rscale>  0 0.70008120E+03</rscale>
<asrwt>0</asrwt>
<pdfrwt beam="1">  1        2 0.21450479E+00 0.79710390E+03</pdfrwt>
<pdfrwt beam="2">  1       -2 0.50816880E-01 0.79710390E+03</pdfrwt>
<totfact> 0.54192771E+01</totfact>
</mgrwt>
</event>
<event>
 4    1  0.5223852E-007  0.7932295E+03  0.7818608E-02  0.9725631E-01
          2   -1    0    0  501    0  0.00000000000E+00  0.00000000000E+00  0.31899103844E+04  0.31899103844E+04  0.25500000000E-02 0. -1.
         -2   -1    0    0    0  501 -0.00000000000E+00 -0.00000000000E+00 -0.22423092471E+03  0.22423092473E+03  0.25500000000E-02 0.  1.
    8880023    1    1    2    0    0  0.32431976544E+03  0.30036563374E+03  0.57902309431E+03  0.98207982068E+03  0.65864270000E+03 0.  1.
    8880022    1    1    2    0    0 -0.32431976544E+03 -0.30036563374E+03  0.23866563654E+04  0.24320614885E+04  0.15294330000E+03 0.  0.
<mgrwt>
<rscale>  0 0.69511024E+03</rscale>
<asrwt>0</asrwt>
<pdfrwt beam="1">  1        2 0.49075545E+00 0.79322949E+03</pdfrwt>
<pdfrwt beam="2">  1       -2 0.34497065E-01 0.79322949E+03</pdfrwt>
<totfact> 0.10995305E+01</totfact>
</mgrwt>
</event>
<event>
 4    1  0.5223852E-007  0.1080937E+04  0.7818608E-02  0.9282583E-01
         -2   -1    0    0    0  501 -0.00000000000E+00  0.00000000000E+00  0.64201916809E+03  0.64201916809E+03  0.25500000000E-02 0.  1.
          2   -1    0    0  501    0  0.00000000000E+00 -0.00000000000E+00 -0.26295747929E+04  0.26295747929E+04  0.25500000000E-02 0. -1.
    8880023    1    1    2    0    0  0.82255379969E+03  0.24087503708E+03  0.22407415894E+02  0.10811696608E+04  0.65864270000E+03 0.  1.
    8880022    1    1    2    0    0 -0.82255379969E+03 -0.24087503708E+03 -0.20099630407E+04  0.21904243002E+04  0.15294330000E+03 0.  0.
<mgrwt>
<rscale>  0 0.10240227E+04</rscale>
<asrwt>0</asrwt>
<pdfrwt beam="1">  1        2 0.40454996E+00 0.10809374E+04</pdfrwt>
<pdfrwt beam="2">  1       -2 0.98772181E-01 0.10809374E+04</pdfrwt>
<totfact> 0.24864941E+00</totfact>
</mgrwt>
</event>
<event>
 4    1  0.5223852E-007  0.7792192E+03  0.7818608E-02  0.9757674E-01
          2   -1    0    0  501    0  0.00000000000E+00  0.00000000000E+00  0.20711553845E+04  0.20711553845E+04  0.25500000000E-02 0. -1.
         -2   -1    0    0    0  501 -0.00000000000E+00 -0.00000000000E+00 -0.31050966222E+03  0.31050966223E+03  0.25500000000E-02 0.  1.
    8880023    1    1    2    0    0  0.18977022876E+03 -0.37062061459E+03  0.26723644995E+03  0.82377054216E+03  0.65864270000E+03 0.  0.
    8880022    1    1    2    0    0 -0.18977022876E+03  0.37062061459E+03  0.14934092723E+04  0.15578945046E+04  0.15294330000E+03 0.  0.
<mgrwt>
<rscale>  0 0.67684302E+03</rscale>
<asrwt>0</asrwt>
<pdfrwt beam="1">  1        2 0.31863929E+00 0.77921922E+03</pdfrwt>
<pdfrwt beam="2">  1       -2 0.47770717E-01 0.77921922E+03</pdfrwt>
<totfact> 0.26095160E+01</totfact>
</mgrwt>
</event>
<event>
 4    1  0.5223852E-007  0.7556206E+03  0.7818608E-02  0.9816580E-01
         -2   -1    0    0    0  501 -0.00000000000E+00  0.00000000000E+00  0.64145335588E+03  0.64145335588E+03  0.25500000000E-02 0.  1.
          2   -1    0    0  501    0  0.00000000000E+00 -0.00000000000E+00 -0.16746876943E+04  0.16746876943E+04  0.25500000000E-02 0. -1.
    8880023    1    1    2    0    0 -0.19190675096E+02 -0.36984327786E+03  0.38100094289E+03  0.84624125220E+03  0.65864270000E+03 0.  1.
    8880022    1    1    2    0    0  0.19190675096E+02  0.36984327786E+03 -0.14142352813E+04  0.14698997979E+04  0.15294330000E+03 0.  0.
<mgrwt>
<rscale>  0 0.64480309E+03</rscale>
<asrwt>0</asrwt>
<pdfrwt beam="1">  1        2 0.25764426E+00 0.75562063E+03</pdfrwt>
<pdfrwt beam="2">  1       -2 0.98685133E-01 0.75562063E+03</pdfrwt>
<totfact> 0.88702911E+00</totfact>
</mgrwt>
</event>
<event>
 4    1  0.5223852E-007  0.1009759E+04  0.7818608E-02  0.9368900E-01
         -2   -1    0    0    0  501 -0.00000000000E+00  0.00000000000E+00  0.63954374157E+03  0.63954374158E+03  0.25500000000E-02 0.  1.
          2   -1    0    0  501    0  0.00000000000E+00 -0.00000000000E+00 -0.12759430755E+04  0.12759430755E+04  0.25500000000E-02 0. -1.
    8880023    1    1    2    0    0  0.76076942826E+03 -0.83863857033E+02 -0.23045993127E+03  0.10357245076E+04  0.65864270000E+03 0. -1.
    8880022    1    1    2    0    0 -0.76076942826E+03  0.83863857033E+02 -0.40593940263E+03  0.87976230944E+03  0.15294330000E+03 0.  1.
<mgrwt>
<rscale>  0 0.94679918E+03</rscale>
<asrwt>0</asrwt>
<pdfrwt beam="1">  1        2 0.19629893E+00 0.10097591E+04</pdfrwt>
<pdfrwt beam="2">  1       -2 0.98391345E-01 0.10097591E+04</pdfrwt>
<totfact> 0.14562902E+01</totfact>
</mgrwt>
</event>
<event>
 4    1  0.5223852E-007  0.7897291E+03  0.7818608E-02  0.9733460E-01
          2   -1    0    0  501    0  0.00000000000E+00  0.00000000000E+00  0.16833031725E+04  0.16833031725E+04  0.25500000000E-02 0. -1.
         -2   -1    0    0    0  501 -0.00000000000E+00 -0.00000000000E+00 -0.39429790034E+03  0.39429790035E+03  0.25500000000E-02 0.  1.
    8880023    1    1    2    0    0 -0.49788830894E+02 -0.43287746425E+03  0.92567203746E+02  0.79513566151E+03  0.65864270000E+03 0.  0.
    8880022    1    1    2    0    0  0.49788830894E+02  0.43287746425E+03  0.11964380684E+04  0.12824654114E+04  0.15294330000E+03 0.  0.
<mgrwt>
<rscale>  0 0.69059053E+03</rscale>
<asrwt>0</asrwt>
<pdfrwt beam="1">  1        2 0.25896972E+00 0.78972909E+03</pdfrwt>
<pdfrwt beam="2">  1       -2 0.60661214E-01 0.78972909E+03</pdfrwt>
<totfact> 0.25910386E+01</totfact>
</mgrwt>
</event>
<event>
 4    1  0.5223852E-007  0.6770661E+03  0.7818608E-02  0.1011034E+00
         -2   -1    0    0    0  501 -0.00000000000E+00  0.00000000000E+00  0.23292966254E+03  0.23292966255E+03  0.25500000000E-02 0.  1.
          2   -1    0    0  501    0  0.00000000000E+00 -0.00000000000E+00 -0.93849922785E+03  0.93849922785E+03  0.25500000000E-02 0. -1.
    8880023    1    1    2    0    0 -0.35120693929E+02  0.15288825131E+03 -0.37252487770E+03  0.77278280991E+03  0.65864270000E+03 0.  1.
    8880022    1    1    2    0    0  0.35120693929E+02 -0.15288825131E+03 -0.33304468761E+03  0.39864608049E+03  0.15294330000E+03 0. -1.
<mgrwt>
<rscale>  0 0.51065593E+03</rscale>
<asrwt>0</asrwt>
<pdfrwt beam="1">  1        2 0.14438449E+00 0.67706609E+03</pdfrwt>
<pdfrwt beam="2">  1       -2 0.35835333E-01 0.67706609E+03</pdfrwt>
<totfact> 0.20514079E+02</totfact>
</mgrwt>
</event>
<event>
 4    1  0.5223852E-007  0.8330344E+03  0.7818608E-02  0.9643457E-01
         -2   -1    0    0    0  501 -0.00000000000E+00  0.00000000000E+00  0.11618241249E+04  0.11618241249E+04  0.25500000000E-02 0.  1.
          2   -1    0    0  501    0  0.00000000000E+00 -0.00000000000E+00 -0.75576744007E+03  0.75576744008E+03  0.25500000000E-02 0. -1.
    8880023    1    1    2    0    0 -0.22555392936E+03  0.45745111986E+03  0.87495121439E+03  0.12080918574E+04  0.65864270000E+03 0.  1.
    8880022    1    1    2    0    0  0.22555392936E+03 -0.45745111986E+03 -0.46889452959E+03  0.70949970754E+03  0.15294330000E+03 0.  0.
<mgrwt>
<rscale>  0 0.74485485E+03</rscale>
<asrwt>0</asrwt>
<pdfrwt beam="1">  1        2 0.11627191E+00 0.83303440E+03</pdfrwt>
<pdfrwt beam="2">  1       -2 0.17874217E+00 0.83303440E+03</pdfrwt>
<totfact> 0.69294155E+00</totfact>
</mgrwt>
</event>
<event>
 4    1  0.5223852E-007  0.6843217E+03  0.7818608E-02  0.1006978E+00
         -2   -1    0    0    0  501 -0.00000000000E+00  0.00000000000E+00  0.21529544523E+03  0.21529544524E+03  0.25500000000E-02 0.  1.
          2   -1    0    0  501    0  0.00000000000E+00 -0.00000000000E+00 -0.22038773018E+04  0.22038773018E+04  0.25500000000E-02 0. -1.
    8880023    1    1    2    0    0 -0.52540754706E+02  0.17811624922E+03 -0.36061135877E+03  0.77352226049E+03  0.65864270000E+03 0.  1.
    8880022    1    1    2    0    0  0.52540754706E+02 -0.17811624922E+03 -0.16279704978E+04  0.16456504865E+04  0.15294330000E+03 0.  0.
<mgrwt>
<rscale>  0 0.52693739E+03</rscale>
<asrwt>0</asrwt>
<pdfrwt beam="1">  1        2 0.33905803E+00 0.68432166E+03</pdfrwt>
<pdfrwt beam="2">  1       -2 0.33122378E-01 0.68432166E+03</pdfrwt>
<totfact> 0.45626289E+01</totfact>
</mgrwt>
</event>
<event>
 4    1  0.5223852E-007  0.6764193E+03  0.7818608E-02  0.1011426E+00
         -2   -1    0    0    0  501 -0.00000000000E+00  0.00000000000E+00  0.53462217651E+03  0.53462217652E+03  0.25500000000E-02 0.  1.
          2   -1    0    0  501    0  0.00000000000E+00 -0.00000000000E+00 -0.81004313829E+03  0.81004313829E+03  0.25500000000E-02 0. -1.
    8880023    1    1    2    0    0  0.68840386184E+02 -0.13781823520E+03  0.29228729117E+03  0.73686832716E+03  0.65864270000E+03 0.  1.
    8880022    1    1    2    0    0 -0.68840386184E+02  0.13781823520E+03 -0.56770825295E+03  0.60779698765E+03  0.15294330000E+03 0.  0.
<mgrwt>
<rscale>  0 0.50911730E+03</rscale>
<asrwt>0</asrwt>
<pdfrwt beam="1">  1        2 0.12462202E+00 0.67641930E+03</pdfrwt>
<pdfrwt beam="2">  1       -2 0.82249565E-01 0.67641930E+03</pdfrwt>
<totfact> 0.44877927E+01</totfact>
</mgrwt>
</event>
<event>
 4    1  0.5223852E-007  0.6627380E+03  0.7818608E-02  0.1021512E+00
         -2   -1    0    0    0  501 -0.00000000000E+00  0.00000000000E+00  0.25811272134E+03  0.25811272136E+03  0.25500000000E-02 0.  1.
          2   -1    0    0  501    0  0.00000000000E+00 -0.00000000000E+00 -0.89632763160E+03  0.89632763160E+03  0.25500000000E-02 0. -1.
    8880023    1    1    2    0    0  0.21489062432E+02 -0.70353817048E+02 -0.21222654901E+03  0.69588918209E+03  0.65864270000E+03 0.  1.
    8880022    1    1    2    0    0 -0.21489062432E+02  0.70353817048E+02 -0.42598836124E+03  0.45855117087E+03  0.15294330000E+03 0.  0.
<mgrwt>
<rscale>  0 0.47145071E+03</rscale>
<asrwt>0</asrwt>
<pdfrwt beam="1">  1        2 0.13789656E+00 0.66273799E+03</pdfrwt>
<pdfrwt beam="2">  1       -2 0.39709650E-01 0.66273799E+03</pdfrwt>
<totfact> 0.17970248E+02</totfact>
</mgrwt>
</event>
<event>
 4    1  0.5223852E-007  0.9638352E+03  0.7818608E-02  0.9430482E-01
          2   -1    0    0  501    0  0.00000000000E+00  0.00000000000E+00  0.12543134499E+04  0.12543134499E+04  0.25500000000E-02 0. -1.
         -2   -1    0    0    0  501 -0.00000000000E+00 -0.00000000000E+00 -0.66435989207E+03  0.66435989208E+03  0.25500000000E-02 0.  1.
    8880023    1    1    2    0    0  0.66418890797E+03 -0.23242463044E+03 -0.36041733761E+02  0.96450885281E+03  0.65864270000E+03 0.  0.
    8880022    1    1    2    0    0 -0.66418890797E+03  0.23242463044E+03  0.62599529159E+03  0.95416448918E+03  0.15294330000E+03 0.  0.
<mgrwt>
<rscale>  0 0.89609065E+03</rscale>
<asrwt>0</asrwt>
<pdfrwt beam="1">  1        2 0.19297130E+00 0.96383521E+03</pdfrwt>
<pdfrwt beam="2">  1       -2 0.10220922E+00 0.96383521E+03</pdfrwt>
<totfact> 0.13752141E+01</totfact>
</mgrwt>
</event>
<event>
 4    1  0.5223852E-007  0.8163560E+03  0.7818608E-02  0.9676487E-01
         -2   -1    0    0    0  501 -0.00000000000E+00  0.00000000000E+00  0.10002546206E+04  0.10002546206E+04  0.25500000000E-02 0.  1.
          2   -1    0    0  501    0  0.00000000000E+00 -0.00000000000E+00 -0.14341219599E+04  0.14341219599E+04  0.25500000000E-02 0. -1.
    8880023    1    1    2    0    0 -0.35319683114E+03 -0.32844927820E+03  0.77391348879E+03  0.11248907610E+04  0.65864270000E+03 0.  1.
    8880022    1    1    2    0    0  0.35319683114E+03  0.32844927820E+03 -0.12077808281E+04  0.13094858196E+04  0.15294330000E+03 0.  0.
<mgrwt>
<rscale>  0 0.72434194E+03</rscale>
<asrwt>0</asrwt>
<pdfrwt beam="1">  1        2 0.22063415E+00 0.81635601E+03</pdfrwt>
<pdfrwt beam="2">  1       -2 0.15388533E+00 0.81635601E+03</pdfrwt>
<totfact> 0.39327705E+00</totfact>
</mgrwt>
</event>
<event>
 4    1  0.5223852E-007  0.7412346E+03  0.7818608E-02  0.9856365E-01
         -2   -1    0    0    0  501 -0.00000000000E+00  0.00000000000E+00  0.45711519211E+03  0.45711519212E+03  0.25500000000E-02 0.  1.
          2   -1    0    0  501    0  0.00000000000E+00 -0.00000000000E+00 -0.21481615819E+04  0.21481615819E+04  0.25500000000E-02 0. -1.
    8880023    1    1    2    0    0 -0.20435588968E+03 -0.27176674566E+03  0.12469634669E+03  0.75165010400E+03  0.65864270000E+03 0.  1.
    8880022    1    1    2    0    0  0.20435588968E+03  0.27176674566E+03 -0.18157427365E+04  0.18536266700E+04  0.15294330000E+03 0.  0.
<mgrwt>
<rscale>  0 0.62423421E+03</rscale>
<asrwt>0</asrwt>
<pdfrwt beam="1">  1        2 0.33048639E+00 0.74123458E+03</pdfrwt>
<pdfrwt beam="2">  1       -2 0.70325415E-01 0.74123458E+03</pdfrwt>
<totfact> 0.10571986E+01</totfact>
</mgrwt>
</event>
<event>
 4    1  0.5223852E-007  0.8913621E+03  0.7818608E-02  0.9540043E-01
          2   -1    0    0  501    0  0.00000000000E+00  0.00000000000E+00  0.20749060997E+04  0.20749060998E+04  0.25500000000E-02 0. -1.
         -2   -1    0    0    0  501 -0.00000000000E+00 -0.00000000000E+00 -0.62824631458E+03  0.62824631459E+03  0.25500000000E-02 0.  1.
    8880023    1    1    2    0    0  0.59731901984E+03  0.62658957004E+02 -0.22582956644E+03  0.91952452697E+03  0.65864270000E+03 0.  1.
    8880022    1    1    2    0    0 -0.59731901984E+03 -0.62658957004E+02  0.16724893516E+04  0.17836278874E+04  0.15294330000E+03 0.  0.
<mgrwt>
<rscale>  0 0.81394912E+03</rscale>
<asrwt>0</asrwt>
<pdfrwt beam="1">  1        2 0.31921632E+00 0.89136208E+03</pdfrwt>
<pdfrwt beam="2">  1       -2 0.96653279E-01 0.89136208E+03</pdfrwt>
<totfact> 0.55186669E+00</totfact>
</mgrwt>
</event>
<event>
 4    1  0.5223852E-007  0.6861552E+03  0.7818608E-02  0.1006036E+00
         -2   -1    0    0    0  501 -0.00000000000E+00  0.00000000000E+00  0.43306392140E+03  0.43306392141E+03  0.25500000000E-02 0.  1.
          2   -1    0    0  501    0  0.00000000000E+00 -0.00000000000E+00 -0.86191708273E+03  0.86191708273E+03  0.25500000000E-02 0. -1.
    8880023    1    1    2    0    0 -0.91928956099E+02  0.16896088299E+03  0.11727962442E+03  0.69610590395E+03  0.65864270000E+03 0.  0.
    8880022    1    1    2    0    0  0.91928956099E+02 -0.16896088299E+03 -0.54613278574E+03  0.59887510019E+03  0.15294330000E+03 0. -1.
<mgrwt>
<rscale>  0 0.53080831E+03</rscale>
<asrwt>0</asrwt>
<pdfrwt beam="1">  1        2 0.13260263E+00 0.68615517E+03</pdfrwt>
<pdfrwt beam="2">  1       -2 0.66625219E-01 0.68615517E+03</pdfrwt>
<totfact> 0.65670527E+01</totfact>
</mgrwt>
</event>
<event>
 4    1  0.5223852E-007  0.7401100E+03  0.7818608E-02  0.9859627E-01
          2   -1    0    0  501    0  0.00000000000E+00  0.00000000000E+00  0.21763837829E+04  0.21763837829E+04  0.25500000000E-02 0. -1.
         -2   -1    0    0    0  501 -0.00000000000E+00 -0.00000000000E+00 -0.29759296886E+03  0.29759296887E+03  0.25500000000E-02 0.  1.
    8880023    1    1    2    0    0 -0.23757490077E+03 -0.23981397882E+03  0.21686061372E+03  0.77122714550E+03  0.65864270000E+03 0.  1.
    8880022    1    1    2    0    0  0.23757490077E+03  0.23981397882E+03  0.16619302003E+04  0.17027496062E+04  0.15294330000E+03 0.  0.
<mgrwt>
<rscale>  0 0.62258478E+03</rscale>
<asrwt>0</asrwt>
<pdfrwt beam="1">  1        2 0.33482828E+00 0.74010998E+03</pdfrwt>
<pdfrwt beam="2">  1       -2 0.45783533E-01 0.74010998E+03</pdfrwt>
<totfact> 0.25012734E+01</totfact>
</mgrwt>
</event>
<event>
 4    1  0.5223852E-007  0.9018170E+03  0.7818608E-02  0.9523121E-01
         -2   -1    0    0    0  501 -0.00000000000E+00  0.00000000000E+00  0.45226553954E+03  0.45226553955E+03  0.25500000000E-02 0.  1.
          2   -1    0    0  501    0  0.00000000000E+00 -0.00000000000E+00 -0.24354873837E+04  0.24354873837E+04  0.25500000000E-02 0. -1.
    8880023    1    1    2    0    0 -0.48454426646E+03  0.38036899710E+03 -0.10828175130E+03  0.90829448091E+03  0.65864270000E+03 0.  1.
    8880022    1    1    2    0    0  0.48454426646E+03 -0.38036899710E+03 -0.18749400929E+04  0.19794584423E+04  0.15294330000E+03 0.  0.
<mgrwt>
<rscale>  0 0.82600460E+03</rscale>
<asrwt>0</asrwt>
<pdfrwt beam="1">  1        2 0.37469036E+00 0.90181701E+03</pdfrwt>
<pdfrwt beam="2">  1       -2 0.69579315E-01 0.90181701E+03</pdfrwt>
<totfact> 0.73098955E+00</totfact>
</mgrwt>
</event>
<event>
 4    1  0.5223852E-007  0.7377152E+03  0.7818608E-02  0.9866653E-01
         -2   -1    0    0    0  501 -0.00000000000E+00  0.00000000000E+00  0.94194237145E+03  0.94194237146E+03  0.25500000000E-02 0.  1.
          2   -1    0    0  501    0  0.00000000000E+00 -0.00000000000E+00 -0.34029456558E+03  0.34029456559E+03  0.25500000000E-02 0. -1.
    8880023    1    1    2    0    0  0.21159672888E+03 -0.25620365605E+03  0.53285151910E+03  0.91002990979E+03  0.65864270000E+03 0.  0.
    8880022    1    1    2    0    0 -0.21159672888E+03  0.25620365605E+03  0.68796286777E+02  0.37220702725E+03  0.15294330000E+03 0.  0.
<mgrwt>
<rscale>  0 0.61904988E+03</rscale>
<asrwt>0</asrwt>
<pdfrwt beam="1">  1        2 0.52353011E-01 0.73771519E+03</pdfrwt>
<pdfrwt beam="2">  1       -2 0.14491421E+00 0.73771519E+03</pdfrwt>
<totfact> 0.31699404E+01</totfact>
</mgrwt>
</event>
<event>
 4    1  0.5223852E-007  0.6692270E+03  0.7818608E-02  0.1016223E+00
         -2   -1    0    0    0  501 -0.00000000000E+00  0.00000000000E+00  0.13837186715E+04  0.13837186715E+04  0.25500000000E-02 0.  1.
          2   -1    0    0  501    0  0.00000000000E+00 -0.00000000000E+00 -0.16580660261E+03  0.16580660263E+03  0.25500000000E-02 0. -1.
    8880023    1    1    2    0    0 -0.11023391695E+03 -0.43623728191E+02  0.58897243449E+03  0.89148936110E+03  0.65864270000E+03 0. -1.
    8880022    1    1    2    0    0  0.11023391695E+03  0.43623728191E+02  0.62893963442E+03  0.65803591305E+03  0.15294330000E+03 0.  1.
<mgrwt>
<rscale>  0 0.49074519E+03</rscale>
<asrwt>0</asrwt>
<pdfrwt beam="1">  1        2 0.25508708E-01 0.66922698E+03</pdfrwt>
<pdfrwt beam="2">  1       -2 0.21287979E+00 0.66922698E+03</pdfrwt>
<totfact> 0.24089169E+01</totfact>
</mgrwt>
</event>
<event>
 4    1  0.5223852E-007  0.8795360E+03  0.7818608E-02  0.9559715E-01
         -2   -1    0    0    0  501 -0.00000000000E+00  0.00000000000E+00  0.56733850519E+03  0.56733850519E+03  0.25500000000E-02 0.  1.
          2   -1    0    0  501    0  0.00000000000E+00 -0.00000000000E+00 -0.13286971542E+04  0.13286971542E+04  0.25500000000E-02 0. -1.
    8880023    1    1    2    0    0  0.10274310870E+03  0.57377453662E+03  0.55099682616E+02  0.88126020366E+03  0.65864270000E+03 0.  1.
    8880022    1    1    2    0    0 -0.10274310870E+03 -0.57377453662E+03 -0.81645833163E+03  0.10147754557E+04  0.15294330000E+03 0.  0.
<mgrwt>
<rscale>  0 0.80020860E+03</rscale>
<asrwt>0</asrwt>
<pdfrwt beam="1">  1        2 0.20441495E+00 0.87953600E+03</pdfrwt>
<pdfrwt beam="2">  1       -2 0.87282847E-01 0.87953600E+03</pdfrwt>
<totfact> 0.18164084E+01</totfact>
</mgrwt>
</event>
<event>
 4    1  0.5223852E-007  0.8173798E+03  0.7818608E-02  0.9674405E-01
         -2   -1    0    0    0  501 -0.00000000000E+00  0.00000000000E+00  0.28181951133E+03  0.28181951134E+03  0.25500000000E-02 0.  1.
          2   -1    0    0  501    0  0.00000000000E+00 -0.00000000000E+00 -0.23485897207E+04  0.23485897207E+04  0.25500000000E-02 0. -1.
    8880023    1    1    2    0    0  0.19126591550E+03 -0.44465361450E+03 -0.44419402182E+03  0.93027846509E+03  0.65864270000E+03 0.  1.
    8880022    1    1    2    0    0 -0.19126591550E+03  0.44465361450E+03 -0.16225761875E+04  0.17001307669E+04  0.15294330000E+03 0.  0.
<mgrwt>
<rscale>  0 0.72561349E+03</rscale>
<asrwt>0</asrwt>
<pdfrwt beam="1">  1        2 0.36132148E+00 0.81737977E+03</pdfrwt>
<pdfrwt beam="2">  1       -2 0.43356849E-01 0.81737977E+03</pdfrwt>
<totfact> 0.22139376E+01</totfact>
</mgrwt>
</event>
<event>
 4    1  0.5223852E-007  0.7324928E+03  0.7818608E-02  0.9882380E-01
          2   -1    0    0  501    0  0.00000000000E+00  0.00000000000E+00  0.71507923093E+03  0.71507923093E+03  0.25500000000E-02 0. -1.
         -2   -1    0    0    0  501 -0.00000000000E+00 -0.00000000000E+00 -0.47202570524E+03  0.47202570525E+03  0.25500000000E-02 0.  1.
    8880023    1    1    2    0    0  0.25879810879E+03  0.18910060806E+03 -0.39079353343E+02  0.73353452761E+03  0.65864270000E+03 0.  0.
    8880022    1    1    2    0    0 -0.25879810879E+03 -0.18910060806E+03  0.28213287903E+03  0.45357040856E+03  0.15294330000E+03 0.  0.
<mgrwt>
<rscale>  0 0.61122850E+03</rscale>
<asrwt>0</asrwt>
<pdfrwt beam="1">  1        2 0.11001219E+00 0.73249280E+03</pdfrwt>
<pdfrwt beam="2">  1       -2 0.72619340E-01 0.73249280E+03</pdfrwt>
<totfact> 0.69332193E+01</totfact>
</mgrwt>
</event>
<event>
 4    1  0.5223852E-007  0.7639503E+03  0.7818608E-02  0.9794986E-01
         -2   -1    0    0    0  501 -0.00000000000E+00  0.00000000000E+00  0.74744210724E+03  0.74744210725E+03  0.25500000000E-02 0.  1.
          2   -1    0    0  501    0  0.00000000000E+00 -0.00000000000E+00 -0.72276496858E+03  0.72276496858E+03  0.25500000000E-02 0. -1.
    8880023    1    1    2    0    0 -0.10444756008E+03  0.37269372977E+03  0.44053748244E+03  0.88186925829E+03  0.65864270000E+03 0.  1.
    8880022    1    1    2    0    0  0.10444756008E+03 -0.37269372977E+03 -0.41586034377E+03  0.58833781754E+03  0.15294330000E+03 0.  0.
<mgrwt>
<rscale>  0 0.65632330E+03</rscale>
<asrwt>0</asrwt>
<pdfrwt beam="1">  1        2 0.11119461E+00 0.76395034E+03</pdfrwt>
<pdfrwt beam="2">  1       -2 0.11499109E+00 0.76395034E+03</pdfrwt>
<totfact> 0.23488786E+01</totfact>
</mgrwt>
</event>
<event>
 4    1  0.5223852E-007  0.1498812E+04  0.7818608E-02  0.8910475E-01
         -2   -1    0    0    0  501 -0.00000000000E+00  0.00000000000E+00  0.82912049655E+03  0.82912049656E+03  0.25500000000E-02 0.  1.
          2   -1    0    0  501    0  0.00000000000E+00 -0.00000000000E+00 -0.27113342050E+04  0.27113342050E+04  0.25500000000E-02 0. -1.
    8880023    1    1    2    0    0  0.12893938495E+04  0.38741553866E+03 -0.44110966755E+03  0.15623748730E+04  0.65864270000E+03 0.  1.
    8880022    1    1    2    0    0 -0.12893938495E+04 -0.38741553866E+03 -0.14411040409E+04  0.19780798286E+04  0.15294330000E+03 0.  0.
<mgrwt>
<rscale>  0 0.14614872E+04</rscale>
<asrwt>0</asrwt>
<pdfrwt beam="1">  1        2 0.41712834E+00 0.14988120E+04</pdfrwt>
<pdfrwt beam="2">  1       -2 0.12755700E+00 0.14988120E+04</pdfrwt>
<totfact> 0.11310437E+00</totfact>
</mgrwt>
</event>
<event>
 4    1  0.5223852E-007  0.1019329E+04  0.7818608E-02  0.9356695E-01
         -2   -1    0    0    0  501 -0.00000000000E+00  0.00000000000E+00  0.25511230071E+04  0.25511230071E+04  0.25500000000E-02 0.  1.
          2   -1    0    0  501    0  0.00000000000E+00 -0.00000000000E+00 -0.77083921563E+03  0.77083921564E+03  0.25500000000E-02 0. -1.
    8880023    1    1    2    0    0  0.40541447546E+03  0.66397296543E+03  0.22001444826E+04  0.24248024551E+04  0.65864270000E+03 0.  1.
    8880022    1    1    2    0    0 -0.40541447546E+03 -0.66397296543E+03 -0.41986069111E+03  0.89715976765E+03  0.15294330000E+03 0. -1.
<mgrwt>
<rscale>  0 0.95726815E+03</rscale>
<asrwt>0</asrwt>
<pdfrwt beam="1">  1        2 0.11859065E+00 0.10193288E+04</pdfrwt>
<pdfrwt beam="2">  1       -2 0.39248046E+00 0.10193288E+04</pdfrwt>
<totfact> 0.30492029E-01</totfact>
</mgrwt>
</event>
<event>
 4    1  0.5223852E-007  0.7287946E+03  0.7818608E-02  0.9893879E-01
         -2   -1    0    0    0  501 -0.00000000000E+00  0.00000000000E+00  0.12777899837E+04  0.12777899837E+04  0.25500000000E-02 0.  1.
          2   -1    0    0  501    0  0.00000000000E+00 -0.00000000000E+00 -0.55369797232E+03  0.55369797233E+03  0.25500000000E-02 0. -1.
    8880023    1    1    2    0    0 -0.28245643247E+03  0.13247515342E+03  0.11000486646E+04  0.13195637814E+04  0.65864270000E+03 0.  1.
    8880022    1    1    2    0    0  0.28245643247E+03 -0.13247515342E+03 -0.37595665316E+03  0.51192417465E+03  0.15294330000E+03 0.  0.
<mgrwt>
<rscale>  0 0.60558844E+03</rscale>
<asrwt>0</asrwt>
<pdfrwt beam="1">  1        2 0.85184305E-01 0.72879456E+03</pdfrwt>
<pdfrwt beam="2">  1       -2 0.19658307E+00 0.72879456E+03</pdfrwt>
<totfact> 0.78171851E+00</totfact>
</mgrwt>
</event>
<event>
 4    1  0.5223852E-007  0.7121420E+03  0.7818608E-02  0.9950131E-01
         -2   -1    0    0    0  501 -0.00000000000E+00  0.00000000000E+00  0.49862877217E+03  0.49862877218E+03  0.25500000000E-02 0.  1.
          2   -1    0    0  501    0  0.00000000000E+00 -0.00000000000E+00 -0.53594804937E+03  0.53594804938E+03  0.25500000000E-02 0. -1.
    8880023    1    1    2    0    0  0.13183733209E+03  0.23654797070E+03 -0.94399636011E+02  0.71837143743E+03  0.65864270000E+03 0. -1.
    8880022    1    1    2    0    0 -0.13183733209E+03 -0.23654797070E+03  0.57080358813E+02  0.31620538413E+03  0.15294330000E+03 0.  1.
<mgrwt>
<rscale>  0 0.57892032E+03</rscale>
<asrwt>0</asrwt>
<pdfrwt beam="1">  1        2 0.82453546E-01 0.71214200E+03</pdfrwt>
<pdfrwt beam="2">  1       -2 0.76712119E-01 0.71214200E+03</pdfrwt>
<totfact> 0.87375560E+01</totfact>
</mgrwt>
</event>
<event>
 4    1  0.5223852E-007  0.7183593E+03  0.7818608E-02  0.9928177E-01
         -2   -1    0    0    0  501 -0.00000000000E+00  0.00000000000E+00  0.17639049495E+04  0.17639049495E+04  0.25500000000E-02 0.  1.
          2   -1    0    0  501    0  0.00000000000E+00 -0.00000000000E+00 -0.29976610733E+03  0.29976610734E+03  0.25500000000E-02 0. -1.
    8880023    1    1    2    0    0 -0.52456431438E+02  0.28191867633E+03  0.15661523895E+04  0.17230418830E+04  0.65864270000E+03 0.  1.
    8880022    1    1    2    0    0  0.52456431438E+02 -0.28191867633E+03 -0.10201354726E+03  0.34062917388E+03  0.15294330000E+03 0.  0.
<mgrwt>
<rscale>  0 0.58914920E+03</rscale>
<asrwt>0</asrwt>
<pdfrwt beam="1">  1        2 0.46117864E-01 0.71835926E+03</pdfrwt>
<pdfrwt beam="2">  1       -2 0.27136999E+00 0.71835926E+03</pdfrwt>
<totfact> 0.54145162E+00</totfact>
</mgrwt>
</event>
<event>
 4    1  0.5223852E-007  0.9364387E+03  0.7818608E-02  0.9469900E-01
          2   -1    0    0  501    0  0.00000000000E+00  0.00000000000E+00  0.99239880152E+03  0.99239880153E+03  0.25500000000E-02 0. -1.
         -2   -1    0    0    0  501 -0.00000000000E+00 -0.00000000000E+00 -0.11126480227E+04  0.11126480227E+04  0.25500000000E-02 0.  1.
    8880023    1    1    2    0    0 -0.17091676699E+03  0.64334653380E+03 -0.73164231210E+03  0.11883677810E+04  0.65864270000E+03 0.  0.
    8880022    1    1    2    0    0  0.17091676699E+03 -0.64334653380E+03  0.61139309088E+03  0.91667904328E+03  0.15294330000E+03 0.  0.
<mgrwt>
<rscale>  0 0.86539795E+03</rscale>
<asrwt>0</asrwt>
<pdfrwt beam="1">  1        2 0.15267674E+00 0.93643874E+03</pdfrwt>
<pdfrwt beam="2">  1       -2 0.17117662E+00 0.93643874E+03</pdfrwt>
<totfact> 0.53138581E+00</totfact>
</mgrwt>
</event>
<event>
 4    1  0.5223852E-007  0.9027901E+03  0.7818608E-02  0.9521567E-01
          2   -1    0    0  501    0  0.00000000000E+00  0.00000000000E+00  0.12164941539E+04  0.12164941539E+04  0.25500000000E-02 0. -1.
         -2   -1    0    0    0  501 -0.00000000000E+00 -0.00000000000E+00 -0.75189592729E+03  0.75189592730E+03  0.25500000000E-02 0.  1.
    8880023    1    1    2    0    0  0.40987214658E+03  0.46176252525E+03 -0.32046078706E+03  0.95797971199E+03  0.65864270000E+03 0.  0.
    8880022    1    1    2    0    0 -0.40987214658E+03 -0.46176252525E+03  0.78505901370E+03  0.10104103692E+04  0.15294330000E+03 0.  0.
<mgrwt>
<rscale>  0 0.82712257E+03</rscale>
<asrwt>0</asrwt>
<pdfrwt beam="1">  1        2 0.18715295E+00 0.90279013E+03</pdfrwt>
<pdfrwt beam="2">  1       -2 0.11567630E+00 0.90279013E+03</pdfrwt>
<totfact> 0.10789166E+01</totfact>
</mgrwt>
</event>
<event>
 4    1  0.5223852E-007  0.7447745E+03  0.7818608E-02  0.9846251E-01
         -2   -1    0    0    0  501 -0.00000000000E+00  0.00000000000E+00  0.21124522955E+03  0.21124522956E+03  0.25500000000E-02 0.  1.
          2   -1    0    0  501    0  0.00000000000E+00 -0.00000000000E+00 -0.23122817296E+04  0.23122817296E+04  0.25500000000E-02 0. -1.
    8880023    1    1    2    0    0  0.81086917662E+02  0.33808836688E+03 -0.54784476723E+03  0.92456634552E+03  0.65864270000E+03 0.  0.
    8880022    1    1    2    0    0 -0.81086917662E+02 -0.33808836688E+03 -0.15531917329E+04  0.15989606137E+04  0.15294330000E+03 0.  0.
<mgrwt>
<rscale>  0 0.62938412E+03</rscale>
<asrwt>0</asrwt>
<pdfrwt beam="1">  1        2 0.35573563E+00 0.74477449E+03</pdfrwt>
<pdfrwt beam="2">  1       -2 0.32499268E-01 0.74477449E+03</pdfrwt>
<totfact> 0.40852302E+01</totfact>
</mgrwt>
</event>
<event>
 4    1  0.5223852E-007  0.1576811E+04  0.7818608E-02  0.8857219E-01
         -2   -1    0    0    0  501 -0.00000000000E+00  0.00000000000E+00  0.11998867137E+04  0.11998867137E+04  0.25500000000E-02 0.  1.
          2   -1    0    0  501    0  0.00000000000E+00 -0.00000000000E+00 -0.27032886460E+04  0.27032886460E+04  0.25500000000E-02 0. -1.
    8880023    1    1    2    0    0 -0.50480439810E+02 -0.14317733557E+04  0.28941561467E+03  0.16031515278E+04  0.65864270000E+03 0.  0.
    8880022    1    1    2    0    0  0.50480439810E+02  0.14317733557E+04 -0.17928175470E+04  0.23000238318E+04  0.15294330000E+03 0.  0.
<mgrwt>
<rscale>  0 0.15416506E+04</rscale>
<asrwt>0</asrwt>
<pdfrwt beam="1">  1        2 0.41589056E+00 0.15768112E+04</pdfrwt>
<pdfrwt beam="2">  1       -2 0.18459796E+00 0.15768112E+04</pdfrwt>
<totfact> 0.41623792E-01</totfact>
</mgrwt>
</event>
<event>
 4    1  0.5223852E-007  0.7072588E+03  0.7818608E-02  0.9968325E-01
          2   -1    0    0  501    0  0.00000000000E+00  0.00000000000E+00  0.13562527433E+04  0.13562527433E+04  0.25500000000E-02 0. -1.
         -2   -1    0    0    0  501 -0.00000000000E+00 -0.00000000000E+00 -0.48588835573E+03  0.48588835573E+03  0.25500000000E-02 0.  1.
    8880023    1    1    2    0    0 -0.23988045447E+03 -0.94138806894E+02 -0.19645349304E+03  0.73403605401E+03  0.65864270000E+03 0.  1.
    8880022    1    1    2    0    0  0.23988045447E+03  0.94138806894E+02  0.10668178806E+04  0.11081050450E+04  0.15294330000E+03 0.  0.
<mgrwt>
<rscale>  0 0.57061228E+03</rscale>
<asrwt>0</asrwt>
<pdfrwt beam="1">  1        2 0.20865427E+00 0.70725876E+03</pdfrwt>
<pdfrwt beam="2">  1       -2 0.74752054E-01 0.70725876E+03</pdfrwt>
<totfact> 0.25314720E+01</totfact>
</mgrwt>
</event>
<event>
 4    1  0.5223852E-007  0.7356108E+03  0.7818608E-02  0.9872922E-01
          2   -1    0    0  501    0  0.00000000000E+00  0.00000000000E+00  0.14826129228E+04  0.14826129228E+04  0.25500000000E-02 0. -1.
         -2   -1    0    0    0  501 -0.00000000000E+00 -0.00000000000E+00 -0.38690599716E+03  0.38690599717E+03  0.25500000000E-02 0.  1.
    8880023    1    1    2    0    0  0.31797345643E+03 -0.78777635355E+02  0.21303068499E+02  0.73591919517E+03  0.65864270000E+03 0.  1.
    8880022    1    1    2    0    0 -0.31797345643E+03  0.78777635355E+02  0.10744038571E+04  0.11335997248E+04  0.15294330000E+03 0.  0.
<mgrwt>
<rscale>  0 0.61591739E+03</rscale>
<asrwt>0</asrwt>
<pdfrwt beam="1">  1        2 0.22809429E+00 0.73561079E+03</pdfrwt>
<pdfrwt beam="2">  1       -2 0.59524000E-01 0.73561079E+03</pdfrwt>
<totfact> 0.35030400E+01</totfact>
</mgrwt>
</event>
<event>
 4    1  0.9092328E-007  0.9914393E+03  0.7818608E-02  0.9392844E-01
          2   -1    0    0  501    0  0.00000000000E+00  0.00000000000E+00  0.19098719311E+04  0.19098719311E+04  0.25500000000E-02 0. -1.
         -2   -1    0    0    0  501 -0.00000000000E+00 -0.00000000000E+00 -0.12778197619E+04  0.12778197619E+04  0.25500000000E-02 0.  1.
    8880023    1    1    2    0    0  0.64335364433E+03  0.36774677112E+03 -0.98798163356E+03  0.13996640718E+04  0.65864270000E+03 0.  1.
    8880022    1    1    2    0    0 -0.64335364433E+03 -0.36774677112E+03  0.16200338027E+04  0.17880276212E+04  0.15294330000E+03 0. -1.
<mgrwt>
<rscale>  0 0.92666908E+03</rscale>
<asrwt>0</asrwt>
<pdfrwt beam="1">  1        2 0.29382645E+00 0.99143926E+03</pdfrwt>
<pdfrwt beam="2">  1       -2 0.19658766E+00 0.99143926E+03</pdfrwt>
<totfact> 0.10488305E+00</totfact>
</mgrwt>
</event>
<event>
 4    1  0.5223852E-007  0.7809698E+03  0.7818608E-02  0.9753564E-01
          2   -1    0    0  501    0  0.00000000000E+00  0.00000000000E+00  0.13181610484E+04  0.13181610484E+04  0.25500000000E-02 0. -1.
         -2   -1    0    0    0  501 -0.00000000000E+00 -0.00000000000E+00 -0.28978867998E+03  0.28978867999E+03  0.25500000000E-02 0.  1.
    8880023    1    1    2    0    0  0.26548663269E+02 -0.41880639582E+03  0.56176539579E+03  0.96202608846E+03  0.65864270000E+03 0. -1.
    8880022    1    1    2    0    0 -0.26548663269E+02  0.41880639582E+03  0.46660697265E+03  0.64592363995E+03  0.15294330000E+03 0.  1.
<mgrwt>
<rscale>  0 0.67915243E+03</rscale>
<asrwt>0</asrwt>
<pdfrwt beam="1">  1        2 0.20279401E+00 0.78096980E+03</pdfrwt>
<pdfrwt beam="2">  1       -2 0.44582873E-01 0.78096980E+03</pdfrwt>
<totfact> 0.78109620E+01</totfact>
</mgrwt>
</event>
<event>
 4    1  0.5223852E-007  0.7298410E+03  0.7818608E-02  0.9890594E-01
         -2   -1    0    0    0  501 -0.00000000000E+00  0.00000000000E+00  0.22383395276E+03  0.22383395277E+03  0.25500000000E-02 0.  1.
          2   -1    0    0  501    0  0.00000000000E+00 -0.00000000000E+00 -0.13796568468E+04  0.13796568468E+04  0.25500000000E-02 0. -1.
    8880023    1    1    2    0    0 -0.30540008176E+03  0.74755591315E+02 -0.59061657353E+03  0.93888005174E+03  0.65864270000E+03 0.  1.
    8880022    1    1    2    0    0  0.30540008176E+03 -0.74755591315E+02 -0.56520632050E+03  0.66461074782E+03  0.15294330000E+03 0.  0.
<mgrwt>
<rscale>  0 0.60719327E+03</rscale>
<asrwt>0</asrwt>
<pdfrwt beam="1">  1        2 0.21225489E+00 0.72984095E+03</pdfrwt>
<pdfrwt beam="2">  1       -2 0.34435994E-01 0.72984095E+03</pdfrwt>
<totfact> 0.11953338E+02</totfact>
</mgrwt>
</event>
<event>
 4    1  0.5223852E-007  0.9024563E+03  0.7818608E-02  0.9522100E-01
          2   -1    0    0  501    0  0.00000000000E+00  0.00000000000E+00  0.40549275957E+03  0.40549275958E+03  0.25500000000E-02 0. -1.
         -2   -1    0    0    0  501 -0.00000000000E+00 -0.00000000000E+00 -0.15932715145E+04  0.15932715145E+04  0.25500000000E-02 0.  1.
    8880023    1    1    2    0    0  0.43624082527E+03 -0.43624653107E+03 -0.97482079328E+03  0.13284211978E+04  0.65864270000E+03 0. -1.
    8880022    1    1    2    0    0 -0.43624082527E+03  0.43624653107E+03 -0.21295796168E+03  0.67034307631E+03  0.15294330000E+03 0.  0.
<mgrwt>
<rscale>  0 0.82673908E+03</rscale>
<asrwt>0</asrwt>
<pdfrwt beam="1">  1        2 0.62383502E-01 0.90245626E+03</pdfrwt>
<pdfrwt beam="2">  1       -2 0.24511869E+00 0.90245626E+03</pdfrwt>
<totfact> 0.54466869E+00</totfact>
</mgrwt>
</event>
<event>
 4    1  0.5223852E-007  0.9313610E+03  0.7818608E-02  0.9477455E-01
          2   -1    0    0  501    0  0.00000000000E+00  0.00000000000E+00  0.37582478438E+04  0.37582478438E+04  0.25500000000E-02 0. -1.
         -2   -1    0    0    0  501 -0.00000000000E+00 -0.00000000000E+00 -0.25238333393E+03  0.25238333394E+03  0.25500000000E-02 0.  1.
    8880023    1    1    2    0    0  0.53987075222E+03 -0.37704456901E+03  0.30654140217E+04  0.32037784516E+04  0.65864270000E+03 0.  0.
    8880022    1    1    2    0    0 -0.53987075222E+03  0.37704456901E+03  0.44045048812E+03  0.80685272610E+03  0.15294330000E+03 0.  0.
<mgrwt>
<rscale>  0 0.85966608E+03</rscale>
<asrwt>0</asrwt>
<pdfrwt beam="1">  1        2 0.57819193E+00 0.93136096E+03</pdfrwt>
<pdfrwt beam="2">  1       -2 0.38828208E-01 0.93136096E+03</pdfrwt>
<totfact> 0.35018152E+00</totfact>
</mgrwt>
</event>
<event>
 4    1  0.5223852E-007  0.1069252E+04  0.7818608E-02  0.9296088E-01
         -2   -1    0    0    0  501 -0.00000000000E+00  0.00000000000E+00  0.10712230423E+04  0.10712230423E+04  0.25500000000E-02 0.  1.
          2   -1    0    0  501    0  0.00000000000E+00 -0.00000000000E+00 -0.37132058999E+04  0.37132058999E+04  0.25500000000E-02 0. -1.
    8880023    1    1    2    0    0 -0.82411462586E+03 -0.17413813720E+03  0.73702915596E+03  0.12986574569E+04  0.65864270000E+03 0.  0.
    8880022    1    1    2    0    0  0.82411462586E+03  0.17413813720E+03 -0.33790120136E+04  0.34857714854E+04  0.15294330000E+03 0.  0.
<mgrwt>
<rscale>  0 0.10114377E+04</rscale>
<asrwt>0</asrwt>
<pdfrwt beam="1">  1        2 0.57126244E+00 0.10692517E+04</pdfrwt>
<pdfrwt beam="2">  1       -2 0.16480355E+00 0.10692517E+04</pdfrwt>
<totfact> 0.13561303E-01</totfact>
</mgrwt>
</event>
<event>
 4    1  0.5223852E-007  0.6694193E+03  0.7818608E-02  0.1016083E+00
         -2   -1    0    0    0  501 -0.00000000000E+00  0.00000000000E+00  0.39072732441E+03  0.39072732442E+03  0.25500000000E-02 0.  1.
          2   -1    0    0  501    0  0.00000000000E+00 -0.00000000000E+00 -0.15470521865E+04  0.15470521865E+04  0.25500000000E-02 0. -1.
    8880023    1    1    2    0    0 -0.37251849210E+02 -0.11368489601E+03  0.90870992921E+02  0.67555880534E+03  0.65864270000E+03 0.  1.
    8880022    1    1    2    0    0  0.37251849210E+02  0.11368489601E+03 -0.12471958550E+04  0.12622207056E+04  0.15294330000E+03 0.  0.
<mgrwt>
<rscale>  0 0.49127145E+03</rscale>
<asrwt>0</asrwt>
<pdfrwt beam="1">  1        2 0.23800803E+00 0.66941927E+03</pdfrwt>
<pdfrwt beam="2">  1       -2 0.60111897E-01 0.66941927E+03</pdfrwt>
<totfact> 0.31855563E+01</totfact>
</mgrwt>
</event>
<event>
 4    1  0.5223852E-007  0.6654250E+03  0.7818608E-02  0.1019180E+00
         -2   -1    0    0    0  501 -0.00000000000E+00  0.00000000000E+00  0.43621467706E+03  0.43621467707E+03  0.25500000000E-02 0.  1.
          2   -1    0    0  501    0  0.00000000000E+00 -0.00000000000E+00 -0.67980112308E+03  0.67980112309E+03  0.25500000000E-02 0. -1.
    8880023    1    1    2    0    0  0.80361486834E+02  0.50221626056E+02  0.15100221329E+03  0.68234306252E+03  0.65864270000E+03 0.  1.
    8880022    1    1    2    0    0 -0.80361486834E+02 -0.50221626056E+02 -0.39458865932E+03  0.43367273763E+03  0.15294330000E+03 0.  0.
<mgrwt>
<rscale>  0 0.47983865E+03</rscale>
<asrwt>0</asrwt>
<pdfrwt beam="1">  1        2 0.10458479E+00 0.66542497E+03</pdfrwt>
<pdfrwt beam="2">  1       -2 0.67109950E-01 0.66542497E+03</pdfrwt>
<totfact> 0.88173383E+01</totfact>
</mgrwt>
</event>
<event>
 4    1  0.5223852E-007  0.7733864E+03  0.7818608E-02  0.9771608E-01
         -2   -1    0    0    0  501 -0.00000000000E+00  0.00000000000E+00  0.65665420710E+03  0.65665420711E+03  0.25500000000E-02 0.  1.
          2   -1    0    0  501    0  0.00000000000E+00 -0.00000000000E+00 -0.11946545187E+04  0.11946545187E+04  0.25500000000E-02 0. -1.
    8880023    1    1    2    0    0 -0.24256590064E+03 -0.32477391593E+03  0.36089778203E+03  0.85344814017E+03  0.65864270000E+03 0.  1.
    8880022    1    1    2    0    0  0.24256590064E+03  0.32477391593E+03 -0.89889809363E+03  0.99786058564E+03  0.15294330000E+03 0.  0.
<mgrwt>
<rscale>  0 0.66908722E+03</rscale>
<asrwt>0</asrwt>
<pdfrwt beam="1">  1        2 0.18379300E+00 0.77338640E+03</pdfrwt>
<pdfrwt beam="2">  1       -2 0.10102372E+00 0.77338640E+03</pdfrwt>
<totfact> 0.15638050E+01</totfact>
</mgrwt>
</event>
<event>
 4    1  0.5223852E-007  0.8249552E+03  0.7818608E-02  0.9659229E-01
          2   -1    0    0  501    0  0.00000000000E+00  0.00000000000E+00  0.27209181119E+04  0.27209181119E+04  0.25500000000E-02 0. -1.
         -2   -1    0    0    0  501 -0.00000000000E+00 -0.00000000000E+00 -0.22932315269E+03  0.22932315270E+03  0.25500000000E-02 0.  1.
    8880023    1    1    2    0    0 -0.26466230952E+03 -0.42035080872E+03  0.69095028256E+03  0.10760870967E+04  0.65864270000E+03 0.  1.
    8880022    1    1    2    0    0  0.26466230952E+03  0.42035080872E+03  0.18006446766E+04  0.18741541679E+04  0.15294330000E+03 0.  0.
<mgrwt>
<rscale>  0 0.73497051E+03</rscale>
<asrwt>0</asrwt>
<pdfrwt beam="1">  1        2 0.41860277E+00 0.82495524E+03</pdfrwt>
<pdfrwt beam="2">  1       -2 0.35280487E-01 0.82495524E+03</pdfrwt>
<totfact> 0.20234801E+01</totfact>
</mgrwt>
</event>
<event>
 4    1  0.5223852E-007  0.6918082E+03  0.7818608E-02  0.1003305E+00
         -2   -1    0    0    0  501 -0.00000000000E+00  0.00000000000E+00  0.95109428298E+02  0.95109428333E+02  0.25500000000E-02 0.  1.
          2   -1    0    0  501    0  0.00000000000E+00 -0.00000000000E+00 -0.26125062303E+04  0.26125062303E+04  0.25500000000E-02 0. -1.
    8880023    1    1    2    0    0  0.80786767367E+02  0.19560638537E+03 -0.14196530431E+04  0.15792445437E+04  0.65864270000E+03 0.  1.
    8880022    1    1    2    0    0 -0.80786767367E+02 -0.19560638537E+03 -0.10977437589E+04  0.11283711149E+04  0.15294330000E+03 0. -1.
<mgrwt>
<rscale>  0 0.54224606E+03</rscale>
<asrwt>0</asrwt>
<pdfrwt beam="1">  1        2 0.40192398E+00 0.69180819E+03</pdfrwt>
<pdfrwt beam="2">  1       -2 0.14632222E-01 0.69180819E+03</pdfrwt>
<totfact> 0.11467053E+02</totfact>
</mgrwt>
</event>
<event>
 4    1  0.5223852E-007  0.8328078E+03  0.7818608E-02  0.9643894E-01
          2   -1    0    0  501    0  0.00000000000E+00  0.00000000000E+00  0.69570332363E+03  0.69570332363E+03  0.25500000000E-02 0. -1.
         -2   -1    0    0    0  501 -0.00000000000E+00 -0.00000000000E+00 -0.10337185980E+04  0.10337185980E+04  0.25500000000E-02 0.  1.
    8880023    1    1    2    0    0  0.26130601965E+02  0.50899487950E+03 -0.69828294768E+03  0.10868154751E+04  0.65864270000E+03 0.  1.
    8880022    1    1    2    0    0 -0.26130601965E+02 -0.50899487950E+03  0.36026767327E+03  0.64260644654E+03  0.15294330000E+03 0.  0.
<mgrwt>
<rscale>  0 0.74457886E+03</rscale>
<asrwt>0</asrwt>
<pdfrwt beam="1">  1        2 0.10703128E+00 0.83280778E+03</pdfrwt>
<pdfrwt beam="2">  1       -2 0.15903363E+00 0.83280778E+03</pdfrwt>
<totfact> 0.10652100E+01</totfact>
</mgrwt>
</event>
<event>
 4    1  0.5223852E-007  0.7848312E+03  0.7818608E-02  0.9744608E-01
         -2   -1    0    0    0  501 -0.00000000000E+00  0.00000000000E+00  0.32435807192E+03  0.32435807193E+03  0.25500000000E-02 0.  1.
          2   -1    0    0  501    0  0.00000000000E+00 -0.00000000000E+00 -0.18976514972E+04  0.18976514972E+04  0.25500000000E-02 0. -1.
    8880023    1    1    2    0    0  0.39275828332E+03 -0.16700519990E+03 -0.25074640388E+03  0.82391369162E+03  0.65864270000E+03 0.  1.
    8880022    1    1    2    0    0 -0.39275828332E+03  0.16700519990E+03 -0.13225470214E+04  0.13980958775E+04  0.15294330000E+03 0.  0.
<mgrwt>
<rscale>  0 0.68421820E+03</rscale>
<asrwt>0</asrwt>
<pdfrwt beam="1">  1        2 0.29194638E+00 0.78483120E+03</pdfrwt>
<pdfrwt beam="2">  1       -2 0.49901243E-01 0.78483120E+03</pdfrwt>
<totfact> 0.29693507E+01</totfact>
</mgrwt>
</event>
<event>
 4    1  0.5223852E-007  0.6801123E+03  0.7818608E-02  0.1009260E+00
          2   -1    0    0  501    0  0.00000000000E+00  0.00000000000E+00  0.38852338720E+03  0.38852338721E+03  0.25500000000E-02 0. -1.
         -2   -1    0    0    0  501 -0.00000000000E+00 -0.00000000000E+00 -0.10060436802E+04  0.10060436802E+04  0.25500000000E-02 0.  1.
    8880023    1    1    2    0    0  0.16506797431E+02  0.16873084213E+03 -0.83657464028E+03  0.10781511520E+04  0.65864270000E+03 0.  1.
    8880022    1    1    2    0    0 -0.16506797431E+02 -0.16873084213E+03  0.21905434731E+03  0.31641591543E+03  0.15294330000E+03 0.  0.
<mgrwt>
<rscale>  0 0.51769724E+03</rscale>
<asrwt>0</asrwt>
<pdfrwt beam="1">  1        2 0.59772829E-01 0.68011233E+03</pdfrwt>
<pdfrwt beam="2">  1       -2 0.15477595E+00 0.68011233E+03</pdfrwt>
<totfact> 0.23078690E+01</totfact>
</mgrwt>
</event>
<event>
 4    1  0.5223852E-007  0.1177553E+04  0.7818608E-02  0.9179257E-01
          2   -1    0    0  501    0  0.00000000000E+00  0.00000000000E+00  0.26866072411E+04  0.26866072411E+04  0.25500000000E-02 0. -1.
         -2   -1    0    0    0  501 -0.00000000000E+00 -0.00000000000E+00 -0.46144336415E+03  0.46144336416E+03  0.25500000000E-02 0.  1.
    8880023    1    1    2    0    0 -0.93451810910E+03 -0.28195167450E+03  0.15700045118E+04  0.19625354051E+04  0.65864270000E+03 0. -1.
    8880022    1    1    2    0    0  0.93451810910E+03  0.28195167450E+03  0.65515936514E+03  0.11855152001E+04  0.15294330000E+03 0.  0.
<mgrwt>
<rscale>  0 0.11270116E+04</rscale>
<asrwt>0</asrwt>
<pdfrwt beam="1">  1        2 0.41332418E+00 0.11775530E+04</pdfrwt>
<pdfrwt beam="2">  1       -2 0.70991289E-01 0.11775530E+04</pdfrwt>
<totfact> 0.48392925E+00</totfact>
</mgrwt>
</event>
<event>
 4    1  0.5223852E-007  0.7696956E+03  0.7818608E-02  0.9780624E-01
          2   -1    0    0  501    0  0.00000000000E+00  0.00000000000E+00  0.35897428075E+04  0.35897428075E+04  0.25500000000E-02 0. -1.
         -2   -1    0    0    0  501 -0.00000000000E+00 -0.00000000000E+00 -0.24340765593E+03  0.24340765594E+03  0.25500000000E-02 0.  1.
    8880023    1    1    2    0    0 -0.26545090719E+03  0.29691223644E+03  0.42186476073E+03  0.87772498135E+03  0.65864270000E+03 0.  0.
    8880022    1    1    2    0    0  0.26545090719E+03 -0.29691223644E+03  0.29244703908E+04  0.29554254821E+04  0.15294330000E+03 0.  0.
<mgrwt>
<rscale>  0 0.66412825E+03</rscale>
<asrwt>0</asrwt>
<pdfrwt beam="1">  1        2 0.55226810E+00 0.76969557E+03</pdfrwt>
<pdfrwt beam="2">  1       -2 0.37447333E-01 0.76969557E+03</pdfrwt>
<totfact> 0.51131846E+00</totfact>
</mgrwt>
</event>
<event>
 4    1  0.5223852E-007  0.9042122E+03  0.7818608E-02  0.9519303E-01
         -2   -1    0    0    0  501 -0.00000000000E+00  0.00000000000E+00  0.65500559565E+03  0.65500559565E+03  0.25500000000E-02 0.  1.
          2   -1    0    0  501    0  0.00000000000E+00 -0.00000000000E+00 -0.17115344531E+04  0.17115344531E+04  0.25500000000E-02 0. -1.
    8880023    1    1    2    0    0  0.60202484992E+03 -0.14613535631E+03  0.22776548437E+03  0.93245739014E+03  0.65864270000E+03 0.  0.
    8880022    1    1    2    0    0 -0.60202484992E+03  0.14613535631E+03 -0.12842943418E+04  0.14340826586E+04  0.15294330000E+03 0.  0.
<mgrwt>
<rscale>  0 0.82875511E+03</rscale>
<asrwt>0</asrwt>
<pdfrwt beam="1">  1        2 0.26331299E+00 0.90421218E+03</pdfrwt>
<pdfrwt beam="2">  1       -2 0.10077009E+00 0.90421218E+03</pdfrwt>
<totfact> 0.79012854E+00</totfact>
</mgrwt>
</event>
<event>
 4    1  0.5223852E-007  0.1049498E+04  0.7818608E-02  0.9319485E-01
         -2   -1    0    0    0  501 -0.00000000000E+00  0.00000000000E+00  0.11903987641E+04  0.11903987641E+04  0.25500000000E-02 0.  1.
          2   -1    0    0  501    0  0.00000000000E+00 -0.00000000000E+00 -0.15391843548E+04  0.15391843548E+04  0.25500000000E-02 0. -1.
    8880023    1    1    2    0    0  0.41916862500E+03 -0.70137952916E+03 -0.11626188725E+04  0.15662466054E+04  0.65864270000E+03 0.  0.
    8880022    1    1    2    0    0 -0.41916862500E+03  0.70137952916E+03  0.81383328174E+03  0.11633365135E+04  0.15294330000E+03 0.  0.
<mgrwt>
<rscale>  0 0.99008634E+03</rscale>
<asrwt>0</asrwt>
<pdfrwt beam="1">  1        2 0.23679759E+00 0.10494979E+04</pdfrwt>
<pdfrwt beam="2">  1       -2 0.18313827E+00 0.10494979E+04</pdfrwt>
<totfact> 0.20542632E+00</totfact>
</mgrwt>
</event>
<event>
 4    1  0.5223852E-007  0.8895378E+03  0.7818608E-02  0.9543040E-01
         -2   -1    0    0    0  501 -0.00000000000E+00  0.00000000000E+00  0.29407639998E+03  0.29407639999E+03  0.25500000000E-02 0.  1.
          2   -1    0    0  501    0  0.00000000000E+00 -0.00000000000E+00 -0.43816783156E+04  0.43816783156E+04  0.25500000000E-02 0. -1.
    8880023    1    1    2    0    0  0.47679448195E+03  0.36074126076E+03 -0.47034656612E+03  0.10062322464E+04  0.65864270000E+03 0.  1.
    8880022    1    1    2    0    0 -0.47679448195E+03 -0.36074126076E+03 -0.36172553495E+04  0.36695224691E+04  0.15294330000E+03 0.  0.
<mgrwt>
<rscale>  0 0.81183694E+03</rscale>
<asrwt>0</asrwt>
<pdfrwt beam="1">  1        2 0.67410431E+00 0.88953777E+03</pdfrwt>
<pdfrwt beam="2">  1       -2 0.45242526E-01 0.88953777E+03</pdfrwt>
<totfact> 0.81036817E-01</totfact>
</mgrwt>
</event>
<event>
 4    1  0.5223852E-007  0.6943256E+03  0.7818608E-02  0.1002161E+00
         -2   -1    0    0    0  501 -0.00000000000E+00  0.00000000000E+00  0.16031400770E+03  0.16031400772E+03  0.25500000000E-02 0.  1.
          2   -1    0    0  501    0  0.00000000000E+00 -0.00000000000E+00 -0.29256619748E+04  0.29256619748E+04  0.25500000000E-02 0. -1.
    8880023    1    1    2    0    0 -0.21823886161E+03  0.25488583732E+02 -0.64146077183E+03  0.94528302464E+03  0.65864270000E+03 0.  1.
    8880022    1    1    2    0    0  0.21823886161E+03 -0.25488583732E+02 -0.21238871952E+04  0.21406929578E+04  0.15294330000E+03 0.  0.
<mgrwt>
<rscale>  0 0.54712834E+03</rscale>
<asrwt>0</asrwt>
<pdfrwt beam="1">  1        2 0.45010180E+00 0.69432563E+03</pdfrwt>
<pdfrwt beam="2">  1       -2 0.24663696E-01 0.69432563E+03</pdfrwt>
<totfact> 0.30290068E+01</totfact>
</mgrwt>
</event>
<event>
 4    1  0.5223852E-007  0.6610074E+03  0.7818608E-02  0.1023147E+00
         -2   -1    0    0    0  501 -0.00000000000E+00  0.00000000000E+00  0.45953743166E+03  0.45953743167E+03  0.25500000000E-02 0.  1.
          2   -1    0    0  501    0  0.00000000000E+00 -0.00000000000E+00 -0.13453384003E+04  0.13453384003E+04  0.25500000000E-02 0. -1.
    8880023    1    1    2    0    0  0.38836760238E+02  0.40152592334E+02  0.21268990199E+03  0.69438298171E+03  0.65864270000E+03 0.  1.
    8880022    1    1    2    0    0 -0.38836760238E+02 -0.40152592334E+02 -0.10984908706E+04  0.11104928502E+04  0.15294330000E+03 0.  0.
<mgrwt>
<rscale>  0 0.46567765E+03</rscale>
<asrwt>0</asrwt>
<pdfrwt beam="1">  1        2 0.20697514E+00 0.66100736E+03</pdfrwt>
<pdfrwt beam="2">  1       -2 0.70698067E-01 0.66100736E+03</pdfrwt>
<totfact> 0.29193300E+01</totfact>
</mgrwt>
</event>
<event>
 4    1  0.5223852E-007  0.6757447E+03  0.7818608E-02  0.1011841E+00
          2   -1    0    0  501    0  0.00000000000E+00  0.00000000000E+00  0.75756617541E+03  0.75756617542E+03  0.25500000000E-02 0. -1.
         -2   -1    0    0    0  501 -0.00000000000E+00 -0.00000000000E+00 -0.67544379706E+03  0.67544379707E+03  0.25500000000E-02 0.  1.
    8880023    1    1    2    0    0  0.87747256902E+02  0.12296798936E+03 -0.48152664917E+03  0.82975829470E+03  0.65864270000E+03 0.  1.
    8880022    1    1    2    0    0 -0.87747256902E+02 -0.12296798936E+03  0.56364902752E+03  0.60325167778E+03  0.15294330000E+03 0.  0.
<mgrwt>
<rscale>  0 0.50749499E+03</rscale>
<asrwt>0</asrwt>
<pdfrwt beam="1">  1        2 0.11654864E+00 0.67574471E+03</pdfrwt>
<pdfrwt beam="2">  1       -2 0.10391443E+00 0.67574471E+03</pdfrwt>
<totfact> 0.28478957E+01</totfact>
</mgrwt>
</event>
<event>
 4    1  0.5223852E-007  0.7566229E+03  0.7818608E-02  0.9813930E-01
          2   -1    0    0  501    0  0.00000000000E+00  0.00000000000E+00  0.19690285449E+04  0.19690285449E+04  0.25500000000E-02 0. -1.
         -2   -1    0    0    0  501 -0.00000000000E+00 -0.00000000000E+00 -0.35365607820E+03  0.35365607821E+03  0.25500000000E-02 0.  1.
    8880023    1    1    2    0    0 -0.57012566386E+02 -0.36799130844E+03  0.11019794600E+03  0.76460566921E+03  0.65864270000E+03 0.  1.
    8880022    1    1    2    0    0  0.57012566386E+02  0.36799130844E+03  0.15051745207E+04  0.15580789539E+04  0.15294330000E+03 0.  0.
<mgrwt>
<rscale>  0 0.64620304E+03</rscale>
<asrwt>0</asrwt>
<pdfrwt beam="1">  1        2 0.30292748E+00 0.75662292E+03</pdfrwt>
<pdfrwt beam="2">  1       -2 0.54408626E-01 0.75662292E+03</pdfrwt>
<totfact> 0.22811678E+01</totfact>
</mgrwt>
</event>
<event>
 4    1  0.5223852E-007  0.7991822E+03  0.7818608E-02  0.9712567E-01
          2   -1    0    0  501    0  0.00000000000E+00  0.00000000000E+00  0.15725405937E+04  0.15725405937E+04  0.25500000000E-02 0. -1.
         -2   -1    0    0    0  501 -0.00000000000E+00 -0.00000000000E+00 -0.35354164171E+03  0.35354164172E+03  0.25500000000E-02 0.  1.
    8880023    1    1    2    0    0  0.26647167220E+03 -0.36588908476E+03  0.23628715082E+03  0.83338094431E+03  0.65864270000E+03 0.  0.
    8880022    1    1    2    0    0 -0.26647167220E+03  0.36588908476E+03  0.98271180118E+03  0.10927012911E+04  0.15294330000E+03 0.  0.
<mgrwt>
<rscale>  0 0.70273457E+03</rscale>
<asrwt>0</asrwt>
<pdfrwt beam="1">  1        2 0.24192932E+00 0.79918219E+03</pdfrwt>
<pdfrwt beam="2">  1       -2 0.54391022E-01 0.79918219E+03</pdfrwt>
<totfact> 0.37439321E+01</totfact>
</mgrwt>
</event>
<event>
 4    1  0.5223852E-007  0.9463778E+03  0.7818608E-02  0.9455345E-01
         -2   -1    0    0    0  501 -0.00000000000E+00  0.00000000000E+00  0.39569979517E+03  0.39569979518E+03  0.25500000000E-02 0.  1.
          2   -1    0    0  501    0  0.00000000000E+00 -0.00000000000E+00 -0.32108885761E+04  0.32108885761E+04  0.25500000000E-02 0. -1.
    8880023    1    1    2    0    0 -0.64385972720E+03  0.21740582494E+03 -0.29407600795E+03  0.99101541146E+03  0.65864270000E+03 0.  0.
    8880022    1    1    2    0    0  0.64385972720E+03 -0.21740582494E+03 -0.25211127730E+04  0.26155729598E+04  0.15294330000E+03 0.  0.
<mgrwt>
<rscale>  0 0.87657659E+03</rscale>
<asrwt>0</asrwt>
<pdfrwt beam="1">  1        2 0.49398284E+00 0.94637775E+03</pdfrwt>
<pdfrwt beam="2">  1       -2 0.60876894E-01 0.94637775E+03</pdfrwt>
<totfact> 0.33220328E+00</totfact>
</mgrwt>
</event>
<event>
 4    1  0.5223852E-007  0.8902756E+03  0.7818608E-02  0.9541826E-01
          2   -1    0    0  501    0  0.00000000000E+00  0.00000000000E+00  0.21968030192E+04  0.21968030192E+04  0.25500000000E-02 0. -1.
         -2   -1    0    0    0  501 -0.00000000000E+00 -0.00000000000E+00 -0.32630328949E+03  0.32630328950E+03  0.25500000000E-02 0.  1.
    8880023    1    1    2    0    0  0.40848462110E+03  0.43808764094E+03  0.50343360719E+03  0.10227590478E+04  0.65864270000E+03 0.  0.
    8880022    1    1    2    0    0 -0.40848462110E+03 -0.43808764094E+03  0.13670661225E+04  0.15003472609E+04  0.15294330000E+03 0.  0.
<mgrwt>
<rscale>  0 0.81269153E+03</rscale>
<asrwt>0</asrwt>
<pdfrwt beam="1">  1        2 0.33796969E+00 0.89027562E+03</pdfrwt>
<pdfrwt beam="2">  1       -2 0.50200506E-01 0.89027562E+03</pdfrwt>
<totfact> 0.19840674E+01</totfact>
</mgrwt>
</event>
<event>
 4    1  0.5223852E-007  0.7042430E+03  0.7818608E-02  0.9980035E-01
          2   -1    0    0  501    0  0.00000000000E+00  0.00000000000E+00  0.73298973483E+03  0.73298973483E+03  0.25500000000E-02 0. -1.
         -2   -1    0    0    0  501 -0.00000000000E+00 -0.00000000000E+00 -0.12093681429E+04  0.12093681429E+04  0.25500000000E-02 0.  1.
    8880023    1    1    2    0    0 -0.22571881544E+03 -0.10582510355E+03 -0.10697910927E+04  0.12807853545E+04  0.65864270000E+03 0.  1.
    8880022    1    1    2    0    0  0.22571881544E+03  0.10582510355E+03  0.59341268460E+03  0.66157252319E+03  0.15294330000E+03 0.  0.
<mgrwt>
<rscale>  0 0.56534399E+03</rscale>
<asrwt>0</asrwt>
<pdfrwt beam="1">  1        2 0.11276765E+00 0.70424296E+03</pdfrwt>
<pdfrwt beam="2">  1       -2 0.18605664E+00 0.70424296E+03</pdfrwt>
<totfact> 0.65265943E+00</totfact>
</mgrwt>
</event>
<event>
 4    1  0.5223852E-007  0.8165748E+03  0.7818608E-02  0.9676041E-01
         -2   -1    0    0    0  501 -0.00000000000E+00  0.00000000000E+00  0.51087513074E+03  0.51087513075E+03  0.25500000000E-02 0.  1.
          2   -1    0    0  501    0  0.00000000000E+00 -0.00000000000E+00 -0.10404017282E+04  0.10404017282E+04  0.25500000000E-02 0. -1.
    8880023    1    1    2    0    0 -0.10382838137E+03  0.47138507612E+03  0.28304340965E+01  0.81657972078E+03  0.65864270000E+03 0.  1.
    8880022    1    1    2    0    0  0.10382838137E+03 -0.47138507612E+03 -0.53235703153E+03  0.73469713814E+03  0.15294330000E+03 0. -1.
<mgrwt>
<rscale>  0 0.72461385E+03</rscale>
<asrwt>0</asrwt>
<pdfrwt beam="1">  1        2 0.16006180E+00 0.81657482E+03</pdfrwt>
<pdfrwt beam="2">  1       -2 0.78596174E-01 0.81657482E+03</pdfrwt>
<totfact> 0.34494516E+01</totfact>
</mgrwt>
</event>
<event>
 4    1  0.5223852E-007  0.7409975E+03  0.7818608E-02  0.9857051E-01
          2   -1    0    0  501    0  0.00000000000E+00  0.00000000000E+00  0.11066115473E+04  0.11066115473E+04  0.25500000000E-02 0. -1.
         -2   -1    0    0    0  501 -0.00000000000E+00 -0.00000000000E+00 -0.55642034926E+03  0.55642034926E+03  0.25500000000E-02 0.  1.
    8880023    1    1    2    0    0 -0.29599643478E+02 -0.33821733418E+03 -0.24870090674E+03  0.78161976133E+03  0.65864270000E+03 0.  1.
    8880022    1    1    2    0    0  0.29599643478E+02  0.33821733418E+03  0.79889210475E+03  0.88141213520E+03  0.15294330000E+03 0.  0.
<mgrwt>
<rscale>  0 0.62388705E+03</rscale>
<asrwt>0</asrwt>
<pdfrwt beam="1">  1        2 0.17024793E+00 0.74099751E+03</pdfrwt>
<pdfrwt beam="2">  1       -2 0.85603131E-01 0.74099751E+03</pdfrwt>
<totfact> 0.26062795E+01</totfact>
</mgrwt>
</event>
<event>
 4    1  0.5223852E-007  0.6840488E+03  0.7818608E-02  0.1007120E+00
         -2   -1    0    0    0  501 -0.00000000000E+00  0.00000000000E+00  0.49017121208E+03  0.49017121209E+03  0.25500000000E-02 0.  1.
          2   -1    0    0  501    0  0.00000000000E+00 -0.00000000000E+00 -0.65094714322E+03  0.65094714322E+03  0.25500000000E-02 0. -1.
    8880023    1    1    2    0    0  0.17628447791E+03  0.55103143443E+02  0.19569920498E+03  0.71149206508E+03  0.65864270000E+03 0.  1.
    8880022    1    1    2    0    0 -0.17628447791E+03 -0.55103143443E+02 -0.35647513612E+03  0.42962629023E+03  0.15294330000E+03 0.  0.
<mgrwt>
<rscale>  0 0.52635383E+03</rscale>
<asrwt>0</asrwt>
<pdfrwt beam="1">  1        2 0.10014571E+00 0.68404881E+03</pdfrwt>
<pdfrwt beam="2">  1       -2 0.75410956E-01 0.68404881E+03</pdfrwt>
<totfact> 0.71993820E+01</totfact>
</mgrwt>
</event>
<event>
 4    1  0.5223852E-007  0.1271469E+04  0.7818608E-02  0.9090598E-01
         -2   -1    0    0    0  501 -0.00000000000E+00  0.00000000000E+00  0.27230180514E+04  0.27230180514E+04  0.25500000000E-02 0.  1.
          2   -1    0    0  501    0  0.00000000000E+00 -0.00000000000E+00 -0.67723243774E+03  0.67723243774E+03  0.25500000000E-02 0. -1.
    8880023    1    1    2    0    0  0.54459163187E+02 -0.10862125108E+04  0.19087440518E+04  0.22934553583E+04  0.65864270000E+03 0.  0.
    8880022    1    1    2    0    0 -0.54459163187E+02  0.10862125108E+04  0.13704156190E+03  0.11067951309E+04  0.15294330000E+03 0.  0.
<mgrwt>
<rscale>  0 0.12257656E+04</rscale>
<asrwt>0</asrwt>
<pdfrwt beam="1">  1        2 0.10418960E+00 0.12714691E+04</pdfrwt>
<pdfrwt beam="2">  1       -2 0.41892587E+00 0.12714691E+04</pdfrwt>
<totfact> 0.23374434E-01</totfact>
</mgrwt>
</event>
<event>
 4    1  0.5223852E-007  0.8879051E+03  0.7818608E-02  0.9545734E-01
         -2   -1    0    0    0  501 -0.00000000000E+00  0.00000000000E+00  0.61793674076E+03  0.61793674076E+03  0.25500000000E-02 0.  1.
          2   -1    0    0  501    0  0.00000000000E+00 -0.00000000000E+00 -0.14255654801E+04  0.14255654801E+04  0.25500000000E-02 0. -1.
    8880023    1    1    2    0    0  0.55447442631E+03 -0.21707908009E+03  0.15497434270E+03  0.90132816976E+03  0.65864270000E+03 0.  0.
    8880022    1    1    2    0    0 -0.55447442631E+03  0.21707908009E+03 -0.96260308202E+03  0.11421740511E+04  0.15294330000E+03 0.  0.
<mgrwt>
<rscale>  0 0.80994436E+03</rscale>
<asrwt>0</asrwt>
<pdfrwt beam="1">  1        2 0.21931776E+00 0.88790508E+03</pdfrwt>
<pdfrwt beam="2">  1       -2 0.95067191E-01 0.88790508E+03</pdfrwt>
<totfact> 0.13106035E+01</totfact>
</mgrwt>
</event>
<event>
 4    1  0.5223852E-007  0.7106202E+03  0.7818608E-02  0.9955705E-01
          2   -1    0    0  501    0  0.00000000000E+00  0.00000000000E+00  0.22746615160E+04  0.22746615160E+04  0.25500000000E-02 0. -1.
         -2   -1    0    0    0  501 -0.00000000000E+00 -0.00000000000E+00 -0.14340789572E+03  0.14340789574E+03  0.25500000000E-02 0.  1.
    8880023    1    1    2    0    0 -0.23386622810E+03  0.12836432936E+03  0.88790706628E+03  0.11372598552E+04  0.65864270000E+03 0.  1.
    8880022    1    1    2    0    0  0.23386622810E+03 -0.12836432936E+03  0.12433465540E+04  0.12808095565E+04  0.15294330000E+03 0.  0.
<mgrwt>
<rscale>  0 0.57635889E+03</rscale>
<asrwt>0</asrwt>
<pdfrwt beam="1">  1        2 0.34994790E+00 0.71062017E+03</pdfrwt>
<pdfrwt beam="2">  1       -2 0.22062755E-01 0.71062017E+03</pdfrwt>
<totfact> 0.87237627E+01</totfact>
</mgrwt>
</event>
<event>
 4    1  0.5223852E-007  0.7148367E+03  0.7818608E-02  0.9940460E-01
          2   -1    0    0  501    0  0.00000000000E+00  0.00000000000E+00  0.21349822401E+04  0.21349822401E+04  0.25500000000E-02 0. -1.
         -2   -1    0    0    0  501 -0.00000000000E+00 -0.00000000000E+00 -0.22437841439E+03  0.22437841440E+03  0.25500000000E-02 0.  1.
    8880023    1    1    2    0    0  0.21329312825E+03  0.17800938827E+03  0.40680334132E+03  0.82248432547E+03  0.65864270000E+03 0.  0.
    8880022    1    1    2    0    0 -0.21329312825E+03 -0.17800938827E+03  0.15038004844E+04  0.15368763291E+04  0.15294330000E+03 0.  0.
<mgrwt>
<rscale>  0 0.58339846E+03</rscale>
<asrwt>0</asrwt>
<pdfrwt beam="1">  1        2 0.32845882E+00 0.71483670E+03</pdfrwt>
<pdfrwt beam="2">  1       -2 0.34519755E-01 0.71483670E+03</pdfrwt>
<totfact> 0.45843340E+01</totfact>
</mgrwt>
</event>
<event>
 4    1  0.5223852E-007  0.7550019E+03  0.7818608E-02  0.9818223E-01
         -2   -1    0    0    0  501 -0.00000000000E+00  0.00000000000E+00  0.59047937196E+03  0.59047937196E+03  0.25500000000E-02 0.  1.
          2   -1    0    0  501    0  0.00000000000E+00 -0.00000000000E+00 -0.97059012607E+03  0.97059012608E+03  0.25500000000E-02 0. -1.
    8880023    1    1    2    0    0 -0.79182098544E+02 -0.36048284805E+03  0.26678543971E+03  0.80075112586E+03  0.65864270000E+03 0.  1.
    8880022    1    1    2    0    0  0.79182098544E+02  0.36048284805E+03 -0.64689619382E+03  0.76031837218E+03  0.15294330000E+03 0.  0.
<mgrwt>
<rscale>  0 0.64393692E+03</rscale>
<asrwt>0</asrwt>
<pdfrwt beam="1">  1        2 0.14932156E+00 0.75500192E+03</pdfrwt>
<pdfrwt beam="2">  1       -2 0.90842980E-01 0.75500192E+03</pdfrwt>
<totfact> 0.27639748E+01</totfact>
</mgrwt>
</event>
<event>
 4    1  0.5223852E-007  0.6861578E+03  0.7818608E-02  0.1006035E+00
         -2   -1    0    0    0  501 -0.00000000000E+00  0.00000000000E+00  0.66235889035E+03  0.66235889036E+03  0.25500000000E-02 0.  1.
          2   -1    0    0  501    0  0.00000000000E+00 -0.00000000000E+00 -0.10744720908E+04  0.10744720908E+04  0.25500000000E-02 0. -1.
    8880023    1    1    2    0    0 -0.55871957956E+02  0.18406712140E+03  0.46307170386E+03  0.82779707057E+03  0.65864270000E+03 0.  1.
    8880022    1    1    2    0    0  0.55871957956E+02 -0.18406712140E+03 -0.87518490429E+03  0.90903391058E+03  0.15294330000E+03 0.  0.
<mgrwt>
<rscale>  0 0.53081389E+03</rscale>
<asrwt>0</asrwt>
<pdfrwt beam="1">  1        2 0.16530340E+00 0.68615784E+03</pdfrwt>
<pdfrwt beam="2">  1       -2 0.10190137E+00 0.68615784E+03</pdfrwt>
<totfact> 0.18290991E+01</totfact>
</mgrwt>
</event>
<event>
 4    1  0.5223852E-007  0.6975320E+03  0.7818608E-02  0.1000760E+00
          2   -1    0    0  501    0  0.00000000000E+00  0.00000000000E+00  0.13689585487E+04  0.13689585487E+04  0.25500000000E-02 0. -1.
         -2   -1    0    0    0  501 -0.00000000000E+00 -0.00000000000E+00 -0.25839259950E+03  0.25839259951E+03  0.25500000000E-02 0.  1.
    8880023    1    1    2    0    0 -0.12293681116E+03 -0.19397743605E+03  0.27909776805E+03  0.75129652976E+03  0.65864270000E+03 0.  1.
    8880022    1    1    2    0    0  0.12293681116E+03  0.19397743605E+03  0.83146818120E+03  0.87605461850E+03  0.15294330000E+03 0.  0.
<mgrwt>
<rscale>  0 0.55318357E+03</rscale>
<asrwt>0</asrwt>
<pdfrwt beam="1">  1        2 0.21060901E+00 0.69753201E+03</pdfrwt>
<pdfrwt beam="2">  1       -2 0.39752707E-01 0.69753201E+03</pdfrwt>
<totfact> 0.92255542E+01</totfact>
</mgrwt>
</event>
<event>
 4    1  0.5223852E-007  0.6721693E+03  0.7818608E-02  0.1014153E+00
         -2   -1    0    0    0  501 -0.00000000000E+00  0.00000000000E+00  0.76666941364E+02  0.76666941406E+02  0.25500000000E-02 0.  1.
          2   -1    0    0  501    0  0.00000000000E+00 -0.00000000000E+00 -0.25386279279E+04  0.25386279279E+04  0.25500000000E-02 0. -1.
    8880023    1    1    2    0    0  0.12426931647E+03 -0.50581914483E+02 -0.20163328778E+04  0.21254199288E+04  0.65864270000E+03 0.  0.
    8880022    1    1    2    0    0 -0.12426931647E+03  0.50581914483E+02 -0.44562810867E+03  0.48987494051E+03  0.15294330000E+03 0. -1.
<mgrwt>
<rscale>  0 0.49856862E+03</rscale>
<asrwt>0</asrwt>
<pdfrwt beam="1">  1        2 0.39055808E+00 0.67216932E+03</pdfrwt>
<pdfrwt beam="2">  1       -2 0.11794916E-01 0.67216932E+03</pdfrwt>
<totfact> 0.18139956E+02</totfact>
</mgrwt>
</event>
<event>
 4    1  0.5223852E-007  0.7229979E+03  0.7818608E-02  0.9912570E-01
         -2   -1    0    0    0  501 -0.00000000000E+00  0.00000000000E+00  0.50714302092E+03  0.50714302093E+03  0.25500000000E-02 0.  1.
          2   -1    0    0  501    0  0.00000000000E+00 -0.00000000000E+00 -0.59961709250E+03  0.59961709251E+03  0.25500000000E-02 0. -1.
    8880023    1    1    2    0    0 -0.20523155391E+03  0.21632323733E+03  0.84258387673E+02  0.72789107419E+03  0.65864270000E+03 0.  0.
    8880022    1    1    2    0    0  0.20523155391E+03 -0.21632323733E+03 -0.17673245925E+03  0.37886903925E+03  0.15294330000E+03 0.  0.
<mgrwt>
<rscale>  0 0.59655956E+03</rscale>
<asrwt>0</asrwt>
<pdfrwt beam="1">  1        2 0.92248783E-01 0.72299788E+03</pdfrwt>
<pdfrwt beam="2">  1       -2 0.78022004E-01 0.72299788E+03</pdfrwt>
<totfact> 0.73567626E+01</totfact>
</mgrwt>
</event>
<event>
 4    1  0.5223852E-007  0.7917280E+03  0.7818608E-02  0.9728976E-01
         -2   -1    0    0    0  501 -0.00000000000E+00  0.00000000000E+00  0.26906308290E+03  0.26906308291E+03  0.25500000000E-02 0.  1.
          2   -1    0    0  501    0  0.00000000000E+00 -0.00000000000E+00 -0.15032189742E+04  0.15032189742E+04  0.25500000000E-02 0. -1.
    8880023    1    1    2    0    0 -0.36485185605E+03  0.24475716654E+03 -0.90481724730E+03  0.12023008794E+04  0.65864270000E+03 0.  1.
    8880022    1    1    2    0    0  0.36485185605E+03 -0.24475716654E+03 -0.32933864396E+03  0.56998117764E+03  0.15294330000E+03 0.  0.
<mgrwt>
<rscale>  0 0.69317486E+03</rscale>
<asrwt>0</asrwt>
<pdfrwt beam="1">  1        2 0.23126445E+00 0.79172795E+03</pdfrwt>
<pdfrwt beam="2">  1       -2 0.41394321E-01 0.79172795E+03</pdfrwt>
<totfact> 0.71016200E+01</totfact>
</mgrwt>
</event>
<event>
 4    1  0.5223852E-007  0.7040016E+03  0.7818608E-02  0.9980989E-01
          2   -1    0    0  501    0  0.00000000000E+00  0.00000000000E+00  0.13229841287E+04  0.13229841287E+04  0.25500000000E-02 0. -1.
         -2   -1    0    0    0  501 -0.00000000000E+00 -0.00000000000E+00 -0.29872247736E+03  0.29872247737E+03  0.25500000000E-02 0.  1.
    8880023    1    1    2    0    0 -0.19661650055E+02  0.24783365819E+03  0.17747979718E+03  0.72602850308E+03  0.65864270000E+03 0.  1.
    8880022    1    1    2    0    0  0.19661650055E+02 -0.24783365819E+03  0.84678185416E+03  0.89567810298E+03  0.15294330000E+03 0.  0.
<mgrwt>
<rscale>  0 0.56491752E+03</rscale>
<asrwt>0</asrwt>
<pdfrwt beam="1">  1        2 0.20353601E+00 0.70400164E+03</pdfrwt>
<pdfrwt beam="2">  1       -2 0.45957305E-01 0.70400164E+03</pdfrwt>
<totfact> 0.73563582E+01</totfact>
</mgrwt>
</event>
<event>
 4    1  0.5223852E-007  0.6640383E+03  0.7818608E-02  0.1020354E+00
          2   -1    0    0  501    0  0.00000000000E+00  0.00000000000E+00  0.15687136812E+04  0.15687136812E+04  0.25500000000E-02 0. -1.
         -2   -1    0    0    0  501 -0.00000000000E+00 -0.00000000000E+00 -0.15894827525E+03  0.15894827527E+03  0.25500000000E-02 0.  1.
    8880023    1    1    2    0    0  0.76722166213E+02 -0.35360542225E+02  0.58619172199E+03  0.88575820624E+03  0.65864270000E+03 0.  1.
    8880022    1    1    2    0    0 -0.76722166213E+02  0.35360542225E+02  0.82357368391E+03  0.84190375019E+03  0.15294330000E+03 0.  0.
<mgrwt>
<rscale>  0 0.47558998E+03</rscale>
<asrwt>0</asrwt>
<pdfrwt beam="1">  1        2 0.24134057E+00 0.66403830E+03</pdfrwt>
<pdfrwt beam="2">  1       -2 0.24453581E-01 0.66403830E+03</pdfrwt>
<totfact> 0.17734137E+02</totfact>
</mgrwt>
</event>
<event>
 4    1  0.5223852E-007  0.7881654E+03  0.7818608E-02  0.9736994E-01
          2   -1    0    0  501    0  0.00000000000E+00  0.00000000000E+00  0.99405283442E+03  0.99405283442E+03  0.25500000000E-02 0. -1.
         -2   -1    0    0    0  501 -0.00000000000E+00 -0.00000000000E+00 -0.63217867981E+03  0.63217867981E+03  0.25500000000E-02 0.  1.
    8880023    1    1    2    0    0 -0.10158303106E+03  0.42080330695E+03 -0.28055563177E+03  0.83660994742E+03  0.65864270000E+03 0.  0.
    8880022    1    1    2    0    0  0.10158303106E+03 -0.42080330695E+03  0.64242978638E+03  0.78962156681E+03  0.15294330000E+03 0.  0.
<mgrwt>
<rscale>  0 0.68856240E+03</rscale>
<asrwt>0</asrwt>
<pdfrwt beam="1">  1        2 0.15293120E+00 0.78816543E+03</pdfrwt>
<pdfrwt beam="2">  1       -2 0.97258259E-01 0.78816543E+03</pdfrwt>
<totfact> 0.22693988E+01</totfact>
</mgrwt>
</event>
<event>
 4    1  0.5223852E-007  0.6596505E+03  0.7818608E-02  0.1024517E+00
         -2   -1    0    0    0  501 -0.00000000000E+00  0.00000000000E+00  0.10467767839E+03  0.10467767842E+03  0.25500000000E-02 0.  1.
          2   -1    0    0  501    0  0.00000000000E+00 -0.00000000000E+00 -0.15938322889E+04  0.15938322889E+04  0.25500000000E-02 0. -1.
    8880023    1    1    2    0    0 -0.26890559104E+02  0.24605264299E+02 -0.12091809126E+04  0.13774096003E+04  0.65864270000E+03 0.  0.
    8880022    1    1    2    0    0  0.26890559104E+02 -0.24605264299E+02 -0.27997369788E+03  0.32110036705E+03  0.15294330000E+03 0.  1.
<mgrwt>
<rscale>  0 0.46091076E+03</rscale>
<asrwt>0</asrwt>
<pdfrwt beam="1">  1        2 0.24520495E+00 0.65965046E+03</pdfrwt>
<pdfrwt beam="2">  1       -2 0.16104259E-01 0.65965046E+03</pdfrwt>
<totfact> 0.35630472E+02</totfact>
</mgrwt>
</event>
<event>
 4    1  0.5223852E-007  0.6592328E+03  0.7818608E-02  0.1024957E+00
          2   -1    0    0  501    0  0.00000000000E+00  0.00000000000E+00  0.21175452383E+04  0.21175452383E+04  0.25500000000E-02 0. -1.
         -2   -1    0    0    0  501 -0.00000000000E+00 -0.00000000000E+00 -0.23981051157E+03  0.23981051159E+03  0.25500000000E-02 0.  1.
    8880023    1    1    2    0    0 -0.22893848154E+01  0.27792768994E+02  0.22388170772E+03  0.69621182452E+03  0.65864270000E+03 0.  1.
    8880022    1    1    2    0    0  0.22893848154E+01 -0.27792768994E+02  0.16538530190E+04  0.16611439253E+04  0.15294330000E+03 0.  0.
<mgrwt>
<rscale>  0 0.45939598E+03</rscale>
<asrwt>0</asrwt>
<pdfrwt beam="1">  1        2 0.32577618E+00 0.65923280E+03</pdfrwt>
<pdfrwt beam="2">  1       -2 0.36893926E-01 0.65923280E+03</pdfrwt>
<totfact> 0.41596679E+01</totfact>
</mgrwt>
</event>
<event>
 4    1  0.5223852E-007  0.8642522E+03  0.7818608E-02  0.9586044E-01
          2   -1    0    0  501    0  0.00000000000E+00  0.00000000000E+00  0.64620863894E+03  0.64620863894E+03  0.25500000000E-02 0. -1.
         -2   -1    0    0    0  501 -0.00000000000E+00 -0.00000000000E+00 -0.89925081932E+03  0.89925081933E+03  0.25500000000E-02 0.  1.
    8880023    1    1    2    0    0  0.51437747570E+03 -0.22031225874E+03 -0.39192796646E+03  0.94896755267E+03  0.65864270000E+03 0.  0.
    8880022    1    1    2    0    0 -0.51437747570E+03  0.22031225874E+03  0.13888578608E+03  0.59649190560E+03  0.15294330000E+03 0.  0.
<mgrwt>
<rscale>  0 0.78226817E+03</rscale>
<asrwt>0</asrwt>
<pdfrwt beam="1">  1        2 0.99416714E-01 0.86425221E+03</pdfrwt>
<pdfrwt beam="2">  1       -2 0.13834628E+00 0.86425221E+03</pdfrwt>
<totfact> 0.16839696E+01</totfact>
</mgrwt>
</event>
<event>
 4    1  0.5223852E-007  0.8688409E+03  0.7818608E-02  0.9578027E-01
         -2   -1    0    0    0  501 -0.00000000000E+00  0.00000000000E+00  0.36286018343E+03  0.36286018344E+03  0.25500000000E-02 0.  1.
          2   -1    0    0  501    0  0.00000000000E+00 -0.00000000000E+00 -0.18200884814E+04  0.18200884814E+04  0.25500000000E-02 0. -1.
    8880023    1    1    2    0    0 -0.48004899433E+03 -0.30104373540E+03 -0.13198798444E+04  0.15801795397E+04  0.65864270000E+03 0. -1.
    8880022    1    1    2    0    0  0.48004899433E+03  0.30104373540E+03 -0.13734845357E+03  0.60276912520E+03  0.15294330000E+03 0.  0.
<mgrwt>
<rscale>  0 0.78767762E+03</rscale>
<asrwt>0</asrwt>
<pdfrwt beam="1">  1        2 0.28001361E+00 0.86884094E+03</pdfrwt>
<pdfrwt beam="2">  1       -2 0.55824645E-01 0.86884094E+03</pdfrwt>
<totfact> 0.25730220E+01</totfact>
</mgrwt>
</event>
<event>
 4    1  0.5223852E-007  0.9014088E+03  0.7818608E-02  0.9523774E-01
         -2   -1    0    0    0  501 -0.00000000000E+00  0.00000000000E+00  0.29795281519E+03  0.29795281520E+03  0.25500000000E-02 0.  1.
          2   -1    0    0  501    0  0.00000000000E+00 -0.00000000000E+00 -0.26406458732E+04  0.26406458732E+04  0.25500000000E-02 0. -1.
    8880023    1    1    2    0    0  0.58618449988E+03 -0.18739085669E+03 -0.59669009254E+03  0.10810073422E+04  0.65864270000E+03 0.  1.
    8880022    1    1    2    0    0 -0.58618449988E+03  0.18739085669E+03 -0.17460029654E+04  0.18575913462E+04  0.15294330000E+03 0.  0.
<mgrwt>
<rscale>  0 0.82553540E+03</rscale>
<asrwt>0</asrwt>
<pdfrwt beam="1">  1        2 0.40625320E+00 0.90140879E+03</pdfrwt>
<pdfrwt beam="2">  1       -2 0.45838896E-01 0.90140879E+03</pdfrwt>
<totfact> 0.13358750E+01</totfact>
</mgrwt>
</event>
<event>
 4    1  0.5223852E-007  0.1017903E+04  0.7818608E-02  0.9358500E-01
          2   -1    0    0  501    0  0.00000000000E+00  0.00000000000E+00  0.85650153224E+03  0.85650153224E+03  0.25500000000E-02 0. -1.
         -2   -1    0    0    0  501 -0.00000000000E+00 -0.00000000000E+00 -0.13351841892E+04  0.13351841892E+04  0.25500000000E-02 0.  1.
    8880023    1    1    2    0    0 -0.77435628836E+03  0.51859458852E+02  0.32056090305E+03  0.10671862835E+04  0.65864270000E+03 0. -1.
    8880022    1    1    2    0    0  0.77435628836E+03 -0.51859458852E+02 -0.79924356003E+03  0.11244994380E+04  0.15294330000E+03 0.  0.
<mgrwt>
<rscale>  0 0.95571068E+03</rscale>
<asrwt>0</asrwt>
<pdfrwt beam="1">  1        2 0.13176947E+00 0.10179034E+04</pdfrwt>
<pdfrwt beam="2">  1       -2 0.20541295E+00 0.10179034E+04</pdfrwt>
<totfact> 0.38164170E+00</totfact>
</mgrwt>
</event>
<event>
 4    1  0.8054324E-007  0.9602822E+03  0.7818608E-02  0.9435472E-01
         -2   -1    0    0    0  501 -0.00000000000E+00  0.00000000000E+00  0.17629964216E+04  0.17629964216E+04  0.25500000000E-02 0.  1.
          2   -1    0    0  501    0  0.00000000000E+00 -0.00000000000E+00 -0.16308735288E+04  0.16308735288E+04  0.25500000000E-02 0. -1.
    8880023    1    1    2    0    0 -0.50094032657E+03  0.48722730125E+03  0.15398925252E+04  0.18147757022E+04  0.65864270000E+03 0.  0.
    8880022    1    1    2    0    0  0.50094032657E+03 -0.48722730125E+03 -0.14077696324E+04  0.15790942482E+04  0.15294330000E+03 0.  0.
<mgrwt>
<rscale>  0 0.89213084E+03</rscale>
<asrwt>0</asrwt>
<pdfrwt beam="1">  1        2 0.25090362E+00 0.96028218E+03</pdfrwt>
<pdfrwt beam="2">  1       -2 0.27123022E+00 0.96028218E+03</pdfrwt>
<totfact> 0.51494974E-01</totfact>
</mgrwt>
</event>
<event>
 4    1  0.5223852E-007  0.7857377E+03  0.7818608E-02  0.9742528E-01
          2   -1    0    0  501    0  0.00000000000E+00  0.00000000000E+00  0.27515823196E+04  0.27515823196E+04  0.25500000000E-02 0. -1.
         -2   -1    0    0    0  501 -0.00000000000E+00 -0.00000000000E+00 -0.16332329052E+03  0.16332329054E+03  0.25500000000E-02 0.  1.
    8880023    1    1    2    0    0  0.19060140313E+03 -0.38372468097E+03  0.10541830710E+04  0.13147949190E+04  0.65864270000E+03 0.  1.
    8880022    1    1    2    0    0 -0.19060140313E+03  0.38372468097E+03  0.15340759580E+04  0.16001106911E+04  0.15294330000E+03 0.  0.
<mgrwt>
<rscale>  0 0.68540198E+03</rscale>
<asrwt>0</asrwt>
<pdfrwt beam="1">  1        2 0.42332036E+00 0.78573770E+03</pdfrwt>
<pdfrwt beam="2">  1       -2 0.25126660E-01 0.78573770E+03</pdfrwt>
<totfact> 0.36661871E+01</totfact>
</mgrwt>
</event>
<event>
 4    1  0.5223852E-007  0.7118998E+03  0.7818608E-02  0.9951013E-01
         -2   -1    0    0    0  501 -0.00000000000E+00  0.00000000000E+00  0.33774436980E+03  0.33774436981E+03  0.25500000000E-02 0.  1.
          2   -1    0    0  501    0  0.00000000000E+00 -0.00000000000E+00 -0.11500828698E+04  0.11500828698E+04  0.25500000000E-02 0. -1.
    8880023    1    1    2    0    0  0.79687020517E+02 -0.25814929140E+03 -0.11054547695E+03  0.72043152806E+03  0.65864270000E+03 0.  1.
    8880022    1    1    2    0    0 -0.79687020517E+02  0.25814929140E+03 -0.70179302306E+03  0.76739571156E+03  0.15294330000E+03 0.  0.
<mgrwt>
<rscale>  0 0.57851423E+03</rscale>
<asrwt>0</asrwt>
<pdfrwt beam="1">  1        2 0.17693582E+00 0.71189977E+03</pdfrwt>
<pdfrwt beam="2">  1       -2 0.51960673E-01 0.71189977E+03</pdfrwt>
<totfact> 0.72372676E+01</totfact>
</mgrwt>
</event>
<event>
 4    1  0.5223852E-007  0.6709381E+03  0.7818608E-02  0.1014999E+00
          2   -1    0    0  501    0  0.00000000000E+00  0.00000000000E+00  0.30587534230E+04  0.30587534230E+04  0.25500000000E-02 0. -1.
         -2   -1    0    0    0  501 -0.00000000000E+00 -0.00000000000E+00 -0.10179584708E+03  0.10179584711E+03  0.25500000000E-02 0.  1.
    8880023    1    1    2    0    0  0.17817459252E+02  0.12661069772E+03  0.10690847371E+04  0.12621806970E+04  0.65864270000E+03 0.  1.
    8880022    1    1    2    0    0 -0.17817459252E+02 -0.12661069772E+03  0.18878728389E+04  0.18983685731E+04  0.15294330000E+03 0.  0.
<mgrwt>
<rscale>  0 0.49535264E+03</rscale>
<asrwt>0</asrwt>
<pdfrwt beam="1">  1        2 0.47057754E+00 0.67093810E+03</pdfrwt>
<pdfrwt beam="2">  1       -2 0.15660897E-01 0.67093810E+03</pdfrwt>
<totfact> 0.55718451E+01</totfact>
</mgrwt>
</event>
<event>
 4    1  0.5223852E-007  0.8816556E+03  0.7818608E-02  0.9556146E-01
          2   -1    0    0  501    0  0.00000000000E+00  0.00000000000E+00  0.19733728227E+04  0.19733728227E+04  0.25500000000E-02 0. -1.
         -2   -1    0    0    0  501 -0.00000000000E+00 -0.00000000000E+00 -0.54685931065E+03  0.54685931066E+03  0.25500000000E-02 0.  1.
    8880023    1    1    2    0    0 -0.56333564230E+03 -0.16173830907E+03 -0.90958528485E+02  0.88633514354E+03  0.65864270000E+03 0.  0.
    8880022    1    1    2    0    0  0.56333564230E+03  0.16173830907E+03  0.15174720405E+04  0.16338969898E+04  0.15294330000E+03 0.  0.
<mgrwt>
<rscale>  0 0.80267988E+03</rscale>
<asrwt>0</asrwt>
<pdfrwt beam="1">  1        2 0.30359582E+00 0.88165556E+03</pdfrwt>
<pdfrwt beam="2">  1       -2 0.84132201E-01 0.88165556E+03</pdfrwt>
<totfact> 0.86619174E+00</totfact>
</mgrwt>
</event>
<event>
 4    1  0.5223852E-007  0.7429562E+03  0.7818608E-02  0.9851418E-01
          2   -1    0    0  501    0  0.00000000000E+00  0.00000000000E+00  0.11897446807E+04  0.11897446807E+04  0.25500000000E-02 0. -1.
         -2   -1    0    0    0  501 -0.00000000000E+00 -0.00000000000E+00 -0.97002307960E+03  0.97002307960E+03  0.25500000000E-02 0.  1.
    8880023    1    1    2    0    0  0.31834609291E+03  0.12972824335E+03 -0.78864808561E+03  0.10834895760E+04  0.65864270000E+03 0.  0.
    8880022    1    1    2    0    0 -0.31834609291E+03 -0.12972824335E+03  0.10083696867E+04  0.10762781843E+04  0.15294330000E+03 0. -1.
<mgrwt>
<rscale>  0 0.62674661E+03</rscale>
<asrwt>0</asrwt>
<pdfrwt beam="1">  1        2 0.18303764E+00 0.74295616E+03</pdfrwt>
<pdfrwt beam="2">  1       -2 0.14923432E+00 0.74295616E+03</pdfrwt>
<totfact> 0.59634127E+00</totfact>
</mgrwt>
</event>
<event>
 4    1  0.5223852E-007  0.6727149E+03  0.7818608E-02  0.1013787E+00
         -2   -1    0    0    0  501 -0.00000000000E+00  0.00000000000E+00  0.12069566611E+03  0.12069566614E+03  0.25500000000E-02 0.  1.
          2   -1    0    0  501    0  0.00000000000E+00 -0.00000000000E+00 -0.27789862182E+04  0.27789862182E+04  0.25500000000E-02 0. -1.
    8880023    1    1    2    0    0 -0.99665778166E+01 -0.13651302945E+03 -0.87047698639E+03  0.11001252338E+04  0.65864270000E+03 0.  1.
    8880022    1    1    2    0    0  0.99665778166E+01  0.13651302945E+03 -0.17878135657E+04  0.17995566505E+04  0.15294330000E+03 0.  0.
<mgrwt>
<rscale>  0 0.49996901E+03</rscale>
<asrwt>0</asrwt>
<pdfrwt beam="1">  1        2 0.42753629E+00 0.67271491E+03</pdfrwt>
<pdfrwt beam="2">  1       -2 0.18568566E-01 0.67271491E+03</pdfrwt>
<totfact> 0.61295363E+01</totfact>
</mgrwt>
</event>
<event>
 4    1  0.5223852E-007  0.8292936E+03  0.7818608E-02  0.9650708E-01
          2   -1    0    0  501    0  0.00000000000E+00  0.00000000000E+00  0.78340294067E+03  0.78340294067E+03  0.25500000000E-02 0. -1.
         -2   -1    0    0    0  501 -0.00000000000E+00 -0.00000000000E+00 -0.17367862493E+04  0.17367862493E+04  0.25500000000E-02 0.  1.
    8880023    1    1    2    0    0  0.44020926270E+03 -0.24522113427E+03 -0.15293813755E+04  0.17397514758E+04  0.65864270000E+03 0.  1.
    8880022    1    1    2    0    0 -0.44020926270E+03  0.24522113427E+03  0.57599806685E+03  0.78043771417E+03  0.15294330000E+03 0.  0.
<mgrwt>
<rscale>  0 0.74028980E+03</rscale>
<asrwt>0</asrwt>
<pdfrwt beam="1">  1        2 0.12052353E+00 0.82929356E+03</pdfrwt>
<pdfrwt beam="2">  1       -2 0.26719788E+00 0.82929356E+03</pdfrwt>
<totfact> 0.18265919E+00</totfact>
</mgrwt>
</event>
<event>
 4    1  0.5223852E-007  0.6677764E+03  0.7818608E-02  0.1017310E+00
         -2   -1    0    0    0  501 -0.00000000000E+00  0.00000000000E+00  0.18077888789E+03  0.18077888791E+03  0.25500000000E-02 0.  1.
          2   -1    0    0  501    0  0.00000000000E+00 -0.00000000000E+00 -0.26056549139E+04  0.26056549139E+04  0.25500000000E-02 0. -1.
    8880023    1    1    2    0    0  0.75594422409E+00  0.11006615818E+03 -0.45612890158E+03  0.80868962634E+03  0.65864270000E+03 0.  0.
    8880022    1    1    2    0    0 -0.75594422409E+00 -0.11006615818E+03 -0.19687471244E+04  0.19777441754E+04  0.15294330000E+03 0. -1.
<mgrwt>
<rscale>  0 0.48670098E+03</rscale>
<asrwt>0</asrwt>
<pdfrwt beam="1">  1        2 0.40086996E+00 0.66777641E+03</pdfrwt>
<pdfrwt beam="2">  1       -2 0.27812138E-01 0.66777641E+03</pdfrwt>
<totfact> 0.37693890E+01</totfact>
</mgrwt>
</event>
<event>
 4    1  0.5223852E-007  0.7304610E+03  0.7818608E-02  0.9888659E-01
         -2   -1    0    0    0  501 -0.00000000000E+00  0.00000000000E+00  0.70562663788E+03  0.70562663789E+03  0.25500000000E-02 0.  1.
          2   -1    0    0  501    0  0.00000000000E+00 -0.00000000000E+00 -0.97663770453E+03  0.97663770453E+03  0.25500000000E-02 0. -1.
    8880023    1    1    2    0    0  0.10970237383E+03  0.29618990837E+03  0.46566779760E+03  0.86626772803E+03  0.65864270000E+03 0.  1.
    8880022    1    1    2    0    0 -0.10970237383E+03 -0.29618990837E+03 -0.73667886425E+03  0.81599661438E+03  0.15294330000E+03 0.  0.
<mgrwt>
<rscale>  0 0.60814083E+03</rscale>
<asrwt>0</asrwt>
<pdfrwt beam="1">  1        2 0.15025195E+00 0.73046100E+03</pdfrwt>
<pdfrwt beam="2">  1       -2 0.10855794E+00 0.73046100E+03</pdfrwt>
<totfact> 0.18019221E+01</totfact>
</mgrwt>
</event>
<event>
 4    1  0.5223852E-007  0.1176964E+04  0.7818608E-02  0.9179846E-01
         -2   -1    0    0    0  501 -0.00000000000E+00  0.00000000000E+00  0.12293969004E+04  0.12293969004E+04  0.25500000000E-02 0.  1.
          2   -1    0    0  501    0  0.00000000000E+00 -0.00000000000E+00 -0.10289024075E+04  0.10289024075E+04  0.25500000000E-02 0. -1.
    8880023    1    1    2    0    0  0.50900631298E+03  0.83207415053E+03 -0.19814531224E+03  0.11935269539E+04  0.65864270000E+03 0.  0.
    8880022    1    1    2    0    0 -0.50900631298E+03 -0.83207415053E+03  0.39863980518E+03  0.10647723540E+04  0.15294330000E+03 0.  0.
<mgrwt>
<rscale>  0 0.11263890E+04</rscale>
<asrwt>0</asrwt>
<pdfrwt beam="1">  1        2 0.15829268E+00 0.11769643E+04</pdfrwt>
<pdfrwt beam="2">  1       -2 0.18913799E+00 0.11769643E+04</pdfrwt>
<totfact> 0.36950396E+00</totfact>
</mgrwt>
</event>
<event>
 4    1  0.5223852E-007  0.7584199E+03  0.7818608E-02  0.9809216E-01
         -2   -1    0    0    0  501 -0.00000000000E+00  0.00000000000E+00  0.63949110878E+03  0.63949110879E+03  0.25500000000E-02 0.  1.
          2   -1    0    0  501    0  0.00000000000E+00 -0.00000000000E+00 -0.12442349518E+04  0.12442349518E+04  0.25500000000E-02 0. -1.
    8880023    1    1    2    0    0 -0.23114626454E+03  0.29658369236E+03  0.35817305400E+03  0.83874228763E+03  0.65864270000E+03 0.  1.
    8880022    1    1    2    0    0  0.23114626454E+03 -0.29658369236E+03 -0.96291689699E+03  0.10449837729E+04  0.15294330000E+03 0.  0.
<mgrwt>
<rscale>  0 0.64870320E+03</rscale>
<asrwt>0</asrwt>
<pdfrwt beam="1">  1        2 0.19142076E+00 0.75841986E+03</pdfrwt>
<pdfrwt beam="2">  1       -2 0.98383248E-01 0.75841986E+03</pdfrwt>
<totfact> 0.15594245E+01</totfact>
</mgrwt>
</event>
<event>
 4    1  0.5223852E-007  0.7087053E+03  0.7818608E-02  0.9962841E-01
          2   -1    0    0  501    0  0.00000000000E+00  0.00000000000E+00  0.30458357477E+04  0.30458357477E+04  0.25500000000E-02 0. -1.
         -2   -1    0    0    0  501 -0.00000000000E+00 -0.00000000000E+00 -0.18557084103E+03  0.18557084105E+03  0.25500000000E-02 0.  1.
    8880023    1    1    2    0    0  0.36964919884E+02  0.25901068335E+03  0.53885063067E+03  0.89029385476E+03  0.65864270000E+03 0.  1.
    8880022    1    1    2    0    0 -0.36964919884E+02 -0.25901068335E+03  0.23214142760E+04  0.23411127340E+04  0.15294330000E+03 0.  0.
<mgrwt>
<rscale>  0 0.57310070E+03</rscale>
<asrwt>0</asrwt>
<pdfrwt beam="1">  1        2 0.46859015E+00 0.70870526E+03</pdfrwt>
<pdfrwt beam="2">  1       -2 0.28549358E-01 0.70870526E+03</pdfrwt>
<totfact> 0.19564004E+01</totfact>
</mgrwt>
</event>
<event>
 4    1  0.5223852E-007  0.8640342E+03  0.7818608E-02  0.9586427E-01
         -2   -1    0    0    0  501 -0.00000000000E+00  0.00000000000E+00  0.91385780087E+03  0.91385780087E+03  0.25500000000E-02 0.  1.
          2   -1    0    0  501    0  0.00000000000E+00 -0.00000000000E+00 -0.10525865886E+04  0.10525865886E+04  0.25500000000E-02 0. -1.
    8880023    1    1    2    0    0  0.40148072299E+03 -0.38930467459E+03  0.58177415399E+03  0.10416411441E+04  0.65864270000E+03 0.  0.
    8880022    1    1    2    0    0 -0.40148072299E+03  0.38930467459E+03 -0.72050294173E+03  0.92480324537E+03  0.15294330000E+03 0.  0.
<mgrwt>
<rscale>  0 0.78201065E+03</rscale>
<asrwt>0</asrwt>
<pdfrwt beam="1">  1        2 0.16193640E+00 0.86403420E+03</pdfrwt>
<pdfrwt beam="2">  1       -2 0.14059351E+00 0.86403420E+03</pdfrwt>
<totfact> 0.83264478E+00</totfact>
</mgrwt>
</event>
<event>
 4    1  0.5223852E-007  0.1009282E+04  0.7818608E-02  0.9369513E-01
         -2   -1    0    0    0  501 -0.00000000000E+00  0.00000000000E+00  0.67447565345E+03  0.67447565346E+03  0.25500000000E-02 0.  1.
          2   -1    0    0  501    0  0.00000000000E+00 -0.00000000000E+00 -0.12850701477E+04  0.12850701477E+04  0.25500000000E-02 0. -1.
    8880023    1    1    2    0    0 -0.76182489564E+03  0.66808631763E+02 -0.72194940336E+02  0.10118610975E+04  0.65864270000E+03 0.  0.
    8880022    1    1    2    0    0  0.76182489564E+03 -0.66808631763E+02 -0.53839955386E+03  0.94768470364E+03  0.15294330000E+03 0.  0.
<mgrwt>
<rscale>  0 0.94627676E+03</rscale>
<asrwt>0</asrwt>
<pdfrwt beam="1">  1        2 0.19770310E+00 0.10092823E+04</pdfrwt>
<pdfrwt beam="2">  1       -2 0.10376549E+00 0.10092823E+04</pdfrwt>
<totfact> 0.12669643E+01</totfact>
</mgrwt>
</event>
<event>
 4    1  0.5223852E-007  0.9215273E+03  0.7818608E-02  0.9492321E-01
          2   -1    0    0  501    0  0.00000000000E+00  0.00000000000E+00  0.22370759731E+04  0.22370759731E+04  0.25500000000E-02 0. -1.
         -2   -1    0    0    0  501 -0.00000000000E+00 -0.00000000000E+00 -0.33715218718E+03  0.33715218719E+03  0.25500000000E-02 0.  1.
    8880023    1    1    2    0    0 -0.21443551329E+03  0.60779904566E+03  0.16014771305E+04  0.18476854372E+04  0.65864270000E+03 0. -1.
    8880022    1    1    2    0    0  0.21443551329E+03 -0.60779904566E+03  0.29844665544E+03  0.72654272305E+03  0.15294330000E+03 0.  0.
<mgrwt>
<rscale>  0 0.84852318E+03</rscale>
<asrwt>0</asrwt>
<pdfrwt beam="1">  1        2 0.34416554E+00 0.92152725E+03</pdfrwt>
<pdfrwt beam="2">  1       -2 0.51869567E-01 0.92152725E+03</pdfrwt>
<totfact> 0.17557949E+01</totfact>
</mgrwt>
</event>
<event>
 4    1  0.5223852E-007  0.6859248E+03  0.7818608E-02  0.1006153E+00
          2   -1    0    0  501    0  0.00000000000E+00  0.00000000000E+00  0.78887042435E+03  0.78887042436E+03  0.25500000000E-02 0. -1.
         -2   -1    0    0    0  501 -0.00000000000E+00 -0.00000000000E+00 -0.34130034054E+03  0.34130034055E+03  0.25500000000E-02 0.  1.
    8880023    1    1    2    0    0 -0.18377706910E+03  0.53931083441E+02  0.83082668955E+02  0.69093813691E+03  0.65864270000E+03 0.  0.
    8880022    1    1    2    0    0  0.18377706910E+03 -0.53931083441E+02  0.36448741486E+03  0.43923262800E+03  0.15294330000E+03 0.  0.
<mgrwt>
<rscale>  0 0.53032657E+03</rscale>
<asrwt>0</asrwt>
<pdfrwt beam="1">  1        2 0.12136468E+00 0.68592476E+03</pdfrwt>
<pdfrwt beam="2">  1       -2 0.52507745E-01 0.68592476E+03</pdfrwt>
<totfact> 0.12201099E+02</totfact>
</mgrwt>
</event>
<event>
 4    1  0.5223852E-007  0.8976724E+03  0.7818608E-02  0.9529779E-01
          2   -1    0    0  501    0  0.00000000000E+00  0.00000000000E+00  0.38723716843E+04  0.38723716843E+04  0.25500000000E-02 0. -1.
         -2   -1    0    0    0  501 -0.00000000000E+00 -0.00000000000E+00 -0.50302751366E+03  0.50302751366E+03  0.25500000000E-02 0.  1.
    8880023    1    1    2    0    0 -0.26898999521E+03 -0.54740284935E+03 -0.49667227978E+02  0.89904534746E+03  0.65864270000E+03 0.  0.
    8880022    1    1    2    0    0  0.26898999521E+03  0.54740284935E+03  0.34190113986E+04  0.34763538505E+04  0.15294330000E+03 0.  0.
<mgrwt>
<rscale>  0 0.82123526E+03</rscale>
<asrwt>0</asrwt>
<pdfrwt beam="1">  1        2 0.59574950E+00 0.89767238E+03</pdfrwt>
<pdfrwt beam="2">  1       -2 0.77388847E-01 0.89767238E+03</pdfrwt>
<totfact> 0.68809084E-01</totfact>
</mgrwt>
</event>
<event>
 4    1  0.5223852E-007  0.7336748E+03  0.7818608E-02  0.9878770E-01
          2   -1    0    0  501    0  0.00000000000E+00  0.00000000000E+00  0.23719862684E+04  0.23719862684E+04  0.25500000000E-02 0. -1.
         -2   -1    0    0    0  501 -0.00000000000E+00 -0.00000000000E+00 -0.20663075042E+03  0.20663075044E+03  0.25500000000E-02 0.  1.
    8880023    1    1    2    0    0 -0.31499353303E+03  0.72440205821E+02  0.53117547499E+03  0.90577375804E+03  0.65864270000E+03 0.  1.
    8880022    1    1    2    0    0  0.31499353303E+03 -0.72440205821E+02  0.16341800430E+04  0.16728432608E+04  0.15294330000E+03 0.  0.
<mgrwt>
<rscale>  0 0.61301289E+03</rscale>
<asrwt>0</asrwt>
<pdfrwt beam="1">  1        2 0.36492101E+00 0.73367480E+03</pdfrwt>
<pdfrwt beam="2">  1       -2 0.31789342E-01 0.73367480E+03</pdfrwt>
<totfact> 0.39499306E+01</totfact>
</mgrwt>
</event>
<event>
 4    1  0.5223852E-007  0.7520138E+03  0.7818608E-02  0.9826240E-01
          2   -1    0    0  501    0  0.00000000000E+00  0.00000000000E+00  0.10715017028E+04  0.10715017029E+04  0.25500000000E-02 0. -1.
         -2   -1    0    0    0  501 -0.00000000000E+00 -0.00000000000E+00 -0.33619812006E+03  0.33619812007E+03  0.25500000000E-02 0.  1.
    8880023    1    1    2    0    0  0.13257389974E+03 -0.33784425846E+03  0.27216395428E+03  0.79974871437E+03  0.65864270000E+03 0.  0.
    8880022    1    1    2    0    0 -0.13257389974E+03  0.33784425846E+03  0.46313962851E+03  0.60795110854E+03  0.15294330000E+03 0.  0.
<mgrwt>
<rscale>  0 0.63973192E+03</rscale>
<asrwt>0</asrwt>
<pdfrwt beam="1">  1        2 0.16484641E+00 0.75201382E+03</pdfrwt>
<pdfrwt beam="2">  1       -2 0.51722788E-01 0.75201382E+03</pdfrwt>
<totfact> 0.81292363E+01</totfact>
</mgrwt>
</event>
<event>
 4    1  0.5223852E-007  0.9929086E+03  0.7818608E-02  0.9390895E-01
          2   -1    0    0  501    0  0.00000000000E+00  0.00000000000E+00  0.21136334884E+04  0.21136334884E+04  0.25500000000E-02 0. -1.
         -2   -1    0    0    0  501 -0.00000000000E+00 -0.00000000000E+00 -0.44304212949E+03  0.44304212949E+03  0.25500000000E-02 0.  1.
    8880023    1    1    2    0    0  0.21350120827E+03 -0.71167022601E+03  0.38695652941E+03  0.10656466762E+04  0.65864270000E+03 0. -1.
    8880022    1    1    2    0    0 -0.21350120827E+03  0.71167022601E+03  0.12836348295E+04  0.14910289417E+04  0.15294330000E+03 0.  0.
<mgrwt>
<rscale>  0 0.92828814E+03</rscale>
<asrwt>0</asrwt>
<pdfrwt beam="1">  1        2 0.32517439E+00 0.99290860E+03</pdfrwt>
<pdfrwt beam="2">  1       -2 0.68160326E-01 0.99290860E+03</pdfrwt>
<totfact> 0.11436754E+01</totfact>
</mgrwt>
</event>
<event>
 4    1  0.5223852E-007  0.7432086E+03  0.7818608E-02  0.9850697E-01
         -2   -1    0    0    0  501 -0.00000000000E+00  0.00000000000E+00  0.56314904725E+03  0.56314904726E+03  0.25500000000E-02 0.  1.
          2   -1    0    0  501    0  0.00000000000E+00 -0.00000000000E+00 -0.23725513766E+04  0.23725513766E+04  0.25500000000E-02 0. -1.
    8880023    1    1    2    0    0 -0.16223437793E+03 -0.30369205820E+03  0.29368728022E+03  0.79913158142E+03  0.65864270000E+03 0.  1.
    8880022    1    1    2    0    0  0.16223437793E+03  0.30369205820E+03 -0.21030896096E+04  0.21365688424E+04  0.15294330000E+03 0.  0.
<mgrwt>
<rscale>  0 0.62711379E+03</rscale>
<asrwt>0</asrwt>
<pdfrwt beam="1">  1        2 0.36500790E+00 0.74320863E+03</pdfrwt>
<pdfrwt beam="2">  1       -2 0.86638317E-01 0.74320863E+03</pdfrwt>
<totfact> 0.49796871E+00</totfact>
</mgrwt>
</event>
<event>
 4    1  0.5223852E-007  0.7250694E+03  0.7818608E-02  0.9905792E-01
          2   -1    0    0  501    0  0.00000000000E+00  0.00000000000E+00  0.15679240405E+04  0.15679240405E+04  0.25500000000E-02 0. -1.
         -2   -1    0    0    0  501 -0.00000000000E+00 -0.00000000000E+00 -0.18347236108E+03  0.18347236110E+03  0.25500000000E-02 0.  1.
    8880023    1    1    2    0    0  0.17756800042E+03  0.24573368691E+03  0.83913259550E+03  0.11089946613E+04  0.65864270000E+03 0. -1.
    8880022    1    1    2    0    0 -0.17756800042E+03 -0.24573368691E+03  0.54531908390E+03  0.64240174029E+03  0.15294330000E+03 0.  1.
<mgrwt>
<rscale>  0 0.59981413E+03</rscale>
<asrwt>0</asrwt>
<pdfrwt beam="1">  1        2 0.24121907E+00 0.72506941E+03</pdfrwt>
<pdfrwt beam="2">  1       -2 0.28226518E-01 0.72506941E+03</pdfrwt>
<totfact> 0.13605883E+02</totfact>
</mgrwt>
</event>
<event>
 4    1  0.5223852E-007  0.1094476E+04  0.7818608E-02  0.9267232E-01
          2   -1    0    0  501    0  0.00000000000E+00  0.00000000000E+00  0.11907307446E+04  0.11907307446E+04  0.25500000000E-02 0. -1.
         -2   -1    0    0    0  501 -0.00000000000E+00 -0.00000000000E+00 -0.10628412881E+04  0.10628412881E+04  0.25500000000E-02 0.  1.
    8880023    1    1    2    0    0  0.79625730928E+03 -0.36061213778E+03 -0.46201808527E+03  0.11879973627E+04  0.65864270000E+03 0.  1.
    8880022    1    1    2    0    0 -0.79625730928E+03  0.36061213778E+03  0.58990754180E+03  0.10655746700E+04  0.15294330000E+03 0.  0.
<mgrwt>
<rscale>  0 0.10385635E+04</rscale>
<asrwt>0</asrwt>
<pdfrwt beam="1">  1        2 0.18318935E+00 0.10944757E+04</pdfrwt>
<pdfrwt beam="2">  1       -2 0.16351404E+00 0.10944757E+04</pdfrwt>
<totfact> 0.44703454E+00</totfact>
</mgrwt>
</event>
<event>
 4    1  0.5223852E-007  0.1078228E+04  0.7818608E-02  0.9285692E-01
          2   -1    0    0  501    0  0.00000000000E+00  0.00000000000E+00  0.32829072673E+04  0.32829072673E+04  0.25500000000E-02 0. -1.
         -2   -1    0    0    0  501 -0.00000000000E+00 -0.00000000000E+00 -0.64888449257E+03  0.64888449258E+03  0.25500000000E-02 0.  1.
    8880023    1    1    2    0    0  0.73888031392E+03  0.42757657498E+03 -0.81339446592E+02  0.10812918929E+04  0.65864270000E+03 0.  0.
    8880022    1    1    2    0    0 -0.73888031392E+03 -0.42757657498E+03  0.27153622213E+04  0.28504998670E+04  0.15294330000E+03 0.  0.
<mgrwt>
<rscale>  0 0.10211078E+04</rscale>
<asrwt>0</asrwt>
<pdfrwt beam="1">  1        2 0.50506265E+00 0.10782282E+04</pdfrwt>
<pdfrwt beam="2">  1       -2 0.99828386E-01 0.10782282E+04</pdfrwt>
<totfact> 0.96160779E-01</totfact>
</mgrwt>
</event>
<event>
 4    1  0.5223852E-007  0.1132700E+04  0.7818608E-02  0.9225493E-01
          2   -1    0    0  501    0  0.00000000000E+00  0.00000000000E+00  0.33098091679E+04  0.33098091679E+04  0.25500000000E-02 0. -1.
         -2   -1    0    0    0  501 -0.00000000000E+00 -0.00000000000E+00 -0.40317250022E+03  0.40317250023E+03  0.25500000000E-02 0.  1.
    8880023    1    1    2    0    0 -0.70883701594E+03  0.58885425246E+03  0.73851402564E+03  0.13521880114E+04  0.65864270000E+03 0.  1.
    8880022    1    1    2    0    0  0.70883701594E+03 -0.58885425246E+03  0.21681226420E+04  0.23607936567E+04  0.15294330000E+03 0.  0.
<mgrwt>
<rscale>  0 0.10794127E+04</rscale>
<asrwt>0</asrwt>
<pdfrwt beam="1">  1        2 0.50920139E+00 0.11327001E+04</pdfrwt>
<pdfrwt beam="2">  1       -2 0.62026541E-01 0.11327001E+04</pdfrwt>
<totfact> 0.26774099E+00</totfact>
</mgrwt>
</event>
<event>
 4    1  0.5223852E-007  0.8543145E+03  0.7818608E-02  0.9603758E-01
         -2   -1    0    0    0  501 -0.00000000000E+00  0.00000000000E+00  0.51506073700E+03  0.51506073701E+03  0.25500000000E-02 0.  1.
          2   -1    0    0  501    0  0.00000000000E+00 -0.00000000000E+00 -0.25219455249E+04  0.25219455249E+04  0.25500000000E-02 0. -1.
    8880023    1    1    2    0    0 -0.22288691836E+03  0.49635110149E+03  0.95816939512E+02  0.85967091755E+03  0.65864270000E+03 0.  0.
    8880022    1    1    2    0    0  0.22288691836E+03 -0.49635110149E+03 -0.21027017274E+04  0.21773353444E+04  0.15294330000E+03 0.  0.
<mgrwt>
<rscale>  0 0.77047947E+03</rscale>
<asrwt>0</asrwt>
<pdfrwt beam="1">  1        2 0.38799161E+00 0.85431446E+03</pdfrwt>
<pdfrwt beam="2">  1       -2 0.79240115E-01 0.85431446E+03</pdfrwt>
<totfact> 0.49278609E+00</totfact>
</mgrwt>
</event>
<event>
 4    1  0.5223852E-007  0.1151090E+04  0.7818608E-02  0.9206198E-01
         -2   -1    0    0    0  501 -0.00000000000E+00  0.00000000000E+00  0.45690014623E+03  0.45690014624E+03  0.25500000000E-02 0.  1.
          2   -1    0    0  501    0  0.00000000000E+00 -0.00000000000E+00 -0.31679393693E+04  0.31679393693E+04  0.25500000000E-02 0. -1.
    8880023    1    1    2    0    0  0.85880371693E+03  0.39198614208E+03 -0.57979829746E+03  0.12888650945E+04  0.65864270000E+03 0.  0.
    8880022    1    1    2    0    0 -0.85880371693E+03 -0.39198614208E+03 -0.21312409256E+04  0.23359744211E+04  0.15294330000E+03 0.  0.
<mgrwt>
<rscale>  0 0.10989680E+04</rscale>
<asrwt>0</asrwt>
<pdfrwt beam="1">  1        2 0.48737527E+00 0.11510896E+04</pdfrwt>
<pdfrwt beam="2">  1       -2 0.70292332E-01 0.11510896E+04</pdfrwt>
<totfact> 0.25173793E+00</totfact>
</mgrwt>
</event>
<event>
 4    1  0.5223852E-007  0.1165617E+04  0.7818608E-02  0.9191291E-01
          2   -1    0    0  501    0  0.00000000000E+00  0.00000000000E+00  0.15982878946E+04  0.15982878946E+04  0.25500000000E-02 0. -1.
         -2   -1    0    0    0  501 -0.00000000000E+00 -0.00000000000E+00 -0.97970995345E+03  0.97970995346E+03  0.25500000000E-02 0.  1.
    8880023    1    1    2    0    0  0.25965768805E+03  0.92597587899E+03 -0.33732707090E+03  0.12134468272E+04  0.65864270000E+03 0.  0.
    8880022    1    1    2    0    0 -0.25965768805E+03 -0.92597587899E+03  0.95590501203E+03  0.13645510208E+04  0.15294330000E+03 0.  0.
<mgrwt>
<rscale>  0 0.11143768E+04</rscale>
<asrwt>0</asrwt>
<pdfrwt beam="1">  1        2 0.24589045E+00 0.11656173E+04</pdfrwt>
<pdfrwt beam="2">  1       -2 0.15072461E+00 0.11656173E+04</pdfrwt>
<totfact> 0.32246394E+00</totfact>
</mgrwt>
</event>
<event>
 4    1  0.5223852E-007  0.7273339E+03  0.7818608E-02  0.9898509E-01
          2   -1    0    0  501    0  0.00000000000E+00  0.00000000000E+00  0.22020807029E+04  0.22020807029E+04  0.25500000000E-02 0. -1.
         -2   -1    0    0    0  501 -0.00000000000E+00 -0.00000000000E+00 -0.14921077146E+03  0.14921077148E+03  0.25500000000E-02 0.  1.
    8880023    1    1    2    0    0 -0.30769402790E+03 -0.22994381331E+02  0.17404575684E+04  0.18863210517E+04  0.65864270000E+03 0.  0.
    8880022    1    1    2    0    0  0.30769402790E+03  0.22994381331E+02  0.31241236303E+03  0.46497042268E+03  0.15294330000E+03 0.  0.
<mgrwt>
<rscale>  0 0.60333583E+03</rscale>
<asrwt>0</asrwt>
<pdfrwt beam="1">  1        2 0.33878162E+00 0.72733387E+03</pdfrwt>
<pdfrwt beam="2">  1       -2 0.22955505E-01 0.72733387E+03</pdfrwt>
<totfact> 0.88981699E+01</totfact>
</mgrwt>
</event>
<event>
 4    1  0.5223852E-007  0.7269305E+03  0.7818608E-02  0.9899797E-01
          2   -1    0    0  501    0  0.00000000000E+00  0.00000000000E+00  0.13449381498E+04  0.13449381498E+04  0.25500000000E-02 0. -1.
         -2   -1    0    0    0  501 -0.00000000000E+00 -0.00000000000E+00 -0.22826496782E+03  0.22826496783E+03  0.25500000000E-02 0.  1.
    8880023    1    1    2    0    0  0.71278166677E+02  0.29922763050E+03  0.93580735908E+03  0.11849739961E+04  0.65864270000E+03 0. -1.
    8880022    1    1    2    0    0 -0.71278166677E+02 -0.29922763050E+03  0.18086582292E+03  0.38822912154E+03  0.15294330000E+03 0.  0.
<mgrwt>
<rscale>  0 0.60271118E+03</rscale>
<asrwt>0</asrwt>
<pdfrwt beam="1">  1        2 0.20691356E+00 0.72693050E+03</pdfrwt>
<pdfrwt beam="2">  1       -2 0.35117687E-01 0.72693050E+03</pdfrwt>
<totfact> 0.12054577E+02</totfact>
</mgrwt>
</event>
<event>
 4    1  0.5223852E-007  0.6963088E+03  0.7818608E-02  0.1001287E+00
         -2   -1    0    0    0  501 -0.00000000000E+00  0.00000000000E+00  0.49672136215E+03  0.49672136216E+03  0.25500000000E-02 0.  1.
          2   -1    0    0  501    0  0.00000000000E+00 -0.00000000000E+00 -0.10224139647E+04  0.10224139647E+04  0.25500000000E-02 0. -1.
    8880023    1    1    2    0    0 -0.48736955229E+02  0.22059124230E+03  0.21585259610E+03  0.72899817318E+03  0.65864270000E+03 0.  1.
    8880022    1    1    2    0    0  0.48736955229E+02 -0.22059124230E+03 -0.74154519865E+03  0.79013715369E+03  0.15294330000E+03 0.  0.
<mgrwt>
<rscale>  0 0.55089403E+03</rscale>
<asrwt>0</asrwt>
<pdfrwt beam="1">  1        2 0.15729446E+00 0.69630883E+03</pdfrwt>
<pdfrwt beam="2">  1       -2 0.76418671E-01 0.69630883E+03</pdfrwt>
<totfact> 0.38124214E+01</totfact>
</mgrwt>
</event>
<event>
 4    1  0.5223852E-007  0.1096862E+04  0.7818608E-02  0.9264558E-01
         -2   -1    0    0    0  501 -0.00000000000E+00  0.00000000000E+00  0.10317375128E+04  0.10317375128E+04  0.25500000000E-02 0.  1.
          2   -1    0    0  501    0  0.00000000000E+00 -0.00000000000E+00 -0.21822389253E+04  0.21822389253E+04  0.25500000000E-02 0. -1.
    8880023    1    1    2    0    0  0.87704856095E+03  0.90225795682E+01  0.59987176076E+03  0.12501807553E+04  0.65864270000E+03 0.  1.
    8880022    1    1    2    0    0 -0.87704856095E+03 -0.90225795682E+01 -0.17503731732E+04  0.19637956828E+04  0.15294330000E+03 0.  0.
<mgrwt>
<rscale>  0 0.10411221E+04</rscale>
<asrwt>0</asrwt>
<pdfrwt beam="1">  1        2 0.33572906E+00 0.10968618E+04</pdfrwt>
<pdfrwt beam="2">  1       -2 0.15872885E+00 0.10968618E+04</pdfrwt>
<totfact> 0.13422320E+00</totfact>
</mgrwt>
</event>
<event>
 4    1  0.5223852E-007  0.7291661E+03  0.7818608E-02  0.9892710E-01
          2   -1    0    0  501    0  0.00000000000E+00  0.00000000000E+00  0.17143080935E+04  0.17143080935E+04  0.25500000000E-02 0. -1.
         -2   -1    0    0    0  501 -0.00000000000E+00 -0.00000000000E+00 -0.17439696497E+03  0.17439696499E+03  0.25500000000E-02 0.  1.
    8880023    1    1    2    0    0  0.20831301644E+02  0.31215229230E+03  0.88255296585E+03  0.11448069446E+04  0.65864270000E+03 0.  1.
    8880022    1    1    2    0    0 -0.20831301644E+02 -0.31215229230E+03  0.65735816268E+03  0.74389811384E+03  0.15294330000E+03 0. -1.
<mgrwt>
<rscale>  0 0.60615910E+03</rscale>
<asrwt>0</asrwt>
<pdfrwt beam="1">  1        2 0.26373971E+00 0.72916610E+03</pdfrwt>
<pdfrwt beam="2">  1       -2 0.26830301E-01 0.72916610E+03</pdfrwt>
<totfact> 0.12402975E+02</totfact>
</mgrwt>
</event>
<event>
 4    1  0.5223852E-007  0.8650772E+03  0.7818608E-02  0.9584595E-01
         -2   -1    0    0    0  501 -0.00000000000E+00  0.00000000000E+00  0.94609371176E+03  0.94609371176E+03  0.25500000000E-02 0.  1.
          2   -1    0    0  501    0  0.00000000000E+00 -0.00000000000E+00 -0.10875060152E+04  0.10875060152E+04  0.25500000000E-02 0. -1.
    8880023    1    1    2    0    0 -0.56084333657E+03 -0.17450898537E+01  0.62819985096E+03  0.10691087655E+04  0.65864270000E+03 0.  1.
    8880022    1    1    2    0    0  0.56084333657E+03  0.17450898537E+01 -0.76961215441E+03  0.96449096146E+03  0.15294330000E+03 0.  0.
<mgrwt>
<rscale>  0 0.78324220E+03</rscale>
<asrwt>0</asrwt>
<pdfrwt beam="1">  1        2 0.16730862E+00 0.86507716E+03</pdfrwt>
<pdfrwt beam="2">  1       -2 0.14555288E+00 0.86507716E+03</pdfrwt>
<totfact> 0.72329498E+00</totfact>
</mgrwt>
</event>
<event>
 4    1  0.5223852E-007  0.1647276E+04  0.7818608E-02  0.8812083E-01
         -2   -1    0    0    0  501 -0.00000000000E+00  0.00000000000E+00  0.18615481366E+04  0.18615481366E+04  0.25500000000E-02 0.  1.
          2   -1    0    0  501    0  0.00000000000E+00 -0.00000000000E+00 -0.27259107898E+04  0.27259107898E+04  0.25500000000E-02 0. -1.
    8880023    1    1    2    0    0  0.62583008395E+03 -0.13740616021E+04 -0.20727011728E+04  0.26475666070E+04  0.65864270000E+03 0.  0.
    8880022    1    1    2    0    0 -0.62583008395E+03  0.13740616021E+04  0.12083385196E+04  0.19398923195E+04  0.15294330000E+03 0.  0.
<mgrwt>
<rscale>  0 0.16138528E+04</rscale>
<asrwt>0</asrwt>
<pdfrwt beam="1">  1        2 0.41937089E+00 0.16472762E+04</pdfrwt>
<pdfrwt beam="2">  1       -2 0.28639202E+00 0.16472762E+04</pdfrwt>
<totfact> 0.90891455E-02</totfact>
</mgrwt>
</event>
<event>
 4    1  0.5223852E-007  0.7088031E+03  0.7818608E-02  0.9962473E-01
          2   -1    0    0  501    0  0.00000000000E+00  0.00000000000E+00  0.17509294350E+04  0.17509294350E+04  0.25500000000E-02 0. -1.
         -2   -1    0    0    0  501 -0.00000000000E+00 -0.00000000000E+00 -0.18706816761E+03  0.18706816763E+03  0.25500000000E-02 0.  1.
    8880023    1    1    2    0    0 -0.13247810152E+03  0.22592287640E+03  0.60362016175E+03  0.93099897927E+03  0.65864270000E+03 0.  0.
    8880022    1    1    2    0    0  0.13247810152E+03 -0.22592287640E+03  0.96024110565E+03  0.10069986234E+04  0.15294330000E+03 0.  0.
<mgrwt>
<rscale>  0 0.57326811E+03</rscale>
<asrwt>0</asrwt>
<pdfrwt beam="1">  1        2 0.26937376E+00 0.70880308E+03</pdfrwt>
<pdfrwt beam="2">  1       -2 0.28779718E-01 0.70880308E+03</pdfrwt>
<totfact> 0.10437365E+02</totfact>
</mgrwt>
</event>
<event>
 4    1  0.5223852E-007  0.7505914E+03  0.7818608E-02  0.9830104E-01
         -2   -1    0    0    0  501 -0.00000000000E+00  0.00000000000E+00  0.10643061889E+04  0.10643061889E+04  0.25500000000E-02 0.  1.
          2   -1    0    0  501    0  0.00000000000E+00 -0.00000000000E+00 -0.87196971339E+03  0.87196971339E+03  0.25500000000E-02 0. -1.
    8880023    1    1    2    0    0 -0.22303053321E+03 -0.28255034494E+03  0.87296019686E+03  0.11512806034E+04  0.65864270000E+03 0.  1.
    8880022    1    1    2    0    0  0.22303053321E+03  0.28255034494E+03 -0.68062372137E+03  0.78499529889E+03  0.15294330000E+03 0.  0.
<mgrwt>
<rscale>  0 0.63771719E+03</rscale>
<asrwt>0</asrwt>
<pdfrwt beam="1">  1        2 0.13414919E+00 0.75059145E+03</pdfrwt>
<pdfrwt beam="2">  1       -2 0.16373941E+00 0.75059145E+03</pdfrwt>
<totfact> 0.73763878E+00</totfact>
</mgrwt>
</event>
<event>
 4    1  0.5223852E-007  0.8122873E+03  0.7818608E-02  0.9684832E-01
         -2   -1    0    0    0  501 -0.00000000000E+00  0.00000000000E+00  0.78296445626E+03  0.78296445626E+03  0.25500000000E-02 0.  1.
          2   -1    0    0  501    0  0.00000000000E+00 -0.00000000000E+00 -0.91799683725E+03  0.91799683726E+03  0.25500000000E-02 0. -1.
    8880023    1    1    2    0    0 -0.27553982999E+03 -0.38739933120E+03 -0.60684552705E+03  0.10139389231E+04  0.65864270000E+03 0. -1.
    8880022    1    1    2    0    0  0.27553982999E+03  0.38739933120E+03  0.47181314605E+03  0.68702237046E+03  0.15294330000E+03 0.  0.
<mgrwt>
<rscale>  0 0.71927105E+03</rscale>
<asrwt>0</asrwt>
<pdfrwt beam="1">  1        2 0.14123028E+00 0.81228729E+03</pdfrwt>
<pdfrwt beam="2">  1       -2 0.12045607E+00 0.81228729E+03</pdfrwt>
<totfact> 0.15140331E+01</totfact>
</mgrwt>
</event>
<event>
 4    1  0.5223852E-007  0.7435014E+03  0.7818608E-02  0.9849863E-01
          2   -1    0    0  501    0  0.00000000000E+00  0.00000000000E+00  0.16525254061E+04  0.16525254061E+04  0.25500000000E-02 0. -1.
         -2   -1    0    0    0  501 -0.00000000000E+00 -0.00000000000E+00 -0.29390590548E+03  0.29390590549E+03  0.25500000000E-02 0.  1.
    8880023    1    1    2    0    0  0.34422141894E+03  0.22264211683E+02  0.26461932356E+03  0.78918798334E+03  0.65864270000E+03 0.  0.
    8880022    1    1    2    0    0 -0.34422141894E+03 -0.22264211683E+02  0.10940001771E+04  0.11572433283E+04  0.15294330000E+03 0.  0.
<mgrwt>
<rscale>  0 0.62753915E+03</rscale>
<asrwt>0</asrwt>
<pdfrwt beam="1">  1        2 0.25423467E+00 0.74350137E+03</pdfrwt>
<pdfrwt beam="2">  1       -2 0.45216295E-01 0.74350137E+03</pdfrwt>
<totfact> 0.49544213E+01</totfact>
</mgrwt>
</event>
<event>
 4    1  0.5223852E-007  0.1028737E+04  0.7818608E-02  0.9344890E-01
          2   -1    0    0  501    0  0.00000000000E+00  0.00000000000E+00  0.11320582080E+04  0.11320582080E+04  0.25500000000E-02 0. -1.
         -2   -1    0    0    0  501 -0.00000000000E+00 -0.00000000000E+00 -0.13220768357E+04  0.13220768357E+04  0.25500000000E-02 0.  1.
    8880023    1    1    2    0    0 -0.69854591896E+01 -0.79021549665E+03 -0.91055656583E+03  0.13738314284E+04  0.65864270000E+03 0.  0.
    8880022    1    1    2    0    0  0.69854591896E+01  0.79021549665E+03  0.72053793816E+03  0.10803036153E+04  0.15294330000E+03 0.  0.
<mgrwt>
<rscale>  0 0.96753154E+03</rscale>
<asrwt>0</asrwt>
<pdfrwt beam="1">  1        2 0.17416280E+00 0.10287369E+04</pdfrwt>
<pdfrwt beam="2">  1       -2 0.20339644E+00 0.10287369E+04</pdfrwt>
<totfact> 0.26020952E+00</totfact>
</mgrwt>
</event>
<event>
 4    1  0.5223852E-007  0.6790253E+03  0.7818608E-02  0.1009880E+00
         -2   -1    0    0    0  501 -0.00000000000E+00  0.00000000000E+00  0.85344903164E+03  0.85344903164E+03  0.25500000000E-02 0.  1.
          2   -1    0    0  501    0  0.00000000000E+00 -0.00000000000E+00 -0.41337035807E+03  0.41337035808E+03  0.25500000000E-02 0. -1.
    8880023    1    1    2    0    0  0.34653726876E+01 -0.16508526333E+03  0.66372320512E+03  0.94952822615E+03  0.65864270000E+03 0.  1.
    8880022    1    1    2    0    0 -0.34653726876E+01  0.16508526333E+03 -0.22364453155E+03  0.31729116358E+03  0.15294330000E+03 0.  0.
<mgrwt>
<rscale>  0 0.51522176E+03</rscale>
<asrwt>0</asrwt>
<pdfrwt beam="1">  1        2 0.63595440E-01 0.67902530E+03</pdfrwt>
<pdfrwt beam="2">  1       -2 0.13129985E+00 0.67902530E+03</pdfrwt>
<totfact> 0.33007516E+01</totfact>
</mgrwt>
</event>
<event>
 4    1  0.5223852E-007  0.8915727E+03  0.7818608E-02  0.9539698E-01
          2   -1    0    0  501    0  0.00000000000E+00  0.00000000000E+00  0.16983805067E+04  0.16983805067E+04  0.25500000000E-02 0. -1.
         -2   -1    0    0    0  501 -0.00000000000E+00 -0.00000000000E+00 -0.38794227874E+03  0.38794227875E+03  0.25500000000E-02 0.  1.
    8880023    1    1    2    0    0  0.54364337804E+03 -0.25601463425E+03  0.38222399599E+03  0.97005000119E+03  0.65864270000E+03 0.  0.
    8880022    1    1    2    0    0 -0.54364337804E+03  0.25601463425E+03  0.92821423192E+03  0.11162727842E+04  0.15294330000E+03 0.  0.
<mgrwt>
<rscale>  0 0.81419277E+03</rscale>
<asrwt>0</asrwt>
<pdfrwt beam="1">  1        2 0.26128931E+00 0.89157267E+03</pdfrwt>
<pdfrwt beam="2">  1       -2 0.59683428E-01 0.89157267E+03</pdfrwt>
<totfact> 0.26016931E+01</totfact>
</mgrwt>
</event>
<event>
 4    1  0.5223852E-007  0.6992448E+03  0.7818608E-02  0.1000035E+00
         -2   -1    0    0    0  501 -0.00000000000E+00  0.00000000000E+00  0.26436783028E+03  0.26436783029E+03  0.25500000000E-02 0.  1.
          2   -1    0    0  501    0  0.00000000000E+00 -0.00000000000E+00 -0.15770835427E+04  0.15770835427E+04  0.25500000000E-02 0. -1.
    8880023    1    1    2    0    0 -0.85923958619E+02 -0.21851797972E+03 -0.25028737168E+03  0.74268903911E+03  0.65864270000E+03 0.  1.
    8880022    1    1    2    0    0  0.85923958619E+02  0.21851797972E+03 -0.10624283407E+04  0.10987623339E+04  0.15294330000E+03 0.  0.
<mgrwt>
<rscale>  0 0.55634949E+03</rscale>
<asrwt>0</asrwt>
<pdfrwt beam="1">  1        2 0.24262823E+00 0.69924476E+03</pdfrwt>
<pdfrwt beam="2">  1       -2 0.40671975E-01 0.69924476E+03</pdfrwt>
<totfact> 0.67516284E+01</totfact>
</mgrwt>
</event>
<event>
 4    1  0.5223852E-007  0.9001328E+03  0.7818608E-02  0.9525818E-01
         -2   -1    0    0    0  501 -0.00000000000E+00  0.00000000000E+00  0.38839322089E+03  0.38839322090E+03  0.25500000000E-02 0.  1.
          2   -1    0    0  501    0  0.00000000000E+00 -0.00000000000E+00 -0.15290629258E+04  0.15290629258E+04  0.25500000000E-02 0. -1.
    8880023    1    1    2    0    0 -0.86280622938E+02 -0.60744101940E+03 -0.56799529647E+03  0.10643579290E+04  0.65864270000E+03 0.  0.
    8880022    1    1    2    0    0  0.86280622938E+02  0.60744101940E+03 -0.57267440842E+03  0.85309821769E+03  0.15294330000E+03 0.  1.
<mgrwt>
<rscale>  0 0.82406810E+03</rscale>
<asrwt>0</asrwt>
<pdfrwt beam="1">  1        2 0.23524045E+00 0.90013285E+03</pdfrwt>
<pdfrwt beam="2">  1       -2 0.59752804E-01 0.90013285E+03</pdfrwt>
<totfact> 0.32183314E+01</totfact>
</mgrwt>
</event>
<event>
 4    1  0.5223852E-007  0.7492283E+03  0.7818608E-02  0.9833838E-01
          2   -1    0    0  501    0  0.00000000000E+00  0.00000000000E+00  0.12070244202E+04  0.12070244202E+04  0.25500000000E-02 0. -1.
         -2   -1    0    0    0  501 -0.00000000000E+00 -0.00000000000E+00 -0.56796549681E+03  0.56796549682E+03  0.25500000000E-02 0.  1.
    8880023    1    1    2    0    0  0.28086111063E+03 -0.22056715823E+03 -0.26202629207E+03  0.79372590908E+03  0.65864270000E+03 0.  0.
    8880022    1    1    2    0    0 -0.28086111063E+03  0.22056715823E+03  0.90108521549E+03  0.98126400797E+03  0.15294330000E+03 0.  0.
<mgrwt>
<rscale>  0 0.63577814E+03</rscale>
<asrwt>0</asrwt>
<pdfrwt beam="1">  1        2 0.18569606E+00 0.74922830E+03</pdfrwt>
<pdfrwt beam="2">  1       -2 0.87379308E-01 0.74922830E+03</pdfrwt>
<totfact> 0.21627446E+01</totfact>
</mgrwt>
</event>
<event>
 4    1  0.5223852E-007  0.6858977E+03  0.7818608E-02  0.1006167E+00
         -2   -1    0    0    0  501 -0.00000000000E+00  0.00000000000E+00  0.12200935781E+03  0.12200935783E+03  0.25500000000E-02 0.  1.
          2   -1    0    0  501    0  0.00000000000E+00 -0.00000000000E+00 -0.21634225088E+04  0.21634225088E+04  0.25500000000E-02 0. -1.
    8880023    1    1    2    0    0  0.18822383733E+03  0.34888426660E+02 -0.98051384906E+03  0.11966047926E+04  0.65864270000E+03 0.  0.
    8880022    1    1    2    0    0 -0.18822383733E+03 -0.34888426660E+02 -0.10608993020E+04  0.10888270741E+04  0.15294330000E+03 0.  0.
<mgrwt>
<rscale>  0 0.53026985E+03</rscale>
<asrwt>0</asrwt>
<pdfrwt beam="1">  1        2 0.33283420E+00 0.68589768E+03</pdfrwt>
<pdfrwt beam="2">  1       -2 0.18770672E-01 0.68589768E+03</pdfrwt>
<totfact> 0.13372466E+02</totfact>
</mgrwt>
</event>
<event>
 4    1  0.5223852E-007  0.7723628E+03  0.7818608E-02  0.9774093E-01
         -2   -1    0    0    0  501 -0.00000000000E+00  0.00000000000E+00  0.56112423705E+03  0.56112423706E+03  0.25500000000E-02 0.  1.
          2   -1    0    0  501    0  0.00000000000E+00 -0.00000000000E+00 -0.31008687429E+04  0.31008687429E+04  0.25500000000E-02 0. -1.
    8880023    1    1    2    0    0 -0.83360105117E+02 -0.39469634288E+03  0.27085237717E+03  0.81847744421E+03  0.65864270000E+03 0.  1.
    8880022    1    1    2    0    0  0.83360105117E+02  0.39469634288E+03 -0.28105968830E+04  0.28435155357E+04  0.15294330000E+03 0.  0.
<mgrwt>
<rscale>  0 0.66771607E+03</rscale>
<asrwt>0</asrwt>
<pdfrwt beam="1">  1        2 0.47705672E+00 0.77236281E+03</pdfrwt>
<pdfrwt beam="2">  1       -2 0.86326808E-01 0.77236281E+03</pdfrwt>
<totfact> 0.18639526E+00</totfact>
</mgrwt>
</event>
<event>
 4    1  0.5223852E-007  0.8094579E+03  0.7818608E-02  0.9690707E-01
          2   -1    0    0  501    0  0.00000000000E+00  0.00000000000E+00  0.14783751287E+04  0.14783751287E+04  0.25500000000E-02 0. -1.
         -2   -1    0    0    0  501 -0.00000000000E+00 -0.00000000000E+00 -0.63570520097E+03  0.63570520097E+03  0.25500000000E-02 0.  1.
    8880023    1    1    2    0    0 -0.73170074427E+02 -0.46482041868E+03  0.12391084915E+04  0.14800716001E+04  0.65864270000E+03 0.  1.
    8880022    1    1    2    0    0  0.73170074427E+02  0.46482041868E+03 -0.39643856373E+03  0.63400872962E+03  0.15294330000E+03 0.  0.
<mgrwt>
<rscale>  0 0.71572784E+03</rscale>
<asrwt>0</asrwt>
<pdfrwt beam="1">  1        2 0.22744233E+00 0.80945790E+03</pdfrwt>
<pdfrwt beam="2">  1       -2 0.97800800E-01 0.80945790E+03</pdfrwt>
<totfact> 0.11553512E+01</totfact>
</mgrwt>
</event>
<event>
 4    1  0.5223852E-007  0.1626996E+04  0.7818608E-02  0.8824804E-01
         -2   -1    0    0    0  501 -0.00000000000E+00  0.00000000000E+00  0.19231016588E+04  0.19231016588E+04  0.25500000000E-02 0.  1.
          2   -1    0    0  501    0  0.00000000000E+00 -0.00000000000E+00 -0.18326262654E+04  0.18326262654E+04  0.25500000000E-02 0. -1.
    8880023    1    1    2    0    0  0.89557943570E+03 -0.11879570852E+04 -0.99557701145E+03  0.19074297769E+04  0.65864270000E+03 0.  0.
    8880022    1    1    2    0    0 -0.89557943570E+03  0.11879570852E+04  0.10860524049E+04  0.18482981473E+04  0.15294330000E+03 0.  0.
<mgrwt>
<rscale>  0 0.15930913E+04</rscale>
<asrwt>0</asrwt>
<pdfrwt beam="1">  1        2 0.28194250E+00 0.16269956E+04</pdfrwt>
<pdfrwt beam="2">  1       -2 0.29586179E+00 0.16269956E+04</pdfrwt>
<totfact> 0.25807103E-01</totfact>
</mgrwt>
</event>
<event>
 4    1  0.5223852E-007  0.8766622E+03  0.7818608E-02  0.9564585E-01
         -2   -1    0    0    0  501 -0.00000000000E+00  0.00000000000E+00  0.48001785447E+03  0.48001785447E+03  0.25500000000E-02 0.  1.
          2   -1    0    0  501    0  0.00000000000E+00 -0.00000000000E+00 -0.16439756320E+04  0.16439756320E+04  0.25500000000E-02 0. -1.
    8880023    1    1    2    0    0 -0.38836956685E+03 -0.42883042365E+03 -0.12422809866E+04  0.15204600319E+04  0.65864270000E+03 0. -1.
    8880022    1    1    2    0    0  0.38836956685E+03  0.42883042365E+03  0.78323209062E+02  0.60353345457E+03  0.15294330000E+03 0.  0.
<mgrwt>
<rscale>  0 0.79685170E+03</rscale>
<asrwt>0</asrwt>
<pdfrwt beam="1">  1        2 0.25291932E+00 0.87666223E+03</pdfrwt>
<pdfrwt beam="2">  1       -2 0.73848902E-01 0.87666223E+03</pdfrwt>
<totfact> 0.17613098E+01</totfact>
</mgrwt>
</event>
<event>
 4    1  0.5223852E-007  0.9928697E+03  0.7818608E-02  0.9390946E-01
          2   -1    0    0  501    0  0.00000000000E+00  0.00000000000E+00  0.34610310990E+04  0.34610310990E+04  0.25500000000E-02 0. -1.
         -2   -1    0    0    0  501 -0.00000000000E+00 -0.00000000000E+00 -0.31277613660E+03  0.31277613661E+03  0.25500000000E-02 0.  1.
    8880023    1    1    2    0    0 -0.68266459579E+03 -0.29317062701E+03  0.71086411602E+03  0.12211134118E+04  0.65864270000E+03 0.  0.
    8880022    1    1    2    0    0  0.68266459579E+03  0.29317062701E+03  0.24373908464E+04  0.25526938238E+04  0.15294330000E+03 0.  0.
<mgrwt>
<rscale>  0 0.92824525E+03</rscale>
<asrwt>0</asrwt>
<pdfrwt beam="1">  1        2 0.53246633E+00 0.99286967E+03</pdfrwt>
<pdfrwt beam="2">  1       -2 0.48119405E-01 0.99286967E+03</pdfrwt>
<totfact> 0.36724381E+00</totfact>
</mgrwt>
</event>
<event>
 4    1  0.5223852E-007  0.7182586E+03  0.7818608E-02  0.9928523E-01
         -2   -1    0    0    0  501 -0.00000000000E+00  0.00000000000E+00  0.47901199587E+03  0.47901199587E+03  0.25500000000E-02 0.  1.
          2   -1    0    0  501    0  0.00000000000E+00 -0.00000000000E+00 -0.19765531233E+04  0.19765531233E+04  0.25500000000E-02 0. -1.
    8880023    1    1    2    0    0  0.26976406501E+03 -0.96501895281E+02  0.18521522982E+03  0.74175478036E+03  0.65864270000E+03 0.  1.
    8880022    1    1    2    0    0 -0.26976406501E+03  0.96501895281E+02 -0.16827563573E+04  0.17138103388E+04  0.15294330000E+03 0.  0.
<mgrwt>
<rscale>  0 0.58898648E+03</rscale>
<asrwt>0</asrwt>
<pdfrwt beam="1">  1        2 0.30408509E+00 0.71825864E+03</pdfrwt>
<pdfrwt beam="2">  1       -2 0.73694154E-01 0.71825864E+03</pdfrwt>
<totfact> 0.11882220E+01</totfact>
</mgrwt>
</event>
<event>
 4    1  0.5223852E-007  0.7462785E+03  0.7818608E-02  0.9842022E-01
         -2   -1    0    0    0  501 -0.00000000000E+00  0.00000000000E+00  0.33829076200E+03  0.33829076201E+03  0.25500000000E-02 0.  1.
          2   -1    0    0  501    0  0.00000000000E+00 -0.00000000000E+00 -0.16918682965E+04  0.16918682965E+04  0.25500000000E-02 0. -1.
    8880023    1    1    2    0    0 -0.13024223222E+03 -0.32581942196E+03 -0.14214667705E+03  0.75969547770E+03  0.65864270000E+03 0.  1.
    8880022    1    1    2    0    0  0.13024223222E+03  0.32581942196E+03 -0.12114308574E+04  0.12704635808E+04  0.15294330000E+03 0.  0.
<mgrwt>
<rscale>  0 0.63155357E+03</rscale>
<asrwt>0</asrwt>
<pdfrwt beam="1">  1        2 0.26028743E+00 0.74627846E+03</pdfrwt>
<pdfrwt beam="2">  1       -2 0.52044734E-01 0.74627846E+03</pdfrwt>
<totfact> 0.35457090E+01</totfact>
</mgrwt>
</event>
<event>
 4    1  0.5223852E-007  0.6651162E+03  0.7818608E-02  0.1019436E+00
         -2   -1    0    0    0  501 -0.00000000000E+00  0.00000000000E+00  0.10209595979E+03  0.10209595983E+03  0.25500000000E-02 0.  1.
          2   -1    0    0  501    0  0.00000000000E+00 -0.00000000000E+00 -0.18244007403E+04  0.18244007403E+04  0.25500000000E-02 0. -1.
    8880023    1    1    2    0    0  0.36998247057E+02  0.84855749509E+02 -0.11682944334E+04  0.13443554061E+04  0.65864270000E+03 0.  0.
    8880022    1    1    2    0    0 -0.36998247057E+02 -0.84855749509E+02 -0.55401034709E+03  0.58214129402E+03  0.15294330000E+03 0.  0.
<mgrwt>
<rscale>  0 0.47890650E+03</rscale>
<asrwt>0</asrwt>
<pdfrwt beam="1">  1        2 0.28067701E+00 0.66511621E+03</pdfrwt>
<pdfrwt beam="2">  1       -2 0.15707072E-01 0.66511621E+03</pdfrwt>
<totfact> 0.27819659E+02</totfact>
</mgrwt>
</event>
<event>
 4    1  0.5223852E-007  0.7705079E+03  0.7818608E-02  0.9778626E-01
         -2   -1    0    0    0  501 -0.00000000000E+00  0.00000000000E+00  0.33197689361E+03  0.33197689362E+03  0.25500000000E-02 0.  1.
          2   -1    0    0  501    0  0.00000000000E+00 -0.00000000000E+00 -0.19841903165E+04  0.19841903165E+04  0.25500000000E-02 0. -1.
    8880023    1    1    2    0    0 -0.11789372862E+01 -0.39983854151E+03 -0.19140798695E+03  0.79392661682E+03  0.65864270000E+03 0.  1.
    8880022    1    1    2    0    0  0.11789372862E+01  0.39983854151E+03 -0.14608054360E+04  0.15222405933E+04  0.15294330000E+03 0.  0.
<mgrwt>
<rscale>  0 0.66522329E+03</rscale>
<asrwt>0</asrwt>
<pdfrwt beam="1">  1        2 0.30526004E+00 0.77050792E+03</pdfrwt>
<pdfrwt beam="2">  1       -2 0.51073369E-01 0.77050792E+03</pdfrwt>
<totfact> 0.25446566E+01</totfact>
</mgrwt>
</event>
<event>
 4    1  0.5223852E-007  0.8765994E+03  0.7818608E-02  0.9564692E-01
          2   -1    0    0  501    0  0.00000000000E+00  0.00000000000E+00  0.11331431143E+04  0.11331431143E+04  0.25500000000E-02 0. -1.
         -2   -1    0    0    0  501 -0.00000000000E+00 -0.00000000000E+00 -0.65183938850E+03  0.65183938851E+03  0.25500000000E-02 0.  1.
    8880023    1    1    2    0    0 -0.42510915279E+03  0.39229907704E+03 -0.17817287028E+03  0.89452341255E+03  0.65864270000E+03 0.  1.
    8880022    1    1    2    0    0  0.42510915279E+03 -0.39229907704E+03  0.65947659608E+03  0.89045909026E+03  0.15294330000E+03 0.  0.
<mgrwt>
<rscale>  0 0.79677827E+03</rscale>
<asrwt>0</asrwt>
<pdfrwt beam="1">  1        2 0.17432971E+00 0.87659943E+03</pdfrwt>
<pdfrwt beam="2">  1       -2 0.10028298E+00 0.87659943E+03</pdfrwt>
<totfact> 0.17142167E+01</totfact>
</mgrwt>
</event>
<event>
 4    1  0.5223852E-007  0.8573616E+03  0.7818608E-02  0.9598274E-01
          2   -1    0    0  501    0  0.00000000000E+00  0.00000000000E+00  0.20260398392E+04  0.20260398392E+04  0.25500000000E-02 0. -1.
         -2   -1    0    0    0  501 -0.00000000000E+00 -0.00000000000E+00 -0.28215286772E+03  0.28215286773E+03  0.25500000000E-02 0.  1.
    8880023    1    1    2    0    0 -0.25995584688E+03 -0.48340634295E+03  0.65389765356E+03  0.10782629931E+04  0.65864270000E+03 0.  1.
    8880022    1    1    2    0    0  0.25995584688E+03  0.48340634295E+03  0.10899893179E+04  0.12299297138E+04  0.15294330000E+03 0.  0.
<mgrwt>
<rscale>  0 0.77410526E+03</rscale>
<asrwt>0</asrwt>
<pdfrwt beam="1">  1        2 0.31169842E+00 0.85736162E+03</pdfrwt>
<pdfrwt beam="2">  1       -2 0.43408135E-01 0.85736162E+03</pdfrwt>
<totfact> 0.33144794E+01</totfact>
</mgrwt>
</event>
<event>
 4    1  0.5223852E-007  0.7535206E+03  0.7818608E-02  0.9822180E-01
         -2   -1    0    0    0  501 -0.00000000000E+00  0.00000000000E+00  0.89065602596E+03  0.89065602597E+03  0.25500000000E-02 0.  1.
          2   -1    0    0  501    0  0.00000000000E+00 -0.00000000000E+00 -0.13922937358E+04  0.13922937358E+04  0.25500000000E-02 0. -1.
    8880023    1    1    2    0    0 -0.31211750729E+03  0.19122160851E+03  0.69326302317E+03  0.10239174124E+04  0.65864270000E+03 0.  1.
    8880022    1    1    2    0    0  0.31211750729E+03 -0.19122160851E+03 -0.11949007330E+04  0.12590323494E+04  0.15294330000E+03 0.  0.
<mgrwt>
<rscale>  0 0.64185687E+03</rscale>
<asrwt>0</asrwt>
<pdfrwt beam="1">  1        2 0.21419904E+00 0.75352057E+03</pdfrwt>
<pdfrwt beam="2">  1       -2 0.13702400E+00 0.75352057E+03</pdfrwt>
<totfact> 0.56801679E+00</totfact>
</mgrwt>
</event>
<event>
 4    1  0.5223852E-007  0.8400656E+03  0.7818608E-02  0.9630057E-01
          2   -1    0    0  501    0  0.00000000000E+00  0.00000000000E+00  0.21528055611E+04  0.21528055611E+04  0.25500000000E-02 0. -1.
         -2   -1    0    0    0  501 -0.00000000000E+00 -0.00000000000E+00 -0.68553610338E+03  0.68553610338E+03  0.25500000000E-02 0.  1.
    8880023    1    1    2    0    0 -0.51272993033E+03  0.94910234065E+02 -0.37326882314E+03  0.91926043893E+03  0.65864270000E+03 0.  1.
    8880022    1    1    2    0    0  0.51272993033E+03 -0.94910234065E+02  0.18405382809E+04  0.19190812256E+04  0.15294330000E+03 0.  0.
<mgrwt>
<rscale>  0 0.75338378E+03</rscale>
<asrwt>0</asrwt>
<pdfrwt beam="1">  1        2 0.33120086E+00 0.84006556E+03</pdfrwt>
<pdfrwt beam="2">  1       -2 0.10546709E+00 0.84006556E+03</pdfrwt>
<totfact> 0.40917556E+00</totfact>
</mgrwt>
</event>
<event>
 4    1  0.5223852E-007  0.1165271E+04  0.7818608E-02  0.9191644E-01
         -2   -1    0    0    0  501 -0.00000000000E+00  0.00000000000E+00  0.29923327134E+03  0.29923327135E+03  0.25500000000E-02 0.  1.
          2   -1    0    0  501    0  0.00000000000E+00 -0.00000000000E+00 -0.40482051561E+04  0.40482051561E+04  0.25500000000E-02 0. -1.
    8880023    1    1    2    0    0  0.70926055443E+03  0.64884162133E+03 -0.15205129281E+04  0.19156763178E+04  0.65864270000E+03 0.  0.
    8880022    1    1    2    0    0 -0.70926055443E+03 -0.64884162133E+03 -0.22284589566E+04  0.24317621097E+04  0.15294330000E+03 0.  0.
<mgrwt>
<rscale>  0 0.11140098E+04</rscale>
<asrwt>0</asrwt>
<pdfrwt beam="1">  1        2 0.62280076E+00 0.11652709E+04</pdfrwt>
<pdfrwt beam="2">  1       -2 0.46035891E-01 0.11652709E+04</pdfrwt>
<totfact> 0.14377109E+00</totfact>
</mgrwt>
</event>
<event>
 4    1  0.5223852E-007  0.8591609E+03  0.7818608E-02  0.9595058E-01
         -2   -1    0    0    0  501 -0.00000000000E+00  0.00000000000E+00  0.22669788217E+03  0.22669788218E+03  0.25500000000E-02 0.  1.
          2   -1    0    0  501    0  0.00000000000E+00 -0.00000000000E+00 -0.29386445550E+04  0.29386445550E+04  0.25500000000E-02 0. -1.
    8880023    1    1    2    0    0  0.29430078835E+03 -0.46662004444E+03 -0.81622830669E+03  0.11850679621E+04  0.65864270000E+03 0.  0.
    8880022    1    1    2    0    0 -0.29430078835E+03  0.46662004444E+03 -0.18957183662E+04  0.19802744751E+04  0.15294330000E+03 0.  0.
<mgrwt>
<rscale>  0 0.77624152E+03</rscale>
<asrwt>0</asrwt>
<pdfrwt beam="1">  1        2 0.45209914E+00 0.85916088E+03</pdfrwt>
<pdfrwt beam="2">  1       -2 0.34876599E-01 0.85916088E+03</pdfrwt>
<totfact> 0.15264374E+01</totfact>
</mgrwt>
</event>
<event>
 4    1  0.5223852E-007  0.6998998E+03  0.7818608E-02  0.9997617E-01
         -2   -1    0    0    0  501 -0.00000000000E+00  0.00000000000E+00  0.39272409676E+03  0.39272409677E+03  0.25500000000E-02 0.  1.
          2   -1    0    0  501    0  0.00000000000E+00 -0.00000000000E+00 -0.17408483084E+04  0.17408483084E+04  0.25500000000E-02 0. -1.
    8880023    1    1    2    0    0  0.18985542756E+03  0.14143700798E+03  0.55341815966E+02  0.70208434925E+03  0.65864270000E+03 0.  1.
    8880022    1    1    2    0    0 -0.18985542756E+03 -0.14143700798E+03 -0.14034660276E+04  0.14314880559E+04  0.15294330000E+03 0.  0.
<mgrwt>
<rscale>  0 0.55754843E+03</rscale>
<asrwt>0</asrwt>
<pdfrwt beam="1">  1        2 0.26782281E+00 0.69989979E+03</pdfrwt>
<pdfrwt beam="2">  1       -2 0.60419093E-01 0.69989979E+03</pdfrwt>
<totfact> 0.24579921E+01</totfact>
</mgrwt>
</event>
<event>
 4    1  0.5223852E-007  0.1084372E+04  0.7818608E-02  0.9278659E-01
         -2   -1    0    0    0  501 -0.00000000000E+00  0.00000000000E+00  0.84941728781E+03  0.84941728781E+03  0.25500000000E-02 0.  1.
          2   -1    0    0  501    0  0.00000000000E+00 -0.00000000000E+00 -0.12313994115E+04  0.12313994115E+04  0.25500000000E-02 0. -1.
    8880023    1    1    2    0    0 -0.20957260533E+03 -0.83554236552E+03 -0.50698383606E+03  0.11970357295E+04  0.65864270000E+03 0.  0.
    8880022    1    1    2    0    0  0.20957260533E+03  0.83554236552E+03  0.12500171235E+03  0.88378096980E+03  0.15294330000E+03 0.  0.
<mgrwt>
<rscale>  0 0.10277151E+04</rscale>
<asrwt>0</asrwt>
<pdfrwt beam="1">  1        2 0.18944606E+00 0.10843717E+04</pdfrwt>
<pdfrwt beam="2">  1       -2 0.13067958E+00 0.10843717E+04</pdfrwt>
<totfact> 0.76536418E+00</totfact>
</mgrwt>
</event>
<event>
 4    1  0.5223852E-007  0.8140785E+03  0.7818608E-02  0.9681143E-01
          2   -1    0    0  501    0  0.00000000000E+00  0.00000000000E+00  0.81591721014E+03  0.81591721014E+03  0.25500000000E-02 0. -1.
         -2   -1    0    0    0  501 -0.00000000000E+00 -0.00000000000E+00 -0.68583709731E+03  0.68583709731E+03  0.25500000000E-02 0.  1.
    8880023    1    1    2    0    0 -0.45595050071E+03  0.14499197527E+03 -0.27203153171E+03  0.85832679819E+03  0.65864270000E+03 0.  1.
    8880022    1    1    2    0    0  0.45595050071E+03 -0.14499197527E+03  0.40211164453E+03  0.64342750926E+03  0.15294330000E+03 0.  0.
<mgrwt>
<rscale>  0 0.72150687E+03</rscale>
<asrwt>0</asrwt>
<pdfrwt beam="1">  1        2 0.12552572E+00 0.81407846E+03</pdfrwt>
<pdfrwt beam="2">  1       -2 0.10551340E+00 0.81407846E+03</pdfrwt>
<totfact> 0.24585786E+01</totfact>
</mgrwt>
</event>
<event>
 4    1  0.5223852E-007  0.9551439E+03  0.7818608E-02  0.9442751E-01
         -2   -1    0    0    0  501 -0.00000000000E+00  0.00000000000E+00  0.14754250521E+04  0.14754250521E+04  0.25500000000E-02 0.  1.
          2   -1    0    0  501    0  0.00000000000E+00 -0.00000000000E+00 -0.88960279598E+03  0.88960279598E+03  0.25500000000E-02 0. -1.
    8880023    1    1    2    0    0 -0.66259875160E+03  0.19862662263E+03  0.11242475650E+04  0.14752058956E+04  0.65864270000E+03 0.  0.
    8880022    1    1    2    0    0  0.66259875160E+03 -0.19862662263E+03 -0.53842530887E+03  0.88982195246E+03  0.15294330000E+03 0.  0.
<mgrwt>
<rscale>  0 0.88639384E+03</rscale>
<asrwt>0</asrwt>
<pdfrwt beam="1">  1        2 0.13686197E+00 0.95514389E+03</pdfrwt>
<pdfrwt beam="2">  1       -2 0.22698847E+00 0.95514389E+03</pdfrwt>
<totfact> 0.26606858E+00</totfact>
</mgrwt>
</event>
<event>
 4    1  0.5223852E-007  0.7226873E+03  0.7818608E-02  0.9913596E-01
          2   -1    0    0  501    0  0.00000000000E+00  0.00000000000E+00  0.20673244542E+04  0.20673244542E+04  0.25500000000E-02 0. -1.
         -2   -1    0    0    0  501 -0.00000000000E+00 -0.00000000000E+00 -0.22538686662E+03  0.22538686663E+03  0.25500000000E-02 0.  1.
    8880023    1    1    2    0    0  0.29737567492E+03  0.58673788159E+01  0.42834692244E+03  0.84009404854E+03  0.65864270000E+03 0.  1.
    8880022    1    1    2    0    0 -0.29737567492E+03 -0.58673788159E+01  0.14135906651E+04  0.14526172723E+04  0.15294330000E+03 0.  0.
<mgrwt>
<rscale>  0 0.59606878E+03</rscale>
<asrwt>0</asrwt>
<pdfrwt beam="1">  1        2 0.31804991E+00 0.72268729E+03</pdfrwt>
<pdfrwt beam="2">  1       -2 0.34674904E-01 0.72268729E+03</pdfrwt>
<totfact> 0.49449590E+01</totfact>
</mgrwt>
</event>
<event>
 4    1  0.5223852E-007  0.1018574E+04  0.7818608E-02  0.9357651E-01
          2   -1    0    0  501    0  0.00000000000E+00  0.00000000000E+00  0.11549173870E+04  0.11549173870E+04  0.25500000000E-02 0. -1.
         -2   -1    0    0    0  501 -0.00000000000E+00 -0.00000000000E+00 -0.88943687006E+03  0.88943687007E+03  0.25500000000E-02 0.  1.
    8880023    1    1    2    0    0  0.60300115607E+03  0.48997192104E+03 -0.31084952709E+03  0.10649509437E+04  0.65864270000E+03 0.  0.
    8880022    1    1    2    0    0 -0.60300115607E+03 -0.48997192104E+03  0.57633004399E+03  0.97940331338E+03  0.15294330000E+03 0.  0.
<mgrwt>
<rscale>  0 0.95644356E+03</rscale>
<asrwt>0</asrwt>
<pdfrwt beam="1">  1        2 0.17767960E+00 0.10185740E+04</pdfrwt>
<pdfrwt beam="2">  1       -2 0.13683644E+00 0.10185740E+04</pdfrwt>
<totfact> 0.76066478E+00</totfact>
</mgrwt>
</event>
<event>
 4    1  0.5223852E-007  0.9033814E+03  0.7818608E-02  0.9520625E-01
          2   -1    0    0  501    0  0.00000000000E+00  0.00000000000E+00  0.14604492573E+04  0.14604492573E+04  0.25500000000E-02 0. -1.
         -2   -1    0    0    0  501 -0.00000000000E+00 -0.00000000000E+00 -0.88787734861E+03  0.88787734862E+03  0.25500000000E-02 0.  1.
    8880023    1    1    2    0    0  0.17971940657E+03  0.59159837955E+03 -0.55000844619E+03  0.10576422859E+04  0.65864270000E+03 0.  0.
    8880022    1    1    2    0    0 -0.17971940657E+03 -0.59159837955E+03  0.11225803549E+04  0.12906843200E+04  0.15294330000E+03 0.  0.
<mgrwt>
<rscale>  0 0.82780151E+03</rscale>
<asrwt>0</asrwt>
<pdfrwt beam="1">  1        2 0.22468450E+00 0.90338138E+03</pdfrwt>
<pdfrwt beam="2">  1       -2 0.13659652E+00 0.90338138E+03</pdfrwt>
<totfact> 0.51373963E+00</totfact>
</mgrwt>
</event>
<event>
 4    1  0.5223852E-007  0.6745809E+03  0.7818608E-02  0.1012572E+00
         -2   -1    0    0    0  501 -0.00000000000E+00  0.00000000000E+00  0.25267213438E+03  0.25267213439E+03  0.25500000000E-02 0.  1.
          2   -1    0    0  501    0  0.00000000000E+00 -0.00000000000E+00 -0.11948374101E+04  0.11948374101E+04  0.25500000000E-02 0. -1.
    8880023    1    1    2    0    0  0.14279297748E+03  0.29314032935E+02 -0.24283221278E+03  0.71695664916E+03  0.65864270000E+03 0.  1.
    8880022    1    1    2    0    0 -0.14279297748E+03 -0.29314032935E+02 -0.69933306294E+03  0.73055289533E+03  0.15294330000E+03 0.  0.
<mgrwt>
<rscale>  0 0.50465202E+03</rscale>
<asrwt>0</asrwt>
<pdfrwt beam="1">  1        2 0.18382114E+00 0.67458087E+03</pdfrwt>
<pdfrwt beam="2">  1       -2 0.38872637E-01 0.67458087E+03</pdfrwt>
<totfact> 0.12172594E+02</totfact>
</mgrwt>
</event>
<event>
 4    1  0.5223852E-007  0.8720446E+03  0.7818608E-02  0.9572487E-01
         -2   -1    0    0    0  501 -0.00000000000E+00  0.00000000000E+00  0.22565700634E+03  0.22565700635E+03  0.25500000000E-02 0.  1.
          2   -1    0    0  501    0  0.00000000000E+00 -0.00000000000E+00 -0.26688075557E+04  0.26688075557E+04  0.25500000000E-02 0. -1.
    8880023    1    1    2    0    0 -0.33039776198E+03  0.46635713758E+03 -0.95620697414E+03  0.12941381860E+04  0.65864270000E+03 0. -1.
    8880022    1    1    2    0    0  0.33039776198E+03 -0.46635713758E+03 -0.14869435753E+04  0.16003263761E+04  0.15294330000E+03 0.  0.
<mgrwt>
<rscale>  0 0.79144231E+03</rscale>
<asrwt>0</asrwt>
<pdfrwt beam="1">  1        2 0.41058576E+00 0.87204465E+03</pdfrwt>
<pdfrwt beam="2">  1       -2 0.34716464E-01 0.87204465E+03</pdfrwt>
<totfact> 0.22235413E+01</totfact>
</mgrwt>
</event>
<event>
 4    1  0.5223852E-007  0.7162670E+03  0.7818608E-02  0.9935426E-01
          2   -1    0    0  501    0  0.00000000000E+00  0.00000000000E+00  0.19923281704E+04  0.19923281704E+04  0.25500000000E-02 0. -1.
         -2   -1    0    0    0  501 -0.00000000000E+00 -0.00000000000E+00 -0.23842058113E+03  0.23842058114E+03  0.25500000000E-02 0.  1.
    8880023    1    1    2    0    0 -0.12417874446E+03  0.25260212234E+03  0.36217900110E+03  0.80262820028E+03  0.65864270000E+03 0.  1.
    8880022    1    1    2    0    0  0.12417874446E+03 -0.25260212234E+03  0.13917285882E+04  0.14281205513E+04  0.15294330000E+03 0.  0.
<mgrwt>
<rscale>  0 0.58574707E+03</rscale>
<asrwt>0</asrwt>
<pdfrwt beam="1">  1        2 0.30651202E+00 0.71626699E+03</pdfrwt>
<pdfrwt beam="2">  1       -2 0.36680090E-01 0.71626699E+03</pdfrwt>
<totfact> 0.48844983E+01</totfact>
</mgrwt>
</event>
<event>
 4    1  0.5223852E-007  0.7400635E+03  0.7818608E-02  0.9859762E-01
          2   -1    0    0  501    0  0.00000000000E+00  0.00000000000E+00  0.58899237558E+03  0.58899237559E+03  0.25500000000E-02 0. -1.
         -2   -1    0    0    0  501 -0.00000000000E+00 -0.00000000000E+00 -0.14123013140E+04  0.14123013140E+04  0.25500000000E-02 0.  1.
    8880023    1    1    2    0    0  0.66993323820E+01 -0.33740027761E+03 -0.12397812357E+04  0.14438668731E+04  0.65864270000E+03 0.  1.
    8880022    1    1    2    0    0 -0.66993323820E+01  0.33740027761E+03  0.41647229729E+03  0.55742681655E+03  0.15294330000E+03 0.  0.
<mgrwt>
<rscale>  0 0.62251651E+03</rscale>
<asrwt>0</asrwt>
<pdfrwt beam="1">  1        2 0.90614212E-01 0.74006353E+03</pdfrwt>
<pdfrwt beam="2">  1       -2 0.21727712E+00 0.74006353E+03</pdfrwt>
<totfact> 0.53434463E+00</totfact>
</mgrwt>
</event>
<event>
 4    1  0.5223852E-007  0.8149663E+03  0.7818608E-02  0.9679324E-01
         -2   -1    0    0    0  501 -0.00000000000E+00  0.00000000000E+00  0.96163782626E+03  0.96163782626E+03  0.25500000000E-02 0.  1.
          2   -1    0    0  501    0  0.00000000000E+00 -0.00000000000E+00 -0.10080355904E+04  0.10080355904E+04  0.25500000000E-02 0. -1.
    8880023    1    1    2    0    0 -0.44868579281E+03 -0.17041389650E+03  0.69653268247E+03  0.10720670785E+04  0.65864270000E+03 0.  1.
    8880022    1    1    2    0    0  0.44868579281E+03  0.17041389650E+03 -0.74293044660E+03  0.89760633815E+03  0.15294330000E+03 0.  0.
<mgrwt>
<rscale>  0 0.72261306E+03</rscale>
<asrwt>0</asrwt>
<pdfrwt beam="1">  1        2 0.15508240E+00 0.81496628E+03</pdfrwt>
<pdfrwt beam="2">  1       -2 0.14794428E+00 0.81496628E+03</pdfrwt>
<totfact> 0.78165507E+00</totfact>
</mgrwt>
</event>
<event>
 4    1  0.5223852E-007  0.7063282E+03  0.7818608E-02  0.9971897E-01
         -2   -1    0    0    0  501 -0.00000000000E+00  0.00000000000E+00  0.23560710393E+03  0.23560710394E+03  0.25500000000E-02 0.  1.
          2   -1    0    0  501    0  0.00000000000E+00 -0.00000000000E+00 -0.12533819380E+04  0.12533819380E+04  0.25500000000E-02 0. -1.
    8880023    1    1    2    0    0 -0.25186557222E+03 -0.40657279821E+02 -0.42122920510E+03  0.82239499656E+03  0.65864270000E+03 0.  1.
    8880022    1    1    2    0    0  0.25186557222E+03  0.40657279821E+02 -0.59654562894E+03  0.66659404535E+03  0.15294330000E+03 0.  0.
<mgrwt>
<rscale>  0 0.56899848E+03</rscale>
<asrwt>0</asrwt>
<pdfrwt beam="1">  1        2 0.19282799E+00 0.70632817E+03</pdfrwt>
<pdfrwt beam="2">  1       -2 0.36247247E-01 0.70632817E+03</pdfrwt>
<totfact> 0.12834655E+02</totfact>
</mgrwt>
</event>
<event>
 4    1  0.8553643E-007  0.1053216E+04  0.7818608E-02  0.9315025E-01
         -2   -1    0    0    0  501 -0.00000000000E+00  0.00000000000E+00  0.14708248216E+04  0.14708248216E+04  0.25500000000E-02 0.  1.
          2   -1    0    0  501    0  0.00000000000E+00 -0.00000000000E+00 -0.16528609431E+04  0.16528609431E+04  0.25500000000E-02 0. -1.
    8880023    1    1    2    0    0 -0.20892949988E+03  0.79486000734E+03  0.11447221792E+04  0.15555233978E+04  0.65864270000E+03 0.  0.
    8880022    1    1    2    0    0  0.20892949988E+03 -0.79486000734E+03 -0.13267583008E+04  0.15681623669E+04  0.15294330000E+03 0.  0.
<mgrwt>
<rscale>  0 0.99411305E+03</rscale>
<asrwt>0</asrwt>
<pdfrwt beam="1">  1        2 0.25428630E+00 0.10532161E+04</pdfrwt>
<pdfrwt beam="2">  1       -2 0.22628074E+00 0.10532161E+04</pdfrwt>
<totfact> 0.92976686E-01</totfact>
</mgrwt>
</event>
<event>
 4    1  0.5223852E-007  0.9117716E+03  0.7818608E-02  0.9507393E-01
         -2   -1    0    0    0  501 -0.00000000000E+00  0.00000000000E+00  0.13478762596E+04  0.13478762596E+04  0.25500000000E-02 0.  1.
          2   -1    0    0  501    0  0.00000000000E+00 -0.00000000000E+00 -0.13598948490E+04  0.13598948490E+04  0.25500000000E-02 0. -1.
    8880023    1    1    2    0    0  0.40672525801E+03 -0.48175908150E+03  0.10948442328E+04  0.14247846674E+04  0.65864270000E+03 0.  0.
    8880022    1    1    2    0    0 -0.40672525801E+03  0.48175908150E+03 -0.11068628222E+04  0.12829864412E+04  0.15294330000E+03 0.  0.
<mgrwt>
<rscale>  0 0.83740984E+03</rscale>
<asrwt>0</asrwt>
<pdfrwt beam="1">  1        2 0.20921459E+00 0.91177160E+03</pdfrwt>
<pdfrwt beam="2">  1       -2 0.20736558E+00 0.91177160E+03</pdfrwt>
<totfact> 0.18265213E+00</totfact>
</mgrwt>
</event>
<event>
 4    1  0.5223852E-007  0.6995212E+03  0.7818608E-02  0.9999193E-01
         -2   -1    0    0    0  501 -0.00000000000E+00  0.00000000000E+00  0.38240993105E+03  0.38240993106E+03  0.25500000000E-02 0.  1.
          2   -1    0    0  501    0  0.00000000000E+00 -0.00000000000E+00 -0.31077885064E+04  0.31077885064E+04  0.25500000000E-02 0. -1.
    8880023    1    1    2    0    0  0.17650891172E+03  0.15609054606E+03  0.49375048986E+02  0.70126154622E+03  0.65864270000E+03 0.  1.
    8880022    1    1    2    0    0 -0.17650891172E+03 -0.15609054606E+03 -0.27747536243E+04  0.27889368912E+04  0.15294330000E+03 0.  0.
<mgrwt>
<rscale>  0 0.55685619E+03</rscale>
<asrwt>0</asrwt>
<pdfrwt beam="1">  1        2 0.47812129E+00 0.69952117E+03</pdfrwt>
<pdfrwt beam="2">  1       -2 0.58832299E-01 0.69952117E+03</pdfrwt>
<totfact> 0.43433014E+00</totfact>
</mgrwt>
</event>
<event>
 4    1  0.5223852E-007  0.9337719E+03  0.7818608E-02  0.9473858E-01
          2   -1    0    0  501    0  0.00000000000E+00  0.00000000000E+00  0.40978187593E+04  0.40978187593E+04  0.25500000000E-02 0. -1.
         -2   -1    0    0    0  501 -0.00000000000E+00 -0.00000000000E+00 -0.26338044113E+03  0.26338044114E+03  0.25500000000E-02 0.  1.
    8880023    1    1    2    0    0 -0.66081878255E+03  0.37925175004E+02  0.34635268617E+04  0.35871922600E+04  0.65864270000E+03 0.  0.
    8880022    1    1    2    0    0  0.66081878255E+03 -0.37925175004E+02  0.37091145644E+03  0.77400694041E+03  0.15294330000E+03 0.  0.
<mgrwt>
<rscale>  0 0.86238941E+03</rscale>
<asrwt>0</asrwt>
<pdfrwt beam="1">  1        2 0.63043359E+00 0.93377191E+03</pdfrwt>
<pdfrwt beam="2">  1       -2 0.40520072E-01 0.93377191E+03</pdfrwt>
<totfact> 0.17561497E+00</totfact>
</mgrwt>
</event>
<event>
 4    1  0.5223852E-007  0.7848759E+03  0.7818608E-02  0.9744506E-01
         -2   -1    0    0    0  501 -0.00000000000E+00  0.00000000000E+00  0.23836338674E+03  0.23836338675E+03  0.25500000000E-02 0.  1.
          2   -1    0    0  501    0  0.00000000000E+00 -0.00000000000E+00 -0.26080785189E+04  0.26080785189E+04  0.25500000000E-02 0. -1.
    8880023    1    1    2    0    0 -0.97540962232E+02  0.41557873912E+03 -0.51891700841E+03  0.94090647548E+03  0.65864270000E+03 0.  0.
    8880022    1    1    2    0    0  0.97540962232E+02 -0.41557873912E+03 -0.18507981237E+04  0.19055354301E+04  0.15294330000E+03 0.  0.
<mgrwt>
<rscale>  0 0.68427659E+03</rscale>
<asrwt>0</asrwt>
<pdfrwt beam="1">  1        2 0.40124283E+00 0.78487587E+03</pdfrwt>
<pdfrwt beam="2">  1       -2 0.36671292E-01 0.78487587E+03</pdfrwt>
<totfact> 0.21976167E+01</totfact>
</mgrwt>
</event>
<event>
 4    1  0.5223852E-007  0.1033712E+04  0.7818608E-02  0.9338723E-01
         -2   -1    0    0    0  501 -0.00000000000E+00  0.00000000000E+00  0.69794030270E+03  0.69794030270E+03  0.25500000000E-02 0.  1.
          2   -1    0    0  501    0  0.00000000000E+00 -0.00000000000E+00 -0.19079412304E+04  0.19079412304E+04  0.25500000000E-02 0. -1.
    8880023    1    1    2    0    0 -0.53676355333E+01 -0.79669402738E+03  0.12753179685E+03  0.10415492068E+04  0.65864270000E+03 0.  0.
    8880022    1    1    2    0    0  0.53676355333E+01  0.79669402738E+03 -0.13375327245E+04  0.15643323263E+04  0.15294330000E+03 0.  0.
<mgrwt>
<rscale>  0 0.97294791E+03</rscale>
<asrwt>0</asrwt>
<pdfrwt beam="1">  1        2 0.29352942E+00 0.10337119E+04</pdfrwt>
<pdfrwt beam="2">  1       -2 0.10737543E+00 0.10337119E+04</pdfrwt>
<totfact> 0.52085579E+00</totfact>
</mgrwt>
</event>
<event>
 4    1  0.5223852E-007  0.9471226E+03  0.7818608E-02  0.9454266E-01
          2   -1    0    0  501    0  0.00000000000E+00  0.00000000000E+00  0.60284707574E+03  0.60284707574E+03  0.25500000000E-02 0. -1.
         -2   -1    0    0    0  501 -0.00000000000E+00 -0.00000000000E+00 -0.12880550797E+04  0.12880550797E+04  0.25500000000E-02 0.  1.
    8880023    1    1    2    0    0  0.67350826903E+03  0.98069796583E+02 -0.51609670682E+02  0.94852772117E+03  0.65864270000E+03 0. -1.
    8880022    1    1    2    0    0 -0.67350826903E+03 -0.98069796583E+02 -0.63359833333E+03  0.94237443432E+03  0.15294330000E+03 0.  1.
<mgrwt>
<rscale>  0 0.87741228E+03</rscale>
<asrwt>0</asrwt>
<pdfrwt beam="1">  1        2 0.92745704E-01 0.94712263E+03</pdfrwt>
<pdfrwt beam="2">  1       -2 0.19816232E+00 0.94712263E+03</pdfrwt>
<totfact> 0.67372160E+00</totfact>
</mgrwt>
</event>
<event>
 4    1  0.5223852E-007  0.1033637E+04  0.7818608E-02  0.9338815E-01
          2   -1    0    0  501    0  0.00000000000E+00  0.00000000000E+00  0.24641132499E+04  0.24641132499E+04  0.25500000000E-02 0. -1.
         -2   -1    0    0    0  501 -0.00000000000E+00 -0.00000000000E+00 -0.41467447539E+03  0.41467447540E+03  0.25500000000E-02 0.  1.
    8880023    1    1    2    0    0 -0.21942388611E+03 -0.76579981351E+03  0.17128437082E+04  0.20005599144E+04  0.65864270000E+03 0.  0.
    8880022    1    1    2    0    0  0.21942388611E+03  0.76579981351E+03  0.33659506634E+03  0.87822781091E+03  0.15294330000E+03 0.  0.
<mgrwt>
<rscale>  0 0.97286687E+03</rscale>
<asrwt>0</asrwt>
<pdfrwt beam="1">  1        2 0.37909435E+00 0.10336375E+04</pdfrwt>
<pdfrwt beam="2">  1       -2 0.63796073E-01 0.10336375E+04</pdfrwt>
<totfact> 0.83542316E+00</totfact>
</mgrwt>
</event>
<event>
 4    1  0.6872316E-007  0.1288517E+04  0.7818608E-02  0.9075540E-01
          2   -1    0    0  501    0  0.00000000000E+00  0.00000000000E+00  0.42268037062E+04  0.42268037062E+04  0.25500000000E-02 0. -1.
         -2   -1    0    0    0  501 -0.00000000000E+00 -0.00000000000E+00 -0.14963676020E+04  0.14963676020E+04  0.25500000000E-02 0.  1.
    8880023    1    1    2    0    0  0.10634653927E+04 -0.30904197740E+03 -0.11240046961E+04  0.17098720269E+04  0.65864270000E+03 0.  1.
    8880022    1    1    2    0    0 -0.10634653927E+04  0.30904197740E+03  0.38544408003E+04  0.40132992813E+04  0.15294330000E+03 0.  0.
<mgrwt>
<rscale>  0 0.12435840E+04</rscale>
<asrwt>0</asrwt>
<pdfrwt beam="1">  1        2 0.65027750E+00 0.12885169E+04</pdfrwt>
<pdfrwt beam="2">  1       -2 0.23021040E+00 0.12885169E+04</pdfrwt>
<totfact> 0.18694311E-02</totfact>
</mgrwt>
</event>
<event>
 4    1  0.5223852E-007  0.6987028E+03  0.7818608E-02  0.1000263E+00
          2   -1    0    0  501    0  0.00000000000E+00  0.00000000000E+00  0.65821350034E+03  0.65821350035E+03  0.25500000000E-02 0. -1.
         -2   -1    0    0    0  501 -0.00000000000E+00 -0.00000000000E+00 -0.38648871366E+03  0.38648871366E+03  0.25500000000E-02 0.  1.
    8880023    1    1    2    0    0  0.12169718986E+03  0.19891001049E+03  0.73492330316E+02  0.70255727679E+03  0.65864270000E+03 0.  1.
    8880022    1    1    2    0    0 -0.12169718986E+03 -0.19891001049E+03  0.19823245637E+03  0.34214493722E+03  0.15294330000E+03 0.  0.
<mgrwt>
<rscale>  0 0.55535261E+03</rscale>
<asrwt>0</asrwt>
<pdfrwt beam="1">  1        2 0.10126361E+00 0.69870280E+03</pdfrwt>
<pdfrwt beam="2">  1       -2 0.59459803E-01 0.69870280E+03</pdfrwt>
<totfact> 0.11853768E+02</totfact>
</mgrwt>
</event>
<event>
 4    1  0.5223852E-007  0.9126602E+03  0.7818608E-02  0.9506006E-01
          2   -1    0    0  501    0  0.00000000000E+00  0.00000000000E+00  0.85339338102E+03  0.85339338103E+03  0.25500000000E-02 0. -1.
         -2   -1    0    0    0  501 -0.00000000000E+00 -0.00000000000E+00 -0.82856212323E+03  0.82856212323E+03  0.25500000000E-02 0.  1.
    8880023    1    1    2    0    0  0.11997294915E+03 -0.62027812958E+03 -0.29279966054E+03  0.95847812392E+03  0.65864270000E+03 0.  1.
    8880022    1    1    2    0    0 -0.11997294915E+03  0.62027812958E+03  0.31763091833E+03  0.72347738034E+03  0.15294330000E+03 0.  0.
<mgrwt>
<rscale>  0 0.83842467E+03</rscale>
<asrwt>0</asrwt>
<pdfrwt beam="1">  1        2 0.13129129E+00 0.91266022E+03</pdfrwt>
<pdfrwt beam="2">  1       -2 0.12747110E+00 0.91266022E+03</pdfrwt>
<totfact> 0.14404534E+01</totfact>
</mgrwt>
</event>
<event>
 4    1  0.5223852E-007  0.7396553E+03  0.7818608E-02  0.9860952E-01
          2   -1    0    0  501    0  0.00000000000E+00  0.00000000000E+00  0.28247120773E+04  0.28247120773E+04  0.25500000000E-02 0. -1.
         -2   -1    0    0    0  501 -0.00000000000E+00 -0.00000000000E+00 -0.27145420812E+03  0.27145420813E+03  0.25500000000E-02 0.  1.
    8880023    1    1    2    0    0 -0.21885001066E+03  0.25570365950E+03  0.27659047981E+03  0.78967853487E+03  0.65864270000E+03 0.  1.
    8880022    1    1    2    0    0  0.21885001066E+03 -0.25570365950E+03  0.22766673894E+04  0.23064877506E+04  0.15294330000E+03 0.  0.
<mgrwt>
<rscale>  0 0.62191595E+03</rscale>
<asrwt>0</asrwt>
<pdfrwt beam="1">  1        2 0.43457109E+00 0.73965525E+03</pdfrwt>
<pdfrwt beam="2">  1       -2 0.41762186E-01 0.73965525E+03</pdfrwt>
<totfact> 0.12848251E+01</totfact>
</mgrwt>
</event>
<event>
 4    1  0.5223852E-007  0.7680039E+03  0.7818608E-02  0.9784810E-01
          2   -1    0    0  501    0  0.00000000000E+00  0.00000000000E+00  0.15984263913E+04  0.15984263913E+04  0.25500000000E-02 0. -1.
         -2   -1    0    0    0  501 -0.00000000000E+00 -0.00000000000E+00 -0.28140454992E+03  0.28140454993E+03  0.25500000000E-02 0.  1.
    8880023    1    1    2    0    0 -0.29893306093E+03  0.25818357099E+03  0.12258487732E+04  0.14465597645E+04  0.65864270000E+03 0. -1.
    8880022    1    1    2    0    0  0.29893306093E+03 -0.25818357099E+03  0.91173068224E+02  0.43327117678E+03  0.15294330000E+03 0.  0.
<mgrwt>
<rscale>  0 0.66184121E+03</rscale>
<asrwt>0</asrwt>
<pdfrwt beam="1">  1        2 0.24591175E+00 0.76800387E+03</pdfrwt>
<pdfrwt beam="2">  1       -2 0.43293009E-01 0.76800387E+03</pdfrwt>
<totfact> 0.57696615E+01</totfact>
</mgrwt>
</event>
<event>
 4    1  0.5223852E-007  0.9140450E+03  0.7818608E-02  0.9503851E-01
         -2   -1    0    0    0  501 -0.00000000000E+00  0.00000000000E+00  0.12129811423E+04  0.12129811423E+04  0.25500000000E-02 0.  1.
          2   -1    0    0  501    0  0.00000000000E+00 -0.00000000000E+00 -0.77336847532E+03  0.77336847533E+03  0.25500000000E-02 0. -1.
    8880023    1    1    2    0    0  0.54726607627E+03  0.31963714552E+03 -0.33534660074E+03  0.97361984980E+03  0.65864270000E+03 0.  0.
    8880022    1    1    2    0    0 -0.54726607627E+03 -0.31963714552E+03  0.77495926773E+03  0.10127297679E+04  0.15294330000E+03 0.  0.
<mgrwt>
<rscale>  0 0.84000511E+03</rscale>
<asrwt>0</asrwt>
<pdfrwt beam="1">  1        2 0.11897977E+00 0.91404500E+03</pdfrwt>
<pdfrwt beam="2">  1       -2 0.18661248E+00 0.91404500E+03</pdfrwt>
<totfact> 0.58905364E+00</totfact>
</mgrwt>
</event>
<event>
 4    1  0.5223852E-007  0.6782951E+03  0.7818608E-02  0.1010305E+00
         -2   -1    0    0    0  501 -0.00000000000E+00  0.00000000000E+00  0.74896486520E+03  0.74896486520E+03  0.25500000000E-02 0.  1.
          2   -1    0    0  501    0  0.00000000000E+00 -0.00000000000E+00 -0.28182343847E+03  0.28182343849E+03  0.25500000000E-02 0. -1.
    8880023    1    1    2    0    0 -0.92699166706E+02  0.13296946597E+03  0.43456368707E+03  0.80556180320E+03  0.65864270000E+03 0.  0.
    8880022    1    1    2    0    0  0.92699166706E+02 -0.13296946597E+03  0.32577739654E+02  0.22522650049E+03  0.15294330000E+03 0.  0.
<mgrwt>
<rscale>  0 0.51353617E+03</rscale>
<asrwt>0</asrwt>
<pdfrwt beam="1">  1        2 0.43357452E-01 0.67829508E+03</pdfrwt>
<pdfrwt beam="2">  1       -2 0.11522536E+00 0.67829508E+03</pdfrwt>
<totfact> 0.70033244E+01</totfact>
</mgrwt>
</event>
<event>
 4    1  0.5223852E-007  0.6642845E+03  0.7818608E-02  0.1020141E+00
         -2   -1    0    0    0  501 -0.00000000000E+00  0.00000000000E+00  0.13605724435E+03  0.13605724438E+03  0.25500000000E-02 0.  1.
          2   -1    0    0  501    0  0.00000000000E+00 -0.00000000000E+00 -0.15700032227E+04  0.15700032227E+04  0.25500000000E-02 0. -1.
    8880023    1    1    2    0    0  0.82735915267E+02  0.24869902897E+02 -0.75904120036E+03  0.10086711525E+04  0.65864270000E+03 0.  1.
    8880022    1    1    2    0    0 -0.82735915267E+02 -0.24869902897E+02 -0.67490477798E+03  0.69738931459E+03  0.15294330000E+03 0. -1.
<mgrwt>
<rscale>  0 0.47635640E+03</rscale>
<asrwt>0</asrwt>
<pdfrwt beam="1">  1        2 0.24153895E+00 0.66428454E+03</pdfrwt>
<pdfrwt beam="2">  1       -2 0.20931885E-01 0.66428454E+03</pdfrwt>
<totfact> 0.23334813E+02</totfact>
</mgrwt>
</event>
<event>
 4    1  0.5223852E-007  0.9354942E+03  0.7818608E-02  0.9471299E-01
         -2   -1    0    0    0  501 -0.00000000000E+00  0.00000000000E+00  0.10359234429E+04  0.10359234429E+04  0.25500000000E-02 0.  1.
          2   -1    0    0  501    0  0.00000000000E+00 -0.00000000000E+00 -0.10275489434E+04  0.10275489434E+04  0.25500000000E-02 0. -1.
    8880023    1    1    2    0    0  0.17266117224E+03  0.64150401063E+03  0.64053006305E+03  0.11337672795E+04  0.65864270000E+03 0.  1.
    8880022    1    1    2    0    0 -0.17266117224E+03 -0.64150401063E+03 -0.63215556354E+03  0.92970510679E+03  0.15294330000E+03 0. -1.
<mgrwt>
<rscale>  0 0.86433289E+03</rscale>
<asrwt>0</asrwt>
<pdfrwt beam="1">  1        2 0.15808445E+00 0.93549424E+03</pdfrwt>
<pdfrwt beam="2">  1       -2 0.15937284E+00 0.93549424E+03</pdfrwt>
<totfact> 0.61434032E+00</totfact>
</mgrwt>
</event>
<event>
 4    1  0.5223852E-007  0.8382410E+03  0.7818608E-02  0.9633506E-01
         -2   -1    0    0    0  501 -0.00000000000E+00  0.00000000000E+00  0.11227495662E+04  0.11227495662E+04  0.25500000000E-02 0.  1.
          2   -1    0    0  501    0  0.00000000000E+00 -0.00000000000E+00 -0.58013994158E+03  0.58013994159E+03  0.25500000000E-02 0. -1.
    8880023    1    1    2    0    0  0.26548181417E+02  0.51781555865E+03  0.74912338121E+03  0.11242036316E+04  0.65864270000E+03 0.  0.
    8880022    1    1    2    0    0 -0.26548181417E+02 -0.51781555865E+03 -0.20651375656E+03  0.57868587625E+03  0.15294330000E+03 0.  1.
<mgrwt>
<rscale>  0 0.75117679E+03</rscale>
<asrwt>0</asrwt>
<pdfrwt beam="1">  1        2 0.89252299E-01 0.83824099E+03</pdfrwt>
<pdfrwt beam="2">  1       -2 0.17273070E+00 0.83824099E+03</pdfrwt>
<totfact> 0.10607624E+01</totfact>
</mgrwt>
</event>
<event>
 4    1  0.5223852E-007  0.7456409E+03  0.7818608E-02  0.9843810E-01
         -2   -1    0    0    0  501 -0.00000000000E+00  0.00000000000E+00  0.14616944044E+03  0.14616944046E+03  0.25500000000E-02 0.  1.
          2   -1    0    0  501    0  0.00000000000E+00 -0.00000000000E+00 -0.21810233343E+04  0.21810233343E+04  0.25500000000E-02 0. -1.
    8880023    1    1    2    0    0  0.34886275085E+03 -0.21563198683E+02 -0.14116901116E+04  0.15965116247E+04  0.65864270000E+03 0. -1.
    8880022    1    1    2    0    0 -0.34886275085E+03  0.21563198683E+02 -0.62316378226E+03  0.73068115003E+03  0.15294330000E+03 0.  1.
<mgrwt>
<rscale>  0 0.63063526E+03</rscale>
<asrwt>0</asrwt>
<pdfrwt beam="1">  1        2 0.33554203E+00 0.74564093E+03</pdfrwt>
<pdfrwt beam="2">  1       -2 0.22487608E-01 0.74564093E+03</pdfrwt>
<totfact> 0.94604975E+01</totfact>
</mgrwt>
</event>
<event>
 4    1  0.5223852E-007  0.1057111E+04  0.7818608E-02  0.9310382E-01
         -2   -1    0    0    0  501 -0.00000000000E+00  0.00000000000E+00  0.57635491540E+03  0.57635491541E+03  0.25500000000E-02 0.  1.
          2   -1    0    0  501    0  0.00000000000E+00 -0.00000000000E+00 -0.42449727744E+04  0.42449727744E+04  0.25500000000E-02 0. -1.
    8880023    1    1    2    0    0  0.28001697377E+03 -0.77798647419E+03  0.47820451517E+00  0.10571106350E+04  0.65864270000E+03 0.  0.
    8880022    1    1    2    0    0 -0.28001697377E+03  0.77798647419E+03 -0.36690960635E+04  0.37642170548E+04  0.15294330000E+03 0.  0.
<mgrwt>
<rscale>  0 0.99832661E+03</rscale>
<asrwt>0</asrwt>
<pdfrwt beam="1">  1        2 0.65307271E+00 0.10571105E+04</pdfrwt>
<pdfrwt beam="2">  1       -2 0.88669990E-01 0.10571105E+04</pdfrwt>
<totfact> 0.24383898E-01</totfact>
</mgrwt>
</event>
<event>
 4    1  0.5223852E-007  0.8694429E+03  0.7818608E-02  0.9576982E-01
         -2   -1    0    0    0  501 -0.00000000000E+00  0.00000000000E+00  0.10478984374E+04  0.10478984374E+04  0.25500000000E-02 0.  1.
          2   -1    0    0  501    0  0.00000000000E+00 -0.00000000000E+00 -0.60059224470E+03  0.60059224471E+03  0.25500000000E-02 0. -1.
    8880023    1    1    2    0    0 -0.43757795856E+03 -0.36145018838E+03  0.58096610753E+03  0.10456828070E+04  0.65864270000E+03 0.  0.
    8880022    1    1    2    0    0  0.43757795856E+03  0.36145018838E+03 -0.13365991479E+03  0.60280787515E+03  0.15294330000E+03 0.  0.
<mgrwt>
<rscale>  0 0.78838570E+03</rscale>
<asrwt>0</asrwt>
<pdfrwt beam="1">  1        2 0.92398807E-01 0.86944288E+03</pdfrwt>
<pdfrwt beam="2">  1       -2 0.16121514E+00 0.86944288E+03</pdfrwt>
<totfact> 0.12271094E+01</totfact>
</mgrwt>
</event>
<event>
 4    1  0.5223852E-007  0.1044456E+04  0.7818608E-02  0.9325576E-01
         -2   -1    0    0    0  501 -0.00000000000E+00  0.00000000000E+00  0.83061794039E+03  0.83061794040E+03  0.25500000000E-02 0.  1.
          2   -1    0    0  501    0  0.00000000000E+00 -0.00000000000E+00 -0.17897265391E+04  0.17897265391E+04  0.25500000000E-02 0. -1.
    8880023    1    1    2    0    0 -0.75260240665E+03  0.30110927110E+03  0.32522306030E+03  0.10939183794E+04  0.65864270000E+03 0.  1.
    8880022    1    1    2    0    0  0.75260240665E+03 -0.30110927110E+03 -0.12843316590E+04  0.15264261001E+04  0.15294330000E+03 0.  0.
<mgrwt>
<rscale>  0 0.98461965E+03</rscale>
<asrwt>0</asrwt>
<pdfrwt beam="1">  1        2 0.27534254E+00 0.10444555E+04</pdfrwt>
<pdfrwt beam="2">  1       -2 0.12778738E+00 0.10444555E+04</pdfrwt>
<totfact> 0.39291848E+00</totfact>
</mgrwt>
</event>
<event>
 4    1  0.5223852E-007  0.8144668E+03  0.7818608E-02  0.9680347E-01
         -2   -1    0    0    0  501 -0.00000000000E+00  0.00000000000E+00  0.48173595377E+03  0.48173595377E+03  0.25500000000E-02 0.  1.
          2   -1    0    0  501    0  0.00000000000E+00 -0.00000000000E+00 -0.21644293930E+04  0.21644293930E+04  0.25500000000E-02 0. -1.
    8880023    1    1    2    0    0  0.44213049253E+03 -0.18457149894E+03  0.75021756491E+02  0.81791471490E+03  0.65864270000E+03 0.  0.
    8880022    1    1    2    0    0 -0.44213049253E+03  0.18457149894E+03 -0.17577151957E+04  0.18282506319E+04  0.15294330000E+03 0. -1.
<mgrwt>
<rscale>  0 0.72199093E+03</rscale>
<asrwt>0</asrwt>
<pdfrwt beam="1">  1        2 0.33298913E+00 0.81446683E+03</pdfrwt>
<pdfrwt beam="2">  1       -2 0.74113225E-01 0.81446683E+03</pdfrwt>
<totfact> 0.91266996E+00</totfact>
</mgrwt>
</event>
<event>
 4    1  0.5223852E-007  0.9590229E+03  0.7818608E-02  0.9437249E-01
          2   -1    0    0  501    0  0.00000000000E+00  0.00000000000E+00  0.20319692327E+04  0.20319692327E+04  0.25500000000E-02 0. -1.
         -2   -1    0    0    0  501 -0.00000000000E+00 -0.00000000000E+00 -0.58632650946E+03  0.58632650947E+03  0.25500000000E-02 0.  1.
    8880023    1    1    2    0    0  0.22339586403E+03  0.66030977981E+03 -0.50824983916E+02  0.96036873264E+03  0.65864270000E+03 0.  0.
    8880022    1    1    2    0    0 -0.22339586403E+03 -0.66030977981E+03  0.14964677072E+04  0.16579270096E+04  0.15294330000E+03 0.  0.
<mgrwt>
<rscale>  0 0.89072598E+03</rscale>
<asrwt>0</asrwt>
<pdfrwt beam="1">  1        2 0.31261065E+00 0.95902290E+03</pdfrwt>
<pdfrwt beam="2">  1       -2 0.90204078E-01 0.95902290E+03</pdfrwt>
<totfact> 0.67870357E+00</totfact>
</mgrwt>
</event>
<event>
 4    1  0.5223852E-007  0.7546509E+03  0.7818608E-02  0.9819158E-01
          2   -1    0    0  501    0  0.00000000000E+00  0.00000000000E+00  0.10327360973E+04  0.10327360973E+04  0.25500000000E-02 0. -1.
         -2   -1    0    0    0  501 -0.00000000000E+00 -0.00000000000E+00 -0.33411268608E+03  0.33411268609E+03  0.25500000000E-02 0.  1.
    8880023    1    1    2    0    0 -0.36729622594E+03  0.27950090565E+02  0.57670842390E+03  0.94978446903E+03  0.65864270000E+03 0. -1.
    8880022    1    1    2    0    0  0.36729622594E+03 -0.27950090565E+02  0.12191498730E+03  0.41706431434E+03  0.15294330000E+03 0. -1.
<mgrwt>
<rscale>  0 0.64344480E+03</rscale>
<asrwt>0</asrwt>
<pdfrwt beam="1">  1        2 0.15888247E+00 0.75465087E+03</pdfrwt>
<pdfrwt beam="2">  1       -2 0.51401953E-01 0.75465087E+03</pdfrwt>
<totfact> 0.87030885E+01</totfact>
</mgrwt>
</event>
<event>
 4    1  0.5223852E-007  0.7271793E+03  0.7818608E-02  0.9899002E-01
         -2   -1    0    0    0  501 -0.00000000000E+00  0.00000000000E+00  0.86953811494E+03  0.86953811495E+03  0.25500000000E-02 0.  1.
          2   -1    0    0  501    0  0.00000000000E+00 -0.00000000000E+00 -0.74259808620E+03  0.74259808621E+03  0.25500000000E-02 0. -1.
    8880023    1    1    2    0    0 -0.30119233969E+03  0.65289677466E+02  0.65712390053E+03  0.98010284888E+03  0.65864270000E+03 0.  1.
    8880022    1    1    2    0    0  0.30119233969E+03 -0.65289677466E+02 -0.53018387178E+03  0.63203335227E+03  0.15294330000E+03 0.  0.
<mgrwt>
<rscale>  0 0.60309664E+03</rscale>
<asrwt>0</asrwt>
<pdfrwt beam="1">  1        2 0.11424586E+00 0.72717933E+03</pdfrwt>
<pdfrwt beam="2">  1       -2 0.13377509E+00 0.72717933E+03</pdfrwt>
<totfact> 0.15600162E+01</totfact>
</mgrwt>
</event>
<event>
 4    1  0.5223852E-007  0.7389901E+03  0.7818608E-02  0.9862899E-01
         -2   -1    0    0    0  501 -0.00000000000E+00  0.00000000000E+00  0.39373081444E+03  0.39373081445E+03  0.25500000000E-02 0.  1.
          2   -1    0    0  501    0  0.00000000000E+00 -0.00000000000E+00 -0.13909009040E+04  0.13909009040E+04  0.25500000000E-02 0. -1.
    8880023    1    1    2    0    0  0.32347628628E+03  0.87517351528E+02 -0.18815496275E+02  0.73922961505E+03  0.65864270000E+03 0.  1.
    8880022    1    1    2    0    0 -0.32347628628E+03 -0.87517351528E+02 -0.97835459332E+03  0.10454021034E+04  0.15294330000E+03 0.  0.
<mgrwt>
<rscale>  0 0.62093565E+03</rscale>
<asrwt>0</asrwt>
<pdfrwt beam="1">  1        2 0.21398475E+00 0.73899012E+03</pdfrwt>
<pdfrwt beam="2">  1       -2 0.60573972E-01 0.73899012E+03</pdfrwt>
<totfact> 0.37998199E+01</totfact>
</mgrwt>
</event>
<event>
 4    1  0.5223852E-007  0.9095247E+03  0.7818608E-02  0.9510911E-01
          2   -1    0    0  501    0  0.00000000000E+00  0.00000000000E+00  0.30819881945E+04  0.30819881945E+04  0.25500000000E-02 0. -1.
         -2   -1    0    0    0  501 -0.00000000000E+00 -0.00000000000E+00 -0.21344205696E+03  0.21344205697E+03  0.25500000000E-02 0.  1.
    8880023    1    1    2    0    0 -0.60701228154E+03  0.15799067980E+03  0.21203733064E+04  0.23072100315E+04  0.65864270000E+03 0. -1.
    8880022    1    1    2    0    0  0.60701228154E+03 -0.15799067980E+03  0.74817283119E+03  0.98822021998E+03  0.15294330000E+03 0.  0.
<mgrwt>
<rscale>  0 0.83484144E+03</rscale>
<asrwt>0</asrwt>
<pdfrwt beam="1">  1        2 0.47415204E+00 0.90952470E+03</pdfrwt>
<pdfrwt beam="2">  1       -2 0.32837239E-01 0.90952470E+03</pdfrwt>
<totfact> 0.13865343E+01</totfact>
</mgrwt>
</event>
<event>
 4    1  0.5223852E-007  0.7263992E+03  0.7818608E-02  0.9901499E-01
         -2   -1    0    0    0  501 -0.00000000000E+00  0.00000000000E+00  0.38177399243E+03  0.38177399244E+03  0.25500000000E-02 0.  1.
          2   -1    0    0  501    0  0.00000000000E+00 -0.00000000000E+00 -0.18804088926E+04  0.18804088926E+04  0.25500000000E-02 0. -1.
    8880023    1    1    2    0    0 -0.42301409844E+02  0.30340773666E+03 -0.15079016062E+01  0.72640081496E+03  0.65864270000E+03 0.  1.
    8880022    1    1    2    0    0  0.42301409844E+02 -0.30340773666E+03 -0.14971269986E+04  0.15357820701E+04  0.15294330000E+03 0.  0.
<mgrwt>
<rscale>  0 0.60188674E+03</rscale>
<asrwt>0</asrwt>
<pdfrwt beam="1">  1        2 0.28929367E+00 0.72639925E+03</pdfrwt>
<pdfrwt beam="2">  1       -2 0.58734462E-01 0.72639925E+03</pdfrwt>
<totfact> 0.21821911E+01</totfact>
</mgrwt>
</event>
<event>
 4    1  0.5223852E-007  0.7107867E+03  0.7818608E-02  0.9955091E-01
          2   -1    0    0  501    0  0.00000000000E+00  0.00000000000E+00  0.27411489649E+04  0.27411489649E+04  0.25500000000E-02 0. -1.
         -2   -1    0    0    0  501 -0.00000000000E+00 -0.00000000000E+00 -0.13972712658E+03  0.13972712660E+03  0.25500000000E-02 0.  1.
    8880023    1    1    2    0    0  0.21850874256E+03  0.15382287309E+03  0.87549402356E+03  0.11277001101E+04  0.65864270000E+03 0.  1.
    8880022    1    1    2    0    0 -0.21850874256E+03 -0.15382287309E+03  0.17259278148E+04  0.17531759814E+04  0.15294330000E+03 0.  0.
<mgrwt>
<rscale>  0 0.57664039E+03</rscale>
<asrwt>0</asrwt>
<pdfrwt beam="1">  1        2 0.42171522E+00 0.71078671E+03</pdfrwt>
<pdfrwt beam="2">  1       -2 0.21496482E-01 0.71078671E+03</pdfrwt>
<totfact> 0.49656047E+01</totfact>
</mgrwt>
</event>
<event>
 4    1  0.5223852E-007  0.1015126E+04  0.7818608E-02  0.9362031E-01
          2   -1    0    0  501    0  0.00000000000E+00  0.00000000000E+00  0.20690966702E+04  0.20690966702E+04  0.25500000000E-02 0. -1.
         -2   -1    0    0    0  501 -0.00000000000E+00 -0.00000000000E+00 -0.92834312304E+03  0.92834312304E+03  0.25500000000E-02 0.  1.
    8880023    1    1    2    0    0  0.65425839173E+03 -0.41062875045E+03 -0.53384669323E+03  0.11469405006E+04  0.65864270000E+03 0.  0.
    8880022    1    1    2    0    0 -0.65425839173E+03  0.41062875045E+03  0.16746002404E+04  0.18504992927E+04  0.15294330000E+03 0.  0.
<mgrwt>
<rscale>  0 0.95267382E+03</rscale>
<asrwt>0</asrwt>
<pdfrwt beam="1">  1        2 0.31832256E+00 0.10151257E+04</pdfrwt>
<pdfrwt beam="2">  1       -2 0.14282202E+00 0.10151257E+04</pdfrwt>
<totfact> 0.20779090E+00</totfact>
</mgrwt>
</event>
<event>
 4    1  0.5223852E-007  0.8875175E+03  0.7818608E-02  0.9546375E-01
          2   -1    0    0  501    0  0.00000000000E+00  0.00000000000E+00  0.25357188862E+04  0.25357188862E+04  0.25500000000E-02 0. -1.
         -2   -1    0    0    0  501 -0.00000000000E+00 -0.00000000000E+00 -0.25382160738E+03  0.25382160739E+03  0.25500000000E-02 0.  1.
    8880023    1    1    2    0    0  0.59054006803E+03  0.71689985718E+02  0.83884596225E+03  0.12212083281E+04  0.65864270000E+03 0. -1.
    8880022    1    1    2    0    0 -0.59054006803E+03 -0.71689985718E+02  0.14430513165E+04  0.15683321655E+04  0.15294330000E+03 0.  0.
<mgrwt>
<rscale>  0 0.80949472E+03</rscale>
<asrwt>0</asrwt>
<pdfrwt beam="1">  1        2 0.39011057E+00 0.88751745E+03</pdfrwt>
<pdfrwt beam="2">  1       -2 0.39049481E-01 0.88751745E+03</pdfrwt>
<totfact> 0.21115526E+01</totfact>
</mgrwt>
</event>
<event>
 4    1  0.5223852E-007  0.1098402E+04  0.7818608E-02  0.9262837E-01
          2   -1    0    0  501    0  0.00000000000E+00  0.00000000000E+00  0.16769333722E+04  0.16769333722E+04  0.25500000000E-02 0. -1.
         -2   -1    0    0    0  501 -0.00000000000E+00 -0.00000000000E+00 -0.10357246381E+04  0.10357246381E+04  0.25500000000E-02 0.  1.
    8880023    1    1    2    0    0 -0.50857265637E+03  0.71695999948E+03 -0.54674783913E+03  0.12269560683E+04  0.65864270000E+03 0.  0.
    8880022    1    1    2    0    0  0.50857265637E+03 -0.71695999948E+03  0.11879565732E+04  0.14857019420E+04  0.15294330000E+03 0.  0.
<mgrwt>
<rscale>  0 0.10427735E+04</rscale>
<asrwt>0</asrwt>
<pdfrwt beam="1">  1        2 0.25798975E+00 0.10984025E+04</pdfrwt>
<pdfrwt beam="2">  1       -2 0.15934225E+00 0.10984025E+04</pdfrwt>
<totfact> 0.25275930E+00</totfact>
</mgrwt>
</event>
<event>
 4    1  0.5223852E-007  0.8431278E+03  0.7818608E-02  0.9624311E-01
         -2   -1    0    0    0  501 -0.00000000000E+00  0.00000000000E+00  0.80298468956E+03  0.80298468957E+03  0.25500000000E-02 0.  1.
          2   -1    0    0  501    0  0.00000000000E+00 -0.00000000000E+00 -0.14070388663E+04  0.14070388663E+04  0.25500000000E-02 0. -1.
    8880023    1    1    2    0    0 -0.35120114690E+03  0.39206121036E+03  0.49797462982E+03  0.97920538012E+03  0.65864270000E+03 0.  0.
    8880022    1    1    2    0    0  0.35120114690E+03 -0.39206121036E+03 -0.11020288066E+04  0.12308181758E+04  0.15294330000E+03 0.  0.
<mgrwt>
<rscale>  0 0.75707836E+03</rscale>
<asrwt>0</asrwt>
<pdfrwt beam="1">  1        2 0.21646752E+00 0.84312777E+03</pdfrwt>
<pdfrwt beam="2">  1       -2 0.12353611E+00 0.84312777E+03</pdfrwt>
<totfact> 0.71583556E+00</totfact>
</mgrwt>
</event>
<event>
 4    1  0.5223852E-007  0.9857479E+03  0.7818608E-02  0.9400446E-01
          2   -1    0    0  501    0  0.00000000000E+00  0.00000000000E+00  0.15301749343E+04  0.15301749343E+04  0.25500000000E-02 0. -1.
         -2   -1    0    0    0  501 -0.00000000000E+00 -0.00000000000E+00 -0.63229583405E+03  0.63229583405E+03  0.25500000000E-02 0.  1.
    8880023    1    1    2    0    0  0.52503931147E+03 -0.51207660852E+03 -0.94737365932E+01  0.98579343147E+03  0.65864270000E+03 0.  0.
    8880022    1    1    2    0    0 -0.52503931147E+03  0.51207660852E+03  0.90735283686E+03  0.11766773369E+04  0.15294330000E+03 0.  0.
<mgrwt>
<rscale>  0 0.92038998E+03</rscale>
<asrwt>0</asrwt>
<pdfrwt beam="1">  1        2 0.23541153E+00 0.98574791E+03</pdfrwt>
<pdfrwt beam="2">  1       -2 0.97276283E-01 0.98574791E+03</pdfrwt>
<totfact> 0.10732591E+01</totfact>
</mgrwt>
</event>
<event>
 4    1  0.5223852E-007  0.6996995E+03  0.7818608E-02  0.9998450E-01
          2   -1    0    0  501    0  0.00000000000E+00  0.00000000000E+00  0.15770126569E+04  0.15770126569E+04  0.25500000000E-02 0. -1.
         -2   -1    0    0    0  501 -0.00000000000E+00 -0.00000000000E+00 -0.89041265769E+03  0.89041265769E+03  0.25500000000E-02 0.  1.
    8880023    1    1    2    0    0 -0.17713657823E+03  0.15617896610E+03 -0.73702710985E+03  0.10162619759E+04  0.65864270000E+03 0.  1.
    8880022    1    1    2    0    0  0.17713657823E+03 -0.15617896610E+03  0.14236271091E+04  0.14511633387E+04  0.15294330000E+03 0.  0.
<mgrwt>
<rscale>  0 0.55718257E+03</rscale>
<asrwt>0</asrwt>
<pdfrwt beam="1">  1        2 0.24261733E+00 0.69969954E+03</pdfrwt>
<pdfrwt beam="2">  1       -2 0.13698656E+00 0.69969954E+03</pdfrwt>
<totfact> 0.45211328E+00</totfact>
</mgrwt>
</event>
<event>
 4    1  0.5223852E-007  0.8620266E+03  0.7818608E-02  0.9589969E-01
         -2   -1    0    0    0  501 -0.00000000000E+00  0.00000000000E+00  0.26588734112E+03  0.26588734113E+03  0.25500000000E-02 0.  1.
          2   -1    0    0  501    0  0.00000000000E+00 -0.00000000000E+00 -0.28448995362E+04  0.28448995362E+04  0.25500000000E-02 0. -1.
    8880023    1    1    2    0    0 -0.12605736501E+03 -0.54165418291E+03 -0.60217301816E+03  0.10515237816E+04  0.65864270000E+03 0.  1.
    8880022    1    1    2    0    0  0.12605736501E+03  0.54165418291E+03 -0.19768391769E+04  0.20592630958E+04  0.15294330000E+03 0.  0.
<mgrwt>
<rscale>  0 0.77963700E+03</rscale>
<asrwt>0</asrwt>
<pdfrwt beam="1">  1        2 0.43767683E+00 0.86202663E+03</pdfrwt>
<pdfrwt beam="2">  1       -2 0.40905747E-01 0.86202663E+03</pdfrwt>
<totfact> 0.12764998E+01</totfact>
</mgrwt>
</event>
<event>
 4    1  0.5223852E-007  0.7076511E+03  0.7818608E-02  0.9966829E-01
          2   -1    0    0  501    0  0.00000000000E+00  0.00000000000E+00  0.13145360343E+04  0.13145360343E+04  0.25500000000E-02 0. -1.
         -2   -1    0    0    0  501 -0.00000000000E+00 -0.00000000000E+00 -0.37348993868E+03  0.37348993869E+03  0.25500000000E-02 0.  1.
    8880023    1    1    2    0    0 -0.22106347071E+03 -0.13450232271E+03  0.79351732186E+01  0.70769563100E+03  0.65864270000E+03 0.  1.
    8880022    1    1    2    0    0  0.22106347071E+03  0.13450232271E+03  0.93311092238E+03  0.98033034197E+03  0.15294330000E+03 0.  0.
<mgrwt>
<rscale>  0 0.57128968E+03</rscale>
<asrwt>0</asrwt>
<pdfrwt beam="1">  1        2 0.20223632E+00 0.70765114E+03</pdfrwt>
<pdfrwt beam="2">  1       -2 0.57459990E-01 0.70765114E+03</pdfrwt>
<totfact> 0.47089640E+01</totfact>
</mgrwt>
</event>
<event>
 4    1  0.5223852E-007  0.8080058E+03  0.7818608E-02  0.9693746E-01
          2   -1    0    0  501    0  0.00000000000E+00  0.00000000000E+00  0.10471388508E+04  0.10471388508E+04  0.25500000000E-02 0. -1.
         -2   -1    0    0    0  501 -0.00000000000E+00 -0.00000000000E+00 -0.44067653709E+03  0.44067653710E+03  0.25500000000E-02 0.  1.
    8880023    1    1    2    0    0 -0.44561725795E+03  0.14313796529E+03  0.16114952008E+03  0.82391904443E+03  0.65864270000E+03 0.  0.
    8880022    1    1    2    0    0  0.44561725795E+03 -0.14313796529E+03  0.44531279362E+03  0.66389634347E+03  0.15294330000E+03 0.  0.
<mgrwt>
<rscale>  0 0.71390387E+03</rscale>
<asrwt>0</asrwt>
<pdfrwt beam="1">  1        2 0.16109828E+00 0.80800583E+03</pdfrwt>
<pdfrwt beam="2">  1       -2 0.67796391E-01 0.80800583E+03</pdfrwt>
<totfact> 0.47364455E+01</totfact>
</mgrwt>
</event>
<event>
 4    1  0.5223852E-007  0.6843889E+03  0.7818608E-02  0.1006943E+00
         -2   -1    0    0    0  501 -0.00000000000E+00  0.00000000000E+00  0.40400248563E+03  0.40400248564E+03  0.25500000000E-02 0.  1.
          2   -1    0    0  501    0  0.00000000000E+00 -0.00000000000E+00 -0.14798559341E+04  0.14798559341E+04  0.25500000000E-02 0. -1.
    8880023    1    1    2    0    0  0.17545510603E+03 -0.61591153577E+02  0.92808036687E+02  0.69065295364E+03  0.65864270000E+03 0.  1.
    8880022    1    1    2    0    0 -0.17545510603E+03  0.61591153577E+02 -0.11686614851E+04  0.11932054661E+04  0.15294330000E+03 0.  0.
<mgrwt>
<rscale>  0 0.52708089E+03</rscale>
<asrwt>0</asrwt>
<pdfrwt beam="1">  1        2 0.22767014E+00 0.68438890E+03</pdfrwt>
<pdfrwt beam="2">  1       -2 0.62154229E-01 0.68438890E+03</pdfrwt>
<totfact> 0.32275881E+01</totfact>
</mgrwt>
</event>
<event>
 4    1  0.5223852E-007  0.1000049E+04  0.7818608E-02  0.9381494E-01
          2   -1    0    0  501    0  0.00000000000E+00  0.00000000000E+00  0.59860524158E+03  0.59860524158E+03  0.25500000000E-02 0. -1.
         -2   -1    0    0    0  501 -0.00000000000E+00 -0.00000000000E+00 -0.16298055504E+04  0.16298055504E+04  0.25500000000E-02 0.  1.
    8880023    1    1    2    0    0 -0.42798003175E+03 -0.61896712034E+03 -0.10634836223E+04  0.14598269846E+04  0.65864270000E+03 0.  1.
    8880022    1    1    2    0    0  0.42798003175E+03  0.61896712034E+03  0.32283313526E+02  0.76858380740E+03  0.15294330000E+03 0.  0.
<mgrwt>
<rscale>  0 0.93614432E+03</rscale>
<asrwt>0</asrwt>
<pdfrwt beam="1">  1        2 0.92093115E-01 0.10000487E+04</pdfrwt>
<pdfrwt beam="2">  1       -2 0.25073931E+00 0.10000487E+04</pdfrwt>
<totfact> 0.31600004E+00</totfact>
</mgrwt>
</event>
<event>
 4    1  0.5223852E-007  0.7688927E+03  0.7818608E-02  0.9782606E-01
         -2   -1    0    0    0  501 -0.00000000000E+00  0.00000000000E+00  0.19805440028E+03  0.19805440030E+03  0.25500000000E-02 0.  1.
          2   -1    0    0  501    0  0.00000000000E+00 -0.00000000000E+00 -0.42001378787E+04  0.42001378787E+04  0.25500000000E-02 0. -1.
    8880023    1    1    2    0    0  0.26611763115E+03  0.29422290256E+03 -0.61517666178E+03  0.98470210798E+03  0.65864270000E+03 0.  1.
    8880022    1    1    2    0    0 -0.26611763115E+03 -0.29422290256E+03 -0.33869068167E+04  0.34134901710E+04  0.15294330000E+03 0.  0.
<mgrwt>
<rscale>  0 0.66304391E+03</rscale>
<asrwt>0</asrwt>
<pdfrwt beam="1">  1        2 0.64617499E+00 0.76889266E+03</pdfrwt>
<pdfrwt beam="2">  1       -2 0.30469911E-01 0.76889266E+03</pdfrwt>
<totfact> 0.25755106E+00</totfact>
</mgrwt>
</event>
<event>
 4    1  0.5223852E-007  0.6759661E+03  0.7818608E-02  0.1011704E+00
         -2   -1    0    0    0  501 -0.00000000000E+00  0.00000000000E+00  0.80397857418E+03  0.80397857418E+03  0.25500000000E-02 0.  1.
          2   -1    0    0  501    0  0.00000000000E+00 -0.00000000000E+00 -0.67580497362E+03  0.67580497363E+03  0.25500000000E-02 0. -1.
    8880023    1    1    2    0    0  0.30160863921E+02  0.14903116679E+03  0.63595588582E+03  0.92810024316E+03  0.65864270000E+03 0.  1.
    8880022    1    1    2    0    0 -0.30160863921E+02 -0.14903116679E+03 -0.50778228526E+03  0.55168330465E+03  0.15294330000E+03 0.  0.
<mgrwt>
<rscale>  0 0.50802943E+03</rscale>
<asrwt>0</asrwt>
<pdfrwt beam="1">  1        2 0.10397000E+00 0.67596610E+03</pdfrwt>
<pdfrwt beam="2">  1       -2 0.12368901E+00 0.67596610E+03</pdfrwt>
<totfact> 0.21528864E+01</totfact>
</mgrwt>
</event>
<event>
 4    1  0.5223852E-007  0.7070035E+03  0.7818608E-02  0.9969301E-01
         -2   -1    0    0    0  501 -0.00000000000E+00  0.00000000000E+00  0.26720590797E+03  0.26720590798E+03  0.25500000000E-02 0.  1.
          2   -1    0    0  501    0  0.00000000000E+00 -0.00000000000E+00 -0.11746849803E+04  0.11746849803E+04  0.25500000000E-02 0. -1.
    8880023    1    1    2    0    0 -0.24054594038E+03  0.90451000565E+02 -0.89769047463E+03  0.11426732374E+04  0.65864270000E+03 0.  0.
    8880022    1    1    2    0    0  0.24054594038E+03 -0.90451000565E+02 -0.97885976832E+01  0.29921765087E+03  0.15294330000E+03 0.  0.
<mgrwt>
<rscale>  0 0.57017063E+03</rscale>
<asrwt>0</asrwt>
<pdfrwt beam="1">  1        2 0.18072076E+00 0.70700349E+03</pdfrwt>
<pdfrwt beam="2">  1       -2 0.41108602E-01 0.70700349E+03</pdfrwt>
<totfact> 0.11190555E+02</totfact>
</mgrwt>
</event>
<event>
 4    1  0.5223852E-007  0.7001961E+03  0.7818608E-02  0.9996389E-01
          2   -1    0    0  501    0  0.00000000000E+00  0.00000000000E+00  0.12867546568E+04  0.12867546568E+04  0.25500000000E-02 0. -1.
         -2   -1    0    0    0  501 -0.00000000000E+00 -0.00000000000E+00 -0.96291723302E+03  0.96291723303E+03  0.25500000000E-02 0.  1.
    8880023    1    1    2    0    0 -0.11885059660E+03 -0.20576416202E+03 -0.81605326268E+03  0.10752755407E+04  0.65864270000E+03 0.  1.
    8880022    1    1    2    0    0  0.11885059660E+03  0.20576416202E+03  0.11398906864E+04  0.11743963491E+04  0.15294330000E+03 0.  0.
<mgrwt>
<rscale>  0 0.55808867E+03</rscale>
<asrwt>0</asrwt>
<pdfrwt beam="1">  1        2 0.19796225E+00 0.70019609E+03</pdfrwt>
<pdfrwt beam="2">  1       -2 0.14814111E+00 0.70019609E+03</pdfrwt>
<totfact> 0.53687509E+00</totfact>
</mgrwt>
</event>
<event>
 4    1  0.5223852E-007  0.6704041E+03  0.7818608E-02  0.1015375E+00
         -2   -1    0    0    0  501 -0.00000000000E+00  0.00000000000E+00  0.71579839167E+03  0.71579839168E+03  0.25500000000E-02 0.  1.
          2   -1    0    0  501    0  0.00000000000E+00 -0.00000000000E+00 -0.10664545304E+04  0.10664545304E+04  0.25500000000E-02 0. -1.
    8880023    1    1    2    0    0  0.25076697066E+02 -0.12248529106E+03  0.54567663855E+03  0.86441002272E+03  0.65864270000E+03 0.  1.
    8880022    1    1    2    0    0 -0.25076697066E+02  0.12248529106E+03 -0.89633277732E+03  0.91784289939E+03  0.15294330000E+03 0.  0.
<mgrwt>
<rscale>  0 0.49393271E+03</rscale>
<asrwt>0</asrwt>
<pdfrwt beam="1">  1        2 0.16406993E+00 0.67040413E+03</pdfrwt>
<pdfrwt beam="2">  1       -2 0.11012283E+00 0.67040413E+03</pdfrwt>
<totfact> 0.15386526E+01</totfact>
</mgrwt>
</event>
<event>
 4    1  0.5223852E-007  0.9158219E+03  0.7818608E-02  0.9501095E-01
         -2   -1    0    0    0  501 -0.00000000000E+00  0.00000000000E+00  0.10158383544E+04  0.10158383544E+04  0.25500000000E-02 0.  1.
          2   -1    0    0  501    0  0.00000000000E+00 -0.00000000000E+00 -0.78820128019E+03  0.78820128019E+03  0.25500000000E-02 0. -1.
    8880023    1    1    2    0    0 -0.52634206271E+02 -0.63415228499E+03  0.55645817243E+03  0.10716227807E+04  0.65864270000E+03 0.  0.
    8880022    1    1    2    0    0  0.52634206271E+02  0.63415228499E+03 -0.32882109821E+03  0.73241685389E+03  0.15294330000E+03 0.  0.
<mgrwt>
<rscale>  0 0.84203118E+03</rscale>
<asrwt>0</asrwt>
<pdfrwt beam="1">  1        2 0.12126174E+00 0.91582186E+03</pdfrwt>
<pdfrwt beam="2">  1       -2 0.15628282E+00 0.91582186E+03</pdfrwt>
<totfact> 0.94268704E+00</totfact>
</mgrwt>
</event>
<event>
 4    1  0.5223852E-007  0.7446633E+03  0.7818608E-02  0.9846566E-01
         -2   -1    0    0    0  501 -0.00000000000E+00  0.00000000000E+00  0.27291168191E+03  0.27291168192E+03  0.25500000000E-02 0.  1.
          2   -1    0    0  501    0  0.00000000000E+00 -0.00000000000E+00 -0.13821077669E+04  0.13821077669E+04  0.25500000000E-02 0. -1.
    8880023    1    1    2    0    0 -0.33087992548E+03  0.10597996395E+03 -0.38721048752E+03  0.83931844121E+03  0.65864270000E+03 0. -1.
    8880022    1    1    2    0    0  0.33087992548E+03 -0.10597996395E+03 -0.72198559743E+03  0.81570100757E+03  0.15294330000E+03 0.  0.
<mgrwt>
<rscale>  0 0.62922335E+03</rscale>
<asrwt>0</asrwt>
<pdfrwt beam="1">  1        2 0.21263196E+00 0.74466334E+03</pdfrwt>
<pdfrwt beam="2">  1       -2 0.41986413E-01 0.74466334E+03</pdfrwt>
<totfact> 0.81128848E+01</totfact>
</mgrwt>
</event>
<event>
 4    1  0.5223852E-007  0.7733085E+03  0.7818608E-02  0.9771797E-01
          2   -1    0    0  501    0  0.00000000000E+00  0.00000000000E+00  0.14466968743E+04  0.14466968743E+04  0.25500000000E-02 0. -1.
         -2   -1    0    0    0  501 -0.00000000000E+00 -0.00000000000E+00 -0.35808425563E+03  0.35808425564E+03  0.25500000000E-02 0.  1.
    8880023    1    1    2    0    0  0.19580824404E+03 -0.35476032626E+03  0.17376816918E+03  0.79259153441E+03  0.65864270000E+03 0.  1.
    8880022    1    1    2    0    0 -0.19580824404E+03  0.35476032626E+03  0.91484444951E+03  0.10121895955E+04  0.15294330000E+03 0.  0.
<mgrwt>
<rscale>  0 0.66898292E+03</rscale>
<asrwt>0</asrwt>
<pdfrwt beam="1">  1        2 0.22256875E+00 0.77330845E+03</pdfrwt>
<pdfrwt beam="2">  1       -2 0.55089885E-01 0.77330845E+03</pdfrwt>
<totfact> 0.42966743E+01</totfact>
</mgrwt>
</event>
<event>
 4    1  0.5223852E-007  0.7517386E+03  0.7818608E-02  0.9826985E-01
          2   -1    0    0  501    0  0.00000000000E+00  0.00000000000E+00  0.17710227370E+04  0.17710227370E+04  0.25500000000E-02 0. -1.
         -2   -1    0    0    0  501 -0.00000000000E+00 -0.00000000000E+00 -0.18775019614E+03  0.18775019616E+03  0.25500000000E-02 0.  1.
    8880023    1    1    2    0    0  0.35087955312E+03  0.90467276545E+02  0.11468952719E+04  0.13713058594E+04  0.65864270000E+03 0. -1.
    8880022    1    1    2    0    0 -0.35087955312E+03 -0.90467276545E+02  0.43637726891E+03  0.58746707376E+03  0.15294330000E+03 0.  1.
<mgrwt>
<rscale>  0 0.63934283E+03</rscale>
<asrwt>0</asrwt>
<pdfrwt beam="1">  1        2 0.27246503E+00 0.75173865E+03</pdfrwt>
<pdfrwt beam="2">  1       -2 0.28884647E-01 0.75173865E+03</pdfrwt>
<totfact> 0.10065855E+02</totfact>
</mgrwt>
</event>
<event>
 4    1  0.5223852E-007  0.8588219E+03  0.7818608E-02  0.9595662E-01
          2   -1    0    0  501    0  0.00000000000E+00  0.00000000000E+00  0.40744819832E+03  0.40744819833E+03  0.25500000000E-02 0. -1.
         -2   -1    0    0    0  501 -0.00000000000E+00 -0.00000000000E+00 -0.14389678686E+04  0.14389678686E+04  0.25500000000E-02 0.  1.
    8880023    1    1    2    0    0 -0.36798540658E+03 -0.41030680721E+03 -0.92930522463E+03  0.12653787347E+04  0.65864270000E+03 0.  0.
    8880022    1    1    2    0    0  0.36798540658E+03  0.41030680721E+03 -0.10221444564E+03  0.58103733220E+03  0.15294330000E+03 0.  0.
<mgrwt>
<rscale>  0 0.77583936E+03</rscale>
<asrwt>0</asrwt>
<pdfrwt beam="1">  1        2 0.62684339E-01 0.85882195E+03</pdfrwt>
<pdfrwt beam="2">  1       -2 0.22137967E+00 0.85882195E+03</pdfrwt>
<totfact> 0.76253685E+00</totfact>
</mgrwt>
</event>
<event>
 4    1  0.5223852E-007  0.7640660E+03  0.7818608E-02  0.9794693E-01
         -2   -1    0    0    0  501 -0.00000000000E+00  0.00000000000E+00  0.60976944992E+03  0.60976944992E+03  0.25500000000E-02 0.  1.
          2   -1    0    0  501    0  0.00000000000E+00 -0.00000000000E+00 -0.97580006803E+03  0.97580006803E+03  0.25500000000E-02 0. -1.
    8880023    1    1    2    0    0  0.32920314843E+03  0.20399007107E+03  0.28271579464E+03  0.81469324831E+03  0.65864270000E+03 0.  1.
    8880022    1    1    2    0    0 -0.32920314843E+03 -0.20399007107E+03 -0.64874641275E+03  0.77087626965E+03  0.15294330000E+03 0.  0.
<mgrwt>
<rscale>  0 0.65648152E+03</rscale>
<asrwt>0</asrwt>
<pdfrwt beam="1">  1        2 0.15012309E+00 0.76406601E+03</pdfrwt>
<pdfrwt beam="2">  1       -2 0.93810685E-01 0.76406601E+03</pdfrwt>
<totfact> 0.25431406E+01</totfact>
</mgrwt>
</event>
<event>
 4    1  0.5223852E-007  0.7574584E+03  0.7818608E-02  0.9811732E-01
          2   -1    0    0  501    0  0.00000000000E+00  0.00000000000E+00  0.23178588454E+04  0.23178588454E+04  0.25500000000E-02 0. -1.
         -2   -1    0    0    0  501 -0.00000000000E+00 -0.00000000000E+00 -0.22659360522E+03  0.22659360523E+03  0.25500000000E-02 0.  1.
    8880023    1    1    2    0    0 -0.61710150409E+02  0.36895096964E+03  0.51192804265E+03  0.91422835647E+03  0.65864270000E+03 0.  1.
    8880022    1    1    2    0    0  0.61710150409E+02 -0.36895096964E+03  0.15793371975E+04  0.16302240942E+04  0.15294330000E+03 0.  0.
<mgrwt>
<rscale>  0 0.64736696E+03</rscale>
<asrwt>0</asrwt>
<pdfrwt beam="1">  1        2 0.35659367E+00 0.75745836E+03</pdfrwt>
<pdfrwt beam="2">  1       -2 0.34860554E-01 0.75745836E+03</pdfrwt>
<totfact> 0.35461290E+01</totfact>
</mgrwt>
</event>
<event>
 4    1  0.5223852E-007  0.7811950E+03  0.7818608E-02  0.9753037E-01
         -2   -1    0    0    0  501 -0.00000000000E+00  0.00000000000E+00  0.25119049144E+03  0.25119049145E+03  0.25500000000E-02 0.  1.
          2   -1    0    0  501    0  0.00000000000E+00 -0.00000000000E+00 -0.24428802087E+04  0.24428802088E+04  0.25500000000E-02 0. -1.
    8880023    1    1    2    0    0 -0.39299123068E+03  0.14836883810E+03 -0.46208574131E+03  0.90762814968E+03  0.65864270000E+03 0.  1.
    8880022    1    1    2    0    0  0.39299123068E+03 -0.14836883810E+03 -0.17296039760E+04  0.17864425505E+04  0.15294330000E+03 0.  0.
<mgrwt>
<rscale>  0 0.67944892E+03</rscale>
<asrwt>0</asrwt>
<pdfrwt beam="1">  1        2 0.37582771E+00 0.78119500E+03</pdfrwt>
<pdfrwt beam="2">  1       -2 0.38644693E-01 0.78119500E+03</pdfrwt>
<totfact> 0.24679191E+01</totfact>
</mgrwt>
</event>
<event>
 4    1  0.5223852E-007  0.7909223E+03  0.7818608E-02  0.9730779E-01
         -2   -1    0    0    0  501 -0.00000000000E+00  0.00000000000E+00  0.92978363846E+03  0.92978363846E+03  0.25500000000E-02 0.  1.
          2   -1    0    0  501    0  0.00000000000E+00 -0.00000000000E+00 -0.43517847727E+03  0.43517847728E+03  0.25500000000E-02 0. -1.
    8880023    1    1    2    0    0 -0.22795352045E+03 -0.37387841910E+03  0.20116889185E+03  0.81610477824E+03  0.65864270000E+03 0.  1.
    8880022    1    1    2    0    0  0.22795352045E+03  0.37387841910E+03  0.29343626935E+03  0.54885733751E+03  0.15294330000E+03 0. -1.
<mgrwt>
<rscale>  0 0.69213433E+03</rscale>
<asrwt>0</asrwt>
<pdfrwt beam="1">  1        2 0.66950536E-01 0.79092230E+03</pdfrwt>
<pdfrwt beam="2">  1       -2 0.14304364E+00 0.79092230E+03</pdfrwt>
<totfact> 0.24770718E+01</totfact>
</mgrwt>
</event>
<event>
 4    1  0.5223852E-007  0.7707739E+03  0.7818608E-02  0.9777973E-01
          2   -1    0    0  501    0  0.00000000000E+00  0.00000000000E+00  0.88056068767E+03  0.88056068767E+03  0.25500000000E-02 0. -1.
         -2   -1    0    0    0  501 -0.00000000000E+00 -0.00000000000E+00 -0.49683289474E+03  0.49683289474E+03  0.25500000000E-02 0.  1.
    8880023    1    1    2    0    0 -0.34727179079E+03 -0.19920959910E+03 -0.43828729639E+02  0.77201899255E+03  0.65864270000E+03 0.  1.
    8880022    1    1    2    0    0  0.34727179079E+03  0.19920959910E+03  0.42755652257E+03  0.60537458987E+03  0.15294330000E+03 0.  0.
<mgrwt>
<rscale>  0 0.66558135E+03</rscale>
<asrwt>0</asrwt>
<pdfrwt beam="1">  1        2 0.13547087E+00 0.77077388E+03</pdfrwt>
<pdfrwt beam="2">  1       -2 0.76435832E-01 0.77077388E+03</pdfrwt>
<totfact> 0.46864916E+01</totfact>
</mgrwt>
</event>
<event>
 4    1  0.5223852E-007  0.8256553E+03  0.7818608E-02  0.9657846E-01
          2   -1    0    0  501    0  0.00000000000E+00  0.00000000000E+00  0.11270036588E+04  0.11270036588E+04  0.25500000000E-02 0. -1.
         -2   -1    0    0    0  501 -0.00000000000E+00 -0.00000000000E+00 -0.54265098488E+03  0.54265098489E+03  0.25500000000E-02 0.  1.
    8880023    1    1    2    0    0  0.36630979638E+03 -0.33721457896E+03 -0.75390108956E+02  0.82909011210E+03  0.65864270000E+03 0.  1.
    8880022    1    1    2    0    0 -0.36630979638E+03  0.33721457896E+03  0.65974278289E+03  0.84056453160E+03  0.15294330000E+03 0.  0.
<mgrwt>
<rscale>  0 0.73583079E+03</rscale>
<asrwt>0</asrwt>
<pdfrwt beam="1">  1        2 0.17338518E+00 0.82565534E+03</pdfrwt>
<pdfrwt beam="2">  1       -2 0.83484767E-01 0.82565534E+03</pdfrwt>
<totfact> 0.26590481E+01</totfact>
</mgrwt>
</event>
<event>
 4    1  0.5223852E-007  0.6609273E+03  0.7818608E-02  0.1023226E+00
          2   -1    0    0  501    0  0.00000000000E+00  0.00000000000E+00  0.12787589096E+04  0.12787589096E+04  0.25500000000E-02 0. -1.
         -2   -1    0    0    0  501 -0.00000000000E+00 -0.00000000000E+00 -0.53290282353E+03  0.53290282354E+03  0.25500000000E-02 0.  1.
    8880023    1    1    2    0    0  0.10912384873E+02  0.53810709030E+02 -0.31941721369E+03  0.73406555240E+03  0.65864270000E+03 0.  1.
    8880022    1    1    2    0    0 -0.10912384873E+02 -0.53810709030E+02  0.10652732997E+04  0.10775961807E+04  0.15294330000E+03 0.  0.
<mgrwt>
<rscale>  0 0.46540255E+03</rscale>
<asrwt>0</asrwt>
<pdfrwt beam="1">  1        2 0.19673214E+00 0.66092729E+03</pdfrwt>
<pdfrwt beam="2">  1       -2 0.81985051E-01 0.66092729E+03</pdfrwt>
<totfact> 0.22940849E+01</totfact>
</mgrwt>
</event>
<event>
 4    1  0.5223852E-007  0.7477509E+03  0.7818608E-02  0.9837919E-01
         -2   -1    0    0    0  501 -0.00000000000E+00  0.00000000000E+00  0.23710749411E+03  0.23710749413E+03  0.25500000000E-02 0.  1.
          2   -1    0    0  501    0  0.00000000000E+00 -0.00000000000E+00 -0.15134818945E+04  0.15134818945E+04  0.25500000000E-02 0. -1.
    8880023    1    1    2    0    0  0.34041259010E+03 -0.97161839454E+02 -0.55015837696E+03  0.92833485367E+03  0.65864270000E+03 0. -1.
    8880022    1    1    2    0    0 -0.34041259010E+03  0.97161839454E+02 -0.72621602338E+03  0.82225453491E+03  0.15294330000E+03 0.  1.
<mgrwt>
<rscale>  0 0.63366722E+03</rscale>
<asrwt>0</asrwt>
<pdfrwt beam="1">  1        2 0.23284336E+00 0.74775087E+03</pdfrwt>
<pdfrwt beam="2">  1       -2 0.36478077E-01 0.74775087E+03</pdfrwt>
<totfact> 0.89946078E+01</totfact>
</mgrwt>
</event>
<event>
 4    1  0.5223852E-007  0.8916910E+03  0.7818608E-02  0.9539504E-01
         -2   -1    0    0    0  501 -0.00000000000E+00  0.00000000000E+00  0.21122545964E+03  0.21122545965E+03  0.25500000000E-02 0.  1.
          2   -1    0    0  501    0  0.00000000000E+00 -0.00000000000E+00 -0.29565106816E+04  0.29565106816E+04  0.25500000000E-02 0. -1.
    8880023    1    1    2    0    0  0.57107728172E+03 -0.18754556776E+03 -0.20527674225E+04  0.22380721389E+04  0.65864270000E+03 0.  1.
    8880022    1    1    2    0    0 -0.57107728172E+03  0.18754556776E+03 -0.69251779937E+03  0.92966400228E+03  0.15294330000E+03 0.  0.
<mgrwt>
<rscale>  0 0.81432964E+03</rscale>
<asrwt>0</asrwt>
<pdfrwt beam="1">  1        2 0.45484777E+00 0.89169098E+03</pdfrwt>
<pdfrwt beam="2">  1       -2 0.32496227E-01 0.89169098E+03</pdfrwt>
<totfact> 0.16944185E+01</totfact>
</mgrwt>
</event>
<event>
 4    1  0.5223852E-007  0.9237942E+03  0.7818608E-02  0.9488866E-01
         -2   -1    0    0    0  501 -0.00000000000E+00  0.00000000000E+00  0.96310124174E+03  0.96310124174E+03  0.25500000000E-02 0.  1.
          2   -1    0    0  501    0  0.00000000000E+00 -0.00000000000E+00 -0.10589030472E+04  0.10589030472E+04  0.25500000000E-02 0. -1.
    8880023    1    1    2    0    0  0.52786558324E+02 -0.64559976515E+03  0.56600981162E+03  0.10834033370E+04  0.65864270000E+03 0.  0.
    8880022    1    1    2    0    0 -0.52786558324E+02  0.64559976515E+03 -0.66181161711E+03  0.93860095198E+03  0.15294330000E+03 0.  0.
<mgrwt>
<rscale>  0 0.85109704E+03</rscale>
<asrwt>0</asrwt>
<pdfrwt beam="1">  1        2 0.16290816E+00 0.92379418E+03</pdfrwt>
<pdfrwt beam="2">  1       -2 0.14816942E+00 0.92379418E+03</pdfrwt>
<totfact> 0.71444972E+00</totfact>
</mgrwt>
</event>
<event>
 4    1  0.5223852E-007  0.7860556E+03  0.7818608E-02  0.9741800E-01
          2   -1    0    0  501    0  0.00000000000E+00  0.00000000000E+00  0.44135116890E+03  0.44135116891E+03  0.25500000000E-02 0. -1.
         -2   -1    0    0    0  501 -0.00000000000E+00 -0.00000000000E+00 -0.11674618555E+04  0.11674618555E+04  0.25500000000E-02 0.  1.
    8880023    1    1    2    0    0  0.42541982302E+03 -0.55597890501E+02 -0.82840048083E+03  0.11419854264E+04  0.65864270000E+03 0.  1.
    8880022    1    1    2    0    0 -0.42541982302E+03  0.55597890501E+02  0.10228979421E+03  0.46682759801E+03  0.15294330000E+03 0.  0.
<mgrwt>
<rscale>  0 0.68581660E+03</rscale>
<asrwt>0</asrwt>
<pdfrwt beam="1">  1        2 0.67900180E-01 0.78605557E+03</pdfrwt>
<pdfrwt beam="2">  1       -2 0.17960951E+00 0.78605557E+03</pdfrwt>
<totfact> 0.13138761E+01</totfact>
</mgrwt>
</event>
<event>
 4    1  0.5223852E-007  0.7658354E+03  0.7818608E-02  0.9790228E-01
          2   -1    0    0  501    0  0.00000000000E+00  0.00000000000E+00  0.26785459530E+04  0.26785459530E+04  0.25500000000E-02 0. -1.
         -2   -1    0    0    0  501 -0.00000000000E+00 -0.00000000000E+00 -0.24135559203E+03  0.24135559204E+03  0.25500000000E-02 0.  1.
    8880023    1    1    2    0    0 -0.31631200192E+03  0.22943477631E+03  0.44866544364E+03  0.88758350915E+03  0.65864270000E+03 0.  1.
    8880022    1    1    2    0    0  0.31631200192E+03 -0.22943477631E+03  0.19885249173E+04  0.20323180359E+04  0.15294330000E+03 0.  0.
<mgrwt>
<rscale>  0 0.65889610E+03</rscale>
<asrwt>0</asrwt>
<pdfrwt beam="1">  1        2 0.41208397E+00 0.76583536E+03</pdfrwt>
<pdfrwt beam="2">  1       -2 0.37131631E-01 0.76583536E+03</pdfrwt>
<totfact> 0.19590082E+01</totfact>
</mgrwt>
</event>
<event>
 4    1  0.5223852E-007  0.8047524E+03  0.7818608E-02  0.9700613E-01
          2   -1    0    0  501    0  0.00000000000E+00  0.00000000000E+00  0.12050810242E+04  0.12050810242E+04  0.25500000000E-02 0. -1.
         -2   -1    0    0    0  501 -0.00000000000E+00 -0.00000000000E+00 -0.44839885786E+03  0.44839885787E+03  0.25500000000E-02 0.  1.
    8880023    1    1    2    0    0  0.45386224761E+03 -0.88461051314E+02  0.64788124398E+02  0.80735618207E+03  0.65864270000E+03 0.  1.
    8880022    1    1    2    0    0 -0.45386224761E+03  0.88461051314E+02  0.69189404190E+03  0.84612369996E+03  0.15294330000E+03 0.  0.
<mgrwt>
<rscale>  0 0.70980309E+03</rscale>
<asrwt>0</asrwt>
<pdfrwt beam="1">  1        2 0.18539708E+00 0.80475245E+03</pdfrwt>
<pdfrwt beam="2">  1       -2 0.68984440E-01 0.80475245E+03</pdfrwt>
<totfact> 0.36568756E+01</totfact>
</mgrwt>
</event>
<event>
 4    1  0.5223852E-007  0.9315542E+03  0.7818608E-02  0.9477165E-01
          2   -1    0    0  501    0  0.00000000000E+00  0.00000000000E+00  0.32314262205E+04  0.32314262205E+04  0.25500000000E-02 0. -1.
         -2   -1    0    0    0  501 -0.00000000000E+00 -0.00000000000E+00 -0.20756787838E+03  0.20756787839E+03  0.25500000000E-02 0.  1.
    8880023    1    1    2    0    0  0.46831909528E+03  0.46331448424E+03  0.14189578623E+04  0.16974200151E+04  0.65864270000E+03 0.  0.
    8880022    1    1    2    0    0 -0.46831909528E+03 -0.46331448424E+03  0.16049004798E+04  0.17415740838E+04  0.15294330000E+03 0.  0.
<mgrwt>
<rscale>  0 0.85988452E+03</rscale>
<asrwt>0</asrwt>
<pdfrwt beam="1">  1        2 0.49714252E+00 0.93155423E+03</pdfrwt>
<pdfrwt beam="2">  1       -2 0.31933518E-01 0.93155423E+03</pdfrwt>
<totfact> 0.11711167E+01</totfact>
</mgrwt>
</event>
<event>
 4    1  0.5223852E-007  0.7352978E+03  0.7818608E-02  0.9873862E-01
         -2   -1    0    0    0  501 -0.00000000000E+00  0.00000000000E+00  0.71321475472E+03  0.71321475472E+03  0.25500000000E-02 0.  1.
          2   -1    0    0  501    0  0.00000000000E+00 -0.00000000000E+00 -0.14063943854E+04  0.14063943854E+04  0.25500000000E-02 0. -1.
    8880023    1    1    2    0    0  0.13414740430E+03 -0.29808918088E+03  0.48934175459E+03  0.88324302708E+03  0.65864270000E+03 0.  1.
    8880022    1    1    2    0    0 -0.13414740430E+03  0.29808918088E+03 -0.11825213853E+04  0.12363661130E+04  0.15294330000E+03 0.  0.
<mgrwt>
<rscale>  0 0.61544935E+03</rscale>
<asrwt>0</asrwt>
<pdfrwt beam="1">  1        2 0.21636837E+00 0.73529783E+03</pdfrwt>
<pdfrwt beam="2">  1       -2 0.10972535E+00 0.73529783E+03</pdfrwt>
<totfact> 0.97228122E+00</totfact>
</mgrwt>
</event>
<event>
 4    1  0.5223852E-007  0.1204724E+04  0.7818608E-02  0.9152544E-01
         -2   -1    0    0    0  501 -0.00000000000E+00  0.00000000000E+00  0.78351059288E+03  0.78351059288E+03  0.25500000000E-02 0.  1.
          2   -1    0    0  501    0  0.00000000000E+00 -0.00000000000E+00 -0.23733296804E+04  0.23733296804E+04  0.25500000000E-02 0. -1.
    8880023    1    1    2    0    0 -0.75295442421E+03 -0.67127499345E+03  0.71939236774E+02  0.12068703086E+04  0.65864270000E+03 0.  0.
    8880022    1    1    2    0    0  0.75295442421E+03  0.67127499345E+03 -0.16617583243E+04  0.19499699647E+04  0.15294330000E+03 0.  0.
<mgrwt>
<rscale>  0 0.11556973E+04</rscale>
<asrwt>0</asrwt>
<pdfrwt beam="1">  1        2 0.36512764E+00 0.12047243E+04</pdfrwt>
<pdfrwt beam="2">  1       -2 0.12054009E+00 0.12047243E+04</pdfrwt>
<totfact> 0.21162933E+00</totfact>
</mgrwt>
</event>
<event>
 4    1  0.5223852E-007  0.8706238E+03  0.7818608E-02  0.9574938E-01
          2   -1    0    0  501    0  0.00000000000E+00  0.00000000000E+00  0.58279793237E+03  0.58279793238E+03  0.25500000000E-02 0. -1.
         -2   -1    0    0    0  501 -0.00000000000E+00 -0.00000000000E+00 -0.13087298260E+04  0.13087298260E+04  0.25500000000E-02 0.  1.
    8880023    1    1    2    0    0  0.56210304023E+03  0.90641131552E+02 -0.92404286117E+03  0.12695830253E+04  0.65864270000E+03 0.  0.
    8880022    1    1    2    0    0 -0.56210304023E+03 -0.90641131552E+02  0.19811096753E+03  0.62194473310E+03  0.15294330000E+03 0.  0.
<mgrwt>
<rscale>  0 0.78977390E+03</rscale>
<asrwt>0</asrwt>
<pdfrwt beam="1">  1        2 0.89661221E-01 0.87062383E+03</pdfrwt>
<pdfrwt beam="2">  1       -2 0.20134305E+00 0.87062383E+03</pdfrwt>
<totfact> 0.67405278E+00</totfact>
</mgrwt>
</event>
<event>
 4    1  0.5279276E-007  0.8563325E+03  0.7818608E-02  0.9600121E-01
         -2   -1    0    0    0  501 -0.00000000000E+00  0.00000000000E+00  0.20534535650E+04  0.20534535650E+04  0.25500000000E-02 0.  1.
          2   -1    0    0  501    0  0.00000000000E+00 -0.00000000000E+00 -0.98413556147E+03  0.98413556147E+03  0.25500000000E-02 0. -1.
    8880023    1    1    2    0    0 -0.14646837898E+01 -0.54725955958E+03  0.18694310282E+04  0.20562290111E+04  0.65864270000E+03 0.  0.
    8880022    1    1    2    0    0  0.14646837898E+01  0.54725955958E+03 -0.80011302462E+03  0.98136011536E+03  0.15294330000E+03 0.  0.
<mgrwt>
<rscale>  0 0.77288186E+03</rscale>
<asrwt>0</asrwt>
<pdfrwt beam="1">  1        2 0.15140547E+00 0.85633252E+03</pdfrwt>
<pdfrwt beam="2">  1       -2 0.31591593E+00 0.85633252E+03</pdfrwt>
<totfact> 0.67384165E-01</totfact>
</mgrwt>
</event>
<event>
 4    1  0.5223852E-007  0.7373749E+03  0.7818608E-02  0.9867661E-01
          2   -1    0    0  501    0  0.00000000000E+00  0.00000000000E+00  0.17885729351E+04  0.17885729351E+04  0.25500000000E-02 0. -1.
         -2   -1    0    0    0  501 -0.00000000000E+00 -0.00000000000E+00 -0.10408279509E+04  0.10408279509E+04  0.25500000000E-02 0.  1.
    8880023    1    1    2    0    0  0.39858521474E+01  0.33150503711E+03 -0.88752217942E+03  0.11538705741E+04  0.65864270000E+03 0.  1.
    8880022    1    1    2    0    0 -0.39858521474E+01 -0.33150503711E+03  0.16352671636E+04  0.16755303119E+04  0.15294330000E+03 0.  0.
<mgrwt>
<rscale>  0 0.61854498E+03</rscale>
<asrwt>0</asrwt>
<pdfrwt beam="1">  1        2 0.27516507E+00 0.73737486E+03</pdfrwt>
<pdfrwt beam="2">  1       -2 0.16012738E+00 0.73737486E+03</pdfrwt>
<totfact> 0.22798392E+00</totfact>
</mgrwt>
</event>
<event>
 4    1  0.5223852E-007  0.7567576E+03  0.7818608E-02  0.9813575E-01
          2   -1    0    0  501    0  0.00000000000E+00  0.00000000000E+00  0.24329992940E+04  0.24329992940E+04  0.25500000000E-02 0. -1.
         -2   -1    0    0    0  501 -0.00000000000E+00 -0.00000000000E+00 -0.28040471285E+03  0.28040471286E+03  0.25500000000E-02 0.  1.
    8880023    1    1    2    0    0 -0.10843400736E+03 -0.35653044969E+03  0.29432968278E+03  0.81198033470E+03  0.65864270000E+03 0.  1.
    8880022    1    1    2    0    0  0.10843400736E+03  0.35653044969E+03  0.18582648984E+04  0.19014236721E+04  0.15294330000E+03 0.  0.
<mgrwt>
<rscale>  0 0.64639089E+03</rscale>
<asrwt>0</asrwt>
<pdfrwt beam="1">  1        2 0.37430758E+00 0.75675762E+03</pdfrwt>
<pdfrwt beam="2">  1       -2 0.43139187E-01 0.75675762E+03</pdfrwt>
<totfact> 0.20222928E+01</totfact>
</mgrwt>
</event>
<event>
 4    1  0.5223852E-007  0.9459453E+03  0.7818608E-02  0.9455972E-01
          2   -1    0    0  501    0  0.00000000000E+00  0.00000000000E+00  0.32832348472E+04  0.32832348472E+04  0.25500000000E-02 0. -1.
         -2   -1    0    0    0  501 -0.00000000000E+00 -0.00000000000E+00 -0.35603921727E+03  0.35603921728E+03  0.25500000000E-02 0.  1.
    8880023    1    1    2    0    0 -0.23799165462E+03 -0.63589484514E+03  0.41593129994E+03  0.10333495702E+04  0.65864270000E+03 0.  0.
    8880022    1    1    2    0    0  0.23799165462E+03  0.63589484514E+03  0.25112643300E+04  0.26059244943E+04  0.15294330000E+03 0.  0.
<mgrwt>
<rscale>  0 0.87609127E+03</rscale>
<asrwt>0</asrwt>
<pdfrwt beam="1">  1        2 0.50511305E+00 0.94594529E+03</pdfrwt>
<pdfrwt beam="2">  1       -2 0.54775264E-01 0.94594529E+03</pdfrwt>
<totfact> 0.37244320E+00</totfact>
</mgrwt>
</event>
<event>
 4    1  0.5223852E-007  0.7283137E+03  0.7818608E-02  0.9895398E-01
          2   -1    0    0  501    0  0.00000000000E+00  0.00000000000E+00  0.91365313469E+03  0.91365313469E+03  0.25500000000E-02 0. -1.
         -2   -1    0    0    0  501 -0.00000000000E+00 -0.00000000000E+00 -0.41815637486E+03  0.41815637487E+03  0.25500000000E-02 0.  1.
    8880023    1    1    2    0    0  0.53202809548E+02  0.30626794518E+03  0.62722157245E+03  0.96116996436E+03  0.65864270000E+03 0. -1.
    8880022    1    1    2    0    0 -0.53202809548E+02 -0.30626794518E+03 -0.13172481262E+03  0.37063954519E+03  0.15294330000E+03 0.  0.
<mgrwt>
<rscale>  0 0.60484844E+03</rscale>
<asrwt>0</asrwt>
<pdfrwt beam="1">  1        2 0.14056202E+00 0.72831367E+03</pdfrwt>
<pdfrwt beam="2">  1       -2 0.64331751E-01 0.72831367E+03</pdfrwt>
<totfact> 0.65097030E+01</totfact>
</mgrwt>
</event>
<event>
 4    1  0.5223852E-007  0.1740398E+04  0.7818608E-02  0.8756243E-01
          2   -1    0    0  501    0  0.00000000000E+00  0.00000000000E+00  0.53905094268E+04  0.53905094268E+04  0.25500000000E-02 0. -1.
         -2   -1    0    0    0  501 -0.00000000000E+00 -0.00000000000E+00 -0.67333137174E+03  0.67333137174E+03  0.25500000000E-02 0.  1.
    8880023    1    1    2    0    0 -0.14738904922E+04 -0.65024733699E+03  0.38564250336E+04  0.42309572237E+04  0.65864270000E+03 0.  0.
    8880022    1    1    2    0    0  0.14738904922E+04  0.65024733699E+03  0.86075302140E+03  0.18328835749E+04  0.15294330000E+03 0.  0.
<mgrwt>
<rscale>  0 0.17090091E+04</rscale>
<asrwt>0</asrwt>
<pdfrwt beam="1">  1        2 0.82930915E+00 0.17403979E+04</pdfrwt>
<pdfrwt beam="2">  1       -2 0.10358944E+00 0.17403979E+04</pdfrwt>
<totfact> 0.68684578E-03</totfact>
</mgrwt>
</event>
<event>
 4    1  0.5223852E-007  0.1196028E+04  0.7818608E-02  0.9160994E-01
         -2   -1    0    0    0  501 -0.00000000000E+00  0.00000000000E+00  0.92290620634E+03  0.92290620635E+03  0.25500000000E-02 0.  1.
          2   -1    0    0  501    0  0.00000000000E+00 -0.00000000000E+00 -0.32592969633E+04  0.32592969633E+04  0.25500000000E-02 0. -1.
    8880023    1    1    2    0    0  0.96987968030E+03  0.23665406715E+03  0.40336625623E+03  0.12622148330E+04  0.65864270000E+03 0.  1.
    8880022    1    1    2    0    0 -0.96987968030E+03 -0.23665406715E+03 -0.27397570132E+04  0.29199883366E+04  0.15294330000E+03 0.  0.
<mgrwt>
<rscale>  0 0.11465270E+04</rscale>
<asrwt>0</asrwt>
<pdfrwt beam="1">  1        2 0.50143030E+00 0.11960276E+04</pdfrwt>
<pdfrwt beam="2">  1       -2 0.14198557E+00 0.11960276E+04</pdfrwt>
<totfact> 0.40670741E-01</totfact>
</mgrwt>
</event>
<event>
 4    1  0.5223852E-007  0.6587567E+03  0.7818608E-02  0.1025468E+00
         -2   -1    0    0    0  501 -0.00000000000E+00  0.00000000000E+00  0.12919143895E+03  0.12919143898E+03  0.25500000000E-02 0.  1.
          2   -1    0    0  501    0  0.00000000000E+00 -0.00000000000E+00 -0.40715551458E+04  0.40715551458E+04  0.25500000000E-02 0. -1.
    8880023    1    1    2    0    0 -0.56751131521E+01 -0.10862131848E+02 -0.72445111996E+03  0.97917813716E+03  0.65864270000E+03 0.  1.
    8880022    1    1    2    0    0  0.56751131521E+01  0.10862131848E+02 -0.32179125869E+04  0.32215684477E+04  0.15294330000E+03 0.  0.
<mgrwt>
<rscale>  0 0.45763987E+03</rscale>
<asrwt>0</asrwt>
<pdfrwt beam="1">  1        2 0.62639300E+00 0.65875671E+03</pdfrwt>
<pdfrwt beam="2">  1       -2 0.19875609E-01 0.65875671E+03</pdfrwt>
<totfact> 0.72831429E+00</totfact>
</mgrwt>
</event>
<event>
 4    1  0.5223852E-007  0.8442051E+03  0.7818608E-02  0.9622302E-01
          2   -1    0    0  501    0  0.00000000000E+00  0.00000000000E+00  0.34994733716E+04  0.34994733716E+04  0.25500000000E-02 0. -1.
         -2   -1    0    0    0  501 -0.00000000000E+00 -0.00000000000E+00 -0.19769024739E+03  0.19769024740E+03  0.25500000000E-02 0.  1.
    8880023    1    1    2    0    0  0.11947477904E+03  0.51439069746E+03  0.90290407759E+03  0.12360897993E+04  0.65864270000E+03 0.  1.
    8880022    1    1    2    0    0 -0.11947477904E+03 -0.51439069746E+03  0.23988790466E+04  0.24610738196E+04  0.15294330000E+03 0.  0.
<mgrwt>
<rscale>  0 0.75837536E+03</rscale>
<asrwt>0</asrwt>
<pdfrwt beam="1">  1        2 0.53838058E+00 0.84420508E+03</pdfrwt>
<pdfrwt beam="2">  1       -2 0.30413881E-01 0.84420508E+03</pdfrwt>
<totfact> 0.86353158E+00</totfact>
</mgrwt>
</event>
<event>
 4    1  0.5223852E-007  0.7260177E+03  0.7818608E-02  0.9902726E-01
         -2   -1    0    0    0  501 -0.00000000000E+00  0.00000000000E+00  0.10837911953E+04  0.10837911953E+04  0.25500000000E-02 0.  1.
          2   -1    0    0  501    0  0.00000000000E+00 -0.00000000000E+00 -0.51514898640E+03  0.51514898640E+03  0.25500000000E-02 0. -1.
    8880023    1    1    2    0    0 -0.25077640576E+03  0.17436351534E+03  0.87716436327E+03  0.11386478681E+04  0.65864270000E+03 0.  1.
    8880022    1    1    2    0    0  0.25077640576E+03 -0.17436351534E+03 -0.30852215437E+03  0.46029231356E+03  0.15294330000E+03 0.  1.
<mgrwt>
<rscale>  0 0.60129332E+03</rscale>
<asrwt>0</asrwt>
<pdfrwt beam="1">  1        2 0.79253691E-01 0.72601766E+03</pdfrwt>
<pdfrwt beam="2">  1       -2 0.16673711E+00 0.72601766E+03</pdfrwt>
<totfact> 0.13611395E+01</totfact>
</mgrwt>
</event>
<event>
 4    1  0.5223852E-007  0.9486606E+03  0.7818608E-02  0.9452044E-01
          2   -1    0    0  501    0  0.00000000000E+00  0.00000000000E+00  0.28766018734E+04  0.28766018734E+04  0.25500000000E-02 0. -1.
         -2   -1    0    0    0  501 -0.00000000000E+00 -0.00000000000E+00 -0.64748834424E+03  0.64748834424E+03  0.25500000000E-02 0.  1.
    8880023    1    1    2    0    0  0.40398581792E+03 -0.55040188346E+03 -0.22265693128E+03  0.97443988512E+03  0.65864270000E+03 0.  0.
    8880022    1    1    2    0    0 -0.40398581792E+03  0.55040188346E+03  0.24517704604E+04  0.25496503325E+04  0.15294330000E+03 0.  0.
<mgrwt>
<rscale>  0 0.87913689E+03</rscale>
<asrwt>0</asrwt>
<pdfrwt beam="1">  1        2 0.44255412E+00 0.94866062E+03</pdfrwt>
<pdfrwt beam="2">  1       -2 0.99613595E-01 0.94866062E+03</pdfrwt>
<totfact> 0.17744073E+00</totfact>
</mgrwt>
</event>
<event>
 4    1  0.5223852E-007  0.1782261E+04  0.7818608E-02  0.8732413E-01
          2   -1    0    0  501    0  0.00000000000E+00  0.00000000000E+00  0.17099571295E+04  0.17099571295E+04  0.25500000000E-02 0. -1.
         -2   -1    0    0    0  501 -0.00000000000E+00 -0.00000000000E+00 -0.18400154893E+04  0.18400154893E+04  0.25500000000E-02 0.  1.
    8880023    1    1    2    0    0  0.16362990852E+04 -0.25528543983E+03 -0.48986388274E+03  0.18483566165E+04  0.65864270000E+03 0.  0.
    8880022    1    1    2    0    0 -0.16362990852E+04  0.25528543983E+03  0.35980552294E+03  0.17016160023E+04  0.15294330000E+03 0.  0.
<mgrwt>
<rscale>  0 0.17517043E+04</rscale>
<asrwt>0</asrwt>
<pdfrwt beam="1">  1        2 0.26307033E+00 0.17822614E+04</pdfrwt>
<pdfrwt beam="2">  1       -2 0.28307930E+00 0.17822614E+04</pdfrwt>
<totfact> 0.35648645E-01</totfact>
</mgrwt>
</event>
<event>
 4    1  0.5223852E-007  0.6669119E+03  0.7818608E-02  0.1017981E+00
         -2   -1    0    0    0  501 -0.00000000000E+00  0.00000000000E+00  0.30212615161E+03  0.30212615162E+03  0.25500000000E-02 0.  1.
          2   -1    0    0  501    0  0.00000000000E+00 -0.00000000000E+00 -0.90658945025E+03  0.90658945025E+03  0.25500000000E-02 0. -1.
    8880023    1    1    2    0    0 -0.84547668856E+02 -0.61749271337E+02 -0.10392163492E+03  0.67496014200E+03  0.65864270000E+03 0.  0.
    8880022    1    1    2    0    0  0.84547668856E+02  0.61749271337E+02 -0.50054166371E+03  0.53375545988E+03  0.15294330000E+03 0. -1.
<mgrwt>
<rscale>  0 0.48422458E+03</rscale>
<asrwt>0</asrwt>
<pdfrwt beam="1">  1        2 0.13947530E+00 0.66691190E+03</pdfrwt>
<pdfrwt beam="2">  1       -2 0.46480947E-01 0.66691190E+03</pdfrwt>
<totfact> 0.12961254E+02</totfact>
</mgrwt>
</event>
<event>
 4    1  0.5223852E-007  0.7085194E+03  0.7818608E-02  0.9963541E-01
         -2   -1    0    0    0  501 -0.00000000000E+00  0.00000000000E+00  0.10112926929E+03  0.10112926932E+03  0.25500000000E-02 0.  1.
          2   -1    0    0  501    0  0.00000000000E+00 -0.00000000000E+00 -0.31131929194E+04  0.31131929194E+04  0.25500000000E-02 0. -1.
    8880023    1    1    2    0    0 -0.17622254104E+03 -0.19270476667E+03 -0.13469402961E+04  0.15219224286E+04  0.65864270000E+03 0.  0.
    8880022    1    1    2    0    0  0.17622254104E+03  0.19270476667E+03 -0.16651233541E+04  0.16923997602E+04  0.15294330000E+03 0.  0.
<mgrwt>
<rscale>  0 0.57278228E+03</rscale>
<asrwt>0</asrwt>
<pdfrwt beam="1">  1        2 0.47895268E+00 0.70851938E+03</pdfrwt>
<pdfrwt beam="2">  1       -2 0.15558352E-01 0.70851938E+03</pdfrwt>
<totfact> 0.51814946E+01</totfact>
</mgrwt>
</event>
<event>
 4    1  0.5223852E-007  0.7839421E+03  0.7818608E-02  0.9746657E-01
         -2   -1    0    0    0  501 -0.00000000000E+00  0.00000000000E+00  0.15729664944E+03  0.15729664946E+03  0.25500000000E-02 0.  1.
          2   -1    0    0  501    0  0.00000000000E+00 -0.00000000000E+00 -0.25943940219E+04  0.25943940219E+04  0.25500000000E-02 0. -1.
    8880023    1    1    2    0    0  0.42097146151E+03  0.59481978352E+02 -0.11875984564E+04  0.14230092681E+04  0.65864270000E+03 0.  0.
    8880022    1    1    2    0    0 -0.42097146151E+03 -0.59481978352E+02 -0.12494989161E+04  0.13286814033E+04  0.15294330000E+03 0.  0.
<mgrwt>
<rscale>  0 0.68305522E+03</rscale>
<asrwt>0</asrwt>
<pdfrwt beam="1">  1        2 0.39913751E+00 0.78394214E+03</pdfrwt>
<pdfrwt beam="2">  1       -2 0.24199486E-01 0.78394214E+03</pdfrwt>
<totfact> 0.48420657E+01</totfact>
</mgrwt>
</event>
<event>
 4    1  0.5223852E-007  0.6587061E+03  0.7818608E-02  0.1025523E+00
         -2   -1    0    0    0  501 -0.00000000000E+00  0.00000000000E+00  0.11262931718E+04  0.11262931719E+04  0.25500000000E-02 0.  1.
          2   -1    0    0  501    0  0.00000000000E+00 -0.00000000000E+00 -0.19564216998E+03  0.19564216999E+03  0.25500000000E-02 0. -1.
    8880023    1    1    2    0    0 -0.91389797079E+01  0.18427391843E+00  0.96164711798E+03  0.11656152627E+04  0.65864270000E+03 0.  1.
    8880022    1    1    2    0    0  0.91389797079E+01 -0.18427391843E+00 -0.30996116114E+02  0.15632007912E+03  0.15294330000E+03 0.  0.
<mgrwt>
<rscale>  0 0.45745140E+03</rscale>
<asrwt>0</asrwt>
<pdfrwt beam="1">  1        2 0.30098796E-01 0.65870613E+03</pdfrwt>
<pdfrwt beam="2">  1       -2 0.17327587E+00 0.65870613E+03</pdfrwt>
<totfact> 0.36510878E+01</totfact>
</mgrwt>
</event>
<event>
 4    1  0.5223852E-007  0.6985177E+03  0.7818608E-02  0.1000341E+00
          2   -1    0    0  501    0  0.00000000000E+00  0.00000000000E+00  0.12467215297E+04  0.12467215297E+04  0.25500000000E-02 0. -1.
         -2   -1    0    0    0  501 -0.00000000000E+00 -0.00000000000E+00 -0.46343126156E+03  0.46343126157E+03  0.25500000000E-02 0.  1.
    8880023    1    1    2    0    0 -0.22863655603E+03 -0.42920263758E+02 -0.16843910044E+03  0.71853932434E+03  0.65864270000E+03 0.  1.
    8880022    1    1    2    0    0  0.22863655603E+03  0.42920263758E+02  0.95172936860E+03  0.99161346697E+03  0.15294330000E+03 0.  0.
<mgrwt>
<rscale>  0 0.55501118E+03</rscale>
<asrwt>0</asrwt>
<pdfrwt beam="1">  1        2 0.19180331E+00 0.69851774E+03</pdfrwt>
<pdfrwt beam="2">  1       -2 0.71297117E-01 0.69851774E+03</pdfrwt>
<totfact> 0.32514832E+01</totfact>
</mgrwt>
</event>
<event>
 4    1  0.5223852E-007  0.6837993E+03  0.7818608E-02  0.1007251E+00
         -2   -1    0    0    0  501 -0.00000000000E+00  0.00000000000E+00  0.36769579489E+03  0.36769579490E+03  0.25500000000E-02 0.  1.
          2   -1    0    0  501    0  0.00000000000E+00 -0.00000000000E+00 -0.16104367017E+04  0.16104367017E+04  0.25500000000E-02 0. -1.
    8880023    1    1    2    0    0 -0.16434903771E+03 -0.82223451752E+02  0.28705794181E+02  0.68440158613E+03  0.65864270000E+03 0.  1.
    8880022    1    1    2    0    0  0.16434903771E+03  0.82223451752E+02 -0.12714467010E+04  0.12937309105E+04  0.15294330000E+03 0.  0.
<mgrwt>
<rscale>  0 0.52581846E+03</rscale>
<asrwt>0</asrwt>
<pdfrwt beam="1">  1        2 0.24775949E+00 0.68379932E+03</pdfrwt>
<pdfrwt beam="2">  1       -2 0.56568585E-01 0.68379932E+03</pdfrwt>
<totfact> 0.33328321E+01</totfact>
</mgrwt>
</event>
<event>
 4    1  0.5223852E-007  0.6981817E+03  0.7818608E-02  0.1000483E+00
         -2   -1    0    0    0  501 -0.00000000000E+00  0.00000000000E+00  0.21492779327E+03  0.21492779329E+03  0.25500000000E-02 0.  1.
          2   -1    0    0  501    0  0.00000000000E+00 -0.00000000000E+00 -0.13010533545E+04  0.13010533545E+04  0.25500000000E-02 0. -1.
    8880023    1    1    2    0    0 -0.11852550095E+02  0.23131580960E+03 -0.10106176191E+04  0.12283345086E+04  0.65864270000E+03 0. -1.
    8880022    1    1    2    0    0  0.11852550095E+02 -0.23131580960E+03 -0.75507942162E+02  0.28764663923E+03  0.15294330000E+03 0.  0.
<mgrwt>
<rscale>  0 0.55438986E+03</rscale>
<asrwt>0</asrwt>
<pdfrwt beam="1">  1        2 0.20016205E+00 0.69818170E+03</pdfrwt>
<pdfrwt beam="2">  1       -2 0.33065815E-01 0.69818170E+03</pdfrwt>
<totfact> 0.14350096E+02</totfact>
</mgrwt>
</event>
<event>
 4    1  0.5223852E-007  0.6724876E+03  0.7818608E-02  0.1013939E+00
         -2   -1    0    0    0  501 -0.00000000000E+00  0.00000000000E+00  0.77648679117E+02  0.77648679159E+02  0.25500000000E-02 0.  1.
          2   -1    0    0  501    0  0.00000000000E+00 -0.00000000000E+00 -0.30613373001E+04  0.30613373001E+04  0.25500000000E-02 0. -1.
    8880023    1    1    2    0    0  0.71554751679E+02  0.11536570954E+03 -0.15338280505E+04  0.16747740218E+04  0.65864270000E+03 0.  0.
    8880022    1    1    2    0    0 -0.71554751679E+02 -0.11536570954E+03 -0.14498605705E+04  0.14642119575E+04  0.15294330000E+03 0.  0.
<mgrwt>
<rscale>  0 0.49938728E+03</rscale>
<asrwt>0</asrwt>
<pdfrwt beam="1">  1        2 0.47097488E+00 0.67248757E+03</pdfrwt>
<pdfrwt beam="2">  1       -2 0.11945953E-01 0.67248757E+03</pdfrwt>
<totfact> 0.87295941E+01</totfact>
</mgrwt>
</event>
<event>
 4    1  0.5223852E-007  0.7002987E+03  0.7818608E-02  0.9995964E-01
          2   -1    0    0  501    0  0.00000000000E+00  0.00000000000E+00  0.30652193170E+04  0.30652193170E+04  0.25500000000E-02 0. -1.
         -2   -1    0    0    0  501 -0.00000000000E+00 -0.00000000000E+00 -0.13475482377E+03  0.13475482380E+03  0.25500000000E-02 0.  1.
    8880023    1    1    2    0    0 -0.34263295575E+02  0.23544440385E+03  0.85437261373E+03  0.11047039468E+04  0.65864270000E+03 0.  1.
    8880022    1    1    2    0    0  0.34263295575E+02 -0.23544440385E+03  0.20760918795E+04  0.20952701940E+04  0.15294330000E+03 0.  0.
<mgrwt>
<rscale>  0 0.55827544E+03</rscale>
<asrwt>0</asrwt>
<pdfrwt beam="1">  1        2 0.47157221E+00 0.70029868E+03</pdfrwt>
<pdfrwt beam="2">  1       -2 0.20731511E-01 0.70029868E+03</pdfrwt>
<totfact> 0.33865199E+01</totfact>
</mgrwt>
</event>
<event>
 4    1  0.5223852E-007  0.8673483E+03  0.7818608E-02  0.9580624E-01
          2   -1    0    0  501    0  0.00000000000E+00  0.00000000000E+00  0.26137586664E+04  0.26137586664E+04  0.25500000000E-02 0. -1.
         -2   -1    0    0    0  501 -0.00000000000E+00 -0.00000000000E+00 -0.20958922959E+03  0.20958922960E+03  0.25500000000E-02 0.  1.
    8880023    1    1    2    0    0  0.48898087019E+03  0.28174562582E+03  0.11578416556E+04  0.14466825480E+04  0.65864270000E+03 0.  0.
    8880022    1    1    2    0    0 -0.48898087019E+03 -0.28174562582E+03  0.12463277812E+04  0.13766653480E+04  0.15294330000E+03 0.  0.
<mgrwt>
<rscale>  0 0.78592029E+03</rscale>
<asrwt>0</asrwt>
<pdfrwt beam="1">  1        2 0.40211673E+00 0.86734831E+03</pdfrwt>
<pdfrwt beam="2">  1       -2 0.32244496E-01 0.86734831E+03</pdfrwt>
<totfact> 0.27542234E+01</totfact>
</mgrwt>
</event>
<event>
 4    1  0.6213410E-007  0.8439994E+03  0.7818608E-02  0.9622685E-01
          2   -1    0    0  501    0  0.00000000000E+00  0.00000000000E+00  0.31292349342E+04  0.31292349342E+04  0.25500000000E-02 0. -1.
         -2   -1    0    0    0  501 -0.00000000000E+00 -0.00000000000E+00 -0.10167527074E+04  0.10167527074E+04  0.25500000000E-02 0.  1.
    8880023    1    1    2    0    0  0.23755623288E+03  0.47126613409E+03 -0.81149125507E+03  0.11708343163E+04  0.65864270000E+03 0.  0.
    8880022    1    1    2    0    0 -0.23755623288E+03 -0.47126613409E+03  0.29239734819E+04  0.29751533253E+04  0.15294330000E+03 0.  0.
<mgrwt>
<rscale>  0 0.75812781E+03</rscale>
<asrwt>0</asrwt>
<pdfrwt beam="1">  1        2 0.48142076E+00 0.84399937E+03</pdfrwt>
<pdfrwt beam="2">  1       -2 0.15642349E+00 0.84399937E+03</pdfrwt>
<totfact> 0.40613901E-01</totfact>
</mgrwt>
</event>
<event>
 4    1  0.5223852E-007  0.1172604E+04  0.7818608E-02  0.9184224E-01
          2   -1    0    0  501    0  0.00000000000E+00  0.00000000000E+00  0.18434394376E+04  0.18434394376E+04  0.25500000000E-02 0. -1.
         -2   -1    0    0    0  501 -0.00000000000E+00 -0.00000000000E+00 -0.88961443504E+03  0.88961443504E+03  0.25500000000E-02 0.  1.
    8880023    1    1    2    0    0 -0.19437443896E+03 -0.95047773697E+03  0.12434167633E+04  0.17091181365E+04  0.65864270000E+03 0.  0.
    8880022    1    1    2    0    0  0.19437443896E+03  0.95047773697E+03 -0.28959176068E+03  0.10239357362E+04  0.15294330000E+03 0.  0.
<mgrwt>
<rscale>  0 0.11217751E+04</rscale>
<asrwt>0</asrwt>
<pdfrwt beam="1">  1        2 0.28360607E+00 0.11726038E+04</pdfrwt>
<pdfrwt beam="2">  1       -2 0.13686376E+00 0.11726038E+04</pdfrwt>
<totfact> 0.30361446E+00</totfact>
</mgrwt>
</event>
<event>
 4    1  0.5223852E-007  0.9333351E+03  0.7818608E-02  0.9474508E-01
          2   -1    0    0  501    0  0.00000000000E+00  0.00000000000E+00  0.31271148371E+04  0.31271148371E+04  0.25500000000E-02 0. -1.
         -2   -1    0    0    0  501 -0.00000000000E+00 -0.00000000000E+00 -0.26049689055E+03  0.26049689056E+03  0.25500000000E-02 0.  1.
    8880023    1    1    2    0    0 -0.25826520722E+03  0.60877194994E+03  0.85937516169E+03  0.12687159174E+04  0.65864270000E+03 0.  1.
    8880022    1    1    2    0    0  0.25826520722E+03 -0.60877194994E+03  0.20072427849E+04  0.21188958102E+04  0.15294330000E+03 0.  0.
<mgrwt>
<rscale>  0 0.86189624E+03</rscale>
<asrwt>0</asrwt>
<pdfrwt beam="1">  1        2 0.48109457E+00 0.93333510E+03</pdfrwt>
<pdfrwt beam="2">  1       -2 0.40076447E-01 0.93333510E+03</pdfrwt>
<totfact> 0.88257438E+00</totfact>
</mgrwt>
</event>
<event>
 4    1  0.5223852E-007  0.7570199E+03  0.7818608E-02  0.9812885E-01
          2   -1    0    0  501    0  0.00000000000E+00  0.00000000000E+00  0.22619730332E+04  0.22619730332E+04  0.25500000000E-02 0. -1.
         -2   -1    0    0    0  501 -0.00000000000E+00 -0.00000000000E+00 -0.22135860499E+03  0.22135860501E+03  0.25500000000E-02 0.  1.
    8880023    1    1    2    0    0 -0.35915301674E+03  0.10138054082E+03  0.54108450336E+03  0.93051144513E+03  0.65864270000E+03 0.  0.
    8880022    1    1    2    0    0  0.35915301674E+03 -0.10138054082E+03  0.14995299249E+04  0.15528201931E+04  0.15294330000E+03 0. -1.
<mgrwt>
<rscale>  0 0.64675642E+03</rscale>
<asrwt>0</asrwt>
<pdfrwt beam="1">  1        2 0.34799586E+00 0.75701989E+03</pdfrwt>
<pdfrwt beam="2">  1       -2 0.34055169E-01 0.75701989E+03</pdfrwt>
<totfact> 0.39819146E+01</totfact>
</mgrwt>
</event>
<event>
 4    1  0.5223852E-007  0.7089236E+03  0.7818608E-02  0.9962020E-01
         -2   -1    0    0    0  501 -0.00000000000E+00  0.00000000000E+00  0.20383339664E+03  0.20383339666E+03  0.25500000000E-02 0.  1.
          2   -1    0    0  501    0  0.00000000000E+00 -0.00000000000E+00 -0.15397644707E+04  0.15397644707E+04  0.25500000000E-02 0. -1.
    8880023    1    1    2    0    0  0.22127899728E+03  0.14070546797E+03 -0.53824632222E+03  0.89010209133E+03  0.65864270000E+03 0.  0.
    8880022    1    1    2    0    0 -0.22127899728E+03 -0.14070546797E+03 -0.79768475182E+03  0.85349577600E+03  0.15294330000E+03 0.  0.
<mgrwt>
<rscale>  0 0.57347420E+03</rscale>
<asrwt>0</asrwt>
<pdfrwt beam="1">  1        2 0.23688683E+00 0.70892357E+03</pdfrwt>
<pdfrwt beam="2">  1       -2 0.31358985E-01 0.70892357E+03</pdfrwt>
<totfact> 0.11621536E+02</totfact>
</mgrwt>
</event>
<event>
 4    1  0.5223852E-007  0.8018182E+03  0.7818608E-02  0.9706878E-01
          2   -1    0    0  501    0  0.00000000000E+00  0.00000000000E+00  0.25192052202E+04  0.25192052202E+04  0.25500000000E-02 0. -1.
         -2   -1    0    0    0  501 -0.00000000000E+00 -0.00000000000E+00 -0.24517373119E+03  0.24517373121E+03  0.25500000000E-02 0.  1.
    8880023    1    1    2    0    0  0.30167218121E+03 -0.34365116623E+03  0.54532416227E+03  0.96968596833E+03  0.65864270000E+03 0.  1.
    8880022    1    1    2    0    0 -0.30167218121E+03  0.34365116623E+03  0.17287073267E+04  0.17946929830E+04  0.15294330000E+03 0.  0.
<mgrwt>
<rscale>  0 0.70608726E+03</rscale>
<asrwt>0</asrwt>
<pdfrwt beam="1">  1        2 0.38757002E+00 0.80181821E+03</pdfrwt>
<pdfrwt beam="2">  1       -2 0.37719037E-01 0.80181821E+03</pdfrwt>
<totfact> 0.23345481E+01</totfact>
</mgrwt>
</event>
<event>
 4    1  0.5223852E-007  0.9627528E+03  0.7818608E-02  0.9431998E-01
         -2   -1    0    0    0  501 -0.00000000000E+00  0.00000000000E+00  0.67211871224E+03  0.67211871225E+03  0.25500000000E-02 0.  1.
          2   -1    0    0  501    0  0.00000000000E+00 -0.00000000000E+00 -0.20999077648E+04  0.20999077648E+04  0.25500000000E-02 0. -1.
    8880023    1    1    2    0    0  0.56638630586E+03  0.41507745223E+03  0.20832451322E+03  0.98503403387E+03  0.65864270000E+03 0.  1.
    8880022    1    1    2    0    0 -0.56638630586E+03 -0.41507745223E+03 -0.16361135658E+04  0.17869924432E+04  0.15294330000E+03 0.  0.
<mgrwt>
<rscale>  0 0.89488492E+03</rscale>
<asrwt>0</asrwt>
<pdfrwt beam="1">  1        2 0.32306273E+00 0.96275280E+03</pdfrwt>
<pdfrwt beam="2">  1       -2 0.10340288E+00 0.96275280E+03</pdfrwt>
<totfact> 0.45103490E+00</totfact>
</mgrwt>
</event>
<event>
 4    1  0.5223852E-007  0.7924908E+03  0.7818608E-02  0.9727274E-01
          2   -1    0    0  501    0  0.00000000000E+00  0.00000000000E+00  0.18800818320E+04  0.18800818320E+04  0.25500000000E-02 0. -1.
         -2   -1    0    0    0  501 -0.00000000000E+00 -0.00000000000E+00 -0.25654706250E+03  0.25654706251E+03  0.25500000000E-02 0.  1.
    8880023    1    1    2    0    0  0.32024298784E+03 -0.30278035686E+03  0.54578428946E+03  0.96224851917E+03  0.65864270000E+03 0.  0.
    8880022    1    1    2    0    0 -0.32024298784E+03  0.30278035686E+03  0.10777504801E+04  0.11743803754E+04  0.15294330000E+03 0.  0.
<mgrwt>
<rscale>  0 0.69415879E+03</rscale>
<asrwt>0</asrwt>
<pdfrwt beam="1">  1        2 0.28924336E+00 0.79249083E+03</pdfrwt>
<pdfrwt beam="2">  1       -2 0.39468779E-01 0.79249083E+03</pdfrwt>
<totfact> 0.48376095E+01</totfact>
</mgrwt>
</event>
<event>
 4    1  0.5223852E-007  0.7901127E+03  0.7818608E-02  0.9732597E-01
         -2   -1    0    0    0  501 -0.00000000000E+00  0.00000000000E+00  0.29049340486E+03  0.29049340487E+03  0.25500000000E-02 0.  1.
          2   -1    0    0  501    0  0.00000000000E+00 -0.00000000000E+00 -0.20127611444E+04  0.20127611444E+04  0.25500000000E-02 0. -1.
    8880023    1    1    2    0    0 -0.41398260082E+03 -0.13815323359E+03 -0.36686257880E+03  0.87112930597E+03  0.65864270000E+03 0.  1.
    8880022    1    1    2    0    0  0.41398260082E+03  0.13815323359E+03 -0.13554051608E+04  0.14321252433E+04  0.15294330000E+03 0.  0.
<mgrwt>
<rscale>  0 0.69108724E+03</rscale>
<asrwt>0</asrwt>
<pdfrwt beam="1">  1        2 0.30965555E+00 0.79011272E+03</pdfrwt>
<pdfrwt beam="2">  1       -2 0.44691294E-01 0.79011272E+03</pdfrwt>
<totfact> 0.32060339E+01</totfact>
</mgrwt>
</event>
<event>
 4    1  0.5223852E-007  0.9549205E+03  0.7818608E-02  0.9443070E-01
         -2   -1    0    0    0  501 -0.00000000000E+00  0.00000000000E+00  0.18562732134E+04  0.18562732134E+04  0.25500000000E-02 0.  1.
          2   -1    0    0  501    0  0.00000000000E+00 -0.00000000000E+00 -0.92192697175E+03  0.92192697175E+03  0.25500000000E-02 0. -1.
    8880023    1    1    2    0    0 -0.40127320291E+03  0.56306556738E+03  0.15627731961E+04  0.18314293012E+04  0.65864270000E+03 0.  1.
    8880022    1    1    2    0    0  0.40127320291E+03 -0.56306556738E+03 -0.62842695448E+03  0.94677088394E+03  0.15294330000E+03 0.  0.
<mgrwt>
<rscale>  0 0.88614417E+03</rscale>
<asrwt>0</asrwt>
<pdfrwt beam="1">  1        2 0.14183492E+00 0.95492053E+03</pdfrwt>
<pdfrwt beam="2">  1       -2 0.28558049E+00 0.95492053E+03</pdfrwt>
<totfact> 0.11124895E+00</totfact>
</mgrwt>
</event>
<event>
 4    1  0.5223852E-007  0.7393993E+03  0.7818608E-02  0.9861700E-01
         -2   -1    0    0    0  501 -0.00000000000E+00  0.00000000000E+00  0.67681073592E+03  0.67681073592E+03  0.25500000000E-02 0.  1.
          2   -1    0    0  501    0  0.00000000000E+00 -0.00000000000E+00 -0.11920835996E+04  0.11920835996E+04  0.25500000000E-02 0. -1.
    8880023    1    1    2    0    0  0.23832012462E+03  0.23686415668E+03 -0.10099256248E+04  0.12516633271E+04  0.65864270000E+03 0. -1.
    8880022    1    1    2    0    0 -0.23832012462E+03 -0.23686415668E+03  0.49465276119E+03  0.61723100836E+03  0.15294330000E+03 0.  0.
<mgrwt>
<rscale>  0 0.62153898E+03</rscale>
<asrwt>0</asrwt>
<pdfrwt beam="1">  1        2 0.18339748E+00 0.73939929E+03</pdfrwt>
<pdfrwt beam="2">  1       -2 0.10412473E+00 0.73939929E+03</pdfrwt>
<totfact> 0.14657199E+01</totfact>
</mgrwt>
</event>
<event>
 4    1  0.5223852E-007  0.9512710E+03  0.7818608E-02  0.9448288E-01
          2   -1    0    0  501    0  0.00000000000E+00  0.00000000000E+00  0.14483773354E+04  0.14483773354E+04  0.25500000000E-02 0. -1.
         -2   -1    0    0    0  501 -0.00000000000E+00 -0.00000000000E+00 -0.12155269157E+04  0.12155269157E+04  0.25500000000E-02 0.  1.
    8880023    1    1    2    0    0  0.37271024509E+03  0.57636217934E+03 -0.91362502743E+03  0.13189492733E+04  0.65864270000E+03 0.  0.
    8880022    1    1    2    0    0 -0.37271024509E+03 -0.57636217934E+03  0.11464754471E+04  0.13449549778E+04  0.15294330000E+03 0.  0.
<mgrwt>
<rscale>  0 0.88206126E+03</rscale>
<asrwt>0</asrwt>
<pdfrwt beam="1">  1        2 0.22282728E+00 0.95127099E+03</pdfrwt>
<pdfrwt beam="2">  1       -2 0.18700414E+00 0.95127099E+03</pdfrwt>
<totfact> 0.22026355E+00</totfact>
</mgrwt>
</event>
<event>
 4    1  0.5223852E-007  0.7968090E+03  0.7818608E-02  0.9717739E-01
          2   -1    0    0  501    0  0.00000000000E+00  0.00000000000E+00  0.41109828033E+04  0.41109828034E+04  0.25500000000E-02 0. -1.
         -2   -1    0    0    0  501 -0.00000000000E+00 -0.00000000000E+00 -0.15210155388E+03  0.15210155390E+03  0.25500000000E-02 0.  1.
    8880023    1    1    2    0    0 -0.44840623313E+03 -0.51140760245E+01  0.10618541523E+04  0.13275687367E+04  0.65864270000E+03 0.  1.
    8880022    1    1    2    0    0  0.44840623313E+03  0.51140760245E+01  0.28970270972E+04  0.29355156205E+04  0.15294330000E+03 0.  0.
<mgrwt>
<rscale>  0 0.69970391E+03</rscale>
<asrwt>0</asrwt>
<pdfrwt beam="1">  1        2 0.63245896E+00 0.79680895E+03</pdfrwt>
<pdfrwt beam="2">  1       -2 0.23400237E-01 0.79680895E+03</pdfrwt>
<totfact> 0.49159292E+00</totfact>
</mgrwt>
</event>
<event>
 4    1  0.5223852E-007  0.8049091E+03  0.7818608E-02  0.9700280E-01
         -2   -1    0    0    0  501 -0.00000000000E+00  0.00000000000E+00  0.69407094828E+03  0.69407094828E+03  0.25500000000E-02 0.  1.
          2   -1    0    0  501    0  0.00000000000E+00 -0.00000000000E+00 -0.10952183613E+04  0.10952183613E+04  0.25500000000E-02 0. -1.
    8880023    1    1    2    0    0  0.35892972754E+03  0.29195521951E+03  0.36300944730E+03  0.88298044407E+03  0.65864270000E+03 0.  0.
    8880022    1    1    2    0    0 -0.35892972754E+03 -0.29195521951E+03 -0.76415686028E+03  0.90630886547E+03  0.15294330000E+03 0.  0.
<mgrwt>
<rscale>  0 0.71000096E+03</rscale>
<asrwt>0</asrwt>
<pdfrwt beam="1">  1        2 0.16849513E+00 0.80490907E+03</pdfrwt>
<pdfrwt beam="2">  1       -2 0.10678015E+00 0.80490907E+03</pdfrwt>
<totfact> 0.15668345E+01</totfact>
</mgrwt>
</event>
<event>
 4    1  0.5223852E-007  0.7393453E+03  0.7818608E-02  0.9861858E-01
          2   -1    0    0  501    0  0.00000000000E+00  0.00000000000E+00  0.14138470633E+04  0.14138470633E+04  0.25500000000E-02 0. -1.
         -2   -1    0    0    0  501 -0.00000000000E+00 -0.00000000000E+00 -0.38511365293E+03  0.38511365293E+03  0.25500000000E-02 0.  1.
    8880023    1    1    2    0    0 -0.33269461500E+03 -0.46211965974E+02  0.36426912785E+02  0.74024210829E+03  0.65864270000E+03 0.  0.
    8880022    1    1    2    0    0  0.33269461500E+03  0.46211965974E+02  0.99230649763E+03  0.10587186080E+04  0.15294330000E+03 0.  0.
<mgrwt>
<rscale>  0 0.62145941E+03</rscale>
<asrwt>0</asrwt>
<pdfrwt beam="1">  1        2 0.21751493E+00 0.73934529E+03</pdfrwt>
<pdfrwt beam="2">  1       -2 0.59248255E-01 0.73934529E+03</pdfrwt>
<totfact> 0.38643054E+01</totfact>
</mgrwt>
</event>
<event>
 4    1  0.5223852E-007  0.6834772E+03  0.7818608E-02  0.1007421E+00
          2   -1    0    0  501    0  0.00000000000E+00  0.00000000000E+00  0.12260799742E+04  0.12260799742E+04  0.25500000000E-02 0. -1.
         -2   -1    0    0    0  501 -0.00000000000E+00 -0.00000000000E+00 -0.39913700027E+03  0.39913700028E+03  0.25500000000E-02 0.  1.
    8880023    1    1    2    0    0 -0.18101730278E+03 -0.23741193438E+02 -0.79428235402E+02  0.68807700079E+03  0.65864270000E+03 0.  1.
    8880022    1    1    2    0    0  0.18101730278E+03  0.23741193438E+02  0.90637120936E+03  0.93713997372E+03  0.15294330000E+03 0.  0.
<mgrwt>
<rscale>  0 0.52512478E+03</rscale>
<asrwt>0</asrwt>
<pdfrwt beam="1">  1        2 0.18862769E+00 0.68347722E+03</pdfrwt>
<pdfrwt beam="2">  1       -2 0.61405691E-01 0.68347722E+03</pdfrwt>
<totfact> 0.46192959E+01</totfact>
</mgrwt>
</event>
<event>
 4    1  0.5223852E-007  0.6874053E+03  0.7818608E-02  0.1005411E+00
          2   -1    0    0  501    0  0.00000000000E+00  0.00000000000E+00  0.48922982472E+03  0.48922982473E+03  0.25500000000E-02 0. -1.
         -2   -1    0    0    0  501 -0.00000000000E+00 -0.00000000000E+00 -0.16210501420E+04  0.16210501420E+04  0.25500000000E-02 0.  1.
    8880023    1    1    2    0    0 -0.68722347221E+02 -0.18437211288E+03 -0.15090062134E+04  0.16581995644E+04  0.65864270000E+03 0.  1.
    8880022    1    1    2    0    0  0.68722347221E+02  0.18437211288E+03  0.37718589607E+03  0.45208040239E+03  0.15294330000E+03 0.  0.
<mgrwt>
<rscale>  0 0.53339956E+03</rscale>
<asrwt>0</asrwt>
<pdfrwt beam="1">  1        2 0.75266128E-01 0.68740530E+03</pdfrwt>
<pdfrwt beam="2">  1       -2 0.24939233E+00 0.68740530E+03</pdfrwt>
<totfact> 0.42490685E+00</totfact>
</mgrwt>
</event>
<event>
 4    1  0.5223852E-007  0.6661250E+03  0.7818608E-02  0.1018608E+00
          2   -1    0    0  501    0  0.00000000000E+00  0.00000000000E+00  0.32554607761E+03  0.32554607762E+03  0.25500000000E-02 0. -1.
         -2   -1    0    0    0  501 -0.00000000000E+00 -0.00000000000E+00 -0.11234557701E+04  0.11234557701E+04  0.25500000000E-02 0.  1.
    8880023    1    1    2    0    0 -0.26318032731E+02  0.96018971583E+02 -0.98406108972E+03  0.11883175991E+04  0.65864270000E+03 0.  0.
    8880022    1    1    2    0    0  0.26318032731E+02 -0.96018971583E+02  0.18615139727E+03  0.26068424860E+03  0.15294330000E+03 0.  0.
<mgrwt>
<rscale>  0 0.48192420E+03</rscale>
<asrwt>0</asrwt>
<pdfrwt beam="1">  1        2 0.50084012E-01 0.66612498E+03</pdfrwt>
<pdfrwt beam="2">  1       -2 0.17283935E+00 0.66612498E+03</pdfrwt>
<totfact> 0.20830670E+01</totfact>
</mgrwt>
</event>
<event>
 4    1  0.5223852E-007  0.6802524E+03  0.7818608E-02  0.1009181E+00
          2   -1    0    0  501    0  0.00000000000E+00  0.00000000000E+00  0.53758253236E+03  0.53758253237E+03  0.25500000000E-02 0. -1.
         -2   -1    0    0    0  501 -0.00000000000E+00 -0.00000000000E+00 -0.43632055167E+03  0.43632055168E+03  0.25500000000E-02 0.  1.
    8880023    1    1    2    0    0 -0.13242822677E+03  0.10675161225E+03 -0.76039101898E+02  0.68448907460E+03  0.65864270000E+03 0.  0.
    8880022    1    1    2    0    0  0.13242822677E+03 -0.10675161225E+03  0.17730108258E+03  0.28941400945E+03  0.15294330000E+03 0.  0.
<mgrwt>
<rscale>  0 0.51801342E+03</rscale>
<asrwt>0</asrwt>
<pdfrwt beam="1">  1        2 0.82705005E-01 0.68025242E+03</pdfrwt>
<pdfrwt beam="2">  1       -2 0.67126239E-01 0.68025242E+03</pdfrwt>
<totfact> 0.11688673E+02</totfact>
</mgrwt>
</event>
<event>
 4    1  0.5223852E-007  0.6626642E+03  0.7818608E-02  0.1021579E+00
         -2   -1    0    0    0  501 -0.00000000000E+00  0.00000000000E+00  0.26541861347E+03  0.26541861348E+03  0.25500000000E-02 0.  1.
          2   -1    0    0  501    0  0.00000000000E+00 -0.00000000000E+00 -0.78602127067E+03  0.78602127068E+03  0.25500000000E-02 0. -1.
    8880023    1    1    2    0    0  0.60557609245E+02  0.40575725497E+02 -0.20570669939E+03  0.69385810219E+03  0.65864270000E+03 0.  1.
    8880022    1    1    2    0    0 -0.60557609245E+02 -0.40575725497E+02 -0.31489595781E+03  0.35758178197E+03  0.15294330000E+03 0.  0.
<mgrwt>
<rscale>  0 0.47121089E+03</rscale>
<asrwt>0</asrwt>
<pdfrwt beam="1">  1        2 0.12092635E+00 0.66266418E+03</pdfrwt>
<pdfrwt beam="2">  1       -2 0.40833633E-01 0.66266418E+03</pdfrwt>
<totfact> 0.20312021E+02</totfact>
</mgrwt>
</event>
<event>
 4    1  0.5223852E-007  0.6699524E+03  0.7818608E-02  0.1015697E+00
          2   -1    0    0  501    0  0.00000000000E+00  0.00000000000E+00  0.32912071127E+04  0.32912071127E+04  0.25500000000E-02 0. -1.
         -2   -1    0    0    0  501 -0.00000000000E+00 -0.00000000000E+00 -0.23252673474E+03  0.23252673475E+03  0.25500000000E-02 0.  1.
    8880023    1    1    2    0    0  0.20530656249E+02 -0.12084897860E+03  0.26068720431E+03  0.71888386283E+03  0.65864270000E+03 0.  1.
    8880022    1    1    2    0    0 -0.20530656249E+02  0.12084897860E+03  0.27979931737E+04  0.28048499847E+04  0.15294330000E+03 0.  0.
<mgrwt>
<rscale>  0 0.49271897E+03</rscale>
<asrwt>0</asrwt>
<pdfrwt beam="1">  1        2 0.50633953E+00 0.66995238E+03</pdfrwt>
<pdfrwt beam="2">  1       -2 0.35773346E-01 0.66995238E+03</pdfrwt>
<totfact> 0.90447313E+00</totfact>
</mgrwt>
</event>
<event>
 4    1  0.5223852E-007  0.8031934E+03  0.7818608E-02  0.9703933E-01
         -2   -1    0    0    0  501 -0.00000000000E+00  0.00000000000E+00  0.40378185858E+03  0.40378185859E+03  0.25500000000E-02 0.  1.
          2   -1    0    0  501    0  0.00000000000E+00 -0.00000000000E+00 -0.18738217765E+04  0.18738217765E+04  0.25500000000E-02 0. -1.
    8880023    1    1    2    0    0 -0.12402240534E+03  0.44263733728E+03 -0.15874874089E+04  0.17791109716E+04  0.65864270000E+03 0.  0.
    8880022    1    1    2    0    0  0.12402240534E+03 -0.44263733728E+03  0.11744749104E+03  0.49849266348E+03  0.15294330000E+03 0.  0.
<mgrwt>
<rscale>  0 0.70783080E+03</rscale>
<asrwt>0</asrwt>
<pdfrwt beam="1">  1        2 0.28828027E+00 0.80319336E+03</pdfrwt>
<pdfrwt beam="2">  1       -2 0.62120287E-01 0.80319336E+03</pdfrwt>
<totfact> 0.19347623E+01</totfact>
</mgrwt>
</event>
<event>
 4    1  0.5223852E-007  0.6838176E+03  0.7818608E-02  0.1007242E+00
          2   -1    0    0  501    0  0.00000000000E+00  0.00000000000E+00  0.13736548839E+04  0.13736548839E+04  0.25500000000E-02 0. -1.
         -2   -1    0    0    0  501 -0.00000000000E+00 -0.00000000000E+00 -0.15585682689E+03  0.15585682691E+03  0.25500000000E-02 0.  1.
    8880023    1    1    2    0    0 -0.70154885292E+02 -0.16992511903E+03  0.85197143325E+03  0.10924567650E+04  0.65864270000E+03 0.  0.
    8880022    1    1    2    0    0  0.70154885292E+02  0.16992511903E+03  0.36582662372E+03  0.43705494579E+03  0.15294330000E+03 0. -1.
<mgrwt>
<rscale>  0 0.52585767E+03</rscale>
<asrwt>0</asrwt>
<pdfrwt beam="1">  1        2 0.21133152E+00 0.68381756E+03</pdfrwt>
<pdfrwt beam="2">  1       -2 0.23977973E-01 0.68381756E+03</pdfrwt>
<totfact> 0.23557601E+02</totfact>
</mgrwt>
</event>
<event>
 4    1  0.5223852E-007  0.7654953E+03  0.7818608E-02  0.9791083E-01
         -2   -1    0    0    0  501 -0.00000000000E+00  0.00000000000E+00  0.46865082729E+03  0.46865082729E+03  0.25500000000E-02 0.  1.
          2   -1    0    0  501    0  0.00000000000E+00 -0.00000000000E+00 -0.12692560267E+04  0.12692560267E+04  0.25500000000E-02 0. -1.
    8880023    1    1    2    0    0 -0.21944472629E+03 -0.32251648032E+03  0.73047415569E+02  0.76897269078E+03  0.65864270000E+03 0.  0.
    8880022    1    1    2    0    0  0.21944472629E+03  0.32251648032E+03 -0.87365261500E+03  0.96893416324E+03  0.15294330000E+03 0.  0.
<mgrwt>
<rscale>  0 0.65843286E+03</rscale>
<asrwt>0</asrwt>
<pdfrwt beam="1">  1        2 0.19527016E+00 0.76549531E+03</pdfrwt>
<pdfrwt beam="2">  1       -2 0.72100128E-01 0.76549531E+03</pdfrwt>
<totfact> 0.30560369E+01</totfact>
</mgrwt>
</event>
<event>
 4    1  0.5223852E-007  0.7370954E+03  0.7818608E-02  0.9868490E-01
         -2   -1    0    0    0  501 -0.00000000000E+00  0.00000000000E+00  0.20375950896E+03  0.20375950897E+03  0.25500000000E-02 0.  1.
          2   -1    0    0  501    0  0.00000000000E+00 -0.00000000000E+00 -0.15475071974E+04  0.15475071974E+04  0.25500000000E-02 0. -1.
    8880023    1    1    2    0    0  0.29755058681E+03  0.14478619269E+03 -0.10510960155E+04  0.12837883133E+04  0.65864270000E+03 0. -1.
    8880022    1    1    2    0    0 -0.29755058681E+03 -0.14478619269E+03 -0.29265167296E+03  0.46747839309E+03  0.15294330000E+03 0.  1.
<mgrwt>
<rscale>  0 0.61812987E+03</rscale>
<asrwt>0</asrwt>
<pdfrwt beam="1">  1        2 0.23807802E+00 0.73709538E+03</pdfrwt>
<pdfrwt beam="2">  1       -2 0.31347618E-01 0.73709538E+03</pdfrwt>
<totfact> 0.11485470E+02</totfact>
</mgrwt>
</event>
<event>
 4    1  0.5223852E-007  0.8895319E+03  0.7818608E-02  0.9543050E-01
         -2   -1    0    0    0  501 -0.00000000000E+00  0.00000000000E+00  0.75386148506E+03  0.75386148507E+03  0.25500000000E-02 0.  1.
          2   -1    0    0  501    0  0.00000000000E+00 -0.00000000000E+00 -0.91906785142E+03  0.91906785142E+03  0.25500000000E-02 0. -1.
    8880023    1    1    2    0    0  0.54802038804E+03  0.23901976997E+03  0.25614591693E+03  0.92567690539E+03  0.65864270000E+03 0.  0.
    8880022    1    1    2    0    0 -0.54802038804E+03 -0.23901976997E+03 -0.42135228328E+03  0.74725243110E+03  0.15294330000E+03 0.  0.
<mgrwt>
<rscale>  0 0.81183014E+03</rscale>
<asrwt>0</asrwt>
<pdfrwt beam="1">  1        2 0.14139505E+00 0.88953190E+03</pdfrwt>
<pdfrwt beam="2">  1       -2 0.11597869E+00 0.88953190E+03</pdfrwt>
<totfact> 0.16477760E+01</totfact>
</mgrwt>
</event>
<event>
 4    1  0.5223852E-007  0.1474156E+04  0.7818608E-02  0.8928104E-01
          2   -1    0    0  501    0  0.00000000000E+00  0.00000000000E+00  0.15124015442E+04  0.15124015442E+04  0.25500000000E-02 0. -1.
         -2   -1    0    0    0  501 -0.00000000000E+00 -0.00000000000E+00 -0.15414615197E+04  0.15414615197E+04  0.25500000000E-02 0.  1.
    8880023    1    1    2    0    0 -0.11023878338E+04 -0.72392380308E+03 -0.62174375432E+03  0.15999062820E+04  0.65864270000E+03 0.  0.
    8880022    1    1    2    0    0  0.11023878338E+04  0.72392380308E+03  0.59268377887E+03  0.14539567819E+04  0.15294330000E+03 0.  0.
<mgrwt>
<rscale>  0 0.14360855E+04</rscale>
<asrwt>0</asrwt>
<pdfrwt beam="1">  1        2 0.23267716E+00 0.14741556E+04</pdfrwt>
<pdfrwt beam="2">  1       -2 0.23714792E+00 0.14741556E+04</pdfrwt>
<totfact> 0.90869560E-01</totfact>
</mgrwt>
</event>
<event>
 4    1  0.5223852E-007  0.6968297E+03  0.7818608E-02  0.1001062E+00
          2   -1    0    0  501    0  0.00000000000E+00  0.00000000000E+00  0.16857252888E+04  0.16857252888E+04  0.25500000000E-02 0. -1.
         -2   -1    0    0    0  501 -0.00000000000E+00 -0.00000000000E+00 -0.19611910699E+03  0.19611910701E+03  0.25500000000E-02 0.  1.
    8880023    1    1    2    0    0  0.14602518882E+03 -0.17446494918E+03  0.50711017882E+03  0.86181918869E+03  0.65864270000E+03 0.  0.
    8880022    1    1    2    0    0 -0.14602518882E+03  0.17446494918E+03  0.98249600294E+03  0.10200252071E+04  0.15294330000E+03 0.  0.
<mgrwt>
<rscale>  0 0.55187190E+03</rscale>
<asrwt>0</asrwt>
<pdfrwt beam="1">  1        2 0.25934235E+00 0.69682966E+03</pdfrwt>
<pdfrwt beam="2">  1       -2 0.30172171E-01 0.69682966E+03</pdfrwt>
<totfact> 0.10393687E+02</totfact>
</mgrwt>
</event>
<event>
 4    1  0.5223852E-007  0.8351574E+03  0.7818608E-02  0.9639380E-01
         -2   -1    0    0    0  501 -0.00000000000E+00  0.00000000000E+00  0.12663512770E+04  0.12663512770E+04  0.25500000000E-02 0.  1.
          2   -1    0    0  501    0  0.00000000000E+00 -0.00000000000E+00 -0.91745715437E+03  0.91745715437E+03  0.25500000000E-02 0. -1.
    8880023    1    1    2    0    0  0.51026696902E+03 -0.57492179481E+02  0.10243472816E+04  0.13216562677E+04  0.65864270000E+03 0.  1.
    8880022    1    1    2    0    0 -0.51026696902E+03  0.57492179481E+02 -0.67545315897E+03  0.86215216368E+03  0.15294330000E+03 0.  0.
<mgrwt>
<rscale>  0 0.74743705E+03</rscale>
<asrwt>0</asrwt>
<pdfrwt beam="1">  1        2 0.14114726E+00 0.83515743E+03</pdfrwt>
<pdfrwt beam="2">  1       -2 0.19482327E+00 0.83515743E+03</pdfrwt>
<totfact> 0.41515292E+00</totfact>
</mgrwt>
</event>
<event>
 4    1  0.5223852E-007  0.7040900E+03  0.7818608E-02  0.9980639E-01
          2   -1    0    0  501    0  0.00000000000E+00  0.00000000000E+00  0.10164472180E+04  0.10164472180E+04  0.25500000000E-02 0. -1.
         -2   -1    0    0    0  501 -0.00000000000E+00 -0.00000000000E+00 -0.59898679326E+03  0.59898679326E+03  0.25500000000E-02 0.  1.
    8880023    1    1    2    0    0  0.19310331608E+03  0.15698309081E+03 -0.35576972722E+03  0.78886937230E+03  0.65864270000E+03 0.  1.
    8880022    1    1    2    0    0 -0.19310331608E+03 -0.15698309081E+03  0.77323015199E+03  0.82656463900E+03  0.15294330000E+03 0.  0.
<mgrwt>
<rscale>  0 0.56507384E+03</rscale>
<asrwt>0</asrwt>
<pdfrwt beam="1">  1        2 0.15637649E+00 0.70409004E+03</pdfrwt>
<pdfrwt beam="2">  1       -2 0.92151816E-01 0.70409004E+03</pdfrwt>
<totfact> 0.25122880E+01</totfact>
</mgrwt>
</event>
<event>
 4    1  0.5223852E-007  0.6850550E+03  0.7818608E-02  0.1006598E+00
         -2   -1    0    0    0  501 -0.00000000000E+00  0.00000000000E+00  0.47210471782E+03  0.47210471783E+03  0.25500000000E-02 0.  1.
          2   -1    0    0  501    0  0.00000000000E+00 -0.00000000000E+00 -0.65104713140E+03  0.65104713140E+03  0.25500000000E-02 0. -1.
    8880023    1    1    2    0    0 -0.17116483799E+03  0.78694021664E+02  0.16269347670E+03  0.70410902880E+03  0.65864270000E+03 0.  0.
    8880022    1    1    2    0    0  0.17116483799E+03 -0.78694021664E+02 -0.34163589028E+03  0.41904282043E+03  0.15294330000E+03 0.  0.
<mgrwt>
<rscale>  0 0.52849602E+03</rscale>
<asrwt>0</asrwt>
<pdfrwt beam="1">  1        2 0.10016110E+00 0.68505500E+03</pdfrwt>
<pdfrwt beam="2">  1       -2 0.72631494E-01 0.68505500E+03</pdfrwt>
<totfact> 0.78194968E+01</totfact>
</mgrwt>
</event>
<event>
 4    1  0.5223852E-007  0.6600793E+03  0.7818608E-02  0.1024075E+00
         -2   -1    0    0    0  501 -0.00000000000E+00  0.00000000000E+00  0.28357380259E+03  0.28357380260E+03  0.25500000000E-02 0.  1.
          2   -1    0    0  501    0  0.00000000000E+00 -0.00000000000E+00 -0.59148705820E+03  0.59148705820E+03  0.25500000000E-02 0. -1.
    8880023    1    1    2    0    0 -0.43032927895E+02 -0.65313266552E+01 -0.24734281217E+03  0.70489939999E+03  0.65864270000E+03 0.  1.
    8880022    1    1    2    0    0  0.43032927895E+02  0.65313266552E+01 -0.60570443442E+02  0.17016146081E+03  0.15294330000E+03 0. -1.
<mgrwt>
<rscale>  0 0.46244216E+03</rscale>
<asrwt>0</asrwt>
<pdfrwt beam="1">  1        2 0.90998009E-01 0.66007931E+03</pdfrwt>
<pdfrwt beam="2">  1       -2 0.43626739E-01 0.66007931E+03</pdfrwt>
<totfact> 0.25446668E+02</totfact>
</mgrwt>
</event>
<event>
 4    1  0.5223852E-007  0.6921043E+03  0.7818608E-02  0.1003168E+00
          2   -1    0    0  501    0  0.00000000000E+00  0.00000000000E+00  0.60654862906E+03  0.60654862907E+03  0.25500000000E-02 0. -1.
         -2   -1    0    0    0  501 -0.00000000000E+00 -0.00000000000E+00 -0.63035203082E+03  0.63035203083E+03  0.25500000000E-02 0.  1.
    8880023    1    1    2    0    0  0.19637316815E+03 -0.81459632267E+02 -0.38404761859E+03  0.79151808095E+03  0.65864270000E+03 0.  1.
    8880022    1    1    2    0    0 -0.19637316815E+03  0.81459632267E+02  0.36024421682E+03  0.44538257895E+03  0.15294330000E+03 0.  0.
<mgrwt>
<rscale>  0 0.54282650E+03</rscale>
<asrwt>0</asrwt>
<pdfrwt beam="1">  1        2 0.93315173E-01 0.69210425E+03</pdfrwt>
<pdfrwt beam="2">  1       -2 0.96977237E-01 0.69210425E+03</pdfrwt>
<totfact> 0.44204328E+01</totfact>
</mgrwt>
</event>
<event>
 4    1  0.5223852E-007  0.7411368E+03  0.7818608E-02  0.9856648E-01
          2   -1    0    0  501    0  0.00000000000E+00  0.00000000000E+00  0.18120208554E+04  0.18120208554E+04  0.25500000000E-02 0. -1.
         -2   -1    0    0    0  501 -0.00000000000E+00 -0.00000000000E+00 -0.40359164160E+03  0.40359164161E+03  0.25500000000E-02 0.  1.
    8880023    1    1    2    0    0  0.33617237896E+03  0.49615746772E+02 -0.17955034336E+02  0.74135428793E+03  0.65864270000E+03 0.  1.
    8880022    1    1    2    0    0 -0.33617237896E+03 -0.49615746772E+02  0.14263842481E+04  0.14742582090E+04  0.15294330000E+03 0.  0.
<mgrwt>
<rscale>  0 0.62409110E+03</rscale>
<asrwt>0</asrwt>
<pdfrwt beam="1">  1        2 0.27877244E+00 0.74113683E+03</pdfrwt>
<pdfrwt beam="2">  1       -2 0.62091022E-01 0.74113683E+03</pdfrwt>
<totfact> 0.21098656E+01</totfact>
</mgrwt>
</event>
<event>
 4    1  0.5223852E-007  0.7030107E+03  0.7818608E-02  0.9984934E-01
         -2   -1    0    0    0  501 -0.00000000000E+00  0.00000000000E+00  0.11628228992E+03  0.11628228995E+03  0.25500000000E-02 0.  1.
          2   -1    0    0  501    0  0.00000000000E+00 -0.00000000000E+00 -0.27310213829E+04  0.27310213829E+04  0.25500000000E-02 0. -1.
    8880023    1    1    2    0    0  0.19171988914E+03  0.15380936159E+03 -0.11022247733E+04  0.13073344992E+04  0.65864270000E+03 0.  0.
    8880022    1    1    2    0    0 -0.19171988914E+03 -0.15380936159E+03 -0.15125143197E+04  0.15399691736E+04  0.15294330000E+03 0.  0.
<mgrwt>
<rscale>  0 0.56315832E+03</rscale>
<asrwt>0</asrwt>
<pdfrwt beam="1">  1        2 0.42015709E+00 0.70301070E+03</pdfrwt>
<pdfrwt beam="2">  1       -2 0.17889585E-01 0.70301070E+03</pdfrwt>
<totfact> 0.69423793E+01</totfact>
</mgrwt>
</event>
<event>
 4    1  0.5223852E-007  0.6871390E+03  0.7818608E-02  0.1005543E+00
          2   -1    0    0  501    0  0.00000000000E+00  0.00000000000E+00  0.11260383519E+04  0.11260383519E+04  0.25500000000E-02 0. -1.
         -2   -1    0    0    0  501 -0.00000000000E+00 -0.00000000000E+00 -0.92340932237E+03  0.92340932238E+03  0.25500000000E-02 0.  1.
    8880023    1    1    2    0    0  0.99821359843E+02  0.16847984885E+03 -0.77789984309E+03  0.10379249180E+04  0.65864270000E+03 0.  1.
    8880022    1    1    2    0    0 -0.99821359843E+02 -0.16847984885E+03  0.98052887263E+03  0.10115227563E+04  0.15294330000E+03 0.  0.
<mgrwt>
<rscale>  0 0.53285066E+03</rscale>
<asrwt>0</asrwt>
<pdfrwt beam="1">  1        2 0.17323667E+00 0.68713897E+03</pdfrwt>
<pdfrwt beam="2">  1       -2 0.14206297E+00 0.68713897E+03</pdfrwt>
<totfact> 0.74657466E+00</totfact>
</mgrwt>
</event>
<event>
 4    1  0.5223852E-007  0.7178231E+03  0.7818608E-02  0.9930022E-01
          2   -1    0    0  501    0  0.00000000000E+00  0.00000000000E+00  0.36611257314E+03  0.36611257314E+03  0.25500000000E-02 0. -1.
         -2   -1    0    0    0  501 -0.00000000000E+00 -0.00000000000E+00 -0.93105042349E+03  0.93105042350E+03  0.25500000000E-02 0.  1.
    8880023    1    1    2    0    0  0.28457287986E+03  0.21864424323E+02 -0.64341899576E+03  0.96398028371E+03  0.65864270000E+03 0. -1.
    8880022    1    1    2    0    0 -0.28457287986E+03 -0.21864424323E+02  0.78481145405E+02  0.33318271294E+03  0.15294330000E+03 0.  0.
<mgrwt>
<rscale>  0 0.58828105E+03</rscale>
<asrwt>0</asrwt>
<pdfrwt beam="1">  1        2 0.56325012E-01 0.71782309E+03</pdfrwt>
<pdfrwt beam="2">  1       -2 0.14323853E+00 0.71782309E+03</pdfrwt>
<totfact> 0.30157926E+01</totfact>
</mgrwt>
</event>
<event>
 4    1  0.5223852E-007  0.6911910E+03  0.7818608E-02  0.1003592E+00
          2   -1    0    0  501    0  0.00000000000E+00  0.00000000000E+00  0.10244973682E+04  0.10244973682E+04  0.25500000000E-02 0. -1.
         -2   -1    0    0    0  501 -0.00000000000E+00 -0.00000000000E+00 -0.44534057012E+03  0.44534057013E+03  0.25500000000E-02 0.  1.
    8880023    1    1    2    0    0 -0.14427737358E+03 -0.15204861505E+03 -0.14006726646E+03  0.70524023372E+03  0.65864270000E+03 0.  1.
    8880022    1    1    2    0    0  0.14427737358E+03  0.15204861505E+03  0.71922406452E+03  0.76459770459E+03  0.15294330000E+03 0.  0.
<mgrwt>
<rscale>  0 0.54103045E+03</rscale>
<asrwt>0</asrwt>
<pdfrwt beam="1">  1        2 0.15761498E+00 0.69119096E+03</pdfrwt>
<pdfrwt beam="2">  1       -2 0.68513935E-01 0.69119096E+03</pdfrwt>
<totfact> 0.48336353E+01</totfact>
</mgrwt>
</event>
<event>
 4    1  0.5223852E-007  0.7514482E+03  0.7818608E-02  0.9827772E-01
          2   -1    0    0  501    0  0.00000000000E+00  0.00000000000E+00  0.20071176650E+03  0.20071176651E+03  0.25500000000E-02 0. -1.
         -2   -1    0    0    0  501 -0.00000000000E+00 -0.00000000000E+00 -0.18696247158E+04  0.18696247158E+04  0.25500000000E-02 0.  1.
    8880023    1    1    2    0    0  0.35915446660E+03 -0.43270093826E+02 -0.70877702517E+03  0.10329759482E+04  0.65864270000E+03 0. -1.
    8880022    1    1    2    0    0 -0.35915446660E+03  0.43270093826E+02 -0.96013592413E+03  0.10373605341E+04  0.15294330000E+03 0.  0.
<mgrwt>
<rscale>  0 0.63893182E+03</rscale>
<asrwt>0</asrwt>
<pdfrwt beam="1">  1        2 0.30878735E-01 0.75144823E+03</pdfrwt>
<pdfrwt beam="2">  1       -2 0.28763456E+00 0.75144823E+03</pdfrwt>
<totfact> 0.67452645E+00</totfact>
</mgrwt>
</event>
<event>
 4    1  0.5223852E-007  0.8269107E+03  0.7818608E-02  0.9655373E-01
          2   -1    0    0  501    0  0.00000000000E+00  0.00000000000E+00  0.10770410676E+04  0.10770410676E+04  0.25500000000E-02 0. -1.
         -2   -1    0    0    0  501 -0.00000000000E+00 -0.00000000000E+00 -0.72368568316E+03  0.72368568317E+03  0.25500000000E-02 0.  1.
    8880023    1    1    2    0    0  0.38547617879E+03  0.31840109692E+03 -0.37187225064E+03  0.90668093616E+03  0.65864270000E+03 0.  1.
    8880022    1    1    2    0    0 -0.38547617879E+03 -0.31840109692E+03  0.72522763513E+03  0.89404581466E+03  0.15294330000E+03 0.  0.
<mgrwt>
<rscale>  0 0.73737158E+03</rscale>
<asrwt>0</asrwt>
<pdfrwt beam="1">  1        2 0.16569863E+00 0.82691073E+03</pdfrwt>
<pdfrwt beam="2">  1       -2 0.11133626E+00 0.82691073E+03</pdfrwt>
<totfact> 0.14498255E+01</totfact>
</mgrwt>
</event>
<event>
 4    1  0.5223852E-007  0.9829800E+03  0.7818608E-02  0.9404172E-01
         -2   -1    0    0    0  501 -0.00000000000E+00  0.00000000000E+00  0.86921871465E+03  0.86921871465E+03  0.25500000000E-02 0.  1.
          2   -1    0    0  501    0  0.00000000000E+00 -0.00000000000E+00 -0.92174731047E+03  0.92174731047E+03  0.25500000000E-02 0. -1.
    8880023    1    1    2    0    0  0.71438363195E+03  0.14864574912E+03  0.20133836453E+03  0.10033876996E+04  0.65864270000E+03 0.  0.
    8880022    1    1    2    0    0 -0.71438363195E+03 -0.14864574912E+03 -0.25386696035E+03  0.78757832557E+03  0.15294330000E+03 0.  0.
<mgrwt>
<rscale>  0 0.91733166E+03</rscale>
<asrwt>0</asrwt>
<pdfrwt beam="1">  1        2 0.14180728E+00 0.98298003E+03</pdfrwt>
<pdfrwt beam="2">  1       -2 0.13372596E+00 0.98298003E+03</pdfrwt>
<totfact> 0.11383437E+01</totfact>
</mgrwt>
</event>
<event>
 4    1  0.5223852E-007  0.6961694E+03  0.7818608E-02  0.1001348E+00
          2   -1    0    0  501    0  0.00000000000E+00  0.00000000000E+00  0.21024916744E+04  0.21024916744E+04  0.25500000000E-02 0. -1.
         -2   -1    0    0    0  501 -0.00000000000E+00 -0.00000000000E+00 -0.10304169049E+04  0.10304169050E+04  0.25500000000E-02 0.  1.
    8880023    1    1    2    0    0  0.21298623328E+03  0.74016829857E+02  0.20252476205E+04  0.21415601222E+04  0.65864270000E+03 0. -1.
    8880022    1    1    2    0    0 -0.21298623328E+03 -0.74016829857E+02 -0.95317285097E+03  0.99134845716E+03  0.15294330000E+03 0.  0.
<mgrwt>
<rscale>  0 0.55063147E+03</rscale>
<asrwt>0</asrwt>
<pdfrwt beam="1">  1        2 0.32346025E+00 0.69616940E+03</pdfrwt>
<pdfrwt beam="2">  1       -2 0.15852568E+00 0.69616940E+03</pdfrwt>
<totfact> 0.15927832E+00</totfact>
</mgrwt>
</event>
<event>
 4    1  0.5223852E-007  0.9235946E+03  0.7818608E-02  0.9489169E-01
          2   -1    0    0  501    0  0.00000000000E+00  0.00000000000E+00  0.16498648116E+04  0.16498648116E+04  0.25500000000E-02 0. -1.
         -2   -1    0    0    0  501 -0.00000000000E+00 -0.00000000000E+00 -0.81790432780E+03  0.81790432780E+03  0.25500000000E-02 0.  1.
    8880023    1    1    2    0    0  0.91900648174E+02 -0.64091424927E+03 -0.44703278309E+03  0.10260922568E+04  0.65864270000E+03 0.  1.
    8880022    1    1    2    0    0 -0.91900648174E+02  0.64091424927E+03  0.12789932669E+04  0.14416768826E+04  0.15294330000E+03 0.  0.
<mgrwt>
<rscale>  0 0.85087058E+03</rscale>
<asrwt>0</asrwt>
<pdfrwt beam="1">  1        2 0.25382536E+00 0.92359461E+03</pdfrwt>
<pdfrwt beam="2">  1       -2 0.12583144E+00 0.92359461E+03</pdfrwt>
<totfact> 0.49513583E+00</totfact>
</mgrwt>
</event>
<event>
 4    1  0.5223852E-007  0.6666327E+03  0.7818608E-02  0.1018201E+00
         -2   -1    0    0    0  501 -0.00000000000E+00  0.00000000000E+00  0.18280472342E+03  0.18280472344E+03  0.25500000000E-02 0.  1.
          2   -1    0    0  501    0  0.00000000000E+00 -0.00000000000E+00 -0.14041739869E+04  0.14041739869E+04  0.25500000000E-02 0. -1.
    8880023    1    1    2    0    0  0.71374419380E+02  0.74125558270E+02 -0.47594207899E+03  0.81909704855E+03  0.65864270000E+03 0.  1.
    8880022    1    1    2    0    0 -0.71374419380E+02 -0.74125558270E+02 -0.74542718451E+03  0.76788166181E+03  0.15294330000E+03 0.  0.
<mgrwt>
<rscale>  0 0.48341348E+03</rscale>
<asrwt>0</asrwt>
<pdfrwt beam="1">  1        2 0.21602676E+00 0.66663267E+03</pdfrwt>
<pdfrwt beam="2">  1       -2 0.28123804E-01 0.66663267E+03</pdfrwt>
<totfact> 0.16983614E+02</totfact>
</mgrwt>
</event>
<event>
 4    1  0.5223852E-007  0.6635609E+03  0.7818608E-02  0.1020773E+00
         -2   -1    0    0    0  501 -0.00000000000E+00  0.00000000000E+00  0.23010172530E+03  0.23010172532E+03  0.25500000000E-02 0.  1.
          2   -1    0    0  501    0  0.00000000000E+00 -0.00000000000E+00 -0.12371267079E+04  0.12371267079E+04  0.25500000000E-02 0. -1.
    8880023    1    1    2    0    0 -0.77322736763E+02  0.22892811018E+02 -0.28049792752E+03  0.72041111875E+03  0.65864270000E+03 0.  1.
    8880022    1    1    2    0    0  0.77322736763E+02 -0.22892811018E+02 -0.72652705504E+03  0.74681731443E+03  0.15294330000E+03 0.  0.
<mgrwt>
<rscale>  0 0.47408868E+03</rscale>
<asrwt>0</asrwt>
<pdfrwt beam="1">  1        2 0.19032718E+00 0.66356092E+03</pdfrwt>
<pdfrwt beam="2">  1       -2 0.35400266E-01 0.66356092E+03</pdfrwt>
<totfact> 0.13772450E+02</totfact>
</mgrwt>
</event>
<event>
 4    1  0.5223852E-007  0.6705392E+03  0.7818608E-02  0.1015279E+00
          2   -1    0    0  501    0  0.00000000000E+00  0.00000000000E+00  0.93986758245E+03  0.93986758245E+03  0.25500000000E-02 0. -1.
         -2   -1    0    0    0  501 -0.00000000000E+00 -0.00000000000E+00 -0.72271671074E+03  0.72271671075E+03  0.25500000000E-02 0.  1.
    8880023    1    1    2    0    0 -0.24834370324E+02  0.12327155475E+03 -0.55189829857E+03  0.86845527253E+03  0.65864270000E+03 0.  0.
    8880022    1    1    2    0    0  0.24834370324E+02 -0.12327155475E+03  0.76904917027E+03  0.79412902067E+03  0.15294330000E+03 0. -1.
<mgrwt>
<rscale>  0 0.49429340E+03</rscale>
<asrwt>0</asrwt>
<pdfrwt beam="1">  1        2 0.14459501E+00 0.67053921E+03</pdfrwt>
<pdfrwt beam="2">  1       -2 0.11118719E+00 0.67053921E+03</pdfrwt>
<totfact> 0.18090455E+01</totfact>
</mgrwt>
</event>
<event>
 4    1  0.5223852E-007  0.7820617E+03  0.7818608E-02  0.9751016E-01
         -2   -1    0    0    0  501 -0.00000000000E+00  0.00000000000E+00  0.97961489561E+03  0.97961489561E+03  0.25500000000E-02 0.  1.
          2   -1    0    0  501    0  0.00000000000E+00 -0.00000000000E+00 -0.18237056682E+04  0.18237056682E+04  0.25500000000E-02 0. -1.
    8880023    1    1    2    0    0 -0.95613656102E+01 -0.42156718180E+03  0.78830059310E+03  0.11104225952E+04  0.65864270000E+03 0.  1.
    8880022    1    1    2    0    0  0.95613656102E+01  0.42156718180E+03 -0.16323913657E+04  0.16928979687E+04  0.15294330000E+03 0.  0.
<mgrwt>
<rscale>  0 0.68058879E+03</rscale>
<asrwt>0</asrwt>
<pdfrwt beam="1">  1        2 0.28057010E+00 0.78206171E+03</pdfrwt>
<pdfrwt beam="2">  1       -2 0.15070998E+00 0.78206171E+03</pdfrwt>
<totfact> 0.25463349E+00</totfact>
</mgrwt>
</event>
<event>
 4    1  0.5223852E-007  0.7653272E+03  0.7818608E-02  0.9791506E-01
          2   -1    0    0  501    0  0.00000000000E+00  0.00000000000E+00  0.12590659345E+04  0.12590659345E+04  0.25500000000E-02 0. -1.
         -2   -1    0    0    0  501 -0.00000000000E+00 -0.00000000000E+00 -0.63778322369E+03  0.63778322370E+03  0.25500000000E-02 0.  1.
    8880023    1    1    2    0    0 -0.34924160182E+03 -0.17304876999E+03 -0.34820186643E+03  0.84081527060E+03  0.65864270000E+03 0.  1.
    8880022    1    1    2    0    0  0.34924160182E+03  0.17304876999E+03  0.96948457722E+03  0.10560338876E+04  0.15294330000E+03 0.  0.
<mgrwt>
<rscale>  0 0.65820375E+03</rscale>
<asrwt>0</asrwt>
<pdfrwt beam="1">  1        2 0.19370245E+00 0.76532724E+03</pdfrwt>
<pdfrwt beam="2">  1       -2 0.98120496E-01 0.76532724E+03</pdfrwt>
<totfact> 0.15370689E+01</totfact>
</mgrwt>
</event>
<event>
 4    1  0.5223852E-007  0.6785280E+03  0.7818608E-02  0.1010169E+00
         -2   -1    0    0    0  501 -0.00000000000E+00  0.00000000000E+00  0.48818021806E+03  0.48818021806E+03  0.25500000000E-02 0.  1.
          2   -1    0    0  501    0  0.00000000000E+00 -0.00000000000E+00 -0.16845583190E+04  0.16845583190E+04  0.25500000000E-02 0. -1.
    8880023    1    1    2    0    0  0.11449337965E+03  0.11610919276E+03  0.23950324136E+03  0.71955686885E+03  0.65864270000E+03 0.  1.
    8880022    1    1    2    0    0 -0.11449337965E+03 -0.11610919276E+03 -0.14358813423E+04  0.14531816682E+04  0.15294330000E+03 0.  0.
<mgrwt>
<rscale>  0 0.51407591E+03</rscale>
<asrwt>0</asrwt>
<pdfrwt beam="1">  1        2 0.25916282E+00 0.67852803E+03</pdfrwt>
<pdfrwt beam="2">  1       -2 0.75104650E-01 0.67852803E+03</pdfrwt>
<totfact> 0.16529358E+01</totfact>
</mgrwt>
</event>
<event>
 4    1  0.5223852E-007  0.1218967E+04  0.7818608E-02  0.9138902E-01
          2   -1    0    0  501    0  0.00000000000E+00  0.00000000000E+00  0.25035229364E+04  0.25035229364E+04  0.25500000000E-02 0. -1.
         -2   -1    0    0    0  501 -0.00000000000E+00 -0.00000000000E+00 -0.64305868036E+03  0.64305868037E+03  0.25500000000E-02 0.  1.
    8880023    1    1    2    0    0  0.26514349397E+03  0.99084309842E+03  0.27100514409E+03  0.12487293992E+04  0.65864270000E+03 0.  1.
    8880022    1    1    2    0    0 -0.26514349397E+03 -0.99084309842E+03  0.15894591119E+04  0.18978522175E+04  0.15294330000E+03 0.  0.
<mgrwt>
<rscale>  0 0.11706942E+04</rscale>
<asrwt>0</asrwt>
<pdfrwt beam="1">  1        2 0.38515738E+00 0.12189673E+04</pdfrwt>
<pdfrwt beam="2">  1       -2 0.98932104E-01 0.12189673E+04</pdfrwt>
<totfact> 0.28810313E+00</totfact>
</mgrwt>
</event>
<event>
 4    1  0.5223852E-007  0.1338311E+04  0.7818608E-02  0.9033163E-01
          2   -1    0    0  501    0  0.00000000000E+00  0.00000000000E+00  0.17576226482E+04  0.17576226482E+04  0.25500000000E-02 0. -1.
         -2   -1    0    0    0  501 -0.00000000000E+00 -0.00000000000E+00 -0.10470696379E+04  0.10470696379E+04  0.25500000000E-02 0.  1.
    8880023    1    1    2    0    0  0.67557642403E+03  0.94913765161E+03 -0.15222364937E+03  0.13469402482E+04  0.65864270000E+03 0. -1.
    8880022    1    1    2    0    0 -0.67557642403E+03 -0.94913765161E+03  0.86277665972E+03  0.14577520379E+04  0.15294330000E+03 0.  1.
<mgrwt>
<rscale>  0 0.12954734E+04</rscale>
<asrwt>0</asrwt>
<pdfrwt beam="1">  1        2 0.27040348E+00 0.13383109E+04</pdfrwt>
<pdfrwt beam="2">  1       -2 0.16108764E+00 0.13383109E+04</pdfrwt>
<totfact> 0.21579357E+00</totfact>
</mgrwt>
</event>
<event>
 4    1  0.5223852E-007  0.1088733E+04  0.7818608E-02  0.9273706E-01
          2   -1    0    0  501    0  0.00000000000E+00  0.00000000000E+00  0.28070686014E+04  0.28070686014E+04  0.25500000000E-02 0. -1.
         -2   -1    0    0    0  501 -0.00000000000E+00 -0.00000000000E+00 -0.55107185319E+03  0.55107185320E+03  0.25500000000E-02 0.  1.
    8880023    1    1    2    0    0 -0.86426424247E+03  0.67647850547E+02  0.18039070627E+03  0.11035759719E+04  0.65864270000E+03 0.  1.
    8880022    1    1    2    0    0  0.86426424247E+03 -0.67647850547E+02  0.20756060419E+04  0.22545644827E+04  0.15294330000E+03 0.  0.
<mgrwt>
<rscale>  0 0.10324003E+04</rscale>
<asrwt>0</asrwt>
<pdfrwt beam="1">  1        2 0.43185671E+00 0.10887328E+04</pdfrwt>
<pdfrwt beam="2">  1       -2 0.84780284E-01 0.10887328E+04</pdfrwt>
<totfact> 0.27855764E+00</totfact>
</mgrwt>
</event>
<event>
 4    1  0.5223852E-007  0.1185417E+04  0.7818608E-02  0.9171430E-01
          2   -1    0    0  501    0  0.00000000000E+00  0.00000000000E+00  0.40673042528E+04  0.40673042528E+04  0.25500000000E-02 0. -1.
         -2   -1    0    0    0  501 -0.00000000000E+00 -0.00000000000E+00 -0.33001559358E+03  0.33001559359E+03  0.25500000000E-02 0.  1.
    8880023    1    1    2    0    0 -0.55328921977E+02  0.98404340415E+03  0.12762146121E+04  0.17418199256E+04  0.65864270000E+03 0.  0.
    8880022    1    1    2    0    0  0.55328921977E+02 -0.98404340415E+03  0.24610740471E+04  0.26554999208E+04  0.15294330000E+03 0.  0.
<mgrwt>
<rscale>  0 0.11353244E+04</rscale>
<asrwt>0</asrwt>
<pdfrwt beam="1">  1        2 0.62573908E+00 0.11854168E+04</pdfrwt>
<pdfrwt beam="2">  1       -2 0.50771632E-01 0.11854168E+04</pdfrwt>
<totfact> 0.11330704E+00</totfact>
</mgrwt>
</event>
<event>
 4    1  0.5223852E-007  0.9171042E+03  0.7818608E-02  0.9499113E-01
         -2   -1    0    0    0  501 -0.00000000000E+00  0.00000000000E+00  0.11411057098E+04  0.11411057098E+04  0.25500000000E-02 0.  1.
          2   -1    0    0  501    0  0.00000000000E+00 -0.00000000000E+00 -0.14519389815E+04  0.14519389815E+04  0.25500000000E-02 0. -1.
    8880023    1    1    2    0    0 -0.35798848266E+03 -0.52831257766E+03  0.85587775923E+03  0.12544348841E+04  0.65864270000E+03 0.  1.
    8880022    1    1    2    0    0  0.35798848266E+03  0.52831257766E+03 -0.11667110309E+04  0.13386098072E+04  0.15294330000E+03 0.  0.
<mgrwt>
<rscale>  0 0.84349213E+03</rscale>
<asrwt>0</asrwt>
<pdfrwt beam="1">  1        2 0.22337523E+00 0.91710421E+03</pdfrwt>
<pdfrwt beam="2">  1       -2 0.17555472E+00 0.91710421E+03</pdfrwt>
<totfact> 0.26395573E+00</totfact>
</mgrwt>
</event>
<event>
 4    1  0.5223852E-007  0.8972919E+03  0.7818608E-02  0.9530393E-01
          2   -1    0    0  501    0  0.00000000000E+00  0.00000000000E+00  0.16719710635E+04  0.16719710635E+04  0.25500000000E-02 0. -1.
         -2   -1    0    0    0  501 -0.00000000000E+00 -0.00000000000E+00 -0.46778021441E+03  0.46778021442E+03  0.25500000000E-02 0.  1.
    8880023    1    1    2    0    0 -0.48390561833E+03  0.37034824802E+03  0.12161901322E+04  0.15113739167E+04  0.65864270000E+03 0.  0.
    8880022    1    1    2    0    0  0.48390561833E+03 -0.37034824802E+03 -0.11999283090E+02  0.62837736120E+03  0.15294330000E+03 0.  0.
<mgrwt>
<rscale>  0 0.82079675E+03</rscale>
<asrwt>0</asrwt>
<pdfrwt beam="1">  1        2 0.25722631E+00 0.89729186E+03</pdfrwt>
<pdfrwt beam="2">  1       -2 0.71966188E-01 0.89729186E+03</pdfrwt>
<totfact> 0.17954884E+01</totfact>
</mgrwt>
</event>
<event>
 4    1  0.5223852E-007  0.8263862E+03  0.7818608E-02  0.9656405E-01
          2   -1    0    0  501    0  0.00000000000E+00  0.00000000000E+00  0.68779975588E+03  0.68779975589E+03  0.25500000000E-02 0. -1.
         -2   -1    0    0    0  501 -0.00000000000E+00 -0.00000000000E+00 -0.10261267838E+04  0.10261267838E+04  0.25500000000E-02 0.  1.
    8880023    1    1    2    0    0 -0.32872824017E+03 -0.37555512244E+03 -0.69658201853E+03  0.10808055425E+04  0.65864270000E+03 0.  1.
    8880022    1    1    2    0    0  0.32872824017E+03  0.37555512244E+03  0.35825499057E+03  0.63312099725E+03  0.15294330000E+03 0.  0.
<mgrwt>
<rscale>  0 0.73672806E+03</rscale>
<asrwt>0</asrwt>
<pdfrwt beam="1">  1        2 0.10581535E+00 0.82638618E+03</pdfrwt>
<pdfrwt beam="2">  1       -2 0.15786566E+00 0.82638618E+03</pdfrwt>
<totfact> 0.11031567E+01</totfact>
</mgrwt>
</event>
<event>
 4    1  0.5223852E-007  0.7370717E+03  0.7818608E-02  0.9868561E-01
         -2   -1    0    0    0  501 -0.00000000000E+00  0.00000000000E+00  0.61741546382E+03  0.61741546382E+03  0.25500000000E-02 0.  1.
          2   -1    0    0  501    0  0.00000000000E+00 -0.00000000000E+00 -0.20492510099E+04  0.20492510099E+04  0.25500000000E-02 0. -1.
    8880023    1    1    2    0    0 -0.19862560668E+03 -0.26459839422E+03  0.37252210308E+03  0.82586158973E+03  0.65864270000E+03 0.  0.
    8880022    1    1    2    0    0  0.19862560668E+03  0.26459839422E+03 -0.18043576491E+04  0.18408048839E+04  0.15294330000E+03 0.  0.
<mgrwt>
<rscale>  0 0.61809464E+03</rscale>
<asrwt>0</asrwt>
<pdfrwt beam="1">  1        2 0.31526938E+00 0.73707167E+03</pdfrwt>
<pdfrwt beam="2">  1       -2 0.94986995E-01 0.73707167E+03</pdfrwt>
<totfact> 0.60774579E+00</totfact>
</mgrwt>
</event>
<event>
 4    1  0.5223852E-007  0.8315934E+03  0.7818608E-02  0.9646240E-01
         -2   -1    0    0    0  501 -0.00000000000E+00  0.00000000000E+00  0.18115097201E+03  0.18115097203E+03  0.25500000000E-02 0.  1.
          2   -1    0    0  501    0  0.00000000000E+00 -0.00000000000E+00 -0.28876463642E+04  0.28876463642E+04  0.25500000000E-02 0. -1.
    8880023    1    1    2    0    0  0.28262800214E+03 -0.42173309046E+03 -0.11126802686E+04  0.13891022186E+04  0.65864270000E+03 0.  0.
    8880022    1    1    2    0    0 -0.28262800214E+03  0.42173309046E+03 -0.15938151235E+04  0.16796951176E+04  0.15294330000E+03 0.  0.
<mgrwt>
<rscale>  0 0.74309868E+03</rscale>
<asrwt>0</asrwt>
<pdfrwt beam="1">  1        2 0.44425325E+00 0.83159341E+03</pdfrwt>
<pdfrwt beam="2">  1       -2 0.27869382E-01 0.83159341E+03</pdfrwt>
<totfact> 0.25036431E+01</totfact>
</mgrwt>
</event>
<event>
 4    1  0.5223852E-007  0.7139496E+03  0.7818608E-02  0.9943617E-01
          2   -1    0    0  501    0  0.00000000000E+00  0.00000000000E+00  0.14298517071E+04  0.14298517071E+04  0.25500000000E-02 0. -1.
         -2   -1    0    0    0  501 -0.00000000000E+00 -0.00000000000E+00 -0.35345404103E+03  0.35345404104E+03  0.25500000000E-02 0.  1.
    8880023    1    1    2    0    0  0.23248218350E+03  0.14787094732E+03  0.56897215587E+02  0.71621315410E+03  0.65864270000E+03 0.  1.
    8880022    1    1    2    0    0 -0.23248218350E+03 -0.14787094732E+03  0.10195004504E+04  0.10670925940E+04  0.15294330000E+03 0.  0.
<mgrwt>
<rscale>  0 0.58193205E+03</rscale>
<asrwt>0</asrwt>
<pdfrwt beam="1">  1        2 0.21997719E+00 0.71394957E+03</pdfrwt>
<pdfrwt beam="2">  1       -2 0.54377543E-01 0.71394957E+03</pdfrwt>
<totfact> 0.45397395E+01</totfact>
</mgrwt>
</event>
<event>
 4    1  0.5223852E-007  0.1286692E+04  0.7818608E-02  0.9077138E-01
          2   -1    0    0  501    0  0.00000000000E+00  0.00000000000E+00  0.12757773911E+04  0.12757773911E+04  0.25500000000E-02 0. -1.
         -2   -1    0    0    0  501 -0.00000000000E+00 -0.00000000000E+00 -0.19583441497E+04  0.19583441497E+04  0.25500000000E-02 0.  1.
    8880023    1    1    2    0    0 -0.90011303972E+03  0.64153230698E+03  0.69413512657E+03  0.14619852822E+04  0.65864270000E+03 0. -1.
    8880022    1    1    2    0    0  0.90011303972E+03 -0.64153230698E+03 -0.13767018852E+04  0.17721362586E+04  0.15294330000E+03 0.  0.
<mgrwt>
<rscale>  0 0.12416785E+04</rscale>
<asrwt>0</asrwt>
<pdfrwt beam="1">  1        2 0.19627345E+00 0.12866924E+04</pdfrwt>
<pdfrwt beam="2">  1       -2 0.30128371E+00 0.12866924E+04</pdfrwt>
<totfact> 0.51493973E-01</totfact>
</mgrwt>
</event>
<event>
 4    1  0.5223852E-007  0.7317229E+03  0.7818608E-02  0.9884749E-01
          2   -1    0    0  501    0  0.00000000000E+00  0.00000000000E+00  0.26933702474E+04  0.26933702474E+04  0.25500000000E-02 0. -1.
         -2   -1    0    0    0  501 -0.00000000000E+00 -0.00000000000E+00 -0.32033444242E+03  0.32033444243E+03  0.25500000000E-02 0.  1.
    8880023    1    1    2    0    0 -0.11600442640E+03  0.29690264173E+03  0.13025277226E+03  0.74322553546E+03  0.65864270000E+03 0.  0.
    8880022    1    1    2    0    0  0.11600442640E+03 -0.29690264173E+03  0.22427830327E+04  0.22704791544E+04  0.15294330000E+03 0. -1.
<mgrwt>
<rscale>  0 0.61006158E+03</rscale>
<asrwt>0</asrwt>
<pdfrwt beam="1">  1        2 0.41436465E+00 0.73172291E+03</pdfrwt>
<pdfrwt beam="2">  1       -2 0.49282222E-01 0.73172291E+03</pdfrwt>
<totfact> 0.11039691E+01</totfact>
</mgrwt>
</event>
<event>
 4    1  0.5223852E-007  0.7932306E+03  0.7818608E-02  0.9725629E-01
         -2   -1    0    0    0  501 -0.00000000000E+00  0.00000000000E+00  0.14660117666E+03  0.14660117669E+03  0.25500000000E-02 0.  1.
          2   -1    0    0  501    0  0.00000000000E+00 -0.00000000000E+00 -0.27276251618E+04  0.27276251618E+04  0.25500000000E-02 0. -1.
    8880023    1    1    2    0    0 -0.19070352768E+02 -0.44163439368E+03 -0.17281268225E+04  0.19014828785E+04  0.65864270000E+03 0.  0.
    8880022    1    1    2    0    0  0.19070352768E+02  0.44163439368E+03 -0.85289716255E+03  0.97274345998E+03  0.15294330000E+03 0.  1.
<mgrwt>
<rscale>  0 0.69511169E+03</rscale>
<asrwt>0</asrwt>
<pdfrwt beam="1">  1        2 0.41963460E+00 0.79323062E+03</pdfrwt>
<pdfrwt beam="2">  1       -2 0.22554029E-01 0.79323062E+03</pdfrwt>
<totfact> 0.45914413E+01</totfact>
</mgrwt>
</event>
<event>
 4    1  0.5223852E-007  0.7075112E+03  0.7818608E-02  0.9967362E-01
         -2   -1    0    0    0  501 -0.00000000000E+00  0.00000000000E+00  0.42596413510E+03  0.42596413511E+03  0.25500000000E-02 0.  1.
          2   -1    0    0  501    0  0.00000000000E+00 -0.00000000000E+00 -0.79655605441E+03  0.79655605442E+03  0.25500000000E-02 0. -1.
    8880023    1    1    2    0    0 -0.24547215547E+03 -0.80655119875E+02  0.45995091088E+02  0.70900464183E+03  0.65864270000E+03 0.  1.
    8880022    1    1    2    0    0  0.24547215547E+03  0.80655119875E+02 -0.41658701040E+03  0.51351554769E+03  0.15294330000E+03 0.  0.
<mgrwt>
<rscale>  0 0.57104822E+03</rscale>
<asrwt>0</asrwt>
<pdfrwt beam="1">  1        2 0.12254709E+00 0.70751115E+03</pdfrwt>
<pdfrwt beam="2">  1       -2 0.65532944E-01 0.70751115E+03</pdfrwt>
<totfact> 0.75515984E+01</totfact>
</mgrwt>
</event>
<event>
 4    1  0.5223852E-007  0.1076626E+04  0.7818608E-02  0.9287537E-01
         -2   -1    0    0    0  501 -0.00000000000E+00  0.00000000000E+00  0.82770791286E+03  0.82770791287E+03  0.25500000000E-02 0.  1.
          2   -1    0    0  501    0  0.00000000000E+00 -0.00000000000E+00 -0.24232446491E+04  0.24232446491E+04  0.25500000000E-02 0. -1.
    8880023    1    1    2    0    0  0.80923706028E+03  0.26542368077E+03  0.34145882821E+03  0.11294771745E+04  0.65864270000E+03 0.  0.
    8880022    1    1    2    0    0 -0.80923706028E+03 -0.26542368077E+03 -0.19369955645E+04  0.21214753875E+04  0.15294330000E+03 0.  0.
<mgrwt>
<rscale>  0 0.10193837E+04</rscale>
<asrwt>0</asrwt>
<pdfrwt beam="1">  1        2 0.37280687E+00 0.10766265E+04</pdfrwt>
<pdfrwt beam="2">  1       -2 0.12733968E+00 0.10766265E+04</pdfrwt>
<totfact> 0.17544777E+00</totfact>
</mgrwt>
</event>
<event>
 4    1  0.5223852E-007  0.9642740E+03  0.7818608E-02  0.9429868E-01
         -2   -1    0    0    0  501 -0.00000000000E+00  0.00000000000E+00  0.23308163738E+04  0.23308163738E+04  0.25500000000E-02 0.  1.
          2   -1    0    0  501    0  0.00000000000E+00 -0.00000000000E+00 -0.42131625380E+03  0.42131625381E+03  0.25500000000E-02 0. -1.
    8880023    1    1    2    0    0  0.68616699001E+03  0.15871031875E+03  0.17735295400E+04  0.20187202231E+04  0.65864270000E+03 0.  0.
    8880022    1    1    2    0    0 -0.68616699001E+03 -0.15871031875E+03  0.13597057995E+03  0.73341240451E+03  0.15294330000E+03 0.  0.
<mgrwt>
<rscale>  0 0.89657924E+03</rscale>
<asrwt>0</asrwt>
<pdfrwt beam="1">  1        2 0.64817885E-01 0.96427398E+03</pdfrwt>
<pdfrwt beam="2">  1       -2 0.35858713E+00 0.96427398E+03</pdfrwt>
<totfact> 0.10514809E+00</totfact>
</mgrwt>
</event>
<event>
 4    1  0.5223852E-007  0.7043484E+03  0.7818608E-02  0.9979619E-01
          2   -1    0    0  501    0  0.00000000000E+00  0.00000000000E+00  0.10238878570E+04  0.10238878570E+04  0.25500000000E-02 0. -1.
         -2   -1    0    0    0  501 -0.00000000000E+00 -0.00000000000E+00 -0.35217047396E+03  0.35217047397E+03  0.25500000000E-02 0.  1.
    8880023    1    1    2    0    0 -0.24870861501E+03 -0.20986378074E+02  0.71128995459E+02  0.70793074768E+03  0.65864270000E+03 0.  1.
    8880022    1    1    2    0    0  0.24870861501E+03  0.20986378074E+02  0.60058838762E+03  0.66812758333E+03  0.15294330000E+03 0.  0.
<mgrwt>
<rscale>  0 0.56553002E+03</rscale>
<asrwt>0</asrwt>
<pdfrwt beam="1">  1        2 0.15752121E+00 0.70434836E+03</pdfrwt>
<pdfrwt beam="2">  1       -2 0.54180073E-01 0.70434836E+03</pdfrwt>
<totfact> 0.79428011E+01</totfact>
</mgrwt>
</event>
<event>
 4    1  0.5223852E-007  0.9197160E+03  0.7818608E-02  0.9495095E-01
          2   -1    0    0  501    0  0.00000000000E+00  0.00000000000E+00  0.30533937855E+04  0.30533937856E+04  0.25500000000E-02 0. -1.
         -2   -1    0    0    0  501 -0.00000000000E+00 -0.00000000000E+00 -0.24112552892E+03  0.24112552893E+03  0.25500000000E-02 0.  1.
    8880023    1    1    2    0    0  0.38761897353E+03  0.51168228857E+03  0.22384684322E+04  0.24200451155E+04  0.65864270000E+03 0.  0.
    8880022    1    1    2    0    0 -0.38761897353E+03 -0.51168228857E+03  0.57379982446E+03  0.87447419896E+03  0.15294330000E+03 0.  0.
<mgrwt>
<rscale>  0 0.84646438E+03</rscale>
<asrwt>0</asrwt>
<pdfrwt beam="1">  1        2 0.46975294E+00 0.91971596E+03</pdfrwt>
<pdfrwt beam="2">  1       -2 0.37096231E-01 0.91971596E+03</pdfrwt>
<totfact> 0.11428495E+01</totfact>
</mgrwt>
</event>
<event>
 4    1  0.5223852E-007  0.6989050E+03  0.7818608E-02  0.1000177E+00
          2   -1    0    0  501    0  0.00000000000E+00  0.00000000000E+00  0.13484175646E+04  0.13484175646E+04  0.25500000000E-02 0. -1.
         -2   -1    0    0    0  501 -0.00000000000E+00 -0.00000000000E+00 -0.48353687601E+03  0.48353687601E+03  0.25500000000E-02 0.  1.
    8880023    1    1    2    0    0  0.16290667890E+03  0.16768830606E+03 -0.20327686892E+03  0.72786650268E+03  0.65864270000E+03 0.  0.
    8880022    1    1    2    0    0 -0.16290667890E+03 -0.16768830606E+03  0.10681575575E+04  0.11040879379E+04  0.15294330000E+03 0.  0.
<mgrwt>
<rscale>  0 0.55572500E+03</rscale>
<asrwt>0</asrwt>
<pdfrwt beam="1">  1        2 0.20744886E+00 0.69890497E+03</pdfrwt>
<pdfrwt beam="2">  1       -2 0.74390288E-01 0.69890497E+03</pdfrwt>
<totfact> 0.25877994E+01</totfact>
</mgrwt>
</event>
<event>
 4    1  0.5223852E-007  0.9067050E+03  0.7818608E-02  0.9515353E-01
          2   -1    0    0  501    0  0.00000000000E+00  0.00000000000E+00  0.87735353614E+03  0.87735353615E+03  0.25500000000E-02 0. -1.
         -2   -1    0    0    0  501 -0.00000000000E+00 -0.00000000000E+00 -0.10474904609E+04  0.10474904609E+04  0.25500000000E-02 0.  1.
    8880023    1    1    2    0    0  0.23996512589E+03  0.57508302198E+03  0.46760773901E+03  0.10201818209E+04  0.65864270000E+03 0. -1.
    8880022    1    1    2    0    0 -0.23996512589E+03 -0.57508302198E+03 -0.63774466377E+03  0.90466217617E+03  0.15294330000E+03 0.  0.
<mgrwt>
<rscale>  0 0.83161346E+03</rscale>
<asrwt>0</asrwt>
<pdfrwt beam="1">  1        2 0.13497747E+00 0.90670500E+03</pdfrwt>
<pdfrwt beam="2">  1       -2 0.16115238E+00 0.90670500E+03</pdfrwt>
<totfact> 0.75076398E+00</totfact>
</mgrwt>
</event>
<event>
 4    1  0.5223852E-007  0.6815098E+03  0.7818608E-02  0.1008482E+00
         -2   -1    0    0    0  501 -0.00000000000E+00  0.00000000000E+00  0.10739287153E+03  0.10739287156E+03  0.25500000000E-02 0.  1.
          2   -1    0    0  501    0  0.00000000000E+00 -0.00000000000E+00 -0.21042686858E+04  0.21042686858E+04  0.25500000000E-02 0. -1.
    8880023    1    1    2    0    0 -0.10498643958E+03 -0.14008316950E+03 -0.11832574665E+04  0.13654866844E+04  0.65864270000E+03 0.  1.
    8880022    1    1    2    0    0  0.10498643958E+03  0.14008316950E+03 -0.81361834770E+03  0.84617487294E+03  0.15294330000E+03 0.  0.
<mgrwt>
<rscale>  0 0.52082353E+03</rscale>
<asrwt>0</asrwt>
<pdfrwt beam="1">  1        2 0.32373362E+00 0.68150983E+03</pdfrwt>
<pdfrwt beam="2">  1       -2 0.16521982E-01 0.68150983E+03</pdfrwt>
<totfact> 0.17951074E+02</totfact>
</mgrwt>
</event>
<event>
 4    1  0.5223852E-007  0.8576592E+03  0.7818608E-02  0.9597741E-01
          2   -1    0    0  501    0  0.00000000000E+00  0.00000000000E+00  0.12691401834E+04  0.12691401834E+04  0.25500000000E-02 0. -1.
         -2   -1    0    0    0  501 -0.00000000000E+00 -0.00000000000E+00 -0.50161129314E+03  0.50161129314E+03  0.25500000000E-02 0.  1.
    8880023    1    1    2    0    0 -0.35053545348E+03  0.42295854882E+03  0.56789356611E+02  0.85953724495E+03  0.65864270000E+03 0.  1.
    8880022    1    1    2    0    0  0.35053545348E+03 -0.42295854882E+03  0.71073953369E+03  0.91121423163E+03  0.15294330000E+03 0.  0.
<mgrwt>
<rscale>  0 0.77445877E+03</rscale>
<asrwt>0</asrwt>
<pdfrwt beam="1">  1        2 0.19525234E+00 0.85765917E+03</pdfrwt>
<pdfrwt beam="2">  1       -2 0.77170967E-01 0.85765917E+03</pdfrwt>
<totfact> 0.26050760E+01</totfact>
</mgrwt>
</event>
<event>
 4    1  0.5223852E-007  0.9310065E+03  0.7818608E-02  0.9477985E-01
         -2   -1    0    0    0  501 -0.00000000000E+00  0.00000000000E+00  0.19948510237E+04  0.19948510237E+04  0.25500000000E-02 0.  1.
          2   -1    0    0  501    0  0.00000000000E+00 -0.00000000000E+00 -0.45577632859E+03  0.45577632859E+03  0.25500000000E-02 0. -1.
    8880023    1    1    2    0    0  0.64297210169E+03  0.13982040400E+03  0.15106417313E+04  0.17744890858E+04  0.65864270000E+03 0.  1.
    8880022    1    1    2    0    0 -0.64297210169E+03 -0.13982040400E+03  0.28432963741E+02  0.67613826645E+03  0.15294330000E+03 0. -1.
<mgrwt>
<rscale>  0 0.85926540E+03</rscale>
<asrwt>0</asrwt>
<pdfrwt beam="1">  1        2 0.70119434E-01 0.93100649E+03</pdfrwt>
<pdfrwt beam="2">  1       -2 0.30690016E+00 0.93100649E+03</pdfrwt>
<totfact> 0.20098656E+00</totfact>
</mgrwt>
</event>
<event>
 4    1  0.5223852E-007  0.6916249E+03  0.7818608E-02  0.1003390E+00
         -2   -1    0    0    0  501 -0.00000000000E+00  0.00000000000E+00  0.14521391221E+04  0.14521391221E+04  0.25500000000E-02 0.  1.
          2   -1    0    0  501    0  0.00000000000E+00 -0.00000000000E+00 -0.54887478763E+03  0.54887478763E+03  0.25500000000E-02 0. -1.
    8880023    1    1    2    0    0  0.11940346560E+03 -0.17400476409E+03  0.13310928641E+04  0.15000510874E+04  0.65864270000E+03 0.  1.
    8880022    1    1    2    0    0 -0.11940346560E+03  0.17400476409E+03 -0.42782852969E+03  0.50096282233E+03  0.15294330000E+03 0.  0.
<mgrwt>
<rscale>  0 0.54188594E+03</rscale>
<asrwt>0</asrwt>
<pdfrwt beam="1">  1        2 0.84442275E-01 0.69162494E+03</pdfrwt>
<pdfrwt beam="2">  1       -2 0.22340602E+00 0.69162494E+03</pdfrwt>
<totfact> 0.53551580E+00</totfact>
</mgrwt>
</event>
<event>
 4    1  0.5223852E-007  0.8166717E+03  0.7818608E-02  0.9675844E-01
          2   -1    0    0  501    0  0.00000000000E+00  0.00000000000E+00  0.43562818479E+03  0.43562818480E+03  0.25500000000E-02 0. -1.
         -2   -1    0    0    0  501 -0.00000000000E+00 -0.00000000000E+00 -0.18443316572E+04  0.18443316572E+04  0.25500000000E-02 0.  1.
    8880023    1    1    2    0    0 -0.41279780501E+03 -0.25048033101E+03 -0.15518551223E+04  0.17536267992E+04  0.65864270000E+03 0.  1.
    8880022    1    1    2    0    0  0.41279780501E+03  0.25048033101E+03  0.14315164989E+03  0.52633304279E+03  0.15294330000E+03 0.  0.
<mgrwt>
<rscale>  0 0.72473420E+03</rscale>
<asrwt>0</asrwt>
<pdfrwt beam="1">  1        2 0.67019722E-01 0.81667168E+03</pdfrwt>
<pdfrwt beam="2">  1       -2 0.28374333E+00 0.81667168E+03</pdfrwt>
<totfact> 0.29629325E+00</totfact>
</mgrwt>
</event>
<event>
 4    1  0.5223852E-007  0.8223569E+03  0.7818608E-02  0.9664391E-01
          2   -1    0    0  501    0  0.00000000000E+00  0.00000000000E+00  0.21548611825E+04  0.21548611825E+04  0.25500000000E-02 0. -1.
         -2   -1    0    0    0  501 -0.00000000000E+00 -0.00000000000E+00 -0.38115796825E+03  0.38115796826E+03  0.25500000000E-02 0.  1.
    8880023    1    1    2    0    0 -0.17132484143E+03  0.46163671658E+03  0.15455229569E+03  0.83675401269E+03  0.65864270000E+03 0.  1.
    8880022    1    1    2    0    0  0.17132484143E+03 -0.46163671658E+03  0.16191509186E+04  0.16992651381E+04  0.15294330000E+03 0.  0.
<mgrwt>
<rscale>  0 0.73177119E+03</rscale>
<asrwt>0</asrwt>
<pdfrwt beam="1">  1        2 0.33151710E+00 0.82235690E+03</pdfrwt>
<pdfrwt beam="2">  1       -2 0.58639688E-01 0.82235690E+03</pdfrwt>
<totfact> 0.15295865E+01</totfact>
</mgrwt>
</event>
<event>
 4    1  0.5223852E-007  0.1105598E+04  0.7818608E-02  0.9254849E-01
          2   -1    0    0  501    0  0.00000000000E+00  0.00000000000E+00  0.21733100013E+04  0.21733100013E+04  0.25500000000E-02 0. -1.
         -2   -1    0    0    0  501 -0.00000000000E+00 -0.00000000000E+00 -0.68795741405E+03  0.68795741405E+03  0.25500000000E-02 0.  1.
    8880023    1    1    2    0    0 -0.29115428519E+03  0.83890708466E+03 -0.21211209921E+02  0.11058010834E+04  0.65864270000E+03 0.  0.
    8880022    1    1    2    0    0  0.29115428519E+03 -0.83890708466E+03  0.15065637971E+04  0.17554663319E+04  0.15294330000E+03 0.  0.
<mgrwt>
<rscale>  0 0.10504793E+04</rscale>
<asrwt>0</asrwt>
<pdfrwt beam="1">  1        2 0.33435538E+00 0.11055976E+04</pdfrwt>
<pdfrwt beam="2">  1       -2 0.10583960E+00 0.11055976E+04</pdfrwt>
<totfact> 0.38149727E+00</totfact>
</mgrwt>
</event>
<event>
 4    1  0.5223852E-007  0.7226156E+03  0.7818608E-02  0.9913833E-01
         -2   -1    0    0    0  501 -0.00000000000E+00  0.00000000000E+00  0.20069080869E+04  0.20069080869E+04  0.25500000000E-02 0.  1.
          2   -1    0    0  501    0  0.00000000000E+00 -0.00000000000E+00 -0.18575342087E+03  0.18575342089E+03  0.25500000000E-02 0. -1.
    8880023    1    1    2    0    0  0.18037938845E+03  0.23627612476E+03  0.16818190235E+04  0.18304886137E+04  0.65864270000E+03 0.  1.
    8880022    1    1    2    0    0 -0.18037938845E+03 -0.23627612476E+03  0.13933564255E+03  0.36217289409E+03  0.15294330000E+03 0. -1.
<mgrwt>
<rscale>  0 0.59595542E+03</rscale>
<asrwt>0</asrwt>
<pdfrwt beam="1">  1        2 0.28577450E-01 0.72261562E+03</pdfrwt>
<pdfrwt beam="2">  1       -2 0.30875509E+00 0.72261562E+03</pdfrwt>
<totfact> 0.55158605E+00</totfact>
</mgrwt>
</event>
<event>
 4    1  0.5223852E-007  0.6737850E+03  0.7818608E-02  0.1013083E+00
         -2   -1    0    0    0  501 -0.00000000000E+00  0.00000000000E+00  0.37546958880E+03  0.37546958881E+03  0.25500000000E-02 0.  1.
          2   -1    0    0  501    0  0.00000000000E+00 -0.00000000000E+00 -0.28340129511E+04  0.28340129511E+04  0.25500000000E-02 0. -1.
    8880023    1    1    2    0    0 -0.10105640150E+03 -0.99818148549E+02  0.65373870036E+02  0.67694904403E+03  0.65864270000E+03 0.  0.
    8880022    1    1    2    0    0  0.10105640150E+03  0.99818148549E+02 -0.25239172323E+04  0.25325334958E+04  0.15294330000E+03 0. -1.
<mgrwt>
<rscale>  0 0.50267422E+03</rscale>
<asrwt>0</asrwt>
<pdfrwt beam="1">  1        2 0.43600198E+00 0.67378503E+03</pdfrwt>
<pdfrwt beam="2">  1       -2 0.57764554E-01 0.67378503E+03</pdfrwt>
<totfact> 0.66547019E+00</totfact>
</mgrwt>
</event>
<event>
 4    1  0.5223852E-007  0.7726442E+03  0.7818608E-02  0.9773408E-01
          2   -1    0    0  501    0  0.00000000000E+00  0.00000000000E+00  0.12552120053E+04  0.12552120053E+04  0.25500000000E-02 0. -1.
         -2   -1    0    0    0  501 -0.00000000000E+00 -0.00000000000E+00 -0.75820136168E+03  0.75820136168E+03  0.25500000000E-02 0.  1.
    8880023    1    1    2    0    0 -0.25269457608E+03  0.31514172739E+03 -0.50447652133E+03  0.92275436816E+03  0.65864270000E+03 0.  1.
    8880022    1    1    2    0    0  0.25269457608E+03 -0.31514172739E+03  0.10014871650E+04  0.10906589988E+04  0.15294330000E+03 0.  0.
<mgrwt>
<rscale>  0 0.66809332E+03</rscale>
<asrwt>0</asrwt>
<pdfrwt beam="1">  1        2 0.19310954E+00 0.77264420E+03</pdfrwt>
<pdfrwt beam="2">  1       -2 0.11664637E+00 0.77264420E+03</pdfrwt>
<totfact> 0.10178846E+01</totfact>
</mgrwt>
</event>
<event>
 4    1  0.5223852E-007  0.1134306E+04  0.7818608E-02  0.9223788E-01
          2   -1    0    0  501    0  0.00000000000E+00  0.00000000000E+00  0.27761670327E+04  0.27761670327E+04  0.25500000000E-02 0. -1.
         -2   -1    0    0    0  501 -0.00000000000E+00 -0.00000000000E+00 -0.47290684838E+03  0.47290684838E+03  0.25500000000E-02 0.  1.
    8880023    1    1    2    0    0  0.88678461819E+03 -0.25778572947E+03  0.54785200798E+03  0.12596795109E+04  0.65864270000E+03 0.  0.
    8880022    1    1    2    0    0 -0.88678461819E+03  0.25778572947E+03  0.17554081764E+04  0.19893943702E+04  0.15294330000E+03 0.  0.
<mgrwt>
<rscale>  0 0.10811231E+04</rscale>
<asrwt>0</asrwt>
<pdfrwt beam="1">  1        2 0.42710262E+00 0.11343062E+04</pdfrwt>
<pdfrwt beam="2">  1       -2 0.72754900E-01 0.11343062E+04</pdfrwt>
<totfact> 0.40778147E+00</totfact>
</mgrwt>
</event>
<event>
 4    1  0.5223852E-007  0.8510426E+03  0.7818608E-02  0.9609700E-01
          2   -1    0    0  501    0  0.00000000000E+00  0.00000000000E+00  0.31339028937E+04  0.31339028937E+04  0.25500000000E-02 0. -1.
         -2   -1    0    0    0  501 -0.00000000000E+00 -0.00000000000E+00 -0.18875740011E+03  0.18875740013E+03  0.25500000000E-02 0.  1.
    8880023    1    1    2    0    0 -0.48184810176E+03 -0.24142433161E+03  0.10789738968E+04  0.13742118386E+04  0.65864270000E+03 0.  0.
    8880022    1    1    2    0    0  0.48184810176E+03  0.24142433161E+03  0.18661715969E+04  0.19484484553E+04  0.15294330000E+03 0.  0.
<mgrwt>
<rscale>  0 0.76657491E+03</rscale>
<asrwt>0</asrwt>
<pdfrwt beam="1">  1        2 0.48213887E+00 0.85104260E+03</pdfrwt>
<pdfrwt beam="2">  1       -2 0.29039602E-01 0.85104260E+03</pdfrwt>
<totfact> 0.16325299E+01</totfact>
</mgrwt>
</event>
<event>
 4    1  0.5223852E-007  0.9557267E+03  0.7818608E-02  0.9441922E-01
          2   -1    0    0  501    0  0.00000000000E+00  0.00000000000E+00  0.17510666791E+04  0.17510666791E+04  0.25500000000E-02 0. -1.
         -2   -1    0    0    0  501 -0.00000000000E+00 -0.00000000000E+00 -0.53379653940E+03  0.53379653941E+03  0.25500000000E-02 0.  1.
    8880023    1    1    2    0    0  0.26099125764E+02  0.69204201107E+03  0.12516433249E+04  0.15748093626E+04  0.65864270000E+03 0.  0.
    8880022    1    1    2    0    0 -0.26099125764E+02 -0.69204201107E+03 -0.34373185195E+02  0.71005385594E+03  0.15294330000E+03 0.  0.
<mgrwt>
<rscale>  0 0.88704518E+03</rscale>
<asrwt>0</asrwt>
<pdfrwt beam="1">  1        2 0.26939487E+00 0.95572670E+03</pdfrwt>
<pdfrwt beam="2">  1       -2 0.82122545E-01 0.95572670E+03</pdfrwt>
<totfact> 0.12014192E+01</totfact>
</mgrwt>
</event>
<event>
 4    1  0.5223852E-007  0.7030771E+03  0.7818608E-02  0.9984668E-01
          2   -1    0    0  501    0  0.00000000000E+00  0.00000000000E+00  0.69697820203E+03  0.69697820203E+03  0.25500000000E-02 0. -1.
         -2   -1    0    0    0  501 -0.00000000000E+00 -0.00000000000E+00 -0.83467559372E+03  0.83467559372E+03  0.25500000000E-02 0.  1.
    8880023    1    1    2    0    0 -0.67278492674E+02  0.23660261332E+03 -0.64069795245E+03  0.95121567730E+03  0.65864270000E+03 0.  1.
    8880022    1    1    2    0    0  0.67278492674E+02 -0.23660261332E+03  0.50300056076E+03  0.58043811845E+03  0.15294330000E+03 0.  0.
<mgrwt>
<rscale>  0 0.56327660E+03</rscale>
<asrwt>0</asrwt>
<pdfrwt beam="1">  1        2 0.10722742E+00 0.70307709E+03</pdfrwt>
<pdfrwt beam="2">  1       -2 0.12841163E+00 0.70307709E+03</pdfrwt>
<totfact> 0.18803470E+01</totfact>
</mgrwt>
</event>
<event>
 4    1  0.5223852E-007  0.7011726E+03  0.7818608E-02  0.9992371E-01
          2   -1    0    0  501    0  0.00000000000E+00  0.00000000000E+00  0.61040671059E+03  0.61040671060E+03  0.25500000000E-02 0. -1.
         -2   -1    0    0    0  501 -0.00000000000E+00 -0.00000000000E+00 -0.75166272456E+03  0.75166272457E+03  0.25500000000E-02 0.  1.
    8880023    1    1    2    0    0  0.22253680833E+03 -0.91160453616E+02 -0.53078147092E+03  0.87941573530E+03  0.65864270000E+03 0.  0.
    8880022    1    1    2    0    0 -0.22253680833E+03  0.91160453616E+02  0.38952545695E+03  0.48265369986E+03  0.15294330000E+03 0.  0.
<mgrwt>
<rscale>  0 0.55986022E+03</rscale>
<asrwt>0</asrwt>
<pdfrwt beam="1">  1        2 0.93908725E-01 0.70117264E+03</pdfrwt>
<pdfrwt beam="2">  1       -2 0.11564042E+00 0.70117264E+03</pdfrwt>
<totfact> 0.28737490E+01</totfact>
</mgrwt>
</event>
<event>
 4    1  0.5223852E-007  0.1025851E+04  0.7818608E-02  0.9348491E-01
          2   -1    0    0  501    0  0.00000000000E+00  0.00000000000E+00  0.22171180115E+04  0.22171180115E+04  0.25500000000E-02 0. -1.
         -2   -1    0    0    0  501 -0.00000000000E+00 -0.00000000000E+00 -0.89328526727E+03  0.89328526727E+03  0.25500000000E-02 0.  1.
    8880023    1    1    2    0    0 -0.60893588704E+03  0.49775235239E+03 -0.48301701596E+03  0.11338765201E+04  0.65864270000E+03 0.  0.
    8880022    1    1    2    0    0  0.60893588704E+03 -0.49775235239E+03  0.18068497601E+04  0.19765267586E+04  0.15294330000E+03 0.  0.
<mgrwt>
<rscale>  0 0.96438639E+03</rscale>
<asrwt>0</asrwt>
<pdfrwt beam="1">  1        2 0.34109507E+00 0.10258511E+04</pdfrwt>
<pdfrwt beam="2">  1       -2 0.13742850E+00 0.10258511E+04</pdfrwt>
<totfact> 0.18987759E+00</totfact>
</mgrwt>
</event>
<event>
 4    1  0.5223852E-007  0.9182479E+03  0.7818608E-02  0.9497351E-01
         -2   -1    0    0    0  501 -0.00000000000E+00  0.00000000000E+00  0.67292380186E+03  0.67292380187E+03  0.25500000000E-02 0.  1.
          2   -1    0    0  501    0  0.00000000000E+00 -0.00000000000E+00 -0.98368980199E+03  0.98368980199E+03  0.25500000000E-02 0. -1.
    8880023    1    1    2    0    0 -0.57235168215E+03  0.28597653539E+03  0.23847349410E+02  0.91855752634E+03  0.65864270000E+03 0. -1.
    8880022    1    1    2    0    0  0.57235168215E+03 -0.28597653539E+03 -0.33461334954E+03  0.73805607752E+03  0.15294330000E+03 0.  0.
<mgrwt>
<rscale>  0 0.84479423E+03</rscale>
<asrwt>0</asrwt>
<pdfrwt beam="1">  1        2 0.15133689E+00 0.91824791E+03</pdfrwt>
<pdfrwt beam="2">  1       -2 0.10352674E+00 0.91824791E+03</pdfrwt>
<totfact> 0.19633019E+01</totfact>
</mgrwt>
</event>
<event>
 4    1  0.5223852E-007  0.7832942E+03  0.7818608E-02  0.9748155E-01
         -2   -1    0    0    0  501 -0.00000000000E+00  0.00000000000E+00  0.32120514784E+03  0.32120514785E+03  0.25500000000E-02 0.  1.
          2   -1    0    0  501    0  0.00000000000E+00 -0.00000000000E+00 -0.22842543763E+04  0.22842543763E+04  0.25500000000E-02 0. -1.
    8880023    1    1    2    0    0  0.35991886163E+03  0.22404915987E+03 -0.23233659989E+03  0.81702516173E+03  0.65864270000E+03 0.  1.
    8880022    1    1    2    0    0 -0.35991886163E+03 -0.22404915987E+03 -0.17307126285E+04  0.17884343624E+04  0.15294330000E+03 0.  0.
<mgrwt>
<rscale>  0 0.68220639E+03</rscale>
<asrwt>0</asrwt>
<pdfrwt beam="1">  1        2 0.35142374E+00 0.78329421E+03</pdfrwt>
<pdfrwt beam="2">  1       -2 0.49416178E-01 0.78329421E+03</pdfrwt>
<totfact> 0.18580175E+01</totfact>
</mgrwt>
</event>
<event>
 4    1  0.1097984E-006  0.1009137E+04  0.7818608E-02  0.9369700E-01
         -2   -1    0    0    0  501 -0.00000000000E+00  0.00000000000E+00  0.18337877505E+04  0.18337877505E+04  0.25500000000E-02 0.  1.
          2   -1    0    0  501    0  0.00000000000E+00 -0.00000000000E+00 -0.13836833960E+04  0.13836833960E+04  0.25500000000E-02 0. -1.
    8880023    1    1    2    0    0 -0.24768251267E+03  0.72332568893E+03  0.15618887865E+04  0.18595304426E+04  0.65864270000E+03 0.  0.
    8880022    1    1    2    0    0  0.24768251267E+03 -0.72332568893E+03 -0.11117844319E+04  0.13579407039E+04  0.15294330000E+03 0.  0.
<mgrwt>
<rscale>  0 0.94611721E+03</rscale>
<asrwt>0</asrwt>
<pdfrwt beam="1">  1        2 0.21287437E+00 0.10091367E+04</pdfrwt>
<pdfrwt beam="2">  1       -2 0.28212119E+00 0.10091367E+04</pdfrwt>
<totfact> 0.60471340E-01</totfact>
</mgrwt>
</event>
<event>
 4    1  0.5223852E-007  0.8536238E+03  0.7818608E-02  0.9605008E-01
         -2   -1    0    0    0  501 -0.00000000000E+00  0.00000000000E+00  0.57333757755E+03  0.57333757755E+03  0.25500000000E-02 0.  1.
          2   -1    0    0  501    0  0.00000000000E+00 -0.00000000000E+00 -0.26674184243E+04  0.26674184243E+04  0.25500000000E-02 0. -1.
    8880023    1    1    2    0    0 -0.40213214333E+03  0.36490157420E+03  0.20132385490E+03  0.87704328307E+03  0.65864270000E+03 0.  1.
    8880022    1    1    2    0    0  0.40213214333E+03 -0.36490157420E+03 -0.22954047016E+04  0.23637127188E+04  0.15294330000E+03 0.  0.
<mgrwt>
<rscale>  0 0.76965627E+03</rscale>
<asrwt>0</asrwt>
<pdfrwt beam="1">  1        2 0.41037206E+00 0.85362382E+03</pdfrwt>
<pdfrwt beam="2">  1       -2 0.88205783E-01 0.85362382E+03</pdfrwt>
<totfact> 0.31845605E+00</totfact>
</mgrwt>
</event>
<event>
 4    1  0.5223852E-007  0.9821199E+03  0.7818608E-02  0.9405333E-01
          2   -1    0    0  501    0  0.00000000000E+00  0.00000000000E+00  0.16954993182E+04  0.16954993182E+04  0.25500000000E-02 0. -1.
         -2   -1    0    0    0  501 -0.00000000000E+00 -0.00000000000E+00 -0.54596083990E+03  0.54596083991E+03  0.25500000000E-02 0.  1.
    8880023    1    1    2    0    0  0.72544456201E+03  0.66928416605E+02  0.14744151601E+03  0.99312558743E+03  0.65864270000E+03 0.  0.
    8880022    1    1    2    0    0 -0.72544456201E+03 -0.66928416605E+02  0.10020969623E+04  0.12483345707E+04  0.15294330000E+03 0.  0.
<mgrwt>
<rscale>  0 0.91638062E+03</rscale>
<asrwt>0</asrwt>
<pdfrwt beam="1">  1        2 0.26084605E+00 0.98211987E+03</pdfrwt>
<pdfrwt beam="2">  1       -2 0.83993976E-01 0.98211987E+03</pdfrwt>
<totfact> 0.12213946E+01</totfact>
</mgrwt>
</event>
<event>
 4    1  0.5223852E-007  0.7014746E+03  0.7818608E-02  0.9991138E-01
          2   -1    0    0  501    0  0.00000000000E+00  0.00000000000E+00  0.14258023771E+04  0.14258023771E+04  0.25500000000E-02 0. -1.
         -2   -1    0    0    0  501 -0.00000000000E+00 -0.00000000000E+00 -0.95126092386E+03  0.95126092387E+03  0.25500000000E-02 0.  1.
    8880023    1    1    2    0    0 -0.24019792496E+03 -0.23692387436E+02 -0.80399061296E+03  0.10669899177E+04  0.65864270000E+03 0.  1.
    8880022    1    1    2    0    0  0.24019792496E+03  0.23692387436E+02  0.12785320662E+04  0.13100733833E+04  0.15294330000E+03 0.  0.
<mgrwt>
<rscale>  0 0.56040521E+03</rscale>
<asrwt>0</asrwt>
<pdfrwt beam="1">  1        2 0.21935421E+00 0.70147457E+03</pdfrwt>
<pdfrwt beam="2">  1       -2 0.14634783E+00 0.70147457E+03</pdfrwt>
<totfact> 0.46193655E+00</totfact>
</mgrwt>
</event>
<event>
 4    1  0.5223852E-007  0.8246325E+03  0.7818608E-02  0.9659867E-01
         -2   -1    0    0    0  501 -0.00000000000E+00  0.00000000000E+00  0.55194998287E+03  0.55194998287E+03  0.25500000000E-02 0.  1.
          2   -1    0    0  501    0  0.00000000000E+00 -0.00000000000E+00 -0.15928421960E+04  0.15928421960E+04  0.25500000000E-02 0. -1.
    8880023    1    1    2    0    0  0.11282423139E+03 -0.48319698047E+03  0.15678683575E+03  0.83940511510E+03  0.65864270000E+03 0.  1.
    8880022    1    1    2    0    0 -0.11282423139E+03  0.48319698047E+03 -0.11976790489E+04  0.13053870637E+04  0.15294330000E+03 0.  0.
<mgrwt>
<rscale>  0 0.73457374E+03</rscale>
<asrwt>0</asrwt>
<pdfrwt beam="1">  1        2 0.24505264E+00 0.82463255E+03</pdfrwt>
<pdfrwt beam="2">  1       -2 0.84915383E-01 0.82463255E+03</pdfrwt>
<totfact> 0.13817088E+01</totfact>
</mgrwt>
</event>
<event>
 4    1  0.5223852E-007  0.6627020E+03  0.7818608E-02  0.1021544E+00
         -2   -1    0    0    0  501 -0.00000000000E+00  0.00000000000E+00  0.37081362875E+03  0.37081362876E+03  0.25500000000E-02 0.  1.
          2   -1    0    0  501    0  0.00000000000E+00 -0.00000000000E+00 -0.14595829232E+04  0.14595829232E+04  0.25500000000E-02 0. -1.
    8880023    1    1    2    0    0 -0.64535726819E+02  0.34625547755E+02  0.63480623962E+02  0.66573552142E+03  0.65864270000E+03 0.  0.
    8880022    1    1    2    0    0  0.64535726819E+02 -0.34625547755E+02 -0.11522499184E+04  0.11646610305E+04  0.15294330000E+03 0. -1.
<mgrwt>
<rscale>  0 0.47133396E+03</rscale>
<asrwt>0</asrwt>
<pdfrwt beam="1">  1        2 0.22455122E+00 0.66270204E+03</pdfrwt>
<pdfrwt beam="2">  1       -2 0.57048251E-01 0.66270204E+03</pdfrwt>
<totfact> 0.39784202E+01</totfact>
</mgrwt>
</event>
<event>
 4    1  0.5223852E-007  0.6597448E+03  0.7818608E-02  0.1024419E+00
         -2   -1    0    0    0  501 -0.00000000000E+00  0.00000000000E+00  0.71513943602E+02  0.71513943648E+02  0.25500000000E-02 0.  1.
          2   -1    0    0  501    0  0.00000000000E+00 -0.00000000000E+00 -0.39272760533E+04  0.39272760533E+04  0.25500000000E-02 0. -1.
    8880023    1    1    2    0    0 -0.55771260053E+01  0.37708558626E+02 -0.15112015608E+04  0.16489370526E+04  0.65864270000E+03 0.  1.
    8880022    1    1    2    0    0  0.55771260053E+01 -0.37708558626E+02 -0.23445605489E+04  0.23498529444E+04  0.15294330000E+03 0.  0.
<mgrwt>
<rscale>  0 0.46124981E+03</rscale>
<asrwt>0</asrwt>
<pdfrwt beam="1">  1        2 0.60419615E+00 0.65974483E+03</pdfrwt>
<pdfrwt beam="2">  1       -2 0.11002148E-01 0.65974483E+03</pdfrwt>
<totfact> 0.25640944E+01</totfact>
</mgrwt>
</event>
<event>
 4    1  0.5223852E-007  0.9288130E+03  0.7818608E-02  0.9481276E-01
         -2   -1    0    0    0  501 -0.00000000000E+00  0.00000000000E+00  0.46534943318E+03  0.46534943319E+03  0.25500000000E-02 0.  1.
          2   -1    0    0  501    0  0.00000000000E+00 -0.00000000000E+00 -0.29435398413E+04  0.29435398413E+04  0.25500000000E-02 0. -1.
    8880023    1    1    2    0    0 -0.82106932633E+01 -0.65484042234E+03 -0.96198884765E+02  0.93378146582E+03  0.65864270000E+03 0.  1.
    8880022    1    1    2    0    0  0.82106932633E+01  0.65484042234E+03 -0.23819915233E+04  0.24751078086E+04  0.15294330000E+03 0.  0.
<mgrwt>
<rscale>  0 0.85678439E+03</rscale>
<asrwt>0</asrwt>
<pdfrwt beam="1">  1        2 0.45285227E+00 0.92881301E+03</pdfrwt>
<pdfrwt beam="2">  1       -2 0.71592222E-01 0.92881301E+03</pdfrwt>
<totfact> 0.34471694E+00</totfact>
</mgrwt>
</event>
<event>
 4    1  0.5223852E-007  0.8070396E+03  0.7818608E-02  0.9695777E-01
          2   -1    0    0  501    0  0.00000000000E+00  0.00000000000E+00  0.24463081047E+04  0.24463081047E+04  0.25500000000E-02 0. -1.
         -2   -1    0    0    0  501 -0.00000000000E+00 -0.00000000000E+00 -0.34521779432E+03  0.34521779433E+03  0.25500000000E-02 0.  1.
    8880023    1    1    2    0    0  0.45258298910E+03  0.11256677351E+03  0.20462275695E+03  0.83257631449E+03  0.65864270000E+03 0.  1.
    8880022    1    1    2    0    0 -0.45258298910E+03 -0.11256677351E+03  0.18964675534E+04  0.19589495845E+04  0.15294330000E+03 0.  0.
<mgrwt>
<rscale>  0 0.71268797E+03</rscale>
<asrwt>0</asrwt>
<pdfrwt beam="1">  1        2 0.37635510E+00 0.80703956E+03</pdfrwt>
<pdfrwt beam="2">  1       -2 0.53110430E-01 0.80703956E+03</pdfrwt>
<totfact> 0.12963185E+01</totfact>
</mgrwt>
</event>
<event>
 4    1  0.5223852E-007  0.7938710E+03  0.7818608E-02  0.9724208E-01
          2   -1    0    0  501    0  0.00000000000E+00  0.00000000000E+00  0.12585894408E+04  0.12585894409E+04  0.25500000000E-02 0. -1.
         -2   -1    0    0    0  501 -0.00000000000E+00 -0.00000000000E+00 -0.82298785529E+03  0.82298785529E+03  0.25500000000E-02 0.  1.
    8880023    1    1    2    0    0  0.42597753632E+03 -0.12232784259E+03 -0.56646763416E+03  0.97525214654E+03  0.65864270000E+03 0.  1.
    8880022    1    1    2    0    0 -0.42597753632E+03  0.12232784259E+03  0.10020692197E+04  0.11063251496E+04  0.15294330000E+03 0.  0.
<mgrwt>
<rscale>  0 0.69593556E+03</rscale>
<asrwt>0</asrwt>
<pdfrwt beam="1">  1        2 0.19362914E+00 0.79387100E+03</pdfrwt>
<pdfrwt beam="2">  1       -2 0.12661352E+00 0.79387100E+03</pdfrwt>
<totfact> 0.82402563E+00</totfact>
</mgrwt>
</event>
<event>
 4    1  0.5223852E-007  0.7125832E+03  0.7818608E-02  0.9948531E-01
          2   -1    0    0  501    0  0.00000000000E+00  0.00000000000E+00  0.20582369359E+04  0.20582369359E+04  0.25500000000E-02 0. -1.
         -2   -1    0    0    0  501 -0.00000000000E+00 -0.00000000000E+00 -0.31217666296E+03  0.31217666297E+03  0.25500000000E-02 0.  1.
    8880023    1    1    2    0    0  0.24746503944E+03  0.11280822603E+03  0.12979688197E+03  0.72430799970E+03  0.65864270000E+03 0.  1.
    8880022    1    1    2    0    0 -0.24746503944E+03 -0.11280822603E+03  0.16162633910E+04  0.16461055992E+04  0.15294330000E+03 0.  0.
<mgrwt>
<rscale>  0 0.57965849E+03</rscale>
<asrwt>0</asrwt>
<pdfrwt beam="1">  1        2 0.31665182E+00 0.71258322E+03</pdfrwt>
<pdfrwt beam="2">  1       -2 0.48027181E-01 0.71258322E+03</pdfrwt>
<totfact> 0.26475470E+01</totfact>
</mgrwt>
</event>
<event>
 4    1  0.5223852E-007  0.6866649E+03  0.7818608E-02  0.1005780E+00
         -2   -1    0    0    0  501 -0.00000000000E+00  0.00000000000E+00  0.23046926991E+03  0.23046926992E+03  0.25500000000E-02 0.  1.
          2   -1    0    0  501    0  0.00000000000E+00 -0.00000000000E+00 -0.26162395157E+04  0.26162395157E+04  0.25500000000E-02 0. -1.
    8880023    1    1    2    0    0  0.86862250537E+02 -0.17364752511E+03 -0.30507551440E+03  0.75138524692E+03  0.65864270000E+03 0.  0.
    8880022    1    1    2    0    0 -0.86862250537E+02  0.17364752511E+03 -0.20806947314E+04  0.20953235387E+04  0.15294330000E+03 0. -1.
<mgrwt>
<rscale>  0 0.53186947E+03</rscale>
<asrwt>0</asrwt>
<pdfrwt beam="1">  1        2 0.40249837E+00 0.68666493E+03</pdfrwt>
<pdfrwt beam="2">  1       -2 0.35456813E-01 0.68666493E+03</pdfrwt>
<totfact> 0.23545465E+01</totfact>
</mgrwt>
</event>
<event>
 4    1  0.5223852E-007  0.7275285E+03  0.7818608E-02  0.9897889E-01
         -2   -1    0    0    0  501 -0.00000000000E+00  0.00000000000E+00  0.17356829513E+04  0.17356829513E+04  0.25500000000E-02 0.  1.
          2   -1    0    0  501    0  0.00000000000E+00 -0.00000000000E+00 -0.37656148411E+03  0.37656148412E+03  0.25500000000E-02 0. -1.
    8880023    1    1    2    0    0 -0.23067071650E+03  0.20561756837E+03  0.15542301289E+04  0.17160795622E+04  0.65864270000E+03 0.  1.
    8880022    1    1    2    0    0  0.23067071650E+03 -0.20561756837E+03 -0.19510866174E+03  0.39616487322E+03  0.15294330000E+03 0.  0.
<mgrwt>
<rscale>  0 0.60363688E+03</rscale>
<asrwt>0</asrwt>
<pdfrwt beam="1">  1        2 0.57932536E-01 0.72752854E+03</pdfrwt>
<pdfrwt beam="2">  1       -2 0.26702815E+00 0.72752854E+03</pdfrwt>
<totfact> 0.44530864E+00</totfact>
</mgrwt>
</event>
<event>
 4    1  0.5223852E-007  0.6922741E+03  0.7818608E-02  0.1003090E+00
          2   -1    0    0  501    0  0.00000000000E+00  0.00000000000E+00  0.17603409774E+04  0.17603409774E+04  0.25500000000E-02 0. -1.
         -2   -1    0    0    0  501 -0.00000000000E+00 -0.00000000000E+00 -0.10403905084E+04  0.10403905084E+04  0.25500000000E-02 0.  1.
    8880023    1    1    2    0    0  0.21085684543E+03 -0.31185895748E+02 -0.91359478548E+03  0.11462542509E+04  0.65864270000E+03 0.  1.
    8880022    1    1    2    0    0 -0.21085684543E+03  0.31185895748E+02  0.16335452545E+04  0.16544772349E+04  0.15294330000E+03 0.  0.
<mgrwt>
<rscale>  0 0.54315863E+03</rscale>
<asrwt>0</asrwt>
<pdfrwt beam="1">  1        2 0.27082169E+00 0.69227406E+03</pdfrwt>
<pdfrwt beam="2">  1       -2 0.16006008E+00 0.69227406E+03</pdfrwt>
<totfact> 0.23846813E+00</totfact>
</mgrwt>
</event>
<event>
 4    1  0.5223852E-007  0.6923226E+03  0.7818608E-02  0.1003068E+00
          2   -1    0    0  501    0  0.00000000000E+00  0.00000000000E+00  0.26411377083E+04  0.26411377083E+04  0.25500000000E-02 0. -1.
         -2   -1    0    0    0  501 -0.00000000000E+00 -0.00000000000E+00 -0.15039225282E+03  0.15039225284E+03  0.25500000000E-02 0.  1.
    8880023    1    1    2    0    0 -0.15458881849E+03 -0.14697854329E+03  0.71046029834E+03  0.99200022014E+03  0.65864270000E+03 0.  1.
    8880022    1    1    2    0    0  0.15458881849E+03  0.14697854329E+03  0.17802851571E+04  0.17995297410E+04  0.15294330000E+03 0.  0.
<mgrwt>
<rscale>  0 0.54325349E+03</rscale>
<asrwt>0</asrwt>
<pdfrwt beam="1">  1        2 0.40632884E+00 0.69232261E+03</pdfrwt>
<pdfrwt beam="2">  1       -2 0.23137272E-01 0.69232261E+03</pdfrwt>
<totfact> 0.49951051E+01</totfact>
</mgrwt>
</event>
<event>
 4    1  0.5223852E-007  0.7256268E+03  0.7818608E-02  0.9903987E-01
          2   -1    0    0  501    0  0.00000000000E+00  0.00000000000E+00  0.86653861496E+03  0.86653861496E+03  0.25500000000E-02 0. -1.
         -2   -1    0    0    0  501 -0.00000000000E+00 -0.00000000000E+00 -0.67815032391E+03  0.67815032391E+03  0.25500000000E-02 0.  1.
    8880023    1    1    2    0    0 -0.28478725720E+03  0.10779710554E+03 -0.42650459558E+03  0.84168900084E+03  0.65864270000E+03 0.  1.
    8880022    1    1    2    0    0  0.28478725720E+03 -0.10779710554E+03  0.61489288663E+03  0.70299993803E+03  0.15294330000E+03 0.  0.
<mgrwt>
<rscale>  0 0.60068435E+03</rscale>
<asrwt>0</asrwt>
<pdfrwt beam="1">  1        2 0.13331363E+00 0.72562677E+03</pdfrwt>
<pdfrwt beam="2">  1       -2 0.10433082E+00 0.72562677E+03</pdfrwt>
<totfact> 0.23474474E+01</totfact>
</mgrwt>
</event>
<event>
 4    1  0.5223852E-007  0.7309956E+03  0.7818608E-02  0.9886998E-01
         -2   -1    0    0    0  501 -0.00000000000E+00  0.00000000000E+00  0.59060664597E+03  0.59060664597E+03  0.25500000000E-02 0.  1.
          2   -1    0    0  501    0  0.00000000000E+00 -0.00000000000E+00 -0.15617776486E+04  0.15617776486E+04  0.25500000000E-02 0. -1.
    8880023    1    1    2    0    0  0.25887579427E+03  0.18310570887E+03  0.33174059811E+03  0.80274928102E+03  0.65864270000E+03 0.  0.
    8880022    1    1    2    0    0 -0.25887579427E+03 -0.18310570887E+03 -0.13029116007E+04  0.13496350135E+04  0.15294330000E+03 0. -1.
<mgrwt>
<rscale>  0 0.60895581E+03</rscale>
<asrwt>0</asrwt>
<pdfrwt beam="1">  1        2 0.24027348E+00 0.73099561E+03</pdfrwt>
<pdfrwt beam="2">  1       -2 0.90862562E-01 0.73099561E+03</pdfrwt>
<totfact> 0.12453930E+01</totfact>
</mgrwt>
</event>
<event>
 4    1  0.5223852E-007  0.6694780E+03  0.7818608E-02  0.1016040E+00
         -2   -1    0    0    0  501 -0.00000000000E+00  0.00000000000E+00  0.72122854440E+03  0.72122854440E+03  0.25500000000E-02 0.  1.
          2   -1    0    0  501    0  0.00000000000E+00 -0.00000000000E+00 -0.31124559520E+03  0.31124559521E+03  0.25500000000E-02 0. -1.
    8880023    1    1    2    0    0 -0.11506830771E+03 -0.33910429842E+02  0.48226364672E+03  0.82509336678E+03  0.65864270000E+03 0.  1.
    8880022    1    1    2    0    0  0.11506830771E+03  0.33910429842E+02 -0.72280697523E+02  0.20738077283E+03  0.15294330000E+03 0.  0.
<mgrwt>
<rscale>  0 0.49143183E+03</rscale>
<asrwt>0</asrwt>
<pdfrwt beam="1">  1        2 0.47883938E-01 0.66947803E+03</pdfrwt>
<pdfrwt beam="2">  1       -2 0.11095824E+00 0.66947803E+03</pdfrwt>
<totfact> 0.68786557E+01</totfact>
</mgrwt>
</event>
<event>
 4    1  0.5223852E-007  0.8454740E+03  0.7818608E-02  0.9619944E-01
         -2   -1    0    0    0  501 -0.00000000000E+00  0.00000000000E+00  0.39810629419E+03  0.39810629419E+03  0.25500000000E-02 0.  1.
          2   -1    0    0  501    0  0.00000000000E+00 -0.00000000000E+00 -0.15775555326E+04  0.15775555326E+04  0.25500000000E-02 0. -1.
    8880023    1    1    2    0    0  0.52570140087E+03 -0.68221613868E+02 -0.22777229803E+03  0.87561782616E+03  0.65864270000E+03 0.  1.
    8880022    1    1    2    0    0 -0.52570140087E+03  0.68221613868E+02 -0.95167694037E+03  0.11000440006E+04  0.15294330000E+03 0.  0.
<mgrwt>
<rscale>  0 0.75990129E+03</rscale>
<asrwt>0</asrwt>
<pdfrwt beam="1">  1        2 0.24270085E+00 0.84547404E+03</pdfrwt>
<pdfrwt beam="2">  1       -2 0.61247123E-01 0.84547404E+03</pdfrwt>
<totfact> 0.28857237E+01</totfact>
</mgrwt>
</event>
<event>
 4    1  0.5223852E-007  0.8458522E+03  0.7818608E-02  0.9619243E-01
         -2   -1    0    0    0  501 -0.00000000000E+00  0.00000000000E+00  0.12429670241E+04  0.12429670241E+04  0.25500000000E-02 0.  1.
          2   -1    0    0  501    0  0.00000000000E+00 -0.00000000000E+00 -0.82091448349E+03  0.82091448350E+03  0.25500000000E-02 0. -1.
    8880023    1    1    2    0    0 -0.16293766765E+03 -0.50508121268E+03  0.96922915853E+03  0.12864179270E+04  0.65864270000E+03 0.  0.
    8880022    1    1    2    0    0  0.16293766765E+03  0.50508121268E+03 -0.54717661792E+03  0.77746358059E+03  0.15294330000E+03 0.  0.
<mgrwt>
<rscale>  0 0.76035563E+03</rscale>
<asrwt>0</asrwt>
<pdfrwt beam="1">  1        2 0.12629454E+00 0.84585219E+03</pdfrwt>
<pdfrwt beam="2">  1       -2 0.19122570E+00 0.84585219E+03</pdfrwt>
<totfact> 0.51052115E+00</totfact>
</mgrwt>
</event>
<event>
 4    1  0.5223852E-007  0.9697933E+03  0.7818608E-02  0.9422190E-01
         -2   -1    0    0    0  501 -0.00000000000E+00  0.00000000000E+00  0.56010176786E+03  0.56010176786E+03  0.25500000000E-02 0.  1.
          2   -1    0    0  501    0  0.00000000000E+00 -0.00000000000E+00 -0.26226620371E+04  0.26226620371E+04  0.25500000000E-02 0. -1.
    8880023    1    1    2    0    0 -0.29375052198E+03 -0.64838218367E+03  0.26821662599E+02  0.97016412689E+03  0.65864270000E+03 0.  0.
    8880022    1    1    2    0    0  0.29375052198E+03  0.64838218367E+03 -0.20893819318E+04  0.22125996780E+04  0.15294330000E+03 0.  0.
<mgrwt>
<rscale>  0 0.90271801E+03</rscale>
<asrwt>0</asrwt>
<pdfrwt beam="1">  1        2 0.40348646E+00 0.96979329E+03</pdfrwt>
<pdfrwt beam="2">  1       -2 0.86169504E-01 0.96979329E+03</pdfrwt>
<totfact> 0.35037165E+00</totfact>
</mgrwt>
</event>
<event>
 4    1  0.5223852E-007  0.7218695E+03  0.7818608E-02  0.9916310E-01
          2   -1    0    0  501    0  0.00000000000E+00  0.00000000000E+00  0.11803241811E+04  0.11803241811E+04  0.25500000000E-02 0. -1.
         -2   -1    0    0    0  501 -0.00000000000E+00 -0.00000000000E+00 -0.28472313999E+03  0.28472314000E+03  0.25500000000E-02 0.  1.
    8880023    1    1    2    0    0  0.24814416031E+03 -0.16034290201E+03  0.29774684339E+03  0.78086411080E+03  0.65864270000E+03 0.  0.
    8880022    1    1    2    0    0 -0.24814416031E+03  0.16034290201E+03  0.59785419773E+03  0.68418321031E+03  0.15294330000E+03 0.  0.
<mgrwt>
<rscale>  0 0.59477294E+03</rscale>
<asrwt>0</asrwt>
<pdfrwt beam="1">  1        2 0.18158833E+00 0.72186950E+03</pdfrwt>
<pdfrwt beam="2">  1       -2 0.43803561E-01 0.72186950E+03</pdfrwt>
<totfact> 0.97864188E+01</totfact>
</mgrwt>
</event>
<event>
 4    1  0.5223852E-007  0.6951591E+03  0.7818608E-02  0.1001791E+00
          2   -1    0    0  501    0  0.00000000000E+00  0.00000000000E+00  0.20742015657E+04  0.20742015657E+04  0.25500000000E-02 0. -1.
         -2   -1    0    0    0  501 -0.00000000000E+00 -0.00000000000E+00 -0.25714603799E+03  0.25714603800E+03  0.25500000000E-02 0.  1.
    8880023    1    1    2    0    0  0.69740132988E+02  0.21112164958E+03  0.24618369024E+03  0.73746366193E+03  0.65864270000E+03 0.  1.
    8880022    1    1    2    0    0 -0.69740132988E+02 -0.21112164958E+03  0.15708718375E+04  0.15938839418E+04  0.15294330000E+03 0.  0.
<mgrwt>
<rscale>  0 0.54871932E+03</rscale>
<asrwt>0</asrwt>
<pdfrwt beam="1">  1        2 0.31910794E+00 0.69515915E+03</pdfrwt>
<pdfrwt beam="2">  1       -2 0.39560928E-01 0.69515915E+03</pdfrwt>
<totfact> 0.38192427E+01</totfact>
</mgrwt>
</event>
<event>
 4    1  0.5223852E-007  0.7310368E+03  0.7818608E-02  0.9886870E-01
         -2   -1    0    0    0  501 -0.00000000000E+00  0.00000000000E+00  0.36468841069E+03  0.36468841070E+03  0.25500000000E-02 0.  1.
          2   -1    0    0  501    0  0.00000000000E+00 -0.00000000000E+00 -0.29498674533E+04  0.29498674533E+04  0.25500000000E-02 0. -1.
    8880023    1    1    2    0    0 -0.31437167672E+03 -0.42130508913E+02 -0.26245380855E+02  0.73150772873E+03  0.65864270000E+03 0.  1.
    8880022    1    1    2    0    0  0.31437167672E+03  0.42130508913E+02 -0.25589336617E+04  0.25830481352E+04  0.15294330000E+03 0.  0.
<mgrwt>
<rscale>  0 0.60901845E+03</rscale>
<asrwt>0</asrwt>
<pdfrwt beam="1">  1        2 0.45382575E+00 0.73103676E+03</pdfrwt>
<pdfrwt beam="2">  1       -2 0.56105911E-01 0.73103676E+03</pdfrwt>
<totfact> 0.59586348E+00</totfact>
</mgrwt>
</event>
<event>
 4    1  0.5223852E-007  0.7720908E+03  0.7818608E-02  0.9774755E-01
          2   -1    0    0  501    0  0.00000000000E+00  0.00000000000E+00  0.12955414116E+04  0.12955414116E+04  0.25500000000E-02 0. -1.
         -2   -1    0    0    0  501 -0.00000000000E+00 -0.00000000000E+00 -0.78355762919E+03  0.78355762919E+03  0.25500000000E-02 0.  1.
    8880023    1    1    2    0    0 -0.37395114702E+03  0.14991529001E+03 -0.54005395807E+03  0.94222212796E+03  0.65864270000E+03 0.  0.
    8880022    1    1    2    0    0  0.37395114702E+03 -0.14991529001E+03  0.10520377405E+04  0.11368769129E+04  0.15294330000E+03 0.  0.
<mgrwt>
<rscale>  0 0.66735121E+03</rscale>
<asrwt>0</asrwt>
<pdfrwt beam="1">  1        2 0.19931406E+00 0.77209084E+03</pdfrwt>
<pdfrwt beam="2">  1       -2 0.12054733E+00 0.77209084E+03</pdfrwt>
<totfact> 0.88926851E+00</totfact>
</mgrwt>
</event>
<event>
 4    1  0.5223852E-007  0.9808747E+03  0.7818608E-02  0.9407018E-01
         -2   -1    0    0    0  501 -0.00000000000E+00  0.00000000000E+00  0.18389088106E+04  0.18389088106E+04  0.25500000000E-02 0.  1.
          2   -1    0    0  501    0  0.00000000000E+00 -0.00000000000E+00 -0.48223286180E+03  0.48223286180E+03  0.25500000000E-02 0. -1.
    8880023    1    1    2    0    0  0.16756678047E+03  0.70726678122E+03  0.29282044015E+03  0.10236498142E+04  0.65864270000E+03 0.  0.
    8880022    1    1    2    0    0 -0.16756678047E+03 -0.70726678122E+03  0.10638555087E+04  0.12974918582E+04  0.15294330000E+03 0.  0.
<mgrwt>
<rscale>  0 0.91500334E+03</rscale>
<asrwt>0</asrwt>
<pdfrwt beam="1">  1        2 0.74189673E-01 0.98087468E+03</pdfrwt>
<pdfrwt beam="2">  1       -2 0.28290904E+00 0.98087468E+03</pdfrwt>
<totfact> 0.26141340E+00</totfact>
</mgrwt>
</event>
<event>
 4    1  0.5223852E-007  0.6840449E+03  0.7818608E-02  0.1007122E+00
         -2   -1    0    0    0  501 -0.00000000000E+00  0.00000000000E+00  0.13938886959E+04  0.13938886959E+04  0.25500000000E-02 0.  1.
          2   -1    0    0  501    0  0.00000000000E+00 -0.00000000000E+00 -0.16840353799E+03  0.16840353800E+03  0.25500000000E-02 0. -1.
    8880023    1    1    2    0    0 -0.14894162811E+03 -0.10919530206E+03  0.10900303380E+04  0.12868891042E+04  0.65864270000E+03 0.  1.
    8880022    1    1    2    0    0  0.14894162811E+03  0.10919530206E+03  0.13545481990E+03  0.27540312965E+03  0.15294330000E+03 0.  0.
<mgrwt>
<rscale>  0 0.52634546E+03</rscale>
<asrwt>0</asrwt>
<pdfrwt beam="1">  1        2 0.25908238E-01 0.68404490E+03</pdfrwt>
<pdfrwt beam="2">  1       -2 0.21444441E+00 0.68404490E+03</pdfrwt>
<totfact> 0.23102593E+01</totfact>
</mgrwt>
</event>
<event>
 4    1  0.5223852E-007  0.8642853E+03  0.7818608E-02  0.9585986E-01
         -2   -1    0    0    0  501 -0.00000000000E+00  0.00000000000E+00  0.21682505537E+03  0.21682505538E+03  0.25500000000E-02 0.  1.
          2   -1    0    0  501    0  0.00000000000E+00 -0.00000000000E+00 -0.26228375660E+04  0.26228375660E+04  0.25500000000E-02 0. -1.
    8880023    1    1    2    0    0  0.48370804629E+03 -0.28143463049E+03 -0.10187589874E+04  0.13359861549E+04  0.65864270000E+03 0. -1.
    8880022    1    1    2    0    0 -0.48370804629E+03  0.28143463049E+03 -0.13872535232E+04  0.15036764665E+04  0.15294330000E+03 0.  0.
<mgrwt>
<rscale>  0 0.78230729E+03</rscale>
<asrwt>0</asrwt>
<pdfrwt beam="1">  1        2 0.40351345E+00 0.86428533E+03</pdfrwt>
<pdfrwt beam="2">  1       -2 0.33357703E-01 0.86428533E+03</pdfrwt>
<totfact> 0.25532775E+01</totfact>
</mgrwt>
</event>
<event>
 4    1  0.5223852E-007  0.8766661E+03  0.7818608E-02  0.9564579E-01
         -2   -1    0    0    0  501 -0.00000000000E+00  0.00000000000E+00  0.66124640532E+03  0.66124640532E+03  0.25500000000E-02 0.  1.
          2   -1    0    0  501    0  0.00000000000E+00 -0.00000000000E+00 -0.17274802558E+04  0.17274802558E+04  0.25500000000E-02 0. -1.
    8880023    1    1    2    0    0 -0.47543542457E+03 -0.32968841596E+03  0.27603541578E+03  0.91909686736E+03  0.65864270000E+03 0.  1.
    8880022    1    1    2    0    0  0.47543542457E+03  0.32968841596E+03 -0.13422692662E+04  0.14696297938E+04  0.15294330000E+03 0.  0.
<mgrwt>
<rscale>  0 0.79685627E+03</rscale>
<asrwt>0</asrwt>
<pdfrwt beam="1">  1        2 0.26576619E+00 0.87666613E+03</pdfrwt>
<pdfrwt beam="2">  1       -2 0.10173022E+00 0.87666613E+03</pdfrwt>
<totfact> 0.75955277E+00</totfact>
</mgrwt>
</event>
<event>
 4    1  0.5223852E-007  0.7648164E+03  0.7818608E-02  0.9792794E-01
         -2   -1    0    0    0  501 -0.00000000000E+00  0.00000000000E+00  0.24370996932E+03  0.24370996933E+03  0.25500000000E-02 0.  1.
          2   -1    0    0  501    0  0.00000000000E+00 -0.00000000000E+00 -0.21044910559E+04  0.21044910559E+04  0.25500000000E-02 0. -1.
    8880023    1    1    2    0    0  0.38875733212E+03 -0.13126167891E+01 -0.47383166621E+03  0.89970030588E+03  0.65864270000E+03 0.  1.
    8880022    1    1    2    0    0 -0.38875733212E+03  0.13126167891E+01 -0.13869494203E+04  0.14485007193E+04  0.15294330000E+03 0.  0.
<mgrwt>
<rscale>  0 0.65750690E+03</rscale>
<asrwt>0</asrwt>
<pdfrwt beam="1">  1        2 0.32376784E+00 0.76481644E+03</pdfrwt>
<pdfrwt beam="2">  1       -2 0.37493843E-01 0.76481644E+03</pdfrwt>
<totfact> 0.40416757E+01</totfact>
</mgrwt>
</event>
<event>
 4    1  0.5223852E-007  0.6703467E+03  0.7818608E-02  0.1015416E+00
          2   -1    0    0  501    0  0.00000000000E+00  0.00000000000E+00  0.13753126794E+04  0.13753126794E+04  0.25500000000E-02 0. -1.
         -2   -1    0    0    0  501 -0.00000000000E+00 -0.00000000000E+00 -0.35304704874E+03  0.35304704875E+03  0.25500000000E-02 0.  1.
    8880023    1    1    2    0    0 -0.11209132388E+03  0.54681590718E+02 -0.16960711120E+02  0.67056126733E+03  0.65864270000E+03 0.  1.
    8880022    1    1    2    0    0  0.11209132388E+03 -0.54681590718E+02  0.10392263418E+04  0.10577984608E+04  0.15294330000E+03 0.  0.
<mgrwt>
<rscale>  0 0.49377916E+03</rscale>
<asrwt>0</asrwt>
<pdfrwt beam="1">  1        2 0.21158657E+00 0.67034674E+03</pdfrwt>
<pdfrwt beam="2">  1       -2 0.54314930E-01 0.67034674E+03</pdfrwt>
<totfact> 0.49081163E+01</totfact>
</mgrwt>
</event>
<event>
 4    1  0.5223852E-007  0.8814131E+03  0.7818608E-02  0.9556553E-01
         -2   -1    0    0    0  501 -0.00000000000E+00  0.00000000000E+00  0.10436335693E+04  0.10436335693E+04  0.25500000000E-02 0.  1.
          2   -1    0    0  501    0  0.00000000000E+00 -0.00000000000E+00 -0.99218455840E+03  0.99218455840E+03  0.25500000000E-02 0. -1.
    8880023    1    1    2    0    0  0.13692024579E+03 -0.56950124231E+03  0.71694418806E+03  0.11361769201E+04  0.65864270000E+03 0.  1.
    8880022    1    1    2    0    0 -0.13692024579E+03  0.56950124231E+03 -0.66549517713E+03  0.89964120764E+03  0.15294330000E+03 0.  0.
<mgrwt>
<rscale>  0 0.80239736E+03</rscale>
<asrwt>0</asrwt>
<pdfrwt beam="1">  1        2 0.15264378E+00 0.88141308E+03</pdfrwt>
<pdfrwt beam="2">  1       -2 0.16055901E+00 0.88141308E+03</pdfrwt>
<totfact> 0.63791803E+00</totfact>
</mgrwt>
</event>
<event>
 4    1  0.5223852E-007  0.8034432E+03  0.7818608E-02  0.9703400E-01
         -2   -1    0    0    0  501 -0.00000000000E+00  0.00000000000E+00  0.44676742773E+03  0.44676742773E+03  0.25500000000E-02 0.  1.
          2   -1    0    0  501    0  0.00000000000E+00 -0.00000000000E+00 -0.15491412333E+04  0.15491412333E+04  0.25500000000E-02 0. -1.
    8880023    1    1    2    0    0  0.30682146635E+03 -0.34288689012E+03 -0.13053639733E+02  0.80354927379E+03  0.65864270000E+03 0.  1.
    8880022    1    1    2    0    0 -0.30682146635E+03  0.34288689012E+03 -0.10893201658E+04  0.11923593872E+04  0.15294330000E+03 0.  0.
<mgrwt>
<rscale>  0 0.70814722E+03</rscale>
<asrwt>0</asrwt>
<pdfrwt beam="1">  1        2 0.23832942E+00 0.80344324E+03</pdfrwt>
<pdfrwt beam="2">  1       -2 0.68733451E-01 0.80344324E+03</pdfrwt>
<totfact> 0.23458885E+01</totfact>
</mgrwt>
</event>
<event>
 4    1  0.5223852E-007  0.6843003E+03  0.7818608E-02  0.1006989E+00
          2   -1    0    0  501    0  0.00000000000E+00  0.00000000000E+00  0.11634183914E+04  0.11634183914E+04  0.25500000000E-02 0. -1.
         -2   -1    0    0    0  501 -0.00000000000E+00 -0.00000000000E+00 -0.40532437679E+03  0.40532437680E+03  0.25500000000E-02 0.  1.
    8880023    1    1    2    0    0 -0.13066236911E+03  0.13184863412E+03 -0.87257773732E+02  0.68984117184E+03  0.65864270000E+03 0.  1.
    8880022    1    1    2    0    0  0.13066236911E+03 -0.13184863412E+03  0.84535178831E+03  0.87890159633E+03  0.15294330000E+03 0.  0.
<mgrwt>
<rscale>  0 0.52689181E+03</rscale>
<asrwt>0</asrwt>
<pdfrwt beam="1">  1        2 0.17898744E+00 0.68430032E+03</pdfrwt>
<pdfrwt beam="2">  1       -2 0.62357598E-01 0.68430032E+03</pdfrwt>
<totfact> 0.48684479E+01</totfact>
</mgrwt>
</event>
<event>
 4    1  0.5223852E-007  0.7364787E+03  0.7818608E-02  0.9870325E-01
          2   -1    0    0  501    0  0.00000000000E+00  0.00000000000E+00  0.10646373053E+04  0.10646373053E+04  0.25500000000E-02 0. -1.
         -2   -1    0    0    0  501 -0.00000000000E+00 -0.00000000000E+00 -0.61029870805E+03  0.61029870805E+03  0.25500000000E-02 0.  1.
    8880023    1    1    2    0    0 -0.30372550446E+03  0.12783408720E+03 -0.33266643625E+03  0.80812616588E+03  0.65864270000E+03 0.  1.
    8880022    1    1    2    0    0  0.30372550446E+03 -0.12783408720E+03  0.78700503352E+03  0.86680984749E+03  0.15294330000E+03 0.  0.
<mgrwt>
<rscale>  0 0.61721243E+03</rscale>
<asrwt>0</asrwt>
<pdfrwt beam="1">  1        2 0.16379035E+00 0.73647875E+03</pdfrwt>
<pdfrwt beam="2">  1       -2 0.93892109E-01 0.73647875E+03</pdfrwt>
<totfact> 0.22362460E+01</totfact>
</mgrwt>
</event>
<event>
 4    1  0.5223852E-007  0.1502829E+04  0.7818608E-02  0.8907641E-01
         -2   -1    0    0    0  501 -0.00000000000E+00  0.00000000000E+00  0.15456527812E+04  0.15456527812E+04  0.25500000000E-02 0.  1.
          2   -1    0    0  501    0  0.00000000000E+00 -0.00000000000E+00 -0.25069324906E+04  0.25069324906E+04  0.25500000000E-02 0. -1.
    8880023    1    1    2    0    0  0.13103269921E+04  0.32822067683E+03 -0.18837048430E+04  0.24097385295E+04  0.65864270000E+03 0.  0.
    8880022    1    1    2    0    0 -0.13103269921E+04 -0.32822067683E+03  0.92242513354E+03  0.16428467423E+04  0.15294330000E+03 0.  0.
<mgrwt>
<rscale>  0 0.14656229E+04</rscale>
<asrwt>0</asrwt>
<pdfrwt beam="1">  1        2 0.38568192E+00 0.15028293E+04</pdfrwt>
<pdfrwt beam="2">  1       -2 0.23779274E+00 0.15028293E+04</pdfrwt>
<totfact> 0.24724577E-01</totfact>
</mgrwt>
</event>
<event>
 4    1  0.5223852E-007  0.7518147E+03  0.7818608E-02  0.9826779E-01
          2   -1    0    0  501    0  0.00000000000E+00  0.00000000000E+00  0.56913166687E+03  0.56913166688E+03  0.25500000000E-02 0. -1.
         -2   -1    0    0    0  501 -0.00000000000E+00 -0.00000000000E+00 -0.97495351860E+03  0.97495351861E+03  0.25500000000E-02 0.  1.
    8880023    1    1    2    0    0 -0.20412878899E+03 -0.29957724393E+03 -0.71970317516E+03  0.10407679637E+04  0.65864270000E+03 0.  1.
    8880022    1    1    2    0    0  0.20412878899E+03  0.29957724393E+03  0.31388132343E+03  0.50331722183E+03  0.15294330000E+03 0.  0.
<mgrwt>
<rscale>  0 0.63945035E+03</rscale>
<asrwt>0</asrwt>
<pdfrwt beam="1">  1        2 0.87558718E-01 0.75181467E+03</pdfrwt>
<pdfrwt beam="2">  1       -2 0.14999285E+00 0.75181467E+03</pdfrwt>
<totfact> 0.16059795E+01</totfact>
</mgrwt>
</event>
<event>
 4    1  0.5223852E-007  0.1107400E+04  0.7818608E-02  0.9252861E-01
         -2   -1    0    0    0  501 -0.00000000000E+00  0.00000000000E+00  0.11650255600E+04  0.11650255600E+04  0.25500000000E-02 0.  1.
          2   -1    0    0  501    0  0.00000000000E+00 -0.00000000000E+00 -0.99995777239E+03  0.99995777239E+03  0.25500000000E-02 0. -1.
    8880023    1    1    2    0    0  0.37552516697E+02  0.88944628305E+03  0.48195268588E+03  0.12077307149E+04  0.65864270000E+03 0.  1.
    8880022    1    1    2    0    0 -0.37552516697E+02 -0.88944628305E+03 -0.31688489829E+03  0.95725261751E+03  0.15294330000E+03 0.  0.
<mgrwt>
<rscale>  0 0.10524080E+04</rscale>
<asrwt>0</asrwt>
<pdfrwt beam="1">  1        2 0.15383966E+00 0.11074001E+04</pdfrwt>
<pdfrwt beam="2">  1       -2 0.17923470E+00 0.11074001E+04</pdfrwt>
<totfact> 0.45359039E+00</totfact>
</mgrwt>
</event>
<event>
 4    1  0.5223852E-007  0.1102247E+04  0.7818608E-02  0.9258558E-01
          2   -1    0    0  501    0  0.00000000000E+00  0.00000000000E+00  0.25704670880E+04  0.25704670880E+04  0.25500000000E-02 0. -1.
         -2   -1    0    0    0  501 -0.00000000000E+00 -0.00000000000E+00 -0.58650845667E+03  0.58650845668E+03  0.25500000000E-02 0.  1.
    8880023    1    1    2    0    0 -0.86180886640E+03 -0.19602209384E+03  0.19729242871E+04  0.22599512455E+04  0.65864270000E+03 0. -1.
    8880022    1    1    2    0    0  0.86180886640E+03  0.19602209384E+03  0.11034344274E+02  0.89702429914E+03  0.15294330000E+03 0.  0.
<mgrwt>
<rscale>  0 0.10468927E+04</rscale>
<asrwt>0</asrwt>
<pdfrwt beam="1">  1        2 0.39545647E+00 0.11022474E+04</pdfrwt>
<pdfrwt beam="2">  1       -2 0.90232070E-01 0.11022474E+04</pdfrwt>
<totfact> 0.33179450E+00</totfact>
</mgrwt>
</event>
<event>
 4    1  0.5223852E-007  0.1358540E+04  0.7818608E-02  0.9016586E-01
         -2   -1    0    0    0  501 -0.00000000000E+00  0.00000000000E+00  0.14491449957E+04  0.14491449957E+04  0.25500000000E-02 0.  1.
          2   -1    0    0  501    0  0.00000000000E+00 -0.00000000000E+00 -0.15497375418E+04  0.15497375418E+04  0.25500000000E-02 0. -1.
    8880023    1    1    2    0    0  0.49499789729E+03  0.10801846238E+04  0.72890864235E+03  0.15417327119E+04  0.65864270000E+03 0.  1.
    8880022    1    1    2    0    0 -0.49499789729E+03 -0.10801846238E+04 -0.82950118848E+03  0.14571498257E+04  0.15294330000E+03 0.  0.
<mgrwt>
<rscale>  0 0.13164943E+04</rscale>
<asrwt>0</asrwt>
<pdfrwt beam="1">  1        2 0.23842116E+00 0.13585404E+04</pdfrwt>
<pdfrwt beam="2">  1       -2 0.22294538E+00 0.13585404E+04</pdfrwt>
<totfact> 0.10746217E+00</totfact>
</mgrwt>
</event>
<event>
 4    1  0.5223852E-007  0.7659003E+03  0.7818608E-02  0.9790065E-01
         -2   -1    0    0    0  501 -0.00000000000E+00  0.00000000000E+00  0.25067300404E+03  0.25067300405E+03  0.25500000000E-02 0.  1.
          2   -1    0    0  501    0  0.00000000000E+00 -0.00000000000E+00 -0.26211345830E+04  0.26211345830E+04  0.25500000000E-02 0. -1.
    8880023    1    1    2    0    0  0.33616888111E+03  0.19945807873E+03 -0.41361255974E+03  0.87044735489E+03  0.65864270000E+03 0.  1.
    8880022    1    1    2    0    0 -0.33616888111E+03 -0.19945807873E+03 -0.19568490192E+04  0.20013602321E+04  0.15294330000E+03 0.  0.
<mgrwt>
<rscale>  0 0.65898449E+03</rscale>
<asrwt>0</asrwt>
<pdfrwt beam="1">  1        2 0.40325145E+00 0.76590029E+03</pdfrwt>
<pdfrwt beam="2">  1       -2 0.38565079E-01 0.76590029E+03</pdfrwt>
<totfact> 0.19654725E+01</totfact>
</mgrwt>
</event>
<event>
 4    1  0.5223852E-007  0.8991613E+03  0.7818608E-02  0.9527379E-01
          2   -1    0    0  501    0  0.00000000000E+00  0.00000000000E+00  0.25195723723E+04  0.25195723723E+04  0.25500000000E-02 0. -1.
         -2   -1    0    0    0  501 -0.00000000000E+00 -0.00000000000E+00 -0.24053155901E+03  0.24053155902E+03  0.25500000000E-02 0.  1.
    8880023    1    1    2    0    0 -0.57337895275E+03  0.21428368173E+03  0.15839399228E+04  0.18213612505E+04  0.65864270000E+03 0.  0.
    8880022    1    1    2    0    0  0.57337895275E+03 -0.21428368173E+03  0.69510089049E+03  0.93874268076E+03  0.15294330000E+03 0.  0.
<mgrwt>
<rscale>  0 0.82295010E+03</rscale>
<asrwt>0</asrwt>
<pdfrwt beam="1">  1        2 0.38762651E+00 0.89916135E+03</pdfrwt>
<pdfrwt beam="2">  1       -2 0.37004857E-01 0.89916135E+03</pdfrwt>
<totfact> 0.23903461E+01</totfact>
</mgrwt>
</event>
<event>
 4    1  0.5223852E-007  0.7127358E+03  0.7818608E-02  0.9947979E-01
         -2   -1    0    0    0  501 -0.00000000000E+00  0.00000000000E+00  0.68345010501E+03  0.68345010501E+03  0.25500000000E-02 0.  1.
          2   -1    0    0  501    0  0.00000000000E+00 -0.00000000000E+00 -0.16376264120E+04  0.16376264120E+04  0.25500000000E-02 0. -1.
    8880023    1    1    2    0    0 -0.25906974465E+03  0.84053657503E+02  0.47607535316E+03  0.85711148522E+03  0.65864270000E+03 0.  1.
    8880022    1    1    2    0    0  0.25906974465E+03 -0.84053657503E+02 -0.14302516601E+04  0.14639650318E+04  0.15294330000E+03 0.  0.
<mgrwt>
<rscale>  0 0.57991334E+03</rscale>
<asrwt>0</asrwt>
<pdfrwt beam="1">  1        2 0.25194252E+00 0.71273582E+03</pdfrwt>
<pdfrwt beam="2">  1       -2 0.10514617E+00 0.71273582E+03</pdfrwt>
<totfact> 0.80425101E+00</totfact>
</mgrwt>
</event>
<event>
 4    1  0.5223852E-007  0.7981102E+03  0.7818608E-02  0.9714897E-01
         -2   -1    0    0    0  501 -0.00000000000E+00  0.00000000000E+00  0.57323302099E+03  0.57323302100E+03  0.25500000000E-02 0.  1.
          2   -1    0    0  501    0  0.00000000000E+00 -0.00000000000E+00 -0.15687616682E+04  0.15687616682E+04  0.25500000000E-02 0. -1.
    8880023    1    1    2    0    0 -0.40867156104E+03  0.19015067115E+03  0.22725625855E+03  0.82983452318E+03  0.65864270000E+03 0.  1.
    8880022    1    1    2    0    0  0.40867156104E+03 -0.19015067115E+03 -0.12227849057E+04  0.13121601660E+04  0.15294330000E+03 0.  0.
<mgrwt>
<rscale>  0 0.70136710E+03</rscale>
<asrwt>0</asrwt>
<pdfrwt beam="1">  1        2 0.24134795E+00 0.79811022E+03</pdfrwt>
<pdfrwt beam="2">  1       -2 0.88189696E-01 0.79811022E+03</pdfrwt>
<totfact> 0.13108165E+01</totfact>
</mgrwt>
</event>
<event>
 4    1  0.5223852E-007  0.7077016E+03  0.7818608E-02  0.9966637E-01
          2   -1    0    0  501    0  0.00000000000E+00  0.00000000000E+00  0.62446494826E+03  0.62446494826E+03  0.25500000000E-02 0. -1.
         -2   -1    0    0    0  501 -0.00000000000E+00 -0.00000000000E+00 -0.19826651580E+04  0.19826651580E+04  0.25500000000E-02 0.  1.
    8880023    1    1    2    0    0 -0.27325992521E+02  0.25745804947E+03 -0.18778326466E+04  0.20067628190E+04  0.65864270000E+03 0.  1.
    8880022    1    1    2    0    0  0.27325992521E+02 -0.25745804947E+03  0.51963243685E+03  0.60036728720E+03  0.15294330000E+03 0.  0.
<mgrwt>
<rscale>  0 0.57137667E+03</rscale>
<asrwt>0</asrwt>
<pdfrwt beam="1">  1        2 0.96071531E-01 0.70770161E+03</pdfrwt>
<pdfrwt beam="2">  1       -2 0.30502541E+00 0.70770161E+03</pdfrwt>
<totfact> 0.14706234E+00</totfact>
</mgrwt>
</event>
<event>
 4    1  0.5223852E-007  0.6836754E+03  0.7818608E-02  0.1007317E+00
         -2   -1    0    0    0  501 -0.00000000000E+00  0.00000000000E+00  0.15453000642E+03  0.15453000644E+03  0.25500000000E-02 0.  1.
          2   -1    0    0  501    0  0.00000000000E+00 -0.00000000000E+00 -0.16258788595E+04  0.16258788595E+04  0.25500000000E-02 0. -1.
    8880023    1    1    2    0    0  0.11689545275E+03 -0.14119943197E+03 -0.72368754796E+03  0.99555798415E+03  0.65864270000E+03 0.  1.
    8880022    1    1    2    0    0 -0.11689545275E+03  0.14119943197E+03 -0.74766130510E+03  0.78485088177E+03  0.15294330000E+03 0. -1.
<mgrwt>
<rscale>  0 0.52555189E+03</rscale>
<asrwt>0</asrwt>
<pdfrwt beam="1">  1        2 0.25013520E+00 0.68367539E+03</pdfrwt>
<pdfrwt beam="2">  1       -2 0.23773848E-01 0.68367539E+03</pdfrwt>
<totfact> 0.17321112E+02</totfact>
</mgrwt>
</event>
<event>
 4    1  0.5223852E-007  0.7806121E+03  0.7818608E-02  0.9754401E-01
          2   -1    0    0  501    0  0.00000000000E+00  0.00000000000E+00  0.16604215030E+04  0.16604215030E+04  0.25500000000E-02 0. -1.
         -2   -1    0    0    0  501 -0.00000000000E+00 -0.00000000000E+00 -0.98492840266E+03  0.98492840267E+03  0.25500000000E-02 0.  1.
    8880023    1    1    2    0    0  0.21919678927E+03  0.35706827046E+03 -0.79172368670E+03  0.11118370315E+04  0.65864270000E+03 0.  1.
    8880022    1    1    2    0    0 -0.21919678927E+03 -0.35706827046E+03  0.14672167870E+04  0.15335128742E+04  0.15294330000E+03 0.  0.
<mgrwt>
<rscale>  0 0.67868115E+03</rscale>
<asrwt>0</asrwt>
<pdfrwt beam="1">  1        2 0.25544946E+00 0.78061206E+03</pdfrwt>
<pdfrwt beam="2">  1       -2 0.15152745E+00 0.78061206E+03</pdfrwt>
<totfact> 0.30842446E+00</totfact>
</mgrwt>
</event>
<event>
 4    1  0.5223852E-007  0.6637077E+03  0.7818608E-02  0.1020643E+00
          2   -1    0    0  501    0  0.00000000000E+00  0.00000000000E+00  0.32468221903E+04  0.32468221903E+04  0.25500000000E-02 0. -1.
         -2   -1    0    0    0  501 -0.00000000000E+00 -0.00000000000E+00 -0.38252985578E+03  0.38252985579E+03  0.25500000000E-02 0.  1.
    8880023    1    1    2    0    0  0.79118305266E+02  0.20927586924E+02 -0.90167425659E+02  0.66980447971E+03  0.65864270000E+03 0.  1.
    8880022    1    1    2    0    0 -0.79118305266E+02 -0.20927586924E+02  0.29544597601E+04  0.29595475663E+04  0.15294330000E+03 0.  0.
<mgrwt>
<rscale>  0 0.47455241E+03</rscale>
<asrwt>0</asrwt>
<pdfrwt beam="1">  1        2 0.49951112E+00 0.66370767E+03</pdfrwt>
<pdfrwt beam="2">  1       -2 0.58850745E-01 0.66370767E+03</pdfrwt>
<totfact> 0.35744148E+00</totfact>
</mgrwt>
</event>
<event>
 4    1  0.5223852E-007  0.6778670E+03  0.7818608E-02  0.1010557E+00
         -2   -1    0    0    0  501 -0.00000000000E+00  0.00000000000E+00  0.88812311812E+02  0.88812311849E+02  0.25500000000E-02 0.  1.
          2   -1    0    0  501    0  0.00000000000E+00 -0.00000000000E+00 -0.40188290889E+04  0.40188290889E+04  0.25500000000E-02 0. -1.
    8880023    1    1    2    0    0 -0.14213744974E+03 -0.74097141400E+02 -0.12803078081E+04  0.14486862085E+04  0.65864270000E+03 0.  1.
    8880022    1    1    2    0    0  0.14213744974E+03  0.74097141400E+02 -0.26497089690E+04  0.26589551922E+04  0.15294330000E+03 0.  0.
<mgrwt>
<rscale>  0 0.51253917E+03</rscale>
<asrwt>0</asrwt>
<pdfrwt beam="1">  1        2 0.61828126E+00 0.67786698E+03</pdfrwt>
<pdfrwt beam="2">  1       -2 0.13663436E-01 0.67786698E+03</pdfrwt>
<totfact> 0.15145218E+01</totfact>
</mgrwt>
</event>
<event>
 4    1  0.5223852E-007  0.7115351E+03  0.7818608E-02  0.9952344E-01
          2   -1    0    0  501    0  0.00000000000E+00  0.00000000000E+00  0.11582285191E+04  0.11582285191E+04  0.25500000000E-02 0. -1.
         -2   -1    0    0    0  501 -0.00000000000E+00 -0.00000000000E+00 -0.58516804016E+03  0.58516804017E+03  0.25500000000E-02 0.  1.
    8880023    1    1    2    0    0 -0.25660709627E+03  0.81392922790E+02 -0.33321348694E+03  0.78569297049E+03  0.65864270000E+03 0.  1.
    8880022    1    1    2    0    0  0.25660709627E+03 -0.81392922790E+02  0.90627396586E+03  0.95770358877E+03  0.15294330000E+03 0.  0.
<mgrwt>
<rscale>  0 0.57790174E+03</rscale>
<asrwt>0</asrwt>
<pdfrwt beam="1">  1        2 0.17818900E+00 0.71153511E+03</pdfrwt>
<pdfrwt beam="2">  1       -2 0.90025853E-01 0.71153511E+03</pdfrwt>
<totfact> 0.21680397E+01</totfact>
</mgrwt>
</event>
<event>
 4    1  0.5223852E-007  0.8375726E+03  0.7818608E-02  0.9634774E-01
         -2   -1    0    0    0  501 -0.00000000000E+00  0.00000000000E+00  0.56801560158E+03  0.56801560158E+03  0.25500000000E-02 0.  1.
          2   -1    0    0  501    0  0.00000000000E+00 -0.00000000000E+00 -0.13270072417E+04  0.13270072417E+04  0.25500000000E-02 0. -1.
    8880023    1    1    2    0    0  0.51333017308E+03 -0.64883236401E+02 -0.99971883795E+03  0.13042107430E+04  0.65864270000E+03 0.  0.
    8880022    1    1    2    0    0 -0.51333017308E+03  0.64883236401E+02  0.24072719787E+03  0.59081210023E+03  0.15294330000E+03 0.  0.
<mgrwt>
<rscale>  0 0.75036726E+03</rscale>
<asrwt>0</asrwt>
<pdfrwt beam="1">  1        2 0.20415496E+00 0.83757263E+03</pdfrwt>
<pdfrwt beam="2">  1       -2 0.87387016E-01 0.83757263E+03</pdfrwt>
<totfact> 0.18233646E+01</totfact>
</mgrwt>
</event>
<event>
 4    1  0.5223852E-007  0.7340797E+03  0.7818608E-02  0.9877541E-01
         -2   -1    0    0    0  501 -0.00000000000E+00  0.00000000000E+00  0.77753563275E+03  0.77753563275E+03  0.25500000000E-02 0.  1.
          2   -1    0    0  501    0  0.00000000000E+00 -0.00000000000E+00 -0.17483369383E+04  0.17483369383E+04  0.25500000000E-02 0. -1.
    8880023    1    1    2    0    0  0.23222740628E+03  0.22612660910E+03  0.57914315179E+03  0.93502930868E+03  0.65864270000E+03 0.  1.
    8880022    1    1    2    0    0 -0.23222740628E+03 -0.22612660910E+03 -0.15499444573E+04  0.15908432624E+04  0.15294330000E+03 0.  0.
<mgrwt>
<rscale>  0 0.61362220E+03</rscale>
<asrwt>0</asrwt>
<pdfrwt beam="1">  1        2 0.26897491E+00 0.73407971E+03</pdfrwt>
<pdfrwt beam="2">  1       -2 0.11962087E+00 0.73407971E+03</pdfrwt>
<totfact> 0.50959958E+00</totfact>
</mgrwt>
</event>
<event>
 4    1  0.5223852E-007  0.6779645E+03  0.7818608E-02  0.1010499E+00
          2   -1    0    0  501    0  0.00000000000E+00  0.00000000000E+00  0.23896147582E+04  0.23896147582E+04  0.25500000000E-02 0. -1.
         -2   -1    0    0    0  501 -0.00000000000E+00 -0.00000000000E+00 -0.27301617947E+03  0.27301617948E+03  0.25500000000E-02 0.  1.
    8880023    1    1    2    0    0 -0.14018726607E+03  0.78569909190E+02  0.16406415647E+03  0.69753347869E+03  0.65864270000E+03 0.  1.
    8880022    1    1    2    0    0  0.14018726607E+03 -0.78569909190E+02  0.19525344222E+04  0.19650974590E+04  0.15294330000E+03 0.  0.
<mgrwt>
<rscale>  0 0.51276693E+03</rscale>
<asrwt>0</asrwt>
<pdfrwt beam="1">  1        2 0.36763304E+00 0.67796453E+03</pdfrwt>
<pdfrwt beam="2">  1       -2 0.42002489E-01 0.67796453E+03</pdfrwt>
<totfact> 0.22823174E+01</totfact>
</mgrwt>
</event>
<event>
 4    1  0.5223852E-007  0.6621225E+03  0.7818608E-02  0.1022080E+00
         -2   -1    0    0    0  501 -0.00000000000E+00  0.00000000000E+00  0.38869277864E+03  0.38869277865E+03  0.25500000000E-02 0.  1.
          2   -1    0    0  501    0  0.00000000000E+00 -0.00000000000E+00 -0.58322407509E+03  0.58322407509E+03  0.25500000000E-02 0. -1.
    8880023    1    1    2    0    0  0.45773399099E+01 -0.67639292746E+02  0.62683250534E+02  0.66508301897E+03  0.65864270000E+03 0.  1.
    8880022    1    1    2    0    0 -0.45773399099E+01  0.67639292746E+02 -0.25721454698E+03  0.30683383477E+03  0.15294330000E+03 0.  0.
<mgrwt>
<rscale>  0 0.46943410E+03</rscale>
<asrwt>0</asrwt>
<pdfrwt beam="1">  1        2 0.89726781E-01 0.66212252E+03</pdfrwt>
<pdfrwt beam="2">  1       -2 0.59798889E-01 0.66212252E+03</pdfrwt>
<totfact> 0.13595341E+02</totfact>
</mgrwt>
</event>
<event>
 4    1  0.5223852E-007  0.7201037E+03  0.7818608E-02  0.9922235E-01
         -2   -1    0    0    0  501 -0.00000000000E+00  0.00000000000E+00  0.14236565179E+03  0.14236565181E+03  0.25500000000E-02 0.  1.
          2   -1    0    0  501    0  0.00000000000E+00 -0.00000000000E+00 -0.26815670859E+04  0.26815670859E+04  0.25500000000E-02 0. -1.
    8880023    1    1    2    0    0  0.41966561846E+02  0.28805893261E+03 -0.90277844466E+03  0.11547979336E+04  0.65864270000E+03 0.  1.
    8880022    1    1    2    0    0 -0.41966561846E+02 -0.28805893261E+03 -0.16364229895E+04  0.16691348042E+04  0.15294330000E+03 0.  0.
<mgrwt>
<rscale>  0 0.59195672E+03</rscale>
<asrwt>0</asrwt>
<pdfrwt beam="1">  1        2 0.41254874E+00 0.72010371E+03</pdfrwt>
<pdfrwt beam="2">  1       -2 0.21902410E-01 0.72010371E+03</pdfrwt>
<totfact> 0.51964980E+01</totfact>
</mgrwt>
</event>
<event>
 4    1  0.5223852E-007  0.8702059E+03  0.7818608E-02  0.9575661E-01
         -2   -1    0    0    0  501 -0.00000000000E+00  0.00000000000E+00  0.38993739199E+03  0.38993739200E+03  0.25500000000E-02 0.  1.
          2   -1    0    0  501    0  0.00000000000E+00 -0.00000000000E+00 -0.16611964048E+04  0.16611964048E+04  0.25500000000E-02 0. -1.
    8880023    1    1    2    0    0 -0.87955895477E+02  0.56188240223E+03 -0.30992997897E+03  0.92375043795E+03  0.65864270000E+03 0.  0.
    8880022    1    1    2    0    0  0.87955895477E+02 -0.56188240223E+03 -0.96132903383E+03  0.11273833588E+04  0.15294330000E+03 0.  0.
<mgrwt>
<rscale>  0 0.78928276E+03</rscale>
<asrwt>0</asrwt>
<pdfrwt beam="1">  1        2 0.25556867E+00 0.87020588E+03</pdfrwt>
<pdfrwt beam="2">  1       -2 0.59990369E-01 0.87020588E+03</pdfrwt>
<totfact> 0.27038674E+01</totfact>
</mgrwt>
</event>
<event>
 4    1  0.5223852E-007  0.9293070E+03  0.7818608E-02  0.9480534E-01
          2   -1    0    0  501    0  0.00000000000E+00  0.00000000000E+00  0.22860776621E+04  0.22860776621E+04  0.25500000000E-02 0. -1.
         -2   -1    0    0    0  501 -0.00000000000E+00 -0.00000000000E+00 -0.57134674297E+03  0.57134674297E+03  0.25500000000E-02 0.  1.
    8880023    1    1    2    0    0 -0.52746201260E+03  0.38933933212E+03 -0.87644828977E+02  0.93343082903E+03  0.65864270000E+03 0.  1.
    8880022    1    1    2    0    0  0.52746201260E+03 -0.38933933212E+03  0.18023757481E+04  0.19239935761E+04  0.15294330000E+03 0. -1.
<mgrwt>
<rscale>  0 0.85734338E+03</rscale>
<asrwt>0</asrwt>
<pdfrwt beam="1">  1        2 0.35170426E+00 0.92930700E+03</pdfrwt>
<pdfrwt beam="2">  1       -2 0.87899497E-01 0.92930700E+03</pdfrwt>
<totfact> 0.52302853E+00</totfact>
</mgrwt>
</event>
<event>
 4    1  0.5223852E-007  0.7203412E+03  0.7818608E-02  0.9921433E-01
         -2   -1    0    0    0  501 -0.00000000000E+00  0.00000000000E+00  0.55105360965E+03  0.55105360966E+03  0.25500000000E-02 0.  1.
          2   -1    0    0  501    0  0.00000000000E+00 -0.00000000000E+00 -0.10200167729E+04  0.10200167729E+04  0.25500000000E-02 0. -1.
    8880023    1    1    2    0    0  0.28881026922E+03  0.40864305205E+02  0.26425175363E+03  0.76728121221E+03  0.65864270000E+03 0.  0.
    8880022    1    1    2    0    0 -0.28881026922E+03 -0.40864305205E+02 -0.73321491685E+03  0.80378917034E+03  0.15294330000E+03 0.  0.
<mgrwt>
<rscale>  0 0.59233700E+03</rscale>
<asrwt>0</asrwt>
<pdfrwt beam="1">  1        2 0.15692566E+00 0.72034122E+03</pdfrwt>
<pdfrwt beam="2">  1       -2 0.84777478E-01 0.72034122E+03</pdfrwt>
<totfact> 0.30216810E+01</totfact>
</mgrwt>
</event>
<event>
 4    1  0.5223852E-007  0.6725225E+03  0.7818608E-02  0.1013916E+00
         -2   -1    0    0    0  501 -0.00000000000E+00  0.00000000000E+00  0.31435489110E+03  0.31435489111E+03  0.25500000000E-02 0.  1.
          2   -1    0    0  501    0  0.00000000000E+00 -0.00000000000E+00 -0.10667369783E+04  0.10667369783E+04  0.25500000000E-02 0. -1.
    8880023    1    1    2    0    0 -0.54052842356E+02 -0.12471803290E+03 -0.78807615614E+02  0.67712417180E+03  0.65864270000E+03 0.  1.
    8880022    1    1    2    0    0  0.54052842356E+02  0.12471803290E+03 -0.67357447160E+03  0.70396769763E+03  0.15294330000E+03 0.  0.
<mgrwt>
<rscale>  0 0.49947680E+03</rscale>
<asrwt>0</asrwt>
<pdfrwt beam="1">  1        2 0.16411338E+00 0.67252249E+03</pdfrwt>
<pdfrwt beam="2">  1       -2 0.48362291E-01 0.67252249E+03</pdfrwt>
<totfact> 0.94448782E+01</totfact>
</mgrwt>
</event>
<event>
 4    1  0.5223852E-007  0.6791492E+03  0.7818608E-02  0.1009809E+00
         -2   -1    0    0    0  501 -0.00000000000E+00  0.00000000000E+00  0.49556214790E+03  0.49556214791E+03  0.25500000000E-02 0.  1.
          2   -1    0    0  501    0  0.00000000000E+00 -0.00000000000E+00 -0.82781533565E+03  0.82781533566E+03  0.25500000000E-02 0. -1.
    8880023    1    1    2    0    0 -0.15137713318E+03  0.67218549035E+02  0.23045820055E+03  0.71718516315E+03  0.65864270000E+03 0.  1.
    8880022    1    1    2    0    0  0.15137713318E+03 -0.67218549035E+02 -0.56271138830E+03  0.60619232041E+03  0.15294330000E+03 0.  0.
<mgrwt>
<rscale>  0 0.51550582E+03</rscale>
<asrwt>0</asrwt>
<pdfrwt beam="1">  1        2 0.12735621E+00 0.67914916E+03</pdfrwt>
<pdfrwt beam="2">  1       -2 0.76240330E-01 0.67914916E+03</pdfrwt>
<totfact> 0.51662261E+01</totfact>
</mgrwt>
</event>
<event>
 4    1  0.5223852E-007  0.7347644E+03  0.7818608E-02  0.9875469E-01
         -2   -1    0    0    0  501 -0.00000000000E+00  0.00000000000E+00  0.23385787903E+03  0.23385787904E+03  0.25500000000E-02 0.  1.
          2   -1    0    0  501    0  0.00000000000E+00 -0.00000000000E+00 -0.39172512084E+04  0.39172512084E+04  0.25500000000E-02 0. -1.
    8880023    1    1    2    0    0  0.32493433933E+03  0.22049488258E+02 -0.37819439835E+03  0.82638351509E+03  0.65864270000E+03 0.  1.
    8880022    1    1    2    0    0 -0.32493433933E+03 -0.22049488258E+02 -0.33051989310E+04  0.33247255723E+04  0.15294330000E+03 0.  0.
<mgrwt>
<rscale>  0 0.61465029E+03</rscale>
<asrwt>0</asrwt>
<pdfrwt beam="1">  1        2 0.60265399E+00 0.73476439E+03</pdfrwt>
<pdfrwt beam="2">  1       -2 0.35978138E-01 0.73476439E+03</pdfrwt>
<totfact> 0.32045950E+00</totfact>
</mgrwt>
</event>
<event>
 4    1  0.5223852E-007  0.6691537E+03  0.7818608E-02  0.1016277E+00
          2   -1    0    0  501    0  0.00000000000E+00  0.00000000000E+00  0.10885653594E+04  0.10885653594E+04  0.25500000000E-02 0. -1.
         -2   -1    0    0    0  501 -0.00000000000E+00 -0.00000000000E+00 -0.61695034297E+03  0.61695034297E+03  0.25500000000E-02 0.  1.
    8880023    1    1    2    0    0  0.95538760179E+02 -0.69489889703E+02 -0.42208934017E+03  0.79115492593E+03  0.65864270000E+03 0.  1.
    8880022    1    1    2    0    0 -0.95538760179E+02  0.69489889703E+02  0.89370435660E+03  0.91436077644E+03  0.15294330000E+03 0.  0.
<mgrwt>
<rscale>  0 0.49054411E+03</rscale>
<asrwt>0</asrwt>
<pdfrwt beam="1">  1        2 0.16747159E+00 0.66915372E+03</pdfrwt>
<pdfrwt beam="2">  1       -2 0.94915438E-01 0.66915372E+03</pdfrwt>
<totfact> 0.21238196E+01</totfact>
</mgrwt>
</event>
<event>
 4    1  0.5223852E-007  0.6899034E+03  0.7818608E-02  0.1004199E+00
          2   -1    0    0  501    0  0.00000000000E+00  0.00000000000E+00  0.82593684879E+03  0.82593684879E+03  0.25500000000E-02 0. -1.
         -2   -1    0    0    0  501 -0.00000000000E+00 -0.00000000000E+00 -0.44391280094E+03  0.44391280095E+03  0.25500000000E-02 0.  1.
    8880023    1    1    2    0    0  0.11294587592E+03 -0.17146356067E+03 -0.12566799707E+03  0.70125542798E+03  0.65864270000E+03 0.  1.
    8880022    1    1    2    0    0 -0.11294587592E+03  0.17146356067E+03  0.50769204492E+03  0.56859422176E+03  0.15294330000E+03 0.  0.
<mgrwt>
<rscale>  0 0.53846974E+03</rscale>
<asrwt>0</asrwt>
<pdfrwt beam="1">  1        2 0.12706721E+00 0.68990342E+03</pdfrwt>
<pdfrwt beam="2">  1       -2 0.68294277E-01 0.68990342E+03</pdfrwt>
<totfact> 0.65919698E+01</totfact>
</mgrwt>
</event>
<event>
 4    1  0.5223852E-007  0.1073376E+04  0.7818608E-02  0.9291294E-01
          2   -1    0    0  501    0  0.00000000000E+00  0.00000000000E+00  0.19366181123E+04  0.19366181123E+04  0.25500000000E-02 0. -1.
         -2   -1    0    0    0  501 -0.00000000000E+00 -0.00000000000E+00 -0.10337236513E+04  0.10337236513E+04  0.25500000000E-02 0.  1.
    8880023    1    1    2    0    0  0.81256248071E+03 -0.24097313271E+03 -0.60624726292E+03  0.12327496850E+04  0.65864270000E+03 0.  0.
    8880022    1    1    2    0    0 -0.81256248071E+03  0.24097313271E+03  0.15091417239E+04  0.17375920786E+04  0.15294330000E+03 0.  0.
<mgrwt>
<rscale>  0 0.10158831E+04</rscale>
<asrwt>0</asrwt>
<pdfrwt beam="1">  1        2 0.29794125E+00 0.10733760E+04</pdfrwt>
<pdfrwt beam="2">  1       -2 0.15903441E+00 0.10733760E+04</pdfrwt>
<totfact> 0.18317437E+00</totfact>
</mgrwt>
</event>
<event>
 4    1  0.5223852E-007  0.6628516E+03  0.7818608E-02  0.1021408E+00
         -2   -1    0    0    0  501 -0.00000000000E+00  0.00000000000E+00  0.36372005266E+04  0.36372005266E+04  0.25500000000E-02 0.  1.
          2   -1    0    0  501    0  0.00000000000E+00 -0.00000000000E+00 -0.18464958185E+03  0.18464958187E+03  0.25500000000E-02 0. -1.
    8880023    1    1    2    0    0  0.52823738234E+02 -0.52646452177E+02  0.35596193428E+04  0.36208095874E+04  0.65864270000E+03 0.  1.
    8880022    1    1    2    0    0 -0.52823738234E+02  0.52646452177E+02 -0.10706839804E+03  0.20104052109E+03  0.15294330000E+03 0.  0.
<mgrwt>
<rscale>  0 0.47181868E+03</rscale>
<asrwt>0</asrwt>
<pdfrwt beam="1">  1        2 0.28407629E-01 0.66285157E+03</pdfrwt>
<pdfrwt beam="2">  1       -2 0.55956930E+00 0.66285157E+03</pdfrwt>
<totfact> 0.15132946E-01</totfact>
</mgrwt>
</event>
<event>
 4    1  0.5223852E-007  0.1053823E+04  0.7818608E-02  0.9314300E-01
         -2   -1    0    0    0  501 -0.00000000000E+00  0.00000000000E+00  0.61857740225E+03  0.61857740225E+03  0.25500000000E-02 0.  1.
          2   -1    0    0  501    0  0.00000000000E+00 -0.00000000000E+00 -0.19924421316E+04  0.19924421316E+04  0.25500000000E-02 0. -1.
    8880023    1    1    2    0    0 -0.24845274714E+03  0.78422126925E+03 -0.62787986676E+02  0.10556913868E+04  0.65864270000E+03 0.  0.
    8880022    1    1    2    0    0  0.24845274714E+03 -0.78422126925E+03 -0.13110767427E+04  0.15553281470E+04  0.15294330000E+03 0.  0.
<mgrwt>
<rscale>  0 0.99476946E+03</rscale>
<asrwt>0</asrwt>
<pdfrwt beam="1">  1        2 0.30652956E+00 0.10538226E+04</pdfrwt>
<pdfrwt beam="2">  1       -2 0.95165755E-01 0.10538226E+04</pdfrwt>
<totfact> 0.62280459E+00</totfact>
</mgrwt>
</event>
<event>
 4    1  0.5223852E-007  0.7908381E+03  0.7818608E-02  0.9730968E-01
          2   -1    0    0  501    0  0.00000000000E+00  0.00000000000E+00  0.10553674006E+04  0.10553674006E+04  0.25500000000E-02 0. -1.
         -2   -1    0    0    0  501 -0.00000000000E+00 -0.00000000000E+00 -0.43138478979E+03  0.43138478979E+03  0.25500000000E-02 0.  1.
    8880023    1    1    2    0    0 -0.29917792253E+03 -0.31954238162E+03  0.11656738889E+03  0.79938284032E+03  0.65864270000E+03 0.  1.
    8880022    1    1    2    0    0  0.29917792253E+03  0.31954238162E+03  0.50741522196E+03  0.68736935011E+03  0.15294330000E+03 0. -1.
<mgrwt>
<rscale>  0 0.69202556E+03</rscale>
<asrwt>0</asrwt>
<pdfrwt beam="1">  1        2 0.16236421E+00 0.79083814E+03</pdfrwt>
<pdfrwt beam="2">  1       -2 0.66366891E-01 0.79083814E+03</pdfrwt>
<totfact> 0.49087340E+01</totfact>
</mgrwt>
</event>
<event>
 4    1  0.5223852E-007  0.6675385E+03  0.7818608E-02  0.1017492E+00
          2   -1    0    0  501    0  0.00000000000E+00  0.00000000000E+00  0.30964990694E+04  0.30964990694E+04  0.25500000000E-02 0. -1.
         -2   -1    0    0    0  501 -0.00000000000E+00 -0.00000000000E+00 -0.37416902881E+03  0.37416902882E+03  0.25500000000E-02 0.  1.
    8880023    1    1    2    0    0 -0.61038661072E+02  0.89842826367E+02 -0.70766772859E+02  0.67127907311E+03  0.65864270000E+03 0.  1.
    8880022    1    1    2    0    0  0.61038661072E+02 -0.89842826367E+02  0.27930968135E+04  0.27993890251E+04  0.15294330000E+03 0.  0.
<mgrwt>
<rscale>  0 0.48602462E+03</rscale>
<asrwt>0</asrwt>
<pdfrwt beam="1">  1        2 0.47638445E+00 0.66753851E+03</pdfrwt>
<pdfrwt beam="2">  1       -2 0.57564468E-01 0.66753851E+03</pdfrwt>
<totfact> 0.46530726E+00</totfact>
</mgrwt>
</event>
<event>
 4    1  0.5223852E-007  0.7346739E+03  0.7818608E-02  0.9875742E-01
          2   -1    0    0  501    0  0.00000000000E+00  0.00000000000E+00  0.22855348447E+04  0.22855348447E+04  0.25500000000E-02 0. -1.
         -2   -1    0    0    0  501 -0.00000000000E+00 -0.00000000000E+00 -0.16529892644E+03  0.16529892646E+03  0.25500000000E-02 0.  1.
    8880023    1    1    2    0    0 -0.17133514254E+02 -0.32502608659E+03  0.81632890292E+03  0.10982434149E+04  0.65864270000E+03 0.  1.
    8880022    1    1    2    0    0  0.17133514254E+02  0.32502608659E+03  0.13039070153E+04  0.13525903563E+04  0.15294330000E+03 0.  0.
<mgrwt>
<rscale>  0 0.61451455E+03</rscale>
<asrwt>0</asrwt>
<pdfrwt beam="1">  1        2 0.35162073E+00 0.73467389E+03</pdfrwt>
<pdfrwt beam="2">  1       -2 0.25430605E-01 0.73467389E+03</pdfrwt>
<totfact> 0.66526466E+01</totfact>
</mgrwt>
</event>
<event>
 4    1  0.5223852E-007  0.9189881E+03  0.7818608E-02  0.9496212E-01
         -2   -1    0    0    0  501 -0.00000000000E+00  0.00000000000E+00  0.10130821195E+04  0.10130821195E+04  0.25500000000E-02 0.  1.
          2   -1    0    0  501    0  0.00000000000E+00 -0.00000000000E+00 -0.10002074605E+04  0.10002074605E+04  0.25500000000E-02 0. -1.
    8880023    1    1    2    0    0 -0.22299298807E+03  0.60083532553E+03 -0.61288481153E+03  0.11046116782E+04  0.65864270000E+03 0. -1.
    8880022    1    1    2    0    0  0.22299298807E+03 -0.60083532553E+03  0.62575947060E+03  0.90867790179E+03  0.15294330000E+03 0.  0.
<mgrwt>
<rscale>  0 0.84563651E+03</rscale>
<asrwt>0</asrwt>
<pdfrwt beam="1">  1        2 0.15387807E+00 0.91898812E+03</pdfrwt>
<pdfrwt beam="2">  1       -2 0.15585879E+00 0.91898812E+03</pdfrwt>
<totfact> 0.68052231E+00</totfact>
</mgrwt>
</event>
<event>
 4    1  0.5223852E-007  0.1270276E+04  0.7818608E-02  0.9091663E-01
          2   -1    0    0  501    0  0.00000000000E+00  0.00000000000E+00  0.91365883973E+03  0.91365883973E+03  0.25500000000E-02 0. -1.
         -2   -1    0    0    0  501 -0.00000000000E+00 -0.00000000000E+00 -0.22442972180E+04  0.22442972180E+04  0.25500000000E-02 0.  1.
    8880023    1    1    2    0    0 -0.99557886122E+03 -0.43429771290E+03  0.18851354224E+03  0.12841882005E+04  0.65864270000E+03 0. -1.
    8880022    1    1    2    0    0  0.99557886122E+03  0.43429771290E+03 -0.15191519205E+04  0.18737678572E+04  0.15294330000E+03 0.  0.
<mgrwt>
<rscale>  0 0.12245179E+04</rscale>
<asrwt>0</asrwt>
<pdfrwt beam="1">  1        2 0.14056290E+00 0.12702763E+04</pdfrwt>
<pdfrwt beam="2">  1       -2 0.34527649E+00 0.12702763E+04</pdfrwt>
<totfact> 0.46622581E-01</totfact>
</mgrwt>
</event>
<event>
 4    1  0.5223852E-007  0.7052937E+03  0.7818608E-02  0.9975911E-01
         -2   -1    0    0    0  501 -0.00000000000E+00  0.00000000000E+00  0.19342492674E+04  0.19342492674E+04  0.25500000000E-02 0.  1.
          2   -1    0    0  501    0  0.00000000000E+00 -0.00000000000E+00 -0.46719397375E+03  0.46719397376E+03  0.25500000000E-02 0. -1.
    8880023    1    1    2    0    0 -0.24632713782E+03 -0.54331651651E+02  0.18138544007E+04  0.19461518390E+04  0.65864270000E+03 0.  1.
    8880022    1    1    2    0    0  0.24632713782E+03  0.54331651651E+02 -0.34679910706E+03  0.45529140215E+03  0.15294330000E+03 0.  0.
<mgrwt>
<rscale>  0 0.56719225E+03</rscale>
<asrwt>0</asrwt>
<pdfrwt beam="1">  1        2 0.71875996E-01 0.70529369E+03</pdfrwt>
<pdfrwt beam="2">  1       -2 0.29757681E+00 0.70529369E+03</pdfrwt>
<totfact> 0.22959497E+00</totfact>
</mgrwt>
</event>
<event>
 4    1  0.5223852E-007  0.7749514E+03  0.7818608E-02  0.9767833E-01
         -2   -1    0    0    0  501 -0.00000000000E+00  0.00000000000E+00  0.68440337466E+03  0.68440337466E+03  0.25500000000E-02 0.  1.
          2   -1    0    0  501    0  0.00000000000E+00 -0.00000000000E+00 -0.66270884850E+03  0.66270884851E+03  0.25500000000E-02 0. -1.
    8880023    1    1    2    0    0 -0.56350264775E+01  0.40829862071E+03 -0.27209705784E+03  0.82133216931E+03  0.65864270000E+03 0. -1.
    8880022    1    1    2    0    0  0.56350264775E+01 -0.40829862071E+03  0.29379158400E+03  0.52578005386E+03  0.15294330000E+03 0.  0.
<mgrwt>
<rscale>  0 0.67117772E+03</rscale>
<asrwt>0</asrwt>
<pdfrwt beam="1">  1        2 0.10195521E+00 0.77495143E+03</pdfrwt>
<pdfrwt beam="2">  1       -2 0.10529283E+00 0.77495143E+03</pdfrwt>
<totfact> 0.32403976E+01</totfact>
</mgrwt>
</event>
<event>
 4    1  0.5223852E-007  0.6633564E+03  0.7818608E-02  0.1020954E+00
         -2   -1    0    0    0  501 -0.00000000000E+00  0.00000000000E+00  0.12687148851E+03  0.12687148853E+03  0.25500000000E-02 0.  1.
          2   -1    0    0  501    0  0.00000000000E+00 -0.00000000000E+00 -0.17480197376E+04  0.17480197376E+04  0.25500000000E-02 0. -1.
    8880023    1    1    2    0    0 -0.55481795060E+02 -0.56154639728E+02 -0.81631903717E+03  0.10518643210E+04  0.65864270000E+03 0.  1.
    8880022    1    1    2    0    0  0.55481795060E+02  0.56154639728E+02 -0.80482921191E+03  0.82302690509E+03  0.15294330000E+03 0.  0.
<mgrwt>
<rscale>  0 0.47343925E+03</rscale>
<asrwt>0</asrwt>
<pdfrwt beam="1">  1        2 0.26892610E+00 0.66335645E+03</pdfrwt>
<pdfrwt beam="2">  1       -2 0.19518692E-01 0.66335645E+03</pdfrwt>
<totfact> 0.21077840E+02</totfact>
</mgrwt>
</event>
<event>
 4    1  0.5223852E-007  0.9731168E+03  0.7818608E-02  0.9417606E-01
          2   -1    0    0  501    0  0.00000000000E+00  0.00000000000E+00  0.18354696243E+04  0.18354696243E+04  0.25500000000E-02 0. -1.
         -2   -1    0    0    0  501 -0.00000000000E+00 -0.00000000000E+00 -0.11462293432E+04  0.11462293432E+04  0.25500000000E-02 0.  1.
    8880023    1    1    2    0    0 -0.68900043068E+03 -0.19602188186E+03 -0.84036325625E+03  0.12857553346E+04  0.65864270000E+03 0.  0.
    8880022    1    1    2    0    0  0.68900043068E+03  0.19602188186E+03  0.15296035374E+04  0.16959436330E+04  0.15294330000E+03 0.  0.
<mgrwt>
<rscale>  0 0.90640811E+03</rscale>
<asrwt>0</asrwt>
<pdfrwt beam="1">  1        2 0.28237994E+00 0.97311684E+03</pdfrwt>
<pdfrwt beam="2">  1       -2 0.17634298E+00 0.97311684E+03</pdfrwt>
<totfact> 0.15846370E+00</totfact>
</mgrwt>
</event>
<event>
 4    1  0.5223852E-007  0.8364429E+03  0.7818608E-02  0.9636924E-01
         -2   -1    0    0    0  501 -0.00000000000E+00  0.00000000000E+00  0.41848081986E+03  0.41848081986E+03  0.25500000000E-02 0.  1.
          2   -1    0    0  501    0  0.00000000000E+00 -0.00000000000E+00 -0.37009693345E+04  0.37009693345E+04  0.25500000000E-02 0. -1.
    8880023    1    1    2    0    0  0.49344817377E+03  0.14945043975E+03 -0.45057879209E+02  0.83765562905E+03  0.65864270000E+03 0.  0.
    8880022    1    1    2    0    0 -0.49344817377E+03 -0.14945043975E+03 -0.32374306355E+04  0.32817945253E+04  0.15294330000E+03 0.  0.
<mgrwt>
<rscale>  0 0.74899760E+03</rscale>
<asrwt>0</asrwt>
<pdfrwt beam="1">  1        2 0.56937988E+00 0.83644291E+03</pdfrwt>
<pdfrwt beam="2">  1       -2 0.64381667E-01 0.83644291E+03</pdfrwt>
<totfact> 0.13974954E+00</totfact>
</mgrwt>
</event>
<event>
 4    1  0.5223852E-007  0.8081423E+03  0.7818608E-02  0.9693459E-01
          2   -1    0    0  501    0  0.00000000000E+00  0.00000000000E+00  0.15427396928E+04  0.15427396928E+04  0.25500000000E-02 0. -1.
         -2   -1    0    0    0  501 -0.00000000000E+00 -0.00000000000E+00 -0.28799431308E+03  0.28799431309E+03  0.25500000000E-02 0.  1.
    8880023    1    1    2    0    0  0.46797692810E+03 -0.16775270732E+02  0.57750903615E+03  0.99328279359E+03  0.65864270000E+03 0.  0.
    8880022    1    1    2    0    0 -0.46797692810E+03  0.16775270732E+02  0.67723634359E+03  0.83745121233E+03  0.15294330000E+03 0.  1.
<mgrwt>
<rscale>  0 0.71407549E+03</rscale>
<asrwt>0</asrwt>
<pdfrwt beam="1">  1        2 0.23734457E+00 0.80814233E+03</pdfrwt>
<pdfrwt beam="2">  1       -2 0.44306817E-01 0.80814233E+03</pdfrwt>
<totfact> 0.58925463E+01</totfact>
</mgrwt>
</event>
<event>
 4    1  0.5223852E-007  0.1066339E+04  0.7818608E-02  0.9299493E-01
          2   -1    0    0  501    0  0.00000000000E+00  0.00000000000E+00  0.12406288274E+04  0.12406288274E+04  0.25500000000E-02 0. -1.
         -2   -1    0    0    0  501 -0.00000000000E+00 -0.00000000000E+00 -0.89420584254E+03  0.89420584254E+03  0.25500000000E-02 0.  1.
    8880023    1    1    2    0    0  0.28227824478E+03 -0.78967533426E+03 -0.24900974170E+03  0.10950270311E+04  0.65864270000E+03 0.  1.
    8880022    1    1    2    0    0 -0.28227824478E+03  0.78967533426E+03  0.59543272655E+03  0.10398076389E+04  0.15294330000E+03 0.  0.
<mgrwt>
<rscale>  0 0.10082954E+04</rscale>
<asrwt>0</asrwt>
<pdfrwt beam="1">  1        2 0.19086597E+00 0.10663388E+04</pdfrwt>
<pdfrwt beam="2">  1       -2 0.13757013E+00 0.10663388E+04</pdfrwt>
<totfact> 0.66354242E+00</totfact>
</mgrwt>
</event>
<event>
 4    1  0.5223852E-007  0.9819293E+03  0.7818608E-02  0.9405591E-01
          2   -1    0    0  501    0  0.00000000000E+00  0.00000000000E+00  0.22881396148E+04  0.22881396148E+04  0.25500000000E-02 0. -1.
         -2   -1    0    0    0  501 -0.00000000000E+00 -0.00000000000E+00 -0.87222134939E+03  0.87222134939E+03  0.25500000000E-02 0.  1.
    8880023    1    1    2    0    0  0.71089955236E+03  0.15810341646E+03 -0.50223478511E+03  0.11029165197E+04  0.65864270000E+03 0.  0.
    8880022    1    1    2    0    0 -0.71089955236E+03 -0.15810341646E+03  0.19181530505E+04  0.20574444444E+04  0.15294330000E+03 0.  0.
<mgrwt>
<rscale>  0 0.91616983E+03</rscale>
<asrwt>0</asrwt>
<pdfrwt beam="1">  1        2 0.35202148E+00 0.98192926E+03</pdfrwt>
<pdfrwt beam="2">  1       -2 0.13418790E+00 0.98192926E+03</pdfrwt>
<totfact> 0.18543016E+00</totfact>
</mgrwt>
</event>
<event>
 4    1  0.5223852E-007  0.8506582E+03  0.7818608E-02  0.9610402E-01
          2   -1    0    0  501    0  0.00000000000E+00  0.00000000000E+00  0.15041393257E+04  0.15041393257E+04  0.25500000000E-02 0. -1.
         -2   -1    0    0    0  501 -0.00000000000E+00 -0.00000000000E+00 -0.68692852682E+03  0.68692852683E+03  0.25500000000E-02 0.  1.
    8880023    1    1    2    0    0 -0.25849951374E+03 -0.47221522243E+03 -0.33174807769E+03  0.91305871017E+03  0.65864270000E+03 0.  1.
    8880022    1    1    2    0    0  0.25849951374E+03  0.47221522243E+03  0.11489588766E+04  0.12780091424E+04  0.15294330000E+03 0.  0.
<mgrwt>
<rscale>  0 0.76611541E+03</rscale>
<asrwt>0</asrwt>
<pdfrwt beam="1">  1        2 0.23140605E+00 0.85065823E+03</pdfrwt>
<pdfrwt beam="2">  1       -2 0.10568131E+00 0.85065823E+03</pdfrwt>
<totfact> 0.92440449E+00</totfact>
</mgrwt>
</event>
<event>
 4    1  0.5223852E-007  0.6721860E+03  0.7818608E-02  0.1014142E+00
         -2   -1    0    0    0  501 -0.00000000000E+00  0.00000000000E+00  0.25519212347E+03  0.25519212348E+03  0.25500000000E-02 0.  1.
          2   -1    0    0  501    0  0.00000000000E+00 -0.00000000000E+00 -0.83728981784E+03  0.83728981784E+03  0.25500000000E-02 0. -1.
    8880023    1    1    2    0    0  0.77859863471E+02  0.10936912035E+03 -0.27986567644E+03  0.72812002166E+03  0.65864270000E+03 0.  1.
    8880022    1    1    2    0    0 -0.77859863471E+02 -0.10936912035E+03 -0.30223201793E+03  0.36436191967E+03  0.15294330000E+03 0.  0.
<mgrwt>
<rscale>  0 0.49861155E+03</rscale>
<asrwt>0</asrwt>
<pdfrwt beam="1">  1        2 0.12881382E+00 0.67218596E+03</pdfrwt>
<pdfrwt beam="2">  1       -2 0.39260327E-01 0.67218596E+03</pdfrwt>
<totfact> 0.20151166E+02</totfact>
</mgrwt>
</event>
<event>
 4    1  0.5223852E-007  0.9347018E+03  0.7818608E-02  0.9472475E-01
          2   -1    0    0  501    0  0.00000000000E+00  0.00000000000E+00  0.14385540443E+04  0.14385540444E+04  0.25500000000E-02 0. -1.
         -2   -1    0    0    0  501 -0.00000000000E+00 -0.00000000000E+00 -0.69594989011E+03  0.69594989012E+03  0.25500000000E-02 0.  1.
    8880023    1    1    2    0    0 -0.53179968458E+03  0.39629063388E+03  0.10342407708E+04  0.13940306128E+04  0.65864270000E+03 0. -1.
    8880022    1    1    2    0    0  0.53179968458E+03 -0.39629063388E+03 -0.29163661658E+03  0.74047332171E+03  0.15294330000E+03 0.  0.
<mgrwt>
<rscale>  0 0.86343885E+03</rscale>
<asrwt>0</asrwt>
<pdfrwt beam="1">  1        2 0.22131600E+00 0.93470176E+03</pdfrwt>
<pdfrwt beam="2">  1       -2 0.10706922E+00 0.93470176E+03</pdfrwt>
<totfact> 0.96594033E+00</totfact>
</mgrwt>
</event>
<event>
 4    1  0.5223852E-007  0.8699826E+03  0.7818608E-02  0.9576047E-01
          2   -1    0    0  501    0  0.00000000000E+00  0.00000000000E+00  0.24024061070E+04  0.24024061070E+04  0.25500000000E-02 0. -1.
         -2   -1    0    0    0  501 -0.00000000000E+00 -0.00000000000E+00 -0.36874843024E+03  0.36874843024E+03  0.25500000000E-02 0.  1.
    8880023    1    1    2    0    0 -0.28513833269E+03  0.49168659359E+03  0.26854069666E+03  0.91048552274E+03  0.65864270000E+03 0.  0.
    8880022    1    1    2    0    0  0.28513833269E+03 -0.49168659359E+03  0.17651169801E+04  0.18606690145E+04  0.15294330000E+03 0.  0.
<mgrwt>
<rscale>  0 0.78902034E+03</rscale>
<asrwt>0</asrwt>
<pdfrwt beam="1">  1        2 0.36960095E+00 0.86998263E+03</pdfrwt>
<pdfrwt beam="2">  1       -2 0.56730527E-01 0.86998263E+03</pdfrwt>
<totfact> 0.11859309E+01</totfact>
</mgrwt>
</event>
<event>
 4    1  0.5223852E-007  0.6776312E+03  0.7818608E-02  0.1010697E+00
         -2   -1    0    0    0  501 -0.00000000000E+00  0.00000000000E+00  0.69859850384E+03  0.69859850384E+03  0.25500000000E-02 0.  1.
          2   -1    0    0  501    0  0.00000000000E+00 -0.00000000000E+00 -0.81215878783E+03  0.81215878783E+03  0.25500000000E-02 0. -1.
    8880023    1    1    2    0    0 -0.45356463358E+02  0.15269792488E+03  0.51074015974E+03  0.84855146106E+03  0.65864270000E+03 0.  1.
    8880022    1    1    2    0    0  0.45356463358E+02 -0.15269792488E+03 -0.62430044374E+03  0.66220583061E+03  0.15294330000E+03 0.  0.
<mgrwt>
<rscale>  0 0.51198727E+03</rscale>
<asrwt>0</asrwt>
<pdfrwt beam="1">  1        2 0.12494751E+00 0.67763122E+03</pdfrwt>
<pdfrwt beam="2">  1       -2 0.10747669E+00 0.67763122E+03</pdfrwt>
<totfact> 0.23971956E+01</totfact>
</mgrwt>
</event>
<event>
 4    1  0.5223852E-007  0.8465327E+03  0.7818608E-02  0.9617983E-01
          2   -1    0    0  501    0  0.00000000000E+00  0.00000000000E+00  0.18353918971E+04  0.18353918971E+04  0.25500000000E-02 0. -1.
         -2   -1    0    0    0  501 -0.00000000000E+00 -0.00000000000E+00 -0.64840887508E+03  0.64840887508E+03  0.25500000000E-02 0.  1.
    8880023    1    1    2    0    0  0.50575586106E+03  0.16437288646E+03  0.15885933122E+04  0.18000684305E+04  0.65864270000E+03 0.  0.
    8880022    1    1    2    0    0 -0.50575586106E+03 -0.16437288646E+03 -0.40161029018E+03  0.68373234163E+03  0.15294330000E+03 0.  0.
<mgrwt>
<rscale>  0 0.76117287E+03</rscale>
<asrwt>0</asrwt>
<pdfrwt beam="1">  1        2 0.28236799E+00 0.84653272E+03</pdfrwt>
<pdfrwt beam="2">  1       -2 0.99755211E-01 0.84653272E+03</pdfrwt>
<totfact> 0.69727268E+00</totfact>
</mgrwt>
</event>
<event>
 4    1  0.5223852E-007  0.8667706E+03  0.7818608E-02  0.9581631E-01
          2   -1    0    0  501    0  0.00000000000E+00  0.00000000000E+00  0.17508110839E+04  0.17508110840E+04  0.25500000000E-02 0. -1.
         -2   -1    0    0    0  501 -0.00000000000E+00 -0.00000000000E+00 -0.81770368323E+03  0.81770368324E+03  0.25500000000E-02 0.  1.
    8880023    1    1    2    0    0 -0.55787218093E+03  0.79118570446E+02 -0.51424665459E+03  0.10078397424E+04  0.65864270000E+03 0.  1.
    8880022    1    1    2    0    0  0.55787218093E+03 -0.79118570446E+02  0.14473540553E+04  0.15606750247E+04  0.15294330000E+03 0.  0.
<mgrwt>
<rscale>  0 0.78523957E+03</rscale>
<asrwt>0</asrwt>
<pdfrwt beam="1">  1        2 0.26935555E+00 0.86677063E+03</pdfrwt>
<pdfrwt beam="2">  1       -2 0.12580057E+00 0.86677063E+03</pdfrwt>
<totfact> 0.43915370E+00</totfact>
</mgrwt>
</event>
<event>
 4    1  0.5223852E-007  0.7266638E+03  0.7818608E-02  0.9900651E-01
         -2   -1    0    0    0  501 -0.00000000000E+00  0.00000000000E+00  0.55412220374E+03  0.55412220375E+03  0.25500000000E-02 0.  1.
          2   -1    0    0  501    0  0.00000000000E+00 -0.00000000000E+00 -0.12586217136E+04  0.12586217137E+04  0.25500000000E-02 0. -1.
    8880023    1    1    2    0    0 -0.13003411593E+03  0.27806696185E+03  0.27344156496E+03  0.77640878555E+03  0.65864270000E+03 0.  1.
    8880022    1    1    2    0    0  0.13003411593E+03 -0.27806696185E+03 -0.97794107486E+03  0.10363351318E+04  0.15294330000E+03 0.  0.
<mgrwt>
<rscale>  0 0.60229757E+03</rscale>
<asrwt>0</asrwt>
<pdfrwt beam="1">  1        2 0.19363411E+00 0.72666382E+03</pdfrwt>
<pdfrwt beam="2">  1       -2 0.85249570E-01 0.72666382E+03</pdfrwt>
<totfact> 0.21396868E+01</totfact>
</mgrwt>
</event>
<event>
 4    1  0.5223852E-007  0.6720033E+03  0.7818608E-02  0.1014266E+00
         -2   -1    0    0    0  501 -0.00000000000E+00  0.00000000000E+00  0.19528413340E+03  0.19528413341E+03  0.25500000000E-02 0.  1.
          2   -1    0    0  501    0  0.00000000000E+00 -0.00000000000E+00 -0.13757953798E+04  0.13757953798E+04  0.25500000000E-02 0. -1.
    8880023    1    1    2    0    0 -0.80556976553E+02  0.10624887526E+03 -0.43991173228E+03  0.80318789111E+03  0.65864270000E+03 0.  1.
    8880022    1    1    2    0    0  0.80556976553E+02 -0.10624887526E+03 -0.74059951409E+03  0.76789162208E+03  0.15294330000E+03 0.  0.
<mgrwt>
<rscale>  0 0.49813957E+03</rscale>
<asrwt>0</asrwt>
<pdfrwt beam="1">  1        2 0.21166082E+00 0.67200332E+03</pdfrwt>
<pdfrwt beam="2">  1       -2 0.30043714E-01 0.67200332E+03</pdfrwt>
<totfact> 0.15594329E+02</totfact>
</mgrwt>
</event>
<event>
 4    1  0.5223852E-007  0.9376508E+03  0.7818608E-02  0.9468109E-01
         -2   -1    0    0    0  501 -0.00000000000E+00  0.00000000000E+00  0.28872072777E+03  0.28872072778E+03  0.25500000000E-02 0.  1.
          2   -1    0    0  501    0  0.00000000000E+00 -0.00000000000E+00 -0.22819450880E+04  0.22819450880E+04  0.25500000000E-02 0. -1.
    8880023    1    1    2    0    0 -0.47031903750E+03  0.47347524133E+03 -0.11978270862E+04  0.15211767602E+04  0.65864270000E+03 0.  0.
    8880022    1    1    2    0    0  0.47031903750E+03 -0.47347524133E+03 -0.79539727410E+03  0.10494890556E+04  0.15294330000E+03 0. -1.
<mgrwt>
<rscale>  0 0.86676401E+03</rscale>
<asrwt>0</asrwt>
<pdfrwt beam="1">  1        2 0.35106846E+00 0.93765079E+03</pdfrwt>
<pdfrwt beam="2">  1       -2 0.44418575E-01 0.93765079E+03</pdfrwt>
<totfact> 0.22650896E+01</totfact>
</mgrwt>
</event>
<event>
 4    1  0.5223852E-007  0.9570284E+03  0.7818608E-02  0.9440073E-01
         -2   -1    0    0    0  501 -0.00000000000E+00  0.00000000000E+00  0.77705089570E+03  0.77705089571E+03  0.25500000000E-02 0.  1.
          2   -1    0    0  501    0  0.00000000000E+00 -0.00000000000E+00 -0.11612777117E+04  0.11612777117E+04  0.25500000000E-02 0. -1.
    8880023    1    1    2    0    0 -0.36292365990E+03 -0.59192869695E+03 -0.67402450940E+03  0.11705607249E+04  0.65864270000E+03 0. -1.
    8880022    1    1    2    0    0  0.36292365990E+03  0.59192869695E+03  0.28979769344E+03  0.76776788245E+03  0.15294330000E+03 0.  0.
<mgrwt>
<rscale>  0 0.88849939E+03</rscale>
<asrwt>0</asrwt>
<pdfrwt beam="1">  1        2 0.17865811E+00 0.95702841E+03</pdfrwt>
<pdfrwt beam="2">  1       -2 0.11954629E+00 0.95702841E+03</pdfrwt>
<totfact> 0.10676611E+01</totfact>
</mgrwt>
</event>
<event>
 4    1  0.5223852E-007  0.6846301E+03  0.7818608E-02  0.1006817E+00
          2   -1    0    0  501    0  0.00000000000E+00  0.00000000000E+00  0.79757522644E+03  0.79757522644E+03  0.25500000000E-02 0. -1.
         -2   -1    0    0    0  501 -0.00000000000E+00 -0.00000000000E+00 -0.36059506302E+03  0.36059506302E+03  0.25500000000E-02 0.  1.
    8880023    1    1    2    0    0  0.17569601111E+03  0.63554252188E+02  0.30407123012E+02  0.68530506396E+03  0.65864270000E+03 0.  1.
    8880022    1    1    2    0    0 -0.17569601111E+03 -0.63554252188E+02  0.40657304041E+03  0.47286522551E+03  0.15294330000E+03 0.  0.
<mgrwt>
<rscale>  0 0.52759476E+03</rscale>
<asrwt>0</asrwt>
<pdfrwt beam="1">  1        2 0.12270388E+00 0.68463015E+03</pdfrwt>
<pdfrwt beam="2">  1       -2 0.55476164E-01 0.68463015E+03</pdfrwt>
<totfact> 0.10736298E+02</totfact>
</mgrwt>
</event>
<event>
 4    1  0.7413347E-007  0.8894263E+03  0.7818608E-02  0.9543223E-01
          2   -1    0    0  501    0  0.00000000000E+00  0.00000000000E+00  0.24937010322E+04  0.24937010322E+04  0.25500000000E-02 0. -1.
         -2   -1    0    0    0  501 -0.00000000000E+00 -0.00000000000E+00 -0.93082592509E+03  0.93082592509E+03  0.25500000000E-02 0.  1.
    8880023    1    1    2    0    0  0.42541966702E+03 -0.41986554722E+03 -0.66644358575E+03  0.11114073196E+04  0.65864270000E+03 0.  0.
    8880022    1    1    2    0    0 -0.42541966702E+03  0.41986554722E+03  0.22293186928E+04  0.23131196376E+04  0.15294330000E+03 0.  0.
<mgrwt>
<rscale>  0 0.81170781E+03</rscale>
<asrwt>0</asrwt>
<pdfrwt beam="1">  1        2 0.38364631E+00 0.88942632E+03</pdfrwt>
<pdfrwt beam="2">  1       -2 0.14320399E+00 0.88942632E+03</pdfrwt>
<totfact> 0.12172777E+00</totfact>
</mgrwt>
</event>
<event>
 4    1  0.5223852E-007  0.9127387E+03  0.7818608E-02  0.9505884E-01
         -2   -1    0    0    0  501 -0.00000000000E+00  0.00000000000E+00  0.56833651882E+03  0.56833651883E+03  0.25500000000E-02 0.  1.
          2   -1    0    0  501    0  0.00000000000E+00 -0.00000000000E+00 -0.17974422355E+04  0.17974422355E+04  0.25500000000E-02 0. -1.
    8880023    1    1    2    0    0  0.51802361148E+03 -0.36184712966E+03  0.67581279189E+02  0.91523726041E+03  0.65864270000E+03 0.  1.
    8880022    1    1    2    0    0 -0.51802361148E+03  0.36184712966E+03 -0.12966869958E+04  0.14505414939E+04  0.15294330000E+03 0.  0.
<mgrwt>
<rscale>  0 0.83851433E+03</rscale>
<asrwt>0</asrwt>
<pdfrwt beam="1">  1        2 0.27652957E+00 0.91273874E+03</pdfrwt>
<pdfrwt beam="2">  1       -2 0.87436388E-01 0.91273874E+03</pdfrwt>
<totfact> 0.98660242E+00</totfact>
</mgrwt>
</event>
<event>
 4    1  0.5223852E-007  0.7506184E+03  0.7818608E-02  0.9830030E-01
          2   -1    0    0  501    0  0.00000000000E+00  0.00000000000E+00  0.29738360210E+03  0.29738360211E+03  0.25500000000E-02 0. -1.
         -2   -1    0    0    0  501 -0.00000000000E+00 -0.00000000000E+00 -0.20819643174E+04  0.20819643174E+04  0.25500000000E-02 0.  1.
    8880023    1    1    2    0    0 -0.24168216052E+03  0.26684742936E+03 -0.18372344766E+04  0.19846557751E+04  0.65864270000E+03 0.  0.
    8880022    1    1    2    0    0  0.24168216052E+03 -0.26684742936E+03  0.52653761313E+02  0.39469214442E+03  0.15294330000E+03 0.  0.
<mgrwt>
<rscale>  0 0.63775549E+03</rscale>
<asrwt>0</asrwt>
<pdfrwt beam="1">  1        2 0.45751325E-01 0.75061843E+03</pdfrwt>
<pdfrwt beam="2">  1       -2 0.32030219E+00 0.75061843E+03</pdfrwt>
<totfact> 0.27612987E+00</totfact>
</mgrwt>
</event>
<event>
 4    1  0.6146375E-007  0.1074059E+04  0.7818608E-02  0.9290503E-01
         -2   -1    0    0    0  501 -0.00000000000E+00  0.00000000000E+00  0.93445422485E+03  0.93445422486E+03  0.25500000000E-02 0.  1.
          2   -1    0    0  501    0  0.00000000000E+00 -0.00000000000E+00 -0.25263549198E+04  0.25263549198E+04  0.25500000000E-02 0. -1.
    8880023    1    1    2    0    0 -0.54294545907E+03  0.65192210968E+03  0.50999705940E+03  0.11889909232E+04  0.65864270000E+03 0.  0.
    8880022    1    1    2    0    0  0.54294545907E+03 -0.65192210968E+03 -0.21018977544E+04  0.22718182215E+04  0.15294330000E+03 0.  0.
<mgrwt>
<rscale>  0 0.10166187E+04</rscale>
<asrwt>0</asrwt>
<pdfrwt beam="1">  1        2 0.38866998E+00 0.10740589E+04</pdfrwt>
<pdfrwt beam="2">  1       -2 0.14376219E+00 0.10740589E+04</pdfrwt>
<totfact> 0.11210230E+00</totfact>
</mgrwt>
</event>
<event>
 4    1  0.5223852E-007  0.8640987E+03  0.7818608E-02  0.9586314E-01
         -2   -1    0    0    0  501 -0.00000000000E+00  0.00000000000E+00  0.75587870595E+03  0.75587870595E+03  0.25500000000E-02 0.  1.
          2   -1    0    0  501    0  0.00000000000E+00 -0.00000000000E+00 -0.81815494418E+03  0.81815494419E+03  0.25500000000E-02 0. -1.
    8880023    1    1    2    0    0 -0.16044565413E+03 -0.53582975114E+03 -0.34312577807E+03  0.92973213130E+03  0.65864270000E+03 0.  0.
    8880022    1    1    2    0    0  0.16044565413E+03  0.53582975114E+03  0.28084953983E+03  0.64430151884E+03  0.15294330000E+03 0.  0.
<mgrwt>
<rscale>  0 0.78208682E+03</rscale>
<asrwt>0</asrwt>
<pdfrwt beam="1">  1        2 0.12586999E+00 0.86409868E+03</pdfrwt>
<pdfrwt beam="2">  1       -2 0.11628903E+00 0.86409868E+03</pdfrwt>
<totfact> 0.19259707E+01</totfact>
</mgrwt>
</event>
<event>
 4    1  0.5223852E-007  0.8395114E+03  0.7818608E-02  0.9631102E-01
          2   -1    0    0  501    0  0.00000000000E+00  0.00000000000E+00  0.20551204682E+04  0.20551204682E+04  0.25500000000E-02 0. -1.
         -2   -1    0    0    0  501 -0.00000000000E+00 -0.00000000000E+00 -0.67346746274E+03  0.67346746274E+03  0.25500000000E-02 0.  1.
    8880023    1    1    2    0    0  0.43679159645E+03 -0.28316473712E+03 -0.35326785832E+03  0.91081148053E+03  0.65864270000E+03 0.  0.
    8880022    1    1    2    0    0 -0.43679159645E+03  0.28316473712E+03  0.17349208638E+04  0.18177764504E+04  0.15294330000E+03 0. -1.
<mgrwt>
<rscale>  0 0.75271392E+03</rscale>
<asrwt>0</asrwt>
<pdfrwt beam="1">  1        2 0.31617238E+00 0.83951139E+03</pdfrwt>
<pdfrwt beam="2">  1       -2 0.10361038E+00 0.83951139E+03</pdfrwt>
<totfact> 0.48329651E+00</totfact>
</mgrwt>
</event>
<event>
 4    1  0.5223852E-007  0.8733106E+03  0.7818608E-02  0.9570311E-01
          2   -1    0    0  501    0  0.00000000000E+00  0.00000000000E+00  0.12841819752E+04  0.12841819752E+04  0.25500000000E-02 0. -1.
         -2   -1    0    0    0  501 -0.00000000000E+00 -0.00000000000E+00 -0.13118194359E+04  0.13118194359E+04  0.25500000000E-02 0.  1.
    8880023    1    1    2    0    0  0.53901864954E+03 -0.19575513772E+03 -0.10793343127E+04  0.13883925754E+04  0.65864270000E+03 0.  1.
    8880022    1    1    2    0    0 -0.53901864954E+03  0.19575513772E+03  0.10516968520E+04  0.12076088357E+04  0.15294330000E+03 0.  0.
<mgrwt>
<rscale>  0 0.79292727E+03</rscale>
<asrwt>0</asrwt>
<pdfrwt beam="1">  1        2 0.19756646E+00 0.87331059E+03</pdfrwt>
<pdfrwt beam="2">  1       -2 0.20181838E+00 0.87331059E+03</pdfrwt>
<totfact> 0.22056371E+00</totfact>
</mgrwt>
</event>
<event>
 4    1  0.5223852E-007  0.1111491E+04  0.7818608E-02  0.9248369E-01
          2   -1    0    0  501    0  0.00000000000E+00  0.00000000000E+00  0.42195345590E+04  0.42195345590E+04  0.25500000000E-02 0. -1.
         -2   -1    0    0    0  501 -0.00000000000E+00 -0.00000000000E+00 -0.26456393436E+03  0.26456393437E+03  0.25500000000E-02 0.  1.
    8880023    1    1    2    0    0  0.89355559527E+03 -0.56214404272E+02  0.28152282574E+04  0.30267015063E+04  0.65864270000E+03 0.  0.
    8880022    1    1    2    0    0 -0.89355559527E+03  0.56214404272E+02  0.11397423673E+04  0.14573969871E+04  0.15294330000E+03 0.  0.
<mgrwt>
<rscale>  0 0.10567828E+04</rscale>
<asrwt>0</asrwt>
<pdfrwt beam="1">  1        2 0.64915909E+00 0.11114908E+04</pdfrwt>
<pdfrwt beam="2">  1       -2 0.40702148E-01 0.11114908E+04</pdfrwt>
<totfact> 0.13333516E+00</totfact>
</mgrwt>
</event>
<event>
 4    1  0.5223852E-007  0.7644016E+03  0.7818608E-02  0.9793843E-01
          2   -1    0    0  501    0  0.00000000000E+00  0.00000000000E+00  0.52171070433E+03  0.52171070433E+03  0.25500000000E-02 0. -1.
         -2   -1    0    0    0  501 -0.00000000000E+00 -0.00000000000E+00 -0.11968189739E+04  0.11968189739E+04  0.25500000000E-02 0.  1.
    8880023    1    1    2    0    0 -0.20836094449E+03  0.32723903967E+03 -0.94979316185E+03  0.12191869950E+04  0.65864270000E+03 0.  0.
    8880022    1    1    2    0    0  0.20836094449E+03 -0.32723903967E+03  0.27468489224E+03  0.49934268325E+03  0.15294330000E+03 0.  0.
<mgrwt>
<rscale>  0 0.65694037E+03</rscale>
<asrwt>0</asrwt>
<pdfrwt beam="1">  1        2 0.80263185E-01 0.76440165E+03</pdfrwt>
<pdfrwt beam="2">  1       -2 0.18412600E+00 0.76440165E+03</pdfrwt>
<totfact> 0.10109707E+01</totfact>
</mgrwt>
</event>
<event>
 4    1  0.5223852E-007  0.7111227E+03  0.7818608E-02  0.9953855E-01
         -2   -1    0    0    0  501 -0.00000000000E+00  0.00000000000E+00  0.25055775400E+03  0.25055775401E+03  0.25500000000E-02 0.  1.
          2   -1    0    0  501    0  0.00000000000E+00 -0.00000000000E+00 -0.11605530150E+04  0.11605530150E+04  0.25500000000E-02 0. -1.
    8880023    1    1    2    0    0  0.25472880233E+02  0.26690145640E+03 -0.40253581721E+03  0.81714781126E+03  0.65864270000E+03 0.  1.
    8880022    1    1    2    0    0 -0.25472880233E+02 -0.26690145640E+03 -0.50745944379E+03  0.59396295774E+03  0.15294330000E+03 0.  0.
<mgrwt>
<rscale>  0 0.57720735E+03</rscale>
<asrwt>0</asrwt>
<pdfrwt beam="1">  1        2 0.17854661E+00 0.71112268E+03</pdfrwt>
<pdfrwt beam="2">  1       -2 0.38547348E-01 0.71112268E+03</pdfrwt>
<totfact> 0.12928047E+02</totfact>
</mgrwt>
</event>
<event>
 4    1  0.5223852E-007  0.6597035E+03  0.7818608E-02  0.1024462E+00
         -2   -1    0    0    0  501 -0.00000000000E+00  0.00000000000E+00  0.35036355425E+03  0.35036355426E+03  0.25500000000E-02 0.  1.
          2   -1    0    0  501    0  0.00000000000E+00 -0.00000000000E+00 -0.70305929885E+03  0.70305929886E+03  0.25500000000E-02 0. -1.
    8880023    1    1    2    0    0 -0.45134357017E+01  0.37123986777E+02  0.81163500671E+01  0.65975347130E+03  0.65864270000E+03 0.  1.
    8880022    1    1    2    0    0  0.45134357017E+01 -0.37123986777E+02 -0.36081209467E+03  0.39366938181E+03  0.15294330000E+03 0.  0.
<mgrwt>
<rscale>  0 0.46110162E+03</rscale>
<asrwt>0</asrwt>
<pdfrwt beam="1">  1        2 0.10816297E+00 0.65970355E+03</pdfrwt>
<pdfrwt beam="2">  1       -2 0.53902085E-01 0.65970355E+03</pdfrwt>
<totfact> 0.13428283E+02</totfact>
</mgrwt>
</event>
<event>
 4    1  0.5223852E-007  0.6948477E+03  0.7818608E-02  0.1001929E+00
          2   -1    0    0  501    0  0.00000000000E+00  0.00000000000E+00  0.98684458055E+03  0.98684458055E+03  0.25500000000E-02 0. -1.
         -2   -1    0    0    0  501 -0.00000000000E+00 -0.00000000000E+00 -0.10532517519E+04  0.10532517519E+04  0.25500000000E-02 0.  1.
    8880023    1    1    2    0    0  0.14337018086E+03 -0.16866552850E+03 -0.91553717828E+03  0.11493570378E+04  0.65864270000E+03 0.  1.
    8880022    1    1    2    0    0 -0.14337018086E+03  0.16866552850E+03  0.84913000696E+03  0.89073929463E+03  0.15294330000E+03 0.  0.
<mgrwt>
<rscale>  0 0.54812620E+03</rscale>
<asrwt>0</asrwt>
<pdfrwt beam="1">  1        2 0.15182224E+00 0.69484766E+03</pdfrwt>
<pdfrwt beam="2">  1       -2 0.16203873E+00 0.69484766E+03</pdfrwt>
<totfact> 0.64182642E+00</totfact>
</mgrwt>
</event>
<event>
 4    1  0.5223852E-007  0.7950778E+03  0.7818608E-02  0.9721542E-01
         -2   -1    0    0    0  501 -0.00000000000E+00  0.00000000000E+00  0.52943503879E+03  0.52943503879E+03  0.25500000000E-02 0.  1.
          2   -1    0    0  501    0  0.00000000000E+00 -0.00000000000E+00 -0.15272030487E+04  0.15272030487E+04  0.25500000000E-02 0. -1.
    8880023    1    1    2    0    0  0.59577615475E+02 -0.44134911252E+03  0.15621654265E+03  0.81027917772E+03  0.65864270000E+03 0.  1.
    8880022    1    1    2    0    0 -0.59577615475E+02  0.44134911252E+03 -0.11539845526E+04  0.12463589098E+04  0.15294330000E+03 0.  0.
<mgrwt>
<rscale>  0 0.69748574E+03</rscale>
<asrwt>0</asrwt>
<pdfrwt beam="1">  1        2 0.23495431E+00 0.79507782E+03</pdfrwt>
<pdfrwt beam="2">  1       -2 0.81451545E-01 0.79507782E+03</pdfrwt>
<totfact> 0.16573429E+01</totfact>
</mgrwt>
</event>
<event>
 4    1  0.5223852E-007  0.9745467E+03  0.7818608E-02  0.9415643E-01
         -2   -1    0    0    0  501 -0.00000000000E+00  0.00000000000E+00  0.60163313227E+03  0.60163313228E+03  0.25500000000E-02 0.  1.
          2   -1    0    0  501    0  0.00000000000E+00 -0.00000000000E+00 -0.14875209789E+04  0.14875209789E+04  0.25500000000E-02 0. -1.
    8880023    1    1    2    0    0  0.38937824155E+03 -0.60358559830E+03 -0.49062083807E+02  0.97578085849E+03  0.65864270000E+03 0.  0.
    8880022    1    1    2    0    0 -0.38937824155E+03  0.60358559830E+03 -0.83682576280E+03  0.11133732527E+04  0.15294330000E+03 0.  0.
<mgrwt>
<rscale>  0 0.90799417E+03</rscale>
<asrwt>0</asrwt>
<pdfrwt beam="1">  1        2 0.22884938E+00 0.97454666E+03</pdfrwt>
<pdfrwt beam="2">  1       -2 0.92558944E-01 0.97454666E+03</pdfrwt>
<totfact> 0.12757858E+01</totfact>
</mgrwt>
</event>
<event>
 4    1  0.5223852E-007  0.1228609E+04  0.7818608E-02  0.9129802E-01
         -2   -1    0    0    0  501 -0.00000000000E+00  0.00000000000E+00  0.15597829503E+04  0.15597829503E+04  0.25500000000E-02 0.  1.
          2   -1    0    0  501    0  0.00000000000E+00 -0.00000000000E+00 -0.11481798328E+04  0.11481798328E+04  0.25500000000E-02 0. -1.
    8880023    1    1    2    0    0 -0.69565540860E+03 -0.76924223435E+03  0.92763921350E+03  0.15394787362E+04  0.65864270000E+03 0.  0.
    8880022    1    1    2    0    0  0.69565540860E+03  0.76924223435E+03 -0.51603609598E+03  0.11684840470E+04  0.15294330000E+03 0.  0.
<mgrwt>
<rscale>  0 0.11808318E+04</rscale>
<asrwt>0</asrwt>
<pdfrwt beam="1">  1        2 0.17664305E+00 0.12286091E+04</pdfrwt>
<pdfrwt beam="2">  1       -2 0.23996661E+00 0.12286091E+04</pdfrwt>
<totfact> 0.14624420E+00</totfact>
</mgrwt>
</event>
<event>
 4    1  0.5223852E-007  0.1182384E+04  0.7818608E-02  0.9174439E-01
          2   -1    0    0  501    0  0.00000000000E+00  0.00000000000E+00  0.99076608432E+03  0.99076608433E+03  0.25500000000E-02 0. -1.
         -2   -1    0    0    0  501 -0.00000000000E+00 -0.00000000000E+00 -0.14346860193E+04  0.14346860193E+04  0.25500000000E-02 0.  1.
    8880023    1    1    2    0    0 -0.79403527956E+03 -0.57769324908E+03 -0.73215042544E+03  0.13907105978E+04  0.65864270000E+03 0.  1.
    8880022    1    1    2    0    0  0.79403527956E+03  0.57769324908E+03  0.28823049043E+03  0.10347415058E+04  0.15294330000E+03 0.  0.
<mgrwt>
<rscale>  0 0.11321194E+04</rscale>
<asrwt>0</asrwt>
<pdfrwt beam="1">  1        2 0.15242555E+00 0.11823839E+04</pdfrwt>
<pdfrwt beam="2">  1       -2 0.22072093E+00 0.11823839E+04</pdfrwt>
<totfact> 0.24342028E+00</totfact>
</mgrwt>
</event>
<event>
 4    1  0.5223852E-007  0.1056845E+04  0.7818608E-02  0.9310698E-01
          2   -1    0    0  501    0  0.00000000000E+00  0.00000000000E+00  0.47822135766E+04  0.47822135766E+04  0.25500000000E-02 0. -1.
         -2   -1    0    0    0  501 -0.00000000000E+00 -0.00000000000E+00 -0.69158357382E+03  0.69158357382E+03  0.25500000000E-02 0.  1.
    8880023    1    1    2    0    0  0.81661774298E+03  0.12746210142E+03 -0.22209251093E+03  0.10799288936E+04  0.65864270000E+03 0.  0.
    8880022    1    1    2    0    0 -0.81661774298E+03 -0.12746210142E+03  0.43127225137E+04  0.43938682569E+04  0.15294330000E+03 0.  0.
<mgrwt>
<rscale>  0 0.99803944E+03</rscale>
<asrwt>0</asrwt>
<pdfrwt beam="1">  1        2 0.73572515E+00 0.10568450E+04</pdfrwt>
<pdfrwt beam="2">  1       -2 0.10639748E+00 0.10568450E+04</pdfrwt>
<totfact> 0.47606476E-02</totfact>
</mgrwt>
</event>
<event>
 4    1  0.5223852E-007  0.7792220E+03  0.7818608E-02  0.9757668E-01
         -2   -1    0    0    0  501 -0.00000000000E+00  0.00000000000E+00  0.88290912514E+03  0.88290912515E+03  0.25500000000E-02 0.  1.
          2   -1    0    0  501    0  0.00000000000E+00 -0.00000000000E+00 -0.57564114861E+03  0.57564114862E+03  0.25500000000E-02 0. -1.
    8880023    1    1    2    0    0  0.25946382221E+03 -0.32566126249E+03  0.54916641916E+03  0.95329465283E+03  0.65864270000E+03 0.  1.
    8880022    1    1    2    0    0 -0.25946382221E+03  0.32566126249E+03 -0.24189844263E+03  0.50525562093E+03  0.15294330000E+03 0.  0.
<mgrwt>
<rscale>  0 0.67684671E+03</rscale>
<asrwt>0</asrwt>
<pdfrwt beam="1">  1        2 0.88560177E-01 0.77922201E+03</pdfrwt>
<pdfrwt beam="2">  1       -2 0.13583217E+00 0.77922201E+03</pdfrwt>
<totfact> 0.20466700E+01</totfact>
</mgrwt>
</event>
<event>
 4    1  0.5223852E-007  0.6591832E+03  0.7818608E-02  0.1025009E+00
          2   -1    0    0  501    0  0.00000000000E+00  0.00000000000E+00  0.15898640174E+04  0.15898640174E+04  0.25500000000E-02 0. -1.
         -2   -1    0    0    0  501 -0.00000000000E+00 -0.00000000000E+00 -0.32050196418E+03  0.32050196419E+03  0.25500000000E-02 0.  1.
    8880023    1    1    2    0    0  0.26507515679E+02 -0.30998779798E+01  0.28468302857E+02  0.65979762667E+03  0.65864270000E+03 0.  1.
    8880022    1    1    2    0    0 -0.26507515679E+02  0.30998779798E+01  0.12408937504E+04  0.12505683550E+04  0.15294330000E+03 0.  0.
<mgrwt>
<rscale>  0 0.45921443E+03</rscale>
<asrwt>0</asrwt>
<pdfrwt beam="1">  1        2 0.24459447E+00 0.65918318E+03</pdfrwt>
<pdfrwt beam="2">  1       -2 0.49307994E-01 0.65918318E+03</pdfrwt>
<totfact> 0.45504361E+01</totfact>
</mgrwt>
</event>
<event>
 4    1  0.5223852E-007  0.1382444E+04  0.7818608E-02  0.8997446E-01
          2   -1    0    0  501    0  0.00000000000E+00  0.00000000000E+00  0.14096774974E+04  0.14096774974E+04  0.25500000000E-02 0. -1.
         -2   -1    0    0    0  501 -0.00000000000E+00 -0.00000000000E+00 -0.22625412355E+04  0.22625412355E+04  0.25500000000E-02 0.  1.
    8880023    1    1    2    0    0  0.36545065329E+03  0.11592184885E+04  0.81347697320E+03  0.16040251483E+04  0.65864270000E+03 0. -1.
    8880022    1    1    2    0    0 -0.36545065329E+03 -0.11592184885E+04 -0.16663407113E+04  0.20681935846E+04  0.15294330000E+03 0.  0.
<mgrwt>
<rscale>  0 0.13412930E+04</rscale>
<asrwt>0</asrwt>
<pdfrwt beam="1">  1        2 0.21687346E+00 0.13824442E+04</pdfrwt>
<pdfrwt beam="2">  1       -2 0.34808327E+00 0.13824442E+04</pdfrwt>
<totfact> 0.21860491E-01</totfact>
</mgrwt>
</event>
<event>
 4    1  0.5223852E-007  0.7957501E+03  0.7818608E-02  0.9720062E-01
          2   -1    0    0  501    0  0.00000000000E+00  0.00000000000E+00  0.18911761292E+04  0.18911761292E+04  0.25500000000E-02 0. -1.
         -2   -1    0    0    0  501 -0.00000000000E+00 -0.00000000000E+00 -0.22775799056E+03  0.22775799057E+03  0.25500000000E-02 0.  1.
    8880023    1    1    2    0    0  0.42787957729E+03  0.12777767267E+03  0.76377479678E+03  0.11029824172E+04  0.65864270000E+03 0.  1.
    8880022    1    1    2    0    0 -0.42787957729E+03 -0.12777767267E+03  0.89964334186E+03  0.10159517025E+04  0.15294330000E+03 0.  0.
<mgrwt>
<rscale>  0 0.69834796E+03</rscale>
<asrwt>0</asrwt>
<pdfrwt beam="1">  1        2 0.29095017E+00 0.79575013E+03</pdfrwt>
<pdfrwt beam="2">  1       -2 0.35039691E-01 0.79575013E+03</pdfrwt>
<totfact> 0.59980395E+01</totfact>
</mgrwt>
</event>
<event>
 4    1  0.5223852E-007  0.6852135E+03  0.7818608E-02  0.1006516E+00
         -2   -1    0    0    0  501 -0.00000000000E+00  0.00000000000E+00  0.18569084830E+03  0.18569084831E+03  0.25500000000E-02 0.  1.
          2   -1    0    0  501    0  0.00000000000E+00 -0.00000000000E+00 -0.21680972850E+04  0.21680972850E+04  0.25500000000E-02 0. -1.
    8880023    1    1    2    0    0  0.16419095679E+03  0.93534173705E+02 -0.49167197231E+03  0.84336163451E+03  0.65864270000E+03 0.  1.
    8880022    1    1    2    0    0 -0.16419095679E+03 -0.93534173705E+02 -0.14907344644E+04  0.15104264988E+04  0.15294330000E+03 0.  0.
<mgrwt>
<rscale>  0 0.52883101E+03</rscale>
<asrwt>0</asrwt>
<pdfrwt beam="1">  1        2 0.33355341E+00 0.68521348E+03</pdfrwt>
<pdfrwt beam="2">  1       -2 0.28567824E-01 0.68521348E+03</pdfrwt>
<totfact> 0.62860608E+01</totfact>
</mgrwt>
</event>
<event>
 4    1  0.5223852E-007  0.8816131E+03  0.7818608E-02  0.9556217E-01
         -2   -1    0    0    0  501 -0.00000000000E+00  0.00000000000E+00  0.44059323710E+03  0.44059323711E+03  0.25500000000E-02 0.  1.
          2   -1    0    0  501    0  0.00000000000E+00 -0.00000000000E+00 -0.17345967799E+04  0.17345967799E+04  0.25500000000E-02 0. -1.
    8880023    1    1    2    0    0 -0.50917278422E+03 -0.29012846608E+03 -0.16921838012E+03  0.89770625343E+03  0.65864270000E+03 0.  0.
    8880022    1    1    2    0    0  0.50917278422E+03  0.29012846608E+03 -0.11247851627E+04  0.12774837636E+04  0.15294330000E+03 0.  0.
<mgrwt>
<rscale>  0 0.80263041E+03</rscale>
<asrwt>0</asrwt>
<pdfrwt beam="1">  1        2 0.26686104E+00 0.88161310E+03</pdfrwt>
<pdfrwt beam="2">  1       -2 0.67783576E-01 0.88161310E+03</pdfrwt>
<totfact> 0.18937710E+01</totfact>
</mgrwt>
</event>
<event>
 4    1  0.5223852E-007  0.1344168E+04  0.7818608E-02  0.9028327E-01
          2   -1    0    0  501    0  0.00000000000E+00  0.00000000000E+00  0.42726022043E+04  0.42726022043E+04  0.25500000000E-02 0. -1.
         -2   -1    0    0    0  501 -0.00000000000E+00 -0.00000000000E+00 -0.76416169273E+03  0.76416169273E+03  0.25500000000E-02 0.  1.
    8880023    1    1    2    0    0  0.11293553382E+04 -0.31230280597E+03  0.10066555828E+02  0.13442053654E+04  0.65864270000E+03 0.  0.
    8880022    1    1    2    0    0 -0.11293553382E+04  0.31230280597E+03  0.34983739558E+04  0.36925585317E+04  0.15294330000E+03 0.  0.
<mgrwt>
<rscale>  0 0.13015626E+04</rscale>
<asrwt>0</asrwt>
<pdfrwt beam="1">  1        2 0.65732342E+00 0.13441677E+04</pdfrwt>
<pdfrwt beam="2">  1       -2 0.11756334E+00 0.13441677E+04</pdfrwt>
<totfact> 0.11156796E-01</totfact>
</mgrwt>
</event>
<event>
 4    1  0.5223852E-007  0.1137283E+04  0.7818608E-02  0.9220639E-01
         -2   -1    0    0    0  501 -0.00000000000E+00  0.00000000000E+00  0.13959026786E+04  0.13959026786E+04  0.25500000000E-02 0.  1.
          2   -1    0    0  501    0  0.00000000000E+00 -0.00000000000E+00 -0.98421759031E+03  0.98421759031E+03  0.25500000000E-02 0. -1.
    8880023    1    1    2    0    0  0.58692657387E+03  0.71771851546E+03  0.77110426174E+03  0.13740504573E+04  0.65864270000E+03 0.  1.
    8880022    1    1    2    0    0 -0.58692657387E+03 -0.71771851546E+03 -0.35941917343E+03  0.10060698116E+04  0.15294330000E+03 0.  0.
<mgrwt>
<rscale>  0 0.10842918E+04</rscale>
<asrwt>0</asrwt>
<pdfrwt beam="1">  1        2 0.15141809E+00 0.11372831E+04</pdfrwt>
<pdfrwt beam="2">  1       -2 0.21475426E+00 0.11372831E+04</pdfrwt>
<totfact> 0.26941732E+00</totfact>
</mgrwt>
</event>
<event>
 4    1  0.7495136E-007  0.1164582E+04  0.7818608E-02  0.9192345E-01
          2   -1    0    0  501    0  0.00000000000E+00  0.00000000000E+00  0.13703966355E+04  0.13703966355E+04  0.25500000000E-02 0. -1.
         -2   -1    0    0    0  501 -0.00000000000E+00 -0.00000000000E+00 -0.19347853587E+04  0.19347853587E+04  0.25500000000E-02 0.  1.
    8880023    1    1    2    0    0 -0.26266272867E+03  0.92382273002E+03 -0.15379179222E+04  0.19291039078E+04  0.65864270000E+03 0.  1.
    8880022    1    1    2    0    0  0.26266272867E+03 -0.92382273002E+03  0.97352919902E+03  0.13760780864E+04  0.15294330000E+03 0.  0.
<mgrwt>
<rscale>  0 0.11132794E+04</rscale>
<asrwt>0</asrwt>
<pdfrwt beam="1">  1        2 0.21083025E+00 0.11645816E+04</pdfrwt>
<pdfrwt beam="2">  1       -2 0.29765929E+00 0.11645816E+04</pdfrwt>
<totfact> 0.48459719E-01</totfact>
</mgrwt>
</event>
<event>
 4    1  0.5223852E-007  0.1824324E+04  0.7818608E-02  0.8709199E-01
         -2   -1    0    0    0  501 -0.00000000000E+00  0.00000000000E+00  0.14540072016E+04  0.14540072016E+04  0.25500000000E-02 0.  1.
          2   -1    0    0  501    0  0.00000000000E+00 -0.00000000000E+00 -0.29938421383E+04  0.29938421383E+04  0.25500000000E-02 0. -1.
    8880023    1    1    2    0    0 -0.41279088583E+03  0.16504398661E+04  0.39531014369E+03  0.18666623645E+04  0.65864270000E+03 0.  0.
    8880022    1    1    2    0    0  0.41279088583E+03 -0.16504398661E+04 -0.19351450804E+04  0.25811869754E+04  0.15294330000E+03 0.  0.
<mgrwt>
<rscale>  0 0.17945572E+04</rscale>
<asrwt>0</asrwt>
<pdfrwt beam="1">  1        2 0.46059110E+00 0.18243241E+04</pdfrwt>
<pdfrwt beam="2">  1       -2 0.22369342E+00 0.18243241E+04</pdfrwt>
<totfact> 0.14914687E-01</totfact>
</mgrwt>
</event>
<event>
 4    1  0.5223852E-007  0.6752416E+03  0.7818608E-02  0.1012154E+00
         -2   -1    0    0    0  501 -0.00000000000E+00  0.00000000000E+00  0.16161250266E+03  0.16161250268E+03  0.25500000000E-02 0.  1.
          2   -1    0    0  501    0  0.00000000000E+00 -0.00000000000E+00 -0.18597312387E+04  0.18597312387E+04  0.25500000000E-02 0. -1.
    8880023    1    1    2    0    0  0.14844159047E+03 -0.10302442675E+02 -0.60194217702E+03  0.90459141984E+03  0.65864270000E+03 0.  1.
    8880022    1    1    2    0    0 -0.14844159047E+03  0.10302442675E+02 -0.10961765590E+04  0.11167523216E+04  0.15294330000E+03 0.  0.
<mgrwt>
<rscale>  0 0.50627307E+03</rscale>
<asrwt>0</asrwt>
<pdfrwt beam="1">  1        2 0.28611248E+00 0.67524163E+03</pdfrwt>
<pdfrwt beam="2">  1       -2 0.24863463E-01 0.67524163E+03</pdfrwt>
<totfact> 0.11929027E+02</totfact>
</mgrwt>
</event>
<event>
 4    1  0.5223852E-007  0.6762913E+03  0.7818608E-02  0.1011504E+00
          2   -1    0    0  501    0  0.00000000000E+00  0.00000000000E+00  0.63054989974E+03  0.63054989975E+03  0.25500000000E-02 0. -1.
         -2   -1    0    0    0  501 -0.00000000000E+00 -0.00000000000E+00 -0.41802959966E+03  0.41802959967E+03  0.25500000000E-02 0.  1.
    8880023    1    1    2    0    0  0.72946091666E+02 -0.13505033450E+03 -0.83825080105E+02  0.68146648887E+03  0.65864270000E+03 0.  0.
    8880022    1    1    2    0    0 -0.72946091666E+02  0.13505033450E+03  0.29634538019E+03  0.36711301054E+03  0.15294330000E+03 0.  0.
<mgrwt>
<rscale>  0 0.50881089E+03</rscale>
<asrwt>0</asrwt>
<pdfrwt beam="1">  1        2 0.97007676E-01 0.67629131E+03</pdfrwt>
<pdfrwt beam="2">  1       -2 0.64312246E-01 0.67629131E+03</pdfrwt>
<totfact> 0.10593388E+02</totfact>
</mgrwt>
</event>
<event>
 4    1  0.5223852E-007  0.1150958E+04  0.7818608E-02  0.9206334E-01
          2   -1    0    0  501    0  0.00000000000E+00  0.00000000000E+00  0.29143731239E+04  0.29143731239E+04  0.25500000000E-02 0. -1.
         -2   -1    0    0    0  501 -0.00000000000E+00 -0.00000000000E+00 -0.44860367180E+03  0.44860367181E+03  0.25500000000E-02 0.  1.
    8880023    1    1    2    0    0  0.48397912872E+03  0.81034502307E+03  0.67866071300E+03  0.13361457342E+04  0.65864270000E+03 0.  0.
    8880022    1    1    2    0    0 -0.48397912872E+03 -0.81034502307E+03  0.17871087391E+04  0.20268310615E+04  0.15294330000E+03 0.  0.
<mgrwt>
<rscale>  0 0.10988287E+04</rscale>
<asrwt>0</asrwt>
<pdfrwt beam="1">  1        2 0.44836509E+00 0.11509583E+04</pdfrwt>
<pdfrwt beam="2">  1       -2 0.69015951E-01 0.11509583E+04</pdfrwt>
<totfact> 0.37730420E+00</totfact>
</mgrwt>
</event>
<event>
 4    1  0.5223852E-007  0.8610813E+03  0.7818608E-02  0.9591643E-01
         -2   -1    0    0    0  501 -0.00000000000E+00  0.00000000000E+00  0.18872628441E+03  0.18872628443E+03  0.25500000000E-02 0.  1.
          2   -1    0    0  501    0  0.00000000000E+00 -0.00000000000E+00 -0.39950916055E+04  0.39950916055E+04  0.25500000000E-02 0. -1.
    8880023    1    1    2    0    0 -0.53055086547E+03 -0.16176081498E+03 -0.10025528550E+04  0.13215798180E+04  0.65864270000E+03 0.  1.
    8880022    1    1    2    0    0  0.53055086547E+03  0.16176081498E+03 -0.28038124661E+04  0.28622380719E+04  0.15294330000E+03 0.  0.
<mgrwt>
<rscale>  0 0.77851785E+03</rscale>
<asrwt>0</asrwt>
<pdfrwt beam="1">  1        2 0.61462941E+00 0.86108129E+03</pdfrwt>
<pdfrwt beam="2">  1       -2 0.29034816E-01 0.86108129E+03</pdfrwt>
<totfact> 0.40626541E+00</totfact>
</mgrwt>
</event>
<event>
 4    1  0.5223852E-007  0.7160526E+03  0.7818608E-02  0.9936176E-01
         -2   -1    0    0    0  501 -0.00000000000E+00  0.00000000000E+00  0.10648492844E+04  0.10648492844E+04  0.25500000000E-02 0.  1.
          2   -1    0    0  501    0  0.00000000000E+00 -0.00000000000E+00 -0.61994895347E+03  0.61994895348E+03  0.25500000000E-02 0. -1.
    8880023    1    1    2    0    0  0.20462755540E+03  0.19248021341E+03  0.88647333887E+03  0.11395465132E+04  0.65864270000E+03 0.  0.
    8880022    1    1    2    0    0 -0.20462755540E+03 -0.19248021341E+03 -0.44157300790E+03  0.54525172471E+03  0.15294330000E+03 0.  0.
<mgrwt>
<rscale>  0 0.58539618E+03</rscale>
<asrwt>0</asrwt>
<pdfrwt beam="1">  1        2 0.95376762E-01 0.71605256E+03</pdfrwt>
<pdfrwt beam="2">  1       -2 0.16382297E+00 0.71605256E+03</pdfrwt>
<totfact> 0.11472448E+01</totfact>
</mgrwt>
</event>
<event>
 4    1  0.5223852E-007  0.7923347E+03  0.7818608E-02  0.9727622E-01
          2   -1    0    0  501    0  0.00000000000E+00  0.00000000000E+00  0.21524274635E+04  0.21524274635E+04  0.25500000000E-02 0. -1.
         -2   -1    0    0    0  501 -0.00000000000E+00 -0.00000000000E+00 -0.51646715583E+03  0.51646715583E+03  0.25500000000E-02 0.  1.
    8880023    1    1    2    0    0  0.21687703030E+03  0.38333846327E+03 -0.16434311729E+03  0.80919891878E+03  0.65864270000E+03 0.  1.
    8880022    1    1    2    0    0 -0.21687703030E+03 -0.38333846327E+03  0.18003034249E+04  0.18596957005E+04  0.15294330000E+03 0.  0.
<mgrwt>
<rscale>  0 0.69395748E+03</rscale>
<asrwt>0</asrwt>
<pdfrwt beam="1">  1        2 0.33114268E+00 0.79233467E+03</pdfrwt>
<pdfrwt beam="2">  1       -2 0.79456487E-01 0.79233467E+03</pdfrwt>
<totfact> 0.79603244E+00</totfact>
</mgrwt>
</event>
<event>
 4    1  0.5223852E-007  0.7716856E+03  0.7818608E-02  0.9775743E-01
         -2   -1    0    0    0  501 -0.00000000000E+00  0.00000000000E+00  0.68344298217E+03  0.68344298218E+03  0.25500000000E-02 0.  1.
          2   -1    0    0  501    0  0.00000000000E+00 -0.00000000000E+00 -0.58660855509E+03  0.58660855509E+03  0.25500000000E-02 0. -1.
    8880023    1    1    2    0    0  0.92461238757E+02  0.39133036094E+03  0.25341953271E+03  0.81223161591E+03  0.65864270000E+03 0.  0.
    8880022    1    1    2    0    0 -0.92461238757E+02 -0.39133036094E+03 -0.15658510563E+03  0.45781992135E+03  0.15294330000E+03 0.  0.
<mgrwt>
<rscale>  0 0.66680724E+03</rscale>
<asrwt>0</asrwt>
<pdfrwt beam="1">  1        2 0.90247470E-01 0.77168565E+03</pdfrwt>
<pdfrwt beam="2">  1       -2 0.10514507E+00 0.77168565E+03</pdfrwt>
<totfact> 0.37746144E+01</totfact>
</mgrwt>
</event>
<event>
 4    1  0.5223852E-007  0.8773529E+03  0.7818608E-02  0.9563412E-01
         -2   -1    0    0    0  501 -0.00000000000E+00  0.00000000000E+00  0.14513915626E+04  0.14513915626E+04  0.25500000000E-02 0.  1.
          2   -1    0    0  501    0  0.00000000000E+00 -0.00000000000E+00 -0.69991218493E+03  0.69991218494E+03  0.25500000000E-02 0. -1.
    8880023    1    1    2    0    0  0.26462660817E+03  0.51566525778E+03 -0.31145281311E+03  0.93099460841E+03  0.65864270000E+03 0. -1.
    8880022    1    1    2    0    0 -0.26462660817E+03 -0.51566525778E+03  0.10629321907E+04  0.12203091391E+04  0.15294330000E+03 0.  0.
<mgrwt>
<rscale>  0 0.79765915E+03</rscale>
<asrwt>0</asrwt>
<pdfrwt beam="1">  1        2 0.10767880E+00 0.87735290E+03</pdfrwt>
<pdfrwt beam="2">  1       -2 0.22329101E+00 0.87735290E+03</pdfrwt>
<totfact> 0.38941608E+00</totfact>
</mgrwt>
</event>
<event>
 4    1  0.5223852E-007  0.9544797E+03  0.7818608E-02  0.9443698E-01
          2   -1    0    0  501    0  0.00000000000E+00  0.00000000000E+00  0.20513075026E+04  0.20513075026E+04  0.25500000000E-02 0. -1.
         -2   -1    0    0    0  501 -0.00000000000E+00 -0.00000000000E+00 -0.69916852154E+03  0.69916852154E+03  0.25500000000E-02 0.  1.
    8880023    1    1    2    0    0 -0.68315380439E+03 -0.10257767424E+03 -0.26055008729E+03  0.98940277641E+03  0.65864270000E+03 0.  1.
    8880022    1    1    2    0    0  0.68315380439E+03  0.10257767424E+03  0.16126890684E+04  0.17610732478E+04  0.15294330000E+03 0.  0.
<mgrwt>
<rscale>  0 0.88565134E+03</rscale>
<asrwt>0</asrwt>
<pdfrwt beam="1">  1        2 0.31558577E+00 0.95447970E+03</pdfrwt>
<pdfrwt beam="2">  1       -2 0.10756439E+00 0.95447970E+03</pdfrwt>
<totfact> 0.43669136E+00</totfact>
</mgrwt>
</event>
<event>
 4    1  0.5223852E-007  0.1395159E+04  0.7818608E-02  0.8987453E-01
         -2   -1    0    0    0  501 -0.00000000000E+00  0.00000000000E+00  0.12220588825E+04  0.12220588825E+04  0.25500000000E-02 0.  1.
          2   -1    0    0  501    0  0.00000000000E+00 -0.00000000000E+00 -0.20449722475E+04  0.20449722475E+04  0.25500000000E-02 0. -1.
    8880023    1    1    2    0    0  0.43939447421E+03  0.11487347728E+04  0.47367661383E+03  0.14733766738E+04  0.65864270000E+03 0.  1.
    8880022    1    1    2    0    0 -0.43939447421E+03 -0.11487347728E+04 -0.12965899788E+04  0.17936544562E+04  0.15294330000E+03 0.  0.
<mgrwt>
<rscale>  0 0.13544673E+04</rscale>
<asrwt>0</asrwt>
<pdfrwt beam="1">  1        2 0.31461111E+00 0.13951592E+04</pdfrwt>
<pdfrwt beam="2">  1       -2 0.18800906E+00 0.13951592E+04</pdfrwt>
<totfact> 0.95813821E-01</totfact>
</mgrwt>
</event>
<event>
 4    1  0.5223852E-007  0.7086540E+03  0.7818608E-02  0.9963034E-01
          2   -1    0    0  501    0  0.00000000000E+00  0.00000000000E+00  0.16923779627E+04  0.16923779627E+04  0.25500000000E-02 0. -1.
         -2   -1    0    0    0  501 -0.00000000000E+00 -0.00000000000E+00 -0.71379257693E+03  0.71379257693E+03  0.25500000000E-02 0.  1.
    8880023    1    1    2    0    0 -0.23123858964E+03 -0.12210234212E+03 -0.51891874498E+03  0.87833202005E+03  0.65864270000E+03 0.  1.
    8880022    1    1    2    0    0  0.23123858964E+03  0.12210234212E+03  0.14975041308E+04  0.15278385196E+04  0.15294330000E+03 0.  0.
<mgrwt>
<rscale>  0 0.57301291E+03</rscale>
<asrwt>0</asrwt>
<pdfrwt beam="1">  1        2 0.26036584E+00 0.70865399E+03</pdfrwt>
<pdfrwt beam="2">  1       -2 0.10981424E+00 0.70865399E+03</pdfrwt>
<totfact> 0.67647253E+00</totfact>
</mgrwt>
</event>
<event>
 4    1  0.5223852E-007  0.7787057E+03  0.7818608E-02  0.9758886E-01
         -2   -1    0    0    0  501 -0.00000000000E+00  0.00000000000E+00  0.30461598431E+03  0.30461598432E+03  0.25500000000E-02 0.  1.
          2   -1    0    0  501    0  0.00000000000E+00 -0.00000000000E+00 -0.22779363819E+04  0.22779363819E+04  0.25500000000E-02 0. -1.
    8880023    1    1    2    0    0 -0.41519186972E+03 -0.13711191661E+02 -0.27240758842E+03  0.82497780937E+03  0.65864270000E+03 0.  0.
    8880022    1    1    2    0    0  0.41519186972E+03  0.13711191661E+02 -0.17009128092E+04  0.17575745569E+04  0.15294330000E+03 0.  0.
<mgrwt>
<rscale>  0 0.67616395E+03</rscale>
<asrwt>0</asrwt>
<pdfrwt beam="1">  1        2 0.35045174E+00 0.77870565E+03</pdfrwt>
<pdfrwt beam="2">  1       -2 0.46863999E-01 0.77870565E+03</pdfrwt>
<totfact> 0.20863670E+01</totfact>
</mgrwt>
</event>
<event>
 4    1  0.5223852E-007  0.9369577E+03  0.7818608E-02  0.9469133E-01
          2   -1    0    0  501    0  0.00000000000E+00  0.00000000000E+00  0.23506665591E+04  0.23506665591E+04  0.25500000000E-02 0. -1.
         -2   -1    0    0    0  501 -0.00000000000E+00 -0.00000000000E+00 -0.39952386310E+03  0.39952386310E+03  0.25500000000E-02 0.  1.
    8880023    1    1    2    0    0 -0.53595352583E+03 -0.39602191997E+03  0.33444114127E+03  0.99485708832E+03  0.65864270000E+03 0.  0.
    8880022    1    1    2    0    0  0.53595352583E+03  0.39602191997E+03  0.16167015547E+04  0.17553333338E+04  0.15294330000E+03 0.  0.
<mgrwt>
<rscale>  0 0.86598296E+03</rscale>
<asrwt>0</asrwt>
<pdfrwt beam="1">  1        2 0.36164101E+00 0.93695771E+03</pdfrwt>
<pdfrwt beam="2">  1       -2 0.61465210E-01 0.93695771E+03</pdfrwt>
<totfact> 0.10614310E+01</totfact>
</mgrwt>
</event>
<event>
 4    1  0.5223852E-007  0.7478477E+03  0.7818608E-02  0.9837650E-01
         -2   -1    0    0    0  501 -0.00000000000E+00  0.00000000000E+00  0.52474917275E+03  0.52474917276E+03  0.25500000000E-02 0.  1.
          2   -1    0    0  501    0  0.00000000000E+00 -0.00000000000E+00 -0.90929387021E+03  0.90929387021E+03  0.25500000000E-02 0. -1.
    8880023    1    1    2    0    0  0.29766280968E+03 -0.19199696440E+03  0.16184866478E+03  0.76516088450E+03  0.65864270000E+03 0.  1.
    8880022    1    1    2    0    0 -0.29766280968E+03  0.19199696440E+03 -0.54639336224E+03  0.66888215847E+03  0.15294330000E+03 0.  0.
<mgrwt>
<rscale>  0 0.63380588E+03</rscale>
<asrwt>0</asrwt>
<pdfrwt beam="1">  1        2 0.13989136E+00 0.74784770E+03</pdfrwt>
<pdfrwt beam="2">  1       -2 0.80730642E-01 0.74784770E+03</pdfrwt>
<totfact> 0.39729072E+01</totfact>
</mgrwt>
</event>
<event>
 4    1  0.5223852E-007  0.7425444E+03  0.7818608E-02  0.9852597E-01
         -2   -1    0    0    0  501 -0.00000000000E+00  0.00000000000E+00  0.11663371394E+04  0.11663371394E+04  0.25500000000E-02 0.  1.
          2   -1    0    0  501    0  0.00000000000E+00 -0.00000000000E+00 -0.44138733471E+03  0.44138733472E+03  0.25500000000E-02 0. -1.
    8880023    1    1    2    0    0  0.34285656940E+03  0.33597767782E+01  0.92190821436E+03  0.11837596366E+04  0.65864270000E+03 0.  0.
    8880022    1    1    2    0    0 -0.34285656940E+03 -0.33597767782E+01 -0.19695840968E+03  0.42396483751E+03  0.15294330000E+03 0.  0.
<mgrwt>
<rscale>  0 0.62614701E+03</rscale>
<asrwt>0</asrwt>
<pdfrwt beam="1">  1        2 0.67905745E-01 0.74254436E+03</pdfrwt>
<pdfrwt beam="2">  1       -2 0.17943648E+00 0.74254436E+03</pdfrwt>
<totfact> 0.13227664E+01</totfact>
</mgrwt>
</event>
<event>
 4    1  0.5223852E-007  0.7634985E+03  0.7818608E-02  0.9796133E-01
          2   -1    0    0  501    0  0.00000000000E+00  0.00000000000E+00  0.92273096040E+03  0.92273096040E+03  0.25500000000E-02 0. -1.
         -2   -1    0    0    0  501 -0.00000000000E+00 -0.00000000000E+00 -0.46772967671E+03  0.46772967671E+03  0.25500000000E-02 0.  1.
    8880023    1    1    2    0    0  0.34190404604E+03 -0.17950325187E+03 -0.14464651793E+02  0.76363553253E+03  0.65864270000E+03 0.  0.
    8880022    1    1    2    0    0 -0.34190404604E+03  0.17950325187E+03  0.46946593549E+03  0.62682510458E+03  0.15294330000E+03 0.  0.
<mgrwt>
<rscale>  0 0.65570484E+03</rscale>
<asrwt>0</asrwt>
<pdfrwt beam="1">  1        2 0.14195861E+00 0.76349853E+03</pdfrwt>
<pdfrwt beam="2">  1       -2 0.71958413E-01 0.76349853E+03</pdfrwt>
<totfact> 0.50201419E+01</totfact>
</mgrwt>
</event>
<event>
 4    1  0.5223852E-007  0.8057970E+03  0.7818608E-02  0.9698399E-01
          2   -1    0    0  501    0  0.00000000000E+00  0.00000000000E+00  0.93120549407E+03  0.93120549407E+03  0.25500000000E-02 0. -1.
         -2   -1    0    0    0  501 -0.00000000000E+00 -0.00000000000E+00 -0.50296331445E+03  0.50296331446E+03  0.25500000000E-02 0.  1.
    8880023    1    1    2    0    0 -0.37818390579E+03  0.26921276876E+03  0.48755877100E+03  0.94181863589E+03  0.65864270000E+03 0. -1.
    8880022    1    1    2    0    0  0.37818390579E+03 -0.26921276876E+03 -0.59316591381E+02  0.49235017264E+03  0.15294330000E+03 0.  0.
<mgrwt>
<rscale>  0 0.71112186E+03</rscale>
<asrwt>0</asrwt>
<pdfrwt beam="1">  1        2 0.14326238E+00 0.80579699E+03</pdfrwt>
<pdfrwt beam="2">  1       -2 0.77378973E-01 0.80579699E+03</pdfrwt>
<totfact> 0.42044480E+01</totfact>
</mgrwt>
</event>
<event>
 4    1  0.5223852E-007  0.8175606E+03  0.7818608E-02  0.9674038E-01
         -2   -1    0    0    0  501 -0.00000000000E+00  0.00000000000E+00  0.30244625499E+03  0.30244625500E+03  0.25500000000E-02 0.  1.
          2   -1    0    0  501    0  0.00000000000E+00 -0.00000000000E+00 -0.22201332881E+04  0.22201332881E+04  0.25500000000E-02 0. -1.
    8880023    1    1    2    0    0 -0.41239056663E+03 -0.25402580462E+03 -0.37694306957E+03  0.90027294351E+03  0.65864270000E+03 0.  1.
    8880022    1    1    2    0    0  0.41239056663E+03  0.25402580462E+03 -0.15407439635E+04  0.16223065996E+04  0.15294330000E+03 0.  0.
<mgrwt>
<rscale>  0 0.72583788E+03</rscale>
<asrwt>0</asrwt>
<pdfrwt beam="1">  1        2 0.34155896E+00 0.81756058E+03</pdfrwt>
<pdfrwt beam="2">  1       -2 0.46530195E-01 0.81756058E+03</pdfrwt>
<totfact> 0.22666929E+01</totfact>
</mgrwt>
</event>
<event>
 4    1  0.5223852E-007  0.1041297E+04  0.7818608E-02  0.9329417E-01
          2   -1    0    0  501    0  0.00000000000E+00  0.00000000000E+00  0.24832898526E+04  0.24832898526E+04  0.25500000000E-02 0. -1.
         -2   -1    0    0    0  501 -0.00000000000E+00 -0.00000000000E+00 -0.79987344880E+03  0.79987344880E+03  0.25500000000E-02 0.  1.
    8880023    1    1    2    0    0 -0.46228315297E+03  0.66089660241E+03 -0.34336429615E+03  0.10964484843E+04  0.65864270000E+03 0.  1.
    8880022    1    1    2    0    0  0.46228315297E+03 -0.66089660241E+03  0.20267807000E+04  0.21867148171E+04  0.15294330000E+03 0.  0.
<mgrwt>
<rscale>  0 0.98119209E+03</rscale>
<asrwt>0</asrwt>
<pdfrwt beam="1">  1        2 0.38204458E+00 0.10412974E+04</pdfrwt>
<pdfrwt beam="2">  1       -2 0.12305746E+00 0.10412974E+04</pdfrwt>
<totfact> 0.17762241E+00</totfact>
</mgrwt>
</event>
<event>
 4    1  0.5223852E-007  0.6670660E+03  0.7818608E-02  0.1017860E+00
          2   -1    0    0  501    0  0.00000000000E+00  0.00000000000E+00  0.21270232617E+04  0.21270232617E+04  0.25500000000E-02 0. -1.
         -2   -1    0    0    0  501 -0.00000000000E+00 -0.00000000000E+00 -0.24221483590E+03  0.24221483591E+03  0.25500000000E-02 0.  1.
    8880023    1    1    2    0    0 -0.18429633018E+02  0.10405402180E+03  0.23237666512E+03  0.70638234093E+03  0.65864270000E+03 0.  1.
    8880022    1    1    2    0    0  0.18429633018E+02 -0.10405402180E+03  0.16524317607E+04  0.16628557567E+04  0.15294330000E+03 0.  0.
<mgrwt>
<rscale>  0 0.48466990E+03</rscale>
<asrwt>0</asrwt>
<pdfrwt beam="1">  1        2 0.32723435E+00 0.66706604E+03</pdfrwt>
<pdfrwt beam="2">  1       -2 0.37263821E-01 0.66706604E+03</pdfrwt>
<totfact> 0.40277971E+01</totfact>
</mgrwt>
</event>
<event>
 4    1  0.5223852E-007  0.6875683E+03  0.7818608E-02  0.1005330E+00
          2   -1    0    0  501    0  0.00000000000E+00  0.00000000000E+00  0.26560214026E+04  0.26560214026E+04  0.25500000000E-02 0. -1.
         -2   -1    0    0    0  501 -0.00000000000E+00 -0.00000000000E+00 -0.11607058732E+03  0.11607058734E+03  0.25500000000E-02 0.  1.
    8880023    1    1    2    0    0  0.18476593507E+03  0.69292726798E+02  0.10094881673E+04  0.12213994019E+04  0.65864270000E+03 0.  1.
    8880022    1    1    2    0    0 -0.18476593507E+03 -0.69292726798E+02  0.15304626480E+04  0.15506925880E+04  0.15294330000E+03 0.  0.
<mgrwt>
<rscale>  0 0.53373465E+03</rscale>
<asrwt>0</asrwt>
<pdfrwt beam="1">  1        2 0.40861867E+00 0.68756828E+03</pdfrwt>
<pdfrwt beam="2">  1       -2 0.17857014E-01 0.68756828E+03</pdfrwt>
<totfact> 0.77150591E+01</totfact>
</mgrwt>
</event>
<event>
 4    1  0.5223852E-007  0.6870811E+03  0.7818608E-02  0.1005572E+00
          2   -1    0    0  501    0  0.00000000000E+00  0.00000000000E+00  0.22486080751E+04  0.22486080751E+04  0.25500000000E-02 0. -1.
         -2   -1    0    0    0  501 -0.00000000000E+00 -0.00000000000E+00 -0.30293026789E+03  0.30293026790E+03  0.25500000000E-02 0.  1.
    8880023    1    1    2    0    0  0.38005365089E+02  0.19190041441E+03  0.10603849782E+03  0.69521546740E+03  0.65864270000E+03 0.  1.
    8880022    1    1    2    0    0 -0.38005365089E+02 -0.19190041441E+03  0.18396393093E+04  0.18563228756E+04  0.15294330000E+03 0.  0.
<mgrwt>
<rscale>  0 0.53273108E+03</rscale>
<asrwt>0</asrwt>
<pdfrwt beam="1">  1        2 0.34593972E+00 0.68708106E+03</pdfrwt>
<pdfrwt beam="2">  1       -2 0.46604655E-01 0.68708106E+03</pdfrwt>
<totfact> 0.22200224E+01</totfact>
</mgrwt>
</event>
<event>
 4    1  0.5223852E-007  0.7039132E+03  0.7818608E-02  0.9981339E-01
         -2   -1    0    0    0  501 -0.00000000000E+00  0.00000000000E+00  0.29189929395E+03  0.29189929396E+03  0.25500000000E-02 0.  1.
          2   -1    0    0  501    0  0.00000000000E+00 -0.00000000000E+00 -0.14961649994E+04  0.14961649994E+04  0.25500000000E-02 0. -1.
    8880023    1    1    2    0    0  0.98434341216E+02 -0.22802255009E+03 -0.18490351348E+03  0.72779332124E+03  0.65864270000E+03 0.  1.
    8880022    1    1    2    0    0 -0.98434341216E+02  0.22802255009E+03 -0.10193621919E+04  0.10602709721E+04  0.15294330000E+03 0.  0.
<mgrwt>
<rscale>  0 0.56476106E+03</rscale>
<asrwt>0</asrwt>
<pdfrwt beam="1">  1        2 0.23017923E+00 0.70391321E+03</pdfrwt>
<pdfrwt beam="2">  1       -2 0.44907585E-01 0.70391321E+03</pdfrwt>
<totfact> 0.61531565E+01</totfact>
</mgrwt>
</event>
<event>
 4    1  0.5223852E-007  0.9632303E+03  0.7818608E-02  0.9431329E-01
          2   -1    0    0  501    0  0.00000000000E+00  0.00000000000E+00  0.13606159131E+04  0.13606159131E+04  0.25500000000E-02 0. -1.
         -2   -1    0    0    0  501 -0.00000000000E+00 -0.00000000000E+00 -0.71519314877E+03  0.71519314878E+03  0.25500000000E-02 0.  1.
    8880023    1    1    2    0    0  0.32751998752E+03  0.62187866532E+03 -0.18111406490E+03  0.98010965069E+03  0.65864270000E+03 0.  1.
    8880022    1    1    2    0    0 -0.32751998752E+03 -0.62187866532E+03  0.82653682922E+03  0.10956994112E+04  0.15294330000E+03 0.  0.
<mgrwt>
<rscale>  0 0.89541690E+03</rscale>
<asrwt>0</asrwt>
<pdfrwt beam="1">  1        2 0.20932552E+00 0.96323031E+03</pdfrwt>
<pdfrwt beam="2">  1       -2 0.11002972E+00 0.96323031E+03</pdfrwt>
<totfact> 0.99854771E+00</totfact>
</mgrwt>
</event>
<event>
 4    1  0.5223852E-007  0.8204804E+03  0.7818608E-02  0.9668147E-01
         -2   -1    0    0    0  501 -0.00000000000E+00  0.00000000000E+00  0.48029121053E+03  0.48029121054E+03  0.25500000000E-02 0.  1.
          2   -1    0    0  501    0  0.00000000000E+00 -0.00000000000E+00 -0.13267202282E+04  0.13267202282E+04  0.25500000000E-02 0. -1.
    8880023    1    1    2    0    0  0.12828182816E+03  0.47214571036E+03 -0.35416860249E+01  0.82048799446E+03  0.65864270000E+03 0.  1.
    8880022    1    1    2    0    0 -0.12828182816E+03 -0.47214571036E+03 -0.84288733162E+03  0.98652344425E+03  0.15294330000E+03 0.  0.
<mgrwt>
<rscale>  0 0.72945415E+03</rscale>
<asrwt>0</asrwt>
<pdfrwt beam="1">  1        2 0.20411080E+00 0.82048035E+03</pdfrwt>
<pdfrwt beam="2">  1       -2 0.73890956E-01 0.82048035E+03</pdfrwt>
<totfact> 0.26668385E+01</totfact>
</mgrwt>
</event>
<event>
 4    1  0.5223852E-007  0.7985465E+03  0.7818608E-02  0.9713948E-01
          2   -1    0    0  501    0  0.00000000000E+00  0.00000000000E+00  0.78725120508E+03  0.78725120508E+03  0.25500000000E-02 0. -1.
         -2   -1    0    0    0  501 -0.00000000000E+00 -0.00000000000E+00 -0.11792137325E+04  0.11792137325E+04  0.25500000000E-02 0.  1.
    8880023    1    1    2    0    0 -0.33531347144E+03 -0.30237576434E+03 -0.94441292405E+03  0.12367668351E+04  0.65864270000E+03 0.  0.
    8880022    1    1    2    0    0  0.33531347144E+03  0.30237576434E+03  0.55245039665E+03  0.72969810248E+03  0.15294330000E+03 0.  0.
<mgrwt>
<rscale>  0 0.70192386E+03</rscale>
<asrwt>0</asrwt>
<pdfrwt beam="1">  1        2 0.12111557E+00 0.79854645E+03</pdfrwt>
<pdfrwt beam="2">  1       -2 0.18141750E+00 0.79854645E+03</pdfrwt>
<totfact> 0.63209718E+00</totfact>
</mgrwt>
</event>
<event>
 4    1  0.5223852E-007  0.9193423E+03  0.7818608E-02  0.9495668E-01
         -2   -1    0    0    0  501 -0.00000000000E+00  0.00000000000E+00  0.53177519967E+03  0.53177519968E+03  0.25500000000E-02 0.  1.
          2   -1    0    0  501    0  0.00000000000E+00 -0.00000000000E+00 -0.16885348897E+04  0.16885348897E+04  0.25500000000E-02 0. -1.
    8880023    1    1    2    0    0  0.38194253830E+03 -0.51526691845E+03 -0.36088656494E+02  0.92005037754E+03  0.65864270000E+03 0.  1.
    8880022    1    1    2    0    0 -0.38194253830E+03  0.51526691845E+03 -0.11206710335E+04  0.13002597118E+04  0.15294330000E+03 0.  0.
<mgrwt>
<rscale>  0 0.84603943E+03</rscale>
<asrwt>0</asrwt>
<pdfrwt beam="1">  1        2 0.25977460E+00 0.91934232E+03</pdfrwt>
<pdfrwt beam="2">  1       -2 0.81811570E-01 0.91934232E+03</pdfrwt>
<totfact> 0.13170642E+01</totfact>
</mgrwt>
</event>
<event>
 4    1  0.5223852E-007  0.8115606E+03  0.7818608E-02  0.9686335E-01
         -2   -1    0    0    0  501 -0.00000000000E+00  0.00000000000E+00  0.34016472249E+03  0.34016472250E+03  0.25500000000E-02 0.  1.
          2   -1    0    0  501    0  0.00000000000E+00 -0.00000000000E+00 -0.15893733206E+04  0.15893733206E+04  0.25500000000E-02 0. -1.
    8880023    1    1    2    0    0 -0.42072539421E+03  0.21865609584E+03 -0.31454656589E+03  0.87038502627E+03  0.65864270000E+03 0.  0.
    8880022    1    1    2    0    0  0.42072539421E+03 -0.21865609584E+03 -0.93466203219E+03  0.10591530168E+04  0.15294330000E+03 0.  0.
<mgrwt>
<rscale>  0 0.71836233E+03</rscale>
<asrwt>0</asrwt>
<pdfrwt beam="1">  1        2 0.24451897E+00 0.81156057E+03</pdfrwt>
<pdfrwt beam="2">  1       -2 0.52333035E-01 0.81156057E+03</pdfrwt>
<totfact> 0.39630918E+01</totfact>
</mgrwt>
</event>
<event>
 4    1  0.5223852E-007  0.9693574E+03  0.7818608E-02  0.9422794E-01
         -2   -1    0    0    0  501 -0.00000000000E+00  0.00000000000E+00  0.21142272770E+04  0.21142272770E+04  0.25500000000E-02 0.  1.
          2   -1    0    0  501    0  0.00000000000E+00 -0.00000000000E+00 -0.80394976114E+03  0.80394976114E+03  0.25500000000E-02 0. -1.
    8880023    1    1    2    0    0 -0.30141377537E+03 -0.64419973326E+03  0.17977705518E+04  0.20424575206E+04  0.65864270000E+03 0.  0.
    8880022    1    1    2    0    0  0.30141377537E+03  0.64419973326E+03 -0.48749303593E+03  0.87571951754E+03  0.15294330000E+03 0.  0.
<mgrwt>
<rscale>  0 0.90223369E+03</rscale>
<asrwt>0</asrwt>
<pdfrwt beam="1">  1        2 0.12368458E+00 0.96935740E+03</pdfrwt>
<pdfrwt beam="2">  1       -2 0.32526574E+00 0.96935740E+03</pdfrwt>
<totfact> 0.76991359E-01</totfact>
</mgrwt>
</event>
<event>
 4    1  0.5223852E-007  0.6881842E+03  0.7818608E-02  0.1005028E+00
         -2   -1    0    0    0  501 -0.00000000000E+00  0.00000000000E+00  0.15306611675E+03  0.15306611677E+03  0.25500000000E-02 0.  1.
          2   -1    0    0  501    0  0.00000000000E+00 -0.00000000000E+00 -0.14457818603E+04  0.14457818603E+04  0.25500000000E-02 0. -1.
    8880023    1    1    2    0    0 -0.16678414091E+03  0.10940893926E+03 -0.98342806915E+03  0.12003033946E+04  0.65864270000E+03 0.  0.
    8880022    1    1    2    0    0  0.16678414091E+03 -0.10940893926E+03 -0.30928767436E+03  0.39854458242E+03  0.15294330000E+03 0. -1.
<mgrwt>
<rscale>  0 0.53499539E+03</rscale>
<asrwt>0</asrwt>
<pdfrwt beam="1">  1        2 0.22242797E+00 0.68818418E+03</pdfrwt>
<pdfrwt beam="2">  1       -2 0.23548634E-01 0.68818418E+03</pdfrwt>
<totfact> 0.22153140E+02</totfact>
</mgrwt>
</event>
<event>
 4    1  0.5223852E-007  0.6865281E+03  0.7818608E-02  0.1005848E+00
         -2   -1    0    0    0  501 -0.00000000000E+00  0.00000000000E+00  0.82168495815E+03  0.82168495815E+03  0.25500000000E-02 0.  1.
          2   -1    0    0  501    0  0.00000000000E+00 -0.00000000000E+00 -0.34754911628E+03  0.34754911629E+03  0.25500000000E-02 0. -1.
    8880023    1    1    2    0    0 -0.11590678226E+02  0.19332929571E+03  0.58188773849E+03  0.89995228033E+03  0.65864270000E+03 0.  1.
    8880022    1    1    2    0    0  0.11590678226E+02 -0.19332929571E+03 -0.10775189663E+03  0.26928179412E+03  0.15294330000E+03 0.  0.
<mgrwt>
<rscale>  0 0.53158516E+03</rscale>
<asrwt>0</asrwt>
<pdfrwt beam="1">  1        2 0.53469096E-01 0.68652805E+03</pdfrwt>
<pdfrwt beam="2">  1       -2 0.12641307E+00 0.68652805E+03</pdfrwt>
<totfact> 0.44079430E+01</totfact>
</mgrwt>
</event>
<event>
 4    1  0.5223852E-007  0.6596952E+03  0.7818608E-02  0.1024471E+00
          2   -1    0    0  501    0  0.00000000000E+00  0.00000000000E+00  0.44835246923E+03  0.44835246924E+03  0.25500000000E-02 0. -1.
         -2   -1    0    0    0  501 -0.00000000000E+00 -0.00000000000E+00 -0.57479530426E+03  0.57479530426E+03  0.25500000000E-02 0.  1.
    8880023    1    1    2    0    0  0.35839621807E+02 -0.10155138526E+02 -0.35228006187E+03  0.74786299119E+03  0.65864270000E+03 0.  1.
    8880022    1    1    2    0    0 -0.35839621807E+02  0.10155138526E+02  0.22583722685E+03  0.27528478232E+03  0.15294330000E+03 0.  0.
<mgrwt>
<rscale>  0 0.46107179E+03</rscale>
<asrwt>0</asrwt>
<pdfrwt beam="1">  1        2 0.68977303E-01 0.65969524E+03</pdfrwt>
<pdfrwt beam="2">  1       -2 0.88430047E-01 0.65969524E+03</pdfrwt>
<totfact> 0.78129322E+01</totfact>
</mgrwt>
</event>
<event>
 4    1  0.5223852E-007  0.1014123E+04  0.7818608E-02  0.9363309E-01
          2   -1    0    0  501    0  0.00000000000E+00  0.00000000000E+00  0.17247621263E+04  0.17247621263E+04  0.25500000000E-02 0. -1.
         -2   -1    0    0    0  501 -0.00000000000E+00 -0.00000000000E+00 -0.10002846879E+04  0.10002846879E+04  0.25500000000E-02 0.  1.
    8880023    1    1    2    0    0  0.34725646381E+03 -0.68851165104E+03 -0.60474605488E+03  0.11807469426E+04  0.65864270000E+03 0.  1.
    8880022    1    1    2    0    0 -0.34725646381E+03  0.68851165104E+03  0.13292234933E+04  0.15442998716E+04  0.15294330000E+03 0.  0.
<mgrwt>
<rscale>  0 0.95157696E+03</rscale>
<asrwt>0</asrwt>
<pdfrwt beam="1">  1        2 0.26534801E+00 0.10141230E+04</pdfrwt>
<pdfrwt beam="2">  1       -2 0.15388995E+00 0.10141230E+04</pdfrwt>
<totfact> 0.26394809E+00</totfact>
</mgrwt>
</event>
<event>
 4    1  0.5223852E-007  0.1114677E+04  0.7818608E-02  0.9244889E-01
          2   -1    0    0  501    0  0.00000000000E+00  0.00000000000E+00  0.19953479972E+04  0.19953479972E+04  0.25500000000E-02 0. -1.
         -2   -1    0    0    0  501 -0.00000000000E+00 -0.00000000000E+00 -0.89056544449E+03  0.89056544450E+03  0.25500000000E-02 0.  1.
    8880023    1    1    2    0    0  0.34781405145E+03  0.82928878241E+03 -0.35040617970E+03  0.11684559025E+04  0.65864270000E+03 0.  0.
    8880022    1    1    2    0    0 -0.34781405145E+03 -0.82928878241E+03  0.14551887324E+04  0.17174575392E+04  0.15294330000E+03 0.  0.
<mgrwt>
<rscale>  0 0.10601878E+04</rscale>
<asrwt>0</asrwt>
<pdfrwt beam="1">  1        2 0.30697661E+00 0.11146770E+04</pdfrwt>
<pdfrwt beam="2">  1       -2 0.13701007E+00 0.11146770E+04</pdfrwt>
<totfact> 0.25118821E+00</totfact>
</mgrwt>
</event>
<event>
 4    1  0.5223852E-007  0.1009652E+04  0.7818608E-02  0.9369038E-01
         -2   -1    0    0    0  501 -0.00000000000E+00  0.00000000000E+00  0.56063927934E+03  0.56063927934E+03  0.25500000000E-02 0.  1.
          2   -1    0    0  501    0  0.00000000000E+00 -0.00000000000E+00 -0.25537449616E+04  0.25537449616E+04  0.25500000000E-02 0. -1.
    8880023    1    1    2    0    0 -0.32859784240E+03 -0.69109339838E+03 -0.39207669844E+02  0.10104128240E+04  0.65864270000E+03 0.  1.
    8880022    1    1    2    0    0  0.32859784240E+03  0.69109339838E+03 -0.19538980125E+04  0.21039714170E+04  0.15294330000E+03 0.  0.
<mgrwt>
<rscale>  0 0.94668164E+03</rscale>
<asrwt>0</asrwt>
<pdfrwt beam="1">  1        2 0.39288383E+00 0.10096518E+04</pdfrwt>
<pdfrwt beam="2">  1       -2 0.86252199E-01 0.10096518E+04</pdfrwt>
<totfact> 0.38104126E+00</totfact>
</mgrwt>
</event>
<event>
 4    1  0.5223852E-007  0.8181586E+03  0.7818608E-02  0.9672827E-01
          2   -1    0    0  501    0  0.00000000000E+00  0.00000000000E+00  0.36879870939E+04  0.36879870939E+04  0.25500000000E-02 0. -1.
         -2   -1    0    0    0  501 -0.00000000000E+00 -0.00000000000E+00 -0.25134372040E+03  0.25134372041E+03  0.25500000000E-02 0.  1.
    8880023    1    1    2    0    0 -0.44163148620E+03  0.20133282527E+03  0.49983465521E+03  0.95875865834E+03  0.65864270000E+03 0.  0.
    8880022    1    1    2    0    0  0.44163148620E+03 -0.20133282527E+03  0.29368087183E+04  0.29805721560E+04  0.15294330000E+03 0.  0.
<mgrwt>
<rscale>  0 0.72657967E+03</rscale>
<asrwt>0</asrwt>
<pdfrwt beam="1">  1        2 0.56738261E+00 0.81815859E+03</pdfrwt>
<pdfrwt beam="2">  1       -2 0.38668266E-01 0.81815859E+03</pdfrwt>
<totfact> 0.40544485E+00</totfact>
</mgrwt>
</event>
<event>
 4    1  0.5223852E-007  0.8400608E+03  0.7818608E-02  0.9630066E-01
         -2   -1    0    0    0  501 -0.00000000000E+00  0.00000000000E+00  0.11151212641E+04  0.11151212641E+04  0.25500000000E-02 0.  1.
          2   -1    0    0  501    0  0.00000000000E+00 -0.00000000000E+00 -0.58843767899E+03  0.58843767900E+03  0.25500000000E-02 0. -1.
    8880023    1    1    2    0    0  0.44718655065E+03 -0.26817190415E+03 -0.13123240645E+03  0.85024945282E+03  0.65864270000E+03 0.  0.
    8880022    1    1    2    0    0 -0.44718655065E+03  0.26817190415E+03  0.65791599160E+03  0.85330949032E+03  0.15294330000E+03 0.  0.
<mgrwt>
<rscale>  0 0.75337806E+03</rscale>
<asrwt>0</asrwt>
<pdfrwt beam="1">  1        2 0.90528875E-01 0.84006082E+03</pdfrwt>
<pdfrwt beam="2">  1       -2 0.17155712E+00 0.84006082E+03</pdfrwt>
<totfact> 0.10626229E+01</totfact>
</mgrwt>
</event>
<event>
 4    1  0.5223852E-007  0.6829248E+03  0.7818608E-02  0.1007715E+00
         -2   -1    0    0    0  501 -0.00000000000E+00  0.00000000000E+00  0.99876974272E+02  0.99876974305E+02  0.25500000000E-02 0.  1.
          2   -1    0    0  501    0  0.00000000000E+00 -0.00000000000E+00 -0.23289717534E+04  0.23289717534E+04  0.25500000000E-02 0. -1.
    8880023    1    1    2    0    0  0.14938005587E+03  0.10129971772E+03 -0.12808491673E+04  0.14515374021E+04  0.65864270000E+03 0.  1.
    8880022    1    1    2    0    0 -0.14938005587E+03 -0.10129971772E+03 -0.94824561181E+03  0.97731132565E+03  0.15294330000E+03 0. -1.
<mgrwt>
<rscale>  0 0.52392825E+03</rscale>
<asrwt>0</asrwt>
<pdfrwt beam="1">  1        2 0.35830331E+00 0.68292477E+03</pdfrwt>
<pdfrwt beam="2">  1       -2 0.15365690E-01 0.68292477E+03</pdfrwt>
<totfact> 0.15272538E+02</totfact>
</mgrwt>
</event>
<event>
 4    1  0.5223852E-007  0.1033219E+04  0.7818608E-02  0.9339331E-01
          2   -1    0    0  501    0  0.00000000000E+00  0.00000000000E+00  0.93765918132E+03  0.93765918132E+03  0.25500000000E-02 0. -1.
         -2   -1    0    0    0  501 -0.00000000000E+00 -0.00000000000E+00 -0.10566916799E+04  0.10566916799E+04  0.25500000000E-02 0.  1.
    8880023    1    1    2    0    0 -0.50577768253E+03  0.61475291821E+03 -0.43931850825E+03  0.11227391382E+04  0.65864270000E+03 0.  0.
    8880022    1    1    2    0    0  0.50577768253E+03 -0.61475291821E+03  0.32028600967E+03  0.87161172296E+03  0.15294330000E+03 0.  0.
<mgrwt>
<rscale>  0 0.97241205E+03</rscale>
<asrwt>0</asrwt>
<pdfrwt beam="1">  1        2 0.14425526E+00 0.10332194E+04</pdfrwt>
<pdfrwt beam="2">  1       -2 0.16256795E+00 0.10332194E+04</pdfrwt>
<totfact> 0.65931099E+00</totfact>
</mgrwt>
</event>
<event>
 4    1  0.5223852E-007  0.7498264E+03  0.7818608E-02  0.9832196E-01
         -2   -1    0    0    0  501 -0.00000000000E+00  0.00000000000E+00  0.85381592952E+03  0.85381592953E+03  0.25500000000E-02 0.  1.
          2   -1    0    0  501    0  0.00000000000E+00 -0.00000000000E+00 -0.17395921404E+04  0.17395921404E+04  0.25500000000E-02 0. -1.
    8880023    1    1    2    0    0  0.11056571403E+03  0.34088810543E+03  0.66022107597E+03  0.99906533968E+03  0.65864270000E+03 0.  1.
    8880022    1    1    2    0    0 -0.11056571403E+03 -0.34088810543E+03 -0.15459972869E+04  0.15943427303E+04  0.15294330000E+03 0.  0.
<mgrwt>
<rscale>  0 0.63662998E+03</rscale>
<asrwt>0</asrwt>
<pdfrwt beam="1">  1        2 0.26762956E+00 0.74982644E+03</pdfrwt>
<pdfrwt beam="2">  1       -2 0.13135630E+00 0.74982644E+03</pdfrwt>
<totfact> 0.40640242E+00</totfact>
</mgrwt>
</event>
<event>
 4    1  0.5223852E-007  0.7155711E+03  0.7818608E-02  0.9937867E-01
         -2   -1    0    0    0  501 -0.00000000000E+00  0.00000000000E+00  0.17197609144E+03  0.17197609146E+03  0.25500000000E-02 0.  1.
          2   -1    0    0  501    0  0.00000000000E+00 -0.00000000000E+00 -0.23913501039E+04  0.23913501039E+04  0.25500000000E-02 0. -1.
    8880023    1    1    2    0    0 -0.47699004793E+02 -0.27560214447E+03 -0.66589244737E+03  0.97747362871E+03  0.65864270000E+03 0.  0.
    8880022    1    1    2    0    0  0.47699004793E+02  0.27560214447E+03 -0.15534815651E+04  0.15858525667E+04  0.15294330000E+03 0.  0.
<mgrwt>
<rscale>  0 0.58460670E+03</rscale>
<asrwt>0</asrwt>
<pdfrwt beam="1">  1        2 0.36789999E+00 0.71557106E+03</pdfrwt>
<pdfrwt beam="2">  1       -2 0.26457862E-01 0.71557106E+03</pdfrwt>
<totfact> 0.54194319E+01</totfact>
</mgrwt>
</event>
<event>
 4    1  0.5223852E-007  0.7741047E+03  0.7818608E-02  0.9769872E-01
          2   -1    0    0  501    0  0.00000000000E+00  0.00000000000E+00  0.19675139029E+04  0.19675139029E+04  0.25500000000E-02 0. -1.
         -2   -1    0    0    0  501 -0.00000000000E+00 -0.00000000000E+00 -0.19825837195E+03  0.19825837197E+03  0.25500000000E-02 0.  1.
    8880023    1    1    2    0    0 -0.32971521625E+03 -0.23815059313E+03  0.85416180695E+03  0.11527490740E+04  0.65864270000E+03 0.  1.
    8880022    1    1    2    0    0  0.32971521625E+03  0.23815059313E+03  0.91509372402E+03  0.10130232009E+04  0.15294330000E+03 0.  0.
<mgrwt>
<rscale>  0 0.67004754E+03</rscale>
<asrwt>0</asrwt>
<pdfrwt beam="1">  1        2 0.30269444E+00 0.77410467E+03</pdfrwt>
<pdfrwt beam="2">  1       -2 0.30501289E-01 0.77410467E+03</pdfrwt>
<totfact> 0.70931274E+01</totfact>
</mgrwt>
</event>
<event>
 4    1  0.5223852E-007  0.1457329E+04  0.7818608E-02  0.8940370E-01
         -2   -1    0    0    0  501 -0.00000000000E+00  0.00000000000E+00  0.16599625188E+04  0.16599625188E+04  0.25500000000E-02 0.  1.
          2   -1    0    0  501    0  0.00000000000E+00 -0.00000000000E+00 -0.23014386444E+04  0.23014386444E+04  0.25500000000E-02 0. -1.
    8880023    1    1    2    0    0 -0.90685131605E+03 -0.93146069997E+03 -0.17278306409E+04  0.22603555638E+04  0.65864270000E+03 0.  0.
    8880022    1    1    2    0    0  0.90685131605E+03  0.93146069997E+03  0.10863545153E+04  0.17010455993E+04  0.15294330000E+03 0.  0.
<mgrwt>
<rscale>  0 0.14187318E+04</rscale>
<asrwt>0</asrwt>
<pdfrwt beam="1">  1        2 0.35406748E+00 0.14573293E+04</pdfrwt>
<pdfrwt beam="2">  1       -2 0.25537885E+00 0.14573293E+04</pdfrwt>
<totfact> 0.25390512E-01</totfact>
</mgrwt>
</event>
<event>
 4    1  0.5223852E-007  0.6968825E+03  0.7818608E-02  0.1001039E+00
          2   -1    0    0  501    0  0.00000000000E+00  0.00000000000E+00  0.40708989464E+03  0.40708989465E+03  0.25500000000E-02 0. -1.
         -2   -1    0    0    0  501 -0.00000000000E+00 -0.00000000000E+00 -0.17581705145E+04  0.17581705145E+04  0.25500000000E-02 0.  1.
    8880023    1    1    2    0    0 -0.13545806250E+03 -0.18299219611E+03 -0.16308307655E+04  0.17734864596E+04  0.65864270000E+03 0.  1.
    8880022    1    1    2    0    0  0.13545806250E+03  0.18299219611E+03  0.27975014563E+03  0.39177394953E+03  0.15294330000E+03 0.  0.
<mgrwt>
<rscale>  0 0.55197088E+03</rscale>
<asrwt>0</asrwt>
<pdfrwt beam="1">  1        2 0.62629216E-01 0.69688251E+03</pdfrwt>
<pdfrwt beam="2">  1       -2 0.27048777E+00 0.69688251E+03</pdfrwt>
<totfact> 0.39061552E+00</totfact>
</mgrwt>
</event>
<event>
 4    1  0.5223852E-007  0.8507007E+03  0.7818608E-02  0.9610324E-01
          2   -1    0    0  501    0  0.00000000000E+00  0.00000000000E+00  0.20669839631E+04  0.20669839631E+04  0.25500000000E-02 0. -1.
         -2   -1    0    0    0  501 -0.00000000000E+00 -0.00000000000E+00 -0.41611034038E+03  0.41611034039E+03  0.25500000000E-02 0.  1.
    8880023    1    1    2    0    0 -0.17027355833E+03  0.51077242441E+03  0.12756313534E+03  0.86021166812E+03  0.65864270000E+03 0.  1.
    8880022    1    1    2    0    0  0.17027355833E+03 -0.51077242441E+03  0.15233104873E+04  0.16228826353E+04  0.15294330000E+03 0.  0.
<mgrwt>
<rscale>  0 0.76616625E+03</rscale>
<asrwt>0</asrwt>
<pdfrwt beam="1">  1        2 0.31799753E+00 0.85070075E+03</pdfrwt>
<pdfrwt beam="2">  1       -2 0.64016975E-01 0.85070075E+03</pdfrwt>
<totfact> 0.14136475E+01</totfact>
</mgrwt>
</event>
<event>
 4    1  0.5223852E-007  0.6780228E+03  0.7818608E-02  0.1010465E+00
          2   -1    0    0  501    0  0.00000000000E+00  0.00000000000E+00  0.16750132591E+04  0.16750132591E+04  0.25500000000E-02 0. -1.
         -2   -1    0    0    0  501 -0.00000000000E+00 -0.00000000000E+00 -0.16175382433E+03  0.16175382435E+03  0.25500000000E-02 0.  1.
    8880023    1    1    2    0    0 -0.11100451422E+03 -0.11654509357E+03  0.62829420497E+03  0.92437469419E+03  0.65864270000E+03 0.  1.
    8880022    1    1    2    0    0  0.11100451422E+03  0.11654509357E+03  0.88496522978E+03  0.91239238924E+03  0.15294330000E+03 0.  1.
<mgrwt>
<rscale>  0 0.51290290E+03</rscale>
<asrwt>0</asrwt>
<pdfrwt beam="1">  1        2 0.25769436E+00 0.67802284E+03</pdfrwt>
<pdfrwt beam="2">  1       -2 0.24885203E-01 0.67802284E+03</pdfrwt>
<totfact> 0.15007822E+02</totfact>
</mgrwt>
</event>
<event>
 4    1  0.5223852E-007  0.1172181E+04  0.7818608E-02  0.9184650E-01
         -2   -1    0    0    0  501 -0.00000000000E+00  0.00000000000E+00  0.59537754802E+03  0.59537754803E+03  0.25500000000E-02 0.  1.
          2   -1    0    0  501    0  0.00000000000E+00 -0.00000000000E+00 -0.42878089890E+04  0.42878089890E+04  0.25500000000E-02 0. -1.
    8880023    1    1    2    0    0  0.64413230179E+02  0.96749659786E+03 -0.11995763624E+03  0.11783033446E+04  0.65864270000E+03 0.  1.
    8880022    1    1    2    0    0 -0.64413230179E+02 -0.96749659786E+03 -0.35724738048E+04  0.37048831925E+04  0.15294330000E+03 0.  0.
<mgrwt>
<rscale>  0 0.11213279E+04</rscale>
<asrwt>0</asrwt>
<pdfrwt beam="1">  1        2 0.65966290E+00 0.11721813E+04</pdfrwt>
<pdfrwt beam="2">  1       -2 0.91596548E-01 0.11721813E+04</pdfrwt>
<totfact> 0.20306485E-01</totfact>
</mgrwt>
</event>
<event>
 4    1  0.5223852E-007  0.8235714E+03  0.7818608E-02  0.9661972E-01
         -2   -1    0    0    0  501 -0.00000000000E+00  0.00000000000E+00  0.16694819526E+03  0.16694819528E+03  0.25500000000E-02 0.  1.
          2   -1    0    0  501    0  0.00000000000E+00 -0.00000000000E+00 -0.37636506442E+04  0.37636506442E+04  0.25500000000E-02 0. -1.
    8880023    1    1    2    0    0  0.27292782466E+03  0.41227421307E+03 -0.10636812143E+04  0.13452462808E+04  0.65864270000E+03 0.  0.
    8880022    1    1    2    0    0 -0.27292782466E+03 -0.41227421307E+03 -0.25330212347E+04  0.25853525586E+04  0.15294330000E+03 0.  0.
<mgrwt>
<rscale>  0 0.73326786E+03</rscale>
<asrwt>0</asrwt>
<pdfrwt beam="1">  1        2 0.57902311E+00 0.82357139E+03</pdfrwt>
<pdfrwt beam="2">  1       -2 0.25684341E-01 0.82357139E+03</pdfrwt>
<totfact> 0.76856262E+00</totfact>
</mgrwt>
</event>
<event>
 4    1  0.5223852E-007  0.1059673E+04  0.7818608E-02  0.9307342E-01
          2   -1    0    0  501    0  0.00000000000E+00  0.00000000000E+00  0.13106019191E+04  0.13106019191E+04  0.25500000000E-02 0. -1.
         -2   -1    0    0    0  501 -0.00000000000E+00 -0.00000000000E+00 -0.15829409691E+04  0.15829409691E+04  0.25500000000E-02 0.  1.
    8880023    1    1    2    0    0  0.40331088980E+03 -0.72555998264E+03 -0.12256633505E+04  0.16202338774E+04  0.65864270000E+03 0.  0.
    8880022    1    1    2    0    0 -0.40331088980E+03  0.72555998264E+03  0.95332430053E+03  0.12733090109E+04  0.15294330000E+03 0. -1.
<mgrwt>
<rscale>  0 0.10010971E+04</rscale>
<asrwt>0</asrwt>
<pdfrwt beam="1">  1        2 0.20163107E+00 0.10596731E+04</pdfrwt>
<pdfrwt beam="2">  1       -2 0.24352938E+00 0.10596731E+04</pdfrwt>
<totfact> 0.11348544E+00</totfact>
</mgrwt>
</event>
<event>
 4    1  0.5223852E-007  0.6751193E+03  0.7818608E-02  0.1012231E+00
          2   -1    0    0  501    0  0.00000000000E+00  0.00000000000E+00  0.48532907270E+03  0.48532907270E+03  0.25500000000E-02 0. -1.
         -2   -1    0    0    0  501 -0.00000000000E+00 -0.00000000000E+00 -0.52683404615E+03  0.52683404616E+03  0.25500000000E-02 0.  1.
    8880023    1    1    2    0    0 -0.69453492673E+02 -0.13096583198E+03 -0.24440125678E+03  0.71799583381E+03  0.65864270000E+03 0.  1.
    8880022    1    1    2    0    0  0.69453492673E+02  0.13096583198E+03  0.20289628333E+03  0.29416728505E+03  0.15294330000E+03 0.  0.
<mgrwt>
<rscale>  0 0.50597432E+03</rscale>
<asrwt>0</asrwt>
<pdfrwt beam="1">  1        2 0.74666011E-01 0.67511928E+03</pdfrwt>
<pdfrwt beam="2">  1       -2 0.81051392E-01 0.67511928E+03</pdfrwt>
<totfact> 0.86891555E+01</totfact>
</mgrwt>
</event>
<event>
 4    1  0.5223852E-007  0.7101591E+03  0.7818608E-02  0.9957410E-01
         -2   -1    0    0    0  501 -0.00000000000E+00  0.00000000000E+00  0.22095456266E+03  0.22095456267E+03  0.25500000000E-02 0.  1.
          2   -1    0    0  501    0  0.00000000000E+00 -0.00000000000E+00 -0.27485581961E+04  0.27485581961E+04  0.25500000000E-02 0. -1.
    8880023    1    1    2    0    0 -0.12837632609E+03 -0.23245498614E+03 -0.39028712395E+03  0.81033946409E+03  0.65864270000E+03 0.  1.
    8880022    1    1    2    0    0  0.12837632609E+03  0.23245498614E+03 -0.21373165095E+04  0.21591732947E+04  0.15294330000E+03 0.  0.
<mgrwt>
<rscale>  0 0.57557811E+03</rscale>
<asrwt>0</asrwt>
<pdfrwt beam="1">  1        2 0.42285508E+00 0.71015914E+03</pdfrwt>
<pdfrwt beam="2">  1       -2 0.33993012E-01 0.71015914E+03</pdfrwt>
<totfact> 0.21295612E+01</totfact>
</mgrwt>
</event>
<event>
 4    1  0.5223852E-007  0.9776260E+03  0.7818608E-02  0.9411433E-01
          2   -1    0    0  501    0  0.00000000000E+00  0.00000000000E+00  0.15593700389E+04  0.15593700389E+04  0.25500000000E-02 0. -1.
         -2   -1    0    0    0  501 -0.00000000000E+00 -0.00000000000E+00 -0.96418326810E+03  0.96418326811E+03  0.25500000000E-02 0.  1.
    8880023    1    1    2    0    0  0.59445395355E+03 -0.41056905021E+03 -0.57917215798E+03  0.11363067556E+04  0.65864270000E+03 0.  0.
    8880022    1    1    2    0    0 -0.59445395355E+03  0.41056905021E+03  0.11743589288E+04  0.13872465515E+04  0.15294330000E+03 0.  0.
<mgrwt>
<rscale>  0 0.91140708E+03</rscale>
<asrwt>0</asrwt>
<pdfrwt beam="1">  1        2 0.23990308E+00 0.97762603E+03</pdfrwt>
<pdfrwt beam="2">  1       -2 0.14833589E+00 0.97762603E+03</pdfrwt>
<totfact> 0.36118711E+00</totfact>
</mgrwt>
</event>
<event>
 4    1  0.5223852E-007  0.6763865E+03  0.7818608E-02  0.1011446E+00
         -2   -1    0    0    0  501 -0.00000000000E+00  0.00000000000E+00  0.92466923313E+03  0.92466923313E+03  0.25500000000E-02 0.  1.
          2   -1    0    0  501    0  0.00000000000E+00 -0.00000000000E+00 -0.28927284176E+03  0.28927284177E+03  0.25500000000E-02 0. -1.
    8880023    1    1    2    0    0 -0.13610921199E+03  0.71852014722E+02  0.71367390394E+03  0.98327467019E+03  0.65864270000E+03 0.  1.
    8880022    1    1    2    0    0  0.13610921199E+03 -0.71852014722E+02 -0.78277512572E+02  0.23066740471E+03  0.15294330000E+03 0.  0.
<mgrwt>
<rscale>  0 0.50903873E+03</rscale>
<asrwt>0</asrwt>
<pdfrwt beam="1">  1        2 0.44503514E-01 0.67638645E+03</pdfrwt>
<pdfrwt beam="2">  1       -2 0.14225681E+00 0.67638645E+03</pdfrwt>
<totfact> 0.40024777E+01</totfact>
</mgrwt>
</event>
<event>
 4    1  0.5223852E-007  0.8865303E+03  0.7818608E-02  0.9548010E-01
          2   -1    0    0  501    0  0.00000000000E+00  0.00000000000E+00  0.23577342254E+04  0.23577342254E+04  0.25500000000E-02 0. -1.
         -2   -1    0    0    0  501 -0.00000000000E+00 -0.00000000000E+00 -0.57066555937E+03  0.57066555938E+03  0.25500000000E-02 0.  1.
    8880023    1    1    2    0    0  0.18023251572E+03 -0.56536893889E+03 -0.14783921207E+03  0.89877273861E+03  0.65864270000E+03 0.  1.
    8880022    1    1    2    0    0 -0.18023251572E+03  0.56536893889E+03  0.19349078781E+04  0.20296270461E+04  0.15294330000E+03 0.  0.
<mgrwt>
<rscale>  0 0.80834910E+03</rscale>
<asrwt>0</asrwt>
<pdfrwt beam="1">  1        2 0.36272834E+00 0.88653032E+03</pdfrwt>
<pdfrwt beam="2">  1       -2 0.87794702E-01 0.88653032E+03</pdfrwt>
<totfact> 0.48108497E+00</totfact>
</mgrwt>
</event>
<event>
 4    1  0.5223852E-007  0.9705444E+03  0.7818608E-02  0.9421152E-01
         -2   -1    0    0    0  501 -0.00000000000E+00  0.00000000000E+00  0.10478281274E+04  0.10478281274E+04  0.25500000000E-02 0.  1.
          2   -1    0    0  501    0  0.00000000000E+00 -0.00000000000E+00 -0.11112548260E+04  0.11112548260E+04  0.25500000000E-02 0. -1.
    8880023    1    1    2    0    0  0.26000591023E+02  0.71236937344E+03  0.62660896855E+03  0.11552467964E+04  0.65864270000E+03 0.  1.
    8880022    1    1    2    0    0 -0.26000591023E+02 -0.71236937344E+03 -0.69003566714E+03  0.10038361569E+04  0.15294330000E+03 0.  0.
<mgrwt>
<rscale>  0 0.90355234E+03</rscale>
<asrwt>0</asrwt>
<pdfrwt beam="1">  1        2 0.17096228E+00 0.97054436E+03</pdfrwt>
<pdfrwt beam="2">  1       -2 0.16120433E+00 0.97054436E+03</pdfrwt>
<totfact> 0.52604272E+00</totfact>
</mgrwt>
</event>
<event>
 4    1  0.5223852E-007  0.8169018E+03  0.7818608E-02  0.9675376E-01
         -2   -1    0    0    0  501 -0.00000000000E+00  0.00000000000E+00  0.16534053368E+04  0.16534053368E+04  0.25500000000E-02 0.  1.
          2   -1    0    0  501    0  0.00000000000E+00 -0.00000000000E+00 -0.91644631975E+03  0.91644631975E+03  0.25500000000E-02 0. -1.
    8880023    1    1    2    0    0  0.42932448769E+03  0.22180804473E+03  0.14681757256E+04  0.16801394264E+04  0.65864270000E+03 0.  1.
    8880022    1    1    2    0    0 -0.42932448769E+03 -0.22180804473E+03 -0.73121670864E+03  0.88971223013E+03  0.15294330000E+03 0.  0.
<mgrwt>
<rscale>  0 0.72502003E+03</rscale>
<asrwt>0</asrwt>
<pdfrwt beam="1">  1        2 0.14099174E+00 0.81690179E+03</pdfrwt>
<pdfrwt beam="2">  1       -2 0.25437005E+00 0.81690179E+03</pdfrwt>
<totfact> 0.17662762E+00</totfact>
</mgrwt>
</event>
<event>
 4    1  0.5223852E-007  0.7040287E+03  0.7818608E-02  0.9980882E-01
          2   -1    0    0  501    0  0.00000000000E+00  0.00000000000E+00  0.12501582799E+04  0.12501582799E+04  0.25500000000E-02 0. -1.
         -2   -1    0    0    0  501 -0.00000000000E+00 -0.00000000000E+00 -0.28607536872E+03  0.28607536873E+03  0.25500000000E-02 0.  1.
    8880023    1    1    2    0    0  0.23112697881E+03  0.91796049951E+02  0.10195986119E+04  0.12390471059E+04  0.65864270000E+03 0. -1.
    8880022    1    1    2    0    0 -0.23112697881E+03 -0.91796049951E+02 -0.55515700698E+02  0.29718654269E+03  0.15294330000E+03 0.  0.
<mgrwt>
<rscale>  0 0.56496537E+03</rscale>
<asrwt>0</asrwt>
<pdfrwt beam="1">  1        2 0.19233205E+00 0.70402869E+03</pdfrwt>
<pdfrwt beam="2">  1       -2 0.44011595E-01 0.70402869E+03</pdfrwt>
<totfact> 0.88334005E+01</totfact>
</mgrwt>
</event>
<event>
 4    1  0.5223852E-007  0.9158211E+03  0.7818608E-02  0.9501096E-01
         -2   -1    0    0    0  501 -0.00000000000E+00  0.00000000000E+00  0.20412104120E+03  0.20412104122E+03  0.25500000000E-02 0.  1.
          2   -1    0    0  501    0  0.00000000000E+00 -0.00000000000E+00 -0.32478005169E+04  0.32478005169E+04  0.25500000000E-02 0. -1.
    8880023    1    1    2    0    0 -0.21269805242E+02  0.63597619645E+03 -0.22085757296E+04  0.23909276624E+04  0.65864270000E+03 0.  0.
    8880022    1    1    2    0    0  0.21269805242E+02 -0.63597619645E+03 -0.83510374612E+03  0.10609938958E+04  0.15294330000E+03 0.  0.
<mgrwt>
<rscale>  0 0.84203034E+03</rscale>
<asrwt>0</asrwt>
<pdfrwt beam="1">  1        2 0.49966158E+00 0.91582113E+03</pdfrwt>
<pdfrwt beam="2">  1       -2 0.31403239E-01 0.91582113E+03</pdfrwt>
<totfact> 0.11821709E+01</totfact>
</mgrwt>
</event>
<event>
 4    1  0.5223852E-007  0.8169648E+03  0.7818608E-02  0.9675248E-01
         -2   -1    0    0    0  501 -0.00000000000E+00  0.00000000000E+00  0.73701640398E+03  0.73701640398E+03  0.25500000000E-02 0.  1.
          2   -1    0    0  501    0  0.00000000000E+00 -0.00000000000E+00 -0.15901344023E+04  0.15901344023E+04  0.25500000000E-02 0. -1.
    8880023    1    1    2    0    0 -0.48208733096E+03 -0.34829350021E+02  0.44730410860E+03  0.93140348407E+03  0.65864270000E+03 0.  1.
    8880022    1    1    2    0    0  0.48208733096E+03  0.34829350021E+02 -0.13004221069E+04  0.13957473222E+04  0.15294330000E+03 0.  0.
<mgrwt>
<rscale>  0 0.72509829E+03</rscale>
<asrwt>0</asrwt>
<pdfrwt beam="1">  1        2 0.24463606E+00 0.81696480E+03</pdfrwt>
<pdfrwt beam="2">  1       -2 0.11338714E+00 0.81696480E+03</pdfrwt>
<totfact> 0.70121303E+00</totfact>
</mgrwt>
</event>
<event>
 4    1  0.5223852E-007  0.1097363E+04  0.7818608E-02  0.9263997E-01
          2   -1    0    0  501    0  0.00000000000E+00  0.00000000000E+00  0.79655640834E+03  0.79655640834E+03  0.25500000000E-02 0. -1.
         -2   -1    0    0    0  501 -0.00000000000E+00 -0.00000000000E+00 -0.14427936552E+04  0.14427936552E+04  0.25500000000E-02 0.  1.
    8880023    1    1    2    0    0 -0.55064136539E+03  0.68351316587E+03  0.65062997788E+02  0.10992904808E+04  0.65864270000E+03 0. -1.
    8880022    1    1    2    0    0  0.55064136539E+03 -0.68351316587E+03 -0.71130024466E+03  0.11400595828E+04  0.15294330000E+03 0.  0.
<mgrwt>
<rscale>  0 0.10416598E+04</rscale>
<asrwt>0</asrwt>
<pdfrwt beam="1">  1        2 0.12254714E+00 0.10973634E+04</pdfrwt>
<pdfrwt beam="2">  1       -2 0.22196825E+00 0.10973634E+04</pdfrwt>
<totfact> 0.32764132E+00</totfact>
</mgrwt>
</event>
<event>
 4    1  0.5223852E-007  0.7616232E+03  0.7818608E-02  0.9800923E-01
          2   -1    0    0  501    0  0.00000000000E+00  0.00000000000E+00  0.48866884285E+03  0.48866884286E+03  0.25500000000E-02 0. -1.
         -2   -1    0    0    0  501 -0.00000000000E+00 -0.00000000000E+00 -0.10637704077E+04  0.10637704077E+04  0.25500000000E-02 0.  1.
    8880023    1    1    2    0    0  0.24668957788E+03 -0.29223962152E+03 -0.78191901733E+03  0.10915435402E+04  0.65864270000E+03 0.  1.
    8880022    1    1    2    0    0 -0.24668957788E+03  0.29223962152E+03  0.20681745244E+03  0.46089571041E+03  0.15294330000E+03 0.  0.
<mgrwt>
<rscale>  0 0.65313028E+03</rscale>
<asrwt>0</asrwt>
<pdfrwt beam="1">  1        2 0.75179822E-01 0.76162323E+03</pdfrwt>
<pdfrwt beam="2">  1       -2 0.16365699E+00 0.76162323E+03</pdfrwt>
<totfact> 0.15179089E+01</totfact>
</mgrwt>
</event>
<event>
 4    1  0.5223852E-007  0.8249630E+03  0.7818608E-02  0.9659213E-01
         -2   -1    0    0    0  501 -0.00000000000E+00  0.00000000000E+00  0.16415709807E+03  0.16415709809E+03  0.25500000000E-02 0.  1.
          2   -1    0    0  501    0  0.00000000000E+00 -0.00000000000E+00 -0.31984398681E+04  0.31984398681E+04  0.25500000000E-02 0. -1.
    8880023    1    1    2    0    0 -0.83703910963E+01 -0.49667261258E+03 -0.12008533505E+04  0.14569189144E+04  0.65864270000E+03 0.  0.
    8880022    1    1    2    0    0  0.83703910963E+01  0.49667261258E+03 -0.18334294195E+04  0.19056780518E+04  0.15294330000E+03 0.  0.
<mgrwt>
<rscale>  0 0.73498005E+03</rscale>
<asrwt>0</asrwt>
<pdfrwt beam="1">  1        2 0.49206763E+00 0.82496300E+03</pdfrwt>
<pdfrwt beam="2">  1       -2 0.25254940E-01 0.82496300E+03</pdfrwt>
<totfact> 0.19259741E+01</totfact>
</mgrwt>
</event>
<event>
 4    1  0.5223852E-007  0.6990315E+03  0.7818608E-02  0.1000124E+00
          2   -1    0    0  501    0  0.00000000000E+00  0.00000000000E+00  0.34048819984E+04  0.34048819984E+04  0.25500000000E-02 0. -1.
         -2   -1    0    0    0  501 -0.00000000000E+00 -0.00000000000E+00 -0.17163995566E+03  0.17163995567E+03  0.25500000000E-02 0.  1.
    8880023    1    1    2    0    0 -0.17835759309E+03  0.15173448102E+03  0.57927258305E+03  0.90785555871E+03  0.65864270000E+03 0.  0.
    8880022    1    1    2    0    0  0.17835759309E+03 -0.15173448102E+03  0.26539694597E+04  0.26686663953E+04  0.15294330000E+03 0. -1.
<mgrwt>
<rscale>  0 0.55595768E+03</rscale>
<asrwt>0</asrwt>
<pdfrwt beam="1">  1        2 0.52382802E+00 0.69903147E+03</pdfrwt>
<pdfrwt beam="2">  1       -2 0.26406146E-01 0.69903147E+03</pdfrwt>
<totfact> 0.13323687E+01</totfact>
</mgrwt>
</event>
<event>
 4    1  0.5223852E-007  0.7140120E+03  0.7818608E-02  0.9943394E-01
         -2   -1    0    0    0  501 -0.00000000000E+00  0.00000000000E+00  0.52183685260E+03  0.52183685261E+03  0.25500000000E-02 0.  1.
          2   -1    0    0  501    0  0.00000000000E+00 -0.00000000000E+00 -0.61216241268E+03  0.61216241268E+03  0.25500000000E-02 0. -1.
    8880023    1    1    2    0    0 -0.79267233806E+02  0.26404487310E+03  0.15966218230E+03  0.73164554812E+03  0.65864270000E+03 0.  1.
    8880022    1    1    2    0    0  0.79267233806E+02 -0.26404487310E+03 -0.24998774237E+03  0.40235371717E+03  0.15294330000E+03 0. -1.
<mgrwt>
<rscale>  0 0.58203557E+03</rscale>
<asrwt>0</asrwt>
<pdfrwt beam="1">  1        2 0.94178833E-01 0.71401204E+03</pdfrwt>
<pdfrwt beam="2">  1       -2 0.80282593E-01 0.71401204E+03</pdfrwt>
<totfact> 0.67339232E+01</totfact>
</mgrwt>
</event>
<event>
 4    1  0.5223852E-007  0.7380952E+03  0.7818608E-02  0.9865531E-01
          2   -1    0    0  501    0  0.00000000000E+00  0.00000000000E+00  0.10554449969E+04  0.10554449969E+04  0.25500000000E-02 0. -1.
         -2   -1    0    0    0  501 -0.00000000000E+00 -0.00000000000E+00 -0.60609046154E+03  0.60609046154E+03  0.25500000000E-02 0.  1.
    8880023    1    1    2    0    0  0.48596200571E+02 -0.32956453815E+03 -0.32371593759E+03  0.80596314434E+03  0.65864270000E+03 0.  1.
    8880022    1    1    2    0    0 -0.48596200571E+02  0.32956453815E+03  0.77307047299E+03  0.85557231415E+03  0.15294330000E+03 0.  0.
<mgrwt>
<rscale>  0 0.61961295E+03</rscale>
<asrwt>0</asrwt>
<pdfrwt beam="1">  1        2 0.16237615E+00 0.73809524E+03</pdfrwt>
<pdfrwt beam="2">  1       -2 0.93244686E-01 0.73809524E+03</pdfrwt>
<totfact> 0.23022441E+01</totfact>
</mgrwt>
</event>
<event>
 4    1  0.5223852E-007  0.1242641E+04  0.7818608E-02  0.9116747E-01
          2   -1    0    0  501    0  0.00000000000E+00  0.00000000000E+00  0.17222325548E+04  0.17222325548E+04  0.25500000000E-02 0. -1.
         -2   -1    0    0    0  501 -0.00000000000E+00 -0.00000000000E+00 -0.89316421201E+03  0.89316421202E+03  0.25500000000E-02 0.  1.
    8880023    1    1    2    0    0 -0.68107555721E+02  0.10515264886E+04  0.92089173555E+03  0.15466733302E+04  0.65864270000E+03 0.  0.
    8880022    1    1    2    0    0  0.68107555721E+02 -0.10515264886E+04 -0.91823392804E+02  0.10687234366E+04  0.15294330000E+03 0.  0.
<mgrwt>
<rscale>  0 0.11955655E+04</rscale>
<asrwt>0</asrwt>
<pdfrwt beam="1">  1        2 0.26495885E+00 0.12426411E+04</pdfrwt>
<pdfrwt beam="2">  1       -2 0.13740988E+00 0.12426411E+04</pdfrwt>
<totfact> 0.34825418E+00</totfact>
</mgrwt>
</event>
<event>
 4    1  0.5223852E-007  0.6640571E+03  0.7818608E-02  0.1020338E+00
         -2   -1    0    0    0  501 -0.00000000000E+00  0.00000000000E+00  0.22158610394E+03  0.22158610396E+03  0.25500000000E-02 0.  1.
          2   -1    0    0  501    0  0.00000000000E+00 -0.00000000000E+00 -0.87805678003E+03  0.87805678004E+03  0.25500000000E-02 0. -1.
    8880023    1    1    2    0    0  0.74787278399E+01  0.84295577341E+02 -0.35969419046E+03  0.75521638796E+03  0.65864270000E+03 0.  1.
    8880022    1    1    2    0    0 -0.74787278399E+01 -0.84295577341E+02 -0.29677648564E+03  0.34442649604E+03  0.15294330000E+03 0. -1.
<mgrwt>
<rscale>  0 0.47564880E+03</rscale>
<asrwt>0</asrwt>
<pdfrwt beam="1">  1        2 0.13508566E+00 0.66405714E+03</pdfrwt>
<pdfrwt beam="2">  1       -2 0.34090170E-01 0.66405714E+03</pdfrwt>
<totfact> 0.24770072E+02</totfact>
</mgrwt>
</event>
<event>
 4    1  0.5223852E-007  0.7433836E+03  0.7818608E-02  0.9850198E-01
         -2   -1    0    0    0  501 -0.00000000000E+00  0.00000000000E+00  0.22143643369E+03  0.22143643370E+03  0.25500000000E-02 0.  1.
          2   -1    0    0  501    0  0.00000000000E+00 -0.00000000000E+00 -0.14799468694E+04  0.14799468694E+04  0.25500000000E-02 0. -1.
    8880023    1    1    2    0    0 -0.30092110508E+03 -0.16809364826E+03 -0.99193891155E+03  0.12395813796E+04  0.65864270000E+03 0.  0.
    8880022    1    1    2    0    0  0.30092110508E+03  0.16809364826E+03 -0.26657152415E+03  0.46180192352E+03  0.15294330000E+03 0.  0.
<mgrwt>
<rscale>  0 0.62736810E+03</rscale>
<asrwt>0</asrwt>
<pdfrwt beam="1">  1        2 0.22768413E+00 0.74338361E+03</pdfrwt>
<pdfrwt beam="2">  1       -2 0.34067144E-01 0.74338361E+03</pdfrwt>
<totfact> 0.10701778E+02</totfact>
</mgrwt>
</event>
<event>
 4    1  0.5223852E-007  0.8244581E+03  0.7818608E-02  0.9660213E-01
         -2   -1    0    0    0  501 -0.00000000000E+00  0.00000000000E+00  0.91253467502E+03  0.91253467502E+03  0.25500000000E-02 0.  1.
          2   -1    0    0  501    0  0.00000000000E+00 -0.00000000000E+00 -0.78925976596E+03  0.78925976596E+03  0.25500000000E-02 0. -1.
    8880023    1    1    2    0    0 -0.22009965265E+03  0.44438394411E+03  0.58198018242E+03  0.10091739621E+04  0.65864270000E+03 0.  1.
    8880022    1    1    2    0    0  0.22009965265E+03 -0.44438394411E+03 -0.45870527336E+03  0.69262047884E+03  0.15294330000E+03 0.  0.
<mgrwt>
<rscale>  0 0.73435917E+03</rscale>
<asrwt>0</asrwt>
<pdfrwt beam="1">  1        2 0.12142458E+00 0.82445810E+03</pdfrwt>
<pdfrwt beam="2">  1       -2 0.14038995E+00 0.82445810E+03</pdfrwt>
<totfact> 0.12602289E+01</totfact>
</mgrwt>
</event>
<event>
 4    1  0.5223852E-007  0.9726712E+03  0.7818608E-02  0.9418219E-01
         -2   -1    0    0    0  501 -0.00000000000E+00  0.00000000000E+00  0.19905312420E+04  0.19905312420E+04  0.25500000000E-02 0.  1.
          2   -1    0    0  501    0  0.00000000000E+00 -0.00000000000E+00 -0.88706478341E+03  0.88706478341E+03  0.25500000000E-02 0. -1.
    8880023    1    1    2    0    0 -0.34033195196E+03  0.62964529673E+03  0.16831223396E+04  0.19439624620E+04  0.65864270000E+03 0.  0.
    8880022    1    1    2    0    0  0.34033195196E+03 -0.62964529673E+03 -0.57965588107E+03  0.93363356339E+03  0.15294330000E+03 0.  0.
<mgrwt>
<rscale>  0 0.90591359E+03</rscale>
<asrwt>0</asrwt>
<pdfrwt beam="1">  1        2 0.13647150E+00 0.97267119E+03</pdfrwt>
<pdfrwt beam="2">  1       -2 0.30623558E+00 0.97267119E+03</pdfrwt>
<totfact> 0.87873498E-01</totfact>
</mgrwt>
</event>
<event>
 4    1  0.5223852E-007  0.7755797E+03  0.7818608E-02  0.9766325E-01
         -2   -1    0    0    0  501 -0.00000000000E+00  0.00000000000E+00  0.11304152801E+04  0.11304152801E+04  0.25500000000E-02 0.  1.
          2   -1    0    0  501    0  0.00000000000E+00 -0.00000000000E+00 -0.11095399929E+04  0.11095399929E+04  0.25500000000E-02 0. -1.
    8880023    1    1    2    0    0  0.29568761222E+03  0.28334179905E+03  0.94209504923E+03  0.12202733412E+04  0.65864270000E+03 0.  1.
    8880022    1    1    2    0    0 -0.29568761222E+03 -0.28334179905E+03 -0.92121976204E+03  0.10196819318E+04  0.15294330000E+03 0.  0.
<mgrwt>
<rscale>  0 0.67201499E+03</rscale>
<asrwt>0</asrwt>
<pdfrwt beam="1">  1        2 0.17069846E+00 0.77557975E+03</pdfrwt>
<pdfrwt beam="2">  1       -2 0.17391004E+00 0.77557975E+03</pdfrwt>
<totfact> 0.43775864E+00</totfact>
</mgrwt>
</event>
<event>
 4    1  0.5223852E-007  0.7650159E+03  0.7818608E-02  0.9792291E-01
          2   -1    0    0  501    0  0.00000000000E+00  0.00000000000E+00  0.75252846900E+03  0.75252846900E+03  0.25500000000E-02 0. -1.
         -2   -1    0    0    0  501 -0.00000000000E+00 -0.00000000000E+00 -0.80541240308E+03  0.80541240308E+03  0.25500000000E-02 0.  1.
    8880023    1    1    2    0    0 -0.23201899885E+03  0.31242012752E+03 -0.52458435960E+03  0.92759803175E+03  0.65864270000E+03 0.  0.
    8880022    1    1    2    0    0  0.23201899885E+03 -0.31242012752E+03  0.47170042552E+03  0.63034284033E+03  0.15294330000E+03 0.  0.
<mgrwt>
<rscale>  0 0.65777914E+03</rscale>
<asrwt>0</asrwt>
<pdfrwt beam="1">  1        2 0.11577361E+00 0.76501592E+03</pdfrwt>
<pdfrwt beam="2">  1       -2 0.12390960E+00 0.76501592E+03</pdfrwt>
<totfact> 0.18535941E+01</totfact>
</mgrwt>
</event>
<event>
 4    1  0.5223852E-007  0.9744197E+03  0.7818608E-02  0.9415817E-01
          2   -1    0    0  501    0  0.00000000000E+00  0.00000000000E+00  0.13009075801E+04  0.13009075801E+04  0.25500000000E-02 0. -1.
         -2   -1    0    0    0  501 -0.00000000000E+00 -0.00000000000E+00 -0.78630268422E+03  0.78630268423E+03  0.25500000000E-02 0.  1.
    8880023    1    1    2    0    0  0.61899640416E+03  0.36404249949E+03 -0.27151774737E+03  0.10115411920E+04  0.65864270000E+03 0.  1.
    8880022    1    1    2    0    0 -0.61899640416E+03 -0.36404249949E+03  0.78612264320E+03  0.10756690722E+04  0.15294330000E+03 0.  0.
<mgrwt>
<rscale>  0 0.90785334E+03</rscale>
<asrwt>0</asrwt>
<pdfrwt beam="1">  1        2 0.20013963E+00 0.97441967E+03</pdfrwt>
<pdfrwt beam="2">  1       -2 0.12096964E+00 0.97441967E+03</pdfrwt>
<totfact> 0.85544744E+00</totfact>
</mgrwt>
</event>
<event>
 4    1  0.5223852E-007  0.8451861E+03  0.7818608E-02  0.9620478E-01
         -2   -1    0    0    0  501 -0.00000000000E+00  0.00000000000E+00  0.11131075187E+04  0.11131075187E+04  0.25500000000E-02 0.  1.
          2   -1    0    0  501    0  0.00000000000E+00 -0.00000000000E+00 -0.66012095816E+03  0.66012095816E+03  0.25500000000E-02 0. -1.
    8880023    1    1    2    0    0  0.51876690642E+03  0.10681895473E+03 -0.24857199157E+03  0.88098106310E+03  0.65864270000E+03 0. -1.
    8880022    1    1    2    0    0 -0.51876690642E+03 -0.10681895473E+03  0.70155855206E+03  0.89224741371E+03  0.15294330000E+03 0.  0.
<mgrwt>
<rscale>  0 0.75955525E+03</rscale>
<asrwt>0</asrwt>
<pdfrwt beam="1">  1        2 0.10155707E+00 0.84518613E+03</pdfrwt>
<pdfrwt beam="2">  1       -2 0.17124731E+00 0.84518613E+03</pdfrwt>
<totfact> 0.92731429E+00</totfact>
</mgrwt>
</event>
<event>
 4    1  0.5223852E-007  0.6597805E+03  0.7818608E-02  0.1024382E+00
         -2   -1    0    0    0  501 -0.00000000000E+00  0.00000000000E+00  0.14878848733E+03  0.14878848735E+03  0.25500000000E-02 0.  1.
          2   -1    0    0  501    0  0.00000000000E+00 -0.00000000000E+00 -0.29913116763E+04  0.29913116763E+04  0.25500000000E-02 0. -1.
    8880023    1    1    2    0    0  0.20324253780E+02  0.32969754959E+02 -0.59928551437E+03  0.89132116211E+03  0.65864270000E+03 0.  1.
    8880022    1    1    2    0    0 -0.20324253780E+02 -0.32969754959E+02 -0.22432376746E+04  0.22487790016E+04  0.15294330000E+03 0.  0.
<mgrwt>
<rscale>  0 0.46137758E+03</rscale>
<asrwt>0</asrwt>
<pdfrwt beam="1">  1        2 0.46020175E+00 0.65978048E+03</pdfrwt>
<pdfrwt beam="2">  1       -2 0.22890539E-01 0.65978048E+03</pdfrwt>
<totfact> 0.31775920E+01</totfact>
</mgrwt>
</event>
<event>
 4    1  0.5223852E-007  0.6673090E+03  0.7818608E-02  0.1017670E+00
          2   -1    0    0  501    0  0.00000000000E+00  0.00000000000E+00  0.76478483229E+03  0.76478483229E+03  0.25500000000E-02 0. -1.
         -2   -1    0    0    0  501 -0.00000000000E+00 -0.00000000000E+00 -0.31946285697E+03  0.31946285698E+03  0.25500000000E-02 0.  1.
    8880023    1    1    2    0    0 -0.10710380995E+03 -0.44623500831E+01  0.77590588561E+02  0.67180476656E+03  0.65864270000E+03 0.  0.
    8880022    1    1    2    0    0  0.10710380995E+03  0.44623500831E+01  0.36773138676E+03  0.41244292271E+03  0.15294330000E+03 0.  0.
<mgrwt>
<rscale>  0 0.48536858E+03</rscale>
<asrwt>0</asrwt>
<pdfrwt beam="1">  1        2 0.11765920E+00 0.66730903E+03</pdfrwt>
<pdfrwt beam="2">  1       -2 0.49148132E-01 0.66730903E+03</pdfrwt>
<totfact> 0.14556638E+02</totfact>
</mgrwt>
</event>
<event>
 4    1  0.5223852E-007  0.9112752E+03  0.7818608E-02  0.9508168E-01
          2   -1    0    0  501    0  0.00000000000E+00  0.00000000000E+00  0.23336972557E+04  0.23336972557E+04  0.25500000000E-02 0. -1.
         -2   -1    0    0    0  501 -0.00000000000E+00 -0.00000000000E+00 -0.31485362255E+03  0.31485362256E+03  0.25500000000E-02 0.  1.
    8880023    1    1    2    0    0 -0.18656502663E+03 -0.60150292557E+03  0.60660811353E+03  0.10947126967E+04  0.65864270000E+03 0.  1.
    8880022    1    1    2    0    0  0.18656502663E+03  0.60150292557E+03  0.14122355196E+04  0.15538381815E+04  0.15294330000E+03 0.  0.
<mgrwt>
<rscale>  0 0.83684270E+03</rscale>
<asrwt>0</asrwt>
<pdfrwt beam="1">  1        2 0.35903035E+00 0.91127520E+03</pdfrwt>
<pdfrwt beam="2">  1       -2 0.48439018E-01 0.91127520E+03</pdfrwt>
<totfact> 0.17855054E+01</totfact>
</mgrwt>
</event>
<event>
 4    1  0.5223852E-007  0.7699237E+03  0.7818608E-02  0.9780062E-01
          2   -1    0    0  501    0  0.00000000000E+00  0.00000000000E+00  0.93018627745E+03  0.93018627745E+03  0.25500000000E-02 0. -1.
         -2   -1    0    0    0  501 -0.00000000000E+00 -0.00000000000E+00 -0.68610186264E+03  0.68610186265E+03  0.25500000000E-02 0.  1.
    8880023    1    1    2    0    0  0.27154538441E+03  0.29195100696E+03 -0.38117468590E+03  0.85911386538E+03  0.65864270000E+03 0.  0.
    8880022    1    1    2    0    0 -0.27154538441E+03 -0.29195100696E+03  0.62525910071E+03  0.75717427472E+03  0.15294330000E+03 0.  0.
<mgrwt>
<rscale>  0 0.66443597E+03</rscale>
<asrwt>0</asrwt>
<pdfrwt beam="1">  1        2 0.14310558E+00 0.76992369E+03</pdfrwt>
<pdfrwt beam="2">  1       -2 0.10555413E+00 0.76992369E+03</pdfrwt>
<totfact> 0.20590335E+01</totfact>
</mgrwt>
</event>
<event>
 4    1  0.5223852E-007  0.1084159E+04  0.7818608E-02  0.9278901E-01
         -2   -1    0    0    0  501 -0.00000000000E+00  0.00000000000E+00  0.16011590729E+04  0.16011590729E+04  0.25500000000E-02 0.  1.
          2   -1    0    0  501    0  0.00000000000E+00 -0.00000000000E+00 -0.10234811258E+04  0.10234811258E+04  0.25500000000E-02 0. -1.
    8880023    1    1    2    0    0  0.81864927110E+03  0.26721567868E+03  0.11491537651E+04  0.15798593071E+04  0.65864270000E+03 0.  1.
    8880022    1    1    2    0    0 -0.81864927110E+03 -0.26721567868E+03 -0.57147581792E+03  0.10447808916E+04  0.15294330000E+03 0. -1.
<mgrwt>
<rscale>  0 0.10274867E+04</rscale>
<asrwt>0</asrwt>
<pdfrwt beam="1">  1        2 0.15745864E+00 0.10841591E+04</pdfrwt>
<pdfrwt beam="2">  1       -2 0.24633216E+00 0.10841591E+04</pdfrwt>
<totfact> 0.16244664E+00</totfact>
</mgrwt>
</event>
<event>
 4    1  0.5223852E-007  0.6886038E+03  0.7818608E-02  0.1004823E+00
         -2   -1    0    0    0  501 -0.00000000000E+00  0.00000000000E+00  0.61110188906E+03  0.61110188907E+03  0.25500000000E-02 0.  1.
          2   -1    0    0  501    0  0.00000000000E+00 -0.00000000000E+00 -0.91841081826E+03  0.91841081826E+03  0.25500000000E-02 0. -1.
    8880023    1    1    2    0    0 -0.20032302169E+03  0.15353808608E+02  0.38756913706E+03  0.79018041909E+03  0.65864270000E+03 0.  1.
    8880022    1    1    2    0    0  0.20032302169E+03 -0.15353808608E+02 -0.69487806625E+03  0.73933228824E+03  0.15294330000E+03 0.  0.
<mgrwt>
<rscale>  0 0.53584948E+03</rscale>
<asrwt>0</asrwt>
<pdfrwt beam="1">  1        2 0.14129397E+00 0.68860385E+03</pdfrwt>
<pdfrwt beam="2">  1       -2 0.94015675E-01 0.68860385E+03</pdfrwt>
<totfact> 0.27798595E+01</totfact>
</mgrwt>
</event>
<event>
 4    1  0.5223852E-007  0.1016904E+04  0.7818608E-02  0.9359769E-01
         -2   -1    0    0    0  501 -0.00000000000E+00  0.00000000000E+00  0.75335833064E+03  0.75335833064E+03  0.25500000000E-02 0.  1.
          2   -1    0    0  501    0  0.00000000000E+00 -0.00000000000E+00 -0.14471726360E+04  0.14471726360E+04  0.25500000000E-02 0. -1.
    8880023    1    1    2    0    0 -0.70789018874E+03 -0.31491973921E+03  0.16901310900E+03  0.10308533352E+04  0.65864270000E+03 0.  1.
    8880022    1    1    2    0    0  0.70789018874E+03  0.31491973921E+03 -0.86282741432E+03  0.11696776314E+04  0.15294330000E+03 0.  0.
<mgrwt>
<rscale>  0 0.95461803E+03</rscale>
<asrwt>0</asrwt>
<pdfrwt beam="1">  1        2 0.22264194E+00 0.10169037E+04</pdfrwt>
<pdfrwt beam="2">  1       -2 0.11590128E+00 0.10169037E+04</pdfrwt>
<totfact> 0.78067573E+00</totfact>
</mgrwt>
</event>
<event>
 4    1  0.5223852E-007  0.8796839E+03  0.7818608E-02  0.9559465E-01
         -2   -1    0    0    0  501 -0.00000000000E+00  0.00000000000E+00  0.15569905865E+04  0.15569905865E+04  0.25500000000E-02 0.  1.
          2   -1    0    0  501    0  0.00000000000E+00 -0.00000000000E+00 -0.48263887952E+03  0.48263887952E+03  0.25500000000E-02 0. -1.
    8880023    1    1    2    0    0 -0.15635660575E+03  0.56177060791E+03  0.11324645436E+04  0.14339873615E+04  0.65864270000E+03 0.  1.
    8880022    1    1    2    0    0  0.15635660575E+03 -0.56177060791E+03 -0.58112836563E+02  0.60564210460E+03  0.15294330000E+03 0.  0.
<mgrwt>
<rscale>  0 0.80038120E+03</rscale>
<asrwt>0</asrwt>
<pdfrwt beam="1">  1        2 0.74252136E-01 0.87968393E+03</pdfrwt>
<pdfrwt beam="2">  1       -2 0.23953701E+00 0.87968393E+03</pdfrwt>
<totfact> 0.48378426E+00</totfact>
</mgrwt>
</event>
<event>
 4    1  0.5223852E-007  0.6925993E+03  0.7818608E-02  0.1002941E+00
         -2   -1    0    0    0  501 -0.00000000000E+00  0.00000000000E+00  0.21436544379E+03  0.21436544380E+03  0.25500000000E-02 0.  1.
          2   -1    0    0  501    0  0.00000000000E+00 -0.00000000000E+00 -0.22899130900E+04  0.22899130900E+04  0.25500000000E-02 0. -1.
    8880023    1    1    2    0    0 -0.71555965715E+02  0.20189939389E+03 -0.38310942678E+03  0.79149646912E+03  0.65864270000E+03 0.  1.
    8880022    1    1    2    0    0  0.71555965715E+02 -0.20189939389E+03 -0.16924382195E+04  0.17127820647E+04  0.15294330000E+03 0.  0.
<mgrwt>
<rscale>  0 0.54379327E+03</rscale>
<asrwt>0</asrwt>
<pdfrwt beam="1">  1        2 0.35229430E+00 0.69259933E+03</pdfrwt>
<pdfrwt beam="2">  1       -2 0.32979301E-01 0.69259933E+03</pdfrwt>
<totfact> 0.41189183E+01</totfact>
</mgrwt>
</event>
<event>
 4    1  0.5223852E-007  0.8473887E+03  0.7818608E-02  0.9616403E-01
         -2   -1    0    0    0  501 -0.00000000000E+00  0.00000000000E+00  0.45422280015E+03  0.45422280016E+03  0.25500000000E-02 0.  1.
          2   -1    0    0  501    0  0.00000000000E+00 -0.00000000000E+00 -0.16595073122E+04  0.16595073122E+04  0.25500000000E-02 0. -1.
    8880023    1    1    2    0    0  0.16341192406E+03  0.50749768874E+03 -0.70097514534E+02  0.85028302865E+03  0.65864270000E+03 0.  0.
    8880022    1    1    2    0    0 -0.16341192406E+03 -0.50749768874E+03 -0.11351869975E+04  0.12634470837E+04  0.15294330000E+03 0.  0.
<mgrwt>
<rscale>  0 0.76219998E+03</rscale>
<asrwt>0</asrwt>
<pdfrwt beam="1">  1        2 0.25530881E+00 0.84738868E+03</pdfrwt>
<pdfrwt beam="2">  1       -2 0.69880432E-01 0.84738868E+03</pdfrwt>
<totfact> 0.19564166E+01</totfact>
</mgrwt>
</event>
<event>
 4    1  0.5223852E-007  0.1228397E+04  0.7818608E-02  0.9130001E-01
          2   -1    0    0  501    0  0.00000000000E+00  0.00000000000E+00  0.19399173497E+04  0.19399173497E+04  0.25500000000E-02 0. -1.
         -2   -1    0    0    0  501 -0.00000000000E+00 -0.00000000000E+00 -0.10230416191E+04  0.10230416191E+04  0.25500000000E-02 0.  1.
    8880023    1    1    2    0    0  0.14020781311E+03  0.10273707041E+04  0.13532502938E+04  0.18276338141E+04  0.65864270000E+03 0.  0.
    8880022    1    1    2    0    0 -0.14020781311E+03 -0.10273707041E+04 -0.43637456312E+03  0.11353251547E+04  0.15294330000E+03 0.  0.
<mgrwt>
<rscale>  0 0.11806089E+04</rscale>
<asrwt>0</asrwt>
<pdfrwt beam="1">  1        2 0.29844882E+00 0.12283969E+04</pdfrwt>
<pdfrwt beam="2">  1       -2 0.15739102E+00 0.12283969E+04</pdfrwt>
<totfact> 0.18424244E+00</totfact>
</mgrwt>
</event>
<event>
 4    1  0.5223852E-007  0.1038215E+04  0.7818608E-02  0.9333185E-01
          2   -1    0    0  501    0  0.00000000000E+00  0.00000000000E+00  0.15879690308E+04  0.15879690308E+04  0.25500000000E-02 0. -1.
         -2   -1    0    0    0  501 -0.00000000000E+00 -0.00000000000E+00 -0.66524256292E+03  0.66524256293E+03  0.25500000000E-02 0.  1.
    8880023    1    1    2    0    0 -0.19993708611E+03 -0.77724152722E+03  0.23791144878E+02  0.10384870990E+04  0.65864270000E+03 0.  0.
    8880022    1    1    2    0    0  0.19993708611E+03  0.77724152722E+03  0.89893532299E+03  0.12147244947E+04  0.15294330000E+03 0.  0.
<mgrwt>
<rscale>  0 0.97784354E+03</rscale>
<asrwt>0</asrwt>
<pdfrwt beam="1">  1        2 0.24430293E+00 0.10382145E+04</pdfrwt>
<pdfrwt beam="2">  1       -2 0.10234501E+00 0.10382145E+04</pdfrwt>
<totfact> 0.87822902E+00</totfact>
</mgrwt>
</event>
<event>
 4    1  0.5223852E-007  0.8067215E+03  0.7818608E-02  0.9696447E-01
         -2   -1    0    0    0  501 -0.00000000000E+00  0.00000000000E+00  0.59164921270E+03  0.59164921271E+03  0.25500000000E-02 0.  1.
          2   -1    0    0  501    0  0.00000000000E+00 -0.00000000000E+00 -0.10006491800E+04  0.10006491800E+04  0.25500000000E-02 0. -1.
    8880023    1    1    2    0    0  0.13860364365E+03  0.44472287293E+03  0.17937429397E+03  0.82642286230E+03  0.65864270000E+03 0.  1.
    8880022    1    1    2    0    0 -0.13860364365E+03 -0.44472287293E+03 -0.58837426125E+03  0.76587553039E+03  0.15294330000E+03 0.  0.
<mgrwt>
<rscale>  0 0.71228740E+03</rscale>
<asrwt>0</asrwt>
<pdfrwt beam="1">  1        2 0.15394603E+00 0.80672152E+03</pdfrwt>
<pdfrwt beam="2">  1       -2 0.91022956E-01 0.80672152E+03</pdfrwt>
<totfact> 0.26187024E+01</totfact>
</mgrwt>
</event>
<event>
 4    1  0.5223852E-007  0.8688557E+03  0.7818608E-02  0.9578001E-01
         -2   -1    0    0    0  501 -0.00000000000E+00  0.00000000000E+00  0.13951264154E+04  0.13951264154E+04  0.25500000000E-02 0.  1.
          2   -1    0    0  501    0  0.00000000000E+00 -0.00000000000E+00 -0.40259277568E+03  0.40259277569E+03  0.25500000000E-02 0. -1.
    8880023    1    1    2    0    0  0.52580296493E+03  0.21126092192E+03  0.79710649634E+03  0.11791051301E+04  0.65864270000E+03 0.  0.
    8880022    1    1    2    0    0 -0.52580296493E+03 -0.21126092192E+03  0.19542714336E+03  0.61861406097E+03  0.15294330000E+03 0.  0.
<mgrwt>
<rscale>  0 0.78769493E+03</rscale>
<asrwt>0</asrwt>
<pdfrwt beam="1">  1        2 0.61937349E-01 0.86885565E+03</pdfrwt>
<pdfrwt beam="2">  1       -2 0.21463484E+00 0.86885565E+03</pdfrwt>
<totfact> 0.85161820E+00</totfact>
</mgrwt>
</event>
<event>
 4    1  0.5223852E-007  0.7073946E+03  0.7818608E-02  0.9967806E-01
          2   -1    0    0  501    0  0.00000000000E+00  0.00000000000E+00  0.54685356127E+03  0.54685356128E+03  0.25500000000E-02 0. -1.
         -2   -1    0    0    0  501 -0.00000000000E+00 -0.00000000000E+00 -0.10537434580E+04  0.10537434580E+04  0.25500000000E-02 0.  1.
    8880023    1    1    2    0    0  0.23982361563E+03 -0.95297063613E+02 -0.87535699661E+03  0.11254585620E+04  0.65864270000E+03 0.  1.
    8880022    1    1    2    0    0 -0.23982361563E+03  0.95297063613E+02  0.36846709985E+03  0.47513845733E+03  0.15294330000E+03 0.  0.
<mgrwt>
<rscale>  0 0.57084698E+03</rscale>
<asrwt>0</asrwt>
<pdfrwt beam="1">  1        2 0.84131317E-01 0.70739459E+03</pdfrwt>
<pdfrwt beam="2">  1       -2 0.16211438E+00 0.70739459E+03</pdfrwt>
<totfact> 0.13730743E+01</totfact>
</mgrwt>
</event>
<event>
 4    1  0.5223852E-007  0.7041968E+03  0.7818608E-02  0.9980217E-01
         -2   -1    0    0    0  501 -0.00000000000E+00  0.00000000000E+00  0.20983975285E+03  0.20983975286E+03  0.25500000000E-02 0.  1.
          2   -1    0    0  501    0  0.00000000000E+00 -0.00000000000E+00 -0.25635407582E+04  0.25635407582E+04  0.25500000000E-02 0. -1.
    8880023    1    1    2    0    0 -0.12046658025E+03 -0.21810705945E+03 -0.42470436647E+03  0.82235448044E+03  0.65864270000E+03 0.  0.
    8880022    1    1    2    0    0  0.12046658025E+03  0.21810705945E+03 -0.19289966389E+04  0.19510260306E+04  0.15294330000E+03 0.  0.
<mgrwt>
<rscale>  0 0.56526243E+03</rscale>
<asrwt>0</asrwt>
<pdfrwt beam="1">  1        2 0.39439086E+00 0.70419677E+03</pdfrwt>
<pdfrwt beam="2">  1       -2 0.32283041E-01 0.70419677E+03</pdfrwt>
<totfact> 0.30048993E+01</totfact>
</mgrwt>
</event>
<event>
 4    1  0.5223852E-007  0.7125937E+03  0.7818608E-02  0.9948493E-01
         -2   -1    0    0    0  501 -0.00000000000E+00  0.00000000000E+00  0.59909299139E+03  0.59909299140E+03  0.25500000000E-02 0.  1.
          2   -1    0    0  501    0  0.00000000000E+00 -0.00000000000E+00 -0.98866484236E+03  0.98866484236E+03  0.25500000000E-02 0. -1.
    8880023    1    1    2    0    0 -0.27179892111E+03 -0.10240847329E+02  0.34347952449E+03  0.79105494024E+03  0.65864270000E+03 0.  1.
    8880022    1    1    2    0    0  0.27179892111E+03  0.10240847329E+02 -0.73305137546E+03  0.79670289352E+03  0.15294330000E+03 0.  0.
<mgrwt>
<rscale>  0 0.57967594E+03</rscale>
<asrwt>0</asrwt>
<pdfrwt beam="1">  1        2 0.15210228E+00 0.71259367E+03</pdfrwt>
<pdfrwt beam="2">  1       -2 0.92168152E-01 0.71259367E+03</pdfrwt>
<totfact> 0.26132029E+01</totfact>
</mgrwt>
</event>
<event>
 4    1  0.5223852E-007  0.1016990E+04  0.7818608E-02  0.9359659E-01
          2   -1    0    0  501    0  0.00000000000E+00  0.00000000000E+00  0.14248272960E+04  0.14248272960E+04  0.25500000000E-02 0. -1.
         -2   -1    0    0    0  501 -0.00000000000E+00 -0.00000000000E+00 -0.11966977376E+04  0.11966977376E+04  0.25500000000E-02 0.  1.
    8880023    1    1    2    0    0 -0.59151099899E+03 -0.50057311396E+03 -0.82190424963E+03  0.13075914906E+04  0.65864270000E+03 0.  0.
    8880022    1    1    2    0    0  0.59151099899E+03  0.50057311396E+03  0.10500338081E+04  0.13139335430E+04  0.15294330000E+03 0.  0.
<mgrwt>
<rscale>  0 0.95471249E+03</rscale>
<asrwt>0</asrwt>
<pdfrwt beam="1">  1        2 0.21920420E+00 0.10169901E+04</pdfrwt>
<pdfrwt beam="2">  1       -2 0.18410734E+00 0.10169901E+04</pdfrwt>
<totfact> 0.23567622E+00</totfact>
</mgrwt>
</event>
<event>
 4    1  0.8581678E-007  0.1069614E+04  0.7818608E-02  0.9295666E-01
         -2   -1    0    0    0  501 -0.00000000000E+00  0.00000000000E+00  0.13635249684E+04  0.13635249684E+04  0.25500000000E-02 0.  1.
          2   -1    0    0  501    0  0.00000000000E+00 -0.00000000000E+00 -0.18949723197E+04  0.18949723197E+04  0.25500000000E-02 0. -1.
    8880023    1    1    2    0    0  0.72696963477E+03  0.42635557167E+03  0.10253063556E+04  0.14816636773E+04  0.65864270000E+03 0.  1.
    8880022    1    1    2    0    0 -0.72696963477E+03 -0.42635557167E+03 -0.15567537070E+04  0.17768336108E+04  0.15294330000E+03 0.  0.
<mgrwt>
<rscale>  0 0.10118283E+04</rscale>
<asrwt>0</asrwt>
<pdfrwt beam="1">  1        2 0.29153420E+00 0.10696140E+04</pdfrwt>
<pdfrwt beam="2">  1       -2 0.20977307E+00 0.10696140E+04</pdfrwt>
<totfact> 0.86736836E-01</totfact>
</mgrwt>
</event>
<event>
 4    1  0.5223852E-007  0.8344887E+03  0.7818608E-02  0.9640661E-01
          2   -1    0    0  501    0  0.00000000000E+00  0.00000000000E+00  0.16851089070E+04  0.16851089070E+04  0.25500000000E-02 0. -1.
         -2   -1    0    0    0  501 -0.00000000000E+00 -0.00000000000E+00 -0.64232367528E+03  0.64232367528E+03  0.25500000000E-02 0.  1.
    8880023    1    1    2    0    0 -0.51127885670E+03 -0.33988018140E+02 -0.29629396367E+03  0.88552897968E+03  0.65864270000E+03 0.  0.
    8880022    1    1    2    0    0  0.51127885670E+03  0.33988018140E+02  0.13390791954E+04  0.14419036026E+04  0.15294330000E+03 0.  0.
<mgrwt>
<rscale>  0 0.74662440E+03</rscale>
<asrwt>0</asrwt>
<pdfrwt beam="1">  1        2 0.25924752E+00 0.83448874E+03</pdfrwt>
<pdfrwt beam="2">  1       -2 0.98819027E-01 0.83448874E+03</pdfrwt>
<totfact> 0.86332376E+00</totfact>
</mgrwt>
</event>
<event>
 4    1  0.5223852E-007  0.7714459E+03  0.7818608E-02  0.9776328E-01
          2   -1    0    0  501    0  0.00000000000E+00  0.00000000000E+00  0.32864255744E+04  0.32864255744E+04  0.25500000000E-02 0. -1.
         -2   -1    0    0    0  501 -0.00000000000E+00 -0.00000000000E+00 -0.16843708041E+03  0.16843708043E+03  0.25500000000E-02 0.  1.
    8880023    1    1    2    0    0 -0.21376041027E+02  0.40107552826E+03  0.85567928708E+03  0.11520919074E+04  0.65864270000E+03 0.  1.
    8880022    1    1    2    0    0  0.21376041027E+02 -0.40107552826E+03  0.22623092069E+04  0.23027707475E+04  0.15294330000E+03 0.  0.
<mgrwt>
<rscale>  0 0.66648509E+03</rscale>
<asrwt>0</asrwt>
<pdfrwt beam="1">  1        2 0.50560394E+00 0.77144586E+03</pdfrwt>
<pdfrwt beam="2">  1       -2 0.25913397E-01 0.77144586E+03</pdfrwt>
<totfact> 0.16276176E+01</totfact>
</mgrwt>
</event>
<event>
 4    1  0.5223852E-007  0.1111460E+04  0.7818608E-02  0.9248403E-01
          2   -1    0    0  501    0  0.00000000000E+00  0.00000000000E+00  0.19404567019E+04  0.19404567020E+04  0.25500000000E-02 0. -1.
         -2   -1    0    0    0  501 -0.00000000000E+00 -0.00000000000E+00 -0.80954007186E+03  0.80954007186E+03  0.25500000000E-02 0.  1.
    8880023    1    1    2    0    0 -0.27722310125E+03  0.85128129435E+03 -0.20931911951E+03  0.11309983157E+04  0.65864270000E+03 0. -1.
    8880022    1    1    2    0    0  0.27722310125E+03 -0.85128129435E+03  0.13402357496E+04  0.16189984582E+04  0.15294330000E+03 0.  0.
<mgrwt>
<rscale>  0 0.10567495E+04</rscale>
<asrwt>0</asrwt>
<pdfrwt beam="1">  1        2 0.29853179E+00 0.11114597E+04</pdfrwt>
<pdfrwt beam="2">  1       -2 0.12454463E+00 0.11114597E+04</pdfrwt>
<totfact> 0.34363113E+00</totfact>
</mgrwt>
</event>
<event>
 4    1  0.5223852E-007  0.7418155E+03  0.7818608E-02  0.9854690E-01
         -2   -1    0    0    0  501 -0.00000000000E+00  0.00000000000E+00  0.91683196530E+03  0.91683196530E+03  0.25500000000E-02 0.  1.
          2   -1    0    0  501    0  0.00000000000E+00 -0.00000000000E+00 -0.13648213862E+04  0.13648213862E+04  0.25500000000E-02 0. -1.
    8880023    1    1    2    0    0 -0.23334628430E+03  0.24905740858E+03  0.73299383982E+03  0.10428663657E+04  0.65864270000E+03 0.  1.
    8880022    1    1    2    0    0  0.23334628430E+03 -0.24905740858E+03 -0.11809832607E+04  0.12387869858E+04  0.15294330000E+03 0.  0.
<mgrwt>
<rscale>  0 0.62508372E+03</rscale>
<asrwt>0</asrwt>
<pdfrwt beam="1">  1        2 0.20997252E+00 0.74181553E+03</pdfrwt>
<pdfrwt beam="2">  1       -2 0.14105107E+00 0.74181553E+03</pdfrwt>
<totfact> 0.54718029E+00</totfact>
</mgrwt>
</event>
<event>
 4    1  0.5223852E-007  0.6814227E+03  0.7818608E-02  0.1008530E+00
          2   -1    0    0  501    0  0.00000000000E+00  0.00000000000E+00  0.22070594166E+03  0.22070594168E+03  0.25500000000E-02 0. -1.
         -2   -1    0    0    0  501 -0.00000000000E+00 -0.00000000000E+00 -0.14035871493E+04  0.14035871493E+04  0.25500000000E-02 0.  1.
    8880023    1    1    2    0    0 -0.61122404419E+02 -0.16367878860E+03 -0.12118458154E+04  0.13902903224E+04  0.65864270000E+03 0.  1.
    8880022    1    1    2    0    0  0.61122404419E+02  0.16367878860E+03  0.28964607754E+02  0.23400276852E+03  0.15294330000E+03 0.  0.
<mgrwt>
<rscale>  0 0.52063040E+03</rscale>
<asrwt>0</asrwt>
<pdfrwt beam="1">  1        2 0.33954761E-01 0.68142270E+03</pdfrwt>
<pdfrwt beam="2">  1       -2 0.21593648E+00 0.68142270E+03</pdfrwt>
<totfact> 0.16651046E+01</totfact>
</mgrwt>
</event>
<event>
 4    1  0.5223852E-007  0.6694358E+03  0.7818608E-02  0.1016071E+00
          2   -1    0    0  501    0  0.00000000000E+00  0.00000000000E+00  0.91920155064E+03  0.91920155065E+03  0.25500000000E-02 0. -1.
         -2   -1    0    0    0  501 -0.00000000000E+00 -0.00000000000E+00 -0.67665615841E+03  0.67665615841E+03  0.25500000000E-02 0.  1.
    8880023    1    1    2    0    0  0.10639354633E+03 -0.54904686457E+02 -0.49538282939E+03  0.83279557228E+03  0.65864270000E+03 0.  1.
    8880022    1    1    2    0    0 -0.10639354633E+03  0.54904686457E+02  0.73792822163E+03  0.76306213678E+03  0.15294330000E+03 0.  0.
<mgrwt>
<rscale>  0 0.49131663E+03</rscale>
<asrwt>0</asrwt>
<pdfrwt beam="1">  1        2 0.14141562E+00 0.66943582E+03</pdfrwt>
<pdfrwt beam="2">  1       -2 0.10410095E+00 0.66943582E+03</pdfrwt>
<totfact> 0.21876084E+01</totfact>
</mgrwt>
</event>
<event>
 4    1  0.5223852E-007  0.7247293E+03  0.7818608E-02  0.9906897E-01
         -2   -1    0    0    0  501 -0.00000000000E+00  0.00000000000E+00  0.26194638367E+03  0.26194638368E+03  0.25500000000E-02 0.  1.
          2   -1    0    0  501    0  0.00000000000E+00 -0.00000000000E+00 -0.12431615727E+04  0.12431615727E+04  0.25500000000E-02 0. -1.
    8880023    1    1    2    0    0  0.19513554944E+03  0.23096430556E+03 -0.38829335729E+03  0.82219482526E+03  0.65864270000E+03 0.  0.
    8880022    1    1    2    0    0 -0.19513554944E+03 -0.23096430556E+03 -0.59292183176E+03  0.68291313115E+03  0.15294330000E+03 0.  0.
<mgrwt>
<rscale>  0 0.59928203E+03</rscale>
<asrwt>0</asrwt>
<pdfrwt beam="1">  1        2 0.19125562E+00 0.72472933E+03</pdfrwt>
<pdfrwt beam="2">  1       -2 0.40299444E-01 0.72472933E+03</pdfrwt>
<totfact> 0.10585833E+02</totfact>
</mgrwt>
</event>
<event>
 4    1  0.5223852E-007  0.6992928E+03  0.7818608E-02  0.1000015E+00
          2   -1    0    0  501    0  0.00000000000E+00  0.00000000000E+00  0.31209825264E+04  0.31209825264E+04  0.25500000000E-02 0. -1.
         -2   -1    0    0    0  501 -0.00000000000E+00 -0.00000000000E+00 -0.12730529853E+03  0.12730529856E+03  0.25500000000E-02 0.  1.
    8880023    1    1    2    0    0 -0.17686136838E+03 -0.15466178846E+03  0.91924646333E+03  0.11549997745E+04  0.65864270000E+03 0.  1.
    8880022    1    1    2    0    0  0.17686136838E+03  0.15466178846E+03  0.20744307646E+04  0.20932880505E+04  0.15294330000E+03 0.  0.
<mgrwt>
<rscale>  0 0.55643763E+03</rscale>
<asrwt>0</asrwt>
<pdfrwt beam="1">  1        2 0.48015114E+00 0.69929280E+03</pdfrwt>
<pdfrwt beam="2">  1       -2 0.19585431E-01 0.69929280E+03</pdfrwt>
<totfact> 0.34545092E+01</totfact>
</mgrwt>
</event>
<event>
 4    1  0.5223852E-007  0.6745773E+03  0.7818608E-02  0.1012574E+00
          2   -1    0    0  501    0  0.00000000000E+00  0.00000000000E+00  0.32054410903E+04  0.32054410903E+04  0.25500000000E-02 0. -1.
         -2   -1    0    0    0  501 -0.00000000000E+00 -0.00000000000E+00 -0.19301323370E+03  0.19301323372E+03  0.25500000000E-02 0.  1.
    8880023    1    1    2    0    0 -0.11796100245E+03  0.85612860102E+02  0.41407332607E+03  0.79152465883E+03  0.65864270000E+03 0.  1.
    8880022    1    1    2    0    0  0.11796100245E+03 -0.85612860102E+02  0.25983545306E+04  0.26069296652E+04  0.15294330000E+03 0.  0.
<mgrwt>
<rscale>  0 0.50464326E+03</rscale>
<asrwt>0</asrwt>
<pdfrwt beam="1">  1        2 0.49314475E+00 0.67457732E+03</pdfrwt>
<pdfrwt beam="2">  1       -2 0.29694346E-01 0.67457732E+03</pdfrwt>
<totfact> 0.14551939E+01</totfact>
</mgrwt>
</event>
<event>
 4    1  0.5223852E-007  0.7663475E+03  0.7818608E-02  0.9788943E-01
          2   -1    0    0  501    0  0.00000000000E+00  0.00000000000E+00  0.24903217275E+04  0.24903217275E+04  0.25500000000E-02 0. -1.
         -2   -1    0    0    0  501 -0.00000000000E+00 -0.00000000000E+00 -0.15517005535E+03  0.15517005537E+03  0.25500000000E-02 0.  1.
    8880023    1    1    2    0    0  0.28286672340E+03 -0.27104371475E+03  0.10994080066E+04  0.13401441899E+04  0.65864270000E+03 0.  1.
    8880022    1    1    2    0    0 -0.28286672340E+03  0.27104371475E+03  0.12357436655E+04  0.13053475929E+04  0.15294330000E+03 0.  0.
<mgrwt>
<rscale>  0 0.65959303E+03</rscale>
<asrwt>0</asrwt>
<pdfrwt beam="1">  1        2 0.38312640E+00 0.76634750E+03</pdfrwt>
<pdfrwt beam="2">  1       -2 0.23872318E-01 0.76634750E+03</pdfrwt>
<totfact> 0.57015520E+01</totfact>
</mgrwt>
</event>
<event>
 4    1  0.5223852E-007  0.7036668E+03  0.7818608E-02  0.9982317E-01
         -2   -1    0    0    0  501 -0.00000000000E+00  0.00000000000E+00  0.39762487480E+03  0.39762487481E+03  0.25500000000E-02 0.  1.
          2   -1    0    0  501    0  0.00000000000E+00 -0.00000000000E+00 -0.69024449971E+03  0.69024449972E+03  0.25500000000E-02 0. -1.
    8880023    1    1    2    0    0  0.19001059998E+03  0.15884819153E+03 -0.43961459135E+02  0.70503871682E+03  0.65864270000E+03 0.  0.
    8880022    1    1    2    0    0 -0.19001059998E+03 -0.15884819153E+03 -0.24865816578E+03  0.38283065771E+03  0.15294330000E+03 0.  0.
<mgrwt>
<rscale>  0 0.56432455E+03</rscale>
<asrwt>0</asrwt>
<pdfrwt beam="1">  1        2 0.10619146E+00 0.70366681E+03</pdfrwt>
<pdfrwt beam="2">  1       -2 0.61173057E-01 0.70366681E+03</pdfrwt>
<totfact> 0.10518909E+02</totfact>
</mgrwt>
</event>
<event>
 4    1  0.5223852E-007  0.1037596E+04  0.7818608E-02  0.9333943E-01
         -2   -1    0    0    0  501 -0.00000000000E+00  0.00000000000E+00  0.42149169134E+03  0.42149169135E+03  0.25500000000E-02 0.  1.
          2   -1    0    0  501    0  0.00000000000E+00 -0.00000000000E+00 -0.23772385852E+04  0.23772385852E+04  0.25500000000E-02 0. -1.
    8880023    1    1    2    0    0 -0.79572057212E+03  0.98102795794E+02 -0.55288861327E+03  0.11757088978E+04  0.65864270000E+03 0.  0.
    8880022    1    1    2    0    0  0.79572057212E+03 -0.98102795794E+02 -0.14028582806E+04  0.16230213788E+04  0.15294330000E+03 0.  0.
<mgrwt>
<rscale>  0 0.97717143E+03</rscale>
<asrwt>0</asrwt>
<pdfrwt beam="1">  1        2 0.36572901E+00 0.10375961E+04</pdfrwt>
<pdfrwt beam="2">  1       -2 0.64844877E-01 0.10375961E+04</pdfrwt>
<totfact> 0.90314836E+00</totfact>
</mgrwt>
</event>
<event>
 4    1  0.5223852E-007  0.9061844E+03  0.7818608E-02  0.9516176E-01
          2   -1    0    0  501    0  0.00000000000E+00  0.00000000000E+00  0.20236982513E+04  0.20236982513E+04  0.25500000000E-02 0. -1.
         -2   -1    0    0    0  501 -0.00000000000E+00 -0.00000000000E+00 -0.31768111778E+03  0.31768111779E+03  0.25500000000E-02 0.  1.
    8880023    1    1    2    0    0 -0.60296655495E+02  0.61945479047E+03  0.68530808321E+03  0.11361414081E+04  0.65864270000E+03 0.  0.
    8880022    1    1    2    0    0  0.60296655495E+02 -0.61945479047E+03  0.10207090503E+04  0.12052379609E+04  0.15294330000E+03 0.  0.
<mgrwt>
<rscale>  0 0.83101686E+03</rscale>
<asrwt>0</asrwt>
<pdfrwt beam="1">  1        2 0.31133819E+00 0.90618438E+03</pdfrwt>
<pdfrwt beam="2">  1       -2 0.48874019E-01 0.90618438E+03</pdfrwt>
<totfact> 0.26057848E+01</totfact>
</mgrwt>
</event>
<event>
 4    1  0.5223852E-007  0.7803786E+03  0.7818608E-02  0.9754948E-01
         -2   -1    0    0    0  501 -0.00000000000E+00  0.00000000000E+00  0.26807940462E+03  0.26807940463E+03  0.25500000000E-02 0.  1.
          2   -1    0    0  501    0  0.00000000000E+00 -0.00000000000E+00 -0.21309141052E+04  0.21309141052E+04  0.25500000000E-02 0. -1.
    8880023    1    1    2    0    0 -0.19358720796E+03 -0.37108564608E+03 -0.41444401359E+03  0.88360319741E+03  0.65864270000E+03 0.  1.
    8880022    1    1    2    0    0  0.19358720796E+03  0.37108564608E+03 -0.14483906870E+04  0.15153903124E+04  0.15294330000E+03 0.  0.
<mgrwt>
<rscale>  0 0.67837343E+03</rscale>
<asrwt>0</asrwt>
<pdfrwt beam="1">  1        2 0.32783293E+00 0.78037861E+03</pdfrwt>
<pdfrwt beam="2">  1       -2 0.41242987E-01 0.78037861E+03</pdfrwt>
<totfact> 0.32411374E+01</totfact>
</mgrwt>
</event>
<event>
 4    1  0.5223852E-007  0.6950749E+03  0.7818608E-02  0.1001828E+00
         -2   -1    0    0    0  501 -0.00000000000E+00  0.00000000000E+00  0.36372917098E+03  0.36372917099E+03  0.25500000000E-02 0.  1.
          2   -1    0    0  501    0  0.00000000000E+00 -0.00000000000E+00 -0.21549846502E+04  0.21549846502E+04  0.25500000000E-02 0. -1.
    8880023    1    1    2    0    0 -0.21291042769E+03 -0.63151287647E+02  0.12228910680E+02  0.69518248530E+03  0.65864270000E+03 0.  1.
    8880022    1    1    2    0    0  0.21291042769E+03  0.63151287647E+02 -0.18034843899E+04  0.18235313359E+04  0.15294330000E+03 0.  0.
<mgrwt>
<rscale>  0 0.54855910E+03</rscale>
<asrwt>0</asrwt>
<pdfrwt beam="1">  1        2 0.33153609E+00 0.69507492E+03</pdfrwt>
<pdfrwt beam="2">  1       -2 0.55958335E-01 0.69507492E+03</pdfrwt>
<totfact> 0.17182363E+01</totfact>
</mgrwt>
</event>
<event>
 4    1  0.5223852E-007  0.7588335E+03  0.7818608E-02  0.9808137E-01
          2   -1    0    0  501    0  0.00000000000E+00  0.00000000000E+00  0.58411776295E+03  0.58411776295E+03  0.25500000000E-02 0. -1.
         -2   -1    0    0    0  501 -0.00000000000E+00 -0.00000000000E+00 -0.94485694286E+03  0.94485694287E+03  0.25500000000E-02 0.  1.
    8880023    1    1    2    0    0 -0.27031156112E+03 -0.26258290852E+03  0.24672221738E+03  0.79793494894E+03  0.65864270000E+03 0. -1.
    8880022    1    1    2    0    0  0.27031156112E+03  0.26258290852E+03 -0.60746139730E+03  0.73103975688E+03  0.15294330000E+03 0.  0.
<mgrwt>
<rscale>  0 0.64927702E+03</rscale>
<asrwt>0</asrwt>
<pdfrwt beam="1">  1        2 0.89864271E-01 0.75883353E+03</pdfrwt>
<pdfrwt beam="2">  1       -2 0.14536261E+00 0.75883353E+03</pdfrwt>
<totfact> 0.16896531E+01</totfact>
</mgrwt>
</event>
<event>
 4    1  0.5223852E-007  0.8562867E+03  0.7818608E-02  0.9600203E-01
         -2   -1    0    0    0  501 -0.00000000000E+00  0.00000000000E+00  0.18206075118E+04  0.18206075118E+04  0.25500000000E-02 0.  1.
          2   -1    0    0  501    0  0.00000000000E+00 -0.00000000000E+00 -0.10967372726E+04  0.10967372726E+04  0.25500000000E-02 0. -1.
    8880023    1    1    2    0    0  0.50485066730E+03  0.21105079931E+03  0.16338033530E+04  0.18445975817E+04  0.65864270000E+03 0.  0.
    8880022    1    1    2    0    0 -0.50485066730E+03 -0.21105079931E+03 -0.90993311377E+03  0.10727472026E+04  0.15294330000E+03 0.  0.
<mgrwt>
<rscale>  0 0.77282732E+03</rscale>
<asrwt>0</asrwt>
<pdfrwt beam="1">  1        2 0.16872881E+00 0.85628666E+03</pdfrwt>
<pdfrwt beam="2">  1       -2 0.28009346E+00 0.85628666E+03</pdfrwt>
<totfact> 0.94176031E-01</totfact>
</mgrwt>
</event>
<event>
 4    1  0.5223852E-007  0.1066695E+04  0.7818608E-02  0.9299076E-01
         -2   -1    0    0    0  501 -0.00000000000E+00  0.00000000000E+00  0.77923547997E+03  0.77923547997E+03  0.25500000000E-02 0.  1.
          2   -1    0    0  501    0  0.00000000000E+00 -0.00000000000E+00 -0.23921765551E+04  0.23921765551E+04  0.25500000000E-02 0. -1.
    8880023    1    1    2    0    0  0.80984851217E+03 -0.21948324030E+03  0.27343783883E+03  0.11011838917E+04  0.65864270000E+03 0.  1.
    8880022    1    1    2    0    0 -0.80984851217E+03  0.21948324030E+03 -0.18863789139E+04  0.20702281433E+04  0.15294330000E+03 0.  0.
<mgrwt>
<rscale>  0 0.10086795E+04</rscale>
<asrwt>0</asrwt>
<pdfrwt beam="1">  1        2 0.36802716E+00 0.10666948E+04</pdfrwt>
<pdfrwt beam="2">  1       -2 0.11988238E+00 0.10666948E+04</pdfrwt>
<totfact> 0.21294311E+00</totfact>
</mgrwt>
</event>
<event>
 4    1  0.5223852E-007  0.6600416E+03  0.7818608E-02  0.1024114E+00
          2   -1    0    0  501    0  0.00000000000E+00  0.00000000000E+00  0.49237478133E+03  0.49237478133E+03  0.25500000000E-02 0. -1.
         -2   -1    0    0    0  501 -0.00000000000E+00 -0.00000000000E+00 -0.37300269883E+03  0.37300269884E+03  0.25500000000E-02 0.  1.
    8880023    1    1    2    0    0  0.40267564041E+02  0.14941122811E+02 -0.10595375411E+02  0.66012664096E+03  0.65864270000E+03 0.  1.
    8880022    1    1    2    0    0 -0.40267564041E+02 -0.14941122811E+02  0.12996745791E+03  0.20525083921E+03  0.15294330000E+03 0.  0.
<mgrwt>
<rscale>  0 0.46230846E+03</rscale>
<asrwt>0</asrwt>
<pdfrwt beam="1">  1        2 0.75749966E-01 0.66004160E+03</pdfrwt>
<pdfrwt beam="2">  1       -2 0.57385031E-01 0.66004160E+03</pdfrwt>
<totfact> 0.18081349E+02</totfact>
</mgrwt>
</event>
<event>
 4    1  0.5223852E-007  0.6700325E+03  0.7818608E-02  0.1015640E+00
         -2   -1    0    0    0  501 -0.00000000000E+00  0.00000000000E+00  0.35838486113E+03  0.35838486114E+03  0.25500000000E-02 0.  1.
          2   -1    0    0  501    0  0.00000000000E+00 -0.00000000000E+00 -0.85959237919E+03  0.85959237920E+03  0.25500000000E-02 0. -1.
    8880023    1    1    2    0    0 -0.95857926368E+02  0.77101600175E+02  0.10291973493E+02  0.67011158010E+03  0.65864270000E+03 0.  1.
    8880022    1    1    2    0    0  0.95857926368E+02 -0.77101600175E+02 -0.51149949155E+03  0.54786566024E+03  0.15294330000E+03 0.  0.
<mgrwt>
<rscale>  0 0.49293519E+03</rscale>
<asrwt>0</asrwt>
<pdfrwt beam="1">  1        2 0.13224498E+00 0.67003254E+03</pdfrwt>
<pdfrwt beam="2">  1       -2 0.55136133E-01 0.67003254E+03</pdfrwt>
<totfact> 0.98466143E+01</totfact>
</mgrwt>
</event>
<event>
 4    1  0.5223852E-007  0.6937852E+03  0.7818608E-02  0.1002403E+00
         -2   -1    0    0    0  501 -0.00000000000E+00  0.00000000000E+00  0.12457840550E+03  0.12457840552E+03  0.25500000000E-02 0.  1.
          2   -1    0    0  501    0  0.00000000000E+00 -0.00000000000E+00 -0.18684014233E+04  0.18684014233E+04  0.25500000000E-02 0. -1.
    8880023    1    1    2    0    0 -0.75496370316E+02 -0.20451894820E+03 -0.13454176421E+04  0.15137656820E+04  0.65864270000E+03 0.  0.
    8880022    1    1    2    0    0  0.75496370316E+02  0.20451894820E+03 -0.39840537573E+03  0.47921414683E+03  0.15294330000E+03 0. -1.
<mgrwt>
<rscale>  0 0.54609019E+03</rscale>
<asrwt>0</asrwt>
<pdfrwt beam="1">  1        2 0.28744635E+00 0.69378520E+03</pdfrwt>
<pdfrwt beam="2">  1       -2 0.19165910E-01 0.69378520E+03</pdfrwt>
<totfact> 0.18661277E+02</totfact>
</mgrwt>
</event>
<event>
 4    1  0.5223852E-007  0.8121014E+03  0.7818608E-02  0.9685216E-01
          2   -1    0    0  501    0  0.00000000000E+00  0.00000000000E+00  0.33138631506E+03  0.33138631507E+03  0.25500000000E-02 0. -1.
         -2   -1    0    0    0  501 -0.00000000000E+00 -0.00000000000E+00 -0.16174252417E+04  0.16174252417E+04  0.25500000000E-02 0.  1.
    8880023    1    1    2    0    0 -0.46129786284E+03  0.11359057979E+03 -0.11897936109E+04  0.14405268414E+04  0.65864270000E+03 0.  1.
    8880022    1    1    2    0    0  0.46129786284E+03 -0.11359057979E+03 -0.96245315798E+02  0.50828471539E+03  0.15294330000E+03 0.  0.
<mgrwt>
<rscale>  0 0.71903874E+03</rscale>
<asrwt>0</asrwt>
<pdfrwt beam="1">  1        2 0.50982511E-01 0.81210144E+03</pdfrwt>
<pdfrwt beam="2">  1       -2 0.24883465E+00 0.81210144E+03</pdfrwt>
<totfact> 0.65485104E+00</totfact>
</mgrwt>
</event>
<event>
 4    1  0.5223852E-007  0.8634155E+03  0.7818608E-02  0.9587517E-01
         -2   -1    0    0    0  501 -0.00000000000E+00  0.00000000000E+00  0.40905282349E+03  0.40905282350E+03  0.25500000000E-02 0.  1.
          2   -1    0    0  501    0  0.00000000000E+00 -0.00000000000E+00 -0.22634997322E+04  0.22634997322E+04  0.25500000000E-02 0. -1.
    8880023    1    1    2    0    0 -0.40655307173E+03  0.38261041609E+03 -0.19049655323E+04  0.20915018566E+04  0.65864270000E+03 0. -1.
    8880022    1    1    2    0    0  0.40655307173E+03 -0.38261041609E+03  0.50518623544E+02  0.58105069914E+03  0.15294330000E+03 0.  0.
<mgrwt>
<rscale>  0 0.78127957E+03</rscale>
<asrwt>0</asrwt>
<pdfrwt beam="1">  1        2 0.34823072E+00 0.86341551E+03</pdfrwt>
<pdfrwt beam="2">  1       -2 0.62931205E-01 0.86341551E+03</pdfrwt>
<totfact> 0.11400918E+01</totfact>
</mgrwt>
</event>
<event>
 4    1  0.5223852E-007  0.7286381E+03  0.7818608E-02  0.9894373E-01
          2   -1    0    0  501    0  0.00000000000E+00  0.00000000000E+00  0.20536292248E+04  0.20536292248E+04  0.25500000000E-02 0. -1.
         -2   -1    0    0    0  501 -0.00000000000E+00 -0.00000000000E+00 -0.14993183227E+03  0.14993183229E+03  0.25500000000E-02 0.  1.
    8880023    1    1    2    0    0 -0.11512461714E+03  0.28956786919E+03  0.15232524139E+04  0.16885530347E+04  0.65864270000E+03 0.  0.
    8880022    1    1    2    0    0  0.11512461714E+03 -0.28956786919E+03  0.38044497870E+03  0.51500802244E+03  0.15294330000E+03 0. -1.
<mgrwt>
<rscale>  0 0.60534780E+03</rscale>
<asrwt>0</asrwt>
<pdfrwt beam="1">  1        2 0.31594293E+00 0.72863807E+03</pdfrwt>
<pdfrwt beam="2">  1       -2 0.23066438E-01 0.72863807E+03</pdfrwt>
<totfact> 0.10639246E+02</totfact>
</mgrwt>
</event>
<event>
 4    1  0.5223852E-007  0.1126342E+04  0.7818608E-02  0.9232280E-01
         -2   -1    0    0    0  501 -0.00000000000E+00  0.00000000000E+00  0.32878210832E+03  0.32878210833E+03  0.25500000000E-02 0.  1.
          2   -1    0    0  501    0  0.00000000000E+00 -0.00000000000E+00 -0.43095361985E+04  0.43095361985E+04  0.25500000000E-02 0. -1.
    8880023    1    1    2    0    0  0.90327650451E+03 -0.13757440849E+03 -0.33049525996E+04  0.34916123859E+04  0.65864270000E+03 0.  0.
    8880022    1    1    2    0    0 -0.90327650451E+03  0.13757440849E+03 -0.67580149060E+03  0.11467059210E+04  0.15294330000E+03 0.  0.
<mgrwt>
<rscale>  0 0.10726372E+04</rscale>
<asrwt>0</asrwt>
<pdfrwt beam="1">  1        2 0.66300553E+00 0.11263416E+04</pdfrwt>
<pdfrwt beam="2">  1       -2 0.50581866E-01 0.11263416E+04</pdfrwt>
<totfact> 0.71704196E-01</totfact>
</mgrwt>
</event>
<event>
 4    1  0.5223852E-007  0.6803898E+03  0.7818608E-02  0.1009104E+00
         -2   -1    0    0    0  501 -0.00000000000E+00  0.00000000000E+00  0.17459097651E+03  0.17459097653E+03  0.25500000000E-02 0.  1.
          2   -1    0    0  501    0  0.00000000000E+00 -0.00000000000E+00 -0.22474338560E+04  0.22474338560E+04  0.25500000000E-02 0. -1.
    8880023    1    1    2    0    0  0.36448965631E+02  0.16670787388E+03 -0.53053144761E+03  0.86278262933E+03  0.65864270000E+03 0.  1.
    8880022    1    1    2    0    0 -0.36448965631E+02 -0.16670787388E+03 -0.15423114319E+04  0.15592422032E+04  0.15294330000E+03 0.  0.
<mgrwt>
<rscale>  0 0.51832283E+03</rscale>
<asrwt>0</asrwt>
<pdfrwt beam="1">  1        2 0.34575903E+00 0.68038978E+03</pdfrwt>
<pdfrwt beam="2">  1       -2 0.26860152E-01 0.68038978E+03</pdfrwt>
<totfact> 0.63682757E+01</totfact>
</mgrwt>
</event>
<event>
 4    1  0.5223852E-007  0.7853628E+03  0.7818608E-02  0.9743387E-01
          2   -1    0    0  501    0  0.00000000000E+00  0.00000000000E+00  0.52644580787E+03  0.52644580788E+03  0.25500000000E-02 0. -1.
         -2   -1    0    0    0  501 -0.00000000000E+00 -0.00000000000E+00 -0.98556390870E+03  0.98556390870E+03  0.25500000000E-02 0.  1.
    8880023    1    1    2    0    0  0.40747523118E+03 -0.13018638994E+03 -0.64979697259E+03  0.10193286379E+04  0.65864270000E+03 0.  0.
    8880022    1    1    2    0    0 -0.40747523118E+03  0.13018638994E+03  0.19067887176E+03  0.49268107870E+03  0.15294330000E+03 0.  0.
<mgrwt>
<rscale>  0 0.68491269E+03</rscale>
<asrwt>0</asrwt>
<pdfrwt beam="1">  1        2 0.80991663E-01 0.78536282E+03</pdfrwt>
<pdfrwt beam="2">  1       -2 0.15162522E+00 0.78536282E+03</pdfrwt>
<totfact> 0.17061617E+01</totfact>
</mgrwt>
</event>
<event>
 4    1  0.5223852E-007  0.7063812E+03  0.7818608E-02  0.9971693E-01
          2   -1    0    0  501    0  0.00000000000E+00  0.00000000000E+00  0.16599012066E+04  0.16599012066E+04  0.25500000000E-02 0. -1.
         -2   -1    0    0    0  501 -0.00000000000E+00 -0.00000000000E+00 -0.49273524770E+03  0.49273524770E+03  0.25500000000E-02 0.  1.
    8880023    1    1    2    0    0 -0.25160918462E+03 -0.43093073662E+02 -0.21533256097E+03  0.73847309556E+03  0.65864270000E+03 0.  1.
    8880022    1    1    2    0    0  0.25160918462E+03  0.43093073662E+02  0.13824985199E+04  0.14141633588E+04  0.15294330000E+03 0.  0.
<mgrwt>
<rscale>  0 0.56909072E+03</rscale>
<asrwt>0</asrwt>
<pdfrwt beam="1">  1        2 0.25536942E+00 0.70638120E+03</pdfrwt>
<pdfrwt beam="2">  1       -2 0.75805423E-01 0.70638120E+03</pdfrwt>
<totfact> 0.16636176E+01</totfact>
</mgrwt>
</event>
<event>
 4    1  0.5223852E-007  0.6769327E+03  0.7818608E-02  0.1011115E+00
          2   -1    0    0  501    0  0.00000000000E+00  0.00000000000E+00  0.20373940419E+04  0.20373940419E+04  0.25500000000E-02 0. -1.
         -2   -1    0    0    0  501 -0.00000000000E+00 -0.00000000000E+00 -0.14664268488E+03  0.14664268490E+03  0.25500000000E-02 0.  1.
    8880023    1    1    2    0    0 -0.56322243061E+02 -0.14579249099E+03  0.70152342331E+03  0.97487074282E+03  0.65864270000E+03 0.  0.
    8880022    1    1    2    0    0  0.56322243061E+02  0.14579249099E+03  0.11892279337E+04  0.12091659840E+04  0.15294330000E+03 0.  0.
<mgrwt>
<rscale>  0 0.51033988E+03</rscale>
<asrwt>0</asrwt>
<pdfrwt beam="1">  1        2 0.31344520E+00 0.67693268E+03</pdfrwt>
<pdfrwt beam="2">  1       -2 0.22560415E-01 0.67693268E+03</pdfrwt>
<totfact> 0.11360970E+02</totfact>
</mgrwt>
</event>
<event>
 4    1  0.5223852E-007  0.6589181E+03  0.7818608E-02  0.1025293E+00
          2   -1    0    0  501    0  0.00000000000E+00  0.00000000000E+00  0.55505488052E+03  0.55505488053E+03  0.25500000000E-02 0. -1.
         -2   -1    0    0    0  501 -0.00000000000E+00 -0.00000000000E+00 -0.40613007999E+03  0.40613008000E+03  0.25500000000E-02 0.  1.
    8880023    1    1    2    0    0 -0.19047353712E+02  0.18665934565E+00 -0.10194038239E+03  0.66675699048E+03  0.65864270000E+03 0.  1.
    8880022    1    1    2    0    0  0.19047353712E+02 -0.18665934565E+00  0.25086518293E+03  0.29442797005E+03  0.15294330000E+03 0.  0.
<mgrwt>
<rscale>  0 0.45823872E+03</rscale>
<asrwt>0</asrwt>
<pdfrwt beam="1">  1        2 0.85393059E-01 0.65891809E+03</pdfrwt>
<pdfrwt beam="2">  1       -2 0.62481551E-01 0.65891809E+03</pdfrwt>
<totfact> 0.13142237E+02</totfact>
</mgrwt>
</event>
<event>
 4    1  0.5223852E-007  0.6808574E+03  0.7818608E-02  0.1008843E+00
          2   -1    0    0  501    0  0.00000000000E+00  0.00000000000E+00  0.15356828299E+04  0.15356828299E+04  0.25500000000E-02 0. -1.
         -2   -1    0    0    0  501 -0.00000000000E+00 -0.00000000000E+00 -0.31290229686E+03  0.31290229687E+03  0.25500000000E-02 0.  1.
    8880023    1    1    2    0    0  0.12594563054E+03 -0.11787393648E+03  0.83203256503E+02  0.68592241173E+03  0.65864270000E+03 0.  1.
    8880022    1    1    2    0    0 -0.12594563054E+03  0.11787393648E+03  0.11395772766E+04  0.11626627151E+04  0.15294330000E+03 0.  0.
<mgrwt>
<rscale>  0 0.51937161E+03</rscale>
<asrwt>0</asrwt>
<pdfrwt beam="1">  1        2 0.23625889E+00 0.68085738E+03</pdfrwt>
<pdfrwt beam="2">  1       -2 0.48138816E-01 0.68085738E+03</pdfrwt>
<totfact> 0.51031103E+01</totfact>
</mgrwt>
</event>
<event>
 4    1  0.5223852E-007  0.8765894E+03  0.7818608E-02  0.9564709E-01
          2   -1    0    0  501    0  0.00000000000E+00  0.00000000000E+00  0.83785047868E+03  0.83785047869E+03  0.25500000000E-02 0. -1.
         -2   -1    0    0    0  501 -0.00000000000E+00 -0.00000000000E+00 -0.75180209032E+03  0.75180209033E+03  0.25500000000E-02 0.  1.
    8880023    1    1    2    0    0  0.44385968861E+02  0.57673972377E+03 -0.23920184667E+03  0.90863994680E+03  0.65864270000E+03 0.  0.
    8880022    1    1    2    0    0 -0.44385968861E+02 -0.57673972377E+03  0.32525023503E+03  0.68101262221E+03  0.15294330000E+03 0.  0.
<mgrwt>
<rscale>  0 0.79676657E+03</rscale>
<asrwt>0</asrwt>
<pdfrwt beam="1">  1        2 0.12890007E+00 0.87658943E+03</pdfrwt>
<pdfrwt beam="2">  1       -2 0.11566186E+00 0.87658943E+03</pdfrwt>
<totfact> 0.18879568E+01</totfact>
</mgrwt>
</event>
<event>
 4    1  0.5223852E-007  0.6719709E+03  0.7818608E-02  0.1014288E+00
          2   -1    0    0  501    0  0.00000000000E+00  0.00000000000E+00  0.19467504012E+04  0.19467504012E+04  0.25500000000E-02 0. -1.
         -2   -1    0    0    0  501 -0.00000000000E+00 -0.00000000000E+00 -0.32743700666E+03  0.32743700667E+03  0.25500000000E-02 0.  1.
    8880023    1    1    2    0    0 -0.81816958608E+01 -0.13291994200E+03  0.30688971512E+02  0.67267129444E+03  0.65864270000E+03 0.  1.
    8880022    1    1    2    0    0  0.81816958608E+01  0.13291994200E+03  0.15886244230E+04  0.16015161134E+04  0.15294330000E+03 0.  0.
<mgrwt>
<rscale>  0 0.49805557E+03</rscale>
<asrwt>0</asrwt>
<pdfrwt beam="1">  1        2 0.29950006E+00 0.67197088E+03</pdfrwt>
<pdfrwt beam="2">  1       -2 0.50374925E-01 0.67197088E+03</pdfrwt>
<totfact> 0.27803727E+01</totfact>
</mgrwt>
</event>
<event>
 4    1  0.5223852E-007  0.7312721E+03  0.7818608E-02  0.9886141E-01
          2   -1    0    0  501    0  0.00000000000E+00  0.00000000000E+00  0.15050261195E+04  0.15050261195E+04  0.25500000000E-02 0. -1.
         -2   -1    0    0    0  501 -0.00000000000E+00 -0.00000000000E+00 -0.49213338638E+03  0.49213338638E+03  0.25500000000E-02 0.  1.
    8880023    1    1    2    0    0 -0.62731953026E+02  0.31146965358E+03 -0.18011807077E+03  0.75312772404E+03  0.65864270000E+03 0.  1.
    8880022    1    1    2    0    0  0.62731953026E+02 -0.31146965358E+03  0.11930108039E+04  0.12440317818E+04  0.15294330000E+03 0.  0.
<mgrwt>
<rscale>  0 0.60937654E+03</rscale>
<asrwt>0</asrwt>
<pdfrwt beam="1">  1        2 0.23154248E+00 0.73127208E+03</pdfrwt>
<pdfrwt beam="2">  1       -2 0.75712829E-01 0.73127208E+03</pdfrwt>
<totfact> 0.20239437E+01</totfact>
</mgrwt>
</event>
<event>
 4    1  0.5223852E-007  0.6789996E+03  0.7818608E-02  0.1009895E+00
          2   -1    0    0  501    0  0.00000000000E+00  0.00000000000E+00  0.10292973051E+04  0.10292973051E+04  0.25500000000E-02 0. -1.
         -2   -1    0    0    0  501 -0.00000000000E+00 -0.00000000000E+00 -0.51714113993E+03  0.51714113994E+03  0.25500000000E-02 0.  1.
    8880023    1    1    2    0    0  0.14346571891E+03  0.81534452441E+02 -0.27139141416E+03  0.73122758795E+03  0.65864270000E+03 0.  1.
    8880022    1    1    2    0    0 -0.14346571891E+03 -0.81534452441E+02  0.78354757928E+03  0.81521085705E+03  0.15294330000E+03 0.  0.
<mgrwt>
<rscale>  0 0.51516279E+03</rscale>
<asrwt>0</asrwt>
<pdfrwt beam="1">  1        2 0.15835343E+00 0.67899962E+03</pdfrwt>
<pdfrwt beam="2">  1       -2 0.79560176E-01 0.67899962E+03</pdfrwt>
<totfact> 0.34560239E+01</totfact>
</mgrwt>
</event>
<event>
 4    1  0.5223852E-007  0.1038625E+04  0.7818608E-02  0.9332683E-01
          2   -1    0    0  501    0  0.00000000000E+00  0.00000000000E+00  0.14767225299E+04  0.14767225299E+04  0.25500000000E-02 0. -1.
         -2   -1    0    0    0  501 -0.00000000000E+00 -0.00000000000E+00 -0.67883051204E+03  0.67883051204E+03  0.25500000000E-02 0.  1.
    8880023    1    1    2    0    0 -0.79401703726E+03 -0.12028255909E+03  0.37847966457E+02  0.10393140162E+04  0.65864270000E+03 0.  0.
    8880022    1    1    2    0    0  0.79401703726E+03  0.12028255909E+03  0.76004405140E+03  0.11162390257E+04  0.15294330000E+03 0.  0.
<mgrwt>
<rscale>  0 0.97828915E+03</rscale>
<asrwt>0</asrwt>
<pdfrwt beam="1">  1        2 0.22718808E+00 0.10386246E+04</pdfrwt>
<pdfrwt beam="2">  1       -2 0.10443546E+00 0.10386246E+04</pdfrwt>
<totfact> 0.96580091E+00</totfact>
</mgrwt>
</event>
<event>
 4    1  0.5223852E-007  0.8407794E+03  0.7818608E-02  0.9628712E-01
         -2   -1    0    0    0  501 -0.00000000000E+00  0.00000000000E+00  0.21750140706E+03  0.21750140707E+03  0.25500000000E-02 0.  1.
          2   -1    0    0  501    0  0.00000000000E+00 -0.00000000000E+00 -0.22710104933E+04  0.22710104933E+04  0.25500000000E-02 0. -1.
    8880023    1    1    2    0    0  0.13665350353E+03  0.50440619214E+03 -0.14461981246E+04  0.16728415969E+04  0.65864270000E+03 0.  0.
    8880022    1    1    2    0    0 -0.13665350353E+03 -0.50440619214E+03 -0.60731096163E+03  0.81567030339E+03  0.15294330000E+03 0.  0.
<mgrwt>
<rscale>  0 0.75424609E+03</rscale>
<asrwt>0</asrwt>
<pdfrwt beam="1">  1        2 0.34938621E+00 0.84077940E+03</pdfrwt>
<pdfrwt beam="2">  1       -2 0.33461756E-01 0.84077940E+03</pdfrwt>
<totfact> 0.40275551E+01</totfact>
</mgrwt>
</event>
<event>
 4    1  0.5223852E-007  0.6781390E+03  0.7818608E-02  0.1010397E+00
         -2   -1    0    0    0  501 -0.00000000000E+00  0.00000000000E+00  0.38856672785E+03  0.38856672785E+03  0.25500000000E-02 0.  1.
          2   -1    0    0  501    0  0.00000000000E+00 -0.00000000000E+00 -0.54294541746E+03  0.54294541747E+03  0.25500000000E-02 0. -1.
    8880023    1    1    2    0    0 -0.28764137685E+02 -0.15885492451E+03 -0.34830024643E+02  0.67903284128E+03  0.65864270000E+03 0.  0.
    8880022    1    1    2    0    0  0.28764137685E+02  0.15885492451E+03 -0.11954866497E+03  0.25247930404E+03  0.15294330000E+03 0.  1.
<mgrwt>
<rscale>  0 0.51317337E+03</rscale>
<asrwt>0</asrwt>
<pdfrwt beam="1">  1        2 0.83530064E-01 0.67813897E+03</pdfrwt>
<pdfrwt beam="2">  1       -2 0.59779497E-01 0.67813897E+03</pdfrwt>
<totfact> 0.14795866E+02</totfact>
</mgrwt>
</event>
<event>
 4    1  0.5223852E-007  0.6650977E+03  0.7818608E-02  0.1019452E+00
          2   -1    0    0  501    0  0.00000000000E+00  0.00000000000E+00  0.43278367400E+03  0.43278367400E+03  0.25500000000E-02 0. -1.
         -2   -1    0    0    0  501 -0.00000000000E+00 -0.00000000000E+00 -0.15212673675E+04  0.15212673675E+04  0.25500000000E-02 0.  1.
    8880023    1    1    2    0    0  0.45291046403E+02  0.80582096246E+02 -0.14252545286E+04  0.15728017773E+04  0.65864270000E+03 0.  1.
    8880022    1    1    2    0    0 -0.45291046403E+02 -0.80582096246E+02  0.33677083506E+03  0.38124926424E+03  0.15294330000E+03 0.  0.
<mgrwt>
<rscale>  0 0.47885039E+03</rscale>
<asrwt>0</asrwt>
<pdfrwt beam="1">  1        2 0.66582104E-01 0.66509771E+03</pdfrwt>
<pdfrwt beam="2">  1       -2 0.23404113E+00 0.66509771E+03</pdfrwt>
<totfact> 0.60793112E+00</totfact>
</mgrwt>
</event>
<event>
 4    1  0.5223852E-007  0.8449055E+03  0.7818608E-02  0.9620999E-01
         -2   -1    0    0    0  501 -0.00000000000E+00  0.00000000000E+00  0.93513574243E+03  0.93513574243E+03  0.25500000000E-02 0.  1.
          2   -1    0    0  501    0  0.00000000000E+00 -0.00000000000E+00 -0.19589892687E+04  0.19589892687E+04  0.25500000000E-02 0. -1.
    8880023    1    1    2    0    0 -0.47508500352E+02 -0.52706545910E+03  0.69193295097E+03  0.10920789672E+04  0.65864270000E+03 0.  1.
    8880022    1    1    2    0    0  0.47508500352E+02  0.52706545910E+03 -0.17157864772E+04  0.18020460439E+04  0.15294330000E+03 0.  0.
<mgrwt>
<rscale>  0 0.75921783E+03</rscale>
<asrwt>0</asrwt>
<pdfrwt beam="1">  1        2 0.30138296E+00 0.84490548E+03</pdfrwt>
<pdfrwt beam="2">  1       -2 0.14386704E+00 0.84490548E+03</pdfrwt>
<totfact> 0.24025122E+00</totfact>
</mgrwt>
</event>
<event>
 4    1  0.5223852E-007  0.6832548E+03  0.7818608E-02  0.1007539E+00
         -2   -1    0    0    0  501 -0.00000000000E+00  0.00000000000E+00  0.53250171630E+03  0.53250171631E+03  0.25500000000E-02 0.  1.
          2   -1    0    0  501    0  0.00000000000E+00 -0.00000000000E+00 -0.12689948001E+04  0.12689948001E+04  0.25500000000E-02 0. -1.
    8880023    1    1    2    0    0  0.62293129841E+02 -0.17072353311E+03  0.29411663685E+03  0.74386945166E+03  0.65864270000E+03 0.  0.
    8880022    1    1    2    0    0 -0.62293129841E+02  0.17072353311E+03 -0.10306097207E+04  0.10576270648E+04  0.15294330000E+03 0.  0.
<mgrwt>
<rscale>  0 0.52464415E+03</rscale>
<asrwt>0</asrwt>
<pdfrwt beam="1">  1        2 0.19522997E+00 0.68325483E+03</pdfrwt>
<pdfrwt beam="2">  1       -2 0.81923341E-01 0.68325483E+03</pdfrwt>
<totfact> 0.23215374E+01</totfact>
</mgrwt>
</event>
<event>
 4    1  0.5223852E-007  0.7826586E+03  0.7818608E-02  0.9749629E-01
         -2   -1    0    0    0  501 -0.00000000000E+00  0.00000000000E+00  0.15180790444E+04  0.15180790444E+04  0.25500000000E-02 0.  1.
          2   -1    0    0  501    0  0.00000000000E+00 -0.00000000000E+00 -0.75688579118E+03  0.75688579118E+03  0.25500000000E-02 0. -1.
    8880023    1    1    2    0    0 -0.42097260663E+03  0.39068647634E+02  0.13340859221E+04  0.15467190270E+04  0.65864270000E+03 0.  1.
    8880022    1    1    2    0    0  0.42097260663E+03 -0.39068647634E+02 -0.57289266882E+03  0.72824580861E+03  0.15294330000E+03 0.  0.
<mgrwt>
<rscale>  0 0.68137269E+03</rscale>
<asrwt>0</asrwt>
<pdfrwt beam="1">  1        2 0.11644397E+00 0.78265861E+03</pdfrwt>
<pdfrwt beam="2">  1       -2 0.23355062E+00 0.78265861E+03</pdfrwt>
<totfact> 0.30794039E+00</totfact>
</mgrwt>
</event>
<event>
 4    1  0.5223852E-007  0.1042935E+04  0.7818608E-02  0.9327423E-01
          2   -1    0    0  501    0  0.00000000000E+00  0.00000000000E+00  0.10169898300E+04  0.10169898300E+04  0.25500000000E-02 0. -1.
         -2   -1    0    0    0  501 -0.00000000000E+00 -0.00000000000E+00 -0.10741585716E+04  0.10741585716E+04  0.25500000000E-02 0.  1.
    8880023    1    1    2    0    0  0.56077043088E+03  0.58261528789E+03 -0.49999587080E+03  0.11565941928E+04  0.65864270000E+03 0. -1.
    8880022    1    1    2    0    0 -0.56077043088E+03 -0.58261528789E+03  0.44282712921E+03  0.93455420882E+03  0.15294330000E+03 0.  0.
<mgrwt>
<rscale>  0 0.98297019E+03</rscale>
<asrwt>0</asrwt>
<pdfrwt beam="1">  1        2 0.15645997E+00 0.10429354E+04</pdfrwt>
<pdfrwt beam="2">  1       -2 0.16525516E+00 0.10429354E+04</pdfrwt>
<totfact> 0.55892370E+00</totfact>
</mgrwt>
</event>
<event>
 4    1  0.5223852E-007  0.7399730E+03  0.7818608E-02  0.9860026E-01
          2   -1    0    0  501    0  0.00000000000E+00  0.00000000000E+00  0.12461364475E+04  0.12461364475E+04  0.25500000000E-02 0. -1.
         -2   -1    0    0    0  501 -0.00000000000E+00 -0.00000000000E+00 -0.55390650997E+03  0.55390650997E+03  0.25500000000E-02 0.  1.
    8880023    1    1    2    0    0  0.63402013367E+02 -0.33125517702E+03 -0.25525224994E+03  0.78276032409E+03  0.65864270000E+03 0.  1.
    8880022    1    1    2    0    0 -0.63402013367E+02  0.33125517702E+03  0.94748218746E+03  0.10172826334E+04  0.15294330000E+03 0.  0.
<mgrwt>
<rscale>  0 0.62238339E+03</rscale>
<asrwt>0</asrwt>
<pdfrwt beam="1">  1        2 0.19171330E+00 0.73997298E+03</pdfrwt>
<pdfrwt beam="2">  1       -2 0.85216387E-01 0.73997298E+03</pdfrwt>
<totfact> 0.21744682E+01</totfact>
</mgrwt>
</event>
<event>
 4    1  0.5223852E-007  0.6875489E+03  0.7818608E-02  0.1005340E+00
          2   -1    0    0  501    0  0.00000000000E+00  0.00000000000E+00  0.13206235775E+04  0.13206235775E+04  0.25500000000E-02 0. -1.
         -2   -1    0    0    0  501 -0.00000000000E+00 -0.00000000000E+00 -0.21001335385E+03  0.21001335387E+03  0.25500000000E-02 0.  1.
    8880023    1    1    2    0    0  0.17351480194E+03 -0.93839712399E+02  0.44304427362E+03  0.81793136189E+03  0.65864270000E+03 0.  1.
    8880022    1    1    2    0    0 -0.17351480194E+03  0.93839712399E+02  0.66756595003E+03  0.71270556948E+03  0.15294330000E+03 0.  0.
<mgrwt>
<rscale>  0 0.53369483E+03</rscale>
<asrwt>0</asrwt>
<pdfrwt beam="1">  1        2 0.20317286E+00 0.68754890E+03</pdfrwt>
<pdfrwt beam="2">  1       -2 0.32309747E-01 0.68754890E+03</pdfrwt>
<totfact> 0.14618260E+02</totfact>
</mgrwt>
</event>
<event>
 4    1  0.5223852E-007  0.7393735E+03  0.7818608E-02  0.9861776E-01
         -2   -1    0    0    0  501 -0.00000000000E+00  0.00000000000E+00  0.46093889697E+03  0.46093889697E+03  0.25500000000E-02 0.  1.
          2   -1    0    0  501    0  0.00000000000E+00 -0.00000000000E+00 -0.10596414963E+04  0.10596414963E+04  0.25500000000E-02 0. -1.
    8880023    1    1    2    0    0  0.21689918229E+03  0.25654965159E+03  0.84349048463E+02  0.74416930012E+03  0.65864270000E+03 0.  0.
    8880022    1    1    2    0    0 -0.21689918229E+03 -0.25654965159E+03 -0.68305164783E+03  0.77641109319E+03  0.15294330000E+03 0.  0.
<mgrwt>
<rscale>  0 0.62150099E+03</rscale>
<asrwt>0</asrwt>
<pdfrwt beam="1">  1        2 0.16302177E+00 0.73937351E+03</pdfrwt>
<pdfrwt beam="2">  1       -2 0.70913677E-01 0.73937351E+03</pdfrwt>
<totfact> 0.42435446E+01</totfact>
</mgrwt>
</event>
<event>
 4    1  0.5223852E-007  0.1009675E+04  0.7818608E-02  0.9369008E-01
         -2   -1    0    0    0  501 -0.00000000000E+00  0.00000000000E+00  0.81838651038E+03  0.81838651039E+03  0.25500000000E-02 0.  1.
          2   -1    0    0  501    0  0.00000000000E+00 -0.00000000000E+00 -0.19424974464E+04  0.19424974464E+04  0.25500000000E-02 0. -1.
    8880023    1    1    2    0    0  0.45674953896E+03  0.61401367943E+03 -0.15665887126E+04  0.18637712684E+04  0.65864270000E+03 0.  0.
    8880022    1    1    2    0    0 -0.45674953896E+03 -0.61401367943E+03  0.44247777666E+03  0.89711268842E+03  0.15294330000E+03 0.  0.
<mgrwt>
<rscale>  0 0.94670677E+03</rscale>
<asrwt>0</asrwt>
<pdfrwt beam="1">  1        2 0.29884576E+00 0.10096748E+04</pdfrwt>
<pdfrwt beam="2">  1       -2 0.12590562E+00 0.10096748E+04</pdfrwt>
<totfact> 0.33752182E+00</totfact>
</mgrwt>
</event>
<event>
 4    1  0.5223852E-007  0.1141297E+04  0.7818608E-02  0.9216413E-01
          2   -1    0    0  501    0  0.00000000000E+00  0.00000000000E+00  0.40585576567E+04  0.40585576567E+04  0.25500000000E-02 0. -1.
         -2   -1    0    0    0  501 -0.00000000000E+00 -0.00000000000E+00 -0.30952309550E+03  0.30952309551E+03  0.25500000000E-02 0.  1.
    8880023    1    1    2    0    0 -0.35348868103E+03  0.86243455859E+03  0.12307110472E+04  0.16784539027E+04  0.65864270000E+03 0. -1.
    8880022    1    1    2    0    0  0.35348868103E+03 -0.86243455859E+03  0.25183235141E+04  0.26896268496E+04  0.15294330000E+03 0.  0.
<mgrwt>
<rscale>  0 0.10885615E+04</rscale>
<asrwt>0</asrwt>
<pdfrwt beam="1">  1        2 0.62439353E+00 0.11412966E+04</pdfrwt>
<pdfrwt beam="2">  1       -2 0.47618935E-01 0.11412966E+04</pdfrwt>
<totfact> 0.13218759E+00</totfact>
</mgrwt>
</event>
<event>
 4    1  0.5223852E-007  0.6946769E+03  0.7818608E-02  0.1002004E+00
          2   -1    0    0  501    0  0.00000000000E+00  0.00000000000E+00  0.15260011336E+04  0.15260011336E+04  0.25500000000E-02 0. -1.
         -2   -1    0    0    0  501 -0.00000000000E+00 -0.00000000000E+00 -0.29153133334E+03  0.29153133336E+03  0.25500000000E-02 0.  1.
    8880023    1    1    2    0    0  0.95670708214E+02  0.19903004945E+03  0.16386436894E+03  0.71374195804E+03  0.65864270000E+03 0.  0.
    8880022    1    1    2    0    0 -0.95670708214E+02 -0.19903004945E+03  0.10706054313E+04  0.11037905089E+04  0.15294330000E+03 0. -1.
<mgrwt>
<rscale>  0 0.54780040E+03</rscale>
<asrwt>0</asrwt>
<pdfrwt beam="1">  1        2 0.23476940E+00 0.69467694E+03</pdfrwt>
<pdfrwt beam="2">  1       -2 0.44850976E-01 0.69467694E+03</pdfrwt>
<totfact> 0.59438967E+01</totfact>
</mgrwt>
</event>
<event>
 4    1  0.5223852E-007  0.6711484E+03  0.7818608E-02  0.1014853E+00
          2   -1    0    0  501    0  0.00000000000E+00  0.00000000000E+00  0.16541668256E+04  0.16541668256E+04  0.25500000000E-02 0. -1.
         -2   -1    0    0    0  501 -0.00000000000E+00 -0.00000000000E+00 -0.11640993382E+03  0.11640993385E+03  0.25500000000E-02 0.  1.
    8880023    1    1    2    0    0  0.21190298835E+02 -0.12720439915E+03  0.10882896652E+04  0.12785986820E+04  0.65864270000E+03 0.  1.
    8880022    1    1    2    0    0 -0.21190298835E+02  0.12720439915E+03  0.44946722657E+03  0.49197807746E+03  0.15294330000E+03 0. -1.
<mgrwt>
<rscale>  0 0.49590763E+03</rscale>
<asrwt>0</asrwt>
<pdfrwt beam="1">  1        2 0.25448720E+00 0.67114841E+03</pdfrwt>
<pdfrwt beam="2">  1       -2 0.17909221E-01 0.67114841E+03</pdfrwt>
<totfact> 0.27505720E+02</totfact>
</mgrwt>
</event>
<event>
 4    1  0.5223852E-007  0.7249599E+03  0.7818608E-02  0.9906147E-01
         -2   -1    0    0    0  501 -0.00000000000E+00  0.00000000000E+00  0.12329601929E+04  0.12329601929E+04  0.25500000000E-02 0.  1.
          2   -1    0    0  501    0  0.00000000000E+00 -0.00000000000E+00 -0.35951673225E+03  0.35951673226E+03  0.25500000000E-02 0. -1.
    8880023    1    1    2    0    0 -0.54828769528E+01  0.30286403026E+03  0.99581370557E+03  0.12317515274E+04  0.65864270000E+03 0.  1.
    8880022    1    1    2    0    0  0.54828769528E+01 -0.30286403026E+03 -0.12237024489E+03  0.36072539780E+03  0.15294330000E+03 0.  0.
<mgrwt>
<rscale>  0 0.59964292E+03</rscale>
<asrwt>0</asrwt>
<pdfrwt beam="1">  1        2 0.55310267E-01 0.72495992E+03</pdfrwt>
<pdfrwt beam="2">  1       -2 0.18968618E+00 0.72495992E+03</pdfrwt>
<totfact> 0.14232316E+01</totfact>
</mgrwt>
</event>
<event>
 4    1  0.5223852E-007  0.7200092E+03  0.7818608E-02  0.9922555E-01
         -2   -1    0    0    0  501 -0.00000000000E+00  0.00000000000E+00  0.18483029133E+04  0.18483029133E+04  0.25500000000E-02 0.  1.
          2   -1    0    0  501    0  0.00000000000E+00 -0.00000000000E+00 -0.47632931334E+03  0.47632931335E+03  0.25500000000E-02 0. -1.
    8880023    1    1    2    0    0 -0.67602248646E+02  0.28290093679E+03  0.17086508575E+04  0.18541577504E+04  0.65864270000E+03 0.  1.
    8880022    1    1    2    0    0  0.67602248646E+02 -0.28290093679E+03 -0.33667725757E+03  0.47047447628E+03  0.15294330000E+03 0.  0.
<mgrwt>
<rscale>  0 0.59180524E+03</rscale>
<asrwt>0</asrwt>
<pdfrwt beam="1">  1        2 0.73281433E-01 0.72000917E+03</pdfrwt>
<pdfrwt beam="2">  1       -2 0.28435429E+00 0.72000917E+03</pdfrwt>
<totfact> 0.26889222E+00</totfact>
</mgrwt>
</event>
<event>
 4    1  0.5223852E-007  0.6780311E+03  0.7818608E-02  0.1010460E+00
         -2   -1    0    0    0  501 -0.00000000000E+00  0.00000000000E+00  0.64056214074E+03  0.64056214075E+03  0.25500000000E-02 0.  1.
          2   -1    0    0  501    0  0.00000000000E+00 -0.00000000000E+00 -0.39216223875E+03  0.39216223876E+03  0.25500000000E-02 0. -1.
    8880023    1    1    2    0    0  0.19790930970E+02  0.15976334610E+03  0.37733108655E+03  0.77595422729E+03  0.65864270000E+03 0.  1.
    8880022    1    1    2    0    0 -0.19790930970E+02 -0.15976334610E+03 -0.12893118455E+03  0.25677015222E+03  0.15294330000E+03 0.  0.
<mgrwt>
<rscale>  0 0.51292223E+03</rscale>
<asrwt>0</asrwt>
<pdfrwt beam="1">  1        2 0.60332653E-01 0.67803113E+03</pdfrwt>
<pdfrwt beam="2">  1       -2 0.98548021E-01 0.67803113E+03</pdfrwt>
<totfact> 0.70575387E+01</totfact>
</mgrwt>
</event>
<event>
 4    1  0.5223852E-007  0.6586630E+03  0.7818608E-02  0.1025570E+00
          2   -1    0    0  501    0  0.00000000000E+00  0.00000000000E+00  0.10928727196E+04  0.10928727196E+04  0.25500000000E-02 0. -1.
         -2   -1    0    0    0  501 -0.00000000000E+00 -0.00000000000E+00 -0.16980674247E+03  0.16980674249E+03  0.25500000000E-02 0.  1.
    8880023    1    1    2    0    0  0.32826241765E+00 -0.51564079463E+01  0.54530475209E+03  0.85509892715E+03  0.65864270000E+03 0.  1.
    8880022    1    1    2    0    0 -0.32826241765E+00  0.51564079463E+01  0.37776122503E+03  0.40758053492E+03  0.15294330000E+03 0.  0.
<mgrwt>
<rscale>  0 0.45729028E+03</rscale>
<asrwt>0</asrwt>
<pdfrwt beam="1">  1        2 0.16813426E+00 0.65866297E+03</pdfrwt>
<pdfrwt beam="2">  1       -2 0.26124115E-01 0.65866297E+03</pdfrwt>
<totfact> 0.29527682E+02</totfact>
</mgrwt>
</event>
<event>
 4    1  0.5223852E-007  0.7580587E+03  0.7818608E-02  0.9810159E-01
          2   -1    0    0  501    0  0.00000000000E+00  0.00000000000E+00  0.18641038408E+04  0.18641038408E+04  0.25500000000E-02 0. -1.
         -2   -1    0    0    0  501 -0.00000000000E+00 -0.00000000000E+00 -0.31607123217E+03  0.31607123218E+03  0.25500000000E-02 0.  1.
    8880023    1    1    2    0    0  0.18013326509E+03  0.32923371456E+03  0.21654673976E+03  0.78838158829E+03  0.65864270000E+03 0.  1.
    8880022    1    1    2    0    0 -0.18013326509E+03 -0.32923371456E+03  0.13314858689E+04  0.13917934847E+04  0.15294330000E+03 0.  0.
<mgrwt>
<rscale>  0 0.64820173E+03</rscale>
<asrwt>0</asrwt>
<pdfrwt beam="1">  1        2 0.28678520E+00 0.75805873E+03</pdfrwt>
<pdfrwt beam="2">  1       -2 0.48626344E-01 0.75805873E+03</pdfrwt>
<totfact> 0.32748938E+01</totfact>
</mgrwt>
</event>
<event>
 4    1  0.5223852E-007  0.7471540E+03  0.7818608E-02  0.9839577E-01
          2   -1    0    0  501    0  0.00000000000E+00  0.00000000000E+00  0.43028658167E+03  0.43028658168E+03  0.25500000000E-02 0. -1.
         -2   -1    0    0    0  501 -0.00000000000E+00 -0.00000000000E+00 -0.79595869733E+03  0.79595869733E+03  0.25500000000E-02 0.  1.
    8880023    1    1    2    0    0 -0.15040628144E+03  0.31907190252E+03 -0.38650930237E+03  0.84120661882E+03  0.65864270000E+03 0.  1.
    8880022    1    1    2    0    0  0.15040628144E+03 -0.31907190252E+03  0.20837186705E+02  0.38503866019E+03  0.15294330000E+03 0.  0.
<mgrwt>
<rscale>  0 0.63281165E+03</rscale>
<asrwt>0</asrwt>
<pdfrwt beam="1">  1        2 0.66197936E-01 0.74715402E+03</pdfrwt>
<pdfrwt beam="2">  1       -2 0.12245518E+00 0.74715402E+03</pdfrwt>
<totfact> 0.37394833E+01</totfact>
</mgrwt>
</event>
<event>
 4    1  0.5223852E-007  0.8618055E+03  0.7818608E-02  0.9590360E-01
          2   -1    0    0  501    0  0.00000000000E+00  0.00000000000E+00  0.16987897816E+04  0.16987897816E+04  0.25500000000E-02 0. -1.
         -2   -1    0    0    0  501 -0.00000000000E+00 -0.00000000000E+00 -0.42448849750E+03  0.42448849751E+03  0.25500000000E-02 0.  1.
    8880023    1    1    2    0    0  0.44824843080E+03 -0.32859068365E+03  0.17120706064E+03  0.87864700362E+03  0.65864270000E+03 0.  1.
    8880022    1    1    2    0    0 -0.44824843080E+03  0.32859068365E+03  0.11030942235E+04  0.12446312755E+04  0.15294330000E+03 0.  0.
<mgrwt>
<rscale>  0 0.77937528E+03</rscale>
<asrwt>0</asrwt>
<pdfrwt beam="1">  1        2 0.26135227E+00 0.86180549E+03</pdfrwt>
<pdfrwt beam="2">  1       -2 0.65305924E-01 0.86180549E+03</pdfrwt>
<totfact> 0.21525209E+01</totfact>
</mgrwt>
</event>
<event>
 4    1  0.5223852E-007  0.6947018E+03  0.7818608E-02  0.1001993E+00
          2   -1    0    0  501    0  0.00000000000E+00  0.00000000000E+00  0.24101877060E+04  0.24101877060E+04  0.25500000000E-02 0. -1.
         -2   -1    0    0    0  501 -0.00000000000E+00 -0.00000000000E+00 -0.10411607785E+03  0.10411607788E+03  0.25500000000E-02 0.  1.
    8880023    1    1    2    0    0 -0.16402425954E+03  0.14797429073E+03  0.13121382223E+04  0.14846943353E+04  0.65864270000E+03 0.  1.
    8880022    1    1    2    0    0  0.16402425954E+03 -0.14797429073E+03  0.99393340583E+03  0.10296094486E+04  0.15294330000E+03 0. -1.
<mgrwt>
<rscale>  0 0.54784782E+03</rscale>
<asrwt>0</asrwt>
<pdfrwt beam="1">  1        2 0.37079810E+00 0.69470177E+03</pdfrwt>
<pdfrwt beam="2">  1       -2 0.16017858E-01 0.69470177E+03</pdfrwt>
<totfact> 0.12805141E+02</totfact>
</mgrwt>
</event>
<event>
 4    1  0.5223852E-007  0.8239188E+03  0.7818608E-02  0.9661282E-01
          2   -1    0    0  501    0  0.00000000000E+00  0.00000000000E+00  0.30749810274E+04  0.30749810274E+04  0.25500000000E-02 0. -1.
         -2   -1    0    0    0  501 -0.00000000000E+00 -0.00000000000E+00 -0.19906655061E+03  0.19906655063E+03  0.25500000000E-02 0.  1.
    8880023    1    1    2    0    0 -0.15501974400E+03 -0.47010722209E+03  0.85339250231E+03  0.11862212654E+04  0.65864270000E+03 0.  1.
    8880022    1    1    2    0    0  0.15501974400E+03  0.47010722209E+03  0.20225219745E+04  0.20878263126E+04  0.15294330000E+03 0.  0.
<mgrwt>
<rscale>  0 0.73369554E+03</rscale>
<asrwt>0</asrwt>
<pdfrwt beam="1">  1        2 0.47307401E+00 0.82391876E+03</pdfrwt>
<pdfrwt beam="2">  1       -2 0.30625623E-01 0.82391876E+03</pdfrwt>
<totfact> 0.16168593E+01</totfact>
</mgrwt>
</event>
<event>
 4    1  0.5223852E-007  0.8096685E+03  0.7818608E-02  0.9690268E-01
          2   -1    0    0  501    0  0.00000000000E+00  0.00000000000E+00  0.22966286801E+04  0.22966286801E+04  0.25500000000E-02 0. -1.
         -2   -1    0    0    0  501 -0.00000000000E+00 -0.00000000000E+00 -0.18546645081E+03  0.18546645082E+03  0.25500000000E-02 0.  1.
    8880023    1    1    2    0    0  0.24373592694E+03 -0.40292150070E+03  0.12763920834E+04  0.15115356081E+04  0.65864270000E+03 0. -1.
    8880022    1    1    2    0    0 -0.24373592694E+03  0.40292150070E+03  0.83477014591E+03  0.97055952282E+03  0.15294330000E+03 0.  1.
<mgrwt>
<rscale>  0 0.71599211E+03</rscale>
<asrwt>0</asrwt>
<pdfrwt beam="1">  1        2 0.35332749E+00 0.80966854E+03</pdfrwt>
<pdfrwt beam="2">  1       -2 0.28533300E-01 0.80966854E+03</pdfrwt>
<totfact> 0.52680106E+01</totfact>
</mgrwt>
</event>
<event>
 4    1  0.5223852E-007  0.9146971E+03  0.7818608E-02  0.9502838E-01
          2   -1    0    0  501    0  0.00000000000E+00  0.00000000000E+00  0.29950448327E+04  0.29950448327E+04  0.25500000000E-02 0. -1.
         -2   -1    0    0    0  501 -0.00000000000E+00 -0.00000000000E+00 -0.23795757360E+03  0.23795757361E+03  0.25500000000E-02 0.  1.
    8880023    1    1    2    0    0  0.39734541717E+03  0.49495173078E+03  0.21703013906E+04  0.23551812942E+04  0.65864270000E+03 0. -1.
    8880022    1    1    2    0    0 -0.39734541717E+03 -0.49495173078E+03  0.58678586852E+03  0.87782111211E+03  0.15294330000E+03 0. -1.
<mgrwt>
<rscale>  0 0.84074892E+03</rscale>
<asrwt>0</asrwt>
<pdfrwt beam="1">  1        2 0.46077611E+00 0.91469711E+03</pdfrwt>
<pdfrwt beam="2">  1       -2 0.36608859E-01 0.91469711E+03</pdfrwt>
<totfact> 0.12747760E+01</totfact>
</mgrwt>
</event>
<event>
 4    1  0.5223852E-007  0.7152206E+03  0.7818608E-02  0.9939102E-01
          2   -1    0    0  501    0  0.00000000000E+00  0.00000000000E+00  0.50692006536E+03  0.50692006536E+03  0.25500000000E-02 0. -1.
         -2   -1    0    0    0  501 -0.00000000000E+00 -0.00000000000E+00 -0.10365087915E+04  0.10365087915E+04  0.25500000000E-02 0.  1.
    8880023    1    1    2    0    0  0.27880065710E+03 -0.71936646681E+00 -0.83712144753E+03  0.11010507927E+04  0.65864270000E+03 0.  0.
    8880022    1    1    2    0    0 -0.27880065710E+03  0.71936646681E+00  0.30753272142E+03  0.44237806416E+03  0.15294330000E+03 0.  0.
<mgrwt>
<rscale>  0 0.58403075E+03</rscale>
<asrwt>0</asrwt>
<pdfrwt beam="1">  1        2 0.77987703E-01 0.71522062E+03</pdfrwt>
<pdfrwt beam="2">  1       -2 0.15946289E+00 0.71522062E+03</pdfrwt>
<totfact> 0.15679965E+01</totfact>
</mgrwt>
</event>
<event>
 4    1  0.5223852E-007  0.8754515E+03  0.7818608E-02  0.9566648E-01
          2   -1    0    0  501    0  0.00000000000E+00  0.00000000000E+00  0.13552851434E+04  0.13552851434E+04  0.25500000000E-02 0. -1.
         -2   -1    0    0    0  501 -0.00000000000E+00 -0.00000000000E+00 -0.82976653526E+03  0.82976653527E+03  0.25500000000E-02 0.  1.
    8880023    1    1    2    0    0  0.57030867666E+03  0.85750675479E+02 -0.49293848407E+03  0.10046908581E+04  0.65864270000E+03 0.  0.
    8880022    1    1    2    0    0 -0.57030867666E+03 -0.85750675479E+02  0.10184570922E+04  0.11803608205E+04  0.15294330000E+03 0.  0.
<mgrwt>
<rscale>  0 0.79543527E+03</rscale>
<asrwt>0</asrwt>
<pdfrwt beam="1">  1        2 0.20850540E+00 0.87545152E+03</pdfrwt>
<pdfrwt beam="2">  1       -2 0.12765639E+00 0.87545152E+03</pdfrwt>
<totfact> 0.70268664E+00</totfact>
</mgrwt>
</event>
<event>
 4    1  0.5223852E-007  0.6834763E+03  0.7818608E-02  0.1007422E+00
         -2   -1    0    0    0  501 -0.00000000000E+00  0.00000000000E+00  0.15639886174E+03  0.15639886176E+03  0.25500000000E-02 0.  1.
          2   -1    0    0  501    0  0.00000000000E+00 -0.00000000000E+00 -0.14402988441E+04  0.14402988441E+04  0.25500000000E-02 0. -1.
    8880023    1    1    2    0    0  0.75670225026E+02  0.16614333000E+03 -0.76558829394E+03  0.10262871095E+04  0.65864270000E+03 0.  0.
    8880022    1    1    2    0    0 -0.75670225026E+02 -0.16614333000E+03 -0.51831168839E+03  0.57041059632E+03  0.15294330000E+03 0.  1.
<mgrwt>
<rscale>  0 0.52512270E+03</rscale>
<asrwt>0</asrwt>
<pdfrwt beam="1">  1        2 0.22158443E+00 0.68347626E+03</pdfrwt>
<pdfrwt beam="2">  1       -2 0.24061364E-01 0.68347626E+03</pdfrwt>
<totfact> 0.21474797E+02</totfact>
</mgrwt>
</event>
<event>
 4    1  0.5223852E-007  0.7760929E+03  0.7818608E-02  0.9765096E-01
         -2   -1    0    0    0  501 -0.00000000000E+00  0.00000000000E+00  0.40255862676E+03  0.40255862676E+03  0.25500000000E-02 0.  1.
          2   -1    0    0  501    0  0.00000000000E+00 -0.00000000000E+00 -0.13942428237E+04  0.13942428237E+04  0.25500000000E-02 0. -1.
    8880023    1    1    2    0    0  0.39205040753E+03  0.12168153423E+03 -0.73618482382E+02  0.77957668323E+03  0.65864270000E+03 0.  0.
    8880022    1    1    2    0    0 -0.39205040753E+03 -0.12168153423E+03 -0.91806571457E+03  0.10172247672E+04  0.15294330000E+03 0.  0.
<mgrwt>
<rscale>  0 0.67269791E+03</rscale>
<asrwt>0</asrwt>
<pdfrwt beam="1">  1        2 0.21449889E+00 0.77609286E+03</pdfrwt>
<pdfrwt beam="2">  1       -2 0.61932097E-01 0.77609286E+03</pdfrwt>
<totfact> 0.35953747E+01</totfact>
</mgrwt>
</event>
<event>
 4    1  0.5223852E-007  0.7917113E+03  0.7818608E-02  0.9729013E-01
         -2   -1    0    0    0  501 -0.00000000000E+00  0.00000000000E+00  0.27918429711E+03  0.27918429712E+03  0.25500000000E-02 0.  1.
          2   -1    0    0  501    0  0.00000000000E+00 -0.00000000000E+00 -0.17745578946E+04  0.17745578946E+04  0.25500000000E-02 0. -1.
    8880023    1    1    2    0    0 -0.42696964871E+03  0.10340934476E+03 -0.45268036812E+03  0.91199029351E+03  0.65864270000E+03 0.  0.
    8880022    1    1    2    0    0  0.42696964871E+03 -0.10340934476E+03 -0.10426932294E+04  0.11417518982E+04  0.15294330000E+03 0.  0.
<mgrwt>
<rscale>  0 0.69315336E+03</rscale>
<asrwt>0</asrwt>
<pdfrwt beam="1">  1        2 0.27300890E+00 0.79171130E+03</pdfrwt>
<pdfrwt beam="2">  1       -2 0.42951431E-01 0.79171130E+03</pdfrwt>
<totfact> 0.46798369E+01</totfact>
</mgrwt>
</event>
<event>
 4    1  0.5223852E-007  0.8626362E+03  0.7818608E-02  0.9588891E-01
         -2   -1    0    0    0  501 -0.00000000000E+00  0.00000000000E+00  0.11732572927E+04  0.11732572927E+04  0.25500000000E-02 0.  1.
          2   -1    0    0  501    0  0.00000000000E+00 -0.00000000000E+00 -0.82971851725E+03  0.82971851725E+03  0.25500000000E-02 0. -1.
    8880023    1    1    2    0    0 -0.18833135685E+03 -0.52427308697E+03  0.86726172271E+03  0.12232269093E+04  0.65864270000E+03 0.  1.
    8880022    1    1    2    0    0  0.18833135685E+03  0.52427308697E+03 -0.52372294721E+03  0.77974890070E+03  0.15294330000E+03 0.  0.
<mgrwt>
<rscale>  0 0.78035813E+03</rscale>
<asrwt>0</asrwt>
<pdfrwt beam="1">  1        2 0.12764900E+00 0.86263618E+03</pdfrwt>
<pdfrwt beam="2">  1       -2 0.18050112E+00 0.86263618E+03</pdfrwt>
<totfact> 0.59349925E+00</totfact>
</mgrwt>
</event>
<event>
 4    1  0.5223852E-007  0.9336878E+03  0.7818608E-02  0.9473983E-01
          2   -1    0    0  501    0  0.00000000000E+00  0.00000000000E+00  0.20377125290E+04  0.20377125290E+04  0.25500000000E-02 0. -1.
         -2   -1    0    0    0  501 -0.00000000000E+00 -0.00000000000E+00 -0.44472939971E+03  0.44472939972E+03  0.25500000000E-02 0.  1.
    8880023    1    1    2    0    0  0.29148648503E+03 -0.59413661029E+03  0.23307112885E+03  0.96233831890E+03  0.65864270000E+03 0.  0.
    8880022    1    1    2    0    0 -0.29148648503E+03  0.59413661029E+03  0.13599120004E+04  0.15201036098E+04  0.15294330000E+03 0.  0.
<mgrwt>
<rscale>  0 0.86229444E+03</rscale>
<asrwt>0</asrwt>
<pdfrwt beam="1">  1        2 0.31349424E+00 0.93368779E+03</pdfrwt>
<pdfrwt beam="2">  1       -2 0.68419907E-01 0.93368779E+03</pdfrwt>
<totfact> 0.12576707E+01</totfact>
</mgrwt>
</event>
<event>
 4    1  0.5223852E-007  0.6648028E+03  0.7818608E-02  0.1019699E+00
         -2   -1    0    0    0  501 -0.00000000000E+00  0.00000000000E+00  0.38701236745E+03  0.38701236746E+03  0.25500000000E-02 0.  1.
          2   -1    0    0  501    0  0.00000000000E+00 -0.00000000000E+00 -0.20864760871E+04  0.20864760871E+04  0.25500000000E-02 0. -1.
    8880023    1    1    2    0    0 -0.90235973499E+02  0.31731653876E+01  0.93855898136E+02  0.67139536472E+03  0.65864270000E+03 0.  1.
    8880022    1    1    2    0    0  0.90235973499E+02 -0.31731653876E+01 -0.17933196178E+04  0.18020930898E+04  0.15294330000E+03 0.  0.
<mgrwt>
<rscale>  0 0.47795243E+03</rscale>
<asrwt>0</asrwt>
<pdfrwt beam="1">  1        2 0.32099631E+00 0.66480283E+03</pdfrwt>
<pdfrwt beam="2">  1       -2 0.59540366E-01 0.66480283E+03</pdfrwt>
<totfact> 0.16530830E+01</totfact>
</mgrwt>
</event>
<event>
 4    1  0.5223852E-007  0.7493435E+03  0.7818608E-02  0.9833521E-01
          2   -1    0    0  501    0  0.00000000000E+00  0.00000000000E+00  0.10124450852E+04  0.10124450852E+04  0.25500000000E-02 0. -1.
         -2   -1    0    0    0  501 -0.00000000000E+00 -0.00000000000E+00 -0.35379271868E+03  0.35379271869E+03  0.25500000000E-02 0.  1.
    8880023    1    1    2    0    0 -0.24752520684E+03 -0.25775323792E+03  0.22179141806E+03  0.78147751027E+03  0.65864270000E+03 0.  0.
    8880022    1    1    2    0    0  0.24752520684E+03  0.25775323792E+03  0.43686094844E+03  0.58476029359E+03  0.15294330000E+03 0.  0.
<mgrwt>
<rscale>  0 0.63594232E+03</rscale>
<asrwt>0</asrwt>
<pdfrwt beam="1">  1        2 0.15576078E+00 0.74934349E+03</pdfrwt>
<pdfrwt beam="2">  1       -2 0.54429649E-01 0.74934349E+03</pdfrwt>
<totfact> 0.79706559E+01</totfact>
</mgrwt>
</event>
<event>
 4    1  0.5223852E-007  0.1513482E+04  0.7818608E-02  0.8900174E-01
          2   -1    0    0  501    0  0.00000000000E+00  0.00000000000E+00  0.27656452025E+04  0.27656452025E+04  0.25500000000E-02 0. -1.
         -2   -1    0    0    0  501 -0.00000000000E+00 -0.00000000000E+00 -0.10083606594E+04  0.10083606594E+04  0.25500000000E-02 0.  1.
    8880023    1    1    2    0    0  0.37532766714E+03  0.13099419999E+04  0.18611668769E+04  0.23988687440E+04  0.65864270000E+03 0.  0.
    8880022    1    1    2    0    0 -0.37532766714E+03 -0.13099419999E+04 -0.10388233382E+03  0.13751371180E+04  0.15294330000E+03 0.  0.
<mgrwt>
<rscale>  0 0.14765864E+04</rscale>
<asrwt>0</asrwt>
<pdfrwt beam="1">  1        2 0.42548387E+00 0.15134824E+04</pdfrwt>
<pdfrwt beam="2">  1       -2 0.15513241E+00 0.15134824E+04</pdfrwt>
<totfact> 0.62714597E-01</totfact>
</mgrwt>
</event>
<event>
 4    1  0.5223852E-007  0.6620869E+03  0.7818608E-02  0.1022113E+00
          2   -1    0    0  501    0  0.00000000000E+00  0.00000000000E+00  0.11286589375E+04  0.11286589375E+04  0.25500000000E-02 0. -1.
         -2   -1    0    0    0  501 -0.00000000000E+00 -0.00000000000E+00 -0.15505589243E+03  0.15505589246E+03  0.25500000000E-02 0.  1.
    8880023    1    1    2    0    0  0.49995153450E+02  0.45270090813E+02  0.84103183114E+03  0.10703707973E+04  0.65864270000E+03 0. -1.
    8880022    1    1    2    0    0 -0.49995153450E+02 -0.45270090813E+02  0.13257121394E+03  0.21334403266E+03  0.15294330000E+03 0. -1.
<mgrwt>
<rscale>  0 0.46931629E+03</rscale>
<asrwt>0</asrwt>
<pdfrwt beam="1">  1        2 0.17363984E+00 0.66208693E+03</pdfrwt>
<pdfrwt beam="2">  1       -2 0.23854752E-01 0.66208693E+03</pdfrwt>
<totfact> 0.33072565E+02</totfact>
</mgrwt>
</event>
<event>
 4    1  0.5223852E-007  0.1051724E+04  0.7818608E-02  0.9316812E-01
          2   -1    0    0  501    0  0.00000000000E+00  0.00000000000E+00  0.69386918401E+03  0.69386918401E+03  0.25500000000E-02 0. -1.
         -2   -1    0    0    0  501 -0.00000000000E+00 -0.00000000000E+00 -0.13389223694E+04  0.13389223694E+04  0.25500000000E-02 0.  1.
    8880023    1    1    2    0    0  0.71972829263E+03 -0.39281515337E+03 -0.14868795385E+03  0.10621821284E+04  0.65864270000E+03 0. -1.
    8880022    1    1    2    0    0 -0.71972829263E+03  0.39281515337E+03 -0.49636523156E+03  0.97060942508E+03  0.15294330000E+03 0.  0.
<mgrwt>
<rscale>  0 0.99249729E+03</rscale>
<asrwt>0</asrwt>
<pdfrwt beam="1">  1        2 0.10674911E+00 0.10517237E+04</pdfrwt>
<pdfrwt beam="2">  1       -2 0.20598806E+00 0.10517237E+04</pdfrwt>
<totfact> 0.49812526E+00</totfact>
</mgrwt>
</event>
<event>
 4    1  0.5223852E-007  0.9214575E+03  0.7818608E-02  0.9492428E-01
          2   -1    0    0  501    0  0.00000000000E+00  0.00000000000E+00  0.95584698772E+03  0.95584698772E+03  0.25500000000E-02 0. -1.
         -2   -1    0    0    0  501 -0.00000000000E+00 -0.00000000000E+00 -0.82681567595E+03  0.82681567595E+03  0.25500000000E-02 0.  1.
    8880023    1    1    2    0    0  0.45964586090E+03  0.45166294765E+03 -0.32785391185E+03  0.97804505494E+03  0.65864270000E+03 0.  0.
    8880022    1    1    2    0    0 -0.45964586090E+03 -0.45166294765E+03  0.45688522362E+03  0.80461760874E+03  0.15294330000E+03 0.  0.
<mgrwt>
<rscale>  0 0.84844395E+03</rscale>
<asrwt>0</asrwt>
<pdfrwt beam="1">  1        2 0.14705338E+00 0.92145751E+03</pdfrwt>
<pdfrwt beam="2">  1       -2 0.12720241E+00 0.92145751E+03</pdfrwt>
<totfact> 0.12337244E+01</totfact>
</mgrwt>
</event>
<event>
 4    1  0.5223852E-007  0.7341588E+03  0.7818608E-02  0.9877301E-01
          2   -1    0    0  501    0  0.00000000000E+00  0.00000000000E+00  0.18213453637E+04  0.18213453637E+04  0.25500000000E-02 0. -1.
         -2   -1    0    0    0  501 -0.00000000000E+00 -0.00000000000E+00 -0.31285876182E+03  0.31285876183E+03  0.25500000000E-02 0.  1.
    8880023    1    1    2    0    0  0.10257362776E+02  0.32415074289E+03  0.17688025166E+03  0.75516603956E+03  0.65864270000E+03 0.  0.
    8880022    1    1    2    0    0 -0.10257362776E+02 -0.32415074289E+03  0.13316063502E+04  0.13790380860E+04  0.15294330000E+03 0.  0.
<mgrwt>
<rscale>  0 0.61374109E+03</rscale>
<asrwt>0</asrwt>
<pdfrwt beam="1">  1        2 0.28020698E+00 0.73415879E+03</pdfrwt>
<pdfrwt beam="2">  1       -2 0.48132117E-01 0.73415879E+03</pdfrwt>
<totfact> 0.35378971E+01</totfact>
</mgrwt>
</event>
<event>
 4    1  0.5223852E-007  0.7894548E+03  0.7818608E-02  0.9734079E-01
          2   -1    0    0  501    0  0.00000000000E+00  0.00000000000E+00  0.82895621371E+03  0.82895621372E+03  0.25500000000E-02 0. -1.
         -2   -1    0    0    0  501 -0.00000000000E+00 -0.00000000000E+00 -0.57149992794E+03  0.57149992794E+03  0.25500000000E-02 0.  1.
    8880023    1    1    2    0    0 -0.38634221986E+03  0.20042049248E+03 -0.12741158630E+03  0.79967030909E+03  0.65864270000E+03 0.  0.
    8880022    1    1    2    0    0  0.38634221986E+03 -0.20042049248E+03  0.38486787207E+03  0.60078583257E+03  0.15294330000E+03 0.  0.
<mgrwt>
<rscale>  0 0.69023519E+03</rscale>
<asrwt>0</asrwt>
<pdfrwt beam="1">  1        2 0.12753173E+00 0.78945481E+03</pdfrwt>
<pdfrwt beam="2">  1       -2 0.87923066E-01 0.78945481E+03</pdfrwt>
<totfact> 0.37021154E+01</totfact>
</mgrwt>
</event>
<event>
 4    1  0.5223852E-007  0.7831757E+03  0.7818608E-02  0.9748429E-01
          2   -1    0    0  501    0  0.00000000000E+00  0.00000000000E+00  0.21651626562E+04  0.21651626562E+04  0.25500000000E-02 0. -1.
         -2   -1    0    0    0  501 -0.00000000000E+00 -0.00000000000E+00 -0.48785091510E+03  0.48785091511E+03  0.25500000000E-02 0.  1.
    8880023    1    1    2    0    0 -0.16874874499E+03 -0.38868732993E+03 -0.12691759191E+03  0.79339287921E+03  0.65864270000E+03 0.  0.
    8880022    1    1    2    0    0  0.16874874499E+03  0.38868732993E+03  0.18042293330E+04  0.18596206921E+04  0.15294330000E+03 0. -1.
<mgrwt>
<rscale>  0 0.68205103E+03</rscale>
<asrwt>0</asrwt>
<pdfrwt beam="1">  1        2 0.33310195E+00 0.78317571E+03</pdfrwt>
<pdfrwt beam="2">  1       -2 0.75053987E-01 0.78317571E+03</pdfrwt>
<totfact> 0.89082106E+00</totfact>
</mgrwt>
</event>
<event>
 4    1  0.5223852E-007  0.7417868E+03  0.7818608E-02  0.9854772E-01
          2   -1    0    0  501    0  0.00000000000E+00  0.00000000000E+00  0.23824927957E+04  0.23824927957E+04  0.25500000000E-02 0. -1.
         -2   -1    0    0    0  501 -0.00000000000E+00 -0.00000000000E+00 -0.18224838628E+03  0.18224838629E+03  0.25500000000E-02 0.  1.
    8880023    1    1    2    0    0 -0.33889529138E+03 -0.39843079433E+02  0.70469969855E+03  0.10231565671E+04  0.65864270000E+03 0.  0.
    8880022    1    1    2    0    0  0.33889529138E+03  0.39843079433E+02  0.14955447109E+04  0.15415846149E+04  0.15294330000E+03 0.  0.
<mgrwt>
<rscale>  0 0.62504178E+03</rscale>
<asrwt>0</asrwt>
<pdfrwt beam="1">  1        2 0.36653735E+00 0.74178683E+03</pdfrwt>
<pdfrwt beam="2">  1       -2 0.28038214E-01 0.74178683E+03</pdfrwt>
<totfact> 0.49132292E+01</totfact>
</mgrwt>
</event>
<event>
 4    1  0.5223852E-007  0.7175032E+03  0.7818608E-02  0.9931127E-01
         -2   -1    0    0    0  501 -0.00000000000E+00  0.00000000000E+00  0.51291899515E+03  0.51291899515E+03  0.25500000000E-02 0.  1.
          2   -1    0    0  501    0  0.00000000000E+00 -0.00000000000E+00 -0.11227789413E+04  0.11227789413E+04  0.25500000000E-02 0. -1.
    8880023    1    1    2    0    0 -0.22794146975E+03  0.17042105799E+03  0.21565078787E+03  0.74921033042E+03  0.65864270000E+03 0.  1.
    8880022    1    1    2    0    0  0.22794146975E+03 -0.17042105799E+03 -0.82551073404E+03  0.88648760604E+03  0.15294330000E+03 0.  0.
<mgrwt>
<rscale>  0 0.58776192E+03</rscale>
<asrwt>0</asrwt>
<pdfrwt beam="1">  1        2 0.17273522E+00 0.71750321E+03</pdfrwt>
<pdfrwt beam="2">  1       -2 0.78910615E-01 0.71750321E+03</pdfrwt>
<totfact> 0.30702814E+01</totfact>
</mgrwt>
</event>
<event>
 4    1  0.5223852E-007  0.7688818E+03  0.7818608E-02  0.9782633E-01
         -2   -1    0    0    0  501 -0.00000000000E+00  0.00000000000E+00  0.24130629535E+03  0.24130629536E+03  0.25500000000E-02 0.  1.
          2   -1    0    0  501    0  0.00000000000E+00 -0.00000000000E+00 -0.18250303523E+04  0.18250303523E+04  0.25500000000E-02 0. -1.
    8880023    1    1    2    0    0 -0.37163480091E+03 -0.13876793683E+03 -0.54063478795E+03  0.93992826628E+03  0.65864270000E+03 0.  1.
    8880022    1    1    2    0    0  0.37163480091E+03  0.13876793683E+03 -0.10430892690E+04  0.11264083814E+04  0.15294330000E+03 0.  0.
<mgrwt>
<rscale>  0 0.66302919E+03</rscale>
<asrwt>0</asrwt>
<pdfrwt beam="1">  1        2 0.28077389E+00 0.76888177E+03</pdfrwt>
<pdfrwt beam="2">  1       -2 0.37124047E-01 0.76888177E+03</pdfrwt>
<totfact> 0.58517348E+01</totfact>
</mgrwt>
</event>
<event>
 4    1  0.5223852E-007  0.7567455E+03  0.7818608E-02  0.9813607E-01
          2   -1    0    0  501    0  0.00000000000E+00  0.00000000000E+00  0.25607281351E+04  0.25607281351E+04  0.25500000000E-02 0. -1.
         -2   -1    0    0    0  501 -0.00000000000E+00 -0.00000000000E+00 -0.23695090078E+03  0.23695090080E+03  0.25500000000E-02 0.  1.
    8880023    1    1    2    0    0  0.34485003762E+03 -0.14118058399E+03  0.44858018938E+03  0.87970898501E+03  0.65864270000E+03 0.  1.
    8880022    1    1    2    0    0 -0.34485003762E+03  0.14118058399E+03  0.18751970450E+04  0.19179700509E+04  0.15294330000E+03 0.  0.
<mgrwt>
<rscale>  0 0.64637395E+03</rscale>
<asrwt>0</asrwt>
<pdfrwt beam="1">  1        2 0.39395819E+00 0.75674547E+03</pdfrwt>
<pdfrwt beam="2">  1       -2 0.36453983E-01 0.75674547E+03</pdfrwt>
<totfact> 0.23760411E+01</totfact>
</mgrwt>
</event>
<event>
 4    1  0.5223852E-007  0.8492691E+03  0.7818608E-02  0.9612944E-01
         -2   -1    0    0    0  501 -0.00000000000E+00  0.00000000000E+00  0.32381251669E+03  0.32381251670E+03  0.25500000000E-02 0.  1.
          2   -1    0    0  501    0  0.00000000000E+00 -0.00000000000E+00 -0.25601566446E+04  0.25601566446E+04  0.25500000000E-02 0. -1.
    8880023    1    1    2    0    0  0.53193367909E+03  0.67039565222E+02 -0.35278376842E+03  0.91962728090E+03  0.65864270000E+03 0.  0.
    8880022    1    1    2    0    0 -0.53193367909E+03 -0.67039565222E+02 -0.18835603594E+04  0.19643418804E+04  0.15294330000E+03 0.  0.
<mgrwt>
<rscale>  0 0.76445335E+03</rscale>
<asrwt>0</asrwt>
<pdfrwt beam="1">  1        2 0.39387024E+00 0.84926907E+03</pdfrwt>
<pdfrwt beam="2">  1       -2 0.49817312E-01 0.84926907E+03</pdfrwt>
<totfact> 0.12654490E+01</totfact>
</mgrwt>
</event>
<event>
 4    1  0.5223852E-007  0.1285184E+04  0.7818608E-02  0.9078461E-01
         -2   -1    0    0    0  501 -0.00000000000E+00  0.00000000000E+00  0.93238127737E+03  0.93238127737E+03  0.25500000000E-02 0.  1.
          2   -1    0    0  501    0  0.00000000000E+00 -0.00000000000E+00 -0.20626708599E+04  0.20626708599E+04  0.25500000000E-02 0. -1.
    8880023    1    1    2    0    0  0.10539833097E+04 -0.32711983492E+03  0.15454225310E+03  0.12944426282E+04  0.65864270000E+03 0.  0.
    8880022    1    1    2    0    0 -0.10539833097E+04  0.32711983492E+03 -0.12848318357E+04  0.17006095091E+04  0.15294330000E+03 0.  0.
<mgrwt>
<rscale>  0 0.12401030E+04</rscale>
<asrwt>0</asrwt>
<pdfrwt beam="1">  1        2 0.31733398E+00 0.12851842E+04</pdfrwt>
<pdfrwt beam="2">  1       -2 0.14344327E+00 0.12851842E+04</pdfrwt>
<totfact> 0.20059154E+00</totfact>
</mgrwt>
</event>
<event>
 4    1  0.5223852E-007  0.9156661E+03  0.7818608E-02  0.9501336E-01
         -2   -1    0    0    0  501 -0.00000000000E+00  0.00000000000E+00  0.35808881756E+03  0.35808881757E+03  0.25500000000E-02 0.  1.
          2   -1    0    0  501    0  0.00000000000E+00 -0.00000000000E+00 -0.18973331040E+04  0.18973331040E+04  0.25500000000E-02 0. -1.
    8880023    1    1    2    0    0 -0.37236602883E+03  0.51573033988E+03 -0.54608293055E+03  0.10661383663E+04  0.65864270000E+03 0.  1.
    8880022    1    1    2    0    0  0.37236602883E+03 -0.51573033988E+03 -0.99316135591E+03  0.11892835552E+04  0.15294330000E+03 0.  0.
<mgrwt>
<rscale>  0 0.84185368E+03</rscale>
<asrwt>0</asrwt>
<pdfrwt beam="1">  1        2 0.29189739E+00 0.91566612E+03</pdfrwt>
<pdfrwt beam="2">  1       -2 0.55090588E-01 0.91566612E+03</pdfrwt>
<totfact> 0.23872801E+01</totfact>
</mgrwt>
</event>
<event>
 4    1  0.5223852E-007  0.9442046E+03  0.7818608E-02  0.9458502E-01
          2   -1    0    0  501    0  0.00000000000E+00  0.00000000000E+00  0.29984088752E+04  0.29984088752E+04  0.25500000000E-02 0. -1.
         -2   -1    0    0    0  501 -0.00000000000E+00 -0.00000000000E+00 -0.26354840282E+03  0.26354840283E+03  0.25500000000E-02 0.  1.
    8880023    1    1    2    0    0  0.37500470803E+03 -0.56310167681E+03  0.91677461864E+03  0.13160539264E+04  0.65864270000E+03 0.  1.
    8880022    1    1    2    0    0 -0.37500470803E+03  0.56310167681E+03  0.18180858538E+04  0.19459033517E+04  0.15294330000E+03 0.  0.
<mgrwt>
<rscale>  0 0.87413680E+03</rscale>
<asrwt>0</asrwt>
<pdfrwt beam="1">  1        2 0.46129369E+00 0.94420455E+03</pdfrwt>
<pdfrwt beam="2">  1       -2 0.40545907E-01 0.94420455E+03</pdfrwt>
<totfact> 0.10360041E+01</totfact>
</mgrwt>
</event>
<event>
 4    1  0.5223852E-007  0.6961229E+03  0.7818608E-02  0.1001368E+00
         -2   -1    0    0    0  501 -0.00000000000E+00  0.00000000000E+00  0.51043476591E+03  0.51043476592E+03  0.25500000000E-02 0.  1.
          2   -1    0    0  501    0  0.00000000000E+00 -0.00000000000E+00 -0.75407734934E+03  0.75407734934E+03  0.25500000000E-02 0. -1.
    8880023    1    1    2    0    0 -0.25010228353E+02 -0.22394501482E+03 -0.52578420276E+03  0.87237383920E+03  0.65864270000E+03 0. -1.
    8880022    1    1    2    0    0  0.25010228353E+02  0.22394501482E+03  0.28214161933E+03  0.39213827606E+03  0.15294330000E+03 0.  0.
<mgrwt>
<rscale>  0 0.55054383E+03</rscale>
<asrwt>0</asrwt>
<pdfrwt beam="1">  1        2 0.11601190E+00 0.69612290E+03</pdfrwt>
<pdfrwt beam="2">  1       -2 0.78528426E-01 0.69612290E+03</pdfrwt>
<totfact> 0.54603254E+01</totfact>
</mgrwt>
</event>
<event>
 4    1  0.5223852E-007  0.2304131E+04  0.7818608E-02  0.8485421E-01
          2   -1    0    0  501    0  0.00000000000E+00  0.00000000000E+00  0.21675671855E+04  0.21675671855E+04  0.25500000000E-02 0. -1.
         -2   -1    0    0    0  501 -0.00000000000E+00 -0.00000000000E+00 -0.23589069526E+04  0.23589069526E+04  0.25500000000E-02 0.  1.
    8880023    1    1    2    0    0  0.11108467397E+04 -0.19082003465E+04 -0.20416643840E+03  0.23131587024E+04  0.65864270000E+03 0. -1.
    8880022    1    1    2    0    0 -0.11108467397E+04  0.19082003465E+04  0.12826671349E+02  0.22133154358E+04  0.15294330000E+03 0.  1.
<mgrwt>
<rscale>  0 0.22810740E+04</rscale>
<asrwt>0</asrwt>
<pdfrwt beam="1">  1        2 0.33347188E+00 0.23041309E+04</pdfrwt>
<pdfrwt beam="2">  1       -2 0.36290876E+00 0.23041309E+04</pdfrwt>
<totfact> 0.59788533E-02</totfact>
</mgrwt>
</event>
<event>
 4    1  0.5223852E-007  0.7133992E+03  0.7818608E-02  0.9945588E-01
         -2   -1    0    0    0  501 -0.00000000000E+00  0.00000000000E+00  0.50080517352E+03  0.50080517353E+03  0.25500000000E-02 0.  1.
          2   -1    0    0  501    0  0.00000000000E+00 -0.00000000000E+00 -0.19856886094E+04  0.19856886094E+04  0.25500000000E-02 0. -1.
    8880023    1    1    2    0    0 -0.22887029076E+03  0.15081992036E+03  0.22500025883E+03  0.74803982588E+03  0.65864270000E+03 0.  1.
    8880022    1    1    2    0    0  0.22887029076E+03 -0.15081992036E+03 -0.17098836947E+04  0.17384539571E+04  0.15294330000E+03 0.  0.
<mgrwt>
<rscale>  0 0.58101853E+03</rscale>
<asrwt>0</asrwt>
<pdfrwt beam="1">  1        2 0.30549055E+00 0.71339923E+03</pdfrwt>
<pdfrwt beam="2">  1       -2 0.77046951E-01 0.71339923E+03</pdfrwt>
<totfact> 0.10651466E+01</totfact>
</mgrwt>
</event>
<event>
 4    1  0.5223852E-007  0.7927361E+03  0.7818608E-02  0.9726728E-01
          2   -1    0    0  501    0  0.00000000000E+00  0.00000000000E+00  0.24786119368E+04  0.24786119368E+04  0.25500000000E-02 0. -1.
         -2   -1    0    0    0  501 -0.00000000000E+00 -0.00000000000E+00 -0.29630444463E+03  0.29630444464E+03  0.25500000000E-02 0.  1.
    8880023    1    1    2    0    0 -0.20754187185E+03  0.38929001560E+03  0.31986256349E+03  0.85483484405E+03  0.65864270000E+03 0.  0.
    8880022    1    1    2    0    0  0.20754187185E+03 -0.38929001560E+03  0.18624449287E+04  0.19200815374E+04  0.15294330000E+03 0.  0.
<mgrwt>
<rscale>  0 0.69447487E+03</rscale>
<asrwt>0</asrwt>
<pdfrwt beam="1">  1        2 0.38132490E+00 0.79273612E+03</pdfrwt>
<pdfrwt beam="2">  1       -2 0.45585301E-01 0.79273612E+03</pdfrwt>
<totfact> 0.16987722E+01</totfact>
</mgrwt>
</event>
<event>
 4    1  0.5223852E-007  0.1017109E+04  0.7818608E-02  0.9359509E-01
         -2   -1    0    0    0  501 -0.00000000000E+00  0.00000000000E+00  0.82460843850E+03  0.82460843850E+03  0.25500000000E-02 0.  1.
          2   -1    0    0  501    0  0.00000000000E+00 -0.00000000000E+00 -0.18221464112E+04  0.18221464112E+04  0.25500000000E-02 0. -1.
    8880023    1    1    2    0    0  0.76084022418E+03 -0.14772344819E+03  0.35761566217E+03  0.10781462016E+04  0.65864270000E+03 0.  0.
    8880022    1    1    2    0    0 -0.76084022418E+03  0.14772344819E+03 -0.13551536349E+04  0.15686086481E+04  0.15294330000E+03 0.  0.
<mgrwt>
<rscale>  0 0.95484220E+03</rscale>
<asrwt>0</asrwt>
<pdfrwt beam="1">  1        2 0.28033022E+00 0.10171088E+04</pdfrwt>
<pdfrwt beam="2">  1       -2 0.12686284E+00 0.10171088E+04</pdfrwt>
<totfact> 0.38532624E+00</totfact>
</mgrwt>
</event>
<event>
 4    1  0.5223852E-007  0.9063760E+03  0.7818608E-02  0.9515873E-01
         -2   -1    0    0    0  501 -0.00000000000E+00  0.00000000000E+00  0.93271852703E+03  0.93271852703E+03  0.25500000000E-02 0.  1.
          2   -1    0    0  501    0  0.00000000000E+00 -0.00000000000E+00 -0.77205250592E+03  0.77205250593E+03  0.25500000000E-02 0. -1.
    8880023    1    1    2    0    0  0.19510631071E+03 -0.59130435200E+03  0.43743850955E+03  0.10064144102E+04  0.65864270000E+03 0.  0.
    8880022    1    1    2    0    0 -0.19510631071E+03  0.59130435200E+03 -0.27677248844E+03  0.69835662275E+03  0.15294330000E+03 0.  0.
<mgrwt>
<rscale>  0 0.83123651E+03</rscale>
<asrwt>0</asrwt>
<pdfrwt beam="1">  1        2 0.11877731E+00 0.90637603E+03</pdfrwt>
<pdfrwt beam="2">  1       -2 0.14349516E+00 0.90637603E+03</pdfrwt>
<totfact> 0.12161311E+01</totfact>
</mgrwt>
</event>
<event>
 4    1  0.5223852E-007  0.1009282E+04  0.7818608E-02  0.9369514E-01
          2   -1    0    0  501    0  0.00000000000E+00  0.00000000000E+00  0.18526758988E+04  0.18526758988E+04  0.25500000000E-02 0. -1.
         -2   -1    0    0    0  501 -0.00000000000E+00 -0.00000000000E+00 -0.58605023257E+03  0.58605023257E+03  0.25500000000E-02 0.  1.
    8880023    1    1    2    0    0  0.37959932745E+03 -0.66388556314E+03  0.13146068604E+04  0.16573596755E+04  0.65864270000E+03 0. -1.
    8880022    1    1    2    0    0 -0.37959932745E+03  0.66388556314E+03 -0.47981194148E+02  0.78136645587E+03  0.15294330000E+03 0.  0.
<mgrwt>
<rscale>  0 0.94627628E+03</rscale>
<asrwt>0</asrwt>
<pdfrwt beam="1">  1        2 0.28502706E+00 0.10092819E+04</pdfrwt>
<pdfrwt beam="2">  1       -2 0.90161574E-01 0.10092819E+04</pdfrwt>
<totfact> 0.84769492E+00</totfact>
</mgrwt>
</event>
<event>
 4    1  0.5223852E-007  0.6955650E+03  0.7818608E-02  0.1001612E+00
         -2   -1    0    0    0  501 -0.00000000000E+00  0.00000000000E+00  0.24730126490E+03  0.24730126491E+03  0.25500000000E-02 0.  1.
          2   -1    0    0  501    0  0.00000000000E+00 -0.00000000000E+00 -0.11190598211E+04  0.11190598211E+04  0.25500000000E-02 0. -1.
    8880023    1    1    2    0    0 -0.22354730934E+03 -0.52085103695E+01 -0.35044913770E+03  0.77886156181E+03  0.65864270000E+03 0.  1.
    8880022    1    1    2    0    0  0.22354730934E+03  0.52085103695E+01 -0.52130941849E+03  0.58749952419E+03  0.15294330000E+03 0.  0.
<mgrwt>
<rscale>  0 0.54948968E+03</rscale>
<asrwt>0</asrwt>
<pdfrwt beam="1">  1        2 0.17216305E+00 0.69556505E+03</pdfrwt>
<pdfrwt beam="2">  1       -2 0.38046349E-01 0.69556505E+03</pdfrwt>
<totfact> 0.14060909E+02</totfact>
</mgrwt>
</event>
<event>
 4    1  0.5223852E-007  0.7110986E+03  0.7818608E-02  0.9953944E-01
         -2   -1    0    0    0  501 -0.00000000000E+00  0.00000000000E+00  0.13294131234E+03  0.13294131237E+03  0.25500000000E-02 0.  1.
          2   -1    0    0  501    0  0.00000000000E+00 -0.00000000000E+00 -0.31291889841E+04  0.31291889841E+04  0.25500000000E-02 0. -1.
    8880023    1    1    2    0    0 -0.61021599690E+02  0.26101224714E+03 -0.91853660853E+03  0.11616241803E+04  0.65864270000E+03 0.  0.
    8880022    1    1    2    0    0  0.61021599690E+02 -0.26101224714E+03 -0.20777110632E+04  0.21005061162E+04  0.15294330000E+03 0.  0.
<mgrwt>
<rscale>  0 0.57716678E+03</rscale>
<asrwt>0</asrwt>
<pdfrwt beam="1">  1        2 0.48141364E+00 0.71109861E+03</pdfrwt>
<pdfrwt beam="2">  1       -2 0.20452512E-01 0.71109861E+03</pdfrwt>
<totfact> 0.31585095E+01</totfact>
</mgrwt>
</event>
<event>
 4    1  0.5223852E-007  0.6655281E+03  0.7818608E-02  0.1019094E+00
          2   -1    0    0  501    0  0.00000000000E+00  0.00000000000E+00  0.12438280165E+04  0.12438280166E+04  0.25500000000E-02 0. -1.
         -2   -1    0    0    0  501 -0.00000000000E+00 -0.00000000000E+00 -0.75839741414E+03  0.75839741415E+03  0.25500000000E-02 0.  1.
    8880023    1    1    2    0    0  0.95402593317E+02  0.39702814218E+01 -0.60353561471E+03  0.89843356039E+03  0.65864270000E+03 0.  1.
    8880022    1    1    2    0    0 -0.95402593317E+02 -0.39702814218E+01  0.10889662171E+04  0.11037918703E+04  0.15294330000E+03 0.  0.
<mgrwt>
<rscale>  0 0.48014826E+03</rscale>
<asrwt>0</asrwt>
<pdfrwt beam="1">  1        2 0.19135816E+00 0.66552808E+03</pdfrwt>
<pdfrwt beam="2">  1       -2 0.11667653E+00 0.66552808E+03</pdfrwt>
<totfact> 0.10477171E+01</totfact>
</mgrwt>
</event>
<event>
 4    1  0.5223852E-007  0.6841333E+03  0.7818608E-02  0.1007076E+00
          2   -1    0    0  501    0  0.00000000000E+00  0.00000000000E+00  0.53031052324E+03  0.53031052325E+03  0.25500000000E-02 0. -1.
         -2   -1    0    0    0  501 -0.00000000000E+00 -0.00000000000E+00 -0.16604487862E+04  0.16604487862E+04  0.25500000000E-02 0.  1.
    8880023    1    1    2    0    0 -0.59334022725E+02  0.17523585026E+03 -0.15572022947E+04  0.17008578196E+04  0.65864270000E+03 0.  1.
    8880022    1    1    2    0    0  0.59334022725E+02 -0.17523585026E+03  0.42706403180E+03  0.48990148984E+03  0.15294330000E+03 0.  0.
<mgrwt>
<rscale>  0 0.52653469E+03</rscale>
<asrwt>0</asrwt>
<pdfrwt beam="1">  1        2 0.81586235E-01 0.68413327E+03</pdfrwt>
<pdfrwt beam="2">  1       -2 0.25545366E+00 0.68413327E+03</pdfrwt>
<totfact> 0.35581095E+00</totfact>
</mgrwt>
</event>
<event>
 4    1  0.5223852E-007  0.6701153E+03  0.7818608E-02  0.1015580E+00
          2   -1    0    0  501    0  0.00000000000E+00  0.00000000000E+00  0.16782479113E+04  0.16782479113E+04  0.25500000000E-02 0. -1.
         -2   -1    0    0    0  501 -0.00000000000E+00 -0.00000000000E+00 -0.30391490759E+03  0.30391490760E+03  0.25500000000E-02 0.  1.
    8880023    1    1    2    0    0  0.10875931168E+03  0.58443984578E+02  0.82169017186E+02  0.67513423914E+03  0.65864270000E+03 0.  1.
    8880022    1    1    2    0    0 -0.10875931168E+03 -0.58443984578E+02  0.12921639866E+04  0.13070285798E+04  0.15294330000E+03 0.  0.
<mgrwt>
<rscale>  0 0.49315799E+03</rscale>
<asrwt>0</asrwt>
<pdfrwt beam="1">  1        2 0.25819199E+00 0.67011528E+03</pdfrwt>
<pdfrwt beam="2">  1       -2 0.46756139E-01 0.67011528E+03</pdfrwt>
<totfact> 0.45247053E+01</totfact>
</mgrwt>
</event>
<event>
 4    1  0.5223852E-007  0.8414527E+03  0.7818608E-02  0.9627447E-01
          2   -1    0    0  501    0  0.00000000000E+00  0.00000000000E+00  0.47121988081E+04  0.47121988081E+04  0.25500000000E-02 0. -1.
         -2   -1    0    0    0  501 -0.00000000000E+00 -0.00000000000E+00 -0.17854998100E+03  0.17854998102E+03  0.25500000000E-02 0.  1.
    8880023    1    1    2    0    0 -0.41342223168E+03  0.32142570475E+03  0.96371468661E+03  0.12793704033E+04  0.65864270000E+03 0.  0.
    8880022    1    1    2    0    0  0.41342223168E+03 -0.32142570475E+03  0.35699341405E+04  0.36113783858E+04  0.15294330000E+03 0.  0.
<mgrwt>
<rscale>  0 0.75505882E+03</rscale>
<asrwt>0</asrwt>
<pdfrwt beam="1">  1        2 0.72495377E+00 0.84145269E+03</pdfrwt>
<pdfrwt beam="2">  1       -2 0.27469224E-01 0.84145269E+03</pdfrwt>
<totfact> 0.10106454E+00</totfact>
</mgrwt>
</event>
<event>
 4    1  0.5223852E-007  0.6823724E+03  0.7818608E-02  0.1008012E+00
          2   -1    0    0  501    0  0.00000000000E+00  0.00000000000E+00  0.15783402781E+04  0.15783402781E+04  0.25500000000E-02 0. -1.
         -2   -1    0    0    0  501 -0.00000000000E+00 -0.00000000000E+00 -0.17859150631E+03  0.17859150633E+03  0.25500000000E-02 0.  1.
    8880023    1    1    2    0    0  0.14940156629E+02  0.17776003553E+03  0.55339773259E+03  0.87856763838E+03  0.65864270000E+03 0.  1.
    8880022    1    1    2    0    0 -0.14940156629E+02 -0.17776003553E+03  0.84635103919E+03  0.87836414604E+03  0.15294330000E+03 0.  0.
<mgrwt>
<rscale>  0 0.52272314E+03</rscale>
<asrwt>0</asrwt>
<pdfrwt beam="1">  1        2 0.24282157E+00 0.68237237E+03</pdfrwt>
<pdfrwt beam="2">  1       -2 0.27475618E-01 0.68237237E+03</pdfrwt>
<totfact> 0.14162572E+02</totfact>
</mgrwt>
</event>
<event>
 4    1  0.5223852E-007  0.6880885E+03  0.7818608E-02  0.1005075E+00
         -2   -1    0    0    0  501 -0.00000000000E+00  0.00000000000E+00  0.20231754855E+03  0.20231754856E+03  0.25500000000E-02 0.  1.
          2   -1    0    0  501    0  0.00000000000E+00 -0.00000000000E+00 -0.11444029538E+04  0.11444029538E+04  0.25500000000E-02 0. -1.
    8880023    1    1    2    0    0  0.10792781448E+03  0.16735329949E+03 -0.81065856321E+03  0.10633123024E+04  0.65864270000E+03 0.  0.
    8880022    1    1    2    0    0 -0.10792781448E+03 -0.16735329949E+03 -0.13142684200E+03  0.28340819996E+03  0.15294330000E+03 0. -1.
<mgrwt>
<rscale>  0 0.53480004E+03</rscale>
<asrwt>0</asrwt>
<pdfrwt beam="1">  1        2 0.17606199E+00 0.68808847E+03</pdfrwt>
<pdfrwt beam="2">  1       -2 0.31125777E-01 0.68808847E+03</pdfrwt>
<totfact> 0.19876823E+02</totfact>
</mgrwt>
</event>
<event>
 4    1  0.5223852E-007  0.9019308E+03  0.7818608E-02  0.9522939E-01
          2   -1    0    0  501    0  0.00000000000E+00  0.00000000000E+00  0.16670176625E+04  0.16670176625E+04  0.25500000000E-02 0. -1.
         -2   -1    0    0    0  501 -0.00000000000E+00 -0.00000000000E+00 -0.41510896372E+03  0.41510896373E+03  0.25500000000E-02 0.  1.
    8880023    1    1    2    0    0  0.54213298737E+03 -0.29284934576E+03  0.32512004917E+03  0.95873988544E+03  0.65864270000E+03 0.  0.
    8880022    1    1    2    0    0 -0.54213298737E+03  0.29284934576E+03  0.92678864958E+03  0.11233867408E+04  0.15294330000E+03 0.  0.
<mgrwt>
<rscale>  0 0.82613533E+03</rscale>
<asrwt>0</asrwt>
<pdfrwt beam="1">  1        2 0.25646426E+00 0.90193077E+03</pdfrwt>
<pdfrwt beam="2">  1       -2 0.63862917E-01 0.90193077E+03</pdfrwt>
<totfact> 0.23413538E+01</totfact>
</mgrwt>
</event>
<event>
 4    1  0.5223852E-007  0.6714230E+03  0.7818608E-02  0.1014663E+00
          2   -1    0    0  501    0  0.00000000000E+00  0.00000000000E+00  0.10364758850E+04  0.10364758850E+04  0.25500000000E-02 0. -1.
         -2   -1    0    0    0  501 -0.00000000000E+00 -0.00000000000E+00 -0.21836694413E+03  0.21836694414E+03  0.25500000000E-02 0.  1.
    8880023    1    1    2    0    0  0.67234071881E+02 -0.11170602448E+03  0.37680055209E+03  0.76992695670E+03  0.65864270000E+03 0.  1.
    8880022    1    1    2    0    0 -0.67234071881E+02  0.11170602448E+03  0.44130838875E+03  0.48491587242E+03  0.15294330000E+03 0.  0.
<mgrwt>
<rscale>  0 0.49662870E+03</rscale>
<asrwt>0</asrwt>
<pdfrwt beam="1">  1        2 0.15945783E+00 0.67142301E+03</pdfrwt>
<pdfrwt beam="2">  1       -2 0.33594914E-01 0.67142301E+03</pdfrwt>
<totfact> 0.20078458E+02</totfact>
</mgrwt>
</event>
<event>
 4    1  0.5223852E-007  0.7760426E+03  0.7818608E-02  0.9765216E-01
         -2   -1    0    0    0  501 -0.00000000000E+00  0.00000000000E+00  0.94608456782E+03  0.94608456782E+03  0.25500000000E-02 0.  1.
          2   -1    0    0  501    0  0.00000000000E+00 -0.00000000000E+00 -0.50027023746E+03  0.50027023747E+03  0.25500000000E-02 0. -1.
    8880023    1    1    2    0    0  0.34663714298E+03  0.21971497222E+03  0.60115455898E+03  0.98164606043E+03  0.65864270000E+03 0.  1.
    8880022    1    1    2    0    0 -0.34663714298E+03 -0.21971497222E+03 -0.15534022862E+03  0.46470874487E+03  0.15294330000E+03 0.  0.
<mgrwt>
<rscale>  0 0.67263111E+03</rscale>
<asrwt>0</asrwt>
<pdfrwt beam="1">  1        2 0.76964652E-01 0.77604264E+03</pdfrwt>
<pdfrwt beam="2">  1       -2 0.14555147E+00 0.77604264E+03</pdfrwt>
<totfact> 0.20187523E+01</totfact>
</mgrwt>
</event>
<event>
 4    1  0.5223852E-007  0.1063052E+04  0.7818608E-02  0.9303353E-01
         -2   -1    0    0    0  501 -0.00000000000E+00  0.00000000000E+00  0.10450512552E+04  0.10450512552E+04  0.25500000000E-02 0.  1.
          2   -1    0    0  501    0  0.00000000000E+00 -0.00000000000E+00 -0.17192110660E+04  0.17192110660E+04  0.25500000000E-02 0. -1.
    8880023    1    1    2    0    0  0.35109496805E+03 -0.75696923629E+03  0.60966992555E+03  0.12254704099E+04  0.65864270000E+03 0.  0.
    8880022    1    1    2    0    0 -0.35109496805E+03  0.75696923629E+03 -0.12838297364E+04  0.15387919113E+04  0.15294330000E+03 0.  0.
<mgrwt>
<rscale>  0 0.10047478E+04</rscale>
<asrwt>0</asrwt>
<pdfrwt beam="1">  1        2 0.26449401E+00 0.10630524E+04</pdfrwt>
<pdfrwt beam="2">  1       -2 0.16077712E+00 0.10630524E+04</pdfrwt>
<totfact> 0.23466043E+00</totfact>
</mgrwt>
</event>
<event>
 4    1  0.6323160E-007  0.7363011E+03  0.7818608E-02  0.9870856E-01
          2   -1    0    0  501    0  0.00000000000E+00  0.00000000000E+00  0.26594884617E+04  0.26594884617E+04  0.25500000000E-02 0. -1.
         -2   -1    0    0    0  501 -0.00000000000E+00 -0.00000000000E+00 -0.77502961077E+03  0.77502961077E+03  0.25500000000E-02 0.  1.
    8880023    1    1    2    0    0  0.23763101159E+03  0.22772935213E+03 -0.58383631927E+03  0.93968303670E+03  0.65864270000E+03 0.  0.
    8880022    1    1    2    0    0 -0.23763101159E+03 -0.22772935213E+03  0.24682951702E+04  0.24948350358E+04  0.15294330000E+03 0.  0.
<mgrwt>
<rscale>  0 0.61694777E+03</rscale>
<asrwt>0</asrwt>
<pdfrwt beam="1">  1        2 0.40915207E+00 0.73630114E+03</pdfrwt>
<pdfrwt beam="2">  1       -2 0.11923532E+00 0.73630114E+03</pdfrwt>
<totfact> 0.16037428E+00</totfact>
</mgrwt>
</event>
<event>
 4    1  0.5223852E-007  0.7495991E+03  0.7818608E-02  0.9832819E-01
         -2   -1    0    0    0  501 -0.00000000000E+00  0.00000000000E+00  0.34783881731E+03  0.34783881732E+03  0.25500000000E-02 0.  1.
          2   -1    0    0  501    0  0.00000000000E+00 -0.00000000000E+00 -0.21104174348E+04  0.21104174348E+04  0.25500000000E-02 0. -1.
    8880023    1    1    2    0    0  0.35291481209E+03 -0.59495089223E+02 -0.10658299343E+03  0.75713847543E+03  0.65864270000E+03 0.  0.
    8880022    1    1    2    0    0 -0.35291481209E+03  0.59495089223E+02 -0.16559956241E+04  0.17011177767E+04  0.15294330000E+03 0.  0.
<mgrwt>
<rscale>  0 0.63630634E+03</rscale>
<asrwt>0</asrwt>
<pdfrwt beam="1">  1        2 0.32467960E+00 0.74959905E+03</pdfrwt>
<pdfrwt beam="2">  1       -2 0.53513665E-01 0.74959905E+03</pdfrwt>
<totfact> 0.19777249E+01</totfact>
</mgrwt>
</event>
<event>
 4    1  0.5223852E-007  0.8044524E+03  0.7818608E-02  0.9701251E-01
          2   -1    0    0  501    0  0.00000000000E+00  0.00000000000E+00  0.17425324064E+04  0.17425324064E+04  0.25500000000E-02 0. -1.
         -2   -1    0    0    0  501 -0.00000000000E+00 -0.00000000000E+00 -0.26941346970E+03  0.26941346971E+03  0.25500000000E-02 0.  1.
    8880023    1    1    2    0    0  0.13286729815E+03 -0.44235694526E+03  0.12256846059E+04  0.14660990230E+04  0.65864270000E+03 0. -1.
    8880022    1    1    2    0    0 -0.13286729815E+03  0.44235694526E+03  0.24743433079E+03  0.54584685307E+03  0.15294330000E+03 0.  1.
<mgrwt>
<rscale>  0 0.70942383E+03</rscale>
<asrwt>0</asrwt>
<pdfrwt beam="1">  1        2 0.26808192E+00 0.80445236E+03</pdfrwt>
<pdfrwt beam="2">  1       -2 0.41448224E-01 0.80445236E+03</pdfrwt>
<totfact> 0.52200003E+01</totfact>
</mgrwt>
</event>
<event>
 4    1  0.5223852E-007  0.7288922E+03  0.7818608E-02  0.9893571E-01
          2   -1    0    0  501    0  0.00000000000E+00  0.00000000000E+00  0.23295121236E+03  0.23295121237E+03  0.25500000000E-02 0. -1.
         -2   -1    0    0    0  501 -0.00000000000E+00 -0.00000000000E+00 -0.15721900900E+04  0.15721900900E+04  0.25500000000E-02 0.  1.
    8880023    1    1    2    0    0  0.85045819018E+02  0.30040119371E+03 -0.12487327082E+04  0.14458966946E+04  0.65864270000E+03 0.  0.
    8880022    1    1    2    0    0 -0.85045819018E+02 -0.30040119371E+03 -0.90506169413E+02  0.35924460780E+03  0.15294330000E+03 0.  0.
<mgrwt>
<rscale>  0 0.60573853E+03</rscale>
<asrwt>0</asrwt>
<pdfrwt beam="1">  1        2 0.35838649E-01 0.72889222E+03</pdfrwt>
<pdfrwt beam="2">  1       -2 0.24187539E+00 0.72889222E+03</pdfrwt>
<totfact> 0.10786954E+01</totfact>
</mgrwt>
</event>
<event>
 4    1  0.5223852E-007  0.6897684E+03  0.7818608E-02  0.1004263E+00
          2   -1    0    0  501    0  0.00000000000E+00  0.00000000000E+00  0.12800374310E+04  0.12800374310E+04  0.25500000000E-02 0. -1.
         -2   -1    0    0    0  501 -0.00000000000E+00 -0.00000000000E+00 -0.29197279398E+03  0.29197279399E+03  0.25500000000E-02 0.  1.
    8880023    1    1    2    0    0  0.17432394763E+03  0.10761711872E+03  0.16372173839E+03  0.70893250514E+03  0.65864270000E+03 0.  0.
    8880022    1    1    2    0    0 -0.17432394763E+03 -0.10761711872E+03  0.82434289866E+03  0.86307771987E+03  0.15294330000E+03 0.  0.
<mgrwt>
<rscale>  0 0.53819926E+03</rscale>
<asrwt>0</asrwt>
<pdfrwt beam="1">  1        2 0.19692883E+00 0.68976843E+03</pdfrwt>
<pdfrwt beam="2">  1       -2 0.44918893E-01 0.68976843E+03</pdfrwt>
<totfact> 0.81613469E+01</totfact>
</mgrwt>
</event>
<event>
 4    1  0.5223852E-007  0.6621526E+03  0.7818608E-02  0.1022052E+00
          2   -1    0    0  501    0  0.00000000000E+00  0.00000000000E+00  0.51016269741E+03  0.51016269741E+03  0.25500000000E-02 0. -1.
         -2   -1    0    0    0  501 -0.00000000000E+00 -0.00000000000E+00 -0.33761224311E+03  0.33761224312E+03  0.25500000000E-02 0.  1.
    8880023    1    1    2    0    0  0.22165949453E+02 -0.64377928638E+02  0.12630923003E+03  0.67409203738E+03  0.65864270000E+03 0.  1.
    8880022    1    1    2    0    0 -0.22165949453E+02  0.64377928638E+02  0.46241224262E+02  0.17368290315E+03  0.15294330000E+03 0. -1.
<mgrwt>
<rscale>  0 0.46953353E+03</rscale>
<asrwt>0</asrwt>
<pdfrwt beam="1">  1        2 0.78486568E-01 0.66215259E+03</pdfrwt>
<pdfrwt beam="2">  1       -2 0.51940346E-01 0.66215259E+03</pdfrwt>
<totfact> 0.21324986E+02</totfact>
</mgrwt>
</event>
<event>
 4    1  0.5223852E-007  0.6622509E+03  0.7818608E-02  0.1021960E+00
          2   -1    0    0  501    0  0.00000000000E+00  0.00000000000E+00  0.86212060763E+03  0.86212060763E+03  0.25500000000E-02 0. -1.
         -2   -1    0    0    0  501 -0.00000000000E+00 -0.00000000000E+00 -0.21950211545E+03  0.21950211547E+03  0.25500000000E-02 0.  1.
    8880023    1    1    2    0    0  0.38478696138E+02 -0.57319241961E+02  0.36218960461E+03  0.75482290738E+03  0.65864270000E+03 0.  1.
    8880022    1    1    2    0    0 -0.38478696138E+02  0.57319241961E+02  0.28042888757E+03  0.32679981572E+03  0.15294330000E+03 0.  0.
<mgrwt>
<rscale>  0 0.46985808E+03</rscale>
<asrwt>0</asrwt>
<pdfrwt beam="1">  1        2 0.13263394E+00 0.66225094E+03</pdfrwt>
<pdfrwt beam="2">  1       -2 0.33769556E-01 0.66225094E+03</pdfrwt>
<totfact> 0.25858708E+02</totfact>
</mgrwt>
</event>
<event>
 4    1  0.5223852E-007  0.7259478E+03  0.7818608E-02  0.9902952E-01
         -2   -1    0    0    0  501 -0.00000000000E+00  0.00000000000E+00  0.32043989209E+03  0.32043989210E+03  0.25500000000E-02 0.  1.
          2   -1    0    0  501    0  0.00000000000E+00 -0.00000000000E+00 -0.13987901385E+04  0.13987901385E+04  0.25500000000E-02 0. -1.
    8880023    1    1    2    0    0 -0.27493544491E+03  0.13266685572E+03 -0.16544459883E+03  0.74456169323E+03  0.65864270000E+03 0.  1.
    8880022    1    1    2    0    0  0.27493544491E+03 -0.13266685572E+03 -0.91290564754E+03  0.97466833733E+03  0.15294330000E+03 0.  0.
<mgrwt>
<rscale>  0 0.60118456E+03</rscale>
<asrwt>0</asrwt>
<pdfrwt beam="1">  1        2 0.21519848E+00 0.72594779E+03</pdfrwt>
<pdfrwt beam="2">  1       -2 0.49298446E-01 0.72594779E+03</pdfrwt>
<totfact> 0.57705903E+01</totfact>
</mgrwt>
</event>
<event>
 4    1  0.5223852E-007  0.8020754E+03  0.7818608E-02  0.9706326E-01
          2   -1    0    0  501    0  0.00000000000E+00  0.00000000000E+00  0.26876345863E+04  0.26876345863E+04  0.25500000000E-02 0. -1.
         -2   -1    0    0    0  501 -0.00000000000E+00 -0.00000000000E+00 -0.18843126346E+03  0.18843126348E+03  0.25500000000E-02 0.  1.
    8880023    1    1    2    0    0  0.33649395699E+03 -0.31030081976E+03  0.89957240949E+03  0.12052201077E+04  0.65864270000E+03 0.  0.
    8880022    1    1    2    0    0 -0.33649395699E+03  0.31030081976E+03  0.15996309134E+04  0.16708457421E+04  0.15294330000E+03 0.  0.
<mgrwt>
<rscale>  0 0.70641367E+03</rscale>
<asrwt>0</asrwt>
<pdfrwt beam="1">  1        2 0.41348225E+00 0.80207543E+03</pdfrwt>
<pdfrwt beam="2">  1       -2 0.28989425E-01 0.80207543E+03</pdfrwt>
<totfact> 0.30700946E+01</totfact>
</mgrwt>
</event>
<event>
 4    1  0.5223852E-007  0.9661667E+03  0.7818608E-02  0.9427226E-01
          2   -1    0    0  501    0  0.00000000000E+00  0.00000000000E+00  0.19021277478E+04  0.19021277478E+04  0.25500000000E-02 0. -1.
         -2   -1    0    0    0  501 -0.00000000000E+00 -0.00000000000E+00 -0.49985255944E+03  0.49985255945E+03  0.25500000000E-02 0.  1.
    8880023    1    1    2    0    0  0.57577713629E+03 -0.41005915902E+03  0.18151873277E+03  0.98307023207E+03  0.65864270000E+03 0.  1.
    8880022    1    1    2    0    0 -0.57577713629E+03  0.41005915902E+03  0.12207564556E+04  0.14189100752E+04  0.15294330000E+03 0.  0.
<mgrwt>
<rscale>  0 0.89868589E+03</rscale>
<asrwt>0</asrwt>
<pdfrwt beam="1">  1        2 0.29263504E+00 0.96616667E+03</pdfrwt>
<pdfrwt beam="2">  1       -2 0.76900394E-01 0.96616667E+03</pdfrwt>
<totfact> 0.11493469E+01</totfact>
</mgrwt>
</event>
<event>
 4    1  0.5223852E-007  0.1035102E+04  0.7818608E-02  0.9337009E-01
          2   -1    0    0  501    0  0.00000000000E+00  0.00000000000E+00  0.87537414144E+03  0.87537414144E+03  0.25500000000E-02 0. -1.
         -2   -1    0    0    0  501 -0.00000000000E+00 -0.00000000000E+00 -0.15263103571E+04  0.15263103571E+04  0.25500000000E-02 0.  1.
    8880023    1    1    2    0    0  0.17446110121E+03 -0.77922291914E+03  0.36760686085E+03  0.10984398226E+04  0.65864270000E+03 0.  0.
    8880022    1    1    2    0    0 -0.17446110121E+03  0.77922291914E+03 -0.10185430765E+04  0.13032446759E+04  0.15294330000E+03 0.  0.
<mgrwt>
<rscale>  0 0.97445946E+03</rscale>
<asrwt>0</asrwt>
<pdfrwt beam="1">  1        2 0.13467294E+00 0.10351016E+04</pdfrwt>
<pdfrwt beam="2">  1       -2 0.23481698E+00 0.10351016E+04</pdfrwt>
<totfact> 0.24106806E+00</totfact>
</mgrwt>
</event>
<event>
 4    1  0.5223852E-007  0.6820068E+03  0.7818608E-02  0.1008211E+00
         -2   -1    0    0    0  501 -0.00000000000E+00  0.00000000000E+00  0.85287320368E+03  0.85287320369E+03  0.25500000000E-02 0.  1.
          2   -1    0    0  501    0  0.00000000000E+00 -0.00000000000E+00 -0.58077830144E+03  0.58077830145E+03  0.25500000000E-02 0. -1.
    8880023    1    1    2    0    0  0.14220252536E+03  0.10536352887E+03  0.68022379827E+03  0.96324329919E+03  0.65864270000E+03 0.  1.
    8880022    1    1    2    0    0 -0.14220252536E+03 -0.10536352887E+03 -0.40812889603E+03  0.47040820595E+03  0.15294330000E+03 0.  0.
<mgrwt>
<rscale>  0 0.52192068E+03</rscale>
<asrwt>0</asrwt>
<pdfrwt beam="1">  1        2 0.89350508E-01 0.68200677E+03</pdfrwt>
<pdfrwt beam="2">  1       -2 0.13121126E+00 0.68200677E+03</pdfrwt>
<totfact> 0.22309324E+01</totfact>
</mgrwt>
</event>
<event>
 4    1  0.5223852E-007  0.8008074E+03  0.7818608E-02  0.9709053E-01
          2   -1    0    0  501    0  0.00000000000E+00  0.00000000000E+00  0.14242084267E+04  0.14242084267E+04  0.25500000000E-02 0. -1.
         -2   -1    0    0    0  501 -0.00000000000E+00 -0.00000000000E+00 -0.99630190741E+03  0.99630190741E+03  0.25500000000E-02 0.  1.
    8880023    1    1    2    0    0  0.43871949878E+03 -0.12250520619E+03 -0.78162694129E+03  0.11190322631E+04  0.65864270000E+03 0.  0.
    8880022    1    1    2    0    0 -0.43871949878E+03  0.12250520619E+03  0.12095334606E+04  0.13014780710E+04  0.15294330000E+03 0. -1.
<mgrwt>
<rscale>  0 0.70480332E+03</rscale>
<asrwt>0</asrwt>
<pdfrwt beam="1">  1        2 0.21910899E+00 0.80080742E+03</pdfrwt>
<pdfrwt beam="2">  1       -2 0.15327722E+00 0.80080742E+03</pdfrwt>
<totfact> 0.40349520E+00</totfact>
</mgrwt>
</event>
<event>
 4    1  0.5223852E-007  0.9186524E+03  0.7818608E-02  0.9496728E-01
          2   -1    0    0  501    0  0.00000000000E+00  0.00000000000E+00  0.20294473973E+04  0.20294473973E+04  0.25500000000E-02 0. -1.
         -2   -1    0    0    0  501 -0.00000000000E+00 -0.00000000000E+00 -0.42694048678E+03  0.42694048679E+03  0.25500000000E-02 0.  1.
    8880023    1    1    2    0    0  0.62003362864E+03 -0.16021954674E+03  0.24988642967E+03  0.95203226721E+03  0.65864270000E+03 0.  0.
    8880022    1    1    2    0    0 -0.62003362864E+03  0.16021954674E+03  0.13526204809E+04  0.15043556169E+04  0.15294330000E+03 0.  0.
<mgrwt>
<rscale>  0 0.84525452E+03</rscale>
<asrwt>0</asrwt>
<pdfrwt beam="1">  1        2 0.31222267E+00 0.91865239E+03</pdfrwt>
<pdfrwt beam="2">  1       -2 0.65683153E-01 0.91865239E+03</pdfrwt>
<totfact> 0.13910215E+01</totfact>
</mgrwt>
</event>
<event>
 4    1  0.5223852E-007  0.9550997E+03  0.7818608E-02  0.9442814E-01
          2   -1    0    0  501    0  0.00000000000E+00  0.00000000000E+00  0.24745795997E+04  0.24745795997E+04  0.25500000000E-02 0. -1.
         -2   -1    0    0    0  501 -0.00000000000E+00 -0.00000000000E+00 -0.67494180347E+03  0.67494180348E+03  0.25500000000E-02 0.  1.
    8880023    1    1    2    0    0  0.44392880409E+02  0.69024241730E+03 -0.24468750997E+03  0.98594498136E+03  0.65864270000E+03 0.  0.
    8880022    1    1    2    0    0 -0.44392880409E+02 -0.69024241730E+03  0.20443253062E+04  0.21635764219E+04  0.15294330000E+03 0.  0.
<mgrwt>
<rscale>  0 0.88634450E+03</rscale>
<asrwt>0</asrwt>
<pdfrwt beam="1">  1        2 0.38070456E+00 0.95509975E+03</pdfrwt>
<pdfrwt beam="2">  1       -2 0.10383720E+00 0.95509975E+03</pdfrwt>
<totfact> 0.27579345E+00</totfact>
</mgrwt>
</event>
<event>
 4    1  0.5223852E-007  0.9628023E+03  0.7818608E-02  0.9431929E-01
         -2   -1    0    0    0  501 -0.00000000000E+00  0.00000000000E+00  0.76180330369E+03  0.76180330370E+03  0.25500000000E-02 0.  1.
          2   -1    0    0  501    0  0.00000000000E+00 -0.00000000000E+00 -0.13908744824E+04  0.13908744824E+04  0.25500000000E-02 0. -1.
    8880023    1    1    2    0    0  0.64442317927E+03  0.27910015637E+03  0.27160736495E+03  0.10003793772E+04  0.65864270000E+03 0.  0.
    8880022    1    1    2    0    0 -0.64442317927E+03 -0.27910015637E+03 -0.90067854370E+03  0.11522984090E+04  0.15294330000E+03 0.  0.
<mgrwt>
<rscale>  0 0.89494012E+03</rscale>
<asrwt>0</asrwt>
<pdfrwt beam="1">  1        2 0.21398069E+00 0.96280234E+03</pdfrwt>
<pdfrwt beam="2">  1       -2 0.11720051E+00 0.96280234E+03</pdfrwt>
<totfact> 0.82227453E+00</totfact>
</mgrwt>
</event>
<event>
 4    1  0.5223852E-007  0.6816792E+03  0.7818608E-02  0.1008389E+00
         -2   -1    0    0    0  501 -0.00000000000E+00  0.00000000000E+00  0.44097098993E+03  0.44097098994E+03  0.25500000000E-02 0.  1.
          2   -1    0    0  501    0  0.00000000000E+00 -0.00000000000E+00 -0.17217507396E+04  0.17217507396E+04  0.25500000000E-02 0. -1.
    8880023    1    1    2    0    0 -0.12615554960E+03 -0.12231580316E+03  0.16248560293E+03  0.70077682312E+03  0.65864270000E+03 0.  1.
    8880022    1    1    2    0    0  0.12615554960E+03  0.12231580316E+03 -0.14432653526E+04  0.14619449064E+04  0.15294330000E+03 0.  0.
<mgrwt>
<rscale>  0 0.52119838E+03</rscale>
<asrwt>0</asrwt>
<pdfrwt beam="1">  1        2 0.26488473E+00 0.68167924E+03</pdfrwt>
<pdfrwt beam="2">  1       -2 0.67841692E-01 0.68167924E+03</pdfrwt>
<totfact> 0.19700411E+01</totfact>
</mgrwt>
</event>
<event>
 4    1  0.5223852E-007  0.6647578E+03  0.7818608E-02  0.1019737E+00
         -2   -1    0    0    0  501 -0.00000000000E+00  0.00000000000E+00  0.28331551942E+03  0.28331551943E+03  0.25500000000E-02 0.  1.
          2   -1    0    0  501    0  0.00000000000E+00 -0.00000000000E+00 -0.16776995015E+04  0.16776995015E+04  0.25500000000E-02 0. -1.
    8880023    1    1    2    0    0 -0.77250329411E+02 -0.46099659777E+02 -0.12143454650E+03  0.67575834984E+03  0.65864270000E+03 0.  1.
    8880022    1    1    2    0    0  0.77250329411E+02  0.46099659777E+02 -0.12729494355E+04  0.12852566711E+04  0.15294330000E+03 0.  0.
<mgrwt>
<rscale>  0 0.47781481E+03</rscale>
<asrwt>0</asrwt>
<pdfrwt beam="1">  1        2 0.25810761E+00 0.66475785E+03</pdfrwt>
<pdfrwt beam="2">  1       -2 0.43587004E-01 0.66475785E+03</pdfrwt>
<totfact> 0.52106312E+01</totfact>
</mgrwt>
</event>
<event>
 4    1  0.5223852E-007  0.1535452E+04  0.7818608E-02  0.8884999E-01
         -2   -1    0    0    0  501 -0.00000000000E+00  0.00000000000E+00  0.16352308091E+04  0.16352308091E+04  0.25500000000E-02 0.  1.
          2   -1    0    0  501    0  0.00000000000E+00 -0.00000000000E+00 -0.19914550956E+04  0.19914550956E+04  0.25500000000E-02 0. -1.
    8880023    1    1    2    0    0  0.12751030626E+04  0.54581683265E+03  0.87368032221E+03  0.17666157892E+04  0.65864270000E+03 0.  1.
    8880022    1    1    2    0    0 -0.12751030626E+04 -0.54581683265E+03 -0.12299046088E+04  0.18600701155E+04  0.15294330000E+03 0. -1.
<mgrwt>
<rscale>  0 0.14991789E+04</rscale>
<asrwt>0</asrwt>
<pdfrwt beam="1">  1        2 0.30637771E+00 0.15354524E+04</pdfrwt>
<pdfrwt beam="2">  1       -2 0.25157397E+00 0.15354524E+04</pdfrwt>
<totfact> 0.39645774E-01</totfact>
</mgrwt>
</event>
<event>
 4    1  0.5223852E-007  0.7564403E+03  0.7818608E-02  0.9814412E-01
          2   -1    0    0  501    0  0.00000000000E+00  0.00000000000E+00  0.93573523750E+03  0.93573523750E+03  0.25500000000E-02 0. -1.
         -2   -1    0    0    0  501 -0.00000000000E+00 -0.00000000000E+00 -0.76574172234E+03  0.76574172235E+03  0.25500000000E-02 0.  1.
    8880023    1    1    2    0    0  0.34680579829E+03  0.13460103312E+03 -0.50938281180E+03  0.91196093944E+03  0.65864270000E+03 0.  1.
    8880022    1    1    2    0    0 -0.34680579829E+03 -0.13460103312E+03  0.67937632696E+03  0.78951602041E+03  0.15294330000E+03 0.  0.
<mgrwt>
<rscale>  0 0.64594824E+03</rscale>
<asrwt>0</asrwt>
<pdfrwt beam="1">  1        2 0.14395927E+00 0.75644029E+03</pdfrwt>
<pdfrwt beam="2">  1       -2 0.11780642E+00 0.75644029E+03</pdfrwt>
<totfact> 0.15659602E+01</totfact>
</mgrwt>
</event>
<event>
 4    1  0.5223852E-007  0.6711181E+03  0.7818608E-02  0.1014874E+00
          2   -1    0    0  501    0  0.00000000000E+00  0.00000000000E+00  0.25916349268E+03  0.25916349269E+03  0.25500000000E-02 0. -1.
         -2   -1    0    0    0  501 -0.00000000000E+00 -0.00000000000E+00 -0.95657339243E+03  0.95657339244E+03  0.25500000000E-02 0.  1.
    8880023    1    1    2    0    0 -0.48401368887E+01 -0.12870861779E+03 -0.75254013171E+03  0.10083234557E+04  0.65864270000E+03 0.  1.
    8880022    1    1    2    0    0  0.48401368887E+01  0.12870861779E+03  0.55130231956E+02  0.20741342943E+03  0.15294330000E+03 0.  0.
<mgrwt>
<rscale>  0 0.49582785E+03</rscale>
<asrwt>0</asrwt>
<pdfrwt beam="1">  1        2 0.39871307E-01 0.67111813E+03</pdfrwt>
<pdfrwt beam="2">  1       -2 0.14716514E+00 0.67111813E+03</pdfrwt>
<totfact> 0.41398125E+01</totfact>
</mgrwt>
</event>
<event>
 4    1  0.5223852E-007  0.7253042E+03  0.7818608E-02  0.9905031E-01
         -2   -1    0    0    0  501 -0.00000000000E+00  0.00000000000E+00  0.34847196503E+03  0.34847196504E+03  0.25500000000E-02 0.  1.
          2   -1    0    0  501    0  0.00000000000E+00 -0.00000000000E+00 -0.26058776033E+04  0.26058776033E+04  0.25500000000E-02 0. -1.
    8880023    1    1    2    0    0  0.29699497149E+03 -0.63639373920E+02 -0.56692586360E+02  0.72751648683E+03  0.65864270000E+03 0.  1.
    8880022    1    1    2    0    0 -0.29699497149E+03  0.63639373920E+02 -0.22007130519E+04  0.22268330815E+04  0.15294330000E+03 0.  0.
<mgrwt>
<rscale>  0 0.60018100E+03</rscale>
<asrwt>0</asrwt>
<pdfrwt beam="1">  1        2 0.40090424E+00 0.72530420E+03</pdfrwt>
<pdfrwt beam="2">  1       -2 0.53611073E-01 0.72530420E+03</pdfrwt>
<totfact> 0.10450889E+01</totfact>
</mgrwt>
</event>
<event>
 4    1  0.5223852E-007  0.8412104E+03  0.7818608E-02  0.9627902E-01
         -2   -1    0    0    0  501 -0.00000000000E+00  0.00000000000E+00  0.75285936412E+03  0.75285936412E+03  0.25500000000E-02 0.  1.
          2   -1    0    0  501    0  0.00000000000E+00 -0.00000000000E+00 -0.21906089476E+04  0.21906089476E+04  0.25500000000E-02 0. -1.
    8880023    1    1    2    0    0 -0.12790059136E+03  0.50741120342E+03  0.46706155607E+03  0.96217534475E+03  0.65864270000E+03 0.  0.
    8880022    1    1    2    0    0  0.12790059136E+03 -0.50741120342E+03 -0.19048111396E+04  0.19812929670E+04  0.15294330000E+03 0.  0.
<mgrwt>
<rscale>  0 0.75476639E+03</rscale>
<asrwt>0</asrwt>
<pdfrwt beam="1">  1        2 0.33701676E+00 0.84121038E+03</pdfrwt>
<pdfrwt beam="2">  1       -2 0.11582452E+00 0.84121038E+03</pdfrwt>
<totfact> 0.31058691E+00</totfact>
</mgrwt>
</event>
<event>
 4    1  0.5223852E-007  0.6672915E+03  0.7818608E-02  0.1017684E+00
         -2   -1    0    0    0  501 -0.00000000000E+00  0.00000000000E+00  0.25578975921E+03  0.25578975923E+03  0.25500000000E-02 0.  1.
          2   -1    0    0  501    0  0.00000000000E+00 -0.00000000000E+00 -0.18583576127E+04  0.18583576127E+04  0.25500000000E-02 0. -1.
    8880023    1    1    2    0    0  0.92297832303E+02 -0.54302883878E+02 -0.19633705868E+03  0.69557612087E+03  0.65864270000E+03 0.  1.
    8880022    1    1    2    0    0 -0.92297832303E+02  0.54302883878E+02 -0.14062307948E+04  0.14185712511E+04  0.15294330000E+03 0.  0.
<mgrwt>
<rscale>  0 0.48531820E+03</rscale>
<asrwt>0</asrwt>
<pdfrwt beam="1">  1        2 0.28590116E+00 0.66729147E+03</pdfrwt>
<pdfrwt beam="2">  1       -2 0.39352272E-01 0.66729147E+03</pdfrwt>
<totfact> 0.50753846E+01</totfact>
</mgrwt>
</event>
<event>
 4    1  0.5223852E-007  0.9654008E+03  0.7818608E-02  0.9428294E-01
         -2   -1    0    0    0  501 -0.00000000000E+00  0.00000000000E+00  0.70723654612E+03  0.70723654612E+03  0.25500000000E-02 0.  1.
          2   -1    0    0  501    0  0.00000000000E+00 -0.00000000000E+00 -0.19705327521E+04  0.19705327521E+04  0.25500000000E-02 0. -1.
    8880023    1    1    2    0    0  0.69828855487E+03  0.10286668026E+03  0.25322766202E+03  0.99805957479E+03  0.65864270000E+03 0.  0.
    8880022    1    1    2    0    0 -0.69828855487E+03 -0.10286668026E+03 -0.15165238680E+04  0.16797097235E+04  0.15294330000E+03 0. -1.
<mgrwt>
<rscale>  0 0.89783362E+03</rscale>
<asrwt>0</asrwt>
<pdfrwt beam="1">  1        2 0.30315888E+00 0.96540078E+03</pdfrwt>
<pdfrwt beam="2">  1       -2 0.10880562E+00 0.96540078E+03</pdfrwt>
<totfact> 0.46983590E+00</totfact>
</mgrwt>
</event>
<event>
 4    1  0.5223852E-007  0.6801012E+03  0.7818608E-02  0.1009266E+00
         -2   -1    0    0    0  501 -0.00000000000E+00  0.00000000000E+00  0.43642209951E+03  0.43642209952E+03  0.25500000000E-02 0.  1.
          2   -1    0    0  501    0  0.00000000000E+00 -0.00000000000E+00 -0.96856018162E+03  0.96856018162E+03  0.25500000000E-02 0. -1.
    8880023    1    1    2    0    0  0.63992610428E+02  0.15694704843E+03  0.14066996507E+03  0.69449670664E+03  0.65864270000E+03 0.  1.
    8880022    1    1    2    0    0 -0.63992610428E+02 -0.15694704843E+03 -0.67280804718E+03  0.71048557450E+03  0.15294330000E+03 0.  0.
<mgrwt>
<rscale>  0 0.51767209E+03</rscale>
<asrwt>0</asrwt>
<pdfrwt beam="1">  1        2 0.14900926E+00 0.68010120E+03</pdfrwt>
<pdfrwt beam="2">  1       -2 0.67141862E-01 0.68010120E+03</pdfrwt>
<totfact> 0.54878727E+01</totfact>
</mgrwt>
</event>
<event>
 4    1  0.5223852E-007  0.1226210E+04  0.7818608E-02  0.9132056E-01
         -2   -1    0    0    0  501 -0.00000000000E+00  0.00000000000E+00  0.84504021156E+03  0.84504021156E+03  0.25500000000E-02 0.  1.
          2   -1    0    0  501    0  0.00000000000E+00 -0.00000000000E+00 -0.16893138769E+04  0.16893138769E+04  0.25500000000E-02 0. -1.
    8880023    1    1    2    0    0 -0.35908454854E+02 -0.10336783872E+04 -0.84436416897E+03  0.14888053873E+04  0.65864270000E+03 0.  0.
    8880022    1    1    2    0    0  0.35908454854E+02  0.10336783872E+04  0.90503602891E-01  0.10455487012E+04  0.15294330000E+03 0.  0.
<mgrwt>
<rscale>  0 0.11783103E+04</rscale>
<asrwt>0</asrwt>
<pdfrwt beam="1">  1        2 0.25989444E+00 0.12262099E+04</pdfrwt>
<pdfrwt beam="2">  1       -2 0.13000619E+00 0.12262099E+04</pdfrwt>
<totfact> 0.41944322E+00</totfact>
</mgrwt>
</event>
<event>
 4    1  0.5223852E-007  0.7037853E+03  0.7818608E-02  0.9981846E-01
         -2   -1    0    0    0  501 -0.00000000000E+00  0.00000000000E+00  0.46165950754E+03  0.46165950754E+03  0.25500000000E-02 0.  1.
          2   -1    0    0  501    0  0.00000000000E+00 -0.00000000000E+00 -0.63602459436E+03  0.63602459437E+03  0.25500000000E-02 0. -1.
    8880023    1    1    2    0    0  0.24448445264E+03  0.41603714479E+02  0.83339308772E+02  0.70870245046E+03  0.65864270000E+03 0.  1.
    8880022    1    1    2    0    0 -0.24448445264E+03 -0.41603714479E+02 -0.25770439560E+03  0.38898165145E+03  0.15294330000E+03 0.  0.
<mgrwt>
<rscale>  0 0.56453453E+03</rscale>
<asrwt>0</asrwt>
<pdfrwt beam="1">  1        2 0.97849938E-01 0.70378528E+03</pdfrwt>
<pdfrwt beam="2">  1       -2 0.71024539E-01 0.70378528E+03</pdfrwt>
<totfact> 0.84407007E+01</totfact>
</mgrwt>
</event>
<event>
 4    1  0.5223852E-007  0.6833539E+03  0.7818608E-02  0.1007487E+00
         -2   -1    0    0    0  501 -0.00000000000E+00  0.00000000000E+00  0.43758586637E+03  0.43758586637E+03  0.25500000000E-02 0.  1.
          2   -1    0    0  501    0  0.00000000000E+00 -0.00000000000E+00 -0.16511408835E+04  0.16511408835E+04  0.25500000000E-02 0. -1.
    8880023    1    1    2    0    0  0.18158281725E+03 -0.13782744515E+02  0.15413035566E+03  0.70052027549E+03  0.65864270000E+03 0.  1.
    8880022    1    1    2    0    0 -0.18158281725E+03  0.13782744515E+02 -0.13676853728E+04  0.13882064744E+04  0.15294330000E+03 0.  0.
<mgrwt>
<rscale>  0 0.52485833E+03</rscale>
<asrwt>0</asrwt>
<pdfrwt beam="1">  1        2 0.25402167E+00 0.68335385E+03</pdfrwt>
<pdfrwt beam="2">  1       -2 0.67320903E-01 0.68335385E+03</pdfrwt>
<totfact> 0.21886160E+01</totfact>
</mgrwt>
</event>
<event>
 4    1  0.5223852E-007  0.6879940E+03  0.7818608E-02  0.1005121E+00
          2   -1    0    0  501    0  0.00000000000E+00  0.00000000000E+00  0.95594977587E+03  0.95594977588E+03  0.25500000000E-02 0. -1.
         -2   -1    0    0    0  501 -0.00000000000E+00 -0.00000000000E+00 -0.28757262094E+03  0.28757262095E+03  0.25500000000E-02 0.  1.
    8880023    1    1    2    0    0  0.18018635644E+03  0.84014589699E+02  0.20715419341E+03  0.71850444705E+03  0.65864270000E+03 0.  1.
    8880022    1    1    2    0    0 -0.18018635644E+03 -0.84014589699E+02  0.46122296153E+03  0.52501794977E+03  0.15294330000E+03 0.  1.
<mgrwt>
<rscale>  0 0.53460707E+03</rscale>
<asrwt>0</asrwt>
<pdfrwt beam="1">  1        2 0.14706920E+00 0.68799403E+03</pdfrwt>
<pdfrwt beam="2">  1       -2 0.44241942E-01 0.68799403E+03</pdfrwt>
<totfact> 0.13250030E+02</totfact>
</mgrwt>
</event>
<event>
 4    1  0.5223852E-007  0.6695916E+03  0.7818608E-02  0.1015957E+00
         -2   -1    0    0    0  501 -0.00000000000E+00  0.00000000000E+00  0.54913969028E+02  0.54913969087E+02  0.25500000000E-02 0.  1.
          2   -1    0    0  501    0  0.00000000000E+00 -0.00000000000E+00 -0.34381490872E+04  0.34381490872E+04  0.25500000000E-02 0. -1.
    8880023    1    1    2    0    0  0.89781906240E+02  0.80510661824E+02 -0.24595029981E+04  0.25490209809E+04  0.65864270000E+03 0.  1.
    8880022    1    1    2    0    0 -0.89781906240E+02 -0.80510661824E+02 -0.92373212008E+03  0.94404207535E+03  0.15294330000E+03 0. -1.
<mgrwt>
<rscale>  0 0.49174130E+03</rscale>
<asrwt>0</asrwt>
<pdfrwt beam="1">  1        2 0.52894584E+00 0.66959164E+03</pdfrwt>
<pdfrwt beam="2">  1       -2 0.84483056E-02 0.66959164E+03</pdfrwt>
<totfact> 0.87891243E+01</totfact>
</mgrwt>
</event>
<event>
 4    1  0.5223852E-007  0.6966303E+03  0.7818608E-02  0.1001148E+00
          2   -1    0    0  501    0  0.00000000000E+00  0.00000000000E+00  0.61212787120E+03  0.61212787120E+03  0.25500000000E-02 0. -1.
         -2   -1    0    0    0  501 -0.00000000000E+00 -0.00000000000E+00 -0.62753657125E+03  0.62753657126E+03  0.25500000000E-02 0.  1.
    8880023    1    1    2    0    0 -0.93564017986E+02  0.20671070598E+03 -0.37235693991E+03  0.78990090416E+03  0.65864270000E+03 0.  1.
    8880022    1    1    2    0    0  0.93564017986E+02 -0.20671070598E+03  0.35694823986E+03  0.44976353830E+03  0.15294330000E+03 0.  0.
<mgrwt>
<rscale>  0 0.55149808E+03</rscale>
<asrwt>0</asrwt>
<pdfrwt beam="1">  1        2 0.94173518E-01 0.69663028E+03</pdfrwt>
<pdfrwt beam="2">  1       -2 0.96544089E-01 0.69663028E+03</pdfrwt>
<totfact> 0.44162841E+01</totfact>
</mgrwt>
</event>
<event>
 4    1  0.5223852E-007  0.6815612E+03  0.7818608E-02  0.1008454E+00
          2   -1    0    0  501    0  0.00000000000E+00  0.00000000000E+00  0.84275248852E+03  0.84275248853E+03  0.25500000000E-02 0. -1.
         -2   -1    0    0    0  501 -0.00000000000E+00 -0.00000000000E+00 -0.33379067046E+03  0.33379067047E+03  0.25500000000E-02 0.  1.
    8880023    1    1    2    0    0  0.58517600206E+02 -0.16520017822E+03  0.76952726416E+02  0.68589163633E+03  0.65864270000E+03 0.  1.
    8880022    1    1    2    0    0 -0.58517600206E+02  0.16520017822E+03  0.43200909165E+03  0.49065152267E+03  0.15294330000E+03 0.  0.
<mgrwt>
<rscale>  0 0.52093720E+03</rscale>
<asrwt>0</asrwt>
<pdfrwt beam="1">  1        2 0.12965423E+00 0.68156116E+03</pdfrwt>
<pdfrwt beam="2">  1       -2 0.51352411E-01 0.68156116E+03</pdfrwt>
<totfact> 0.11697898E+02</totfact>
</mgrwt>
</event>
<event>
 4    1  0.5223852E-007  0.7889072E+03  0.7818608E-02  0.9735315E-01
         -2   -1    0    0    0  501 -0.00000000000E+00  0.00000000000E+00  0.13728476531E+04  0.13728476531E+04  0.25500000000E-02 0.  1.
          2   -1    0    0  501    0  0.00000000000E+00 -0.00000000000E+00 -0.39903441467E+03  0.39903441468E+03  0.25500000000E-02 0. -1.
    8880023    1    1    2    0    0 -0.26805305802E+02  0.43341179435E+03  0.10414862934E+04  0.13065482056E+04  0.65864270000E+03 0.  1.
    8880022    1    1    2    0    0  0.26805305802E+02 -0.43341179435E+03 -0.67673054988E+02  0.46533386218E+03  0.15294330000E+03 0.  0.
<mgrwt>
<rscale>  0 0.68952518E+03</rscale>
<asrwt>0</asrwt>
<pdfrwt beam="1">  1        2 0.61389910E-01 0.78890716E+03</pdfrwt>
<pdfrwt beam="2">  1       -2 0.21120733E+00 0.78890716E+03</pdfrwt>
<totfact> 0.91150640E+00</totfact>
</mgrwt>
</event>
<event>
 4    1  0.5223852E-007  0.7449815E+03  0.7818608E-02  0.9845667E-01
         -2   -1    0    0    0  501 -0.00000000000E+00  0.00000000000E+00  0.35776661613E+03  0.35776661614E+03  0.25500000000E-02 0.  1.
          2   -1    0    0  501    0  0.00000000000E+00 -0.00000000000E+00 -0.22529088121E+04  0.22529088121E+04  0.25500000000E-02 0. -1.
    8880023    1    1    2    0    0 -0.29930839178E+03  0.17776864074E+03 -0.72168140035E+02  0.74846887024E+03  0.65864270000E+03 0.  0.
    8880022    1    1    2    0    0  0.29930839178E+03 -0.17776864074E+03 -0.18229740560E+04  0.18622065580E+04  0.15294330000E+03 0.  0.
<mgrwt>
<rscale>  0 0.62968335E+03</rscale>
<asrwt>0</asrwt>
<pdfrwt beam="1">  1        2 0.34660135E+00 0.74498148E+03</pdfrwt>
<pdfrwt beam="2">  1       -2 0.55041019E-01 0.74498148E+03</pdfrwt>
<totfact> 0.15585248E+01</totfact>
</mgrwt>
</event>
<event>
 4    1  0.5223852E-007  0.7470856E+03  0.7818608E-02  0.9839768E-01
         -2   -1    0    0    0  501 -0.00000000000E+00  0.00000000000E+00  0.75484533134E+03  0.75484533135E+03  0.25500000000E-02 0.  1.
          2   -1    0    0  501    0  0.00000000000E+00 -0.00000000000E+00 -0.58119773108E+03  0.58119773108E+03  0.25500000000E-02 0. -1.
    8880023    1    1    2    0    0 -0.13105176765E+03 -0.32734108957E+03  0.44130014774E+03  0.86768818212E+03  0.65864270000E+03 0.  0.
    8880022    1    1    2    0    0  0.13105176765E+03  0.32734108957E+03 -0.26765254747E+03  0.46835488031E+03  0.15294330000E+03 0.  0.
<mgrwt>
<rscale>  0 0.63271353E+03</rscale>
<asrwt>0</asrwt>
<pdfrwt beam="1">  1        2 0.89415036E-01 0.74708565E+03</pdfrwt>
<pdfrwt beam="2">  1       -2 0.11613005E+00 0.74708565E+03</pdfrwt>
<totfact> 0.30055270E+01</totfact>
</mgrwt>
</event>
<event>
 4    1  0.5223852E-007  0.1017094E+04  0.7818608E-02  0.9359528E-01
          2   -1    0    0  501    0  0.00000000000E+00  0.00000000000E+00  0.21649242977E+04  0.21649242977E+04  0.25500000000E-02 0. -1.
         -2   -1    0    0    0  501 -0.00000000000E+00 -0.00000000000E+00 -0.64235170997E+03  0.64235170997E+03  0.25500000000E-02 0.  1.
    8880023    1    1    2    0    0 -0.54798022536E+03  0.54807590496E+03 -0.80348502408E+02  0.10202625217E+04  0.65864270000E+03 0.  1.
    8880022    1    1    2    0    0  0.54798022536E+03 -0.54807590496E+03  0.16029210901E+04  0.17870134860E+04  0.15294330000E+03 0.  0.
<mgrwt>
<rscale>  0 0.95482579E+03</rscale>
<asrwt>0</asrwt>
<pdfrwt beam="1">  1        2 0.33306528E+00 0.10170938E+04</pdfrwt>
<pdfrwt beam="2">  1       -2 0.98823340E-01 0.10170938E+04</pdfrwt>
<totfact> 0.45938641E+00</totfact>
</mgrwt>
</event>
<event>
 4    1  0.5223852E-007  0.1022366E+04  0.7818608E-02  0.9352864E-01
         -2   -1    0    0    0  501 -0.00000000000E+00  0.00000000000E+00  0.92709169683E+03  0.92709169683E+03  0.25500000000E-02 0.  1.
          2   -1    0    0  501    0  0.00000000000E+00 -0.00000000000E+00 -0.15966845127E+04  0.15966845127E+04  0.25500000000E-02 0. -1.
    8880023    1    1    2    0    0 -0.75197420371E+03 -0.21437598527E+03  0.47649176575E+03  0.11279525146E+04  0.65864270000E+03 0.  0.
    8880022    1    1    2    0    0  0.75197420371E+03  0.21437598527E+03 -0.11460845816E+04  0.13958236949E+04  0.15294330000E+03 0.  0.
<mgrwt>
<rscale>  0 0.96058465E+03</rscale>
<asrwt>0</asrwt>
<pdfrwt beam="1">  1        2 0.24564377E+00 0.10223661E+04</pdfrwt>
<pdfrwt beam="2">  1       -2 0.14262949E+00 0.10223661E+04</pdfrwt>
<totfact> 0.37975558E+00</totfact>
</mgrwt>
</event>
<event>
 4    1  0.5223852E-007  0.7998033E+03  0.7818608E-02  0.9711222E-01
          2   -1    0    0  501    0  0.00000000000E+00  0.00000000000E+00  0.41698956774E+04  0.41698956774E+04  0.25500000000E-02 0. -1.
         -2   -1    0    0    0  501 -0.00000000000E+00 -0.00000000000E+00 -0.10655569178E+03  0.10655569182E+03  0.25500000000E-02 0.  1.
    8880023    1    1    2    0    0 -0.93565354820E+02 -0.44398261423E+03  0.30883284069E+04  0.31902127817E+04  0.65864270000E+03 0.  0.
    8880022    1    1    2    0    0  0.93565354820E+02  0.44398261423E+03  0.97501157867E+03  0.10862385875E+04  0.15294330000E+03 0.  0.
<mgrwt>
<rscale>  0 0.70352575E+03</rscale>
<asrwt>0</asrwt>
<pdfrwt beam="1">  1        2 0.64152236E+00 0.79980325E+03</pdfrwt>
<pdfrwt beam="2">  1       -2 0.16393185E-01 0.79980325E+03</pdfrwt>
<totfact> 0.81789697E+00</totfact>
</mgrwt>
</event>
<event>
 4    1  0.5223852E-007  0.6785627E+03  0.7818608E-02  0.1010149E+00
         -2   -1    0    0    0  501 -0.00000000000E+00  0.00000000000E+00  0.10077771388E+03  0.10077771391E+03  0.25500000000E-02 0.  1.
          2   -1    0    0  501    0  0.00000000000E+00 -0.00000000000E+00 -0.36267465155E+04  0.36267465155E+04  0.25500000000E-02 0. -1.
    8880023    1    1    2    0    0  0.11597234773E+03 -0.11483675537E+03 -0.11082875038E+04  0.12995185505E+04  0.65864270000E+03 0.  0.
    8880022    1    1    2    0    0 -0.11597234773E+03  0.11483675537E+03 -0.24176812979E+04  0.24280056789E+04  0.15294330000E+03 0. -1.
<mgrwt>
<rscale>  0 0.51415597E+03</rscale>
<asrwt>0</asrwt>
<pdfrwt beam="1">  1        2 0.55796090E+00 0.67856265E+03</pdfrwt>
<pdfrwt beam="2">  1       -2 0.15504266E-01 0.67856265E+03</pdfrwt>
<totfact> 0.23979742E+01</totfact>
</mgrwt>
</event>
<event>
 4    1  0.5223852E-007  0.6975075E+03  0.7818608E-02  0.1000770E+00
         -2   -1    0    0    0  501 -0.00000000000E+00  0.00000000000E+00  0.46141981748E+03  0.46141981748E+03  0.25500000000E-02 0.  1.
          2   -1    0    0  501    0  0.00000000000E+00 -0.00000000000E+00 -0.73329322462E+03  0.73329322462E+03  0.25500000000E-02 0. -1.
    8880023    1    1    2    0    0  0.15582421782E+03 -0.16859824575E+03  0.12776370680E+03  0.70911235102E+03  0.65864270000E+03 0.  1.
    8880022    1    1    2    0    0 -0.15582421782E+03  0.16859824575E+03 -0.39963711394E+03  0.48560069109E+03  0.15294330000E+03 0.  0.
<mgrwt>
<rscale>  0 0.55313798E+03</rscale>
<asrwt>0</asrwt>
<pdfrwt beam="1">  1        2 0.11281434E+00 0.69750754E+03</pdfrwt>
<pdfrwt beam="2">  1       -2 0.70987664E-01 0.69750754E+03</pdfrwt>
<totfact> 0.70756479E+01</totfact>
</mgrwt>
</event>
<event>
 4    1  0.5223852E-007  0.8368643E+03  0.7818608E-02  0.9636122E-01
         -2   -1    0    0    0  501 -0.00000000000E+00  0.00000000000E+00  0.94770545266E+03  0.94770545267E+03  0.25500000000E-02 0.  1.
          2   -1    0    0  501    0  0.00000000000E+00 -0.00000000000E+00 -0.99130423274E+03  0.99130423274E+03  0.25500000000E-02 0. -1.
    8880023    1    1    2    0    0  0.21940756828E+03 -0.46732419365E+03 -0.69928646223E+03  0.10905701928E+04  0.65864270000E+03 0.  0.
    8880022    1    1    2    0    0 -0.21940756828E+03  0.46732419365E+03  0.65568768216E+03  0.84843949256E+03  0.15294330000E+03 0.  0.
<mgrwt>
<rscale>  0 0.74950864E+03</rscale>
<asrwt>0</asrwt>
<pdfrwt beam="1">  1        2 0.15250834E+00 0.83686426E+03</pdfrwt>
<pdfrwt beam="2">  1       -2 0.14580084E+00 0.83686426E+03</pdfrwt>
<totfact> 0.83049527E+00</totfact>
</mgrwt>
</event>
<event>
 4    1  0.5223852E-007  0.6610816E+03  0.7818608E-02  0.1023075E+00
         -2   -1    0    0    0  501 -0.00000000000E+00  0.00000000000E+00  0.14131838302E+04  0.14131838302E+04  0.25500000000E-02 0.  1.
          2   -1    0    0  501    0  0.00000000000E+00 -0.00000000000E+00 -0.39073229363E+03  0.39073229363E+03  0.25500000000E-02 0. -1.
    8880023    1    1    2    0    0  0.24745413589E+02 -0.51051878532E+02  0.13133813294E+04  0.14703738819E+04  0.65864270000E+03 0.  0.
    8880022    1    1    2    0    0 -0.24745413589E+02  0.51051878532E+02 -0.29092979284E+03  0.33354224196E+03  0.15294330000E+03 0. -1.
<mgrwt>
<rscale>  0 0.46593193E+03</rscale>
<asrwt>0</asrwt>
<pdfrwt beam="1">  1        2 0.60112660E-01 0.66108157E+03</pdfrwt>
<pdfrwt beam="2">  1       -2 0.21741290E+00 0.66108157E+03</pdfrwt>
<totfact> 0.86497462E+00</totfact>
</mgrwt>
</event>
<event>
 4    1  0.5223852E-007  0.1282828E+04  0.7818608E-02  0.9080532E-01
         -2   -1    0    0    0  501 -0.00000000000E+00  0.00000000000E+00  0.19863420723E+04  0.19863420723E+04  0.25500000000E-02 0.  1.
          2   -1    0    0  501    0  0.00000000000E+00 -0.00000000000E+00 -0.12575044910E+04  0.12575044910E+04  0.25500000000E-02 0. -1.
    8880023    1    1    2    0    0 -0.34407733888E+03  0.10456809108E+04  0.14367680470E+04  0.19261231554E+04  0.65864270000E+03 0.  1.
    8880022    1    1    2    0    0  0.34407733888E+03 -0.10456809108E+04 -0.70793046574E+03  0.13177234079E+04  0.15294330000E+03 0.  0.
<mgrwt>
<rscale>  0 0.12376413E+04</rscale>
<asrwt>0</asrwt>
<pdfrwt beam="1">  1        2 0.19346223E+00 0.12828281E+04</pdfrwt>
<pdfrwt beam="2">  1       -2 0.30559109E+00 0.12828281E+04</pdfrwt>
<totfact> 0.49714657E-01</totfact>
</mgrwt>
</event>
<event>
 4    1  0.5223852E-007  0.7506519E+03  0.7818608E-02  0.9829939E-01
         -2   -1    0    0    0  501 -0.00000000000E+00  0.00000000000E+00  0.32306653207E+03  0.32306653208E+03  0.25500000000E-02 0.  1.
          2   -1    0    0  501    0  0.00000000000E+00 -0.00000000000E+00 -0.19539164693E+04  0.19539164693E+04  0.25500000000E-02 0. -1.
    8880023    1    1    2    0    0  0.29275281867E+03  0.20967565375E+03 -0.17676091980E+03  0.77118267722E+03  0.65864270000E+03 0.  1.
    8880022    1    1    2    0    0 -0.29275281867E+03 -0.20967565375E+03 -0.14540890174E+04  0.15058003242E+04  0.15294330000E+03 0.  0.
<mgrwt>
<rscale>  0 0.63780302E+03</rscale>
<asrwt>0</asrwt>
<pdfrwt beam="1">  1        2 0.30060253E+00 0.75065192E+03</pdfrwt>
<pdfrwt beam="2">  1       -2 0.49702545E-01 0.75065192E+03</pdfrwt>
<totfact> 0.28012782E+01</totfact>
</mgrwt>
</event>
<event>
 4    1  0.5223852E-007  0.9756727E+03  0.7818608E-02  0.9414101E-01
          2   -1    0    0  501    0  0.00000000000E+00  0.00000000000E+00  0.25745792297E+04  0.25745792297E+04  0.25500000000E-02 0. -1.
         -2   -1    0    0    0  501 -0.00000000000E+00 -0.00000000000E+00 -0.56580849226E+03  0.56580849226E+03  0.25500000000E-02 0.  1.
    8880023    1    1    2    0    0 -0.23126837211E+03 -0.68164650392E+03 -0.26640339088E+02  0.97603633651E+03  0.65864270000E+03 0.  0.
    8880022    1    1    2    0    0  0.23126837211E+03  0.68164650392E+03  0.20354110765E+04  0.21643513855E+04  0.15294330000E+03 0.  0.
<mgrwt>
<rscale>  0 0.90924264E+03</rscale>
<asrwt>0</asrwt>
<pdfrwt beam="1">  1        2 0.39608911E+00 0.97567270E+03</pdfrwt>
<pdfrwt beam="2">  1       -2 0.87047460E-01 0.97567270E+03</pdfrwt>
<totfact> 0.36464475E+00</totfact>
</mgrwt>
</event>
<event>
 4    1  0.5223852E-007  0.7595692E+03  0.7818608E-02  0.9806224E-01
         -2   -1    0    0    0  501 -0.00000000000E+00  0.00000000000E+00  0.32953394964E+03  0.32953394965E+03  0.25500000000E-02 0.  1.
          2   -1    0    0  501    0  0.00000000000E+00 -0.00000000000E+00 -0.17164395823E+04  0.17164395823E+04  0.25500000000E-02 0. -1.
    8880023    1    1    2    0    0 -0.11979746502E+03 -0.35886440173E+03 -0.19221765648E+03  0.78351319400E+03  0.65864270000E+03 0.  1.
    8880022    1    1    2    0    0  0.11979746502E+03  0.35886440173E+03 -0.11946879762E+04  0.12624603379E+04  0.15294330000E+03 0.  0.
<mgrwt>
<rscale>  0 0.65029586E+03</rscale>
<asrwt>0</asrwt>
<pdfrwt beam="1">  1        2 0.26406762E+00 0.75956915E+03</pdfrwt>
<pdfrwt beam="2">  1       -2 0.50697532E-01 0.75956915E+03</pdfrwt>
<totfact> 0.36215319E+01</totfact>
</mgrwt>
</event>
<event>
 4    1  0.5223852E-007  0.1123596E+04  0.7818608E-02  0.9235229E-01
          2   -1    0    0  501    0  0.00000000000E+00  0.00000000000E+00  0.16765631823E+04  0.16765631823E+04  0.25500000000E-02 0. -1.
         -2   -1    0    0    0  501 -0.00000000000E+00 -0.00000000000E+00 -0.72419068909E+03  0.72419068909E+03  0.25500000000E-02 0.  1.
    8880023    1    1    2    0    0  0.22160647410E+03 -0.88292036630E+03  0.95969259433E+03  0.14776595970E+04  0.65864270000E+03 0.  0.
    8880022    1    1    2    0    0 -0.22160647410E+03  0.88292036630E+03 -0.73201011234E+01  0.92309427443E+03  0.15294330000E+03 0.  0.
<mgrwt>
<rscale>  0 0.10697092E+04</rscale>
<asrwt>0</asrwt>
<pdfrwt beam="1">  1        2 0.25793279E+00 0.11235960E+04</pdfrwt>
<pdfrwt beam="2">  1       -2 0.11141395E+00 0.11235960E+04</pdfrwt>
<totfact> 0.63296098E+00</totfact>
</mgrwt>
</event>
<event>
 4    1  0.5223852E-007  0.7053646E+03  0.7818608E-02  0.9975635E-01
          2   -1    0    0  501    0  0.00000000000E+00  0.00000000000E+00  0.17811518266E+04  0.17811518266E+04  0.25500000000E-02 0. -1.
         -2   -1    0    0    0  501 -0.00000000000E+00 -0.00000000000E+00 -0.15263439003E+03  0.15263439005E+03  0.25500000000E-02 0.  1.
    8880023    1    1    2    0    0  0.24942165116E+03 -0.38959590783E+02  0.87099096864E+03  0.11207874390E+04  0.65864270000E+03 0.  1.
    8880022    1    1    2    0    0 -0.24942165116E+03  0.38959590783E+02  0.75752646795E+03  0.81299877764E+03  0.15294330000E+03 0. -1.
<mgrwt>
<rscale>  0 0.56731647E+03</rscale>
<asrwt>0</asrwt>
<pdfrwt beam="1">  1        2 0.27402336E+00 0.70536460E+03</pdfrwt>
<pdfrwt beam="2">  1       -2 0.23482214E-01 0.70536460E+03</pdfrwt>
<totfact> 0.14537586E+02</totfact>
</mgrwt>
</event>
<event>
 4    1  0.5223852E-007  0.7895650E+03  0.7818608E-02  0.9733830E-01
          2   -1    0    0  501    0  0.00000000000E+00  0.00000000000E+00  0.21265583798E+03  0.21265583800E+03  0.25500000000E-02 0. -1.
         -2   -1    0    0    0  501 -0.00000000000E+00 -0.00000000000E+00 -0.19691018245E+04  0.19691018245E+04  0.25500000000E-02 0.  1.
    8880023    1    1    2    0    0  0.42847040662E+03 -0.77561900743E+02 -0.13635558276E+04  0.15756577798E+04  0.65864270000E+03 0.  0.
    8880022    1    1    2    0    0 -0.42847040662E+03  0.77561900743E+02 -0.39289015888E+03  0.60609988266E+03  0.15294330000E+03 0.  1.
<mgrwt>
<rscale>  0 0.69037801E+03</rscale>
<asrwt>0</asrwt>
<pdfrwt beam="1">  1        2 0.32716284E-01 0.78956503E+03</pdfrwt>
<pdfrwt beam="2">  1       -2 0.30293873E+00 0.78956503E+03</pdfrwt>
<totfact> 0.50897178E+00</totfact>
</mgrwt>
</event>
<event>
 4    1  0.5223852E-007  0.8997956E+03  0.7818608E-02  0.9526360E-01
         -2   -1    0    0    0  501 -0.00000000000E+00  0.00000000000E+00  0.11692074701E+04  0.11692074701E+04  0.25500000000E-02 0.  1.
          2   -1    0    0  501    0  0.00000000000E+00 -0.00000000000E+00 -0.77211805377E+03  0.77211805377E+03  0.25500000000E-02 0. -1.
    8880023    1    1    2    0    0  0.52559531303E+03  0.31554938548E+03  0.78991768730E+03  0.11973312018E+04  0.65864270000E+03 0.  0.
    8880022    1    1    2    0    0 -0.52559531303E+03 -0.31554938548E+03 -0.39282827101E+03  0.74399432207E+03  0.15294330000E+03 0.  0.
<mgrwt>
<rscale>  0 0.82368003E+03</rscale>
<asrwt>0</asrwt>
<pdfrwt beam="1">  1        2 0.11878739E+00 0.89979556E+03</pdfrwt>
<pdfrwt beam="2">  1       -2 0.17987807E+00 0.89979556E+03</pdfrwt>
<totfact> 0.65711712E+00</totfact>
</mgrwt>
</event>
<event>
 4    1  0.5223852E-007  0.8777914E+03  0.7818608E-02  0.9562667E-01
          2   -1    0    0  501    0  0.00000000000E+00  0.00000000000E+00  0.12540864397E+04  0.12540864397E+04  0.25500000000E-02 0. -1.
         -2   -1    0    0    0  501 -0.00000000000E+00 -0.00000000000E+00 -0.45661007059E+03  0.45661007059E+03  0.25500000000E-02 0.  1.
    8880023    1    1    2    0    0  0.56115471001E+03 -0.14769219654E+03  0.28896148369E+03  0.92413015252E+03  0.65864270000E+03 0. -1.
    8880022    1    1    2    0    0 -0.56115471001E+03  0.14769219654E+03  0.50851488543E+03  0.78656635779E+03  0.15294330000E+03 0.  1.
<mgrwt>
<rscale>  0 0.79817162E+03</rscale>
<asrwt>0</asrwt>
<pdfrwt beam="1">  1        2 0.19293637E+00 0.87779143E+03</pdfrwt>
<pdfrwt beam="2">  1       -2 0.70247705E-01 0.87779143E+03</pdfrwt>
<totfact> 0.32668263E+01</totfact>
</mgrwt>
</event>
<event>
 4    1  0.5223852E-007  0.1632100E+04  0.7818608E-02  0.8821582E-01
          2   -1    0    0  501    0  0.00000000000E+00  0.00000000000E+00  0.37176551354E+04  0.37176551354E+04  0.25500000000E-02 0. -1.
         -2   -1    0    0    0  501 -0.00000000000E+00 -0.00000000000E+00 -0.11946647479E+04  0.11946647479E+04  0.25500000000E-02 0.  1.
    8880023    1    1    2    0    0 -0.23483775219E+03  0.14747170021E+04 -0.35146019688E+03  0.16695129477E+04  0.65864270000E+03 0.  0.
    8880022    1    1    2    0    0  0.23483775219E+03 -0.14747170021E+04  0.28744505844E+04  0.32428069356E+04  0.15294330000E+03 0.  0.
<mgrwt>
<rscale>  0 0.15983177E+04</rscale>
<asrwt>0</asrwt>
<pdfrwt beam="1">  1        2 0.57194694E+00 0.16320996E+04</pdfrwt>
<pdfrwt beam="2">  1       -2 0.18379458E+00 0.16320996E+04</pdfrwt>
<totfact> 0.90500383E-02</totfact>
</mgrwt>
</event>
<event>
 4    1  0.5223852E-007  0.7496955E+03  0.7818608E-02  0.9832555E-01
         -2   -1    0    0    0  501 -0.00000000000E+00  0.00000000000E+00  0.60762826452E+03  0.60762826453E+03  0.25500000000E-02 0.  1.
          2   -1    0    0  501    0  0.00000000000E+00 -0.00000000000E+00 -0.24582275313E+04  0.24582275313E+04  0.25500000000E-02 0. -1.
    8880023    1    1    2    0    0 -0.29334330509E+03  0.20538458001E+03  0.35262583431E+03  0.82848554944E+03  0.65864270000E+03 0.  0.
    8880022    1    1    2    0    0  0.29334330509E+03 -0.20538458001E+03 -0.22032251011E+04  0.22373702464E+04  0.15294330000E+03 0.  0.
<mgrwt>
<rscale>  0 0.63644363E+03</rscale>
<asrwt>0</asrwt>
<pdfrwt beam="1">  1        2 0.37818885E+00 0.74969549E+03</pdfrwt>
<pdfrwt beam="2">  1       -2 0.93481273E-01 0.74969549E+03</pdfrwt>
<totfact> 0.37359561E+00</totfact>
</mgrwt>
</event>
<event>
 4    1  0.5223852E-007  0.7422016E+03  0.7818608E-02  0.9853580E-01
          2   -1    0    0  501    0  0.00000000000E+00  0.00000000000E+00  0.10335425522E+04  0.10335425522E+04  0.25500000000E-02 0. -1.
         -2   -1    0    0    0  501 -0.00000000000E+00 -0.00000000000E+00 -0.33879411744E+03  0.33879411745E+03  0.25500000000E-02 0.  1.
    8880023    1    1    2    0    0  0.24412793338E+03  0.23969670027E+03  0.23356384012E+03  0.77808433325E+03  0.65864270000E+03 0. -1.
    8880022    1    1    2    0    0 -0.24412793338E+03 -0.23969670027E+03  0.46118459468E+03  0.59425233644E+03  0.15294330000E+03 0.  1.
<mgrwt>
<rscale>  0 0.62564724E+03</rscale>
<asrwt>0</asrwt>
<pdfrwt beam="1">  1        2 0.15900655E+00 0.74220156E+03</pdfrwt>
<pdfrwt beam="2">  1       -2 0.52122172E-01 0.74220156E+03</pdfrwt>
<totfact> 0.84566935E+01</totfact>
</mgrwt>
</event>
<event>
 4    1  0.5223852E-007  0.7674263E+03  0.7818608E-02  0.9786248E-01
         -2   -1    0    0    0  501 -0.00000000000E+00  0.00000000000E+00  0.14293076969E+03  0.14293076972E+03  0.25500000000E-02 0.  1.
          2   -1    0    0  501    0  0.00000000000E+00 -0.00000000000E+00 -0.33639711308E+04  0.33639711308E+04  0.25500000000E-02 0. -1.
    8880023    1    1    2    0    0 -0.32587299977E+03  0.22122307233E+03 -0.28264402562E+04  0.29287723687E+04  0.65864270000E+03 0.  0.
    8880022    1    1    2    0    0  0.32587299977E+03 -0.22122307233E+03 -0.39460010490E+03  0.57812953178E+03  0.15294330000E+03 0.  0.
<mgrwt>
<rscale>  0 0.66105824E+03</rscale>
<asrwt>0</asrwt>
<pdfrwt beam="1">  1        2 0.51753396E+00 0.76742626E+03</pdfrwt>
<pdfrwt beam="2">  1       -2 0.21989352E-01 0.76742626E+03</pdfrwt>
<totfact> 0.19451927E+01</totfact>
</mgrwt>
</event>
<event>
 4    1  0.5223852E-007  0.1314239E+04  0.7818608E-02  0.9053360E-01
         -2   -1    0    0    0  501 -0.00000000000E+00  0.00000000000E+00  0.12739700044E+04  0.12739700044E+04  0.25500000000E-02 0.  1.
          2   -1    0    0  501    0  0.00000000000E+00 -0.00000000000E+00 -0.12670680164E+04  0.12670680164E+04  0.25500000000E-02 0. -1.
    8880023    1    1    2    0    0 -0.44076895930E+03  0.10483970209E+04  0.31785941372E+03  0.13521310595E+04  0.65864270000E+03 0.  1.
    8880022    1    1    2    0    0  0.44076895930E+03 -0.10483970209E+04 -0.31095742566E+03  0.11889069613E+04  0.15294330000E+03 0.  0.
<mgrwt>
<rscale>  0 0.12704159E+04</rscale>
<asrwt>0</asrwt>
<pdfrwt beam="1">  1        2 0.19493354E+00 0.13142389E+04</pdfrwt>
<pdfrwt beam="2">  1       -2 0.19599538E+00 0.13142389E+04</pdfrwt>
<totfact> 0.23458085E+00</totfact>
</mgrwt>
</event>
<event>
 4    1  0.5223852E-007  0.8049312E+03  0.7818608E-02  0.9700233E-01
          2   -1    0    0  501    0  0.00000000000E+00  0.00000000000E+00  0.17962174427E+04  0.17962174427E+04  0.25500000000E-02 0. -1.
         -2   -1    0    0    0  501 -0.00000000000E+00 -0.00000000000E+00 -0.50945038057E+03  0.50945038058E+03  0.25500000000E-02 0.  1.
    8880023    1    1    2    0    0 -0.44009622826E+03  0.14289638553E+03 -0.12279036163E+03  0.81424305112E+03  0.65864270000E+03 0.  1.
    8880022    1    1    2    0    0  0.44009622826E+03 -0.14289638553E+03  0.14095574238E+04  0.14914247722E+04  0.15294330000E+03 0.  0.
<mgrwt>
<rscale>  0 0.71002895E+03</rscale>
<asrwt>0</asrwt>
<pdfrwt beam="1">  1        2 0.27634115E+00 0.80493122E+03</pdfrwt>
<pdfrwt beam="2">  1       -2 0.78376980E-01 0.80493122E+03</pdfrwt>
<totfact> 0.12836011E+01</totfact>
</mgrwt>
</event>
<event>
 4    1  0.5223852E-007  0.6772786E+03  0.7818608E-02  0.1010907E+00
         -2   -1    0    0    0  501 -0.00000000000E+00  0.00000000000E+00  0.11648179590E+04  0.11648179590E+04  0.25500000000E-02 0.  1.
          2   -1    0    0  501    0  0.00000000000E+00 -0.00000000000E+00 -0.36858068974E+03  0.36858068975E+03  0.25500000000E-02 0. -1.
    8880023    1    1    2    0    0  0.77634738681E+02  0.13736424104E+03  0.10170195630E+04  0.12218981485E+04  0.65864270000E+03 0.  0.
    8880022    1    1    2    0    0 -0.77634738681E+02 -0.13736424104E+03 -0.22078229382E+03  0.31150050023E+03  0.15294330000E+03 0.  0.
<mgrwt>
<rscale>  0 0.51115795E+03</rscale>
<asrwt>0</asrwt>
<pdfrwt beam="1">  1        2 0.56704722E-01 0.67727859E+03</pdfrwt>
<pdfrwt beam="2">  1       -2 0.17920276E+00 0.67727859E+03</pdfrwt>
<totfact> 0.16370110E+01</totfact>
</mgrwt>
</event>
<event>
 4    1  0.5223852E-007  0.6604404E+03  0.7818608E-02  0.1023710E+00
         -2   -1    0    0    0  501 -0.00000000000E+00  0.00000000000E+00  0.18370510685E+04  0.18370510685E+04  0.25500000000E-02 0.  1.
          2   -1    0    0  501    0  0.00000000000E+00 -0.00000000000E+00 -0.68118930089E+03  0.68118930089E+03  0.25500000000E-02 0. -1.
    8880023    1    1    2    0    0  0.43170190769E+02  0.22531123601E+02  0.17669920524E+04  0.18863834277E+04  0.65864270000E+03 0.  1.
    8880022    1    1    2    0    0 -0.43170190769E+02 -0.22531123601E+02 -0.61113028472E+03  0.63185694173E+03  0.15294330000E+03 0.  0.
<mgrwt>
<rscale>  0 0.46371347E+03</rscale>
<asrwt>0</asrwt>
<pdfrwt beam="1">  1        2 0.10479835E+00 0.66044040E+03</pdfrwt>
<pdfrwt beam="2">  1       -2 0.28262324E+00 0.66044040E+03</pdfrwt>
<totfact> 0.18158388E+00</totfact>
</mgrwt>
</event>
<event>
 4    1  0.5223852E-007  0.7970677E+03  0.7818608E-02  0.9717172E-01
          2   -1    0    0  501    0  0.00000000000E+00  0.00000000000E+00  0.64729904952E+03  0.64729904953E+03  0.25500000000E-02 0. -1.
         -2   -1    0    0    0  501 -0.00000000000E+00 -0.00000000000E+00 -0.12659817124E+04  0.12659817124E+04  0.25500000000E-02 0.  1.
    8880023    1    1    2    0    0 -0.36668838409E+03 -0.25893322137E+03 -0.10182789035E+04  0.12931391710E+04  0.65864270000E+03 0.  1.
    8880022    1    1    2    0    0  0.36668838409E+03  0.25893322137E+03  0.39959624063E+03  0.62014159085E+03  0.15294330000E+03 0.  0.
<mgrwt>
<rscale>  0 0.70003496E+03</rscale>
<asrwt>0</asrwt>
<pdfrwt beam="1">  1        2 0.99584470E-01 0.79706775E+03</pdfrwt>
<pdfrwt beam="2">  1       -2 0.19476642E+00 0.79706775E+03</pdfrwt>
<totfact> 0.66015998E+00</totfact>
</mgrwt>
</event>
<event>
 4    1  0.5223852E-007  0.7773871E+03  0.7818608E-02  0.9762011E-01
         -2   -1    0    0    0  501 -0.00000000000E+00  0.00000000000E+00  0.15970962541E+03  0.15970962543E+03  0.25500000000E-02 0.  1.
          2   -1    0    0  501    0  0.00000000000E+00 -0.00000000000E+00 -0.23960574029E+04  0.23960574029E+04  0.25500000000E-02 0. -1.
    8880023    1    1    2    0    0 -0.91005287063E+02  0.40278842410E+03 -0.12007085064E+04  0.14303956098E+04  0.65864270000E+03 0.  1.
    8880022    1    1    2    0    0  0.91005287063E+02 -0.40278842410E+03 -0.10356392710E+04  0.11253714185E+04  0.15294330000E+03 0. -1.
<mgrwt>
<rscale>  0 0.67441716E+03</rscale>
<asrwt>0</asrwt>
<pdfrwt beam="1">  1        2 0.36862419E+00 0.77738709E+03</pdfrwt>
<pdfrwt beam="2">  1       -2 0.24570713E-01 0.77738709E+03</pdfrwt>
<totfact> 0.61101141E+01</totfact>
</mgrwt>
</event>
<event>
 4    1  0.5223852E-007  0.7755139E+03  0.7818608E-02  0.9766482E-01
         -2   -1    0    0    0  501 -0.00000000000E+00  0.00000000000E+00  0.17580914568E+04  0.17580914568E+04  0.25500000000E-02 0.  1.
          2   -1    0    0  501    0  0.00000000000E+00 -0.00000000000E+00 -0.57084537068E+03  0.57084537068E+03  0.25500000000E-02 0. -1.
    8880023    1    1    2    0    0 -0.17337518297E+03  0.37088096867E+03  0.15680019689E+04  0.17493004396E+04  0.65864270000E+03 0.  0.
    8880022    1    1    2    0    0  0.17337518297E+03 -0.37088096867E+03 -0.38075588277E+03  0.57963638797E+03  0.15294330000E+03 0.  0.
<mgrwt>
<rscale>  0 0.67192734E+03</rscale>
<asrwt>0</asrwt>
<pdfrwt beam="1">  1        2 0.87822363E-01 0.77551393E+03</pdfrwt>
<pdfrwt beam="2">  1       -2 0.27047561E+00 0.77551393E+03</pdfrwt>
<totfact> 0.26133428E+00</totfact>
</mgrwt>
</event>
<event>
 4    1  0.5223852E-007  0.7986520E+03  0.7818608E-02  0.9713718E-01
          2   -1    0    0  501    0  0.00000000000E+00  0.00000000000E+00  0.24318236347E+04  0.24318236347E+04  0.25500000000E-02 0. -1.
         -2   -1    0    0    0  501 -0.00000000000E+00 -0.00000000000E+00 -0.26263931300E+03  0.26263931301E+03  0.25500000000E-02 0.  1.
    8880023    1    1    2    0    0  0.59930724531E+02  0.44770868236E+03  0.46358569667E+03  0.92344824458E+03  0.65864270000E+03 0.  0.
    8880022    1    1    2    0    0 -0.59930724531E+02 -0.44770868236E+03  0.17055986250E+04  0.17710147031E+04  0.15294330000E+03 0.  0.
<mgrwt>
<rscale>  0 0.70205847E+03</rscale>
<asrwt>0</asrwt>
<pdfrwt beam="1">  1        2 0.37412671E+00 0.79865197E+03</pdfrwt>
<pdfrwt beam="2">  1       -2 0.40406049E-01 0.79865197E+03</pdfrwt>
<totfact> 0.22898759E+01</totfact>
</mgrwt>
</event>
<event>
 4    1  0.5223852E-007  0.9341193E+03  0.7818608E-02  0.9473341E-01
         -2   -1    0    0    0  501 -0.00000000000E+00  0.00000000000E+00  0.69509849313E+03  0.69509849314E+03  0.25500000000E-02 0.  1.
          2   -1    0    0  501    0  0.00000000000E+00 -0.00000000000E+00 -0.10739913264E+04  0.10739913264E+04  0.25500000000E-02 0. -1.
    8880023    1    1    2    0    0  0.33791847824E+02  0.66153364254E+03  0.97159276599E+02  0.93915854918E+03  0.65864270000E+03 0.  0.
    8880022    1    1    2    0    0 -0.33791847824E+02 -0.66153364254E+03 -0.47605210986E+03  0.82993127035E+03  0.15294330000E+03 0.  0.
<mgrwt>
<rscale>  0 0.86278152E+03</rscale>
<asrwt>0</asrwt>
<pdfrwt beam="1">  1        2 0.16522944E+00 0.93411929E+03</pdfrwt>
<pdfrwt beam="2">  1       -2 0.10693823E+00 0.93411929E+03</pdfrwt>
<totfact> 0.15891854E+01</totfact>
</mgrwt>
</event>
<event>
 4    1  0.5223852E-007  0.6733303E+03  0.7818608E-02  0.1013380E+00
          2   -1    0    0  501    0  0.00000000000E+00  0.00000000000E+00  0.51185468391E+03  0.51185468391E+03  0.25500000000E-02 0. -1.
         -2   -1    0    0    0  501 -0.00000000000E+00 -0.00000000000E+00 -0.16922555726E+04  0.16922555726E+04  0.25500000000E-02 0.  1.
    8880023    1    1    2    0    0  0.12661678806E+03 -0.59428098234E+02 -0.16001148728E+04  0.17360130536E+04  0.65864270000E+03 0.  1.
    8880022    1    1    2    0    0 -0.12661678806E+03  0.59428098234E+02  0.41971398412E+03  0.46809720290E+03  0.15294330000E+03 0.  0.
<mgrwt>
<rscale>  0 0.50153131E+03</rscale>
<asrwt>0</asrwt>
<pdfrwt beam="1">  1        2 0.78746875E-01 0.67333032E+03</pdfrwt>
<pdfrwt beam="2">  1       -2 0.26034701E+00 0.67333032E+03</pdfrwt>
<totfact> 0.34711606E+00</totfact>
</mgrwt>
</event>
<event>
 4    1  0.5223852E-007  0.7367958E+03  0.7818608E-02  0.9869381E-01
         -2   -1    0    0    0  501 -0.00000000000E+00  0.00000000000E+00  0.43867833297E+03  0.43867833298E+03  0.25500000000E-02 0.  1.
          2   -1    0    0  501    0  0.00000000000E+00 -0.00000000000E+00 -0.85923340354E+03  0.85923340354E+03  0.25500000000E-02 0. -1.
    8880023    1    1    2    0    0  0.13130919392E+03 -0.30301122096E+03  0.64922260906E+01  0.73682444293E+03  0.65864270000E+03 0.  1.
    8880022    1    1    2    0    0 -0.13130919392E+03  0.30301122096E+03 -0.42704729665E+03  0.56108729359E+03  0.15294330000E+03 0.  0.
<mgrwt>
<rscale>  0 0.61768448E+03</rscale>
<asrwt>0</asrwt>
<pdfrwt beam="1">  1        2 0.13218975E+00 0.73679584E+03</pdfrwt>
<pdfrwt beam="2">  1       -2 0.67488975E-01 0.73679584E+03</pdfrwt>
<totfact> 0.63878258E+01</totfact>
</mgrwt>
</event>
<event>
 4    1  0.5223852E-007  0.7893990E+03  0.7818608E-02  0.9734204E-01
         -2   -1    0    0    0  501 -0.00000000000E+00  0.00000000000E+00  0.58770278333E+03  0.58770278334E+03  0.25500000000E-02 0.  1.
          2   -1    0    0  501    0  0.00000000000E+00 -0.00000000000E+00 -0.20246890829E+04  0.20246890829E+04  0.25500000000E-02 0. -1.
    8880023    1    1    2    0    0  0.41588738862E+03  0.12797746376E+03  0.27765082804E+03  0.83680388373E+03  0.65864270000E+03 0.  1.
    8880022    1    1    2    0    0 -0.41588738862E+03 -0.12797746376E+03 -0.17146371276E+04  0.17755879825E+04  0.15294330000E+03 0.  0.
<mgrwt>
<rscale>  0 0.69016285E+03</rscale>
<asrwt>0</asrwt>
<pdfrwt beam="1">  1        2 0.31149062E+00 0.78939898E+03</pdfrwt>
<pdfrwt beam="2">  1       -2 0.90415814E-01 0.78939898E+03</pdfrwt>
<totfact> 0.69719344E+00</totfact>
</mgrwt>
</event>
<event>
 4    1  0.5223852E-007  0.7724882E+03  0.7818608E-02  0.9773788E-01
          2   -1    0    0  501    0  0.00000000000E+00  0.00000000000E+00  0.10449872688E+04  0.10449872688E+04  0.25500000000E-02 0. -1.
         -2   -1    0    0    0  501 -0.00000000000E+00 -0.00000000000E+00 -0.64909628154E+03  0.64909628154E+03  0.25500000000E-02 0.  1.
    8880023    1    1    2    0    0  0.33299943730E+03 -0.22812109279E+03 -0.33757730847E+03  0.84302817490E+03  0.65864270000E+03 0.  1.
    8880022    1    1    2    0    0 -0.33299943730E+03  0.22812109279E+03  0.73346829577E+03  0.85105537548E+03  0.15294330000E+03 0.  0.
<mgrwt>
<rscale>  0 0.66788424E+03</rscale>
<asrwt>0</asrwt>
<pdfrwt beam="1">  1        2 0.16076727E+00 0.77248823E+03</pdfrwt>
<pdfrwt beam="2">  1       -2 0.99860966E-01 0.77248823E+03</pdfrwt>
<totfact> 0.19827727E+01</totfact>
</mgrwt>
</event>
<event>
 4    1  0.5223852E-007  0.7166242E+03  0.7818608E-02  0.9934178E-01
          2   -1    0    0  501    0  0.00000000000E+00  0.00000000000E+00  0.23900094526E+04  0.23900094526E+04  0.25500000000E-02 0. -1.
         -2   -1    0    0    0  501 -0.00000000000E+00 -0.00000000000E+00 -0.27400202984E+03  0.27400202986E+03  0.25500000000E-02 0.  1.
    8880023    1    1    2    0    0 -0.28071838830E+03 -0.30614758155E+02  0.23260935846E+03  0.75343041938E+03  0.65864270000E+03 0.  1.
    8880022    1    1    2    0    0  0.28071838830E+03  0.30614758155E+02  0.18833980643E+04  0.19105810631E+04  0.15294330000E+03 0.  0.
<mgrwt>
<rscale>  0 0.58633072E+03</rscale>
<asrwt>0</asrwt>
<pdfrwt beam="1">  1        2 0.36769375E+00 0.71662423E+03</pdfrwt>
<pdfrwt beam="2">  1       -2 0.42154160E-01 0.71662423E+03</pdfrwt>
<totfact> 0.22510479E+01</totfact>
</mgrwt>
</event>
<event>
 4    1  0.5223852E-007  0.7006590E+03  0.7818608E-02  0.9994478E-01
         -2   -1    0    0    0  501 -0.00000000000E+00  0.00000000000E+00  0.69014211547E+03  0.69014211547E+03  0.25500000000E-02 0.  1.
          2   -1    0    0  501    0  0.00000000000E+00 -0.00000000000E+00 -0.74839541088E+03  0.74839541088E+03  0.25500000000E-02 0. -1.
    8880023    1    1    2    0    0 -0.18142501840E+03 -0.15555641128E+03  0.46666553667E+03  0.84184307550E+03  0.65864270000E+03 0.  1.
    8880022    1    1    2    0    0  0.18142501840E+03  0.15555641128E+03 -0.52491883208E+03  0.59669445085E+03  0.15294330000E+03 0.  0.
<mgrwt>
<rscale>  0 0.55893016E+03</rscale>
<asrwt>0</asrwt>
<pdfrwt beam="1">  1        2 0.11513776E+00 0.70065900E+03</pdfrwt>
<pdfrwt beam="2">  1       -2 0.10617571E+00 0.70065900E+03</pdfrwt>
<totfact> 0.27409017E+01</totfact>
</mgrwt>
</event>
<event>
 4    1  0.5223852E-007  0.7963658E+03  0.7818608E-02  0.9718710E-01
         -2   -1    0    0    0  501 -0.00000000000E+00  0.00000000000E+00  0.39479849309E+03  0.39479849310E+03  0.25500000000E-02 0.  1.
          2   -1    0    0  501    0  0.00000000000E+00 -0.00000000000E+00 -0.13596113154E+04  0.13596113154E+04  0.25500000000E-02 0. -1.
    8880023    1    1    2    0    0  0.22006303690E+03 -0.38982113168E+03 -0.10019695264E+04  0.12798989777E+04  0.65864270000E+03 0. -1.
    8880022    1    1    2    0    0 -0.22006303690E+03  0.38982113168E+03  0.37156704083E+02  0.47451083084E+03  0.15294330000E+03 0.  0.
<mgrwt>
<rscale>  0 0.69913667E+03</rscale>
<asrwt>0</asrwt>
<pdfrwt beam="1">  1        2 0.20917097E+00 0.79636578E+03</pdfrwt>
<pdfrwt beam="2">  1       -2 0.60738230E-01 0.79636578E+03</pdfrwt>
<totfact> 0.39128532E+01</totfact>
</mgrwt>
</event>
<event>
 4    1  0.5223852E-007  0.1040156E+04  0.7818608E-02  0.9330810E-01
          2   -1    0    0  501    0  0.00000000000E+00  0.00000000000E+00  0.89641235278E+03  0.89641235278E+03  0.25500000000E-02 0. -1.
         -2   -1    0    0    0  501 -0.00000000000E+00 -0.00000000000E+00 -0.11887098536E+04  0.11887098536E+04  0.25500000000E-02 0.  1.
    8880023    1    1    2    0    0 -0.80434063530E+03 -0.33906942507E+02 -0.61046954284E+03  0.12060666679E+04  0.65864270000E+03 0.  0.
    8880022    1    1    2    0    0  0.80434063530E+03  0.33906942507E+02  0.31817204206E+03  0.87905553847E+03  0.15294330000E+03 0.  0.
<mgrwt>
<rscale>  0 0.97995225E+03</rscale>
<asrwt>0</asrwt>
<pdfrwt beam="1">  1        2 0.13790959E+00 0.10401556E+04</pdfrwt>
<pdfrwt beam="2">  1       -2 0.18287844E+00 0.10401556E+04</pdfrwt>
<totfact> 0.50459124E+00</totfact>
</mgrwt>
</event>
<event>
 4    1  0.5223852E-007  0.7549480E+03  0.7818608E-02  0.9818366E-01
         -2   -1    0    0    0  501 -0.00000000000E+00  0.00000000000E+00  0.45392250674E+03  0.45392250675E+03  0.25500000000E-02 0.  1.
          2   -1    0    0  501    0  0.00000000000E+00 -0.00000000000E+00 -0.16299932664E+04  0.16299932664E+04  0.25500000000E-02 0. -1.
    8880023    1    1    2    0    0  0.43537687668E+02 -0.36638888434E+03  0.86301246819E+02  0.75986476184E+03  0.65864270000E+03 0.  1.
    8880022    1    1    2    0    0 -0.43537687668E+02  0.36638888434E+03 -0.12623720065E+04  0.13240510114E+04  0.15294330000E+03 0.  0.
<mgrwt>
<rscale>  0 0.64386143E+03</rscale>
<asrwt>0</asrwt>
<pdfrwt beam="1">  1        2 0.25076819E+00 0.75494805E+03</pdfrwt>
<pdfrwt beam="2">  1       -2 0.69834233E-01 0.75494805E+03</pdfrwt>
<totfact> 0.20563836E+01</totfact>
</mgrwt>
</event>
<event>
 4    1  0.5223852E-007  0.9687036E+03  0.7818608E-02  0.9423699E-01
          2   -1    0    0  501    0  0.00000000000E+00  0.00000000000E+00  0.29120432941E+04  0.29120432941E+04  0.25500000000E-02 0. -1.
         -2   -1    0    0    0  501 -0.00000000000E+00 -0.00000000000E+00 -0.52588641455E+03  0.52588641455E+03  0.25500000000E-02 0.  1.
    8880023    1    1    2    0    0  0.60134148024E+03  0.37810692692E+03  0.26644111037E+02  0.96906993502E+03  0.65864270000E+03 0.  1.
    8880022    1    1    2    0    0 -0.60134148024E+03 -0.37810692692E+03  0.23595127685E+04  0.24688597736E+04  0.15294330000E+03 0.  0.
<mgrwt>
<rscale>  0 0.90150707E+03</rscale>
<asrwt>0</asrwt>
<pdfrwt beam="1">  1        2 0.44800666E+00 0.96870358E+03</pdfrwt>
<pdfrwt beam="2">  1       -2 0.80905602E-01 0.96870358E+03</pdfrwt>
<totfact> 0.27252160E+00</totfact>
</mgrwt>
</event>
<event>
 4    1  0.5223852E-007  0.6630199E+03  0.7818608E-02  0.1021256E+00
          2   -1    0    0  501    0  0.00000000000E+00  0.00000000000E+00  0.30516442038E+04  0.30516442038E+04  0.25500000000E-02 0. -1.
         -2   -1    0    0    0  501 -0.00000000000E+00 -0.00000000000E+00 -0.12678566752E+03  0.12678566754E+03  0.25500000000E-02 0.  1.
    8880023    1    1    2    0    0  0.75779026867E+02 -0.65336217009E+01  0.76710409190E+03  0.10139250678E+04  0.65864270000E+03 0.  1.
    8880022    1    1    2    0    0 -0.75779026867E+02  0.65336217009E+01  0.21577544444E+04  0.21645048035E+04  0.15294330000E+03 0.  0.
<mgrwt>
<rscale>  0 0.47236164E+03</rscale>
<asrwt>0</asrwt>
<pdfrwt beam="1">  1        2 0.46948377E+00 0.66301988E+03</pdfrwt>
<pdfrwt beam="2">  1       -2 0.19505485E-01 0.66301988E+03</pdfrwt>
<totfact> 0.38653642E+01</totfact>
</mgrwt>
</event>
<event>
 4    1  0.5223852E-007  0.7109856E+03  0.7818608E-02  0.9954359E-01
         -2   -1    0    0    0  501 -0.00000000000E+00  0.00000000000E+00  0.28197837364E+03  0.28197837365E+03  0.25500000000E-02 0.  1.
          2   -1    0    0  501    0  0.00000000000E+00 -0.00000000000E+00 -0.13956225774E+04  0.13956225774E+04  0.25500000000E-02 0. -1.
    8880023    1    1    2    0    0 -0.24582107136E+03 -0.10612375373E+03 -0.23881966203E+03  0.75002352461E+03  0.65864270000E+03 0.  1.
    8880022    1    1    2    0    0  0.24582107136E+03  0.10612375373E+03 -0.87482454172E+03  0.92757742644E+03  0.15294330000E+03 0.  0.
<mgrwt>
<rscale>  0 0.57697609E+03</rscale>
<asrwt>0</asrwt>
<pdfrwt beam="1">  1        2 0.21471116E+00 0.71098555E+03</pdfrwt>
<pdfrwt beam="2">  1       -2 0.43381289E-01 0.71098555E+03</pdfrwt>
<totfact> 0.74973252E+01</totfact>
</mgrwt>
</event>
<event>
 4    1  0.5223852E-007  0.6816250E+03  0.7818608E-02  0.1008419E+00
          2   -1    0    0  501    0  0.00000000000E+00  0.00000000000E+00  0.29206708311E+04  0.29206708311E+04  0.25500000000E-02 0. -1.
         -2   -1    0    0    0  501 -0.00000000000E+00 -0.00000000000E+00 -0.28196505437E+03  0.28196505438E+03  0.25500000000E-02 0.  1.
    8880023    1    1    2    0    0  0.12716688581E+03 -0.12095862236E+03  0.14346514983E+03  0.69655930160E+03  0.65864270000E+03 0.  0.
    8880022    1    1    2    0    0 -0.12716688581E+03  0.12095862236E+03  0.24952406269E+04  0.25060765839E+04  0.15294330000E+03 0.  0.
<mgrwt>
<rscale>  0 0.52107841E+03</rscale>
<asrwt>0</asrwt>
<pdfrwt beam="1">  1        2 0.44933394E+00 0.68162498E+03</pdfrwt>
<pdfrwt beam="2">  1       -2 0.43379243E-01 0.68162498E+03</pdfrwt>
<totfact> 0.10559782E+01</totfact>
</mgrwt>
</event>
<event>
 4    1  0.5223852E-007  0.8819670E+03  0.7818608E-02  0.9555623E-01
         -2   -1    0    0    0  501 -0.00000000000E+00  0.00000000000E+00  0.65566708330E+03  0.65566708331E+03  0.25500000000E-02 0.  1.
          2   -1    0    0  501    0  0.00000000000E+00 -0.00000000000E+00 -0.13506593501E+04  0.13506593501E+04  0.25500000000E-02 0. -1.
    8880023    1    1    2    0    0  0.15294107314E+03 -0.56627249214E+03  0.21978216065E+03  0.90893889322E+03  0.65864270000E+03 0.  1.
    8880022    1    1    2    0    0 -0.15294107314E+03  0.56627249214E+03 -0.91477442741E+03  0.10973875401E+04  0.15294330000E+03 0.  0.
<mgrwt>
<rscale>  0 0.80304262E+03</rscale>
<asrwt>0</asrwt>
<pdfrwt beam="1">  1        2 0.20779375E+00 0.88196696E+03</pdfrwt>
<pdfrwt beam="2">  1       -2 0.10087186E+00 0.88196696E+03</pdfrwt>
<totfact> 0.12578936E+01</totfact>
</mgrwt>
</event>
<event>
 4    1  0.5223852E-007  0.7550545E+03  0.7818608E-02  0.9818083E-01
          2   -1    0    0  501    0  0.00000000000E+00  0.00000000000E+00  0.19614769665E+04  0.19614769665E+04  0.25500000000E-02 0. -1.
         -2   -1    0    0    0  501 -0.00000000000E+00 -0.00000000000E+00 -0.91069923944E+03  0.91069923944E+03  0.25500000000E-02 0.  1.
    8880023    1    1    2    0    0 -0.36406386680E+03 -0.61274672238E+02 -0.72812660473E+03  0.10489402477E+04  0.65864270000E+03 0.  1.
    8880022    1    1    2    0    0  0.36406386680E+03  0.61274672238E+02  0.17789043318E+04  0.18232359582E+04  0.15294330000E+03 0.  0.
<mgrwt>
<rscale>  0 0.64401059E+03</rscale>
<asrwt>0</asrwt>
<pdfrwt beam="1">  1        2 0.30176569E+00 0.75505450E+03</pdfrwt>
<pdfrwt beam="2">  1       -2 0.14010757E+00 0.75505450E+03</pdfrwt>
<totfact> 0.26050816E+00</totfact>
</mgrwt>
</event>
<event>
 4    1  0.5223852E-007  0.7160652E+03  0.7818608E-02  0.9936132E-01
          2   -1    0    0  501    0  0.00000000000E+00  0.00000000000E+00  0.16320698060E+04  0.16320698060E+04  0.25500000000E-02 0. -1.
         -2   -1    0    0    0  501 -0.00000000000E+00 -0.00000000000E+00 -0.31685908382E+03  0.31685908383E+03  0.25500000000E-02 0.  1.
    8880023    1    1    2    0    0  0.19858220704E+03  0.19875680669E+03  0.13827425061E+03  0.72929358684E+03  0.65864270000E+03 0.  1.
    8880022    1    1    2    0    0 -0.19858220704E+03 -0.19875680669E+03  0.11769364716E+04  0.12196353030E+04  0.15294330000E+03 0.  0.
<mgrwt>
<rscale>  0 0.58541686E+03</rscale>
<asrwt>0</asrwt>
<pdfrwt beam="1">  1        2 0.25108765E+00 0.71606520E+03</pdfrwt>
<pdfrwt beam="2">  1       -2 0.48747553E-01 0.71606520E+03</pdfrwt>
<totfact> 0.43846735E+01</totfact>
</mgrwt>
</event>
<event>
 4    1  0.5223852E-007  0.1094658E+04  0.7818608E-02  0.9267028E-01
          2   -1    0    0  501    0  0.00000000000E+00  0.00000000000E+00  0.16598993498E+04  0.16598993498E+04  0.25500000000E-02 0. -1.
         -2   -1    0    0    0  501 -0.00000000000E+00 -0.00000000000E+00 -0.10661823885E+04  0.10661823885E+04  0.25500000000E-02 0.  1.
    8880023    1    1    2    0    0 -0.68025256818E+03 -0.54929198152E+03 -0.59235736579E+03  0.12446536436E+04  0.65864270000E+03 0.  0.
    8880022    1    1    2    0    0  0.68025256818E+03  0.54929198152E+03  0.11860743270E+04  0.14814280947E+04  0.15294330000E+03 0.  0.
<mgrwt>
<rscale>  0 0.10387587E+04</rscale>
<asrwt>0</asrwt>
<pdfrwt beam="1">  1        2 0.25536913E+00 0.10946577E+04</pdfrwt>
<pdfrwt beam="2">  1       -2 0.16402806E+00 0.10946577E+04</pdfrwt>
<totfact> 0.23869741E+00</totfact>
</mgrwt>
</event>
<event>
 4    1  0.5223852E-007  0.7118537E+03  0.7818608E-02  0.9951181E-01
         -2   -1    0    0    0  501 -0.00000000000E+00  0.00000000000E+00  0.83771628555E+02  0.83771628594E+02  0.25500000000E-02 0.  1.
          2   -1    0    0  501    0  0.00000000000E+00 -0.00000000000E+00 -0.37213509486E+04  0.37213509486E+04  0.25500000000E-02 0. -1.
    8880023    1    1    2    0    0 -0.14296710660E+03 -0.22909787110E+03 -0.17027407793E+04  0.18455518947E+04  0.65864270000E+03 0.  0.
    8880022    1    1    2    0    0  0.14296710660E+03  0.22909787110E+03 -0.19348385407E+04  0.19595706825E+04  0.15294330000E+03 0.  0.
<mgrwt>
<rscale>  0 0.57843686E+03</rscale>
<asrwt>0</asrwt>
<pdfrwt beam="1">  1        2 0.57251540E+00 0.71185366E+03</pdfrwt>
<pdfrwt beam="2">  1       -2 0.12887946E-01 0.71185366E+03</pdfrwt>
<totfact> 0.27824084E+01</totfact>
</mgrwt>
</event>
<event>
 4    1  0.5223852E-007  0.8980418E+03  0.7818608E-02  0.9529182E-01
         -2   -1    0    0    0  501 -0.00000000000E+00  0.00000000000E+00  0.26865279258E+04  0.26865279258E+04  0.25500000000E-02 0.  1.
          2   -1    0    0  501    0  0.00000000000E+00 -0.00000000000E+00 -0.23991267427E+03  0.23991267429E+03  0.25500000000E-02 0. -1.
    8880023    1    1    2    0    0 -0.10145728381E+03 -0.60197619620E+03  0.18629838566E+04  0.20681363537E+04  0.65864270000E+03 0.  0.
    8880022    1    1    2    0    0  0.10145728381E+03  0.60197619620E+03  0.58363139493E+03  0.85830424640E+03  0.15294330000E+03 0.  0.
<mgrwt>
<rscale>  0 0.82166091E+03</rscale>
<asrwt>0</asrwt>
<pdfrwt beam="1">  1        2 0.36909642E-01 0.89804183E+03</pdfrwt>
<pdfrwt beam="2">  1       -2 0.41331200E+00 0.89804183E+03</pdfrwt>
<totfact> 0.88825867E-01</totfact>
</mgrwt>
</event>
<event>
 4    1  0.5223852E-007  0.1296051E+04  0.7818608E-02  0.9068978E-01
         -2   -1    0    0    0  501 -0.00000000000E+00  0.00000000000E+00  0.19019087802E+04  0.19019087802E+04  0.25500000000E-02 0.  1.
          2   -1    0    0  501    0  0.00000000000E+00 -0.00000000000E+00 -0.10626288106E+04  0.10626288106E+04  0.25500000000E-02 0. -1.
    8880023    1    1    2    0    0 -0.49729824365E+03 -0.99931579283E+03  0.12153890801E+04  0.17767719098E+04  0.65864270000E+03 0.  0.
    8880022    1    1    2    0    0  0.49729824365E+03  0.99931579283E+03 -0.37610911061E+03  0.11877656810E+04  0.15294330000E+03 0.  0.
<mgrwt>
<rscale>  0 0.12514495E+04</rscale>
<asrwt>0</asrwt>
<pdfrwt beam="1">  1        2 0.16348136E+00 0.12960508E+04</pdfrwt>
<pdfrwt beam="2">  1       -2 0.29260135E+00 0.12960508E+04</pdfrwt>
<totfact> 0.78346019E-01</totfact>
</mgrwt>
</event>
<event>
 4    1  0.5223852E-007  0.7023576E+03  0.7818608E-02  0.9987558E-01
          2   -1    0    0  501    0  0.00000000000E+00  0.00000000000E+00  0.13142108104E+04  0.13142108104E+04  0.25500000000E-02 0. -1.
         -2   -1    0    0    0  501 -0.00000000000E+00 -0.00000000000E+00 -0.36732849579E+03  0.36732849580E+03  0.25500000000E-02 0.  1.
    8880023    1    1    2    0    0 -0.21939232803E+03  0.10659730126E+03  0.11073429271E+02  0.70244487708E+03  0.65864270000E+03 0.  1.
    8880022    1    1    2    0    0  0.21939232803E+03 -0.10659730126E+03  0.93580888530E+03  0.97909442908E+03  0.15294330000E+03 0.  0.
<mgrwt>
<rscale>  0 0.56199173E+03</rscale>
<asrwt>0</asrwt>
<pdfrwt beam="1">  1        2 0.20218628E+00 0.70235759E+03</pdfrwt>
<pdfrwt beam="2">  1       -2 0.56512077E-01 0.70235759E+03</pdfrwt>
<totfact> 0.48802516E+01</totfact>
</mgrwt>
</event>
<event>
 4    1  0.5223852E-007  0.6750311E+03  0.7818608E-02  0.1012287E+00
          2   -1    0    0  501    0  0.00000000000E+00  0.00000000000E+00  0.67550056227E+03  0.67550056228E+03  0.25500000000E-02 0. -1.
         -2   -1    0    0    0  501 -0.00000000000E+00 -0.00000000000E+00 -0.54993238385E+03  0.54993238386E+03  0.25500000000E-02 0.  1.
    8880023    1    1    2    0    0 -0.12347138944E+00 -0.14784031207E+03 -0.30839331670E+03  0.74214110327E+03  0.65864270000E+03 0.  1.
    8880022    1    1    2    0    0  0.12347138944E+00  0.14784031207E+03  0.43396149512E+03  0.48329184286E+03  0.15294330000E+03 0.  0.
<mgrwt>
<rscale>  0 0.50575859E+03</rscale>
<asrwt>0</asrwt>
<pdfrwt beam="1">  1        2 0.10392316E+00 0.67503110E+03</pdfrwt>
<pdfrwt beam="2">  1       -2 0.84604983E-01 0.67503110E+03</pdfrwt>
<totfact> 0.53156915E+01</totfact>
</mgrwt>
</event>
<event>
 4    1  0.5223852E-007  0.8858844E+03  0.7818608E-02  0.9549083E-01
         -2   -1    0    0    0  501 -0.00000000000E+00  0.00000000000E+00  0.62670746646E+03  0.62670746647E+03  0.25500000000E-02 0.  1.
          2   -1    0    0  501    0  0.00000000000E+00 -0.00000000000E+00 -0.30522469476E+04  0.30522469476E+04  0.25500000000E-02 0. -1.
    8880023    1    1    2    0    0  0.57173308035E+03  0.15524876108E+03  0.26106976580E+03  0.92355212190E+03  0.65864270000E+03 0.  1.
    8880022    1    1    2    0    0 -0.57173308035E+03 -0.15524876108E+03 -0.26866092469E+04  0.27554022921E+04  0.15294330000E+03 0.  0.
<mgrwt>
<rscale>  0 0.80759900E+03</rscale>
<asrwt>0</asrwt>
<pdfrwt beam="1">  1        2 0.46957644E+00 0.88588436E+03</pdfrwt>
<pdfrwt beam="2">  1       -2 0.96416535E-01 0.88588436E+03</pdfrwt>
<totfact> 0.15127932E+00</totfact>
</mgrwt>
</event>
<event>
 4    1  0.5223852E-007  0.7301033E+03  0.7818608E-02  0.9889774E-01
         -2   -1    0    0    0  501 -0.00000000000E+00  0.00000000000E+00  0.63092836477E+03  0.63092836478E+03  0.25500000000E-02 0.  1.
          2   -1    0    0  501    0  0.00000000000E+00 -0.00000000000E+00 -0.52394839611E+03  0.52394839612E+03  0.25500000000E-02 0. -1.
    8880023    1    1    2    0    0 -0.18784328249E+03 -0.25289422912E+03 -0.11666533576E+03  0.73936567186E+03  0.65864270000E+03 0. -1.
    8880022    1    1    2    0    0  0.18784328249E+03  0.25289422912E+03  0.22364530442E+03  0.41551108903E+03  0.15294330000E+03 0.  0.
<mgrwt>
<rscale>  0 0.60759446E+03</rscale>
<asrwt>0</asrwt>
<pdfrwt beam="1">  1        2 0.80607445E-01 0.73010328E+03</pdfrwt>
<pdfrwt beam="2">  1       -2 0.97065902E-01 0.73010328E+03</pdfrwt>
<totfact> 0.52342477E+01</totfact>
</mgrwt>
</event>
<event>
 4    1  0.5223852E-007  0.8070042E+03  0.7818608E-02  0.9695851E-01
          2   -1    0    0  501    0  0.00000000000E+00  0.00000000000E+00  0.97339633478E+03  0.97339633479E+03  0.25500000000E-02 0. -1.
         -2   -1    0    0    0  501 -0.00000000000E+00 -0.00000000000E+00 -0.77462696063E+03  0.77462696063E+03  0.25500000000E-02 0.  1.
    8880023    1    1    2    0    0  0.45454845064E+03  0.10407336099E+03 -0.45818843597E+03  0.92800452993E+03  0.65864270000E+03 0.  1.
    8880022    1    1    2    0    0 -0.45454845064E+03 -0.10407336099E+03  0.65695781013E+03  0.82001876549E+03  0.15294330000E+03 0.  0.
<mgrwt>
<rscale>  0 0.71264344E+03</rscale>
<asrwt>0</asrwt>
<pdfrwt beam="1">  1        2 0.14975328E+00 0.80700419E+03</pdfrwt>
<pdfrwt beam="2">  1       -2 0.11917338E+00 0.80700419E+03</pdfrwt>
<totfact> 0.14305263E+01</totfact>
</mgrwt>
</event>
<event>
 4    1  0.5223852E-007  0.6591241E+03  0.7818608E-02  0.1025072E+00
         -2   -1    0    0    0  501 -0.00000000000E+00  0.00000000000E+00  0.13752406245E+03  0.13752406248E+03  0.25500000000E-02 0.  1.
          2   -1    0    0  501    0  0.00000000000E+00 -0.00000000000E+00 -0.12506764711E+04  0.12506764711E+04  0.25500000000E-02 0. -1.
    8880023    1    1    2    0    0 -0.21508368246E+02  0.13104584339E+02 -0.99406636487E+03  0.11927331990E+04  0.65864270000E+03 0. -1.
    8880022    1    1    2    0    0  0.21508368246E+02 -0.13104584339E+02 -0.11908604375E+03  0.19546733452E+03  0.15294330000E+03 0.  0.
<mgrwt>
<rscale>  0 0.45899774E+03</rscale>
<asrwt>0</asrwt>
<pdfrwt beam="1">  1        2 0.19241176E+00 0.65912408E+03</pdfrwt>
<pdfrwt beam="2">  1       -2 0.21157549E-01 0.65912408E+03</pdfrwt>
<totfact> 0.34658262E+02</totfact>
</mgrwt>
</event>
<event>
 4    1  0.5223852E-007  0.7121487E+03  0.7818608E-02  0.9950107E-01
         -2   -1    0    0    0  501 -0.00000000000E+00  0.00000000000E+00  0.17760374293E+03  0.17760374295E+03  0.25500000000E-02 0.  1.
          2   -1    0    0  501    0  0.00000000000E+00 -0.00000000000E+00 -0.16129925575E+04  0.16129925575E+04  0.25500000000E-02 0. -1.
    8880023    1    1    2    0    0  0.86096069378E+02 -0.25677426262E+03 -0.73075583523E+03  0.10203724085E+04  0.65864270000E+03 0.  1.
    8880022    1    1    2    0    0 -0.86096069378E+02  0.25677426262E+03 -0.70463297938E+03  0.77022389196E+03  0.15294330000E+03 0. -1.
<mgrwt>
<rscale>  0 0.57893153E+03</rscale>
<asrwt>0</asrwt>
<pdfrwt beam="1">  1        2 0.24815269E+00 0.71214869E+03</pdfrwt>
<pdfrwt beam="2">  1       -2 0.27323654E-01 0.71214869E+03</pdfrwt>
<totfact> 0.13654680E+02</totfact>
</mgrwt>
</event>
<event>
 4    1  0.5223852E-007  0.1033225E+04  0.7818608E-02  0.9339324E-01
         -2   -1    0    0    0  501 -0.00000000000E+00  0.00000000000E+00  0.10893175399E+04  0.10893175399E+04  0.25500000000E-02 0.  1.
          2   -1    0    0  501    0  0.00000000000E+00 -0.00000000000E+00 -0.12553220432E+04  0.12553220432E+04  0.25500000000E-02 0. -1.
    8880023    1    1    2    0    0  0.26058349312E+03  0.75222392759E+03  0.62867029375E+03  0.12094548932E+04  0.65864270000E+03 0.  0.
    8880022    1    1    2    0    0 -0.26058349312E+03 -0.75222392759E+03 -0.79467479710E+03  0.11351846899E+04  0.15294330000E+03 0.  0.
<mgrwt>
<rscale>  0 0.97241857E+03</rscale>
<asrwt>0</asrwt>
<pdfrwt beam="1">  1        2 0.19312647E+00 0.10332254E+04</pdfrwt>
<pdfrwt beam="2">  1       -2 0.16758731E+00 0.10332254E+04</pdfrwt>
<totfact> 0.38467669E+00</totfact>
</mgrwt>
</event>
<event>
 4    1  0.5223852E-007  0.8137108E+03  0.7818608E-02  0.9681899E-01
         -2   -1    0    0    0  501 -0.00000000000E+00  0.00000000000E+00  0.28813836777E+03  0.28813836778E+03  0.25500000000E-02 0.  1.
          2   -1    0    0  501    0  0.00000000000E+00 -0.00000000000E+00 -0.15957691121E+04  0.15957691121E+04  0.25500000000E-02 0. -1.
    8880023    1    1    2    0    0 -0.44017885150E+03 -0.18589678484E+03 -0.57666166905E+03  0.99732839263E+03  0.65864270000E+03 0.  0.
    8880022    1    1    2    0    0  0.44017885150E+03  0.18589678484E+03 -0.73096907530E+03  0.88657908727E+03  0.15294330000E+03 0.  0.
<mgrwt>
<rscale>  0 0.72104837E+03</rscale>
<asrwt>0</asrwt>
<pdfrwt beam="1">  1        2 0.24550294E+00 0.81371079E+03</pdfrwt>
<pdfrwt beam="2">  1       -2 0.44328980E-01 0.81371079E+03</pdfrwt>
<totfact> 0.54985729E+01</totfact>
</mgrwt>
</event>
<event>
 4    1  0.5223852E-007  0.1157701E+04  0.7818608E-02  0.9199379E-01
         -2   -1    0    0    0  501 -0.00000000000E+00  0.00000000000E+00  0.10524346826E+04  0.10524346826E+04  0.25500000000E-02 0.  1.
          2   -1    0    0  501    0  0.00000000000E+00 -0.00000000000E+00 -0.12949286608E+04  0.12949286608E+04  0.25500000000E-02 0. -1.
    8880023    1    1    2    0    0 -0.96030185048E+02 -0.94722719246E+03 -0.61825953786E+03  0.13124466515E+04  0.65864270000E+03 0.  0.
    8880022    1    1    2    0    0  0.96030185048E+02  0.94722719246E+03  0.37576555966E+03  0.10349166920E+04  0.15294330000E+03 0.  0.
<mgrwt>
<rscale>  0 0.11059845E+04</rscale>
<asrwt>0</asrwt>
<pdfrwt beam="1">  1        2 0.19921979E+00 0.11577009E+04</pdfrwt>
<pdfrwt beam="2">  1       -2 0.16191303E+00 0.11577009E+04</pdfrwt>
<totfact> 0.39596866E+00</totfact>
</mgrwt>
</event>
<event>
 4    1  0.5223852E-007  0.6944753E+03  0.7818608E-02  0.1002094E+00
          2   -1    0    0  501    0  0.00000000000E+00  0.00000000000E+00  0.92166354513E+03  0.92166354513E+03  0.25500000000E-02 0. -1.
         -2   -1    0    0    0  501 -0.00000000000E+00 -0.00000000000E+00 -0.25254525039E+03  0.25254525040E+03  0.25500000000E-02 0.  1.
    8880023    1    1    2    0    0 -0.21994248773E+03 -0.10537595642E+02  0.44543605975E+03  0.82505104595E+03  0.65864270000E+03 0.  1.
    8880022    1    1    2    0    0  0.21994248773E+03  0.10537595642E+02  0.22368223499E+03  0.34915774959E+03  0.15294330000E+03 0. -1.
<mgrwt>
<rscale>  0 0.54741494E+03</rscale>
<asrwt>0</asrwt>
<pdfrwt beam="1">  1        2 0.14179439E+00 0.69447530E+03</pdfrwt>
<pdfrwt beam="2">  1       -2 0.38853115E-01 0.69447530E+03</pdfrwt>
<totfact> 0.17994908E+02</totfact>
</mgrwt>
</event>
<event>
 4    1  0.5223852E-007  0.1062287E+04  0.7818608E-02  0.9304255E-01
         -2   -1    0    0    0  501 -0.00000000000E+00  0.00000000000E+00  0.64112138401E+03  0.64112138402E+03  0.25500000000E-02 0.  1.
          2   -1    0    0  501    0  0.00000000000E+00 -0.00000000000E+00 -0.17961199611E+04  0.17961199611E+04  0.25500000000E-02 0. -1.
    8880023    1    1    2    0    0  0.68870227114E+03  0.46939601825E+03 -0.75609126272E+02  0.10649743595E+04  0.65864270000E+03 0.  0.
    8880022    1    1    2    0    0 -0.68870227114E+03 -0.46939601825E+03 -0.10793894508E+04  0.13722669856E+04  0.15294330000E+03 0.  0.
<mgrwt>
<rscale>  0 0.10039212E+04</rscale>
<asrwt>0</asrwt>
<pdfrwt beam="1">  1        2 0.27632614E+00 0.10622870E+04</pdfrwt>
<pdfrwt beam="2">  1       -2 0.98634060E-01 0.10622870E+04</pdfrwt>
<totfact> 0.73364987E+00</totfact>
</mgrwt>
</event>
<event>
 4    1  0.5223852E-007  0.9728261E+03  0.7818608E-02  0.9418006E-01
         -2   -1    0    0    0  501 -0.00000000000E+00  0.00000000000E+00  0.51066777658E+03  0.51066777659E+03  0.25500000000E-02 0.  1.
          2   -1    0    0  501    0  0.00000000000E+00 -0.00000000000E+00 -0.16130630205E+04  0.16130630205E+04  0.25500000000E-02 0. -1.
    8880023    1    1    2    0    0  0.69771755937E+03  0.16053235194E+03 -0.98110500383E+03  0.13816503405E+04  0.65864270000E+03 0.  0.
    8880022    1    1    2    0    0 -0.69771755937E+03 -0.16053235194E+03 -0.12129024009E+03  0.74208045657E+03  0.15294330000E+03 0.  0.
<mgrwt>
<rscale>  0 0.90608551E+03</rscale>
<asrwt>0</asrwt>
<pdfrwt beam="1">  1        2 0.24816354E+00 0.97282611E+03</pdfrwt>
<pdfrwt beam="2">  1       -2 0.78564274E-01 0.97282611E+03</pdfrwt>
<totfact> 0.15799279E+01</totfact>
</mgrwt>
</event>
<event>
 4    1  0.5223852E-007  0.6649724E+03  0.7818608E-02  0.1019557E+00
         -2   -1    0    0    0  501 -0.00000000000E+00  0.00000000000E+00  0.52440508329E+03  0.52440508330E+03  0.25500000000E-02 0.  1.
          2   -1    0    0  501    0  0.00000000000E+00 -0.00000000000E+00 -0.82511578983E+03  0.82511578983E+03  0.25500000000E-02 0. -1.
    8880023    1    1    2    0    0  0.68746773235E+02  0.60431046215E+02  0.29518029470E+03  0.72754356764E+03  0.65864270000E+03 0.  1.
    8880022    1    1    2    0    0 -0.68746773235E+02 -0.60431046215E+02 -0.59589100124E+03  0.62197730549E+03  0.15294330000E+03 0.  0.
<mgrwt>
<rscale>  0 0.47846955E+03</rscale>
<asrwt>0</asrwt>
<pdfrwt beam="1">  1        2 0.12694089E+00 0.66497236E+03</pdfrwt>
<pdfrwt beam="2">  1       -2 0.80677705E-01 0.66497236E+03</pdfrwt>
<totfact> 0.45783699E+01</totfact>
</mgrwt>
</event>
<event>
 4    1  0.5223852E-007  0.6822093E+03  0.7818608E-02  0.1008101E+00
         -2   -1    0    0    0  501 -0.00000000000E+00  0.00000000000E+00  0.68852520509E+03  0.68852520509E+03  0.25500000000E-02 0.  1.
          2   -1    0    0  501    0  0.00000000000E+00 -0.00000000000E+00 -0.38418394166E+03  0.38418394167E+03  0.25500000000E-02 0. -1.
    8880023    1    1    2    0    0  0.30662426183E+02 -0.17509764898E+03  0.43024269106E+03  0.80654717812E+03  0.65864270000E+03 0.  1.
    8880022    1    1    2    0    0 -0.30662426183E+02  0.17509764898E+03 -0.12590142763E+03  0.26616196864E+03  0.15294330000E+03 0. -1.
<mgrwt>
<rscale>  0 0.52236578E+03</rscale>
<asrwt>0</asrwt>
<pdfrwt beam="1">  1        2 0.59105223E-01 0.68220934E+03</pdfrwt>
<pdfrwt beam="2">  1       -2 0.10592695E+00 0.68220934E+03</pdfrwt>
<totfact> 0.60797424E+01</totfact>
</mgrwt>
</event>
<event>
 4    1  0.5223852E-007  0.9079180E+03  0.7818608E-02  0.9513438E-01
         -2   -1    0    0    0  501 -0.00000000000E+00  0.00000000000E+00  0.40575310729E+03  0.40575310730E+03  0.25500000000E-02 0.  1.
          2   -1    0    0  501    0  0.00000000000E+00 -0.00000000000E+00 -0.15882897772E+04  0.15882897772E+04  0.25500000000E-02 0. -1.
    8880023    1    1    2    0    0  0.56069359064E+03  0.27591232447E+03 -0.93897126221E+03  0.13061325166E+04  0.65864270000E+03 0. -1.
    8880022    1    1    2    0    0 -0.56069359064E+03 -0.27591232447E+03 -0.24356540765E+03  0.68791036786E+03  0.15294330000E+03 0.  0.
<mgrwt>
<rscale>  0 0.83300278E+03</rscale>
<asrwt>0</asrwt>
<pdfrwt beam="1">  1        2 0.24435227E+00 0.90791801E+03</pdfrwt>
<pdfrwt beam="2">  1       -2 0.62423556E-01 0.90791801E+03</pdfrwt>
<totfact> 0.27162363E+01</totfact>
</mgrwt>
</event>
<event>
 4    1  0.5223852E-007  0.7062319E+03  0.7818608E-02  0.9972269E-01
          2   -1    0    0  501    0  0.00000000000E+00  0.00000000000E+00  0.81904113005E+03  0.81904113006E+03  0.25500000000E-02 0. -1.
         -2   -1    0    0    0  501 -0.00000000000E+00 -0.00000000000E+00 -0.62254628904E+03  0.62254628904E+03  0.25500000000E-02 0.  1.
    8880023    1    1    2    0    0  0.55275889544E+02 -0.24879293441E+03 -0.37337833465E+03  0.79885852016E+03  0.65864270000E+03 0.  1.
    8880022    1    1    2    0    0 -0.55275889544E+02  0.24879293441E+03  0.56987317567E+03  0.64272889894E+03  0.15294330000E+03 0.  0.
<mgrwt>
<rscale>  0 0.56883101E+03</rscale>
<asrwt>0</asrwt>
<pdfrwt beam="1">  1        2 0.12600633E+00 0.70623194E+03</pdfrwt>
<pdfrwt beam="2">  1       -2 0.95776352E-01 0.70623194E+03</pdfrwt>
<totfact> 0.31081986E+01</totfact>
</mgrwt>
</event>
<event>
 4    1  0.5223852E-007  0.7425851E+03  0.7818608E-02  0.9852480E-01
          2   -1    0    0  501    0  0.00000000000E+00  0.00000000000E+00  0.69716151039E+03  0.69716151040E+03  0.25500000000E-02 0. -1.
         -2   -1    0    0    0  501 -0.00000000000E+00 -0.00000000000E+00 -0.84878326200E+03  0.84878326200E+03  0.25500000000E-02 0.  1.
    8880023    1    1    2    0    0  0.32058731555E+03 -0.12184486117E+03 -0.60457633024E+03  0.95757252594E+03  0.65864270000E+03 0.  1.
    8880022    1    1    2    0    0 -0.32058731555E+03  0.12184486117E+03  0.45295457864E+03  0.58837224646E+03  0.15294330000E+03 0.  0.
<mgrwt>
<rscale>  0 0.62620634E+03</rscale>
<asrwt>0</asrwt>
<pdfrwt beam="1">  1        2 0.10725562E+00 0.74258508E+03</pdfrwt>
<pdfrwt beam="2">  1       -2 0.13058204E+00 0.74258508E+03</pdfrwt>
<totfact> 0.17947708E+01</totfact>
</mgrwt>
</event>
<event>
 4    1  0.5223852E-007  0.7711512E+03  0.7818608E-02  0.9777049E-01
          2   -1    0    0  501    0  0.00000000000E+00  0.00000000000E+00  0.97900041019E+03  0.97900041020E+03  0.25500000000E-02 0. -1.
         -2   -1    0    0    0  501 -0.00000000000E+00 -0.00000000000E+00 -0.47740699345E+03  0.47740699346E+03  0.25500000000E-02 0.  1.
    8880023    1    1    2    0    0 -0.38698086145E+03  0.10540259984E+03  0.64343223868E+03  0.10043301983E+04  0.65864270000E+03 0. -1.
    8880022    1    1    2    0    0  0.38698086145E+03 -0.10540259984E+03 -0.14183882194E+03  0.45207720536E+03  0.15294330000E+03 0.  0.
<mgrwt>
<rscale>  0 0.66608891E+03</rscale>
<asrwt>0</asrwt>
<pdfrwt beam="1">  1        2 0.15061545E+00 0.77115115E+03</pdfrwt>
<pdfrwt beam="2">  1       -2 0.73447230E-01 0.77115115E+03</pdfrwt>
<totfact> 0.44057255E+01</totfact>
</mgrwt>
</event>
<event>
 4    1  0.5223852E-007  0.8648494E+03  0.7818608E-02  0.9584995E-01
         -2   -1    0    0    0  501 -0.00000000000E+00  0.00000000000E+00  0.40112797862E+03  0.40112797862E+03  0.25500000000E-02 0.  1.
          2   -1    0    0  501    0  0.00000000000E+00 -0.00000000000E+00 -0.25294658766E+04  0.25294658766E+04  0.25500000000E-02 0. -1.
    8880023    1    1    2    0    0 -0.55158003881E+03 -0.99568130795E+02 -0.21819892731E+04  0.23471347950E+04  0.65864270000E+03 0. -1.
    8880022    1    1    2    0    0  0.55158003881E+03  0.99568130795E+02  0.53651375085E+02  0.58345906022E+03  0.15294330000E+03 0.  0.
<mgrwt>
<rscale>  0 0.78297339E+03</rscale>
<asrwt>0</asrwt>
<pdfrwt beam="1">  1        2 0.38914859E+00 0.86484944E+03</pdfrwt>
<pdfrwt beam="2">  1       -2 0.61711998E-01 0.86484944E+03</pdfrwt>
<totfact> 0.84168921E+00</totfact>
</mgrwt>
</event>
<event>
 4    1  0.5223852E-007  0.9747303E+03  0.7818608E-02  0.9415391E-01
          2   -1    0    0  501    0  0.00000000000E+00  0.00000000000E+00  0.32612922786E+04  0.32612922786E+04  0.25500000000E-02 0. -1.
         -2   -1    0    0    0  501 -0.00000000000E+00 -0.00000000000E+00 -0.40414378937E+03  0.40414378938E+03  0.25500000000E-02 0.  1.
    8880023    1    1    2    0    0  0.27388472215E+03  0.66428622028E+03  0.32284498582E+03  0.10268048084E+04  0.65864270000E+03 0. -1.
    8880022    1    1    2    0    0 -0.27388472215E+03 -0.66428622028E+03  0.25343035034E+04  0.26386312595E+04  0.15294330000E+03 0.  0.
<mgrwt>
<rscale>  0 0.90819785E+03</rscale>
<asrwt>0</asrwt>
<pdfrwt beam="1">  1        2 0.50173729E+00 0.97473034E+03</pdfrwt>
<pdfrwt beam="2">  1       -2 0.62175965E-01 0.97473034E+03</pdfrwt>
<totfact> 0.29331995E+00</totfact>
</mgrwt>
</event>
<event>
 4    1  0.5223852E-007  0.8438092E+03  0.7818608E-02  0.9623039E-01
          2   -1    0    0  501    0  0.00000000000E+00  0.00000000000E+00  0.35997848118E+04  0.35997848118E+04  0.25500000000E-02 0. -1.
         -2   -1    0    0    0  501 -0.00000000000E+00 -0.00000000000E+00 -0.22649162818E+03  0.22649162819E+03  0.25500000000E-02 0.  1.
    8880023    1    1    2    0    0  0.50478466616E+03 -0.15295792461E+03  0.69767857624E+03  0.10948832303E+04  0.65864270000E+03 0.  0.
    8880022    1    1    2    0    0 -0.50478466616E+03  0.15295792461E+03  0.26756146073E+04  0.27313932097E+04  0.15294330000E+03 0.  0.
<mgrwt>
<rscale>  0 0.75789886E+03</rscale>
<asrwt>0</asrwt>
<pdfrwt beam="1">  1        2 0.55381302E+00 0.84380916E+03</pdfrwt>
<pdfrwt beam="2">  1       -2 0.34844868E-01 0.84380916E+03</pdfrwt>
<totfact> 0.56942826E+00</totfact>
</mgrwt>
</event>
<event>
 4    1  0.5223852E-007  0.7183260E+03  0.7818608E-02  0.9928292E-01
          2   -1    0    0  501    0  0.00000000000E+00  0.00000000000E+00  0.31412067459E+04  0.31412067459E+04  0.25500000000E-02 0. -1.
         -2   -1    0    0    0  501 -0.00000000000E+00 -0.00000000000E+00 -0.17841654447E+03  0.17841654449E+03  0.25500000000E-02 0.  1.
    8880023    1    1    2    0    0 -0.27912383981E+03  0.65359491450E+02  0.60386844201E+03  0.93842915694E+03  0.65864270000E+03 0.  1.
    8880022    1    1    2    0    0  0.27912383981E+03 -0.65359491450E+02  0.23589217594E+04  0.23811941334E+04  0.15294330000E+03 0.  0.
<mgrwt>
<rscale>  0 0.58909537E+03</rscale>
<asrwt>0</asrwt>
<pdfrwt beam="1">  1        2 0.48326254E+00 0.71832596E+03</pdfrwt>
<pdfrwt beam="2">  1       -2 0.27448701E-01 0.71832596E+03</pdfrwt>
<totfact> 0.18310727E+01</totfact>
</mgrwt>
</event>
<event>
 4    1  0.5223852E-007  0.7112574E+03  0.7818608E-02  0.9953361E-01
          2   -1    0    0  501    0  0.00000000000E+00  0.00000000000E+00  0.20835938522E+04  0.20835938522E+04  0.25500000000E-02 0. -1.
         -2   -1    0    0    0  501 -0.00000000000E+00 -0.00000000000E+00 -0.29304612157E+03  0.29304612158E+03  0.25500000000E-02 0.  1.
    8880023    1    1    2    0    0 -0.26514712512E+03  0.42116837639E+02  0.17588730039E+03  0.73268231497E+03  0.65864270000E+03 0.  1.
    8880022    1    1    2    0    0  0.26514712512E+03 -0.42116837639E+02  0.16146604302E+04  0.16439576588E+04  0.15294330000E+03 0.  0.
<mgrwt>
<rscale>  0 0.57743430E+03</rscale>
<asrwt>0</asrwt>
<pdfrwt beam="1">  1        2 0.32055289E+00 0.71125736E+03</pdfrwt>
<pdfrwt beam="2">  1       -2 0.45084020E-01 0.71125736E+03</pdfrwt>
<totfact> 0.29117142E+01</totfact>
</mgrwt>
</event>
<event>
 4    1  0.5223852E-007  0.9945401E+03  0.7818608E-02  0.9388736E-01
          2   -1    0    0  501    0  0.00000000000E+00  0.00000000000E+00  0.55858970675E+03  0.55858970675E+03  0.25500000000E-02 0. -1.
         -2   -1    0    0    0  501 -0.00000000000E+00 -0.00000000000E+00 -0.24108386249E+04  0.24108386249E+04  0.25500000000E-02 0.  1.
    8880023    1    1    2    0    0  0.69905814949E+03 -0.25810373714E+03 -0.19631230652E+04  0.22006731268E+04  0.65864270000E+03 0.  0.
    8880022    1    1    2    0    0 -0.69905814949E+03  0.25810373714E+03  0.11087414708E+03  0.76875520486E+03  0.15294330000E+03 0.  0.
<mgrwt>
<rscale>  0 0.93008495E+03</rscale>
<asrwt>0</asrwt>
<pdfrwt beam="1">  1        2 0.85936880E-01 0.99454012E+03</pdfrwt>
<pdfrwt beam="2">  1       -2 0.37089824E+00 0.99454012E+03</pdfrwt>
<totfact> 0.63005653E-01</totfact>
</mgrwt>
</event>
<event>
 4    1  0.5223852E-007  0.6902083E+03  0.7818608E-02  0.1004054E+00
         -2   -1    0    0    0  501 -0.00000000000E+00  0.00000000000E+00  0.13001304521E+03  0.13001304524E+03  0.25500000000E-02 0.  1.
          2   -1    0    0  501    0  0.00000000000E+00 -0.00000000000E+00 -0.25628205881E+04  0.25628205881E+04  0.25500000000E-02 0. -1.
    8880023    1    1    2    0    0 -0.12887877370E+03  0.16114467308E+03 -0.87729589993E+03  0.11162596679E+04  0.65864270000E+03 0.  1.
    8880022    1    1    2    0    0  0.12887877370E+03 -0.16114467308E+03 -0.15555116429E+04  0.15765739654E+04  0.15294330000E+03 0.  0.
<mgrwt>
<rscale>  0 0.53907928E+03</rscale>
<asrwt>0</asrwt>
<pdfrwt beam="1">  1        2 0.39428005E+00 0.69020834E+03</pdfrwt>
<pdfrwt beam="2">  1       -2 0.20002009E-01 0.69020834E+03</pdfrwt>
<totfact> 0.71637403E+01</totfact>
</mgrwt>
</event>
<event>
 4    1  0.5223852E-007  0.7906934E+03  0.7818608E-02  0.9731292E-01
          2   -1    0    0  501    0  0.00000000000E+00  0.00000000000E+00  0.20402863787E+04  0.20402863787E+04  0.25500000000E-02 0. -1.
         -2   -1    0    0    0  501 -0.00000000000E+00 -0.00000000000E+00 -0.23610517981E+03  0.23610517982E+03  0.25500000000E-02 0.  1.
    8880023    1    1    2    0    0  0.34211133915E+03 -0.27266393882E+03  0.62010419177E+03  0.10048508381E+04  0.65864270000E+03 0.  1.
    8880022    1    1    2    0    0 -0.34211133915E+03  0.27266393882E+03  0.11840770071E+04  0.12715407204E+04  0.15294330000E+03 0.  0.
<mgrwt>
<rscale>  0 0.69183839E+03</rscale>
<asrwt>0</asrwt>
<pdfrwt beam="1">  1        2 0.31389022E+00 0.79069337E+03</pdfrwt>
<pdfrwt beam="2">  1       -2 0.36323873E-01 0.79069337E+03</pdfrwt>
<totfact> 0.46437695E+01</totfact>
</mgrwt>
</event>
<event>
 4    1  0.5223852E-007  0.8658101E+03  0.7818608E-02  0.9583311E-01
          2   -1    0    0  501    0  0.00000000000E+00  0.00000000000E+00  0.11027918008E+04  0.11027918008E+04  0.25500000000E-02 0. -1.
         -2   -1    0    0    0  501 -0.00000000000E+00 -0.00000000000E+00 -0.54481762837E+03  0.54481762837E+03  0.25500000000E-02 0.  1.
    8880023    1    1    2    0    0 -0.43490124569E+03  0.35591826559E+03  0.37664700329E+02  0.86662895243E+03  0.65864270000E+03 0.  0.
    8880022    1    1    2    0    0  0.43490124569E+03 -0.35591826559E+03  0.52030947212E+03  0.78098047676E+03  0.15294330000E+03 0.  0.
<mgrwt>
<rscale>  0 0.78410700E+03</rscale>
<asrwt>0</asrwt>
<pdfrwt beam="1">  1        2 0.16966028E+00 0.86581009E+03</pdfrwt>
<pdfrwt beam="2">  1       -2 0.83818097E-01 0.86581009E+03</pdfrwt>
<totfact> 0.27163980E+01</totfact>
</mgrwt>
</event>
<event>
 4    1  0.5223852E-007  0.6879751E+03  0.7818608E-02  0.1005130E+00
          2   -1    0    0  501    0  0.00000000000E+00  0.00000000000E+00  0.71253036427E+03  0.71253036427E+03  0.25500000000E-02 0. -1.
         -2   -1    0    0    0  501 -0.00000000000E+00 -0.00000000000E+00 -0.37722597590E+03  0.37722597591E+03  0.25500000000E-02 0.  1.
    8880023    1    1    2    0    0  0.15268381857E+03 -0.12722903185E+03  0.21842299239E+02  0.68832177599E+03  0.65864270000E+03 0.  1.
    8880022    1    1    2    0    0 -0.15268381857E+03  0.12722903185E+03  0.31346208913E+03  0.40143456420E+03  0.15294330000E+03 0.  0.
<mgrwt>
<rscale>  0 0.53456844E+03</rscale>
<asrwt>0</asrwt>
<pdfrwt beam="1">  1        2 0.10962006E+00 0.68797513E+03</pdfrwt>
<pdfrwt beam="2">  1       -2 0.58034765E-01 0.68797513E+03</pdfrwt>
<totfact> 0.11303025E+02</totfact>
</mgrwt>
</event>
<event>
 4    1  0.5223852E-007  0.9054233E+03  0.7818608E-02  0.9517381E-01
          2   -1    0    0  501    0  0.00000000000E+00  0.00000000000E+00  0.21314380799E+04  0.21314380799E+04  0.25500000000E-02 0. -1.
         -2   -1    0    0    0  501 -0.00000000000E+00 -0.00000000000E+00 -0.34976592610E+03  0.34976592611E+03  0.25500000000E-02 0.  1.
    8880023    1    1    2    0    0 -0.12861481551E+03  0.60781529554E+03  0.46622904918E+03  0.10184109862E+04  0.65864270000E+03 0.  0.
    8880022    1    1    2    0    0  0.12861481551E+03 -0.60781529554E+03  0.13154431047E+04  0.14627930198E+04  0.15294330000E+03 0.  0.
<mgrwt>
<rscale>  0 0.83014440E+03</rscale>
<asrwt>0</asrwt>
<pdfrwt beam="1">  1        2 0.32791356E+00 0.90542333E+03</pdfrwt>
<pdfrwt beam="2">  1       -2 0.53810141E-01 0.90542333E+03</pdfrwt>
<totfact> 0.18659759E+01</totfact>
</mgrwt>
</event>
<event>
 4    1  0.5223852E-007  0.1103212E+04  0.7818608E-02  0.9257489E-01
          2   -1    0    0  501    0  0.00000000000E+00  0.00000000000E+00  0.97185305923E+03  0.97185305923E+03  0.25500000000E-02 0. -1.
         -2   -1    0    0    0  501 -0.00000000000E+00 -0.00000000000E+00 -0.21799317649E+04  0.21799317649E+04  0.25500000000E-02 0.  1.
    8880023    1    1    2    0    0 -0.58582089893E+03  0.66338538596E+03 -0.17748406052E+04  0.20897692877E+04  0.65864270000E+03 0.  0.
    8880022    1    1    2    0    0  0.58582089893E+03 -0.66338538596E+03  0.56676189947E+03  0.10620155364E+04  0.15294330000E+03 0.  0.
<mgrwt>
<rscale>  0 0.10479254E+04</rscale>
<asrwt>0</asrwt>
<pdfrwt beam="1">  1        2 0.14951586E+00 0.11032119E+04</pdfrwt>
<pdfrwt beam="2">  1       -2 0.33537412E+00 0.11032119E+04</pdfrwt>
<totfact> 0.50198911E-01</totfact>
</mgrwt>
</event>
<event>
 4    1  0.5223852E-007  0.8551228E+03  0.7818608E-02  0.9602299E-01
         -2   -1    0    0    0  501 -0.00000000000E+00  0.00000000000E+00  0.17199475813E+03  0.17199475815E+03  0.25500000000E-02 0.  1.
          2   -1    0    0  501    0  0.00000000000E+00 -0.00000000000E+00 -0.29979788930E+04  0.29979788930E+04  0.25500000000E-02 0. -1.
    8880023    1    1    2    0    0 -0.47763778758E+03  0.26322420423E+03 -0.14731253508E+04  0.17033300746E+04  0.65864270000E+03 0.  1.
    8880022    1    1    2    0    0  0.47763778758E+03 -0.26322420423E+03 -0.13528587841E+04  0.14666435765E+04  0.15294330000E+03 0. -1.
<mgrwt>
<rscale>  0 0.77144232E+03</rscale>
<asrwt>0</asrwt>
<pdfrwt beam="1">  1        2 0.46122748E+00 0.85512282E+03</pdfrwt>
<pdfrwt beam="2">  1       -2 0.26460734E-01 0.85512282E+03</pdfrwt>
<totfact> 0.23513362E+01</totfact>
</mgrwt>
</event>
<event>
 4    1  0.5223852E-007  0.9118953E+03  0.7818608E-02  0.9507199E-01
          2   -1    0    0  501    0  0.00000000000E+00  0.00000000000E+00  0.19958801965E+04  0.19958801965E+04  0.25500000000E-02 0. -1.
         -2   -1    0    0    0  501 -0.00000000000E+00 -0.00000000000E+00 -0.48894583525E+03  0.48894583526E+03  0.25500000000E-02 0.  1.
    8880023    1    1    2    0    0  0.41558255198E+03 -0.47437744989E+03  0.77745611981E+02  0.91520347952E+03  0.65864270000E+03 0.  1.
    8880022    1    1    2    0    0 -0.41558255198E+03  0.47437744989E+03  0.14291887493E+04  0.15696225522E+04  0.15294330000E+03 0.  0.
<mgrwt>
<rscale>  0 0.83755113E+03</rscale>
<asrwt>0</asrwt>
<pdfrwt beam="1">  1        2 0.30705849E+00 0.91189529E+03</pdfrwt>
<pdfrwt beam="2">  1       -2 0.75222436E-01 0.91189529E+03</pdfrwt>
<totfact> 0.10791326E+01</totfact>
</mgrwt>
</event>
<event>
 4    1  0.5223852E-007  0.8256188E+03  0.7818608E-02  0.9657918E-01
          2   -1    0    0  501    0  0.00000000000E+00  0.00000000000E+00  0.14858240761E+04  0.14858240761E+04  0.25500000000E-02 0. -1.
         -2   -1    0    0    0  501 -0.00000000000E+00 -0.00000000000E+00 -0.26414012068E+04  0.26414012068E+04  0.25500000000E-02 0.  1.
    8880023    1    1    2    0    0  0.22011488922E+03  0.44652622398E+03 -0.25279505831E+04  0.26593571761E+04  0.65864270000E+03 0.  0.
    8880022    1    1    2    0    0 -0.22011488922E+03 -0.44652622398E+03  0.13723734523E+04  0.14678681068E+04  0.15294330000E+03 0. -1.
<mgrwt>
<rscale>  0 0.73578593E+03</rscale>
<asrwt>0</asrwt>
<pdfrwt beam="1">  1        2 0.22858832E+00 0.82561882E+03</pdfrwt>
<pdfrwt beam="2">  1       -2 0.40636942E+00 0.82561882E+03</pdfrwt>
<totfact> 0.92204392E-02</totfact>
</mgrwt>
</event>
<event>
 4    1  0.5223852E-007  0.9039307E+03  0.7818608E-02  0.9519751E-01
          2   -1    0    0  501    0  0.00000000000E+00  0.00000000000E+00  0.24629200107E+04  0.24629200107E+04  0.25500000000E-02 0. -1.
         -2   -1    0    0    0  501 -0.00000000000E+00 -0.00000000000E+00 -0.88356258430E+03  0.88356258431E+03  0.25500000000E-02 0.  1.
    8880023    1    1    2    0    0 -0.49232331511E+03  0.37536407553E+03  0.22477353520E+04  0.24226854634E+04  0.65864270000E+03 0. -1.
    8880022    1    1    2    0    0  0.49232331511E+03 -0.37536407553E+03 -0.66837792563E+03  0.92379713156E+03  0.15294330000E+03 0.  0.
<mgrwt>
<rscale>  0 0.82843204E+03</rscale>
<asrwt>0</asrwt>
<pdfrwt beam="1">  1        2 0.37891076E+00 0.90393066E+03</pdfrwt>
<pdfrwt beam="2">  1       -2 0.13593271E+00 0.90393066E+03</pdfrwt>
<totfact> 0.14474308E+00</totfact>
</mgrwt>
</event>
<event>
 4    1  0.5223852E-007  0.9328767E+03  0.7818608E-02  0.9475191E-01
          2   -1    0    0  501    0  0.00000000000E+00  0.00000000000E+00  0.34004688791E+03  0.34004688792E+03  0.25500000000E-02 0. -1.
         -2   -1    0    0    0  501 -0.00000000000E+00 -0.00000000000E+00 -0.23254253997E+04  0.23254253997E+04  0.25500000000E-02 0.  1.
    8880023    1    1    2    0    0  0.46550908968E+03  0.46877505244E+03 -0.16802985903E+04  0.19218902990E+04  0.65864270000E+03 0.  1.
    8880022    1    1    2    0    0 -0.46550908968E+03 -0.46877505244E+03 -0.30507992147E+03  0.74358198866E+03  0.15294330000E+03 0.  0.
<mgrwt>
<rscale>  0 0.86137861E+03</rscale>
<asrwt>0</asrwt>
<pdfrwt beam="1">  1        2 0.52314907E-01 0.93287672E+03</pdfrwt>
<pdfrwt beam="2">  1       -2 0.35775774E+00 0.93287672E+03</pdfrwt>
<totfact> 0.13612908E+00</totfact>
</mgrwt>
</event>
<event>
 4    1  0.5223852E-007  0.6889015E+03  0.7818608E-02  0.1004679E+00
          2   -1    0    0  501    0  0.00000000000E+00  0.00000000000E+00  0.19833800727E+04  0.19833800727E+04  0.25500000000E-02 0. -1.
         -2   -1    0    0    0  501 -0.00000000000E+00 -0.00000000000E+00 -0.21972875487E+03  0.21972875489E+03  0.25500000000E-02 0.  1.
    8880023    1    1    2    0    0  0.19443019513E+03 -0.54515840282E+02  0.36097991308E+03  0.77774789073E+03  0.65864270000E+03 0.  0.
    8880022    1    1    2    0    0 -0.19443019513E+03  0.54515840282E+02  0.14026714047E+04  0.14253609369E+04  0.15294330000E+03 0.  0.
<mgrwt>
<rscale>  0 0.53645289E+03</rscale>
<asrwt>0</asrwt>
<pdfrwt beam="1">  1        2 0.30513540E+00 0.68890151E+03</pdfrwt>
<pdfrwt beam="2">  1       -2 0.33804423E-01 0.68890151E+03</pdfrwt>
<totfact> 0.57907497E+01</totfact>
</mgrwt>
</event>
<event>
 4    1  0.5223852E-007  0.1210767E+04  0.7818608E-02  0.9146726E-01
          2   -1    0    0  501    0  0.00000000000E+00  0.00000000000E+00  0.40787701943E+04  0.40787701943E+04  0.25500000000E-02 0. -1.
         -2   -1    0    0    0  501 -0.00000000000E+00 -0.00000000000E+00 -0.40989841500E+03  0.40989841501E+03  0.25500000000E-02 0.  1.
    8880023    1    1    2    0    0  0.55248083455E+03 -0.85259169880E+03  0.82557540786E+03  0.14654462248E+04  0.65864270000E+03 0.  0.
    8880022    1    1    2    0    0 -0.55248083455E+03  0.85259169880E+03  0.28432963714E+04  0.30232223845E+04  0.15294330000E+03 0.  0.
<mgrwt>
<rscale>  0 0.11620635E+04</rscale>
<asrwt>0</asrwt>
<pdfrwt beam="1">  1        2 0.62750314E+00 0.12107675E+04</pdfrwt>
<pdfrwt beam="2">  1       -2 0.63061291E-01 0.12107675E+04</pdfrwt>
<totfact> 0.70043247E-01</totfact>
</mgrwt>
</event>
<event>
 4    1  0.5223852E-007  0.9122255E+03  0.7818608E-02  0.9506684E-01
          2   -1    0    0  501    0  0.00000000000E+00  0.00000000000E+00  0.16186893489E+04  0.16186893489E+04  0.25500000000E-02 0. -1.
         -2   -1    0    0    0  501 -0.00000000000E+00 -0.00000000000E+00 -0.86952552634E+03  0.86952552634E+03  0.25500000000E-02 0.  1.
    8880023    1    1    2    0    0  0.35192454534E+03  0.52392204295E+03 -0.52901581763E+03  0.10545203337E+04  0.65864270000E+03 0.  1.
    8880022    1    1    2    0    0 -0.35192454534E+03 -0.52392204295E+03  0.12781796402E+04  0.14336945415E+04  0.15294330000E+03 0.  0.
<mgrwt>
<rscale>  0 0.83792830E+03</rscale>
<asrwt>0</asrwt>
<pdfrwt beam="1">  1        2 0.24902913E+00 0.91222552E+03</pdfrwt>
<pdfrwt beam="2">  1       -2 0.13377316E+00 0.91222552E+03</pdfrwt>
<totfact> 0.44173909E+00</totfact>
</mgrwt>
</event>
<event>
 4    1  0.5223852E-007  0.1433183E+04  0.7818608E-02  0.8958318E-01
          2   -1    0    0  501    0  0.00000000000E+00  0.00000000000E+00  0.21722717903E+04  0.21722717903E+04  0.25500000000E-02 0. -1.
         -2   -1    0    0    0  501 -0.00000000000E+00 -0.00000000000E+00 -0.10338888986E+04  0.10338888986E+04  0.25500000000E-02 0.  1.
    8880023    1    1    2    0    0 -0.81962047375E+03 -0.97387151250E+03 -0.82837194251E+02  0.14355750245E+04  0.65864270000E+03 0.  0.
    8880022    1    1    2    0    0  0.81962047375E+03  0.97387151250E+03  0.12212200860E+04  0.17705856645E+04  0.15294330000E+03 0.  0.
<mgrwt>
<rscale>  0 0.13938005E+04</rscale>
<asrwt>0</asrwt>
<pdfrwt beam="1">  1        2 0.33419566E+00 0.14331830E+04</pdfrwt>
<pdfrwt beam="2">  1       -2 0.15905983E+00 0.14331830E+04</pdfrwt>
<totfact> 0.13006967E+00</totfact>
</mgrwt>
</event>
<event>
 4    1  0.5223852E-007  0.8225490E+03  0.7818608E-02  0.9664007E-01
         -2   -1    0    0    0  501 -0.00000000000E+00  0.00000000000E+00  0.10966389165E+04  0.10966389166E+04  0.25500000000E-02 0.  1.
          2   -1    0    0  501    0  0.00000000000E+00 -0.00000000000E+00 -0.41047688210E+03  0.41047688211E+03  0.25500000000E-02 0. -1.
    8880023    1    1    2    0    0 -0.48044731697E+03  0.10930235716E+03  0.36914573312E+03  0.90158494232E+03  0.65864270000E+03 0.  1.
    8880022    1    1    2    0    0  0.48044731697E+03 -0.10930235716E+03  0.31701630133E+03  0.60553085635E+03  0.15294330000E+03 0. -1.
<mgrwt>
<rscale>  0 0.73200807E+03</rscale>
<asrwt>0</asrwt>
<pdfrwt beam="1">  1        2 0.63150289E-01 0.82254899E+03</pdfrwt>
<pdfrwt beam="2">  1       -2 0.16871368E+00 0.82254899E+03</pdfrwt>
<totfact> 0.16952386E+01</totfact>
</mgrwt>
</event>
<event>
 4    1  0.5223852E-007  0.7108353E+03  0.7818608E-02  0.9954912E-01
         -2   -1    0    0    0  501 -0.00000000000E+00  0.00000000000E+00  0.26150197970E+03  0.26150197972E+03  0.25500000000E-02 0.  1.
          2   -1    0    0  501    0  0.00000000000E+00 -0.00000000000E+00 -0.37866306618E+04  0.37866306618E+04  0.25500000000E-02 0. -1.
    8880023    1    1    2    0    0  0.79002487655E+02 -0.25541178162E+03 -0.24246385381E+03  0.75104959751E+03  0.65864270000E+03 0.  1.
    8880022    1    1    2    0    0 -0.79002487655E+02  0.25541178162E+03 -0.32826648282E+04  0.32970830440E+04  0.15294330000E+03 0.  0.
<mgrwt>
<rscale>  0 0.57672240E+03</rscale>
<asrwt>0</asrwt>
<pdfrwt beam="1">  1        2 0.58255852E+00 0.71083527E+03</pdfrwt>
<pdfrwt beam="2">  1       -2 0.40231077E-01 0.71083527E+03</pdfrwt>
<totfact> 0.32556675E+00</totfact>
</mgrwt>
</event>
<event>
 4    1  0.5223852E-007  0.6892798E+03  0.7818608E-02  0.1004497E+00
         -2   -1    0    0    0  501 -0.00000000000E+00  0.00000000000E+00  0.15688798187E+04  0.15688798187E+04  0.25500000000E-02 0.  1.
          2   -1    0    0  501    0  0.00000000000E+00 -0.00000000000E+00 -0.19608141169E+03  0.19608141171E+03  0.25500000000E-02 0. -1.
    8880023    1    1    2    0    0 -0.10780099461E+03 -0.17226558411E+03  0.13421292428E+04  0.15087801684E+04  0.65864270000E+03 0.  1.
    8880022    1    1    2    0    0  0.10780099461E+03  0.17226558411E+03  0.30669164256E+02  0.25618106206E+03  0.15294330000E+03 0.  0.
<mgrwt>
<rscale>  0 0.53721702E+03</rscale>
<asrwt>0</asrwt>
<pdfrwt beam="1">  1        2 0.30166372E-01 0.68927984E+03</pdfrwt>
<pdfrwt beam="2">  1       -2 0.24136612E+00 0.68927984E+03</pdfrwt>
<totfact> 0.13239725E+01</totfact>
</mgrwt>
</event>
<event>
 4    1  0.5223852E-007  0.8625475E+03  0.7818608E-02  0.9589048E-01
         -2   -1    0    0    0  501 -0.00000000000E+00  0.00000000000E+00  0.22838072554E+03  0.22838072555E+03  0.25500000000E-02 0.  1.
          2   -1    0    0  501    0  0.00000000000E+00 -0.00000000000E+00 -0.27276022853E+04  0.27276022853E+04  0.25500000000E-02 0. -1.
    8880023    1    1    2    0    0  0.55427737855E+03  0.54355374091E+02 -0.86014980504E+03  0.12181320998E+04  0.65864270000E+03 0.  1.
    8880022    1    1    2    0    0 -0.55427737855E+03 -0.54355374091E+02 -0.16390717547E+04  0.17378509111E+04  0.15294330000E+03 0.  0.
<mgrwt>
<rscale>  0 0.78025319E+03</rscale>
<asrwt>0</asrwt>
<pdfrwt beam="1">  1        2 0.41963110E+00 0.86254746E+03</pdfrwt>
<pdfrwt beam="2">  1       -2 0.35135498E-01 0.86254746E+03</pdfrwt>
<totfact> 0.20104471E+01</totfact>
</mgrwt>
</event>
<event>
 4    1  0.5223852E-007  0.1003043E+04  0.7818608E-02  0.9377588E-01
          2   -1    0    0  501    0  0.00000000000E+00  0.00000000000E+00  0.15714607383E+04  0.15714607383E+04  0.25500000000E-02 0. -1.
         -2   -1    0    0    0  501 -0.00000000000E+00 -0.00000000000E+00 -0.10742110498E+04  0.10742110498E+04  0.25500000000E-02 0.  1.
    8880023    1    1    2    0    0  0.18596779740E+03  0.73328051265E+03 -0.69862885827E+03  0.12223652563E+04  0.65864270000E+03 0.  1.
    8880022    1    1    2    0    0 -0.18596779740E+03 -0.73328051265E+03  0.11958785468E+04  0.14233065318E+04  0.15294330000E+03 0.  0.
<mgrwt>
<rscale>  0 0.93943299E+03</rscale>
<asrwt>0</asrwt>
<pdfrwt beam="1">  1        2 0.24176319E+00 0.10030426E+04</pdfrwt>
<pdfrwt beam="2">  1       -2 0.16526324E+00 0.10030426E+04</pdfrwt>
<totfact> 0.26475479E+00</totfact>
</mgrwt>
</event>
<event>
 4    1  0.5223852E-007  0.6794597E+03  0.7818608E-02  0.1009631E+00
         -2   -1    0    0    0  501 -0.00000000000E+00  0.00000000000E+00  0.29311030310E+03  0.29311030311E+03  0.25500000000E-02 0.  1.
          2   -1    0    0  501    0  0.00000000000E+00 -0.00000000000E+00 -0.11071601632E+04  0.11071601632E+04  0.25500000000E-02 0. -1.
    8880023    1    1    2    0    0 -0.14934484077E+02  0.16622929614E+03 -0.14608352629E+03  0.69498620175E+03  0.65864270000E+03 0.  1.
    8880022    1    1    2    0    0  0.14934484077E+02 -0.16622929614E+03 -0.66796633383E+03  0.70528426457E+03  0.15294330000E+03 0.  0.
<mgrwt>
<rscale>  0 0.51621566E+03</rscale>
<asrwt>0</asrwt>
<pdfrwt beam="1">  1        2 0.17033233E+00 0.67945966E+03</pdfrwt>
<pdfrwt beam="2">  1       -2 0.45093893E-01 0.67945966E+03</pdfrwt>
<totfact> 0.10258982E+02</totfact>
</mgrwt>
</event>
<event>
 4    1  0.5223852E-007  0.7456989E+03  0.7818608E-02  0.9843647E-01
          2   -1    0    0  501    0  0.00000000000E+00  0.00000000000E+00  0.15447799848E+04  0.15447799848E+04  0.25500000000E-02 0. -1.
         -2   -1    0    0    0  501 -0.00000000000E+00 -0.00000000000E+00 -0.65112287436E+03  0.65112287436E+03  0.25500000000E-02 0.  1.
    8880023    1    1    2    0    0  0.23924608265E+03  0.25498615872E+03 -0.40064198984E+03  0.84651098013E+03  0.65864270000E+03 0.  1.
    8880022    1    1    2    0    0 -0.23924608265E+03 -0.25498615872E+03  0.12942991002E+04  0.13493918790E+04  0.15294330000E+03 0.  0.
<mgrwt>
<rscale>  0 0.63071883E+03</rscale>
<asrwt>0</asrwt>
<pdfrwt beam="1">  1        2 0.23765846E+00 0.74569889E+03</pdfrwt>
<pdfrwt beam="2">  1       -2 0.10017275E+00 0.74569889E+03</pdfrwt>
<totfact> 0.10109658E+01</totfact>
</mgrwt>
</event>
<event>
 4    1  0.5223852E-007  0.8551065E+03  0.7818608E-02  0.9602328E-01
          2   -1    0    0  501    0  0.00000000000E+00  0.00000000000E+00  0.10354445715E+04  0.10354445715E+04  0.25500000000E-02 0. -1.
         -2   -1    0    0    0  501 -0.00000000000E+00 -0.00000000000E+00 -0.60069814031E+03  0.60069814032E+03  0.25500000000E-02 0.  1.
    8880023    1    1    2    0    0 -0.29062533976E+03  0.46144745632E+03 -0.95330971433E+02  0.86040400012E+03  0.65864270000E+03 0.  0.
    8880022    1    1    2    0    0  0.29062533976E+03 -0.46144745632E+03  0.53007740264E+03  0.77573871172E+03  0.15294330000E+03 0.  0.
<mgrwt>
<rscale>  0 0.77142283E+03</rscale>
<asrwt>0</asrwt>
<pdfrwt beam="1">  1        2 0.15929916E+00 0.85510645E+03</pdfrwt>
<pdfrwt beam="2">  1       -2 0.92415099E-01 0.85510645E+03</pdfrwt>
<totfact> 0.23920713E+01</totfact>
</mgrwt>
</event>
<event>
 4    1  0.5223852E-007  0.7402004E+03  0.7818608E-02  0.9859364E-01
         -2   -1    0    0    0  501 -0.00000000000E+00  0.00000000000E+00  0.39563015615E+03  0.39563015616E+03  0.25500000000E-02 0.  1.
          2   -1    0    0  501    0  0.00000000000E+00 -0.00000000000E+00 -0.97414466868E+03  0.97414466868E+03  0.25500000000E-02 0. -1.
    8880023    1    1    2    0    0 -0.94757905971E+02  0.32420272553E+03 -0.74318452230E+02  0.74392197614E+03  0.65864270000E+03 0.  0.
    8880022    1    1    2    0    0  0.94757905971E+02 -0.32420272553E+03 -0.50419606030E+03  0.62585284869E+03  0.15294330000E+03 0.  0.
<mgrwt>
<rscale>  0 0.62271768E+03</rscale>
<asrwt>0</asrwt>
<pdfrwt beam="1">  1        2 0.14986841E+00 0.74020043E+03</pdfrwt>
<pdfrwt beam="2">  1       -2 0.60866178E-01 0.74020043E+03</pdfrwt>
<totfact> 0.66785317E+01</totfact>
</mgrwt>
</event>
<event>
 4    1  0.5223852E-007  0.1125464E+04  0.7818608E-02  0.9233221E-01
          2   -1    0    0  501    0  0.00000000000E+00  0.00000000000E+00  0.28614262048E+04  0.28614262048E+04  0.25500000000E-02 0. -1.
         -2   -1    0    0    0  501 -0.00000000000E+00 -0.00000000000E+00 -0.37512216125E+03  0.37512216126E+03  0.25500000000E-02 0.  1.
    8880023    1    1    2    0    0 -0.20467879147E+03  0.88936223788E+03  0.11317173168E+04  0.15960742117E+04  0.65864270000E+03 0.  1.
    8880022    1    1    2    0    0  0.20467879147E+03 -0.88936223788E+03  0.13545867267E+04  0.16404741543E+04  0.15294330000E+03 0. -1.
<mgrwt>
<rscale>  0 0.10717013E+04</rscale>
<asrwt>0</asrwt>
<pdfrwt beam="1">  1        2 0.44021941E+00 0.11254638E+04</pdfrwt>
<pdfrwt beam="2">  1       -2 0.57711103E-01 0.11254638E+04</pdfrwt>
<totfact> 0.59842896E+00</totfact>
</mgrwt>
</event>
<event>
 4    1  0.5223852E-007  0.8441101E+03  0.7818608E-02  0.9622478E-01
         -2   -1    0    0    0  501 -0.00000000000E+00  0.00000000000E+00  0.11120830381E+04  0.11120830381E+04  0.25500000000E-02 0.  1.
          2   -1    0    0  501    0  0.00000000000E+00 -0.00000000000E+00 -0.58059347557E+03  0.58059347558E+03  0.25500000000E-02 0. -1.
    8880023    1    1    2    0    0 -0.52085916359E+03 -0.86124694740E+02 -0.10624330391E+03  0.85076999079E+03  0.65864270000E+03 0.  0.
    8880022    1    1    2    0    0  0.52085916359E+03  0.86124694740E+02  0.63773286639E+03  0.84190652286E+03  0.15294330000E+03 0.  0.
<mgrwt>
<rscale>  0 0.75826112E+03</rscale>
<asrwt>0</asrwt>
<pdfrwt beam="1">  1        2 0.89322074E-01 0.84411015E+03</pdfrwt>
<pdfrwt beam="2">  1       -2 0.17108970E+00 0.84411015E+03</pdfrwt>
<totfact> 0.10877526E+01</totfact>
</mgrwt>
</event>
<event>
 4    1  0.5223852E-007  0.7144820E+03  0.7818608E-02  0.9941719E-01
          2   -1    0    0  501    0  0.00000000000E+00  0.00000000000E+00  0.16948027651E+04  0.16948027651E+04  0.25500000000E-02 0. -1.
         -2   -1    0    0    0  501 -0.00000000000E+00 -0.00000000000E+00 -0.98346892425E+03  0.98346892426E+03  0.25500000000E-02 0.  1.
    8880023    1    1    2    0    0  0.27335777531E+03 -0.44156591318E+02 -0.83554909871E+03  0.10993756321E+04  0.65864270000E+03 0.  1.
    8880022    1    1    2    0    0 -0.27335777531E+03  0.44156591318E+02  0.15468829395E+04  0.15788960572E+04  0.15294330000E+03 0.  0.
<mgrwt>
<rscale>  0 0.58281301E+03</rscale>
<asrwt>0</asrwt>
<pdfrwt beam="1">  1        2 0.26073889E+00 0.71448197E+03</pdfrwt>
<pdfrwt beam="2">  1       -2 0.15130291E+00 0.71448197E+03</pdfrwt>
<totfact> 0.29979356E+00</totfact>
</mgrwt>
</event>
<event>
 4    1  0.5223852E-007  0.7578453E+03  0.7818608E-02  0.9810718E-01
          2   -1    0    0  501    0  0.00000000000E+00  0.00000000000E+00  0.30070292841E+04  0.30070292841E+04  0.25500000000E-02 0. -1.
         -2   -1    0    0    0  501 -0.00000000000E+00 -0.00000000000E+00 -0.12342981621E+03  0.12342981623E+03  0.25500000000E-02 0.  1.
    8880023    1    1    2    0    0 -0.33592554104E+03 -0.16635305669E+03  0.13924115497E+04  0.15852884402E+04  0.65864270000E+03 0.  0.
    8880022    1    1    2    0    0  0.33592554104E+03  0.16635305669E+03  0.14911879182E+04  0.15451706601E+04  0.15294330000E+03 0.  0.
<mgrwt>
<rscale>  0 0.64790514E+03</rscale>
<asrwt>0</asrwt>
<pdfrwt beam="1">  1        2 0.46261985E+00 0.75784531E+03</pdfrwt>
<pdfrwt beam="2">  1       -2 0.18989204E-01 0.75784531E+03</pdfrwt>
<totfact> 0.42491621E+01</totfact>
</mgrwt>
</event>
<event>
 4    1  0.5223852E-007  0.7309086E+03  0.7818608E-02  0.9887268E-01
         -2   -1    0    0    0  501 -0.00000000000E+00  0.00000000000E+00  0.40016664645E+03  0.40016664646E+03  0.25500000000E-02 0.  1.
          2   -1    0    0  501    0  0.00000000000E+00 -0.00000000000E+00 -0.17246708466E+04  0.17246708466E+04  0.25500000000E-02 0. -1.
    8880023    1    1    2    0    0  0.19664274964E+03 -0.24849295003E+03  0.23880734612E+02  0.73129857989E+03  0.65864270000E+03 0.  1.
    8880022    1    1    2    0    0 -0.19664274964E+03  0.24849295003E+03 -0.13483849348E+04  0.13935389132E+04  0.15294330000E+03 0.  0.
<mgrwt>
<rscale>  0 0.60882323E+03</rscale>
<asrwt>0</asrwt>
<pdfrwt beam="1">  1        2 0.26533397E+00 0.73090856E+03</pdfrwt>
<pdfrwt beam="2">  1       -2 0.61564101E-01 0.73090856E+03</pdfrwt>
<totfact> 0.24007711E+01</totfact>
</mgrwt>
</event>
<event>
 4    1  0.5223852E-007  0.1008257E+04  0.7818608E-02  0.9370834E-01
         -2   -1    0    0    0  501 -0.00000000000E+00  0.00000000000E+00  0.13544255315E+04  0.13544255315E+04  0.25500000000E-02 0.  1.
          2   -1    0    0  501    0  0.00000000000E+00 -0.00000000000E+00 -0.84173196598E+03  0.84173196598E+03  0.25500000000E-02 0. -1.
    8880023    1    1    2    0    0  0.73206999240E+03 -0.21643894443E+03  0.87724921604E+03  0.13364687365E+04  0.65864270000E+03 0.  0.
    8880022    1    1    2    0    0 -0.73206999240E+03  0.21643894443E+03 -0.36455565049E+03  0.85968876098E+03  0.15294330000E+03 0.  0.
<mgrwt>
<rscale>  0 0.94515328E+03</rscale>
<asrwt>0</asrwt>
<pdfrwt beam="1">  1        2 0.12949723E+00 0.10082572E+04</pdfrwt>
<pdfrwt beam="2">  1       -2 0.20837316E+00 0.10082572E+04</pdfrwt>
<totfact> 0.37442869E+00</totfact>
</mgrwt>
</event>
<event>
 4    1  0.5223852E-007  0.7584358E+03  0.7818608E-02  0.9809174E-01
          2   -1    0    0  501    0  0.00000000000E+00  0.00000000000E+00  0.13784581761E+04  0.13784581762E+04  0.25500000000E-02 0. -1.
         -2   -1    0    0    0  501 -0.00000000000E+00 -0.00000000000E+00 -0.33020790449E+03  0.33020790450E+03  0.25500000000E-02 0.  1.
    8880023    1    1    2    0    0 -0.25550089463E+03  0.27592390012E+03  0.22556279015E+03  0.79126701206E+03  0.65864270000E+03 0.  0.
    8880022    1    1    2    0    0  0.25550089463E+03 -0.27592390012E+03  0.82268748150E+03  0.91739906859E+03  0.15294330000E+03 0.  0.
<mgrwt>
<rscale>  0 0.64872536E+03</rscale>
<asrwt>0</asrwt>
<pdfrwt beam="1">  1        2 0.21207049E+00 0.75843583E+03</pdfrwt>
<pdfrwt beam="2">  1       -2 0.50801215E-01 0.75843583E+03</pdfrwt>
<totfact> 0.55563599E+01</totfact>
</mgrwt>
</event>
<event>
 4    1  0.5223852E-007  0.7172531E+03  0.7818608E-02  0.9931992E-01
         -2   -1    0    0    0  501 -0.00000000000E+00  0.00000000000E+00  0.67547103474E+03  0.67547103475E+03  0.25500000000E-02 0.  1.
          2   -1    0    0  501    0  0.00000000000E+00 -0.00000000000E+00 -0.84597291240E+03  0.84597291240E+03  0.25500000000E-02 0. -1.
    8880023    1    1    2    0    0 -0.14034946659E+03  0.24686811094E+03  0.43252679541E+03  0.83757475606E+03  0.65864270000E+03 0.  0.
    8880022    1    1    2    0    0  0.14034946659E+03 -0.24686811094E+03 -0.60302867307E+03  0.68386919109E+03  0.15294330000E+03 0.  0.
<mgrwt>
<rscale>  0 0.58735542E+03</rscale>
<asrwt>0</asrwt>
<pdfrwt beam="1">  1        2 0.13014968E+00 0.71725312E+03</pdfrwt>
<pdfrwt beam="2">  1       -2 0.10391862E+00 0.71725312E+03</pdfrwt>
<totfact> 0.24506358E+01</totfact>
</mgrwt>
</event>
<event>
 4    1  0.5223852E-007  0.7035634E+03  0.7818608E-02  0.9982728E-01
         -2   -1    0    0    0  501 -0.00000000000E+00  0.00000000000E+00  0.67240448125E+02  0.67240448173E+02  0.25500000000E-02 0.  1.
          2   -1    0    0  501    0  0.00000000000E+00 -0.00000000000E+00 -0.38899235500E+04  0.38899235500E+04  0.25500000000E-02 0. -1.
    8880023    1    1    2    0    0 -0.20844425026E+03  0.13320021915E+03 -0.22370118634E+04  0.23450423422E+04  0.65864270000E+03 0.  0.
    8880022    1    1    2    0    0  0.20844425026E+03 -0.13320021915E+03 -0.15856712385E+04  0.16121216560E+04  0.15294330000E+03 0.  0.
<mgrwt>
<rscale>  0 0.56414118E+03</rscale>
<asrwt>0</asrwt>
<pdfrwt beam="1">  1        2 0.59844960E+00 0.70356344E+03</pdfrwt>
<pdfrwt beam="2">  1       -2 0.10344687E-01 0.70356344E+03</pdfrwt>
<totfact> 0.30021608E+01</totfact>
</mgrwt>
</event>
<event>
 4    1  0.5223852E-007  0.6981194E+03  0.7818608E-02  0.1000509E+00
         -2   -1    0    0    0  501 -0.00000000000E+00  0.00000000000E+00  0.11354806043E+04  0.11354806043E+04  0.25500000000E-02 0.  1.
          2   -1    0    0  501    0  0.00000000000E+00 -0.00000000000E+00 -0.49239410733E+03  0.49239410734E+03  0.25500000000E-02 0. -1.
    8880023    1    1    2    0    0 -0.22104626890E+03  0.68549670578E+02  0.97255385053E+03  0.11971765571E+04  0.65864270000E+03 0.  1.
    8880022    1    1    2    0    0  0.22104626890E+03 -0.68549670578E+02 -0.32946735353E+03  0.43069815461E+03  0.15294330000E+03 0.  0.
<mgrwt>
<rscale>  0 0.55427449E+03</rscale>
<asrwt>0</asrwt>
<pdfrwt beam="1">  1        2 0.75752941E-01 0.69811941E+03</pdfrwt>
<pdfrwt beam="2">  1       -2 0.17468932E+00 0.69811941E+03</pdfrwt>
<totfact> 0.12642433E+01</totfact>
</mgrwt>
</event>
<event>
 4    1  0.5223852E-007  0.6963810E+03  0.7818608E-02  0.1001256E+00
         -2   -1    0    0    0  501 -0.00000000000E+00  0.00000000000E+00  0.47344567470E+03  0.47344567471E+03  0.25500000000E-02 0.  1.
          2   -1    0    0  501    0  0.00000000000E+00 -0.00000000000E+00 -0.90064617966E+03  0.90064617967E+03  0.25500000000E-02 0. -1.
    8880023    1    1    2    0    0 -0.19432200170E+03 -0.11565159186E+03  0.17054112075E+03  0.71695942087E+03  0.65864270000E+03 0.  1.
    8880022    1    1    2    0    0  0.19432200170E+03  0.11565159186E+03 -0.59774162571E+03  0.65713243351E+03  0.15294330000E+03 0.  0.
<mgrwt>
<rscale>  0 0.55102984E+03</rscale>
<asrwt>0</asrwt>
<pdfrwt beam="1">  1        2 0.13856095E+00 0.69638103E+03</pdfrwt>
<pdfrwt beam="2">  1       -2 0.72837796E-01 0.69638103E+03</pdfrwt>
<totfact> 0.50858203E+01</totfact>
</mgrwt>
</event>
<event>
 4    1  0.5223852E-007  0.7282194E+03  0.7818608E-02  0.9895696E-01
          2   -1    0    0  501    0  0.00000000000E+00  0.00000000000E+00  0.12394023602E+04  0.12394023602E+04  0.25500000000E-02 0. -1.
         -2   -1    0    0    0  501 -0.00000000000E+00 -0.00000000000E+00 -0.34381388936E+03  0.34381388937E+03  0.25500000000E-02 0.  1.
    8880023    1    1    2    0    0  0.42776635435E+02  0.30767416708E+03  0.12561424279E+03  0.73897386820E+03  0.65864270000E+03 0.  1.
    8880022    1    1    2    0    0 -0.42776635435E+02 -0.30767416708E+03  0.76997422800E+03  0.84424238132E+03  0.15294330000E+03 0.  0.
<mgrwt>
<rscale>  0 0.60470314E+03</rscale>
<asrwt>0</asrwt>
<pdfrwt beam="1">  1        2 0.19067729E+00 0.72821936E+03</pdfrwt>
<pdfrwt beam="2">  1       -2 0.52894444E-01 0.72821936E+03</pdfrwt>
<totfact> 0.61679915E+01</totfact>
</mgrwt>
</event>
<event>
 4    1  0.5223852E-007  0.7032501E+03  0.7818608E-02  0.9983976E-01
          2   -1    0    0  501    0  0.00000000000E+00  0.00000000000E+00  0.26267168138E+04  0.26267168138E+04  0.25500000000E-02 0. -1.
         -2   -1    0    0    0  501 -0.00000000000E+00 -0.00000000000E+00 -0.39211651326E+03  0.39211651327E+03  0.25500000000E-02 0.  1.
    8880023    1    1    2    0    0 -0.20141656702E+03 -0.14206309854E+03 -0.60153935317E+02  0.70581814913E+03  0.65864270000E+03 0.  1.
    8880022    1    1    2    0    0  0.20141656702E+03  0.14206309854E+03  0.22947542358E+04  0.23130151779E+04  0.15294330000E+03 0.  0.
<mgrwt>
<rscale>  0 0.56358459E+03</rscale>
<asrwt>0</asrwt>
<pdfrwt beam="1">  1        2 0.40411028E+00 0.70325014E+03</pdfrwt>
<pdfrwt beam="2">  1       -2 0.60325617E-01 0.70325014E+03</pdfrwt>
<totfact> 0.79787444E+00</totfact>
</mgrwt>
</event>
<event>
 4    1  0.5223852E-007  0.6876847E+03  0.7818608E-02  0.1005273E+00
         -2   -1    0    0    0  501 -0.00000000000E+00  0.00000000000E+00  0.19231693102E+04  0.19231693102E+04  0.25500000000E-02 0.  1.
          2   -1    0    0  501    0  0.00000000000E+00 -0.00000000000E+00 -0.18605667074E+03  0.18605667076E+03  0.25500000000E-02 0. -1.
    8880023    1    1    2    0    0 -0.11221796332E+03 -0.16281007481E+03  0.17271766749E+04  0.18590453099E+04  0.65864270000E+03 0.  1.
    8880022    1    1    2    0    0  0.11221796332E+03  0.16281007481E+03  0.99359645436E+01  0.25018067103E+03  0.15294330000E+03 0.  0.
<mgrwt>
<rscale>  0 0.53397356E+03</rscale>
<asrwt>0</asrwt>
<pdfrwt beam="1">  1        2 0.28624102E-01 0.68768466E+03</pdfrwt>
<pdfrwt beam="2">  1       -2 0.29587221E+00 0.68768466E+03</pdfrwt>
<totfact> 0.66108494E+00</totfact>
</mgrwt>
</event>
<event>
 4    1  0.1116767E-006  0.9743073E+03  0.7818608E-02  0.9415971E-01
          2   -1    0    0  501    0  0.00000000000E+00  0.00000000000E+00  0.13942234474E+04  0.13942234474E+04  0.25500000000E-02 0. -1.
         -2   -1    0    0    0  501 -0.00000000000E+00 -0.00000000000E+00 -0.17590517745E+04  0.17590517745E+04  0.25500000000E-02 0.  1.
    8880023    1    1    2    0    0 -0.68778372572E+03 -0.20595659299E+03 -0.15076102659E+04  0.17950385767E+04  0.65864270000E+03 0.  1.
    8880022    1    1    2    0    0  0.68778372572E+03  0.20595659299E+03  0.11427819389E+04  0.13582366452E+04  0.15294330000E+03 0.  0.
<mgrwt>
<rscale>  0 0.90772875E+03</rscale>
<asrwt>0</asrwt>
<pdfrwt beam="1">  1        2 0.21449592E+00 0.97430733E+03</pdfrwt>
<pdfrwt beam="2">  1       -2 0.27062335E+00 0.97430733E+03</pdfrwt>
<totfact> 0.70357038E-01</totfact>
</mgrwt>
</event>
<event>
 4    1  0.5223852E-007  0.9023414E+03  0.7818608E-02  0.9522283E-01
          2   -1    0    0  501    0  0.00000000000E+00  0.00000000000E+00  0.20069029726E+04  0.20069029726E+04  0.25500000000E-02 0. -1.
         -2   -1    0    0    0  501 -0.00000000000E+00 -0.00000000000E+00 -0.33429050138E+03  0.33429050139E+03  0.25500000000E-02 0.  1.
    8880023    1    1    2    0    0  0.13467742822E+03 -0.60189010641E+03  0.56616710390E+03  0.10652535406E+04  0.65864270000E+03 0.  1.
    8880022    1    1    2    0    0 -0.13467742822E+03  0.60189010641E+03  0.11064453673E+04  0.12759399334E+04  0.15294330000E+03 0.  0.
<mgrwt>
<rscale>  0 0.82660707E+03</rscale>
<asrwt>0</asrwt>
<pdfrwt beam="1">  1        2 0.30875431E+00 0.90234135E+03</pdfrwt>
<pdfrwt beam="2">  1       -2 0.51429307E-01 0.90234135E+03</pdfrwt>
<totfact> 0.23996490E+01</totfact>
</mgrwt>
</event>
<event>
 4    1  0.5223852E-007  0.7560854E+03  0.7818608E-02  0.9815349E-01
         -2   -1    0    0    0  501 -0.00000000000E+00  0.00000000000E+00  0.16951978372E+03  0.16951978374E+03  0.25500000000E-02 0.  1.
          2   -1    0    0  501    0  0.00000000000E+00 -0.00000000000E+00 -0.34808530850E+04  0.34808530850E+04  0.25500000000E-02 0. -1.
    8880023    1    1    2    0    0 -0.27893569689E+03  0.24505060003E+03 -0.77601043641E+03  0.10834469637E+04  0.65864270000E+03 0.  1.
    8880022    1    1    2    0    0  0.27893569689E+03 -0.24505060003E+03 -0.25353228649E+04  0.25669259050E+04  0.15294330000E+03 0.  0.
<mgrwt>
<rscale>  0 0.64545274E+03</rscale>
<asrwt>0</asrwt>
<pdfrwt beam="1">  1        2 0.53551580E+00 0.75608540E+03</pdfrwt>
<pdfrwt beam="2">  1       -2 0.26079969E-01 0.75608540E+03</pdfrwt>
<totfact> 0.11984929E+01</totfact>
</mgrwt>
</event>
<event>
 4    1  0.5223852E-007  0.8951384E+03  0.7818608E-02  0.9533882E-01
          2   -1    0    0  501    0  0.00000000000E+00  0.00000000000E+00  0.10520900810E+04  0.10520900810E+04  0.25500000000E-02 0. -1.
         -2   -1    0    0    0  501 -0.00000000000E+00 -0.00000000000E+00 -0.10909902238E+04  0.10909902238E+04  0.25500000000E-02 0.  1.
    8880023    1    1    2    0    0 -0.56986439998E+03 -0.20668119606E+03 -0.77026369664E+03  0.11809229102E+04  0.65864270000E+03 0.  0.
    8880022    1    1    2    0    0  0.56986439998E+03  0.20668119606E+03  0.73136355383E+03  0.96215739464E+03  0.15294330000E+03 0.  0.
<mgrwt>
<rscale>  0 0.81831307E+03</rscale>
<asrwt>0</asrwt>
<pdfrwt beam="1">  1        2 0.16186001E+00 0.89513840E+03</pdfrwt>
<pdfrwt beam="2">  1       -2 0.16784465E+00 0.89513840E+03</pdfrwt>
<totfact> 0.51657945E+00</totfact>
</mgrwt>
</event>
<event>
 4    1  0.5223852E-007  0.8994174E+03  0.7818608E-02  0.9526967E-01
         -2   -1    0    0    0  501 -0.00000000000E+00  0.00000000000E+00  0.79489001384E+03  0.79489001385E+03  0.25500000000E-02 0.  1.
          2   -1    0    0  501    0  0.00000000000E+00 -0.00000000000E+00 -0.15246546123E+04  0.15246546123E+04  0.25500000000E-02 0. -1.
    8880023    1    1    2    0    0 -0.29889664212E+03 -0.53460483024E+03  0.43165889649E+03  0.99763777814E+03  0.65864270000E+03 0.  0.
    8880022    1    1    2    0    0  0.29889664212E+03  0.53460483024E+03 -0.11614234949E+04  0.13219068480E+04  0.15294330000E+03 0.  0.
<mgrwt>
<rscale>  0 0.82324488E+03</rscale>
<asrwt>0</asrwt>
<pdfrwt beam="1">  1        2 0.23456225E+00 0.89941744E+03</pdfrwt>
<pdfrwt beam="2">  1       -2 0.12229077E+00 0.89941744E+03</pdfrwt>
<totfact> 0.62616062E+00</totfact>
</mgrwt>
</event>
<event>
 4    1  0.5223852E-007  0.1339725E+04  0.7818608E-02  0.9031992E-01
         -2   -1    0    0    0  501 -0.00000000000E+00  0.00000000000E+00  0.32846099431E+04  0.32846099431E+04  0.25500000000E-02 0.  1.
          2   -1    0    0  501    0  0.00000000000E+00 -0.00000000000E+00 -0.14381252767E+04  0.14381252767E+04  0.25500000000E-02 0. -1.
    8880023    1    1    2    0    0  0.32612737105E+03 -0.11201314574E+04 -0.98080968989E+03  0.16603768843E+04  0.65864270000E+03 0.  0.
    8880022    1    1    2    0    0 -0.32612737105E+03  0.11201314574E+04  0.28272943563E+04  0.30623583354E+04  0.15294330000E+03 0.  0.
<mgrwt>
<rscale>  0 0.12969442E+04</rscale>
<asrwt>0</asrwt>
<pdfrwt beam="1">  1        2 0.22125005E+00 0.13397253E+04</pdfrwt>
<pdfrwt beam="2">  1       -2 0.50532460E+00 0.13397253E+04</pdfrwt>
<totfact> 0.20070718E-02</totfact>
</mgrwt>
</event>
<event>
 4    1  0.5223852E-007  0.8752848E+03  0.7818608E-02  0.9566933E-01
          2   -1    0    0  501    0  0.00000000000E+00  0.00000000000E+00  0.21259566972E+04  0.21259566972E+04  0.25500000000E-02 0. -1.
         -2   -1    0    0    0  501 -0.00000000000E+00 -0.00000000000E+00 -0.38438263057E+03  0.38438263058E+03  0.25500000000E-02 0.  1.
    8880023    1    1    2    0    0  0.55773132953E+03  0.14577055695E+03  0.25977800837E+03  0.91302141875E+03  0.65864270000E+03 0.  0.
    8880022    1    1    2    0    0 -0.55773132953E+03 -0.14577055695E+03  0.14817960583E+04  0.15973179090E+04  0.15294330000E+03 0.  0.
<mgrwt>
<rscale>  0 0.79524012E+03</rscale>
<asrwt>0</asrwt>
<pdfrwt beam="1">  1        2 0.32707026E+00 0.87528481E+03</pdfrwt>
<pdfrwt beam="2">  1       -2 0.59135789E-01 0.87528481E+03</pdfrwt>
<totfact> 0.15481165E+01</totfact>
</mgrwt>
</event>
<event>
 4    1  0.5223852E-007  0.6940757E+03  0.7818608E-02  0.1002273E+00
         -2   -1    0    0    0  501 -0.00000000000E+00  0.00000000000E+00  0.43647966330E+03  0.43647966331E+03  0.25500000000E-02 0.  1.
          2   -1    0    0  501    0  0.00000000000E+00 -0.00000000000E+00 -0.92100705061E+03  0.92100705062E+03  0.25500000000E-02 0. -1.
    8880023    1    1    2    0    0 -0.17536221991E+03  0.13106870948E+03  0.11279433975E+03  0.70318111758E+03  0.65864270000E+03 0.  1.
    8880022    1    1    2    0    0  0.17536221991E+03 -0.13106870948E+03 -0.59732172706E+03  0.65430559635E+03  0.15294330000E+03 0.  0.
<mgrwt>
<rscale>  0 0.54664895E+03</rscale>
<asrwt>0</asrwt>
<pdfrwt beam="1">  1        2 0.14169339E+00 0.69407573E+03</pdfrwt>
<pdfrwt beam="2">  1       -2 0.67150717E-01 0.69407573E+03</pdfrwt>
<totfact> 0.58863531E+01</totfact>
</mgrwt>
</event>
<event>
 4    1  0.5223852E-007  0.9475289E+03  0.7818608E-02  0.9453678E-01
          2   -1    0    0  501    0  0.00000000000E+00  0.00000000000E+00  0.32607132975E+04  0.32607132975E+04  0.25500000000E-02 0. -1.
         -2   -1    0    0    0  501 -0.00000000000E+00 -0.00000000000E+00 -0.35505084903E+03  0.35505084904E+03  0.25500000000E-02 0.  1.
    8880023    1    1    2    0    0  0.41335296571E+03 -0.54142425712E+03  0.42453515898E+03  0.10382876326E+04  0.65864270000E+03 0.  1.
    8880022    1    1    2    0    0 -0.41335296571E+03  0.54142425712E+03  0.24811272895E+04  0.25774765140E+04  0.15294330000E+03 0.  0.
<mgrwt>
<rscale>  0 0.87786802E+03</rscale>
<asrwt>0</asrwt>
<pdfrwt beam="1">  1        2 0.50164819E+00 0.94752895E+03</pdfrwt>
<pdfrwt beam="2">  1       -2 0.54623208E-01 0.94752895E+03</pdfrwt>
<totfact> 0.38735992E+00</totfact>
</mgrwt>
</event>
<event>
 4    1  0.5223852E-007  0.9158237E+03  0.7818608E-02  0.9501092E-01
          2   -1    0    0  501    0  0.00000000000E+00  0.00000000000E+00  0.18639593232E+04  0.18639593232E+04  0.25500000000E-02 0. -1.
         -2   -1    0    0    0  501 -0.00000000000E+00 -0.00000000000E+00 -0.58923082121E+03  0.58923082122E+03  0.25500000000E-02 0.  1.
    8880023    1    1    2    0    0  0.51233746191E+03 -0.37740326266E+03 -0.10920576127E+03  0.92231177055E+03  0.65864270000E+03 0.  1.
    8880022    1    1    2    0    0 -0.51233746191E+03  0.37740326266E+03  0.13839342632E+04  0.15308783739E+04  0.15294330000E+03 0.  0.
<mgrwt>
<rscale>  0 0.84203331E+03</rscale>
<asrwt>0</asrwt>
<pdfrwt beam="1">  1        2 0.28676297E+00 0.91582373E+03</pdfrwt>
<pdfrwt beam="2">  1       -2 0.90650896E-01 0.91582373E+03</pdfrwt>
<totfact> 0.83424258E+00</totfact>
</mgrwt>
</event>
<event>
 4    1  0.5223852E-007  0.8421087E+03  0.7818608E-02  0.9626217E-01
         -2   -1    0    0    0  501 -0.00000000000E+00  0.00000000000E+00  0.47337909301E+03  0.47337909302E+03  0.25500000000E-02 0.  1.
          2   -1    0    0  501    0  0.00000000000E+00 -0.00000000000E+00 -0.12550060256E+04  0.12550060256E+04  0.25500000000E-02 0. -1.
    8880023    1    1    2    0    0 -0.49874220431E+03 -0.16307369871E+03 -0.90056855011E+02  0.84691042086E+03  0.65864270000E+03 0.  0.
    8880022    1    1    2    0    0  0.49874220431E+03  0.16307369871E+03 -0.69157007758E+03  0.88147469776E+03  0.15294330000E+03 0.  0.
<mgrwt>
<rscale>  0 0.75585012E+03</rscale>
<asrwt>0</asrwt>
<pdfrwt beam="1">  1        2 0.19307785E+00 0.84210868E+03</pdfrwt>
<pdfrwt beam="2">  1       -2 0.72827553E-01 0.84210868E+03</pdfrwt>
<totfact> 0.30239977E+01</totfact>
</mgrwt>
</event>
<event>
 4    1  0.5223852E-007  0.1158542E+04  0.7818608E-02  0.9198516E-01
         -2   -1    0    0    0  501 -0.00000000000E+00  0.00000000000E+00  0.56470335492E+03  0.56470335492E+03  0.25500000000E-02 0.  1.
          2   -1    0    0  501    0  0.00000000000E+00 -0.00000000000E+00 -0.21325670282E+04  0.21325670282E+04  0.25500000000E-02 0. -1.
    8880023    1    1    2    0    0 -0.52281125687E+02 -0.95166969410E+03 -0.51192566032E+03  0.12666043623E+04  0.65864270000E+03 0.  0.
    8880022    1    1    2    0    0  0.52281125687E+02  0.95166969410E+03 -0.10559380130E+04  0.14306660208E+04  0.15294330000E+03 0.  0.
<mgrwt>
<rscale>  0 0.11068763E+04</rscale>
<asrwt>0</asrwt>
<pdfrwt beam="1">  1        2 0.32808723E+00 0.11585416E+04</pdfrwt>
<pdfrwt beam="2">  1       -2 0.86877440E-01 0.11585416E+04</pdfrwt>
<totfact> 0.63669018E+00</totfact>
</mgrwt>
</event>
<event>
 4    1  0.5223852E-007  0.1975642E+04  0.7818608E-02  0.8631135E-01
         -2   -1    0    0    0  501 -0.00000000000E+00  0.00000000000E+00  0.13406113432E+04  0.13406113432E+04  0.25500000000E-02 0.  1.
          2   -1    0    0  501    0  0.00000000000E+00 -0.00000000000E+00 -0.33821235791E+04  0.33821235791E+04  0.25500000000E-02 0. -1.
    8880023    1    1    2    0    0  0.74410126331E+03  0.17075318926E+04 -0.20593188852E+04  0.28537617861E+04  0.65864270000E+03 0.  0.
    8880022    1    1    2    0    0 -0.74410126331E+03 -0.17075318926E+04  0.17806649269E+02  0.18689731363E+04  0.15294330000E+03 0.  0.
<mgrwt>
<rscale>  0 0.19483952E+04</rscale>
<asrwt>0</asrwt>
<pdfrwt beam="1">  1        2 0.52032670E+00 0.19756422E+04</pdfrwt>
<pdfrwt beam="2">  1       -2 0.20624790E+00 0.19756422E+04</pdfrwt>
<totfact> 0.10627797E-01</totfact>
</mgrwt>
</event>
<event>
 4    1  0.5223852E-007  0.7154564E+03  0.7818608E-02  0.9938271E-01
          2   -1    0    0  501    0  0.00000000000E+00  0.00000000000E+00  0.18185336442E+04  0.18185336442E+04  0.25500000000E-02 0. -1.
         -2   -1    0    0    0  501 -0.00000000000E+00 -0.00000000000E+00 -0.21801544587E+03  0.21801544589E+03  0.25500000000E-02 0.  1.
    8880023    1    1    2    0    0  0.26864379493E+03 -0.76799482063E+02  0.45573010185E+03  0.84827341170E+03  0.65864270000E+03 0.  1.
    8880022    1    1    2    0    0 -0.26864379493E+03  0.76799482063E+02  0.11447880965E+04  0.11882756784E+04  0.15294330000E+03 0.  0.
<mgrwt>
<rscale>  0 0.58441837E+03</rscale>
<asrwt>0</asrwt>
<pdfrwt beam="1">  1        2 0.27977442E+00 0.71545640E+03</pdfrwt>
<pdfrwt beam="2">  1       -2 0.33540836E-01 0.71545640E+03</pdfrwt>
<totfact> 0.72016255E+01</totfact>
</mgrwt>
</event>
<event>
 4    1  0.5223852E-007  0.6735180E+03  0.7818608E-02  0.1013257E+00
          2   -1    0    0  501    0  0.00000000000E+00  0.00000000000E+00  0.11418897078E+04  0.11418897078E+04  0.25500000000E-02 0. -1.
         -2   -1    0    0    0  501 -0.00000000000E+00 -0.00000000000E+00 -0.17117117981E+03  0.17117117983E+03  0.25500000000E-02 0.  1.
    8880023    1    1    2    0    0 -0.11767834615E+02 -0.14027769092E+03  0.78476849826E+03  0.10341605845E+04  0.65864270000E+03 0.  0.
    8880022    1    1    2    0    0  0.11767834615E+02  0.14027769092E+03  0.18595002977E+03  0.27890030313E+03  0.15294330000E+03 0.  1.
<mgrwt>
<rscale>  0 0.50200425E+03</rscale>
<asrwt>0</asrwt>
<pdfrwt beam="1">  1        2 0.17567534E+00 0.67351802E+03</pdfrwt>
<pdfrwt beam="2">  1       -2 0.26334028E-01 0.67351802E+03</pdfrwt>
<totfact> 0.27154437E+02</totfact>
</mgrwt>
</event>
<event>
 4    1  0.5223852E-007  0.6743609E+03  0.7818608E-02  0.1012712E+00
         -2   -1    0    0    0  501 -0.00000000000E+00  0.00000000000E+00  0.65887442881E+03  0.65887442881E+03  0.25500000000E-02 0.  1.
          2   -1    0    0  501    0  0.00000000000E+00 -0.00000000000E+00 -0.53431639663E+03  0.53431639664E+03  0.25500000000E-02 0. -1.
    8880023    1    1    2    0    0  0.10727332845E+03  0.97184650039E+02  0.44629503613E+03  0.80866673527E+03  0.65864270000E+03 0.  1.
    8880022    1    1    2    0    0 -0.10727332845E+03 -0.97184650039E+02 -0.32173700396E+03  0.38452409018E+03  0.15294330000E+03 0.  0.
<mgrwt>
<rscale>  0 0.50410817E+03</rscale>
<asrwt>0</asrwt>
<pdfrwt beam="1">  1        2 0.82202523E-01 0.67436090E+03</pdfrwt>
<pdfrwt beam="2">  1       -2 0.10136530E+00 0.67436090E+03</pdfrwt>
<totfact> 0.46365025E+01</totfact>
</mgrwt>
</event>
<event>
 4    1  0.5223852E-007  0.6763330E+03  0.7818608E-02  0.1011479E+00
          2   -1    0    0  501    0  0.00000000000E+00  0.00000000000E+00  0.20134633129E+04  0.20134633129E+04  0.25500000000E-02 0. -1.
         -2   -1    0    0    0  501 -0.00000000000E+00 -0.00000000000E+00 -0.39471323991E+03  0.39471323992E+03  0.25500000000E-02 0.  1.
    8880023    1    1    2    0    0 -0.69845982111E+02  0.13688561735E+03 -0.93047054579E+02  0.68270351843E+03  0.65864270000E+03 0.  1.
    8880022    1    1    2    0    0  0.69845982111E+02 -0.13688561735E+03  0.17117971275E+04  0.17254730344E+04  0.15294330000E+03 0.  0.
<mgrwt>
<rscale>  0 0.50891080E+03</rscale>
<asrwt>0</asrwt>
<pdfrwt beam="1">  1        2 0.30976359E+00 0.67633301E+03</pdfrwt>
<pdfrwt beam="2">  1       -2 0.60725113E-01 0.67633301E+03</pdfrwt>
<totfact> 0.17346536E+01</totfact>
</mgrwt>
</event>
<event>
 4    1  0.5223852E-007  0.6592388E+03  0.7818608E-02  0.1024950E+00
         -2   -1    0    0    0  501 -0.00000000000E+00  0.00000000000E+00  0.23155969900E+03  0.23155969902E+03  0.25500000000E-02 0.  1.
          2   -1    0    0  501    0  0.00000000000E+00 -0.00000000000E+00 -0.21981585432E+04  0.21981585432E+04  0.25500000000E-02 0. -1.
    8880023    1    1    2    0    0 -0.26016184829E+01 -0.27906807732E+02 -0.24837873863E+03  0.70447694242E+03  0.65864270000E+03 0.  1.
    8880022    1    1    2    0    0  0.26016184829E+01  0.27906807732E+02 -0.17182201056E+04  0.17252412998E+04  0.15294330000E+03 0.  0.
<mgrwt>
<rscale>  0 0.45941782E+03</rscale>
<asrwt>0</asrwt>
<pdfrwt beam="1">  1        2 0.33817822E+00 0.65923878E+03</pdfrwt>
<pdfrwt beam="2">  1       -2 0.35624571E-01 0.65923878E+03</pdfrwt>
<totfact> 0.40179133E+01</totfact>
</mgrwt>
</event>
<event>
 4    1  0.5223852E-007  0.7736272E+03  0.7818608E-02  0.9771026E-01
         -2   -1    0    0    0  501 -0.00000000000E+00  0.00000000000E+00  0.59583397926E+03  0.59583397926E+03  0.25500000000E-02 0.  1.
          2   -1    0    0  501    0  0.00000000000E+00 -0.00000000000E+00 -0.17351326738E+04  0.17351326738E+04  0.25500000000E-02 0. -1.
    8880023    1    1    2    0    0  0.36993326966E+03 -0.16684768664E+03  0.29847618909E+03  0.82920866871E+03  0.65864270000E+03 0.  1.
    8880022    1    1    2    0    0 -0.36993326966E+03  0.16684768664E+03 -0.14377748836E+04  0.15017579843E+04  0.15294330000E+03 0.  0.
<mgrwt>
<rscale>  0 0.66940928E+03</rscale>
<asrwt>0</asrwt>
<pdfrwt beam="1">  1        2 0.26694349E+00 0.77362716E+03</pdfrwt>
<pdfrwt beam="2">  1       -2 0.91666767E-01 0.77362716E+03</pdfrwt>
<totfact> 0.97423771E+00</totfact>
</mgrwt>
</event>
<event>
 4    1  0.5223852E-007  0.6653268E+03  0.7818608E-02  0.1019261E+00
         -2   -1    0    0    0  501 -0.00000000000E+00  0.00000000000E+00  0.10106832370E+03  0.10106832374E+03  0.25500000000E-02 0.  1.
          2   -1    0    0  501    0  0.00000000000E+00 -0.00000000000E+00 -0.18363781346E+04  0.18363781346E+04  0.25500000000E-02 0. -1.
    8880023    1    1    2    0    0 -0.78360170462E+02  0.52050839524E+02 -0.11903703618E+04  0.13636866982E+04  0.65864270000E+03 0.  1.
    8880022    1    1    2    0    0  0.78360170462E+02 -0.52050839524E+02 -0.54493944904E+03  0.57375976013E+03  0.15294330000E+03 0.  0.
<mgrwt>
<rscale>  0 0.47954325E+03</rscale>
<asrwt>0</asrwt>
<pdfrwt beam="1">  1        2 0.28251969E+00 0.66532685E+03</pdfrwt>
<pdfrwt beam="2">  1       -2 0.15548974E-01 0.66532685E+03</pdfrwt>
<totfact> 0.27879868E+02</totfact>
</mgrwt>
</event>
<event>
 4    1  0.5223852E-007  0.7400500E+03  0.7818608E-02  0.9859801E-01
         -2   -1    0    0    0  501 -0.00000000000E+00  0.00000000000E+00  0.32068027370E+03  0.32068027371E+03  0.25500000000E-02 0.  1.
          2   -1    0    0  501    0  0.00000000000E+00 -0.00000000000E+00 -0.18642262770E+04  0.18642262770E+04  0.25500000000E-02 0. -1.
    8880023    1    1    2    0    0 -0.32873788109E+03  0.76126315459E+02 -0.16603724146E+03  0.75844734965E+03  0.65864270000E+03 0.  1.
    8880022    1    1    2    0    0  0.32873788109E+03 -0.76126315459E+02 -0.13775087618E+04  0.14264592011E+04  0.15294330000E+03 0.  0.
<mgrwt>
<rscale>  0 0.62249663E+03</rscale>
<asrwt>0</asrwt>
<pdfrwt beam="1">  1        2 0.28680404E+00 0.74005001E+03</pdfrwt>
<pdfrwt beam="2">  1       -2 0.49335428E-01 0.74005001E+03</pdfrwt>
<totfact> 0.31868121E+01</totfact>
</mgrwt>
</event>
<event>
 4    1  0.5223852E-007  0.6691070E+03  0.7818608E-02  0.1016311E+00
          2   -1    0    0  501    0  0.00000000000E+00  0.00000000000E+00  0.21885622734E+04  0.21885622734E+04  0.25500000000E-02 0. -1.
         -2   -1    0    0    0  501 -0.00000000000E+00 -0.00000000000E+00 -0.35897740392E+03  0.35897740392E+03  0.25500000000E-02 0.  1.
    8880023    1    1    2    0    0 -0.11765949748E+03  0.70832719897E+01 -0.37822969381E+02  0.67017513634E+03  0.65864270000E+03 0.  1.
    8880022    1    1    2    0    0  0.11765949748E+03 -0.70832719897E+01  0.18674078389E+04  0.18773645410E+04  0.15294330000E+03 0.  0.
<mgrwt>
<rscale>  0 0.49041561E+03</rscale>
<asrwt>0</asrwt>
<pdfrwt beam="1">  1        2 0.33670188E+00 0.66910697E+03</pdfrwt>
<pdfrwt beam="2">  1       -2 0.55227294E-01 0.66910697E+03</pdfrwt>
<totfact> 0.16996647E+01</totfact>
</mgrwt>
</event>
<event>
 4    1  0.7353120E-007  0.7765709E+03  0.7818608E-02  0.9763954E-01
          2   -1    0    0  501    0  0.00000000000E+00  0.00000000000E+00  0.10947781534E+04  0.10947781534E+04  0.25500000000E-02 0. -1.
         -2   -1    0    0    0  501 -0.00000000000E+00 -0.00000000000E+00 -0.19201409090E+04  0.19201409090E+04  0.25500000000E-02 0.  1.
    8880023    1    1    2    0    0 -0.20622536564E+02  0.41088553231E+03 -0.17921485912E+04  0.19531664007E+04  0.65864270000E+03 0.  1.
    8880022    1    1    2    0    0  0.20622536564E+02 -0.41088553231E+03  0.96678583560E+03  0.10617526617E+04  0.15294330000E+03 0.  0.
<mgrwt>
<rscale>  0 0.67333354E+03</rscale>
<asrwt>0</asrwt>
<pdfrwt beam="1">  1        2 0.16842741E+00 0.77657093E+03</pdfrwt>
<pdfrwt beam="2">  1       -2 0.29540629E+00 0.77657093E+03</pdfrwt>
<totfact> 0.77490922E-01</totfact>
</mgrwt>
</event>
<event>
 4    1  0.5223852E-007  0.7051399E+03  0.7818608E-02  0.9976512E-01
          2   -1    0    0  501    0  0.00000000000E+00  0.00000000000E+00  0.24093904052E+04  0.24093904052E+04  0.25500000000E-02 0. -1.
         -2   -1    0    0    0  501 -0.00000000000E+00 -0.00000000000E+00 -0.52808741637E+03  0.52808741637E+03  0.25500000000E-02 0.  1.
    8880023    1    1    2    0    0 -0.25158772463E+03  0.10755026593E+02 -0.27815148909E+03  0.75801748722E+03  0.65864270000E+03 0.  1.
    8880022    1    1    2    0    0  0.25158772463E+03 -0.10755026593E+02  0.21594544779E+04  0.21794603344E+04  0.15294330000E+03 0.  0.
<mgrwt>
<rscale>  0 0.56692257E+03</rscale>
<asrwt>0</asrwt>
<pdfrwt beam="1">  1        2 0.37067545E+00 0.70513989E+03</pdfrwt>
<pdfrwt beam="2">  1       -2 0.81244217E-01 0.70513989E+03</pdfrwt>
<totfact> 0.55331250E+00</totfact>
</mgrwt>
</event>
<event>
 4    1  0.5223852E-007  0.6845003E+03  0.7818608E-02  0.1006885E+00
          2   -1    0    0  501    0  0.00000000000E+00  0.00000000000E+00  0.14637676708E+04  0.14637676708E+04  0.25500000000E-02 0. -1.
         -2   -1    0    0    0  501 -0.00000000000E+00 -0.00000000000E+00 -0.14718747307E+03  0.14718747309E+03  0.25500000000E-02 0.  1.
    8880023    1    1    2    0    0  0.17376903277E+03 -0.67340424489E+02  0.91743662376E+03  0.11446530367E+04  0.65864270000E+03 0.  1.
    8880022    1    1    2    0    0 -0.17376903277E+03  0.67340424489E+02  0.39914357396E+03  0.46630210719E+03  0.15294330000E+03 0. -1.
<mgrwt>
<rscale>  0 0.52731830E+03</rscale>
<asrwt>0</asrwt>
<pdfrwt beam="1">  1        2 0.22519502E+00 0.68450027E+03</pdfrwt>
<pdfrwt beam="2">  1       -2 0.22644228E-01 0.68450027E+03</pdfrwt>
<totfact> 0.23217214E+02</totfact>
</mgrwt>
</event>
<event>
 4    1  0.5223852E-007  0.7177566E+03  0.7818608E-02  0.9930251E-01
          2   -1    0    0  501    0  0.00000000000E+00  0.00000000000E+00  0.22519628526E+04  0.22519628526E+04  0.25500000000E-02 0. -1.
         -2   -1    0    0    0  501 -0.00000000000E+00 -0.00000000000E+00 -0.16362430511E+03  0.16362430513E+03  0.25500000000E-02 0.  1.
    8880023    1    1    2    0    0 -0.12052761385E+03 -0.25852923029E+03  0.19220786365E+04  0.20517214138E+04  0.65864270000E+03 0.  1.
    8880022    1    1    2    0    0  0.12052761385E+03  0.25852923029E+03  0.16625991101E+03  0.36386574397E+03  0.15294330000E+03 0.  0.
<mgrwt>
<rscale>  0 0.58817316E+03</rscale>
<asrwt>0</asrwt>
<pdfrwt beam="1">  1        2 0.34645582E+00 0.71775656E+03</pdfrwt>
<pdfrwt beam="2">  1       -2 0.25172971E-01 0.71775656E+03</pdfrwt>
<totfact> 0.70871441E+01</totfact>
</mgrwt>
</event>
<event>
 4    1  0.5223852E-007  0.8677364E+03  0.7818608E-02  0.9579947E-01
         -2   -1    0    0    0  501 -0.00000000000E+00  0.00000000000E+00  0.16280877190E+03  0.16280877192E+03  0.25500000000E-02 0.  1.
          2   -1    0    0  501    0  0.00000000000E+00 -0.00000000000E+00 -0.35789400039E+04  0.35789400039E+04  0.25500000000E-02 0. -1.
    8880023    1    1    2    0    0  0.15110075324E+03  0.54435726344E+03 -0.14446313433E+04  0.16852080561E+04  0.65864270000E+03 0.  0.
    8880022    1    1    2    0    0 -0.15110075324E+03 -0.54435726344E+03 -0.19714998886E+04  0.20565407197E+04  0.15294330000E+03 0.  1.
<mgrwt>
<rscale>  0 0.78637741E+03</rscale>
<asrwt>0</asrwt>
<pdfrwt beam="1">  1        2 0.55060610E+00 0.86773641E+03</pdfrwt>
<pdfrwt beam="2">  1       -2 0.25047506E-01 0.86773641E+03</pdfrwt>
<totfact> 0.10823288E+01</totfact>
</mgrwt>
</event>
<event>
 4    1  0.5223852E-007  0.9652249E+03  0.7818608E-02  0.9428539E-01
          2   -1    0    0  501    0  0.00000000000E+00  0.00000000000E+00  0.21836489540E+04  0.21836489540E+04  0.25500000000E-02 0. -1.
         -2   -1    0    0    0  501 -0.00000000000E+00 -0.00000000000E+00 -0.35996106014E+03  0.35996106015E+03  0.25500000000E-02 0.  1.
    8880023    1    1    2    0    0 -0.47902265064E+03 -0.51806004620E+03  0.14183796900E+04  0.17156514980E+04  0.65864270000E+03 0.  0.
    8880022    1    1    2    0    0  0.47902265064E+03  0.51806004620E+03  0.40530820381E+03  0.82795851611E+03  0.15294330000E+03 0.  0.
<mgrwt>
<rscale>  0 0.89763787E+03</rscale>
<asrwt>0</asrwt>
<pdfrwt beam="1">  1        2 0.33594599E+00 0.96522491E+03</pdfrwt>
<pdfrwt beam="2">  1       -2 0.55378625E-01 0.96522491E+03</pdfrwt>
<totfact> 0.16333472E+01</totfact>
</mgrwt>
</event>
<event>
 4    1  0.5223852E-007  0.8607757E+03  0.7818608E-02  0.9592185E-01
          2   -1    0    0  501    0  0.00000000000E+00  0.00000000000E+00  0.10905385110E+04  0.10905385110E+04  0.25500000000E-02 0. -1.
         -2   -1    0    0    0  501 -0.00000000000E+00 -0.00000000000E+00 -0.14967502312E+04  0.14967502312E+04  0.25500000000E-02 0.  1.
    8880023    1    1    2    0    0 -0.51335806289E+03 -0.20877749147E+03 -0.12792939307E+04  0.15419233797E+04  0.65864270000E+03 0.  1.
    8880022    1    1    2    0    0  0.51335806289E+03  0.20877749147E+03  0.87308221046E+03  0.10453653624E+04  0.15294330000E+03 0.  0.
<mgrwt>
<rscale>  0 0.77815584E+03</rscale>
<asrwt>0</asrwt>
<pdfrwt beam="1">  1        2 0.16777516E+00 0.86077567E+03</pdfrwt>
<pdfrwt beam="2">  1       -2 0.23026927E+00 0.86077567E+03</pdfrwt>
<totfact> 0.19056273E+00</totfact>
</mgrwt>
</event>
<event>
 4    1  0.5223852E-007  0.6898819E+03  0.7818608E-02  0.1004209E+00
         -2   -1    0    0    0  501 -0.00000000000E+00  0.00000000000E+00  0.27205588629E+03  0.27205588631E+03  0.25500000000E-02 0.  1.
          2   -1    0    0  501    0  0.00000000000E+00 -0.00000000000E+00 -0.99268724159E+03  0.99268724159E+03  0.25500000000E-02 0. -1.
    8880023    1    1    2    0    0 -0.38141744423E+02  0.20167317478E+03 -0.25900202591E+03  0.73689830899E+03  0.65864270000E+03 0.  1.
    8880022    1    1    2    0    0  0.38141744423E+02 -0.20167317478E+03 -0.46162932938E+03  0.52784481892E+03  0.15294330000E+03 0.  0.
<mgrwt>
<rscale>  0 0.53842669E+03</rscale>
<asrwt>0</asrwt>
<pdfrwt beam="1">  1        2 0.15272111E+00 0.68988192E+03</pdfrwt>
<pdfrwt beam="2">  1       -2 0.41854752E-01 0.68988192E+03</pdfrwt>
<totfact> 0.13997496E+02</totfact>
</mgrwt>
</event>
<event>
 4    1  0.5223852E-007  0.1002890E+04  0.7818608E-02  0.9377786E-01
         -2   -1    0    0    0  501 -0.00000000000E+00  0.00000000000E+00  0.59722495794E+03  0.59722495794E+03  0.25500000000E-02 0.  1.
          2   -1    0    0  501    0  0.00000000000E+00 -0.00000000000E+00 -0.19664102529E+04  0.19664102529E+04  0.25500000000E-02 0. -1.
    8880023    1    1    2    0    0  0.74978719511E+03  0.98981982164E+02 -0.14762032778E+04  0.17846469103E+04  0.65864270000E+03 0. -1.
    8880022    1    1    2    0    0 -0.74978719511E+03 -0.98981982164E+02  0.10701798283E+03  0.77898830056E+03  0.15294330000E+03 0.  0.
<mgrwt>
<rscale>  0 0.93926547E+03</rscale>
<asrwt>0</asrwt>
<pdfrwt beam="1">  1        2 0.30252465E+00 0.10028901E+04</pdfrwt>
<pdfrwt beam="2">  1       -2 0.91880764E-01 0.10028901E+04</pdfrwt>
<totfact> 0.70293339E+00</totfact>
</mgrwt>
</event>
<event>
 4    1  0.5223852E-007  0.6740636E+03  0.7818608E-02  0.1012903E+00
          2   -1    0    0  501    0  0.00000000000E+00  0.00000000000E+00  0.78999668990E+03  0.78999668991E+03  0.25500000000E-02 0. -1.
         -2   -1    0    0    0  501 -0.00000000000E+00 -0.00000000000E+00 -0.77728794606E+03  0.77728794606E+03  0.25500000000E-02 0.  1.
    8880023    1    1    2    0    0 -0.14295269664E+03  0.10775169606E+02 -0.61070366080E+03  0.90957173732E+03  0.65864270000E+03 0.  1.
    8880022    1    1    2    0    0  0.14295269664E+03 -0.10775169606E+02  0.62341240465E+03  0.65771289864E+03  0.15294330000E+03 0.  0.
<mgrwt>
<rscale>  0 0.50336982E+03</rscale>
<asrwt>0</asrwt>
<pdfrwt beam="1">  1        2 0.12153795E+00 0.67406363E+03</pdfrwt>
<pdfrwt beam="2">  1       -2 0.11958276E+00 0.67406363E+03</pdfrwt>
<totfact> 0.19184639E+01</totfact>
</mgrwt>
</event>
<event>
 4    1  0.5223852E-007  0.9119920E+03  0.7818608E-02  0.9507048E-01
          2   -1    0    0  501    0  0.00000000000E+00  0.00000000000E+00  0.30908799071E+04  0.30908799071E+04  0.25500000000E-02 0. -1.
         -2   -1    0    0    0  501 -0.00000000000E+00 -0.00000000000E+00 -0.26636550214E+03  0.26636550215E+03  0.25500000000E-02 0.  1.
    8880023    1    1    2    0    0 -0.63056404384E+03 -0.17557418562E+02  0.74134833151E+03  0.11752986136E+04  0.65864270000E+03 0.  0.
    8880022    1    1    2    0    0  0.63056404384E+03  0.17557418562E+02  0.20831660734E+04  0.21819467956E+04  0.15294330000E+03 0.  0.
<mgrwt>
<rscale>  0 0.83766164E+03</rscale>
<asrwt>0</asrwt>
<pdfrwt beam="1">  1        2 0.47552001E+00 0.91199204E+03</pdfrwt>
<pdfrwt beam="2">  1       -2 0.40979306E-01 0.91199204E+03</pdfrwt>
<totfact> 0.89311751E+00</totfact>
</mgrwt>
</event>
<event>
 4    1  0.5223852E-007  0.7116197E+03  0.7818608E-02  0.9952035E-01
          2   -1    0    0  501    0  0.00000000000E+00  0.00000000000E+00  0.17579475470E+04  0.17579475470E+04  0.25500000000E-02 0. -1.
         -2   -1    0    0    0  501 -0.00000000000E+00 -0.00000000000E+00 -0.28622281250E+03  0.28622281251E+03  0.25500000000E-02 0.  1.
    8880023    1    1    2    0    0  0.18985378389E+03  0.19117526416E+03  0.20564809357E+03  0.74073867560E+03  0.65864270000E+03 0.  1.
    8880022    1    1    2    0    0 -0.18985378389E+03 -0.19117526416E+03  0.12660766409E+04  0.13034316839E+04  0.15294330000E+03 0.  0.
<mgrwt>
<rscale>  0 0.57804400E+03</rscale>
<asrwt>0</asrwt>
<pdfrwt beam="1">  1        2 0.27045347E+00 0.71161973E+03</pdfrwt>
<pdfrwt beam="2">  1       -2 0.44034279E-01 0.71161973E+03</pdfrwt>
<totfact> 0.45902977E+01</totfact>
</mgrwt>
</event>
<event>
 4    1  0.5223852E-007  0.6658132E+03  0.7818608E-02  0.1018861E+00
          2   -1    0    0  501    0  0.00000000000E+00  0.00000000000E+00  0.19744452999E+04  0.19744452999E+04  0.25500000000E-02 0. -1.
         -2   -1    0    0    0  501 -0.00000000000E+00 -0.00000000000E+00 -0.19572317461E+03  0.19572317462E+03  0.25500000000E-02 0.  1.
    8880023    1    1    2    0    0 -0.87335751376E+02  0.43237159850E+02  0.39407139617E+03  0.77369209444E+03  0.65864270000E+03 0.  1.
    8880022    1    1    2    0    0  0.87335751376E+02 -0.43237159850E+02  0.13846507291E+04  0.13964763801E+04  0.15294330000E+03 0.  0.
<mgrwt>
<rscale>  0 0.48099995E+03</rscale>
<asrwt>0</asrwt>
<pdfrwt beam="1">  1        2 0.30376083E+00 0.66581318E+03</pdfrwt>
<pdfrwt beam="2">  1       -2 0.30111257E-01 0.66581318E+03</pdfrwt>
<totfact> 0.72932033E+01</totfact>
</mgrwt>
</event>
<event>
 4    1  0.5223852E-007  0.6901567E+03  0.7818608E-02  0.1004078E+00
         -2   -1    0    0    0  501 -0.00000000000E+00  0.00000000000E+00  0.36424428881E+03  0.36424428882E+03  0.25500000000E-02 0.  1.
          2   -1    0    0  501    0  0.00000000000E+00 -0.00000000000E+00 -0.29269805284E+04  0.29269805284E+04  0.25500000000E-02 0. -1.
    8880023    1    1    2    0    0 -0.10483540633E+03  0.17752639806E+03  0.25172271484E+02  0.69061561953E+03  0.65864270000E+03 0.  1.
    8880022    1    1    2    0    0  0.10483540633E+03 -0.17752639806E+03 -0.25879085110E+04  0.26006091977E+04  0.15294330000E+03 0.  0.
<mgrwt>
<rscale>  0 0.53897622E+03</rscale>
<asrwt>0</asrwt>
<pdfrwt beam="1">  1        2 0.45030468E+00 0.69015671E+03</pdfrwt>
<pdfrwt beam="2">  1       -2 0.56037585E-01 0.69015671E+03</pdfrwt>
<totfact> 0.62177215E+00</totfact>
</mgrwt>
</event>
<event>
 4    1  0.5223852E-007  0.6759390E+03  0.7818608E-02  0.1011721E+00
         -2   -1    0    0    0  501 -0.00000000000E+00  0.00000000000E+00  0.25942855192E+03  0.25942855193E+03  0.25500000000E-02 0.  1.
          2   -1    0    0  501    0  0.00000000000E+00 -0.00000000000E+00 -0.94783795893E+03  0.94783795893E+03  0.25500000000E-02 0. -1.
    8880023    1    1    2    0    0  0.12974279286E+03 -0.79057720275E+02 -0.72206349732E+03  0.98907492935E+03  0.65864270000E+03 0.  0.
    8880022    1    1    2    0    0 -0.12974279286E+03  0.79057720275E+02  0.33654090317E+02  0.21819158152E+03  0.15294330000E+03 0.  0.
<mgrwt>
<rscale>  0 0.50796409E+03</rscale>
<asrwt>0</asrwt>
<pdfrwt beam="1">  1        2 0.14582122E+00 0.67593899E+03</pdfrwt>
<pdfrwt beam="2">  1       -2 0.39912085E-01 0.67593899E+03</pdfrwt>
<totfact> 0.16435460E+02</totfact>
</mgrwt>
</event>
<event>
 4    1  0.5223852E-007  0.1015610E+04  0.7818608E-02  0.9361414E-01
         -2   -1    0    0    0  501 -0.00000000000E+00  0.00000000000E+00  0.17583660103E+04  0.17583660103E+04  0.25500000000E-02 0.  1.
          2   -1    0    0  501    0  0.00000000000E+00 -0.00000000000E+00 -0.12423778271E+04  0.12423778271E+04  0.25500000000E-02 0. -1.
    8880023    1    1    2    0    0 -0.77089181281E+03 -0.58130441061E+02 -0.91506878494E+03  0.13670458744E+04  0.65864270000E+03 0. -1.
    8880022    1    1    2    0    0  0.77089181281E+03  0.58130441061E+02  0.14310569682E+04  0.16336979631E+04  0.15294330000E+03 0.  0.
<mgrwt>
<rscale>  0 0.95320341E+03</rscale>
<asrwt>0</asrwt>
<pdfrwt beam="1">  1        2 0.19113505E+00 0.10156099E+04</pdfrwt>
<pdfrwt beam="2">  1       -2 0.27051785E+00 0.10156099E+04</pdfrwt>
<totfact> 0.85775392E-01</totfact>
</mgrwt>
</event>
<event>
 4    1  0.5223852E-007  0.7812791E+03  0.7818608E-02  0.9752841E-01
          2   -1    0    0  501    0  0.00000000000E+00  0.00000000000E+00  0.17379706943E+04  0.17379706944E+04  0.25500000000E-02 0. -1.
         -2   -1    0    0    0  501 -0.00000000000E+00 -0.00000000000E+00 -0.21754145043E+03  0.21754145044E+03  0.25500000000E-02 0.  1.
    8880023    1    1    2    0    0  0.41872419403E+03 -0.35453186082E+02  0.92332548835E+03  0.12095152098E+04  0.65864270000E+03 0.  1.
    8880022    1    1    2    0    0 -0.41872419403E+03  0.35453186082E+02  0.59710375557E+03  0.74599693498E+03  0.15294330000E+03 0. -1.
<mgrwt>
<rscale>  0 0.67955966E+03</rscale>
<asrwt>0</asrwt>
<pdfrwt beam="1">  1        2 0.26738010E+00 0.78127913E+03</pdfrwt>
<pdfrwt beam="2">  1       -2 0.33467916E-01 0.78127913E+03</pdfrwt>
<totfact> 0.79467371E+01</totfact>
</mgrwt>
</event>
<event>
 4    1  0.5223852E-007  0.6985341E+03  0.7818608E-02  0.1000334E+00
         -2   -1    0    0    0  501 -0.00000000000E+00  0.00000000000E+00  0.76185639332E+03  0.76185639333E+03  0.25500000000E-02 0.  1.
          2   -1    0    0  501    0  0.00000000000E+00 -0.00000000000E+00 -0.56746996201E+03  0.56746996201E+03  0.25500000000E-02 0. -1.
    8880023    1    1    2    0    0  0.22511765338E+03  0.58836476488E+02  0.54185425244E+03  0.88405651741E+03  0.65864270000E+03 0.  1.
    8880022    1    1    2    0    0 -0.22511765338E+03 -0.58836476488E+02 -0.34746782113E+03  0.44526983792E+03  0.15294330000E+03 0.  0.
<mgrwt>
<rscale>  0 0.55504139E+03</rscale>
<asrwt>0</asrwt>
<pdfrwt beam="1">  1        2 0.87303071E-01 0.69853410E+03</pdfrwt>
<pdfrwt beam="2">  1       -2 0.11720868E+00 0.69853410E+03</pdfrwt>
<totfact> 0.30355477E+01</totfact>
</mgrwt>
</event>
<event>
 4    1  0.5223852E-007  0.8734874E+03  0.7818608E-02  0.9570008E-01
          2   -1    0    0  501    0  0.00000000000E+00  0.00000000000E+00  0.16697166792E+04  0.16697166792E+04  0.25500000000E-02 0. -1.
         -2   -1    0    0    0  501 -0.00000000000E+00 -0.00000000000E+00 -0.32385269964E+03  0.32385269965E+03  0.25500000000E-02 0.  1.
    8880023    1    1    2    0    0 -0.28207660454E+03 -0.49960257923E+03  0.73365635649E+03  0.11407154788E+04  0.65864270000E+03 0.  1.
    8880022    1    1    2    0    0  0.28207660454E+03  0.49960257923E+03  0.61220762306E+03  0.85285390000E+03  0.15294330000E+03 0. -1.
<mgrwt>
<rscale>  0 0.79313450E+03</rscale>
<asrwt>0</asrwt>
<pdfrwt beam="1">  1        2 0.25687949E+00 0.87348735E+03</pdfrwt>
<pdfrwt beam="2">  1       -2 0.49823492E-01 0.87348735E+03</pdfrwt>
<totfact> 0.39324981E+01</totfact>
</mgrwt>
</event>
<event>
 4    1  0.5223852E-007  0.7405808E+03  0.7818608E-02  0.9858258E-01
          2   -1    0    0  501    0  0.00000000000E+00  0.00000000000E+00  0.21513051358E+04  0.21513051358E+04  0.25500000000E-02 0. -1.
         -2   -1    0    0    0  501 -0.00000000000E+00 -0.00000000000E+00 -0.17983811137E+03  0.17983811139E+03  0.25500000000E-02 0.  1.
    8880023    1    1    2    0    0  0.10714862897E+03 -0.32119913678E+03  0.74837598336E+03  0.10528658665E+04  0.65864270000E+03 0.  1.
    8880022    1    1    2    0    0 -0.10714862897E+03  0.32119913678E+03  0.12230910411E+04  0.12782773807E+04  0.15294330000E+03 0.  0.
<mgrwt>
<rscale>  0 0.62327613E+03</rscale>
<asrwt>0</asrwt>
<pdfrwt beam="1">  1        2 0.33097004E+00 0.74058080E+03</pdfrwt>
<pdfrwt beam="2">  1       -2 0.27667400E-01 0.74058080E+03</pdfrwt>
<totfact> 0.67626340E+01</totfact>
</mgrwt>
</event>
<event>
 4    1  0.5223852E-007  0.9211381E+03  0.7818608E-02  0.9492916E-01
          2   -1    0    0  501    0  0.00000000000E+00  0.00000000000E+00  0.15989792133E+04  0.15989792133E+04  0.25500000000E-02 0. -1.
         -2   -1    0    0    0  501 -0.00000000000E+00 -0.00000000000E+00 -0.82666180659E+03  0.82666180659E+03  0.25500000000E-02 0.  1.
    8880023    1    1    2    0    0 -0.56881044445E+03 -0.30189390207E+03 -0.45790222758E+03  0.10286738580E+04  0.65864270000E+03 0.  1.
    8880022    1    1    2    0    0  0.56881044445E+03  0.30189390207E+03  0.12302196343E+04  0.13969671619E+04  0.15294330000E+03 0.  0.
<mgrwt>
<rscale>  0 0.84808106E+03</rscale>
<asrwt>0</asrwt>
<pdfrwt beam="1">  1        2 0.24599680E+00 0.92113813E+03</pdfrwt>
<pdfrwt beam="2">  1       -2 0.12717874E+00 0.92113813E+03</pdfrwt>
<totfact> 0.51448276E+00</totfact>
</mgrwt>
</event>
<event>
 4    1  0.5223852E-007  0.7211315E+03  0.7818608E-02  0.9918776E-01
         -2   -1    0    0    0  501 -0.00000000000E+00  0.00000000000E+00  0.89368670426E+03  0.89368670426E+03  0.25500000000E-02 0.  1.
          2   -1    0    0  501    0  0.00000000000E+00 -0.00000000000E+00 -0.43367615967E+03  0.43367615968E+03  0.25500000000E-02 0. -1.
    8880023    1    1    2    0    0 -0.26109812763E+03 -0.13434382299E+03  0.62786870773E+03  0.95616411533E+03  0.65864270000E+03 0.  1.
    8880022    1    1    2    0    0  0.26109812763E+03  0.13434382299E+03 -0.16785816314E+03  0.37119874862E+03  0.15294330000E+03 0.  0.
<mgrwt>
<rscale>  0 0.59359906E+03</rscale>
<asrwt>0</asrwt>
<pdfrwt beam="1">  1        2 0.66719410E-01 0.72113154E+03</pdfrwt>
<pdfrwt beam="2">  1       -2 0.13749026E+00 0.72113154E+03</pdfrwt>
<totfact> 0.27708620E+01</totfact>
</mgrwt>
</event>
<event>
 4    1  0.5223852E-007  0.7707048E+03  0.7818608E-02  0.9778143E-01
         -2   -1    0    0    0  501 -0.00000000000E+00  0.00000000000E+00  0.32082010788E+03  0.32082010789E+03  0.25500000000E-02 0.  1.
          2   -1    0    0  501    0  0.00000000000E+00 -0.00000000000E+00 -0.22250320394E+04  0.22250320394E+04  0.25500000000E-02 0. -1.
    8880023    1    1    2    0    0  0.16113628919E+03  0.36634786353E+03 -0.21070503691E+03  0.79898841021E+03  0.65864270000E+03 0.  1.
    8880022    1    1    2    0    0 -0.16113628919E+03 -0.36634786353E+03 -0.16935068946E+04  0.17468637371E+04  0.15294330000E+03 0.  0.
<mgrwt>
<rscale>  0 0.66548836E+03</rscale>
<asrwt>0</asrwt>
<pdfrwt beam="1">  1        2 0.34231261E+00 0.77070479E+03</pdfrwt>
<pdfrwt beam="2">  1       -2 0.49356941E-01 0.77070479E+03</pdfrwt>
<totfact> 0.20122911E+01</totfact>
</mgrwt>
</event>
<event>
 4    1  0.5223852E-007  0.8210273E+03  0.7818608E-02  0.9667049E-01
         -2   -1    0    0    0  501 -0.00000000000E+00  0.00000000000E+00  0.12639305138E+04  0.12639305138E+04  0.25500000000E-02 0.  1.
          2   -1    0    0  501    0  0.00000000000E+00 -0.00000000000E+00 -0.15083945444E+04  0.15083945444E+04  0.25500000000E-02 0. -1.
    8880023    1    1    2    0    0  0.33014755452E+03  0.36232345320E+03  0.10771999515E+04  0.13544170828E+04  0.65864270000E+03 0.  0.
    8880022    1    1    2    0    0 -0.33014755452E+03 -0.36232345320E+03 -0.13216639820E+04  0.14179079755E+04  0.15294330000E+03 0. -1.
<mgrwt>
<rscale>  0 0.73013011E+03</rscale>
<asrwt>0</asrwt>
<pdfrwt beam="1">  1        2 0.23206070E+00 0.82102734E+03</pdfrwt>
<pdfrwt beam="2">  1       -2 0.19445085E+00 0.82102734E+03</pdfrwt>
<totfact> 0.18525382E+00</totfact>
</mgrwt>
</event>
<event>
 4    1  0.5223852E-007  0.7913108E+03  0.7818608E-02  0.9729909E-01
          2   -1    0    0  501    0  0.00000000000E+00  0.00000000000E+00  0.14953241119E+04  0.14953241119E+04  0.25500000000E-02 0. -1.
         -2   -1    0    0    0  501 -0.00000000000E+00 -0.00000000000E+00 -0.40006994190E+03  0.40006994191E+03  0.25500000000E-02 0.  1.
    8880023    1    1    2    0    0  0.30255913695E+03  0.31752257835E+03  0.10066703075E+03  0.79768833291E+03  0.65864270000E+03 0.  0.
    8880022    1    1    2    0    0 -0.30255913695E+03 -0.31752257835E+03  0.99458713923E+03  0.10977057209E+04  0.15294330000E+03 0.  0.
<mgrwt>
<rscale>  0 0.69263631E+03</rscale>
<asrwt>0</asrwt>
<pdfrwt beam="1">  1        2 0.23004987E+00 0.79131083E+03</pdfrwt>
<pdfrwt beam="2">  1       -2 0.61549220E-01 0.79131083E+03</pdfrwt>
<totfact> 0.31911445E+01</totfact>
</mgrwt>
</event>
<event>
 4    1  0.5223852E-007  0.6664324E+03  0.7818608E-02  0.1018361E+00
         -2   -1    0    0    0  501 -0.00000000000E+00  0.00000000000E+00  0.13388456879E+03  0.13388456882E+03  0.25500000000E-02 0.  1.
          2   -1    0    0  501    0  0.00000000000E+00 -0.00000000000E+00 -0.13495989532E+04  0.13495989532E+04  0.25500000000E-02 0. -1.
    8880023    1    1    2    0    0  0.48208974709E+02  0.89430647923E+02 -0.94325124724E+03  0.11549264339E+04  0.65864270000E+03 0.  0.
    8880022    1    1    2    0    0 -0.48208974709E+02 -0.89430647923E+02 -0.27246313721E+03  0.32855708817E+03  0.15294330000E+03 0.  1.
<mgrwt>
<rscale>  0 0.48282830E+03</rscale>
<asrwt>0</asrwt>
<pdfrwt beam="1">  1        2 0.20763060E+00 0.66643241E+03</pdfrwt>
<pdfrwt beam="2">  1       -2 0.20597627E-01 0.66643241E+03</pdfrwt>
<totfact> 0.31859582E+02</totfact>
</mgrwt>
</event>
<event>
 4    1  0.5223852E-007  0.7203913E+03  0.7818608E-02  0.9921264E-01
          2   -1    0    0  501    0  0.00000000000E+00  0.00000000000E+00  0.53450657687E+03  0.53450657687E+03  0.25500000000E-02 0. -1.
         -2   -1    0    0    0  501 -0.00000000000E+00 -0.00000000000E+00 -0.87279296337E+03  0.87279296337E+03  0.25500000000E-02 0.  1.
    8880023    1    1    2    0    0 -0.20433957771E+03 -0.20832356580E+03 -0.63771214093E+03  0.96210204866E+03  0.65864270000E+03 0.  1.
    8880022    1    1    2    0    0  0.20433957771E+03  0.20832356580E+03  0.29942575443E+03  0.44519749159E+03  0.15294330000E+03 0.  0.
<mgrwt>
<rscale>  0 0.59241708E+03</rscale>
<asrwt>0</asrwt>
<pdfrwt beam="1">  1        2 0.82231781E-01 0.72039127E+03</pdfrwt>
<pdfrwt beam="2">  1       -2 0.13427584E+00 0.72039127E+03</pdfrwt>
<totfact> 0.23131291E+01</totfact>
</mgrwt>
</event>
<event>
 4    1  0.5223852E-007  0.6793965E+03  0.7818608E-02  0.1009667E+00
          2   -1    0    0  501    0  0.00000000000E+00  0.00000000000E+00  0.16831836217E+04  0.16831836217E+04  0.25500000000E-02 0. -1.
         -2   -1    0    0    0  501 -0.00000000000E+00 -0.00000000000E+00 -0.14532136057E+03  0.14532136059E+03  0.25500000000E-02 0.  1.
    8880023    1    1    2    0    0  0.14187017647E+03  0.87420170449E+02  0.76457825644E+03  0.10228194120E+04  0.65864270000E+03 0.  0.
    8880022    1    1    2    0    0 -0.14187017647E+03 -0.87420170449E+02  0.77328400466E+03  0.80568557021E+03  0.15294330000E+03 0.  0.
<mgrwt>
<rscale>  0 0.51607160E+03</rscale>
<asrwt>0</asrwt>
<pdfrwt beam="1">  1        2 0.25895133E+00 0.67939653E+03</pdfrwt>
<pdfrwt beam="2">  1       -2 0.22357132E-01 0.67939653E+03</pdfrwt>
<totfact> 0.17985173E+02</totfact>
</mgrwt>
</event>
<event>
 4    1  0.5223852E-007  0.6773467E+03  0.7818608E-02  0.1010866E+00
          2   -1    0    0  501    0  0.00000000000E+00  0.00000000000E+00  0.29669981871E+04  0.29669981871E+04  0.25500000000E-02 0. -1.
         -2   -1    0    0    0  501 -0.00000000000E+00 -0.00000000000E+00 -0.10697901034E+03  0.10697901037E+03  0.25500000000E-02 0.  1.
    8880023    1    1    2    0    0  0.10575549072E+03 -0.11749090640E+03  0.10426718598E+04  0.12433676650E+04  0.65864270000E+03 0.  1.
    8880022    1    1    2    0    0 -0.10575549072E+03  0.11749090640E+03  0.18173473169E+04  0.18306095324E+04  0.15294330000E+03 0.  0.
<mgrwt>
<rscale>  0 0.51131847E+03</rscale>
<asrwt>0</asrwt>
<pdfrwt beam="1">  1        2 0.45646124E+00 0.67734669E+03</pdfrwt>
<pdfrwt beam="2">  1       -2 0.16458310E-01 0.67734669E+03</pdfrwt>
<totfact> 0.58205927E+01</totfact>
</mgrwt>
</event>
<event>
 4    1  0.5223852E-007  0.1157240E+04  0.7818608E-02  0.9199852E-01
         -2   -1    0    0    0  501 -0.00000000000E+00  0.00000000000E+00  0.69967079069E+03  0.69967079070E+03  0.25500000000E-02 0.  1.
          2   -1    0    0  501    0  0.00000000000E+00 -0.00000000000E+00 -0.47796905630E+04  0.47796905630E+04  0.25500000000E-02 0. -1.
    8880023    1    1    2    0    0  0.57230747478E+03  0.76017029035E+03  0.12624278305E+03  0.11641057351E+04  0.65864270000E+03 0.  1.
    8880022    1    1    2    0    0 -0.57230747478E+03 -0.76017029035E+03 -0.42062625553E+04  0.43152556185E+04  0.15294330000E+03 0.  0.
<mgrwt>
<rscale>  0 0.11054959E+04</rscale>
<asrwt>0</asrwt>
<pdfrwt beam="1">  1        2 0.73533699E+00 0.11572402E+04</pdfrwt>
<pdfrwt beam="2">  1       -2 0.10764166E+00 0.11572402E+04</pdfrwt>
<totfact> 0.45583608E-02</totfact>
</mgrwt>
</event>
<event>
 4    1  0.5223852E-007  0.8520032E+03  0.7818608E-02  0.9607950E-01
         -2   -1    0    0    0  501 -0.00000000000E+00  0.00000000000E+00  0.41384731886E+03  0.41384731887E+03  0.25500000000E-02 0.  1.
          2   -1    0    0  501    0  0.00000000000E+00 -0.00000000000E+00 -0.14373088978E+04  0.14373088978E+04  0.25500000000E-02 0. -1.
    8880023    1    1    2    0    0  0.34926551391E+03  0.41244748348E+03 -0.23633947778E+03  0.88417525461E+03  0.65864270000E+03 0.  1.
    8880022    1    1    2    0    0 -0.34926551391E+03 -0.41244748348E+03 -0.78712210116E+03  0.96698096207E+03  0.15294330000E+03 0.  0.
<mgrwt>
<rscale>  0 0.76772256E+03</rscale>
<asrwt>0</asrwt>
<pdfrwt beam="1">  1        2 0.22112444E+00 0.85200325E+03</pdfrwt>
<pdfrwt beam="2">  1       -2 0.63668819E-01 0.85200325E+03</pdfrwt>
<totfact> 0.31800468E+01</totfact>
</mgrwt>
</event>
<event>
 4    1  0.5223852E-007  0.1483592E+04  0.7818608E-02  0.8921310E-01
         -2   -1    0    0    0  501 -0.00000000000E+00  0.00000000000E+00  0.95400096128E+03  0.95400096128E+03  0.25500000000E-02 0.  1.
          2   -1    0    0  501    0  0.00000000000E+00 -0.00000000000E+00 -0.31795750106E+04  0.31795750106E+04  0.25500000000E-02 0. -1.
    8880023    1    1    2    0    0  0.47369650798E+03 -0.12421143664E+04  0.60315365105E+02  0.14848180462E+04  0.65864270000E+03 0.  0.
    8880022    1    1    2    0    0 -0.47369650798E+03  0.12421143664E+04 -0.22858894144E+04  0.26487579256E+04  0.15294330000E+03 0.  0.
<mgrwt>
<rscale>  0 0.14458114E+04</rscale>
<asrwt>0</asrwt>
<pdfrwt beam="1">  1        2 0.48916538E+00 0.14835925E+04</pdfrwt>
<pdfrwt beam="2">  1       -2 0.14676938E+00 0.14835925E+04</pdfrwt>
<totfact> 0.40389547E-01</totfact>
</mgrwt>
</event>
<event>
 4    1  0.5223852E-007  0.1203719E+04  0.7818608E-02  0.9153516E-01
          2   -1    0    0  501    0  0.00000000000E+00  0.00000000000E+00  0.13783808664E+04  0.13783808664E+04  0.25500000000E-02 0. -1.
         -2   -1    0    0    0  501 -0.00000000000E+00 -0.00000000000E+00 -0.18774670226E+04  0.18774670226E+04  0.25500000000E-02 0.  1.
    8880023    1    1    2    0    0 -0.99902451569E+03 -0.13068590568E+03  0.91557136850E+03  0.15123524477E+04  0.65864270000E+03 0. -1.
    8880022    1    1    2    0    0  0.99902451569E+03  0.13068590568E+03 -0.14146575247E+04  0.17434954414E+04  0.15294330000E+03 0.  0.
<mgrwt>
<rscale>  0 0.11546375E+04</rscale>
<asrwt>0</asrwt>
<pdfrwt beam="1">  1        2 0.21205859E+00 0.12037188E+04</pdfrwt>
<pdfrwt beam="2">  1       -2 0.28884108E+00 0.12037188E+04</pdfrwt>
<totfact> 0.53959838E-01</totfact>
</mgrwt>
</event>
<event>
 4    1  0.5223852E-007  0.9788502E+03  0.7818608E-02  0.9409767E-01
          2   -1    0    0  501    0  0.00000000000E+00  0.00000000000E+00  0.91612027207E+03  0.91612027207E+03  0.25500000000E-02 0. -1.
         -2   -1    0    0    0  501 -0.00000000000E+00 -0.00000000000E+00 -0.11220692433E+04  0.11220692433E+04  0.25500000000E-02 0.  1.
    8880023    1    1    2    0    0 -0.37942158606E+03  0.61674684904E+03 -0.65009176149E+03  0.11750603901E+04  0.65864270000E+03 0.  1.
    8880022    1    1    2    0    0  0.37942158606E+03 -0.61674684904E+03  0.44414279025E+03  0.86312912528E+03  0.15294330000E+03 0.  0.
<mgrwt>
<rscale>  0 0.91276270E+03</rscale>
<asrwt>0</asrwt>
<pdfrwt beam="1">  1        2 0.14094158E+00 0.97885015E+03</pdfrwt>
<pdfrwt beam="2">  1       -2 0.17262604E+00 0.97885015E+03</pdfrwt>
<totfact> 0.58008901E+00</totfact>
</mgrwt>
</event>
<event>
 4    1  0.5223852E-007  0.8172844E+03  0.7818608E-02  0.9674599E-01
         -2   -1    0    0    0  501 -0.00000000000E+00  0.00000000000E+00  0.14072860943E+04  0.14072860943E+04  0.25500000000E-02 0.  1.
          2   -1    0    0  501    0  0.00000000000E+00 -0.00000000000E+00 -0.12911521113E+04  0.12911521113E+04  0.25500000000E-02 0. -1.
    8880023    1    1    2    0    0  0.39228837506E+03 -0.28329040462E+03  0.12286478142E+04  0.14756453775E+04  0.65864270000E+03 0.  1.
    8880022    1    1    2    0    0 -0.39228837506E+03  0.28329040462E+03 -0.11125138312E+04  0.12227928280E+04  0.15294330000E+03 0.  0.
<mgrwt>
<rscale>  0 0.72549514E+03</rscale>
<asrwt>0</asrwt>
<pdfrwt beam="1">  1        2 0.19863879E+00 0.81728442E+03</pdfrwt>
<pdfrwt beam="2">  1       -2 0.21650555E+00 0.81728442E+03</pdfrwt>
<totfact> 0.17749639E+00</totfact>
</mgrwt>
</event>
<event>
 4    1  0.5223852E-007  0.6645715E+03  0.7818608E-02  0.1019896E+00
          2   -1    0    0  501    0  0.00000000000E+00  0.00000000000E+00  0.15620235823E+04  0.15620235823E+04  0.25500000000E-02 0. -1.
         -2   -1    0    0    0  501 -0.00000000000E+00 -0.00000000000E+00 -0.11473606652E+03  0.11473606655E+03  0.25500000000E-02 0.  1.
    8880023    1    1    2    0    0 -0.52762863207E+02  0.71141704078E+02  0.10608224903E+04  0.12517985557E+04  0.65864270000E+03 0.  1.
    8880022    1    1    2    0    0  0.52762863207E+02 -0.71141704078E+02  0.38646502549E+03  0.42496109320E+03  0.15294330000E+03 0. -1.
<mgrwt>
<rscale>  0 0.47724287E+03</rscale>
<asrwt>0</asrwt>
<pdfrwt beam="1">  1        2 0.24031131E+00 0.66457149E+03</pdfrwt>
<pdfrwt beam="2">  1       -2 0.17651703E-01 0.66457149E+03</pdfrwt>
<totfact> 0.31697278E+02</totfact>
</mgrwt>
</event>
<event>
 4    1  0.5223852E-007  0.8334402E+03  0.7818608E-02  0.9642676E-01
         -2   -1    0    0    0  501 -0.00000000000E+00  0.00000000000E+00  0.11706654130E+04  0.11706654130E+04  0.25500000000E-02 0.  1.
          2   -1    0    0  501    0  0.00000000000E+00 -0.00000000000E+00 -0.58166937232E+03  0.58166937233E+03  0.25500000000E-02 0. -1.
    8880023    1    1    2    0    0  0.38348871037E+03 -0.33726659504E+03  0.82193719584E+03  0.11705568364E+04  0.65864270000E+03 0.  1.
    8880022    1    1    2    0    0 -0.38348871037E+03  0.33726659504E+03 -0.23294115513E+03  0.58177794895E+03  0.15294330000E+03 0. -1.
<mgrwt>
<rscale>  0 0.74534888E+03</rscale>
<asrwt>0</asrwt>
<pdfrwt beam="1">  1        2 0.89487596E-01 0.83344019E+03</pdfrwt>
<pdfrwt beam="2">  1       -2 0.18010237E+00 0.83344019E+03</pdfrwt>
<totfact> 0.94005946E+00</totfact>
</mgrwt>
</event>
<event>
 4    1  0.5223852E-007  0.6802694E+03  0.7818608E-02  0.1009172E+00
         -2   -1    0    0    0  501 -0.00000000000E+00  0.00000000000E+00  0.15554517530E+03  0.15554517532E+03  0.25500000000E-02 0.  1.
          2   -1    0    0  501    0  0.00000000000E+00 -0.00000000000E+00 -0.34554857373E+04  0.34554857373E+04  0.25500000000E-02 0. -1.
    8880023    1    1    2    0    0  0.16762778221E+03 -0.29276913830E+02 -0.61714160708E+03  0.91849342975E+03  0.65864270000E+03 0.  1.
    8880022    1    1    2    0    0 -0.16762778221E+03  0.29276913830E+02 -0.26827989549E+04  0.26925374829E+04  0.15294330000E+03 0.  0.
<mgrwt>
<rscale>  0 0.51805165E+03</rscale>
<asrwt>0</asrwt>
<pdfrwt beam="1">  1        2 0.53161313E+00 0.68026937E+03</pdfrwt>
<pdfrwt beam="2">  1       -2 0.23930030E-01 0.68026937E+03</pdfrwt>
<totfact> 0.14774888E+01</totfact>
</mgrwt>
</event>
<event>
 4    1  0.5223852E-007  0.7050944E+03  0.7818608E-02  0.9976690E-01
         -2   -1    0    0    0  501 -0.00000000000E+00  0.00000000000E+00  0.16190660982E+04  0.16190660982E+04  0.25500000000E-02 0.  1.
          2   -1    0    0  501    0  0.00000000000E+00 -0.00000000000E+00 -0.42465017436E+03  0.42465017437E+03  0.25500000000E-02 0. -1.
    8880023    1    1    2    0    0  0.32956356070E+01 -0.25166838779E+03  0.14763027703E+04  0.16360403157E+04  0.65864270000E+03 0.  1.
    8880022    1    1    2    0    0 -0.32956356070E+01  0.25166838779E+03 -0.28188684645E+03  0.40767595691E+03  0.15294330000E+03 0.  0.
<mgrwt>
<rscale>  0 0.56684267E+03</rscale>
<asrwt>0</asrwt>
<pdfrwt beam="1">  1        2 0.65330796E-01 0.70509435E+03</pdfrwt>
<pdfrwt beam="2">  1       -2 0.24908709E+00 0.70509435E+03</pdfrwt>
<totfact> 0.50036900E+00</totfact>
</mgrwt>
</event>
<event>
 4    1  0.5223852E-007  0.8330900E+03  0.7818608E-02  0.9643350E-01
          2   -1    0    0  501    0  0.00000000000E+00  0.00000000000E+00  0.10429252963E+04  0.10429252963E+04  0.25500000000E-02 0. -1.
         -2   -1    0    0    0  501 -0.00000000000E+00 -0.00000000000E+00 -0.12501574980E+04  0.12501574980E+04  0.25500000000E-02 0.  1.
    8880023    1    1    2    0    0 -0.19196411537E+03 -0.47262942578E+03 -0.10227274965E+04  0.13190945887E+04  0.65864270000E+03 0.  1.
    8880022    1    1    2    0    0  0.19196411537E+03  0.47262942578E+03  0.81549529483E+03  0.97398820558E+03  0.15294330000E+03 0.  0.
<mgrwt>
<rscale>  0 0.74492259E+03</rscale>
<asrwt>0</asrwt>
<pdfrwt beam="1">  1        2 0.16045005E+00 0.83309003E+03</pdfrwt>
<pdfrwt beam="2">  1       -2 0.19233192E+00 0.83309003E+03</pdfrwt>
<totfact> 0.35779772E+00</totfact>
</mgrwt>
</event>
<event>
 4    1  0.5223852E-007  0.8006016E+03  0.7818608E-02  0.9709497E-01
         -2   -1    0    0    0  501 -0.00000000000E+00  0.00000000000E+00  0.26507362563E+03  0.26507362564E+03  0.25500000000E-02 0.  1.
          2   -1    0    0  501    0  0.00000000000E+00 -0.00000000000E+00 -0.23390618809E+04  0.23390618809E+04  0.25500000000E-02 0. -1.
    8880023    1    1    2    0    0  0.44044063537E+03  0.11473751819E+03 -0.46678387362E+03  0.92674162651E+03  0.65864270000E+03 0.  0.
    8880022    1    1    2    0    0 -0.44044063537E+03 -0.11473751819E+03 -0.16072043816E+04  0.16773938800E+04  0.15294330000E+03 0.  0.
<mgrwt>
<rscale>  0 0.70454157E+03</rscale>
<asrwt>0</asrwt>
<pdfrwt beam="1">  1        2 0.35985566E+00 0.80060156E+03</pdfrwt>
<pdfrwt beam="2">  1       -2 0.40780559E-01 0.80060156E+03</pdfrwt>
<totfact> 0.25345501E+01</totfact>
</mgrwt>
</event>
<event>
 4    1  0.5223852E-007  0.9433226E+03  0.7818608E-02  0.9459787E-01
          2   -1    0    0  501    0  0.00000000000E+00  0.00000000000E+00  0.93393132002E+03  0.93393132003E+03  0.25500000000E-02 0. -1.
         -2   -1    0    0    0  501 -0.00000000000E+00 -0.00000000000E+00 -0.11603712208E+04  0.11603712208E+04  0.25500000000E-02 0.  1.
    8880023    1    1    2    0    0  0.67315986433E+03 -0.53880620529E+02 -0.76706357900E+03  0.12158306069E+04  0.65864270000E+03 0.  1.
    8880022    1    1    2    0    0 -0.67315986433E+03  0.53880620529E+02  0.54062367822E+03  0.87847193392E+03  0.15294330000E+03 0.  0.
<mgrwt>
<rscale>  0 0.87314596E+03</rscale>
<asrwt>0</asrwt>
<pdfrwt beam="1">  1        2 0.14368174E+00 0.94332260E+03</pdfrwt>
<pdfrwt beam="2">  1       -2 0.17851865E+00 0.94332260E+03</pdfrwt>
<totfact> 0.51515738E+00</totfact>
</mgrwt>
</event>
<event>
 4    1  0.5223852E-007  0.6718773E+03  0.7818608E-02  0.1014351E+00
         -2   -1    0    0    0  501 -0.00000000000E+00  0.00000000000E+00  0.10951411631E+03  0.10951411634E+03  0.25500000000E-02 0.  1.
          2   -1    0    0  501    0  0.00000000000E+00 -0.00000000000E+00 -0.19123068285E+04  0.19123068285E+04  0.25500000000E-02 0. -1.
    8880023    1    1    2    0    0 -0.10895928159E+03 -0.75741166547E+02 -0.10865056229E+04  0.12774637076E+04  0.65864270000E+03 0.  1.
    8880022    1    1    2    0    0  0.10895928159E+03  0.75741166547E+02 -0.71628708935E+03  0.74435723731E+03  0.15294330000E+03 0. -1.
<mgrwt>
<rscale>  0 0.49781285E+03</rscale>
<asrwt>0</asrwt>
<pdfrwt beam="1">  1        2 0.29420103E+00 0.67187726E+03</pdfrwt>
<pdfrwt beam="2">  1       -2 0.16848327E-01 0.67187726E+03</pdfrwt>
<totfact> 0.22104511E+02</totfact>
</mgrwt>
</event>
<event>
 4    1  0.5223852E-007  0.1050111E+04  0.7818608E-02  0.9318748E-01
         -2   -1    0    0    0  501 -0.00000000000E+00  0.00000000000E+00  0.38438134284E+03  0.38438134285E+03  0.25500000000E-02 0.  1.
          2   -1    0    0  501    0  0.00000000000E+00 -0.00000000000E+00 -0.35559366435E+04  0.35559366435E+04  0.25500000000E-02 0. -1.
    8880023    1    1    2    0    0  0.81291376695E+03 -0.89968924634E+02 -0.54093660543E+03  0.11812475681E+04  0.65864270000E+03 0.  0.
    8880022    1    1    2    0    0 -0.81291376695E+03  0.89968924634E+02 -0.26306186953E+04  0.27590704182E+04  0.15294330000E+03 0.  0.
<mgrwt>
<rscale>  0 0.99075074E+03</rscale>
<asrwt>0</asrwt>
<pdfrwt beam="1">  1        2 0.54706715E+00 0.10501111E+04</pdfrwt>
<pdfrwt beam="2">  1       -2 0.59135594E-01 0.10501111E+04</pdfrwt>
<totfact> 0.20422493E+00</totfact>
</mgrwt>
</event>
<event>
 4    1  0.5223852E-007  0.1087470E+04  0.7818608E-02  0.9275136E-01
          2   -1    0    0  501    0  0.00000000000E+00  0.00000000000E+00  0.93318161849E+03  0.93318161850E+03  0.25500000000E-02 0. -1.
         -2   -1    0    0    0  501 -0.00000000000E+00 -0.00000000000E+00 -0.15931988335E+04  0.15931988335E+04  0.25500000000E-02 0.  1.
    8880023    1    1    2    0    0  0.82875906936E+03 -0.24887780622E+03 -0.10972780904E+04  0.15448660691E+04  0.65864270000E+03 0.  0.
    8880022    1    1    2    0    0 -0.82875906936E+03  0.24887780622E+03  0.43726087548E+03  0.98151438284E+03  0.15294330000E+03 0.  0.
<mgrwt>
<rscale>  0 0.10310446E+04</rscale>
<asrwt>0</asrwt>
<pdfrwt beam="1">  1        2 0.14356640E+00 0.10874704E+04</pdfrwt>
<pdfrwt beam="2">  1       -2 0.24510751E+00 0.10874704E+04</pdfrwt>
<totfact> 0.18924195E+00</totfact>
</mgrwt>
</event>
<event>
 4    1  0.5223852E-007  0.6668442E+03  0.7818608E-02  0.1018034E+00
         -2   -1    0    0    0  501 -0.00000000000E+00  0.00000000000E+00  0.10623320058E+04  0.10623320058E+04  0.25500000000E-02 0.  1.
          2   -1    0    0  501    0  0.00000000000E+00 -0.00000000000E+00 -0.35521539565E+03  0.35521539566E+03  0.25500000000E-02 0. -1.
    8880023    1    1    2    0    0 -0.85578193399E+02 -0.59559998981E+02  0.91948012894E+03  0.11358366671E+04  0.65864270000E+03 0.  0.
    8880022    1    1    2    0    0  0.85578193399E+02  0.59559998981E+02 -0.21236351882E+03  0.28171073427E+03  0.15294330000E+03 0. -1.
<mgrwt>
<rscale>  0 0.48402852E+03</rscale>
<asrwt>0</asrwt>
<pdfrwt beam="1">  1        2 0.54648523E-01 0.66684423E+03</pdfrwt>
<pdfrwt beam="2">  1       -2 0.16343569E+00 0.66684423E+03</pdfrwt>
<totfact> 0.22049275E+01</totfact>
</mgrwt>
</event>
<event>
 4    1  0.5223852E-007  0.1035850E+04  0.7818608E-02  0.9336089E-01
         -2   -1    0    0    0  501 -0.00000000000E+00  0.00000000000E+00  0.88363991903E+03  0.88363991903E+03  0.25500000000E-02 0.  1.
          2   -1    0    0  501    0  0.00000000000E+00 -0.00000000000E+00 -0.22850783261E+04  0.22850783262E+04  0.25500000000E-02 0. -1.
    8880023    1    1    2    0    0 -0.68540016815E+03  0.41158312453E+03  0.46279141122E+03  0.11345308085E+04  0.65864270000E+03 0.  1.
    8880022    1    1    2    0    0  0.68540016815E+03 -0.41158312453E+03 -0.18642298183E+04  0.20341874367E+04  0.15294330000E+03 0.  0.
<mgrwt>
<rscale>  0 0.97527283E+03</rscale>
<asrwt>0</asrwt>
<pdfrwt beam="1">  1        2 0.35155051E+00 0.10358495E+04</pdfrwt>
<pdfrwt beam="2">  1       -2 0.13594460E+00 0.10358495E+04</pdfrwt>
<totfact> 0.17867507E+00</totfact>
</mgrwt>
</event>
<event>
 4    1  0.5223852E-007  0.1009761E+04  0.7818608E-02  0.9368897E-01
         -2   -1    0    0    0  501 -0.00000000000E+00  0.00000000000E+00  0.10593752575E+04  0.10593752575E+04  0.25500000000E-02 0.  1.
          2   -1    0    0  501    0  0.00000000000E+00 -0.00000000000E+00 -0.10660749173E+04  0.10660749173E+04  0.25500000000E-02 0. -1.
    8880023    1    1    2    0    0  0.30822181968E+01 -0.76537461281E+03  0.56581015576E+03  0.11574796485E+04  0.65864270000E+03 0.  1.
    8880022    1    1    2    0    0 -0.30822181968E+01  0.76537461281E+03 -0.57250981553E+03  0.96797052636E+03  0.15294330000E+03 0.  0.
<mgrwt>
<rscale>  0 0.94680163E+03</rscale>
<asrwt>0</asrwt>
<pdfrwt beam="1">  1        2 0.16401153E+00 0.10097614E+04</pdfrwt>
<pdfrwt beam="2">  1       -2 0.16298081E+00 0.10097614E+04</pdfrwt>
<totfact> 0.54232322E+00</totfact>
</mgrwt>
</event>
<event>
 4    1  0.5223852E-007  0.7047394E+03  0.7818608E-02  0.9978081E-01
         -2   -1    0    0    0  501 -0.00000000000E+00  0.00000000000E+00  0.43073759241E+03  0.43073759242E+03  0.25500000000E-02 0.  1.
          2   -1    0    0  501    0  0.00000000000E+00 -0.00000000000E+00 -0.26791243835E+04  0.26791243835E+04  0.25500000000E-02 0. -1.
    8880023    1    1    2    0    0 -0.48113076155E+02  0.24603361938E+03  0.12725656905E+03  0.71613675411E+03  0.65864270000E+03 0.  1.
    8880022    1    1    2    0    0  0.48113076155E+02 -0.24603361938E+03 -0.23756433601E+04  0.23937252218E+04  0.15294330000E+03 0.  0.
<mgrwt>
<rscale>  0 0.56621897E+03</rscale>
<asrwt>0</asrwt>
<pdfrwt beam="1">  1        2 0.41217297E+00 0.70473940E+03</pdfrwt>
<pdfrwt beam="2">  1       -2 0.66267323E-01 0.70473940E+03</pdfrwt>
<totfact> 0.60886225E+00</totfact>
</mgrwt>
</event>
<event>
 4    1  0.5223852E-007  0.8011127E+03  0.7818608E-02  0.9708395E-01
         -2   -1    0    0    0  501 -0.00000000000E+00  0.00000000000E+00  0.31923818921E+03  0.31923818922E+03  0.25500000000E-02 0.  1.
          2   -1    0    0  501    0  0.00000000000E+00 -0.00000000000E+00 -0.14619585933E+04  0.14619585933E+04  0.25500000000E-02 0. -1.
    8880023    1    1    2    0    0  0.43762617433E+03 -0.12827566951E+03 -0.39770759732E+03  0.89440083580E+03  0.65864270000E+03 0.  1.
    8880022    1    1    2    0    0 -0.43762617433E+03  0.12827566951E+03 -0.74501280672E+03  0.88679594668E+03  0.15294330000E+03 0.  0.
<mgrwt>
<rscale>  0 0.70519128E+03</rscale>
<asrwt>0</asrwt>
<pdfrwt beam="1">  1        2 0.22491670E+00 0.80111268E+03</pdfrwt>
<pdfrwt beam="2">  1       -2 0.49113568E-01 0.80111268E+03</pdfrwt>
<totfact> 0.53182963E+01</totfact>
</mgrwt>
</event>
<event>
 4    1  0.5223852E-007  0.8667683E+03  0.7818608E-02  0.9581635E-01
         -2   -1    0    0    0  501 -0.00000000000E+00  0.00000000000E+00  0.92506787408E+03  0.92506787408E+03  0.25500000000E-02 0.  1.
          2   -1    0    0  501    0  0.00000000000E+00 -0.00000000000E+00 -0.59353542749E+03  0.59353542750E+03  0.25500000000E-02 0. -1.
    8880023    1    1    2    0    0 -0.37502419736E+03 -0.42051626971E+03  0.34927361208E+03  0.93449416480E+03  0.65864270000E+03 0.  0.
    8880022    1    1    2    0    0  0.37502419736E+03  0.42051626971E+03 -0.17741165498E+02  0.58410913677E+03  0.15294330000E+03 0.  0.
<mgrwt>
<rscale>  0 0.78523683E+03</rscale>
<asrwt>0</asrwt>
<pdfrwt beam="1">  1        2 0.91313143E-01 0.86676830E+03</pdfrwt>
<pdfrwt beam="2">  1       -2 0.14231813E+00 0.86676830E+03</pdfrwt>
<totfact> 0.17355292E+01</totfact>
</mgrwt>
</event>
<event>
 4    1  0.5223852E-007  0.6788585E+03  0.7818608E-02  0.1009977E+00
          2   -1    0    0  501    0  0.00000000000E+00  0.00000000000E+00  0.18001134182E+04  0.18001134182E+04  0.25500000000E-02 0. -1.
         -2   -1    0    0    0  501 -0.00000000000E+00 -0.00000000000E+00 -0.11356201703E+03  0.11356201706E+03  0.25500000000E-02 0.  1.
    8880023    1    1    2    0    0  0.26874897781E+02 -0.16222323140E+03  0.13022093054E+04  0.14685359779E+04  0.65864270000E+03 0.  1.
    8880022    1    1    2    0    0 -0.26874897781E+02  0.16222323140E+03  0.38434209577E+03  0.44513945740E+03  0.15294330000E+03 0.  0.
<mgrwt>
<rscale>  0 0.51483833E+03</rscale>
<asrwt>0</asrwt>
<pdfrwt beam="1">  1        2 0.27694051E+00 0.67885849E+03</pdfrwt>
<pdfrwt beam="2">  1       -2 0.17471080E-01 0.67885849E+03</pdfrwt>
<totfact> 0.23884759E+02</totfact>
</mgrwt>
</event>
<event>
 4    1  0.5223852E-007  0.7672303E+03  0.7818608E-02  0.9786736E-01
         -2   -1    0    0    0  501 -0.00000000000E+00  0.00000000000E+00  0.45543030711E+03  0.45543030712E+03  0.25500000000E-02 0.  1.
          2   -1    0    0  501    0  0.00000000000E+00 -0.00000000000E+00 -0.20336421570E+04  0.20336421570E+04  0.25500000000E-02 0. -1.
    8880023    1    1    2    0    0  0.36581485836E+03  0.14495374642E+03  0.86105686013E+02  0.77204695105E+03  0.65864270000E+03 0.  1.
    8880022    1    1    2    0    0 -0.36581485836E+03 -0.14495374642E+03 -0.16643175359E+04  0.17170255130E+04  0.15294330000E+03 0.  0.
<mgrwt>
<rscale>  0 0.66079234E+03</rscale>
<asrwt>0</asrwt>
<pdfrwt beam="1">  1        2 0.31286802E+00 0.76723028E+03</pdfrwt>
<pdfrwt beam="2">  1       -2 0.70066202E-01 0.76723028E+03</pdfrwt>
<totfact> 0.12266163E+01</totfact>
</mgrwt>
</event>
<event>
 4    1  0.5223852E-007  0.7935228E+03  0.7818608E-02  0.9724980E-01
         -2   -1    0    0    0  501 -0.00000000000E+00  0.00000000000E+00  0.11145755932E+04  0.11145755932E+04  0.25500000000E-02 0.  1.
          2   -1    0    0  501    0  0.00000000000E+00 -0.00000000000E+00 -0.65700420506E+03  0.65700420507E+03  0.25500000000E-02 0. -1.
    8880023    1    1    2    0    0 -0.25833429211E+03  0.35934889043E+03  0.84839496241E+03  0.11616593520E+04  0.65864270000E+03 0.  0.
    8880022    1    1    2    0    0  0.25833429211E+03 -0.35934889043E+03 -0.39082357430E+03  0.60992044627E+03  0.15294330000E+03 0.  0.
<mgrwt>
<rscale>  0 0.69548770E+03</rscale>
<asrwt>0</asrwt>
<pdfrwt beam="1">  1        2 0.10107757E+00 0.79352280E+03</pdfrwt>
<pdfrwt beam="2">  1       -2 0.17147317E+00 0.79352280E+03</pdfrwt>
<totfact> 0.93426108E+00</totfact>
</mgrwt>
</event>
<event>
 4    1  0.5223852E-007  0.7040456E+03  0.7818608E-02  0.9980815E-01
          2   -1    0    0  501    0  0.00000000000E+00  0.00000000000E+00  0.18021782899E+04  0.18021782899E+04  0.25500000000E-02 0. -1.
         -2   -1    0    0    0  501 -0.00000000000E+00 -0.00000000000E+00 -0.25746115440E+03  0.25746115441E+03  0.25500000000E-02 0.  1.
    8880023    1    1    2    0    0  0.21484721711E+03 -0.12534205478E+03  0.27347540270E+03  0.75529395572E+03  0.65864270000E+03 0.  1.
    8880022    1    1    2    0    0 -0.21484721711E+03  0.12534205478E+03  0.12712417328E+04  0.13043454886E+04  0.15294330000E+03 0.  0.
<mgrwt>
<rscale>  0 0.56499521E+03</rscale>
<asrwt>0</asrwt>
<pdfrwt beam="1">  1        2 0.27725821E+00 0.70404557E+03</pdfrwt>
<pdfrwt beam="2">  1       -2 0.39609407E-01 0.70404557E+03</pdfrwt>
<totfact> 0.53517672E+01</totfact>
</mgrwt>
</event>
<event>
 4    1  0.5223852E-007  0.8048178E+03  0.7818608E-02  0.9700474E-01
         -2   -1    0    0    0  501 -0.00000000000E+00  0.00000000000E+00  0.36261921937E+03  0.36261921937E+03  0.25500000000E-02 0.  1.
          2   -1    0    0  501    0  0.00000000000E+00 -0.00000000000E+00 -0.33818420621E+04  0.33818420621E+04  0.25500000000E-02 0. -1.
    8880023    1    1    2    0    0  0.23462030127E+03  0.39859105671E+03 -0.13095869520E+03  0.81540290800E+03  0.65864270000E+03 0.  0.
    8880022    1    1    2    0    0 -0.23462030127E+03 -0.39859105671E+03 -0.28882641475E+04  0.29290583735E+04  0.15294330000E+03 0.  0.
<mgrwt>
<rscale>  0 0.70988568E+03</rscale>
<asrwt>0</asrwt>
<pdfrwt beam="1">  1        2 0.52028337E+00 0.80481782E+03</pdfrwt>
<pdfrwt beam="2">  1       -2 0.55787575E-01 0.80481782E+03</pdfrwt>
<totfact> 0.31659422E+00</totfact>
</mgrwt>
</event>
<event>
 4    1  0.6976574E-007  0.7937746E+03  0.7818608E-02  0.9724422E-01
         -2   -1    0    0    0  501 -0.00000000000E+00  0.00000000000E+00  0.79010711979E+03  0.79010711979E+03  0.25500000000E-02 0.  1.
          2   -1    0    0  501    0  0.00000000000E+00 -0.00000000000E+00 -0.26016539138E+04  0.26016539138E+04  0.25500000000E-02 0. -1.
    8880023    1    1    2    0    0  0.38208668575E+03 -0.22422691646E+03  0.56187103680E+03  0.97251077822E+03  0.65864270000E+03 0.  1.
    8880022    1    1    2    0    0 -0.38208668575E+03  0.22422691646E+03 -0.23734178308E+04  0.24192502554E+04  0.15294330000E+03 0.  0.
<mgrwt>
<rscale>  0 0.69581163E+03</rscale>
<asrwt>0</asrwt>
<pdfrwt beam="1">  1        2 0.40025444E+00 0.79377462E+03</pdfrwt>
<pdfrwt beam="2">  1       -2 0.12155494E+00 0.79377462E+03</pdfrwt>
<totfact> 0.16318563E+00</totfact>
</mgrwt>
</event>
<event>
 4    1  0.5223852E-007  0.8004463E+03  0.7818608E-02  0.9709832E-01
         -2   -1    0    0    0  501 -0.00000000000E+00  0.00000000000E+00  0.92076110056E+03  0.92076110057E+03  0.25500000000E-02 0.  1.
          2   -1    0    0  501    0  0.00000000000E+00 -0.00000000000E+00 -0.58053899569E+03  0.58053899569E+03  0.25500000000E-02 0. -1.
    8880023    1    1    2    0    0 -0.76334344846E+02  0.44841623297E+03  0.55653668913E+03  0.97490888949E+03  0.65864270000E+03 0.  0.
    8880022    1    1    2    0    0  0.76334344846E+02 -0.44841623297E+03 -0.21631458425E+03  0.52639120677E+03  0.15294330000E+03 0.  0.
<mgrwt>
<rscale>  0 0.70434409E+03</rscale>
<asrwt>0</asrwt>
<pdfrwt beam="1">  1        2 0.89313692E-01 0.80044629E+03</pdfrwt>
<pdfrwt beam="2">  1       -2 0.14165555E+00 0.80044629E+03</pdfrwt>
<totfact> 0.18142664E+01</totfact>
</mgrwt>
</event>
<event>
 4    1  0.5223852E-007  0.1312130E+04  0.7818608E-02  0.9055155E-01
         -2   -1    0    0    0  501 -0.00000000000E+00  0.00000000000E+00  0.23420238550E+04  0.23420238550E+04  0.25500000000E-02 0.  1.
          2   -1    0    0  501    0  0.00000000000E+00 -0.00000000000E+00 -0.26930814387E+04  0.26930814387E+04  0.25500000000E-02 0. -1.
    8880023    1    1    2    0    0  0.96629487582E+03 -0.59510381485E+03 -0.23728922786E+04  0.27115129189E+04  0.65864270000E+03 0.  0.
    8880022    1    1    2    0    0 -0.96629487582E+03  0.59510381485E+03  0.20218346949E+04  0.23235923748E+04  0.15294330000E+03 0.  0.
<mgrwt>
<rscale>  0 0.12682181E+04</rscale>
<asrwt>0</asrwt>
<pdfrwt beam="1">  1        2 0.41432022E+00 0.13121298E+04</pdfrwt>
<pdfrwt beam="2">  1       -2 0.36031136E+00 0.13121298E+04</pdfrwt>
<totfact> 0.34788385E-02</totfact>
</mgrwt>
</event>
<event>
 4    1  0.5223852E-007  0.7038866E+03  0.7818608E-02  0.9981445E-01
          2   -1    0    0  501    0  0.00000000000E+00  0.00000000000E+00  0.50917255772E+03  0.50917255772E+03  0.25500000000E-02 0. -1.
         -2   -1    0    0    0  501 -0.00000000000E+00 -0.00000000000E+00 -0.58264592389E+03  0.58264592390E+03  0.25500000000E-02 0.  1.
    8880023    1    1    2    0    0 -0.24790292774E+03  0.13794844353E+02 -0.25461899428E+03  0.74852334488E+03  0.65864270000E+03 0.  0.
    8880022    1    1    2    0    0  0.24790292774E+03 -0.13794844353E+02  0.18114562811E+03  0.34329513674E+03  0.15294330000E+03 0.  0.
<mgrwt>
<rscale>  0 0.56471398E+03</rscale>
<asrwt>0</asrwt>
<pdfrwt beam="1">  1        2 0.78334240E-01 0.70388661E+03</pdfrwt>
<pdfrwt beam="2">  1       -2 0.89637834E-01 0.70388661E+03</pdfrwt>
<totfact> 0.65241318E+01</totfact>
</mgrwt>
</event>
<event>
 4    1  0.5223852E-007  0.6740043E+03  0.7818608E-02  0.1012941E+00
         -2   -1    0    0    0  501 -0.00000000000E+00  0.00000000000E+00  0.20844478285E+03  0.20844478286E+03  0.25500000000E-02 0.  1.
          2   -1    0    0  501    0  0.00000000000E+00 -0.00000000000E+00 -0.10144640694E+04  0.10144640694E+04  0.25500000000E-02 0. -1.
    8880023    1    1    2    0    0  0.91093414493E+02  0.11033390907E+03 -0.45185111455E+03  0.81145007095E+03  0.65864270000E+03 0.  1.
    8880022    1    1    2    0    0 -0.91093414493E+02 -0.11033390907E+03 -0.35416817202E+03  0.41145878134E+03  0.15294330000E+03 0.  0.
<mgrwt>
<rscale>  0 0.50322195E+03</rscale>
<asrwt>0</asrwt>
<pdfrwt beam="1">  1        2 0.15607139E+00 0.67400429E+03</pdfrwt>
<pdfrwt beam="2">  1       -2 0.32068429E-01 0.67400429E+03</pdfrwt>
<totfact> 0.22618730E+02</totfact>
</mgrwt>
</event>
<event>
 4    1  0.5223852E-007  0.7106693E+03  0.7818608E-02  0.9955524E-01
          2   -1    0    0  501    0  0.00000000000E+00  0.00000000000E+00  0.38735390707E+04  0.38735390707E+04  0.25500000000E-02 0. -1.
         -2   -1    0    0    0  501 -0.00000000000E+00 -0.00000000000E+00 -0.17166893864E+03  0.17166893865E+03  0.25500000000E-02 0.  1.
    8880023    1    1    2    0    0 -0.17338380038E+03 -0.20292553297E+03  0.60562827525E+03  0.93372186876E+03  0.65864270000E+03 0.  0.
    8880022    1    1    2    0    0  0.17338380038E+03  0.20292553297E+03  0.30962418568E+04  0.31114861406E+04  0.15294330000E+03 0.  0.
<mgrwt>
<rscale>  0 0.57644205E+03</rscale>
<asrwt>0</asrwt>
<pdfrwt beam="1">  1        2 0.59592903E+00 0.71066935E+03</pdfrwt>
<pdfrwt beam="2">  1       -2 0.26410608E-01 0.71066935E+03</pdfrwt>
<totfact> 0.61899055E+00</totfact>
</mgrwt>
</event>
<event>
 4    1  0.5223852E-007  0.8868711E+03  0.7818608E-02  0.9547445E-01
         -2   -1    0    0    0  501 -0.00000000000E+00  0.00000000000E+00  0.47913511130E+03  0.47913511131E+03  0.25500000000E-02 0.  1.
          2   -1    0    0  501    0  0.00000000000E+00 -0.00000000000E+00 -0.20161751047E+04  0.20161751047E+04  0.25500000000E-02 0. -1.
    8880023    1    1    2    0    0  0.59381676760E+03 -0.10570942630E+02 -0.51743607662E+02  0.88837925770E+03  0.65864270000E+03 0.  0.
    8880022    1    1    2    0    0 -0.59381676760E+03  0.10570942630E+02 -0.14852963857E+04  0.16069309583E+04  0.15294330000E+03 0.  0.
<mgrwt>
<rscale>  0 0.80874466E+03</rscale>
<asrwt>0</asrwt>
<pdfrwt beam="1">  1        2 0.31018078E+00 0.88687108E+03</pdfrwt>
<pdfrwt beam="2">  1       -2 0.73713095E-01 0.88687108E+03</pdfrwt>
<totfact> 0.11035641E+01</totfact>
</mgrwt>
</event>
<event>
 4    1  0.5223852E-007  0.6705889E+03  0.7818608E-02  0.1015244E+00
          2   -1    0    0  501    0  0.00000000000E+00  0.00000000000E+00  0.17790746338E+04  0.17790746338E+04  0.25500000000E-02 0. -1.
         -2   -1    0    0    0  501 -0.00000000000E+00 -0.00000000000E+00 -0.39772532395E+03  0.39772532396E+03  0.25500000000E-02 0.  1.
    8880023    1    1    2    0    0 -0.11993378085E+03 -0.38667422810E+02 -0.10372382628E+03  0.67856327618E+03  0.65864270000E+03 0.  1.
    8880022    1    1    2    0    0  0.11993378085E+03  0.38667422810E+02  0.14850731361E+04  0.14982366815E+04  0.15294330000E+03 0.  0.
<mgrwt>
<rscale>  0 0.49442586E+03</rscale>
<asrwt>0</asrwt>
<pdfrwt beam="1">  1        2 0.27370379E+00 0.67058891E+03</pdfrwt>
<pdfrwt beam="2">  1       -2 0.61188512E-01 0.67058891E+03</pdfrwt>
<totfact> 0.22905754E+01</totfact>
</mgrwt>
</event>
<event>
 4    1  0.5223852E-007  0.8377017E+03  0.7818608E-02  0.9634529E-01
         -2   -1    0    0    0  501 -0.00000000000E+00  0.00000000000E+00  0.31934267912E+03  0.31934267913E+03  0.25500000000E-02 0.  1.
          2   -1    0    0  501    0  0.00000000000E+00 -0.00000000000E+00 -0.16544996784E+04  0.16544996784E+04  0.25500000000E-02 0. -1.
    8880023    1    1    2    0    0 -0.10503789870E+03  0.50685399890E+03 -0.48837117952E+03  0.96966517500E+03  0.65864270000E+03 0.  1.
    8880022    1    1    2    0    0  0.10503789870E+03 -0.50685399890E+03 -0.84678581981E+03  0.10041771826E+04  0.15294330000E+03 0. -1.
<mgrwt>
<rscale>  0 0.75052364E+03</rscale>
<asrwt>0</asrwt>
<pdfrwt beam="1">  1        2 0.25453841E+00 0.83770170E+03</pdfrwt>
<pdfrwt beam="2">  1       -2 0.49129644E-01 0.83770170E+03</pdfrwt>
<totfact> 0.41400139E+01</totfact>
</mgrwt>
</event>
<event>
 4    1  0.5223852E-007  0.7726495E+03  0.7818608E-02  0.9773395E-01
          2   -1    0    0  501    0  0.00000000000E+00  0.00000000000E+00  0.86808273970E+03  0.86808273970E+03  0.25500000000E-02 0. -1.
         -2   -1    0    0    0  501 -0.00000000000E+00 -0.00000000000E+00 -0.12707461983E+04  0.12707461983E+04  0.25500000000E-02 0.  1.
    8880023    1    1    2    0    0 -0.39066654670E+03 -0.10274607802E+03 -0.10845625397E+04  0.13316392966E+04  0.65864270000E+03 0.  1.
    8880022    1    1    2    0    0  0.39066654670E+03  0.10274607802E+03  0.68189908118E+03  0.80718964141E+03  0.15294330000E+03 0.  0.
<mgrwt>
<rscale>  0 0.66810047E+03</rscale>
<asrwt>0</asrwt>
<pdfrwt beam="1">  1        2 0.13355119E+00 0.77264954E+03</pdfrwt>
<pdfrwt beam="2">  1       -2 0.19549942E+00 0.77264954E+03</pdfrwt>
<totfact> 0.44740989E+00</totfact>
</mgrwt>
</event>
<event>
 4    1  0.5223852E-007  0.9478458E+03  0.7818608E-02  0.9453220E-01
          2   -1    0    0  501    0  0.00000000000E+00  0.00000000000E+00  0.96698417134E+03  0.96698417134E+03  0.25500000000E-02 0. -1.
         -2   -1    0    0    0  501 -0.00000000000E+00 -0.00000000000E+00 -0.96922283822E+03  0.96922283822E+03  0.25500000000E-02 0.  1.
    8880023    1    1    2    0    0  0.52869344872E+03  0.43021465951E+03 -0.50646857182E+03  0.10746729905E+04  0.65864270000E+03 0.  1.
    8880022    1    1    2    0    0 -0.52869344872E+03 -0.43021465951E+03  0.50422990495E+03  0.86153401908E+03  0.15294330000E+03 0.  0.
<mgrwt>
<rscale>  0 0.87822332E+03</rscale>
<asrwt>0</asrwt>
<pdfrwt beam="1">  1        2 0.14876680E+00 0.94784578E+03</pdfrwt>
<pdfrwt beam="2">  1       -2 0.14911121E+00 0.94784578E+03</pdfrwt>
<totfact> 0.80242285E+00</totfact>
</mgrwt>
</event>
<event>
 4    1  0.5223852E-007  0.7947640E+03  0.7818608E-02  0.9722234E-01
         -2   -1    0    0    0  501 -0.00000000000E+00  0.00000000000E+00  0.20697723459E+04  0.20697723459E+04  0.25500000000E-02 0.  1.
          2   -1    0    0  501    0  0.00000000000E+00 -0.00000000000E+00 -0.47188360869E+03  0.47188360870E+03  0.25500000000E-02 0. -1.
    8880023    1    1    2    0    0 -0.41619913809E+03 -0.15690107576E+03  0.18460419181E+04  0.20098558753E+04  0.65864270000E+03 0.  0.
    8880022    1    1    2    0    0  0.41619913809E+03  0.15690107576E+03 -0.24815318085E+03  0.53180007927E+03  0.15294330000E+03 0.  0.
<mgrwt>
<rscale>  0 0.69708299E+03</rscale>
<asrwt>0</asrwt>
<pdfrwt beam="1">  1        2 0.72597479E-01 0.79476404E+03</pdfrwt>
<pdfrwt beam="2">  1       -2 0.31842651E+00 0.79476404E+03</pdfrwt>
<totfact> 0.16748895E+00</totfact>
</mgrwt>
</event>
<event>
 4    1  0.5223852E-007  0.1076518E+04  0.7818608E-02  0.9287662E-01
         -2   -1    0    0    0  501 -0.00000000000E+00  0.00000000000E+00  0.96683772196E+03  0.96683772197E+03  0.25500000000E-02 0.  1.
          2   -1    0    0  501    0  0.00000000000E+00 -0.00000000000E+00 -0.17869836799E+04  0.17869836799E+04  0.25500000000E-02 0. -1.
    8880023    1    1    2    0    0  0.59089819080E+03 -0.61312324079E+03  0.49081212251E+03  0.11831261666E+04  0.65864270000E+03 0.  0.
    8880022    1    1    2    0    0 -0.59089819080E+03  0.61312324079E+03 -0.13109580804E+04  0.15706952352E+04  0.15294330000E+03 0.  0.
<mgrwt>
<rscale>  0 0.10192670E+04</rscale>
<asrwt>0</asrwt>
<pdfrwt beam="1">  1        2 0.27492057E+00 0.10765180E+04</pdfrwt>
<pdfrwt beam="2">  1       -2 0.14874427E+00 0.10765180E+04</pdfrwt>
<totfact> 0.26501117E+00</totfact>
</mgrwt>
</event>
<event>
 4    1  0.5223852E-007  0.1072320E+04  0.7818608E-02  0.9292519E-01
         -2   -1    0    0    0  501 -0.00000000000E+00  0.00000000000E+00  0.65195083731E+03  0.65195083732E+03  0.25500000000E-02 0.  1.
          2   -1    0    0  501    0  0.00000000000E+00 -0.00000000000E+00 -0.19162726271E+04  0.19162726271E+04  0.25500000000E-02 0. -1.
    8880023    1    1    2    0    0 -0.59628083880E+03 -0.60042436592E+03 -0.41250828685E+02  0.10731132722E+04  0.65864270000E+03 0.  1.
    8880022    1    1    2    0    0  0.59628083880E+03  0.60042436592E+03 -0.12230709611E+04  0.14951101922E+04  0.15294330000E+03 0. -1.
<mgrwt>
<rscale>  0 0.10147454E+04</rscale>
<asrwt>0</asrwt>
<pdfrwt beam="1">  1        2 0.29481117E+00 0.10723201E+04</pdfrwt>
<pdfrwt beam="2">  1       -2 0.10030013E+00 0.10723201E+04</pdfrwt>
<totfact> 0.60463793E+00</totfact>
</mgrwt>
</event>
<event>
 4    1  0.5223852E-007  0.7363093E+03  0.7818608E-02  0.9870831E-01
          2   -1    0    0  501    0  0.00000000000E+00  0.00000000000E+00  0.25494171790E+04  0.25494171790E+04  0.25500000000E-02 0. -1.
         -2   -1    0    0    0  501 -0.00000000000E+00 -0.00000000000E+00 -0.21445709394E+03  0.21445709395E+03  0.25500000000E-02 0.  1.
    8880023    1    1    2    0    0  0.32517890035E+03  0.50988554158E+02  0.49210491492E+03  0.88561763953E+03  0.65864270000E+03 0.  1.
    8880022    1    1    2    0    0 -0.32517890035E+03 -0.50988554158E+02  0.18428551702E+04  0.18782566335E+04  0.15294330000E+03 0.  0.
<mgrwt>
<rscale>  0 0.61695991E+03</rscale>
<asrwt>0</asrwt>
<pdfrwt beam="1">  1        2 0.39221801E+00 0.73630928E+03</pdfrwt>
<pdfrwt beam="2">  1       -2 0.32993401E-01 0.73630928E+03</pdfrwt>
<totfact> 0.29240336E+01</totfact>
</mgrwt>
</event>
<event>
 4    1  0.5223852E-007  0.7425620E+03  0.7818608E-02  0.9852546E-01
         -2   -1    0    0    0  501 -0.00000000000E+00  0.00000000000E+00  0.15214364244E+04  0.15214364244E+04  0.25500000000E-02 0.  1.
          2   -1    0    0  501    0  0.00000000000E+00 -0.00000000000E+00 -0.39042406198E+03  0.39042406198E+03  0.25500000000E-02 0. -1.
    8880023    1    1    2    0    0 -0.27346260828E+03 -0.20689686921E+03  0.13023275575E+04  0.14991515554E+04  0.65864270000E+03 0.  1.
    8880022    1    1    2    0    0  0.27346260828E+03  0.20689686921E+03 -0.17131519513E+03  0.41270893099E+03  0.15294330000E+03 0.  0.
<mgrwt>
<rscale>  0 0.62617271E+03</rscale>
<asrwt>0</asrwt>
<pdfrwt beam="1">  1        2 0.60065240E-01 0.74256200E+03</pdfrwt>
<pdfrwt beam="2">  1       -2 0.23406714E+00 0.74256200E+03</pdfrwt>
<totfact> 0.67593233E+00</totfact>
</mgrwt>
</event>
<event>
 4    1  0.5223852E-007  0.1012051E+04  0.7818608E-02  0.9365959E-01
          2   -1    0    0  501    0  0.00000000000E+00  0.00000000000E+00  0.36694455882E+03  0.36694455883E+03  0.25500000000E-02 0. -1.
         -2   -1    0    0    0  501 -0.00000000000E+00 -0.00000000000E+00 -0.22158088743E+04  0.22158088743E+04  0.25500000000E-02 0.  1.
    8880023    1    1    2    0    0  0.29411385730E+03  0.70988244048E+03 -0.11608248364E+04  0.15400521249E+04  0.65864270000E+03 0. -1.
    8880022    1    1    2    0    0 -0.29411385730E+03 -0.70988244048E+03 -0.68803947903E+03  0.10427013082E+04  0.15294330000E+03 0.  1.
<mgrwt>
<rscale>  0 0.94930868E+03</rscale>
<asrwt>0</asrwt>
<pdfrwt beam="1">  1        2 0.56453010E-01 0.10120505E+04</pdfrwt>
<pdfrwt beam="2">  1       -2 0.34089367E+00 0.10120505E+04</pdfrwt>
<totfact> 0.15765344E+00</totfact>
</mgrwt>
</event>
<event>
 4    1  0.5223852E-007  0.1009916E+04  0.7818608E-02  0.9368698E-01
         -2   -1    0    0    0  501 -0.00000000000E+00  0.00000000000E+00  0.49786932291E+03  0.49786932292E+03  0.25500000000E-02 0.  1.
          2   -1    0    0  501    0  0.00000000000E+00 -0.00000000000E+00 -0.17746698148E+04  0.17746698148E+04  0.25500000000E-02 0. -1.
    8880023    1    1    2    0    0  0.38560805956E+03  0.66138279826E+03 -0.36903451751E+03  0.10752290281E+04  0.65864270000E+03 0.  0.
    8880022    1    1    2    0    0 -0.38560805956E+03 -0.66138279826E+03 -0.90776597438E+03  0.11973101097E+04  0.15294330000E+03 0.  1.
<mgrwt>
<rscale>  0 0.94697141E+03</rscale>
<asrwt>0</asrwt>
<pdfrwt beam="1">  1        2 0.27302612E+00 0.10099163E+04</pdfrwt>
<pdfrwt beam="2">  1       -2 0.76595281E-01 0.10099163E+04</pdfrwt>
<totfact> 0.13564127E+01</totfact>
</mgrwt>
</event>
<event>
 4    1  0.5223852E-007  0.6834820E+03  0.7818608E-02  0.1007419E+00
         -2   -1    0    0    0  501 -0.00000000000E+00  0.00000000000E+00  0.21945899964E+03  0.21945899966E+03  0.25500000000E-02 0.  1.
          2   -1    0    0  501    0  0.00000000000E+00 -0.00000000000E+00 -0.30497115240E+04  0.30497115240E+04  0.25500000000E-02 0. -1.
    8880023    1    1    2    0    0  0.17314323323E+03 -0.57956181792E+02 -0.33246546769E+03  0.76005328214E+03  0.65864270000E+03 0.  0.
    8880022    1    1    2    0    0 -0.17314323323E+03  0.57956181792E+02 -0.24977870567E+04  0.25091172415E+04  0.15294330000E+03 0.  0.
<mgrwt>
<rscale>  0 0.52513519E+03</rscale>
<asrwt>0</asrwt>
<pdfrwt beam="1">  1        2 0.46918636E+00 0.68348204E+03</pdfrwt>
<pdfrwt beam="2">  1       -2 0.33762925E-01 0.68348204E+03</pdfrwt>
<totfact> 0.14298601E+01</totfact>
</mgrwt>
</event>
<event>
 4    1  0.6094811E-007  0.7797094E+03  0.7818608E-02  0.9756520E-01
          2   -1    0    0  501    0  0.00000000000E+00  0.00000000000E+00  0.42742928886E+04  0.42742928886E+04  0.25500000000E-02 0. -1.
         -2   -1    0    0    0  501 -0.00000000000E+00 -0.00000000000E+00 -0.56126193341E+03  0.56126193341E+03  0.25500000000E-02 0.  1.
    8880023    1    1    2    0    0 -0.33504296026E+03  0.24876235069E+03 -0.27201945253E+03  0.82579736083E+03  0.65864270000E+03 0.  1.
    8880022    1    1    2    0    0  0.33504296026E+03 -0.24876235069E+03  0.39850504078E+04  0.40097574612E+04  0.15294330000E+03 0.  0.
<mgrwt>
<rscale>  0 0.67749047E+03</rscale>
<asrwt>0</asrwt>
<pdfrwt beam="1">  1        2 0.65758349E+00 0.77970937E+03</pdfrwt>
<pdfrwt beam="2">  1       -2 0.86347994E-01 0.77970937E+03</pdfrwt>
<totfact> 0.26060022E-01</totfact>
</mgrwt>
</event>
<event>
 4    1  0.5223852E-007  0.1247212E+04  0.7818608E-02  0.9112541E-01
          2   -1    0    0  501    0  0.00000000000E+00  0.00000000000E+00  0.46204102219E+04  0.46204102219E+04  0.25500000000E-02 0. -1.
         -2   -1    0    0    0  501 -0.00000000000E+00 -0.00000000000E+00 -0.81156113055E+03  0.81156113056E+03  0.25500000000E-02 0.  1.
    8880023    1    1    2    0    0  0.45452394352E+02 -0.10581406890E+04  0.41304045032E+04  0.43146007005E+04  0.65864270000E+03 0.  0.
    8880022    1    1    2    0    0 -0.45452394352E+02  0.10581406890E+04 -0.32155541190E+03  0.11173706520E+04  0.15294330000E+03 0.  0.
<mgrwt>
<rscale>  0 0.12003601E+04</rscale>
<asrwt>0</asrwt>
<pdfrwt beam="1">  1        2 0.71083234E+00 0.12472120E+04</pdfrwt>
<pdfrwt beam="2">  1       -2 0.12485556E+00 0.12472120E+04</pdfrwt>
<totfact> 0.45743944E-02</totfact>
</mgrwt>
</event>
<event>
 4    1  0.5223852E-007  0.6940473E+03  0.7818608E-02  0.1002285E+00
         -2   -1    0    0    0  501 -0.00000000000E+00  0.00000000000E+00  0.54417213643E+03  0.54417213643E+03  0.25500000000E-02 0.  1.
          2   -1    0    0  501    0  0.00000000000E+00 -0.00000000000E+00 -0.60225748861E+03  0.60225748861E+03  0.25500000000E-02 0. -1.
    8880023    1    1    2    0    0 -0.21876236477E+03 -0.58752875802E+01  0.25096135385E+03  0.73802662461E+03  0.65864270000E+03 0.  1.
    8880022    1    1    2    0    0  0.21876236477E+03  0.58752875802E+01 -0.30904670603E+03  0.40840300043E+03  0.15294330000E+03 0.  0.
<mgrwt>
<rscale>  0 0.54659439E+03</rscale>
<asrwt>0</asrwt>
<pdfrwt beam="1">  1        2 0.92654999E-01 0.69404733E+03</pdfrwt>
<pdfrwt beam="2">  1       -2 0.83718790E-01 0.69404733E+03</pdfrwt>
<totfact> 0.62565524E+01</totfact>
</mgrwt>
</event>
<event>
 4    1  0.5223852E-007  0.6647841E+03  0.7818608E-02  0.1019715E+00
          2   -1    0    0  501    0  0.00000000000E+00  0.00000000000E+00  0.72200799394E+03  0.72200799394E+03  0.25500000000E-02 0. -1.
         -2   -1    0    0    0  501 -0.00000000000E+00 -0.00000000000E+00 -0.36010453031E+03  0.36010453032E+03  0.25500000000E-02 0.  1.
    8880023    1    1    2    0    0 -0.90117924867E+02  0.25423194245E+01 -0.15576846779E+02  0.66496657675E+03  0.65864270000E+03 0.  1.
    8880022    1    1    2    0    0  0.90117924867E+02 -0.25423194245E+01  0.37748031040E+03  0.41714594752E+03  0.15294330000E+03 0.  0.
<mgrwt>
<rscale>  0 0.47789517E+03</rscale>
<asrwt>0</asrwt>
<pdfrwt beam="1">  1        2 0.11107815E+00 0.66478411E+03</pdfrwt>
<pdfrwt beam="2">  1       -2 0.55400697E-01 0.66478411E+03</pdfrwt>
<totfact> 0.12263933E+02</totfact>
</mgrwt>
</event>
<event>
 4    1  0.5223852E-007  0.6773762E+03  0.7818608E-02  0.1010849E+00
         -2   -1    0    0    0  501 -0.00000000000E+00  0.00000000000E+00  0.15338458940E+03  0.15338458943E+03  0.25500000000E-02 0.  1.
          2   -1    0    0  501    0  0.00000000000E+00 -0.00000000000E+00 -0.17447176041E+04  0.17447176041E+04  0.25500000000E-02 0. -1.
    8880023    1    1    2    0    0 -0.15368356534E+03 -0.37545674749E+02 -0.67709453029E+03  0.95775546209E+03  0.65864270000E+03 0.  1.
    8880022    1    1    2    0    0  0.15368356534E+03  0.37545674749E+02 -0.91423848437E+03  0.94034673141E+03  0.15294330000E+03 0.  0.
<mgrwt>
<rscale>  0 0.51138798E+03</rscale>
<asrwt>0</asrwt>
<pdfrwt beam="1">  1        2 0.26841808E+00 0.67737620E+03</pdfrwt>
<pdfrwt beam="2">  1       -2 0.23597630E-01 0.67737620E+03</pdfrwt>
<totfact> 0.15125591E+02</totfact>
</mgrwt>
</event>
<event>
 4    1  0.5223852E-007  0.1373711E+04  0.7818608E-02  0.9004384E-01
         -2   -1    0    0    0  501 -0.00000000000E+00  0.00000000000E+00  0.77737694084E+03  0.77737694085E+03  0.25500000000E-02 0.  1.
          2   -1    0    0  501    0  0.00000000000E+00 -0.00000000000E+00 -0.28623856531E+04  0.28623856531E+04  0.25500000000E-02 0. -1.
    8880023    1    1    2    0    0  0.95091289780E+03 -0.74096924549E+03 -0.18742896646E+03  0.13864380930E+04  0.65864270000E+03 0.  0.
    8880022    1    1    2    0    0 -0.95091289780E+03  0.74096924549E+03 -0.18975797458E+04  0.22533245010E+04  0.15294330000E+03 0.  0.
<mgrwt>
<rscale>  0 0.13322373E+04</rscale>
<asrwt>0</asrwt>
<pdfrwt beam="1">  1        2 0.44036702E+00 0.13737107E+04</pdfrwt>
<pdfrwt beam="2">  1       -2 0.11959645E+00 0.13737107E+04</pdfrwt>
<totfact> 0.10947706E+00</totfact>
</mgrwt>
</event>
<event>
 4    1  0.5223852E-007  0.9935822E+03  0.7818608E-02  0.9390003E-01
          2   -1    0    0  501    0  0.00000000000E+00  0.00000000000E+00  0.10750657386E+04  0.10750657386E+04  0.25500000000E-02 0. -1.
         -2   -1    0    0    0  501 -0.00000000000E+00 -0.00000000000E+00 -0.91783600140E+03  0.91783600141E+03  0.25500000000E-02 0.  1.
    8880023    1    1    2    0    0 -0.11055271737E+03 -0.73564488998E+03 -0.37878129973E+03  0.10633347482E+04  0.65864270000E+03 0.  1.
    8880022    1    1    2    0    0  0.11055271737E+03  0.73564488998E+03  0.53601103690E+03  0.92956699176E+03  0.15294330000E+03 0. -1.
<mgrwt>
<rscale>  0 0.92903007E+03</rscale>
<asrwt>0</asrwt>
<pdfrwt beam="1">  1        2 0.16539473E+00 0.99358216E+03</pdfrwt>
<pdfrwt beam="2">  1       -2 0.14120554E+00 0.99358216E+03</pdfrwt>
<totfact> 0.78669543E+00</totfact>
</mgrwt>
</event>
<event>
 4    1  0.5223852E-007  0.6904155E+03  0.7818608E-02  0.1003956E+00
          2   -1    0    0  501    0  0.00000000000E+00  0.00000000000E+00  0.13386882112E+04  0.13386882112E+04  0.25500000000E-02 0. -1.
         -2   -1    0    0    0  501 -0.00000000000E+00 -0.00000000000E+00 -0.17864234977E+03  0.17864234979E+03  0.25500000000E-02 0.  1.
    8880023    1    1    2    0    0 -0.14084830720E+03  0.15174006982E+03  0.99671673081E+03  0.12124841204E+04  0.65864270000E+03 0. -1.
    8880022    1    1    2    0    0  0.14084830720E+03 -0.15174006982E+03  0.16332913062E+03  0.30484644061E+03  0.15294330000E+03 0.  1.
<mgrwt>
<rscale>  0 0.53949220E+03</rscale>
<asrwt>0</asrwt>
<pdfrwt beam="1">  1        2 0.20595204E+00 0.69041546E+03</pdfrwt>
<pdfrwt beam="2">  1       -2 0.27483438E-01 0.69041546E+03</pdfrwt>
<totfact> 0.19257144E+02</totfact>
</mgrwt>
</event>
<event>
 4    1  0.5223852E-007  0.1002316E+04  0.7818608E-02  0.9378534E-01
         -2   -1    0    0    0  501 -0.00000000000E+00  0.00000000000E+00  0.14628355629E+04  0.14628355629E+04  0.25500000000E-02 0.  1.
          2   -1    0    0  501    0  0.00000000000E+00 -0.00000000000E+00 -0.62872759072E+03  0.62872759072E+03  0.25500000000E-02 0. -1.
    8880023    1    1    2    0    0  0.28981005270E+03 -0.69773751657E+03  0.85938087860E+03  0.13202928499E+04  0.65864270000E+03 0.  0.
    8880022    1    1    2    0    0 -0.28981005270E+03  0.69773751657E+03 -0.25272906393E+02  0.77127030377E+03  0.15294330000E+03 0.  0.
<mgrwt>
<rscale>  0 0.93863531E+03</rscale>
<asrwt>0</asrwt>
<pdfrwt beam="1">  1        2 0.96727323E-01 0.10023162E+04</pdfrwt>
<pdfrwt beam="2">  1       -2 0.22505162E+00 0.10023162E+04</pdfrwt>
<totfact> 0.42839802E+00</totfact>
</mgrwt>
</event>
<event>
 4    1  0.5223852E-007  0.7171109E+03  0.7818608E-02  0.9932486E-01
         -2   -1    0    0    0  501 -0.00000000000E+00  0.00000000000E+00  0.18801811154E+03  0.18801811155E+03  0.25500000000E-02 0.  1.
          2   -1    0    0  501    0  0.00000000000E+00 -0.00000000000E+00 -0.27210231914E+04  0.27210231914E+04  0.25500000000E-02 0. -1.
    8880023    1    1    2    0    0 -0.27392195741E+03  0.73516393419E+02 -0.55990510649E+03  0.90980318387E+03  0.65864270000E+03 0.  1.
    8880022    1    1    2    0    0  0.27392195741E+03 -0.73516393419E+02 -0.19730999734E+04  0.19992381191E+04  0.15294330000E+03 0.  0.
<mgrwt>
<rscale>  0 0.58712407E+03</rscale>
<asrwt>0</asrwt>
<pdfrwt beam="1">  1        2 0.41861892E+00 0.71711094E+03</pdfrwt>
<pdfrwt beam="2">  1       -2 0.28925865E-01 0.71711094E+03</pdfrwt>
<totfact> 0.29843908E+01</totfact>
</mgrwt>
</event>
<event>
 4    1  0.5223852E-007  0.9388513E+03  0.7818608E-02  0.9466339E-01
          2   -1    0    0  501    0  0.00000000000E+00  0.00000000000E+00  0.92612297380E+03  0.92612297380E+03  0.25500000000E-02 0. -1.
         -2   -1    0    0    0  501 -0.00000000000E+00 -0.00000000000E+00 -0.10383152178E+04  0.10383152178E+04  0.25500000000E-02 0.  1.
    8880023    1    1    2    0    0 -0.63794460910E+03  0.20163898942E+03 -0.60732724396E+03  0.11181628655E+04  0.65864270000E+03 0.  1.
    8880022    1    1    2    0    0  0.63794460910E+03 -0.20163898942E+03  0.49513499996E+03  0.84627532608E+03  0.15294330000E+03 0.  0.
<mgrwt>
<rscale>  0 0.86811630E+03</rscale>
<asrwt>0</asrwt>
<pdfrwt beam="1">  1        2 0.14248046E+00 0.93885133E+03</pdfrwt>
<pdfrwt beam="2">  1       -2 0.15974080E+00 0.93885133E+03</pdfrwt>
<totfact> 0.71041550E+00</totfact>
</mgrwt>
</event>
<event>
 4    1  0.5223852E-007  0.7296143E+03  0.7818608E-02  0.9891303E-01
         -2   -1    0    0    0  501 -0.00000000000E+00  0.00000000000E+00  0.46457445343E+03  0.46457445344E+03  0.25500000000E-02 0.  1.
          2   -1    0    0  501    0  0.00000000000E+00 -0.00000000000E+00 -0.71190115658E+03  0.71190115658E+03  0.25500000000E-02 0. -1.
    8880023    1    1    2    0    0 -0.27681035251E+03  0.14799600130E+03  0.30516602316E+02  0.73025218722E+03  0.65864270000E+03 0.  1.
    8880022    1    1    2    0    0  0.27681035251E+03 -0.14799600130E+03 -0.27784330546E+03  0.44622342281E+03  0.15294330000E+03 0. -1.
<mgrwt>
<rscale>  0 0.60684624E+03</rscale>
<asrwt>0</asrwt>
<pdfrwt beam="1">  1        2 0.10952325E+00 0.72961428E+03</pdfrwt>
<pdfrwt beam="2">  1       -2 0.71472993E-01 0.72961428E+03</pdfrwt>
<totfact> 0.72219624E+01</totfact>
</mgrwt>
</event>
<event>
 4    1  0.5223852E-007  0.7704435E+03  0.7818608E-02  0.9778784E-01
          2   -1    0    0  501    0  0.00000000000E+00  0.00000000000E+00  0.12298897807E+04  0.12298897807E+04  0.25500000000E-02 0. -1.
         -2   -1    0    0    0  501 -0.00000000000E+00 -0.00000000000E+00 -0.98330919365E+03  0.98330919365E+03  0.25500000000E-02 0.  1.
    8880023    1    1    2    0    0 -0.29354379697E+03  0.27130235725E+03 -0.78283103483E+03  0.10983658612E+04  0.65864270000E+03 0.  1.
    8880022    1    1    2    0    0  0.29354379697E+03 -0.27130235725E+03  0.10294116219E+04  0.11148331132E+04  0.15294330000E+03 0.  0.
<mgrwt>
<rscale>  0 0.66513648E+03</rscale>
<asrwt>0</asrwt>
<pdfrwt beam="1">  1        2 0.18921381E+00 0.77044347E+03</pdfrwt>
<pdfrwt beam="2">  1       -2 0.15127834E+00 0.77044347E+03</pdfrwt>
<totfact> 0.54265385E+00</totfact>
</mgrwt>
</event>
<event>
 4    1  0.5223852E-007  0.1074502E+04  0.7818608E-02  0.9289991E-01
          2   -1    0    0  501    0  0.00000000000E+00  0.00000000000E+00  0.14194211818E+04  0.14194211818E+04  0.25500000000E-02 0. -1.
         -2   -1    0    0    0  501 -0.00000000000E+00 -0.00000000000E+00 -0.14611340334E+04  0.14611340334E+04  0.25500000000E-02 0.  1.
    8880023    1    1    2    0    0 -0.64588430188E+03 -0.55097803648E+03 -0.10848715084E+04  0.15269249242E+04  0.65864270000E+03 0.  1.
    8880022    1    1    2    0    0  0.64588430188E+03  0.55097803648E+03  0.10431586569E+04  0.13536302909E+04  0.15294330000E+03 0.  0.
<mgrwt>
<rscale>  0 0.10170955E+04</rscale>
<asrwt>0</asrwt>
<pdfrwt beam="1">  1        2 0.21837249E+00 0.10745015E+04</pdfrwt>
<pdfrwt beam="2">  1       -2 0.22478985E+00 0.10745015E+04</pdfrwt>
<totfact> 0.12811119E+00</totfact>
</mgrwt>
</event>
<event>
 4    1  0.5223852E-007  0.1087880E+04  0.7818608E-02  0.9274672E-01
          2   -1    0    0  501    0  0.00000000000E+00  0.00000000000E+00  0.32902439727E+04  0.32902439727E+04  0.25500000000E-02 0. -1.
         -2   -1    0    0    0  501 -0.00000000000E+00 -0.00000000000E+00 -0.65271443502E+03  0.65271443503E+03  0.25500000000E-02 0.  1.
    8880023    1    1    2    0    0 -0.36459601596E+03  0.78532956229E+03 -0.76005528956E+02  0.10905318991E+04  0.65864270000E+03 0.  0.
    8880022    1    1    2    0    0  0.36459601596E+03 -0.78532956229E+03  0.27135350666E+04  0.28524265086E+04  0.15294330000E+03 0.  0.
<mgrwt>
<rscale>  0 0.10314845E+04</rscale>
<asrwt>0</asrwt>
<pdfrwt beam="1">  1        2 0.50619138E+00 0.10878800E+04</pdfrwt>
<pdfrwt beam="2">  1       -2 0.10041761E+00 0.10878800E+04</pdfrwt>
<totfact> 0.93636185E-01</totfact>
</mgrwt>
</event>
<event>
 4    1  0.5223852E-007  0.8271279E+03  0.7818608E-02  0.9654947E-01
          2   -1    0    0  501    0  0.00000000000E+00  0.00000000000E+00  0.36114928189E+04  0.36114928189E+04  0.25500000000E-02 0. -1.
         -2   -1    0    0    0  501 -0.00000000000E+00 -0.00000000000E+00 -0.19191272601E+03  0.19191272603E+03  0.25500000000E-02 0.  1.
    8880023    1    1    2    0    0  0.40990404551E+03 -0.28689561596E+03  0.30568530137E+04  0.31667792747E+04  0.65864270000E+03 0. -1.
    8880022    1    1    2    0    0 -0.40990404551E+03  0.28689561596E+03  0.36272707922E+03  0.63662627027E+03  0.15294330000E+03 0.  0.
<mgrwt>
<rscale>  0 0.73763794E+03</rscale>
<asrwt>0</asrwt>
<pdfrwt beam="1">  1        2 0.55561425E+00 0.82712794E+03</pdfrwt>
<pdfrwt beam="2">  1       -2 0.29525036E-01 0.82712794E+03</pdfrwt>
<totfact> 0.76523223E+00</totfact>
</mgrwt>
</event>
<event>
 4    1  0.5223852E-007  0.6682773E+03  0.7818608E-02  0.1016929E+00
         -2   -1    0    0    0  501 -0.00000000000E+00  0.00000000000E+00  0.11400610322E+04  0.11400610322E+04  0.25500000000E-02 0.  1.
          2   -1    0    0  501    0  0.00000000000E+00 -0.00000000000E+00 -0.12432251454E+04  0.12432251454E+04  0.25500000000E-02 0. -1.
    8880023    1    1    2    0    0  0.22693683299E+02 -0.11076707974E+03  0.10335440154E+04  0.12307752789E+04  0.65864270000E+03 0.  1.
    8880022    1    1    2    0    0 -0.22693683299E+02  0.11076707974E+03 -0.11367081285E+04  0.11525108988E+04  0.15294330000E+03 0.  0.
<mgrwt>
<rscale>  0 0.48811270E+03</rscale>
<asrwt>0</asrwt>
<pdfrwt beam="1">  1        2 0.19126541E+00 0.66827730E+03</pdfrwt>
<pdfrwt beam="2">  1       -2 0.17539400E+00 0.66827730E+03</pdfrwt>
<totfact> 0.36176898E+00</totfact>
</mgrwt>
</event>
<event>
 4    1  0.5223852E-007  0.7343709E+03  0.7818608E-02  0.9876658E-01
          2   -1    0    0  501    0  0.00000000000E+00  0.00000000000E+00  0.16690418645E+04  0.16690418645E+04  0.25500000000E-02 0. -1.
         -2   -1    0    0    0  501 -0.00000000000E+00 -0.00000000000E+00 -0.96644242754E+03  0.96644242755E+03  0.25500000000E-02 0.  1.
    8880023    1    1    2    0    0  0.31009479869E+03 -0.96600079402E+02 -0.80271216953E+03  0.10879556024E+04  0.65864270000E+03 0.  1.
    8880022    1    1    2    0    0 -0.31009479869E+03  0.96600079402E+02  0.15053116064E+04  0.15475286896E+04  0.15294330000E+03 0.  0.
<mgrwt>
<rscale>  0 0.61405973E+03</rscale>
<asrwt>0</asrwt>
<pdfrwt beam="1">  1        2 0.25677567E+00 0.73437086E+03</pdfrwt>
<pdfrwt beam="2">  1       -2 0.14868345E+00 0.73437086E+03</pdfrwt>
<totfact> 0.32319653E+00</totfact>
</mgrwt>
</event>
<event>
 4    1  0.5223852E-007  0.1191625E+04  0.7818608E-02  0.9165307E-01
         -2   -1    0    0    0  501 -0.00000000000E+00  0.00000000000E+00  0.11952984804E+04  0.11952984804E+04  0.25500000000E-02 0.  1.
          2   -1    0    0  501    0  0.00000000000E+00 -0.00000000000E+00 -0.16972129416E+04  0.16972129416E+04  0.25500000000E-02 0. -1.
    8880023    1    1    2    0    0  0.87501233350E+03 -0.46958726495E+03  0.65533572609E+03  0.13599389337E+04  0.65864270000E+03 0.  0.
    8880022    1    1    2    0    0 -0.87501233350E+03  0.46958726495E+03 -0.11572501872E+04  0.15325724884E+04  0.15294330000E+03 0.  0.
<mgrwt>
<rscale>  0 0.11418803E+04</rscale>
<asrwt>0</asrwt>
<pdfrwt beam="1">  1        2 0.26110968E+00 0.11916245E+04</pdfrwt>
<pdfrwt beam="2">  1       -2 0.18389207E+00 0.11916245E+04</pdfrwt>
<totfact> 0.16298811E+00</totfact>
</mgrwt>
</event>
<event>
 4    1  0.5223852E-007  0.1022839E+04  0.7818608E-02  0.9352269E-01
          2   -1    0    0  501    0  0.00000000000E+00  0.00000000000E+00  0.63447685441E+03  0.63447685441E+03  0.25500000000E-02 0. -1.
         -2   -1    0    0    0  501 -0.00000000000E+00 -0.00000000000E+00 -0.17206551691E+04  0.17206551691E+04  0.25500000000E-02 0.  1.
    8880023    1    1    2    0    0 -0.28211268161E+03 -0.72993266939E+03 -0.11692069934E+04  0.15534620905E+04  0.65864270000E+03 0.  0.
    8880022    1    1    2    0    0  0.28211268161E+03  0.72993266939E+03  0.83028678715E+02  0.80166993299E+03  0.15294330000E+03 0.  0.
<mgrwt>
<rscale>  0 0.96110065E+03</rscale>
<asrwt>0</asrwt>
<pdfrwt beam="1">  1        2 0.97611824E-01 0.10228389E+04</pdfrwt>
<pdfrwt beam="2">  1       -2 0.26471618E+00 0.10228389E+04</pdfrwt>
<totfact> 0.24138086E+00</totfact>
</mgrwt>
</event>
<event>
 4    1  0.5223852E-007  0.1038115E+04  0.7818608E-02  0.9333307E-01
          2   -1    0    0  501    0  0.00000000000E+00  0.00000000000E+00  0.34144434648E+04  0.34144434648E+04  0.25500000000E-02 0. -1.
         -2   -1    0    0    0  501 -0.00000000000E+00 -0.00000000000E+00 -0.43277059225E+03  0.43277059226E+03  0.25500000000E-02 0.  1.
    8880023    1    1    2    0    0 -0.75044898471E+03  0.28407560130E+03  0.35607957337E+03  0.10974859884E+04  0.65864270000E+03 0.  0.
    8880022    1    1    2    0    0  0.75044898471E+03 -0.28407560130E+03  0.26255932992E+04  0.27497280687E+04  0.15294330000E+03 0.  0.
<mgrwt>
<rscale>  0 0.97773541E+03</rscale>
<asrwt>0</asrwt>
<pdfrwt beam="1">  1        2 0.52529898E+00 0.10381150E+04</pdfrwt>
<pdfrwt beam="2">  1       -2 0.66580092E-01 0.10381150E+04</pdfrwt>
<totfact> 0.19845860E+00</totfact>
</mgrwt>
</event>
<event>
 4    1  0.5223852E-007  0.9784288E+03  0.7818608E-02  0.9410340E-01
          2   -1    0    0  501    0  0.00000000000E+00  0.00000000000E+00  0.11350098018E+04  0.11350098018E+04  0.25500000000E-02 0. -1.
         -2   -1    0    0    0  501 -0.00000000000E+00 -0.00000000000E+00 -0.83885016236E+03  0.83885016236E+03  0.25500000000E-02 0.  1.
    8880023    1    1    2    0    0  0.47463168275E+03 -0.54611127385E+03 -0.30062048504E+03  0.10235700464E+04  0.65864270000E+03 0.  0.
    8880022    1    1    2    0    0 -0.47463168275E+03  0.54611127385E+03  0.59678012443E+03  0.95028991767E+03  0.15294330000E+03 0.  0.
<mgrwt>
<rscale>  0 0.91229618E+03</rscale>
<asrwt>0</asrwt>
<pdfrwt beam="1">  1        2 0.17461689E+00 0.97842882E+03</pdfrwt>
<pdfrwt beam="2">  1       -2 0.12905387E+00 0.97842882E+03</pdfrwt>
<totfact> 0.91186185E+00</totfact>
</mgrwt>
</event>
<event>
 4    1  0.5223852E-007  0.6704779E+03  0.7818608E-02  0.1015323E+00
         -2   -1    0    0    0  501 -0.00000000000E+00  0.00000000000E+00  0.38995894302E+03  0.38995894303E+03  0.25500000000E-02 0.  1.
          2   -1    0    0  501    0  0.00000000000E+00 -0.00000000000E+00 -0.52225152303E+03  0.52225152304E+03  0.25500000000E-02 0. -1.
    8880023    1    1    2    0    0  0.26188196642E+02 -0.12265627497E+03  0.66203615380E+01  0.67051056583E+03  0.65864270000E+03 0.  0.
    8880022    1    1    2    0    0 -0.26188196642E+02  0.12265627497E+03 -0.13891294155E+03  0.24169990024E+03  0.15294330000E+03 0.  0.
<mgrwt>
<rscale>  0 0.49412977E+03</rscale>
<asrwt>0</asrwt>
<pdfrwt beam="1">  1        2 0.80346388E-01 0.67047788E+03</pdfrwt>
<pdfrwt beam="2">  1       -2 0.59993684E-01 0.67047788E+03</pdfrwt>
<totfact> 0.15374871E+02</totfact>
</mgrwt>
</event>
<event>
 4    1  0.5223852E-007  0.8035568E+03  0.7818608E-02  0.9703158E-01
          2   -1    0    0  501    0  0.00000000000E+00  0.00000000000E+00  0.28033317284E+04  0.28033317284E+04  0.25500000000E-02 0. -1.
         -2   -1    0    0    0  501 -0.00000000000E+00 -0.00000000000E+00 -0.35038588351E+03  0.35038588352E+03  0.25500000000E-02 0.  1.
    8880023    1    1    2    0    0 -0.43865539864E+03  0.13955187036E+03  0.17199076378E+03  0.82175684504E+03  0.65864270000E+03 0.  1.
    8880022    1    1    2    0    0  0.43865539864E+03 -0.13955187036E+03  0.22809550811E+04  0.23319607669E+04  0.15294330000E+03 0.  0.
<mgrwt>
<rscale>  0 0.70829095E+03</rscale>
<asrwt>0</asrwt>
<pdfrwt beam="1">  1        2 0.43128180E+00 0.80355677E+03</pdfrwt>
<pdfrwt beam="2">  1       -2 0.53905521E-01 0.80355677E+03</pdfrwt>
<totfact> 0.78227732E+00</totfact>
</mgrwt>
</event>
<event>
 4    1  0.5223852E-007  0.8361087E+03  0.7818608E-02  0.9637562E-01
         -2   -1    0    0    0  501 -0.00000000000E+00  0.00000000000E+00  0.10627922693E+04  0.10627922693E+04  0.25500000000E-02 0.  1.
          2   -1    0    0  501    0  0.00000000000E+00 -0.00000000000E+00 -0.45793127238E+03  0.45793127239E+03  0.25500000000E-02 0. -1.
    8880023    1    1    2    0    0  0.84397106012E+02 -0.50807945502E+03  0.23517800769E+03  0.86855426179E+03  0.65864270000E+03 0. -1.
    8880022    1    1    2    0    0 -0.84397106012E+02  0.50807945502E+03  0.36968298928E+03  0.65216927994E+03  0.15294330000E+03 0.  0.
<mgrwt>
<rscale>  0 0.74859213E+03</rscale>
<asrwt>0</asrwt>
<pdfrwt beam="1">  1        2 0.70450965E-01 0.83610873E+03</pdfrwt>
<pdfrwt beam="2">  1       -2 0.16350650E+00 0.83610873E+03</pdfrwt>
<totfact> 0.16295373E+01</totfact>
</mgrwt>
</event>
<event>
 4    1  0.5223852E-007  0.1355415E+04  0.7818608E-02  0.9019124E-01
         -2   -1    0    0    0  501 -0.00000000000E+00  0.00000000000E+00  0.19753298924E+04  0.19753298924E+04  0.25500000000E-02 0.  1.
          2   -1    0    0  501    0  0.00000000000E+00 -0.00000000000E+00 -0.14250184197E+04  0.14250184197E+04  0.25500000000E-02 0. -1.
    8880023    1    1    2    0    0  0.87668557192E+03  0.79671954476E+03  0.13890869157E+04  0.19408019710E+04  0.65864270000E+03 0.  0.
    8880022    1    1    2    0    0 -0.87668557192E+03 -0.79671954476E+03 -0.83877544304E+03  0.14595463411E+04  0.15294330000E+03 0.  0.
<mgrwt>
<rscale>  0 0.13132487E+04</rscale>
<asrwt>0</asrwt>
<pdfrwt beam="1">  1        2 0.21923360E+00 0.13554150E+04</pdfrwt>
<pdfrwt beam="2">  1       -2 0.30389691E+00 0.13554150E+04</pdfrwt>
<totfact> 0.40317259E-01</totfact>
</mgrwt>
</event>
<event>
 4    1  0.5223852E-007  0.8656206E+03  0.7818608E-02  0.9583643E-01
         -2   -1    0    0    0  501 -0.00000000000E+00  0.00000000000E+00  0.28115736126E+03  0.28115736128E+03  0.25500000000E-02 0.  1.
          2   -1    0    0  501    0  0.00000000000E+00 -0.00000000000E+00 -0.24746167404E+04  0.24746167404E+04  0.25500000000E-02 0. -1.
    8880023    1    1    2    0    0  0.28661035411E+02  0.56095213716E+03 -0.19331201178E+04  0.21180775131E+04  0.65864270000E+03 0. -1.
    8880022    1    1    2    0    0 -0.28661035411E+02 -0.56095213716E+03 -0.26033926130E+03  0.63769658861E+03  0.15294330000E+03 0.  0.
<mgrwt>
<rscale>  0 0.78388343E+03</rscale>
<asrwt>0</asrwt>
<pdfrwt beam="1">  1        2 0.38071025E+00 0.86562056E+03</pdfrwt>
<pdfrwt beam="2">  1       -2 0.43254980E-01 0.86562056E+03</pdfrwt>
<totfact> 0.18765992E+01</totfact>
</mgrwt>
</event>
<event>
 4    1  0.5223852E-007  0.7916191E+03  0.7818608E-02  0.9729219E-01
          2   -1    0    0  501    0  0.00000000000E+00  0.00000000000E+00  0.20851310175E+04  0.20851310175E+04  0.25500000000E-02 0. -1.
         -2   -1    0    0    0  501 -0.00000000000E+00 -0.00000000000E+00 -0.26484223155E+03  0.26484223156E+03  0.25500000000E-02 0.  1.
    8880023    1    1    2    0    0 -0.41989088432E+03 -0.12861684776E+03  0.46719361774E+03  0.91920113739E+03  0.65864270000E+03 0.  0.
    8880022    1    1    2    0    0  0.41989088432E+03  0.12861684776E+03  0.13530951682E+04  0.14307721117E+04  0.15294330000E+03 0.  0.
<mgrwt>
<rscale>  0 0.69303440E+03</rscale>
<asrwt>0</asrwt>
<pdfrwt beam="1">  1        2 0.32078940E+00 0.79161913E+03</pdfrwt>
<pdfrwt beam="2">  1       -2 0.40744958E-01 0.79161913E+03</pdfrwt>
<totfact> 0.35121154E+01</totfact>
</mgrwt>
</event>
<event>
 4    1  0.5223852E-007  0.7114006E+03  0.7818608E-02  0.9952836E-01
         -2   -1    0    0    0  501 -0.00000000000E+00  0.00000000000E+00  0.17675679644E+04  0.17675679644E+04  0.25500000000E-02 0.  1.
          2   -1    0    0  501    0  0.00000000000E+00 -0.00000000000E+00 -0.60811332668E+03  0.60811332669E+03  0.25500000000E-02 0. -1.
    8880023    1    1    2    0    0  0.25026863955E+03  0.98214802549E+02  0.16493954341E+04  0.17962728199E+04  0.65864270000E+03 0.  1.
    8880022    1    1    2    0    0 -0.25026863955E+03 -0.98214802549E+02 -0.48994079642E+03  0.57940847111E+03  0.15294330000E+03 0.  0.
<mgrwt>
<rscale>  0 0.57767539E+03</rscale>
<asrwt>0</asrwt>
<pdfrwt beam="1">  1        2 0.93555898E-01 0.71140055E+03</pdfrwt>
<pdfrwt beam="2">  1       -2 0.27193353E+00 0.71140055E+03</pdfrwt>
<totfact> 0.23970079E+00</totfact>
</mgrwt>
</event>
<event>
 4    1  0.5223852E-007  0.1072125E+04  0.7818608E-02  0.9292745E-01
         -2   -1    0    0    0  501 -0.00000000000E+00  0.00000000000E+00  0.47238368646E+03  0.47238368647E+03  0.25500000000E-02 0.  1.
          2   -1    0    0  501    0  0.00000000000E+00 -0.00000000000E+00 -0.26120787762E+04  0.26120787762E+04  0.25500000000E-02 0. -1.
    8880023    1    1    2    0    0 -0.83416141846E+03  0.14076895850E+03 -0.19169649860E+04  0.21964075523E+04  0.65864270000E+03 0. -1.
    8880022    1    1    2    0    0  0.83416141846E+03 -0.14076895850E+03 -0.22273010368E+03  0.88805491037E+03  0.15294330000E+03 0.  0.
<mgrwt>
<rscale>  0 0.10145348E+04</rscale>
<asrwt>0</asrwt>
<pdfrwt beam="1">  1        2 0.40185827E+00 0.10721247E+04</pdfrwt>
<pdfrwt beam="2">  1       -2 0.72674414E-01 0.10721247E+04</pdfrwt>
<totfact> 0.51444351E+00</totfact>
</mgrwt>
</event>
<event>
 4    1  0.5223852E-007  0.9357525E+03  0.7818608E-02  0.9470916E-01
         -2   -1    0    0    0  501 -0.00000000000E+00  0.00000000000E+00  0.48586406952E+03  0.48586406953E+03  0.25500000000E-02 0.  1.
          2   -1    0    0  501    0  0.00000000000E+00 -0.00000000000E+00 -0.15326932785E+04  0.15326932785E+04  0.25500000000E-02 0. -1.
    8880023    1    1    2    0    0 -0.62052267675E+03 -0.23827323638E+03 -0.24780551525E+03  0.96800842310E+03  0.65864270000E+03 0.  0.
    8880022    1    1    2    0    0  0.62052267675E+03  0.23827323638E+03 -0.79902369372E+03  0.10505489249E+04  0.15294330000E+03 0.  0.
<mgrwt>
<rscale>  0 0.86462415E+03</rscale>
<asrwt>0</asrwt>
<pdfrwt beam="1">  1        2 0.23579896E+00 0.93575250E+03</pdfrwt>
<pdfrwt beam="2">  1       -2 0.74748319E-01 0.93575250E+03</pdfrwt>
<totfact> 0.19648036E+01</totfact>
</mgrwt>
</event>
<event>
 4    1  0.5223852E-007  0.8081524E+03  0.7818608E-02  0.9693438E-01
         -2   -1    0    0    0  501 -0.00000000000E+00  0.00000000000E+00  0.49101218139E+03  0.49101218140E+03  0.25500000000E-02 0.  1.
          2   -1    0    0  501    0  0.00000000000E+00 -0.00000000000E+00 -0.14140228199E+04  0.14140228199E+04  0.25500000000E-02 0. -1.
    8880023    1    1    2    0    0  0.46561135014E+03  0.50061917984E+02  0.54932196859E+02  0.81001720817E+03  0.65864270000E+03 0.  1.
    8880022    1    1    2    0    0 -0.46561135014E+03 -0.50061917984E+02 -0.97794283541E+03  0.10950177932E+04  0.15294330000E+03 0.  0.
<mgrwt>
<rscale>  0 0.71408817E+03</rscale>
<asrwt>0</asrwt>
<pdfrwt beam="1">  1        2 0.21754197E+00 0.80815242E+03</pdfrwt>
<pdfrwt beam="2">  1       -2 0.75540336E-01 0.80815242E+03</pdfrwt>
<totfact> 0.22674291E+01</totfact>
</mgrwt>
</event>
<event>
 4    1  0.5223852E-007  0.1104780E+04  0.7818608E-02  0.9255753E-01
          2   -1    0    0  501    0  0.00000000000E+00  0.00000000000E+00  0.17618765759E+04  0.17618765759E+04  0.25500000000E-02 0. -1.
         -2   -1    0    0    0  501 -0.00000000000E+00 -0.00000000000E+00 -0.72634397491E+03  0.72634397492E+03  0.25500000000E-02 0.  1.
    8880023    1    1    2    0    0  0.88416039323E+03 -0.70633547619E+02  0.11335054720E+04  0.15828371869E+04  0.65864270000E+03 0. -1.
    8880022    1    1    2    0    0 -0.88416039323E+03  0.70633547619E+02 -0.97972871084E+02  0.90538336383E+03  0.15294330000E+03 0.  0.
<mgrwt>
<rscale>  0 0.10496042E+04</rscale>
<asrwt>0</asrwt>
<pdfrwt beam="1">  1        2 0.27105794E+00 0.11047800E+04</pdfrwt>
<pdfrwt beam="2">  1       -2 0.11174523E+00 0.11047800E+04</pdfrwt>
<totfact> 0.56465254E+00</totfact>
</mgrwt>
</event>
<event>
 4    1  0.5223852E-007  0.7796127E+03  0.7818608E-02  0.9756748E-01
          2   -1    0    0  501    0  0.00000000000E+00  0.00000000000E+00  0.28466358006E+04  0.28466358006E+04  0.25500000000E-02 0. -1.
         -2   -1    0    0    0  501 -0.00000000000E+00 -0.00000000000E+00 -0.21669872898E+03  0.21669872899E+03  0.25500000000E-02 0.  1.
    8880023    1    1    2    0    0 -0.31564264944E+03 -0.27268193197E+03  0.59570226766E+03  0.98115091405E+03  0.65864270000E+03 0.  0.
    8880022    1    1    2    0    0  0.31564264944E+03  0.27268193197E+03  0.20342348039E+04  0.20821836155E+04  0.15294330000E+03 0.  0.
<mgrwt>
<rscale>  0 0.67736280E+03</rscale>
<asrwt>0</asrwt>
<pdfrwt beam="1">  1        2 0.43794397E+00 0.77961268E+03</pdfrwt>
<pdfrwt beam="2">  1       -2 0.33338266E-01 0.77961268E+03</pdfrwt>
<totfact> 0.19120114E+01</totfact>
</mgrwt>
</event>
<event>
 4    1  0.5223852E-007  0.6747976E+03  0.7818608E-02  0.1012434E+00
          2   -1    0    0  501    0  0.00000000000E+00  0.00000000000E+00  0.63641656565E+03  0.63641656565E+03  0.25500000000E-02 0. -1.
         -2   -1    0    0    0  501 -0.00000000000E+00 -0.00000000000E+00 -0.31975541612E+03  0.31975541613E+03  0.25500000000E-02 0.  1.
    8880023    1    1    2    0    0  0.13526696148E+02 -0.14614569988E+03  0.16255808726E+03  0.69410148761E+03  0.65864270000E+03 0.  1.
    8880022    1    1    2    0    0 -0.13526696148E+02  0.14614569988E+03  0.15410306226E+03  0.26207049417E+03  0.15294330000E+03 0. -1.
<mgrwt>
<rscale>  0 0.50518568E+03</rscale>
<asrwt>0</asrwt>
<pdfrwt beam="1">  1        2 0.97910241E-01 0.67479756E+03</pdfrwt>
<pdfrwt beam="2">  1       -2 0.49193141E-01 0.67479756E+03</pdfrwt>
<totfact> 0.18299813E+02</totfact>
</mgrwt>
</event>
<event>
 4    1  0.5223852E-007  0.6738034E+03  0.7818608E-02  0.1013071E+00
         -2   -1    0    0    0  501 -0.00000000000E+00  0.00000000000E+00  0.11188829806E+04  0.11188829806E+04  0.25500000000E-02 0.  1.
          2   -1    0    0  501    0  0.00000000000E+00 -0.00000000000E+00 -0.12216332676E+04  0.12216332676E+04  0.25500000000E-02 0. -1.
    8880023    1    1    2    0    0  0.13226920028E+03 -0.52016319774E+02  0.10068129941E+04  0.12114798596E+04  0.65864270000E+03 0.  0.
    8880022    1    1    2    0    0 -0.13226920028E+03  0.52016319774E+02 -0.11095632812E+04  0.11290363886E+04  0.15294330000E+03 0. -1.
<mgrwt>
<rscale>  0 0.50272024E+03</rscale>
<asrwt>0</asrwt>
<pdfrwt beam="1">  1        2 0.18794358E+00 0.67380342E+03</pdfrwt>
<pdfrwt beam="2">  1       -2 0.17213584E+00 0.67380342E+03</pdfrwt>
<totfact> 0.39208600E+00</totfact>
</mgrwt>
</event>
<event>
 4    1  0.5223852E-007  0.1092935E+04  0.7818608E-02  0.9268963E-01
         -2   -1    0    0    0  501 -0.00000000000E+00  0.00000000000E+00  0.64701006253E+03  0.64701006253E+03  0.25500000000E-02 0.  1.
          2   -1    0    0  501    0  0.00000000000E+00 -0.00000000000E+00 -0.17087901541E+04  0.17087901541E+04  0.25500000000E-02 0. -1.
    8880023    1    1    2    0    0  0.78563776711E+03 -0.37877482770E+03 -0.18278598210E+03  0.11081146117E+04  0.65864270000E+03 0.  0.
    8880022    1    1    2    0    0 -0.78563776711E+03  0.37877482770E+03 -0.87899410950E+03  0.12476856049E+04  0.15294330000E+03 0.  0.
<mgrwt>
<rscale>  0 0.10369109E+04</rscale>
<asrwt>0</asrwt>
<pdfrwt beam="1">  1        2 0.26289079E+00 0.10929352E+04</pdfrwt>
<pdfrwt beam="2">  1       -2 0.99540010E-01 0.10929352E+04</pdfrwt>
<totfact> 0.79980998E+00</totfact>
</mgrwt>
</event>
<event>
 4    1  0.5223852E-007  0.7545713E+03  0.7818608E-02  0.9819370E-01
         -2   -1    0    0    0  501 -0.00000000000E+00  0.00000000000E+00  0.38652110112E+03  0.38652110113E+03  0.25500000000E-02 0.  1.
          2   -1    0    0  501    0  0.00000000000E+00 -0.00000000000E+00 -0.16990461827E+04  0.16990461827E+04  0.25500000000E-02 0. -1.
    8880023    1    1    2    0    0 -0.51367521233E+02 -0.36459435495E+03 -0.43989642819E+02  0.75585247293E+03  0.65864270000E+03 0.  1.
    8880022    1    1    2    0    0  0.51367521233E+02  0.36459435495E+03 -0.12685354388E+04  0.13297148109E+04  0.15294330000E+03 0.  0.
<mgrwt>
<rscale>  0 0.64333321E+03</rscale>
<asrwt>0</asrwt>
<pdfrwt beam="1">  1        2 0.26139172E+00 0.75457132E+03</pdfrwt>
<pdfrwt beam="2">  1       -2 0.59464786E-01 0.75457132E+03</pdfrwt>
<totfact> 0.26604145E+01</totfact>
</mgrwt>
</event>
<event>
 4    1  0.5223852E-007  0.7956430E+03  0.7818608E-02  0.9720297E-01
         -2   -1    0    0    0  501 -0.00000000000E+00  0.00000000000E+00  0.47858824018E+03  0.47858824019E+03  0.25500000000E-02 0.  1.
          2   -1    0    0  501    0  0.00000000000E+00 -0.00000000000E+00 -0.18794289014E+04  0.18794289014E+04  0.25500000000E-02 0. -1.
    8880023    1    1    2    0    0 -0.44235492180E+03  0.59662658762E+02  0.83949793383E+02  0.80005955014E+03  0.65864270000E+03 0.  1.
    8880022    1    1    2    0    0  0.44235492180E+03 -0.59662658762E+02 -0.14847904546E+04  0.15579575915E+04  0.15294330000E+03 0.  0.
<mgrwt>
<rscale>  0 0.69821058E+03</rscale>
<asrwt>0</asrwt>
<pdfrwt beam="1">  1        2 0.28914290E+00 0.79564296E+03</pdfrwt>
<pdfrwt beam="2">  1       -2 0.73628961E-01 0.79564296E+03</pdfrwt>
<totfact> 0.13301309E+01</totfact>
</mgrwt>
</event>
<event>
 4    1  0.5223852E-007  0.7287436E+03  0.7818608E-02  0.9894040E-01
         -2   -1    0    0    0  501 -0.00000000000E+00  0.00000000000E+00  0.76064288789E+03  0.76064288789E+03  0.25500000000E-02 0.  1.
          2   -1    0    0  501    0  0.00000000000E+00 -0.00000000000E+00 -0.58717588949E+03  0.58717588950E+03  0.25500000000E-02 0. -1.
    8880023    1    1    2    0    0 -0.21026811777E+03 -0.23031362045E+03  0.48977208667E+03  0.87803413843E+03  0.65864270000E+03 0.  1.
    8880022    1    1    2    0    0  0.21026811777E+03  0.23031362045E+03 -0.31630508827E+03  0.46978463895E+03  0.15294330000E+03 0.  0.
<mgrwt>
<rscale>  0 0.60551011E+03</rscale>
<asrwt>0</asrwt>
<pdfrwt beam="1">  1        2 0.90334753E-01 0.72874361E+03</pdfrwt>
<pdfrwt beam="2">  1       -2 0.11702198E+00 0.72874361E+03</pdfrwt>
<totfact> 0.29181930E+01</totfact>
</mgrwt>
</event>
<event>
 4    1  0.5223852E-007  0.8078283E+03  0.7818608E-02  0.9694118E-01
          2   -1    0    0  501    0  0.00000000000E+00  0.00000000000E+00  0.26570001898E+04  0.26570001898E+04  0.25500000000E-02 0. -1.
         -2   -1    0    0    0  501 -0.00000000000E+00 -0.00000000000E+00 -0.18989503621E+03  0.18989503623E+03  0.25500000000E-02 0.  1.
    8880023    1    1    2    0    0  0.44626354305E+03  0.14008980692E+03  0.92458892111E+03  0.12277830359E+04  0.65864270000E+03 0.  1.
    8880022    1    1    2    0    0 -0.44626354305E+03 -0.14008980692E+03  0.15425162325E+04  0.16191121902E+04  0.15294330000E+03 0.  0.
<mgrwt>
<rscale>  0 0.71368056E+03</rscale>
<asrwt>0</asrwt>
<pdfrwt beam="1">  1        2 0.40876924E+00 0.80782827E+03</pdfrwt>
<pdfrwt beam="2">  1       -2 0.29214622E-01 0.80782827E+03</pdfrwt>
<totfact> 0.31506009E+01</totfact>
</mgrwt>
</event>
<event>
 4    1  0.5223852E-007  0.9161087E+03  0.7818608E-02  0.9500651E-01
         -2   -1    0    0    0  501 -0.00000000000E+00  0.00000000000E+00  0.87322074559E+03  0.87322074560E+03  0.25500000000E-02 0.  1.
          2   -1    0    0  501    0  0.00000000000E+00 -0.00000000000E+00 -0.18119715014E+04  0.18119715014E+04  0.25500000000E-02 0. -1.
    8880023    1    1    2    0    0 -0.95144386418E+02  0.62959710067E+03  0.54317001925E+03  0.10650299712E+04  0.65864270000E+03 0.  0.
    8880022    1    1    2    0    0  0.95144386418E+02 -0.62959710067E+03 -0.14819207750E+04  0.16201622758E+04  0.15294330000E+03 0.  0.
<mgrwt>
<rscale>  0 0.84235807E+03</rscale>
<asrwt>0</asrwt>
<pdfrwt beam="1">  1        2 0.27876485E+00 0.91610871E+03</pdfrwt>
<pdfrwt beam="2">  1       -2 0.13434165E+00 0.91610871E+03</pdfrwt>
<totfact> 0.34180090E+00</totfact>
</mgrwt>
</event>
<event>
 4    1  0.5223852E-007  0.9044258E+03  0.7818608E-02  0.9518964E-01
          2   -1    0    0  501    0  0.00000000000E+00  0.00000000000E+00  0.10988891020E+04  0.10988891020E+04  0.25500000000E-02 0. -1.
         -2   -1    0    0    0  501 -0.00000000000E+00 -0.00000000000E+00 -0.16927320247E+04  0.16927320247E+04  0.25500000000E-02 0.  1.
    8880023    1    1    2    0    0  0.54611177340E+03  0.29315153251E+03 -0.14588978168E+04  0.17164990347E+04  0.65864270000E+03 0.  0.
    8880022    1    1    2    0    0 -0.54611177340E+03 -0.29315153251E+03  0.86505489408E+03  0.10751220921E+04  0.15294330000E+03 0.  0.
<mgrwt>
<rscale>  0 0.82900027E+03</rscale>
<asrwt>0</asrwt>
<pdfrwt beam="1">  1        2 0.16905986E+00 0.90442584E+03</pdfrwt>
<pdfrwt beam="2">  1       -2 0.26042031E+00 0.90442584E+03</pdfrwt>
<totfact> 0.12244492E+00</totfact>
</mgrwt>
</event>
<event>
 4    1  0.5223852E-007  0.1012911E+04  0.7818608E-02  0.9364858E-01
          2   -1    0    0  501    0  0.00000000000E+00  0.00000000000E+00  0.18838294935E+04  0.18838294935E+04  0.25500000000E-02 0. -1.
         -2   -1    0    0    0  501 -0.00000000000E+00 -0.00000000000E+00 -0.77397134017E+03  0.77397134017E+03  0.25500000000E-02 0.  1.
    8880023    1    1    2    0    0 -0.56297585179E+03  0.52462955755E+03 -0.28952865458E+03  0.10534775890E+04  0.65864270000E+03 0.  0.
    8880022    1    1    2    0    0  0.56297585179E+03 -0.52462955755E+03  0.13993868079E+04  0.16043232447E+04  0.15294330000E+03 0.  0.
<mgrwt>
<rscale>  0 0.95025034E+03</rscale>
<asrwt>0</asrwt>
<pdfrwt beam="1">  1        2 0.28981992E+00 0.10129108E+04</pdfrwt>
<pdfrwt beam="2">  1       -2 0.11907252E+00 0.10129108E+04</pdfrwt>
<totfact> 0.41800399E+00</totfact>
</mgrwt>
</event>
<event>
 4    1  0.5223852E-007  0.6856298E+03  0.7818608E-02  0.1006303E+00
         -2   -1    0    0    0  501 -0.00000000000E+00  0.00000000000E+00  0.15548843610E+03  0.15548843612E+03  0.25500000000E-02 0.  1.
          2   -1    0    0  501    0  0.00000000000E+00 -0.00000000000E+00 -0.23483524838E+04  0.23483524838E+04  0.25500000000E-02 0. -1.
    8880023    1    1    2    0    0 -0.13418605931E+03 -0.13517459395E+03 -0.66013993631E+03  0.95177361338E+03  0.65864270000E+03 0.  1.
    8880022    1    1    2    0    0  0.13418605931E+03  0.13517459395E+03 -0.15327241114E+04  0.15520673065E+04  0.15294330000E+03 0.  0.
<mgrwt>
<rscale>  0 0.52970800E+03</rscale>
<asrwt>0</asrwt>
<pdfrwt beam="1">  1        2 0.36128497E+00 0.68562984E+03</pdfrwt>
<pdfrwt beam="2">  1       -2 0.23921300E-01 0.68562984E+03</pdfrwt>
<totfact> 0.68971447E+01</totfact>
</mgrwt>
</event>
<event>
 4    1  0.5223852E-007  0.7590411E+03  0.7818608E-02  0.9807596E-01
         -2   -1    0    0    0  501 -0.00000000000E+00  0.00000000000E+00  0.89216809431E+03  0.89216809431E+03  0.25500000000E-02 0.  1.
          2   -1    0    0  501    0  0.00000000000E+00 -0.00000000000E+00 -0.12439843028E+04  0.12439843028E+04  0.25500000000E-02 0. -1.
    8880023    1    1    2    0    0  0.37709356640E+03 -0.11562927415E+02  0.68490436379E+03  0.10223685504E+04  0.65864270000E+03 0.  1.
    8880022    1    1    2    0    0 -0.37709356640E+03  0.11562927415E+02 -0.10367205723E+04  0.11137838467E+04  0.15294330000E+03 0.  0.
<mgrwt>
<rscale>  0 0.64956477E+03</rscale>
<asrwt>0</asrwt>
<pdfrwt beam="1">  1        2 0.19138220E+00 0.75904115E+03</pdfrwt>
<pdfrwt beam="2">  1       -2 0.13725663E+00 0.75904115E+03</pdfrwt>
<totfact> 0.68768574E+00</totfact>
</mgrwt>
</event>
<event>
 4    1  0.5223852E-007  0.7987360E+03  0.7818608E-02  0.9713536E-01
          2   -1    0    0  501    0  0.00000000000E+00  0.00000000000E+00  0.25892879699E+04  0.25892879699E+04  0.25500000000E-02 0. -1.
         -2   -1    0    0    0  501 -0.00000000000E+00 -0.00000000000E+00 -0.25323577732E+03  0.25323577734E+03  0.25500000000E-02 0.  1.
    8880023    1    1    2    0    0  0.44510435220E+03  0.77788734267E+02  0.49275956229E+03  0.93850474907E+03  0.65864270000E+03 0.  1.
    8880022    1    1    2    0    0 -0.44510435220E+03 -0.77788734267E+02  0.18432926303E+04  0.19040189982E+04  0.15294330000E+03 0.  0.
<mgrwt>
<rscale>  0 0.70216565E+03</rscale>
<asrwt>0</asrwt>
<pdfrwt beam="1">  1        2 0.39835199E+00 0.79873599E+03</pdfrwt>
<pdfrwt beam="2">  1       -2 0.38959351E-01 0.79873599E+03</pdfrwt>
<totfact> 0.20003112E+01</totfact>
</mgrwt>
</event>
<event>
 4    1  0.5223852E-007  0.9045456E+03  0.7818608E-02  0.9518774E-01
          2   -1    0    0  501    0  0.00000000000E+00  0.00000000000E+00  0.15182299680E+04  0.15182299680E+04  0.25500000000E-02 0. -1.
         -2   -1    0    0    0  501 -0.00000000000E+00 -0.00000000000E+00 -0.84688715703E+03  0.84688715704E+03  0.25500000000E-02 0.  1.
    8880023    1    1    2    0    0  0.34767480459E+03  0.51333683819E+03  0.12230616386E+04  0.15212108523E+04  0.65864270000E+03 0. -1.
    8880022    1    1    2    0    0 -0.34767480459E+03 -0.51333683819E+03 -0.55171882768E+03  0.84390627265E+03  0.15294330000E+03 0.  0.
<mgrwt>
<rscale>  0 0.82913763E+03</rscale>
<asrwt>0</asrwt>
<pdfrwt beam="1">  1        2 0.23357384E+00 0.90454557E+03</pdfrwt>
<pdfrwt beam="2">  1       -2 0.13029033E+00 0.90454557E+03</pdfrwt>
<totfact> 0.53783468E+00</totfact>
</mgrwt>
</event>
<event>
 4    1  0.5223852E-007  0.1350365E+04  0.7818608E-02  0.9023243E-01
          2   -1    0    0  501    0  0.00000000000E+00  0.00000000000E+00  0.21144720030E+04  0.21144720030E+04  0.25500000000E-02 0. -1.
         -2   -1    0    0    0  501 -0.00000000000E+00 -0.00000000000E+00 -0.77592596236E+03  0.77592596236E+03  0.25500000000E-02 0.  1.
    8880023    1    1    2    0    0  0.82423183903E+03  0.84280292062E+03  0.51960423132E+03  0.14468841180E+04  0.65864270000E+03 0.  0.
    8880022    1    1    2    0    0 -0.82423183903E+03 -0.84280292062E+03  0.81894180933E+03  0.14435138474E+04  0.15294330000E+03 0.  0.
<mgrwt>
<rscale>  0 0.13080028E+04</rscale>
<asrwt>0</asrwt>
<pdfrwt beam="1">  1        2 0.32530339E+00 0.13503648E+04</pdfrwt>
<pdfrwt beam="2">  1       -2 0.11937322E+00 0.13503648E+04</pdfrwt>
<totfact> 0.29857470E+00</totfact>
</mgrwt>
</event>
<event>
 4    1  0.5223852E-007  0.8393708E+03  0.7818608E-02  0.9631368E-01
          2   -1    0    0  501    0  0.00000000000E+00  0.00000000000E+00  0.77065251288E+03  0.77065251288E+03  0.25500000000E-02 0. -1.
         -2   -1    0    0    0  501 -0.00000000000E+00 -0.00000000000E+00 -0.18999568981E+04  0.18999568981E+04  0.25500000000E-02 0.  1.
    8880023    1    1    2    0    0  0.31420186633E+02  0.51937061290E+03 -0.16922138967E+04  0.18889497453E+04  0.65864270000E+03 0.  1.
    8880022    1    1    2    0    0 -0.31420186633E+02 -0.51937061290E+03  0.56290951156E+03  0.78165966565E+03  0.15294330000E+03 0.  0.
<mgrwt>
<rscale>  0 0.75254386E+03</rscale>
<asrwt>0</asrwt>
<pdfrwt beam="1">  1        2 0.11856193E+00 0.83937076E+03</pdfrwt>
<pdfrwt beam="2">  1       -2 0.29230106E+00 0.83937076E+03</pdfrwt>
<totfact> 0.13161774E+00</totfact>
</mgrwt>
</event>
<event>
 4    1  0.5223852E-007  0.7803204E+03  0.7818608E-02  0.9755085E-01
         -2   -1    0    0    0  501 -0.00000000000E+00  0.00000000000E+00  0.25101976731E+03  0.25101976733E+03  0.25500000000E-02 0.  1.
          2   -1    0    0  501    0  0.00000000000E+00 -0.00000000000E+00 -0.23790373643E+04  0.23790373643E+04  0.25500000000E-02 0. -1.
    8880023    1    1    2    0    0  0.40797518150E+03  0.92983520893E+02 -0.46492396554E+03  0.90832493298E+03  0.65864270000E+03 0.  1.
    8880022    1    1    2    0    0 -0.40797518150E+03 -0.92983520893E+02 -0.16630936315E+04  0.17217321987E+04  0.15294330000E+03 0.  0.
<mgrwt>
<rscale>  0 0.67829665E+03</rscale>
<asrwt>0</asrwt>
<pdfrwt beam="1">  1        2 0.36600573E+00 0.78032038E+03</pdfrwt>
<pdfrwt beam="2">  1       -2 0.38618427E-01 0.78032038E+03</pdfrwt>
<totfact> 0.26843808E+01</totfact>
</mgrwt>
</event>
<event>
 4    1  0.5223852E-007  0.6776215E+03  0.7818608E-02  0.1010702E+00
          2   -1    0    0  501    0  0.00000000000E+00  0.00000000000E+00  0.77882281257E+03  0.77882281257E+03  0.25500000000E-02 0. -1.
         -2   -1    0    0    0  501 -0.00000000000E+00 -0.00000000000E+00 -0.29516882693E+03  0.29516882694E+03  0.25500000000E-02 0.  1.
    8880023    1    1    2    0    0  0.14379704082E+03 -0.68433154368E+02  0.18470680446E+03  0.70234428555E+03  0.65864270000E+03 0. -1.
    8880022    1    1    2    0    0 -0.14379704082E+03  0.68433154368E+02  0.29894718117E+03  0.37164735397E+03  0.15294330000E+03 0.  0.
<mgrwt>
<rscale>  0 0.51196446E+03</rscale>
<asrwt>0</asrwt>
<pdfrwt beam="1">  1        2 0.11981889E+00 0.67762150E+03</pdfrwt>
<pdfrwt beam="2">  1       -2 0.45410589E-01 0.67762150E+03</pdfrwt>
<totfact> 0.16654228E+02</totfact>
</mgrwt>
</event>
<event>
 4    1  0.5223852E-007  0.6840091E+03  0.7818608E-02  0.1007141E+00
          2   -1    0    0  501    0  0.00000000000E+00  0.00000000000E+00  0.96040522447E+03  0.96040522447E+03  0.25500000000E-02 0. -1.
         -2   -1    0    0    0  501 -0.00000000000E+00 -0.00000000000E+00 -0.71460265550E+03  0.71460265551E+03  0.25500000000E-02 0.  1.
    8880023    1    1    2    0    0 -0.98888952120E+02 -0.15581802189E+03 -0.52853816860E+03  0.86441950622E+03  0.65864270000E+03 0.  1.
    8880022    1    1    2    0    0  0.98888952120E+02  0.15581802189E+03  0.77434073757E+03  0.81058837376E+03  0.15294330000E+03 0.  0.
<mgrwt>
<rscale>  0 0.52626879E+03</rscale>
<asrwt>0</asrwt>
<pdfrwt beam="1">  1        2 0.14775465E+00 0.68400913E+03</pdfrwt>
<pdfrwt beam="2">  1       -2 0.10993887E+00 0.68400913E+03</pdfrwt>
<totfact> 0.17998697E+01</totfact>
</mgrwt>
</event>
<event>
 4    1  0.5223852E-007  0.9240447E+03  0.7818608E-02  0.9488485E-01
         -2   -1    0    0    0  501 -0.00000000000E+00  0.00000000000E+00  0.50520341114E+03  0.50520341114E+03  0.25500000000E-02 0.  1.
          2   -1    0    0  501    0  0.00000000000E+00 -0.00000000000E+00 -0.38315587717E+04  0.38315587717E+04  0.25500000000E-02 0. -1.
    8880023    1    1    2    0    0 -0.22655589836E+03  0.60722386754E+03  0.20530374787E+02  0.92427274273E+03  0.65864270000E+03 0.  1.
    8880022    1    1    2    0    0  0.22655589836E+03 -0.60722386754E+03 -0.33468857354E+04  0.34124894401E+04  0.15294330000E+03 0.  0.
<mgrwt>
<rscale>  0 0.85138129E+03</rscale>
<asrwt>0</asrwt>
<pdfrwt beam="1">  1        2 0.58947056E+00 0.92404470E+03</pdfrwt>
<pdfrwt beam="2">  1       -2 0.77723604E-01 0.92404470E+03</pdfrwt>
<totfact> 0.72773547E-01</totfact>
</mgrwt>
</event>
<event>
 4    1  0.5223852E-007  0.8937513E+03  0.7818608E-02  0.9536138E-01
          2   -1    0    0  501    0  0.00000000000E+00  0.00000000000E+00  0.13441699432E+04  0.13441699432E+04  0.25500000000E-02 0. -1.
         -2   -1    0    0    0  501 -0.00000000000E+00 -0.00000000000E+00 -0.76208410009E+03  0.76208410010E+03  0.25500000000E-02 0.  1.
    8880023    1    1    2    0    0  0.84134851380E+02 -0.59824958687E+03 -0.37084617926E+03  0.96763543566E+03  0.65864270000E+03 0.  0.
    8880022    1    1    2    0    0 -0.84134851380E+02  0.59824958687E+03  0.95293202240E+03  0.11386186077E+04  0.15294330000E+03 0.  0.
<mgrwt>
<rscale>  0 0.81671144E+03</rscale>
<asrwt>0</asrwt>
<pdfrwt beam="1">  1        2 0.20679537E+00 0.89375133E+03</pdfrwt>
<pdfrwt beam="2">  1       -2 0.11724371E+00 0.89375133E+03</pdfrwt>
<totfact> 0.88023573E+00</totfact>
</mgrwt>
</event>
<event>
 4    1  0.5223852E-007  0.7040118E+03  0.7818608E-02  0.9980949E-01
          2   -1    0    0  501    0  0.00000000000E+00  0.00000000000E+00  0.38525609727E+04  0.38525609727E+04  0.25500000000E-02 0. -1.
         -2   -1    0    0    0  501 -0.00000000000E+00 -0.00000000000E+00 -0.12228655431E+03  0.12228655434E+03  0.25500000000E-02 0.  1.
    8880023    1    1    2    0    0 -0.24671800592E+03  0.30864831710E+02  0.96662869811E+03  0.11958276040E+04  0.65864270000E+03 0.  1.
    8880022    1    1    2    0    0  0.24671800592E+03 -0.30864831710E+02  0.27636457203E+04  0.27790199230E+04  0.15294330000E+03 0.  0.
<mgrwt>
<rscale>  0 0.56493550E+03</rscale>
<asrwt>0</asrwt>
<pdfrwt beam="1">  1        2 0.59270165E+00 0.70401180E+03</pdfrwt>
<pdfrwt beam="2">  1       -2 0.18813317E-01 0.70401180E+03</pdfrwt>
<totfact> 0.11736689E+01</totfact>
</mgrwt>
</event>
<event>
 4    1  0.5223852E-007  0.6661933E+03  0.7818608E-02  0.1018553E+00
          2   -1    0    0  501    0  0.00000000000E+00  0.00000000000E+00  0.60007565758E+03  0.60007565759E+03  0.25500000000E-02 0. -1.
         -2   -1    0    0    0  501 -0.00000000000E+00 -0.00000000000E+00 -0.45441549319E+03  0.45441549320E+03  0.25500000000E-02 0.  1.
    8880023    1    1    2    0    0  0.62211459462E+02  0.78313717368E+02 -0.17198084861E+03  0.68803409986E+03  0.65864270000E+03 0.  1.
    8880022    1    1    2    0    0 -0.62211459462E+02 -0.78313717368E+02  0.31764101300E+03  0.36645705093E+03  0.15294330000E+03 0.  0.
<mgrwt>
<rscale>  0 0.48212573E+03</rscale>
<asrwt>0</asrwt>
<pdfrwt beam="1">  1        2 0.92319331E-01 0.66619330E+03</pdfrwt>
<pdfrwt beam="2">  1       -2 0.69910076E-01 0.66619330E+03</pdfrwt>
<totfact> 0.93997377E+01</totfact>
</mgrwt>
</event>
<event>
 4    1  0.5223852E-007  0.6975706E+03  0.7818608E-02  0.1000743E+00
         -2   -1    0    0    0  501 -0.00000000000E+00  0.00000000000E+00  0.15929345051E+04  0.15929345051E+04  0.25500000000E-02 0.  1.
          2   -1    0    0  501    0  0.00000000000E+00 -0.00000000000E+00 -0.31908574938E+03  0.31908574939E+03  0.25500000000E-02 0. -1.
    8880023    1    1    2    0    0  0.22938800331E+03  0.13254476559E+02  0.14327414238E+04  0.15935346658E+04  0.65864270000E+03 0.  1.
    8880022    1    1    2    0    0 -0.22938800331E+03 -0.13254476559E+02 -0.15889266812E+03  0.31848558870E+03  0.15294330000E+03 0.  0.
<mgrwt>
<rscale>  0 0.55325540E+03</rscale>
<asrwt>0</asrwt>
<pdfrwt beam="1">  1        2 0.49090116E-01 0.69757060E+03</pdfrwt>
<pdfrwt beam="2">  1       -2 0.24506684E+00 0.69757060E+03</pdfrwt>
<totfact> 0.72945918E+00</totfact>
</mgrwt>
</event>
<event>
 4    1  0.5223852E-007  0.9163686E+03  0.7818608E-02  0.9500250E-01
         -2   -1    0    0    0  501 -0.00000000000E+00  0.00000000000E+00  0.13013250744E+04  0.13013250744E+04  0.25500000000E-02 0.  1.
          2   -1    0    0  501    0  0.00000000000E+00 -0.00000000000E+00 -0.59635210039E+03  0.59635210040E+03  0.25500000000E-02 0. -1.
    8880023    1    1    2    0    0 -0.61862182148E+03  0.15240831819E+03  0.82326238581E+03  0.12318654211E+04  0.65864270000E+03 0.  1.
    8880022    1    1    2    0    0  0.61862182148E+03 -0.15240831819E+03 -0.11828941180E+03  0.66581175374E+03  0.15294330000E+03 0.  0.
<mgrwt>
<rscale>  0 0.84265422E+03</rscale>
<asrwt>0</asrwt>
<pdfrwt beam="1">  1        2 0.91746476E-01 0.91636863E+03</pdfrwt>
<pdfrwt beam="2">  1       -2 0.20020386E+00 0.91636863E+03</pdfrwt>
<totfact> 0.66388518E+00</totfact>
</mgrwt>
</event>
<event>
 4    1  0.5223852E-007  0.6616786E+03  0.7818608E-02  0.1022499E+00
         -2   -1    0    0    0  501 -0.00000000000E+00  0.00000000000E+00  0.20557994213E+03  0.20557994214E+03  0.25500000000E-02 0.  1.
          2   -1    0    0  501    0  0.00000000000E+00 -0.00000000000E+00 -0.17440383995E+04  0.17440383995E+04  0.25500000000E-02 0. -1.
    8880023    1    1    2    0    0 -0.16811297971E+01  0.63289322538E+02 -0.34781801824E+03  0.74752655112E+03  0.65864270000E+03 0.  1.
    8880022    1    1    2    0    0  0.16811297971E+01 -0.63289322538E+02 -0.11906404391E+04  0.12020917905E+04  0.15294330000E+03 0.  0.
<mgrwt>
<rscale>  0 0.46795509E+03</rscale>
<asrwt>0</asrwt>
<pdfrwt beam="1">  1        2 0.26831359E+00 0.66167860E+03</pdfrwt>
<pdfrwt beam="2">  1       -2 0.31627685E-01 0.66167860E+03</pdfrwt>
<totfact> 0.88825592E+01</totfact>
</mgrwt>
</event>
<event>
 4    1  0.5223852E-007  0.8712987E+03  0.7818608E-02  0.9573773E-01
         -2   -1    0    0    0  501 -0.00000000000E+00  0.00000000000E+00  0.52105515681E+03  0.52105515682E+03  0.25500000000E-02 0.  1.
          2   -1    0    0  501    0  0.00000000000E+00 -0.00000000000E+00 -0.31889377294E+04  0.31889377294E+04  0.25500000000E-02 0. -1.
    8880023    1    1    2    0    0 -0.56884860598E+03  0.41981603103E+02  0.10255588393E+03  0.87731357399E+03  0.65864270000E+03 0.  1.
    8880022    1    1    2    0    0  0.56884860598E+03 -0.41981603103E+02 -0.27704384566E+04  0.28326793123E+04  0.15294330000E+03 0.  0.
<mgrwt>
<rscale>  0 0.79056659E+03</rscale>
<asrwt>0</asrwt>
<pdfrwt beam="1">  1        2 0.49060579E+00 0.87129868E+03</pdfrwt>
<pdfrwt beam="2">  1       -2 0.80162334E-01 0.87129868E+03</pdfrwt>
<totfact> 0.19030036E+00</totfact>
</mgrwt>
</event>
<event>
 4    1  0.5223852E-007  0.7498474E+03  0.7818608E-02  0.9832138E-01
         -2   -1    0    0    0  501 -0.00000000000E+00  0.00000000000E+00  0.54188409731E+03  0.54188409732E+03  0.25500000000E-02 0.  1.
          2   -1    0    0  501    0  0.00000000000E+00 -0.00000000000E+00 -0.12635919120E+04  0.12635919120E+04  0.25500000000E-02 0. -1.
    8880023    1    1    2    0    0  0.30632955984E+03  0.18607284193E+03  0.22403228150E+03  0.78259924045E+03  0.65864270000E+03 0.  0.
    8880022    1    1    2    0    0 -0.30632955984E+03 -0.18607284193E+03 -0.94574009620E+03  0.10228767689E+04  0.15294330000E+03 0.  0.
<mgrwt>
<rscale>  0 0.63665980E+03</rscale>
<asrwt>0</asrwt>
<pdfrwt beam="1">  1        2 0.19439876E+00 0.74984739E+03</pdfrwt>
<pdfrwt beam="2">  1       -2 0.83366784E-01 0.74984739E+03</pdfrwt>
<totfact> 0.22302563E+01</totfact>
</mgrwt>
</event>
<event>
 4    1  0.5223852E-007  0.8027267E+03  0.7818608E-02  0.9704931E-01
          2   -1    0    0  501    0  0.00000000000E+00  0.00000000000E+00  0.27636642451E+04  0.27636642451E+04  0.25500000000E-02 0. -1.
         -2   -1    0    0    0  501 -0.00000000000E+00 -0.00000000000E+00 -0.17670824208E+03  0.17670824210E+03  0.25500000000E-02 0.  1.
    8880023    1    1    2    0    0 -0.45721993149E+03 -0.38857626285E+02  0.21248537240E+04  0.22714254413E+04  0.65864270000E+03 0.  1.
    8880022    1    1    2    0    0  0.45721993149E+03  0.38857626285E+02  0.46210227901E+03  0.66894704585E+03  0.15294330000E+03 0.  0.
<mgrwt>
<rscale>  0 0.70723957E+03</rscale>
<asrwt>0</asrwt>
<pdfrwt beam="1">  1        2 0.42517911E+00 0.80272672E+03</pdfrwt>
<pdfrwt beam="2">  1       -2 0.27185884E-01 0.80272672E+03</pdfrwt>
<totfact> 0.31181349E+01</totfact>
</mgrwt>
</event>
<event>
 4    1  0.5223852E-007  0.6822355E+03  0.7818608E-02  0.1008086E+00
          2   -1    0    0  501    0  0.00000000000E+00  0.00000000000E+00  0.85823354386E+03  0.85823354387E+03  0.25500000000E-02 0. -1.
         -2   -1    0    0    0  501 -0.00000000000E+00 -0.00000000000E+00 -0.10765690046E+04  0.10765690046E+04  0.25500000000E-02 0.  1.
    8880023    1    1    2    0    0  0.11555330895E+03 -0.13521297805E+03 -0.94822115552E+03  0.11681475432E+04  0.65864270000E+03 0.  1.
    8880022    1    1    2    0    0 -0.11555330895E+03  0.13521297805E+03  0.72988569478E+03  0.76665500527E+03  0.15294330000E+03 0.  0.
<mgrwt>
<rscale>  0 0.52242326E+03</rscale>
<asrwt>0</asrwt>
<pdfrwt beam="1">  1        2 0.13203593E+00 0.68223553E+03</pdfrwt>
<pdfrwt beam="2">  1       -2 0.16562600E+00 0.68223553E+03</pdfrwt>
<totfact> 0.73704824E+00</totfact>
</mgrwt>
</event>
<event>
 4    1  0.5223852E-007  0.2257126E+04  0.7818608E-02  0.8504591E-01
         -2   -1    0    0    0  501 -0.00000000000E+00  0.00000000000E+00  0.22717966629E+04  0.22717966629E+04  0.25500000000E-02 0.  1.
          2   -1    0    0  501    0  0.00000000000E+00 -0.00000000000E+00 -0.23984516568E+04  0.23984516568E+04  0.25500000000E-02 0. -1.
    8880023    1    1    2    0    0 -0.16088155094E+04  0.14396255244E+04 -0.81400635549E+03  0.23994219192E+04  0.65864270000E+03 0.  0.
    8880022    1    1    2    0    0  0.16088155094E+04 -0.14396255244E+04  0.68735136159E+03  0.22708264004E+04  0.15294330000E+03 0.  0.
<mgrwt>
<rscale>  0 0.22335534E+04</rscale>
<asrwt>0</asrwt>
<pdfrwt beam="1">  1        2 0.36899256E+00 0.22571263E+04</pdfrwt>
<pdfrwt beam="2">  1       -2 0.34950718E+00 0.22571263E+04</pdfrwt>
<totfact> 0.53882709E-02</totfact>
</mgrwt>
</event>
<event>
 4    1  0.5223852E-007  0.6898475E+03  0.7818608E-02  0.1004225E+00
         -2   -1    0    0    0  501 -0.00000000000E+00  0.00000000000E+00  0.42724249841E+04  0.42724249841E+04  0.25500000000E-02 0.  1.
          2   -1    0    0  501    0  0.00000000000E+00 -0.00000000000E+00 -0.35234602531E+03  0.35234602532E+03  0.25500000000E-02 0. -1.
    8880023    1    1    2    0    0 -0.20470119184E+03 -0.13296894173E+02  0.41937535402E+04  0.42501127453E+04  0.65864270000E+03 0.  1.
    8880022    1    1    2    0    0  0.20470119184E+03  0.13296894173E+02 -0.27367458144E+03  0.37465826412E+03  0.15294330000E+03 0.  0.
<mgrwt>
<rscale>  0 0.53835776E+03</rscale>
<asrwt>0</asrwt>
<pdfrwt beam="1">  1        2 0.54207080E-01 0.68984751E+03</pdfrwt>
<pdfrwt beam="2">  1       -2 0.65729616E+00 0.68984751E+03</pdfrwt>
<totfact> 0.30481861E-02</totfact>
</mgrwt>
</event>
<event>
 4    1  0.5223852E-007  0.7175049E+03  0.7818608E-02  0.9931121E-01
          2   -1    0    0  501    0  0.00000000000E+00  0.00000000000E+00  0.29599239697E+04  0.29599239697E+04  0.25500000000E-02 0. -1.
         -2   -1    0    0    0  501 -0.00000000000E+00 -0.00000000000E+00 -0.24765757775E+03  0.24765757776E+03  0.25500000000E-02 0.  1.
    8880023    1    1    2    0    0 -0.28415267782E+03 -0.16132920912E+02  0.30652084689E+03  0.78023602281E+03  0.65864270000E+03 0.  0.
    8880022    1    1    2    0    0  0.28415267782E+03  0.16132920912E+02  0.24057455450E+04  0.24273455246E+04  0.15294330000E+03 0.  0.
<mgrwt>
<rscale>  0 0.58776460E+03</rscale>
<asrwt>0</asrwt>
<pdfrwt beam="1">  1        2 0.45537290E+00 0.71750486E+03</pdfrwt>
<pdfrwt beam="2">  1       -2 0.38101167E-01 0.71750486E+03</pdfrwt>
<totfact> 0.12796065E+01</totfact>
</mgrwt>
</event>
<event>
 4    1  0.5223852E-007  0.8609563E+03  0.7818608E-02  0.9591865E-01
         -2   -1    0    0    0  501 -0.00000000000E+00  0.00000000000E+00  0.39042655944E+03  0.39042655945E+03  0.25500000000E-02 0.  1.
          2   -1    0    0  501    0  0.00000000000E+00 -0.00000000000E+00 -0.24682252418E+04  0.24682252419E+04  0.25500000000E-02 0. -1.
    8880023    1    1    2    0    0 -0.23232385689E+03 -0.50344931310E+03 -0.18529035095E+03  0.88066923743E+03  0.65864270000E+03 0.  1.
    8880022    1    1    2    0    0  0.23232385689E+03  0.50344931310E+03 -0.18925083315E+04  0.19779825639E+04  0.15294330000E+03 0. -1.
<mgrwt>
<rscale>  0 0.77836984E+03</rscale>
<asrwt>0</asrwt>
<pdfrwt beam="1">  1        2 0.37972695E+00 0.86095632E+03</pdfrwt>
<pdfrwt beam="2">  1       -2 0.60065626E-01 0.86095632E+03</pdfrwt>
<totfact> 0.96648456E+00</totfact>
</mgrwt>
</event>
<event>
 4    1  0.5223852E-007  0.8912247E+03  0.7818608E-02  0.9540268E-01
         -2   -1    0    0    0  501 -0.00000000000E+00  0.00000000000E+00  0.55563615611E+03  0.55563615612E+03  0.25500000000E-02 0.  1.
          2   -1    0    0  501    0  0.00000000000E+00 -0.00000000000E+00 -0.11117656709E+04  0.11117656709E+04  0.25500000000E-02 0. -1.
    8880023    1    1    2    0    0 -0.41352888061E+03  0.43527594079E+03 -0.97472313497E+02  0.89653908888E+03  0.65864270000E+03 0.  0.
    8880022    1    1    2    0    0  0.41352888061E+03 -0.43527594079E+03 -0.45865720126E+03  0.77086273812E+03  0.15294330000E+03 0.  0.
<mgrwt>
<rscale>  0 0.81379017E+03</rscale>
<asrwt>0</asrwt>
<pdfrwt beam="1">  1        2 0.17104087E+00 0.89122471E+03</pdfrwt>
<pdfrwt beam="2">  1       -2 0.85482486E-01 0.89122471E+03</pdfrwt>
<totfact> 0.25588966E+01</totfact>
</mgrwt>
</event>
<event>
 4    1  0.5223852E-007  0.6962285E+03  0.7818608E-02  0.1001322E+00
         -2   -1    0    0    0  501 -0.00000000000E+00  0.00000000000E+00  0.36681709251E+03  0.36681709252E+03  0.25500000000E-02 0.  1.
          2   -1    0    0  501    0  0.00000000000E+00 -0.00000000000E+00 -0.12033506048E+04  0.12033506048E+04  0.25500000000E-02 0. -1.
    8880023    1    1    2    0    0  0.22053187537E+03  0.47849349220E+02 -0.62290145086E+01  0.69625632863E+03  0.65864270000E+03 0.  1.
    8880022    1    1    2    0    0 -0.22053187537E+03 -0.47849349220E+02 -0.83030449777E+03  0.87391136868E+03  0.15294330000E+03 0.  0.
<mgrwt>
<rscale>  0 0.55074273E+03</rscale>
<asrwt>0</asrwt>
<pdfrwt beam="1">  1        2 0.18513086E+00 0.69622846E+03</pdfrwt>
<pdfrwt beam="2">  1       -2 0.56433400E-01 0.69622846E+03</pdfrwt>
<totfact> 0.56808967E+01</totfact>
</mgrwt>
</event>
<event>
 4    1  0.5223852E-007  0.1945366E+04  0.7818608E-02  0.8646120E-01
          2   -1    0    0  501    0  0.00000000000E+00  0.00000000000E+00  0.30437192915E+04  0.30437192915E+04  0.25500000000E-02 0. -1.
         -2   -1    0    0    0  501 -0.00000000000E+00 -0.00000000000E+00 -0.14006551480E+04  0.14006551480E+04  0.25500000000E-02 0.  1.
    8880023    1    1    2    0    0 -0.12362141646E+04 -0.13499673736E+04  0.17329895286E+04  0.26053215316E+04  0.65864270000E+03 0.  0.
    8880022    1    1    2    0    0  0.12362141646E+04  0.13499673736E+04 -0.89925385120E+02  0.18390529080E+04  0.15294330000E+03 0.  0.
<mgrwt>
<rscale>  0 0.19176508E+04</rscale>
<asrwt>0</asrwt>
<pdfrwt beam="1">  1        2 0.46826450E+00 0.19453657E+04</pdfrwt>
<pdfrwt beam="2">  1       -2 0.21548541E+00 0.19453657E+04</pdfrwt>
<totfact> 0.15468513E-01</totfact>
</mgrwt>
</event>
<event>
 4    1  0.5223852E-007  0.8938915E+03  0.7818608E-02  0.9535910E-01
          2   -1    0    0  501    0  0.00000000000E+00  0.00000000000E+00  0.56291801862E+03  0.56291801863E+03  0.25500000000E-02 0. -1.
         -2   -1    0    0    0  501 -0.00000000000E+00 -0.00000000000E+00 -0.11936929519E+04  0.11936929519E+04  0.25500000000E-02 0.  1.
    8880023    1    1    2    0    0 -0.29820050478E+03  0.52565037789E+03 -0.69167561805E+03  0.11302465340E+04  0.65864270000E+03 0.  1.
    8880022    1    1    2    0    0  0.29820050478E+03 -0.52565037789E+03  0.60900684812E+02  0.62636443645E+03  0.15294330000E+03 0.  0.
<mgrwt>
<rscale>  0 0.81687339E+03</rscale>
<asrwt>0</asrwt>
<pdfrwt beam="1">  1        2 0.86602772E-01 0.89389153E+03</pdfrwt>
<pdfrwt beam="2">  1       -2 0.18364507E+00 0.89389153E+03</pdfrwt>
<totfact> 0.91938684E+00</totfact>
</mgrwt>
</event>
<event>
 4    1  0.5223852E-007  0.9339146E+03  0.7818608E-02  0.9473645E-01
          2   -1    0    0  501    0  0.00000000000E+00  0.00000000000E+00  0.21461975538E+04  0.21461975538E+04  0.25500000000E-02 0. -1.
         -2   -1    0    0    0  501 -0.00000000000E+00 -0.00000000000E+00 -0.32756438579E+03  0.32756438580E+03  0.25500000000E-02 0.  1.
    8880023    1    1    2    0    0  0.29569142872E+02  0.66144683077E+03  0.13751913355E+04  0.16623319944E+04  0.65864270000E+03 0.  0.
    8880022    1    1    2    0    0 -0.29569142872E+02 -0.66144683077E+03  0.44344183255E+03  0.81142994523E+03  0.15294330000E+03 0.  0.
<mgrwt>
<rscale>  0 0.86255046E+03</rscale>
<asrwt>0</asrwt>
<pdfrwt beam="1">  1        2 0.33018424E+00 0.93391458E+03</pdfrwt>
<pdfrwt beam="2">  1       -2 0.50394520E-01 0.93391458E+03</pdfrwt>
<totfact> 0.20890899E+01</totfact>
</mgrwt>
</event>
<event>
 4    1  0.5223852E-007  0.6654069E+03  0.7818608E-02  0.1019194E+00
         -2   -1    0    0    0  501 -0.00000000000E+00  0.00000000000E+00  0.87269975247E+02  0.87269975285E+02  0.25500000000E-02 0.  1.
          2   -1    0    0  501    0  0.00000000000E+00 -0.00000000000E+00 -0.24666795623E+04  0.24666795623E+04  0.25500000000E-02 0. -1.
    8880023    1    1    2    0    0  0.89174354547E+02 -0.31686312861E+02 -0.13077501326E+04  0.14673025262E+04  0.65864270000E+03 0.  1.
    8880022    1    1    2    0    0 -0.89174354547E+02  0.31686312861E+02 -0.10716594544E+04  0.10866470113E+04  0.15294330000E+03 0. -1.
<mgrwt>
<rscale>  0 0.47978421E+03</rscale>
<asrwt>0</asrwt>
<pdfrwt beam="1">  1        2 0.37948911E+00 0.66540686E+03</pdfrwt>
<pdfrwt beam="2">  1       -2 0.13426152E-01 0.66540686E+03</pdfrwt>
<totfact> 0.16082447E+02</totfact>
</mgrwt>
</event>
<event>
 4    1  0.5223852E-007  0.6855284E+03  0.7818608E-02  0.1006355E+00
         -2   -1    0    0    0  501 -0.00000000000E+00  0.00000000000E+00  0.73968720213E+03  0.73968720214E+03  0.25500000000E-02 0.  1.
          2   -1    0    0  501    0  0.00000000000E+00 -0.00000000000E+00 -0.47733192103E+03  0.47733192104E+03  0.25500000000E-02 0. -1.
    8880023    1    1    2    0    0 -0.18975906639E+03 -0.11423926769E+02  0.52130921298E+03  0.86122732840E+03  0.65864270000E+03 0.  1.
    8880022    1    1    2    0    0  0.18975906639E+03  0.11423926769E+02 -0.25895393188E+03  0.35579179478E+03  0.15294330000E+03 0.  0.
<mgrwt>
<rscale>  0 0.52949479E+03</rscale>
<asrwt>0</asrwt>
<pdfrwt beam="1">  1        2 0.73435681E-01 0.68552842E+03</pdfrwt>
<pdfrwt beam="2">  1       -2 0.11379803E+00 0.68552842E+03</pdfrwt>
<totfact> 0.39969576E+01</totfact>
</mgrwt>
</event>
<event>
 4    1  0.5223852E-007  0.9384565E+03  0.7818608E-02  0.9466921E-01
         -2   -1    0    0    0  501 -0.00000000000E+00  0.00000000000E+00  0.13720734828E+04  0.13720734828E+04  0.25500000000E-02 0.  1.
          2   -1    0    0  501    0  0.00000000000E+00 -0.00000000000E+00 -0.52447878424E+03  0.52447878424E+03  0.25500000000E-02 0. -1.
    8880023    1    1    2    0    0  0.24177126872E+03 -0.62324718687E+03  0.21324801975E+03  0.96238003227E+03  0.65864270000E+03 0.  0.
    8880022    1    1    2    0    0 -0.24177126872E+03  0.62324718687E+03  0.63434667886E+03  0.93417223482E+03  0.15294330000E+03 0.  0.
<mgrwt>
<rscale>  0 0.86767166E+03</rscale>
<asrwt>0</asrwt>
<pdfrwt beam="1">  1        2 0.80689044E-01 0.93845650E+03</pdfrwt>
<pdfrwt beam="2">  1       -2 0.21108823E+00 0.93845650E+03</pdfrwt>
<totfact> 0.65705282E+00</totfact>
</mgrwt>
</event>
<event>
 4    1  0.5223852E-007  0.6710636E+03  0.7818608E-02  0.1014912E+00
          2   -1    0    0  501    0  0.00000000000E+00  0.00000000000E+00  0.89684441463E+03  0.89684441463E+03  0.25500000000E-02 0. -1.
         -2   -1    0    0    0  501 -0.00000000000E+00 -0.00000000000E+00 -0.36338749597E+03  0.36338749598E+03  0.25500000000E-02 0.  1.
    8880023    1    1    2    0    0 -0.10286015799E+03  0.77044954410E+02 -0.20477681459E+02  0.67137595936E+03  0.65864270000E+03 0.  1.
    8880022    1    1    2    0    0  0.10286015799E+03 -0.77044954410E+02  0.55393460012E+03  0.58885595125E+03  0.15294330000E+03 0.  0.
<mgrwt>
<rscale>  0 0.49568408E+03</rscale>
<asrwt>0</asrwt>
<pdfrwt beam="1">  1        2 0.13797606E+00 0.67106359E+03</pdfrwt>
<pdfrwt beam="2">  1       -2 0.55905769E-01 0.67106359E+03</pdfrwt>
<totfact> 0.90249815E+01</totfact>
</mgrwt>
</event>
<event>
 4    1  0.5223852E-007  0.1153983E+04  0.7818608E-02  0.9203206E-01
         -2   -1    0    0    0  501 -0.00000000000E+00  0.00000000000E+00  0.36904646880E+03  0.36904646880E+03  0.25500000000E-02 0.  1.
          2   -1    0    0  501    0  0.00000000000E+00 -0.00000000000E+00 -0.43272957274E+04  0.43272957274E+04  0.25500000000E-02 0. -1.
    8880023    1    1    2    0    0  0.45147442095E+03  0.83308895119E+03 -0.82281495056E+03  0.14172864927E+04  0.65864270000E+03 0.  1.
    8880022    1    1    2    0    0 -0.45147442095E+03 -0.83308895119E+03 -0.31354343080E+04  0.32790557035E+04  0.15294330000E+03 0.  0.
<mgrwt>
<rscale>  0 0.11020396E+04</rscale>
<asrwt>0</asrwt>
<pdfrwt beam="1">  1        2 0.66573777E+00 0.11539829E+04</pdfrwt>
<pdfrwt beam="2">  1       -2 0.56776383E-01 0.11539829E+04</pdfrwt>
<totfact> 0.54131088E-01</totfact>
</mgrwt>
</event>
<event>
 4    1  0.5223852E-007  0.9130248E+03  0.7818608E-02  0.9505438E-01
         -2   -1    0    0    0  501 -0.00000000000E+00  0.00000000000E+00  0.96419274705E+03  0.96419274706E+03  0.25500000000E-02 0.  1.
          2   -1    0    0  501    0  0.00000000000E+00 -0.00000000000E+00 -0.10821189402E+04  0.10821189402E+04  0.25500000000E-02 0. -1.
    8880023    1    1    2    0    0 -0.27606505993E+03  0.56885157617E+03  0.58828727726E+03  0.10861381864E+04  0.65864270000E+03 0.  0.
    8880022    1    1    2    0    0  0.27606505993E+03 -0.56885157617E+03 -0.70621347039E+03  0.96017350089E+03  0.15294330000E+03 0. -1.
<mgrwt>
<rscale>  0 0.83884086E+03</rscale>
<asrwt>0</asrwt>
<pdfrwt beam="1">  1        2 0.16647984E+00 0.91302477E+03</pdfrwt>
<pdfrwt beam="2">  1       -2 0.14833735E+00 0.91302477E+03</pdfrwt>
<totfact> 0.68975506E+00</totfact>
</mgrwt>
</event>
<event>
 4    1  0.5223852E-007  0.7168107E+03  0.7818608E-02  0.9933529E-01
         -2   -1    0    0    0  501 -0.00000000000E+00  0.00000000000E+00  0.25680129401E+03  0.25680129402E+03  0.25500000000E-02 0.  1.
          2   -1    0    0  501    0  0.00000000000E+00 -0.00000000000E+00 -0.14189358391E+04  0.14189358391E+04  0.25500000000E-02 0. -1.
    8880023    1    1    2    0    0  0.12820832597E+03 -0.25213096119E+03 -0.34080318232E+03  0.79370297453E+03  0.65864270000E+03 0.  1.
    8880022    1    1    2    0    0 -0.12820832597E+03  0.25213096119E+03 -0.82133136277E+03  0.88203415859E+03  0.15294330000E+03 0.  0.
<mgrwt>
<rscale>  0 0.58663495E+03</rscale>
<asrwt>0</asrwt>
<pdfrwt beam="1">  1        2 0.21829782E+00 0.71681072E+03</pdfrwt>
<pdfrwt beam="2">  1       -2 0.39507892E-01 0.71681072E+03</pdfrwt>
<totfact> 0.87335015E+01</totfact>
</mgrwt>
</event>
<event>
 4    1  0.5223852E-007  0.9070712E+03  0.7818608E-02  0.9514774E-01
          2   -1    0    0  501    0  0.00000000000E+00  0.00000000000E+00  0.13305595687E+04  0.13305595687E+04  0.25500000000E-02 0. -1.
         -2   -1    0    0    0  501 -0.00000000000E+00 -0.00000000000E+00 -0.54434569345E+03  0.54434569346E+03  0.25500000000E-02 0.  1.
    8880023    1    1    2    0    0  0.88230306305E+02  0.61740054055E+03  0.65232569041E+02  0.90941382700E+03  0.65864270000E+03 0.  1.
    8880022    1    1    2    0    0 -0.88230306305E+02 -0.61740054055E+03  0.72098130616E+03  0.96549143511E+03  0.15294330000E+03 0. -1.
<mgrwt>
<rscale>  0 0.83203303E+03</rscale>
<asrwt>0</asrwt>
<pdfrwt beam="1">  1        2 0.20470147E+00 0.90707123E+03</pdfrwt>
<pdfrwt beam="2">  1       -2 0.83745492E-01 0.90707123E+03</pdfrwt>
<totfact> 0.19863202E+01</totfact>
</mgrwt>
</event>
<event>
 4    1  0.5223852E-007  0.7265472E+03  0.7818608E-02  0.9901025E-01
          2   -1    0    0  501    0  0.00000000000E+00  0.00000000000E+00  0.43182502904E+03  0.43182502905E+03  0.25500000000E-02 0. -1.
         -2   -1    0    0    0  501 -0.00000000000E+00 -0.00000000000E+00 -0.96567195188E+03  0.96567195189E+03  0.25500000000E-02 0.  1.
    8880023    1    1    2    0    0  0.30656997657E+03  0.86852261546E+01 -0.70679111258E+03  0.10136194882E+04  0.65864270000E+03 0.  1.
    8880022    1    1    2    0    0 -0.30656997657E+03 -0.86852261546E+01  0.17294418974E+03  0.38387749278E+03  0.15294330000E+03 0. -1.
<mgrwt>
<rscale>  0 0.60211649E+03</rscale>
<asrwt>0</asrwt>
<pdfrwt beam="1">  1        2 0.66434620E-01 0.72654717E+03</pdfrwt>
<pdfrwt beam="2">  1       -2 0.14856491E+00 0.72654717E+03</pdfrwt>
<totfact> 0.22742898E+01</totfact>
</mgrwt>
</event>
<event>
 4    1  0.5223852E-007  0.8746083E+03  0.7818608E-02  0.9568088E-01
          2   -1    0    0  501    0  0.00000000000E+00  0.00000000000E+00  0.49936452507E+04  0.49936452507E+04  0.25500000000E-02 0. -1.
         -2   -1    0    0    0  501 -0.00000000000E+00 -0.00000000000E+00 -0.12466714752E+03  0.12466714755E+03  0.25500000000E-02 0.  1.
    8880023    1    1    2    0    0 -0.23274609960E+03  0.52626875617E+03  0.19199185111E+04  0.21097456828E+04  0.65864270000E+03 0.  1.
    8880022    1    1    2    0    0  0.23274609960E+03 -0.52626875617E+03  0.29490595920E+04  0.30085667154E+04  0.15294330000E+03 0.  0.
<mgrwt>
<rscale>  0 0.79444802E+03</rscale>
<asrwt>0</asrwt>
<pdfrwt beam="1">  1        2 0.76825303E+00 0.87460834E+03</pdfrwt>
<pdfrwt beam="2">  1       -2 0.19179563E-01 0.87460834E+03</pdfrwt>
<totfact> 0.91152952E-01</totfact>
</mgrwt>
</event>
<event>
 4    1  0.5223852E-007  0.6755285E+03  0.7818608E-02  0.1011975E+00
         -2   -1    0    0    0  501 -0.00000000000E+00  0.00000000000E+00  0.87461475138E+03  0.87461475139E+03  0.25500000000E-02 0.  1.
          2   -1    0    0  501    0  0.00000000000E+00 -0.00000000000E+00 -0.55345894736E+03  0.55345894737E+03  0.25500000000E-02 0. -1.
    8880023    1    1    2    0    0  0.65916665775E+02 -0.13484612837E+03  0.71254253601E+03  0.98186330874E+03  0.65864270000E+03 0.  1.
    8880022    1    1    2    0    0 -0.65916665775E+02  0.13484612837E+03 -0.39138673199E+03  0.44621039001E+03  0.15294330000E+03 0.  0.
<mgrwt>
<rscale>  0 0.50697102E+03</rscale>
<asrwt>0</asrwt>
<pdfrwt beam="1">  1        2 0.85147531E-01 0.67552845E+03</pdfrwt>
<pdfrwt beam="2">  1       -2 0.13455611E+00 0.67552845E+03</pdfrwt>
<totfact> 0.22174952E+01</totfact>
</mgrwt>
</event>
<event>
 4    1  0.5223852E-007  0.7277882E+03  0.7818608E-02  0.9897063E-01
          2   -1    0    0  501    0  0.00000000000E+00  0.00000000000E+00  0.43942689512E+03  0.43942689513E+03  0.25500000000E-02 0. -1.
         -2   -1    0    0    0  501 -0.00000000000E+00 -0.00000000000E+00 -0.12271958639E+04  0.12271958639E+04  0.25500000000E-02 0.  1.
    8880023    1    1    2    0    0  0.28305089554E+03 -0.12548989293E+03 -0.10181295476E+04  0.12515044965E+04  0.65864270000E+03 0.  1.
    8880022    1    1    2    0    0 -0.28305089554E+03  0.12548989293E+03  0.23036057878E+03  0.41511826262E+03  0.15294330000E+03 0.  0.
<mgrwt>
<rscale>  0 0.60403811E+03</rscale>
<asrwt>0</asrwt>
<pdfrwt beam="1">  1        2 0.67604139E-01 0.72778824E+03</pdfrwt>
<pdfrwt beam="2">  1       -2 0.18879936E+00 0.72778824E+03</pdfrwt>
<totfact> 0.11505721E+01</totfact>
</mgrwt>
</event>
<event>
 4    1  0.5223852E-007  0.6609954E+03  0.7818608E-02  0.1023159E+00
          2   -1    0    0  501    0  0.00000000000E+00  0.00000000000E+00  0.15926613654E+04  0.15926613654E+04  0.25500000000E-02 0. -1.
         -2   -1    0    0    0  501 -0.00000000000E+00 -0.00000000000E+00 -0.11490543352E+03  0.11490543355E+03  0.25500000000E-02 0.  1.
    8880023    1    1    2    0    0  0.12041948075E+02 -0.54403565983E+02  0.96563650247E+03  0.11702003323E+04  0.65864270000E+03 0.  1.
    8880022    1    1    2    0    0 -0.12041948075E+02  0.54403565983E+02  0.51211942942E+03  0.53736646668E+03  0.15294330000E+03 0.  0.
<mgrwt>
<rscale>  0 0.46563672E+03</rscale>
<asrwt>0</asrwt>
<pdfrwt beam="1">  1        2 0.24502480E+00 0.66099543E+03</pdfrwt>
<pdfrwt beam="2">  1       -2 0.17677760E-01 0.66099543E+03</pdfrwt>
<totfact> 0.30422174E+02</totfact>
</mgrwt>
</event>
<event>
 4    1  0.5223852E-007  0.8037177E+03  0.7818608E-02  0.9702815E-01
          2   -1    0    0  501    0  0.00000000000E+00  0.00000000000E+00  0.55831571478E+03  0.55831571479E+03  0.25500000000E-02 0. -1.
         -2   -1    0    0    0  501 -0.00000000000E+00 -0.00000000000E+00 -0.18637064105E+04  0.18637064105E+04  0.25500000000E-02 0.  1.
    8880023    1    1    2    0    0  0.42066135128E+03  0.18760572411E+03 -0.16442043119E+04  0.18301283850E+04  0.65864270000E+03 0.  0.
    8880022    1    1    2    0    0 -0.42066135128E+03 -0.18760572411E+03  0.33881361620E+03  0.59189374023E+03  0.15294330000E+03 0. -1.
<mgrwt>
<rscale>  0 0.70849458E+03</rscale>
<asrwt>0</asrwt>
<pdfrwt beam="1">  1        2 0.85894726E-01 0.80371767E+03</pdfrwt>
<pdfrwt beam="2">  1       -2 0.28672406E+00 0.80371767E+03</pdfrwt>
<totfact> 0.21346488E+00</totfact>
</mgrwt>
</event>
<event>
 4    1  0.5223852E-007  0.9890753E+03  0.7818608E-02  0.9395992E-01
          2   -1    0    0  501    0  0.00000000000E+00  0.00000000000E+00  0.25016534690E+04  0.25016534690E+04  0.25500000000E-02 0. -1.
         -2   -1    0    0    0  501 -0.00000000000E+00 -0.00000000000E+00 -0.47500813149E+03  0.47500813149E+03  0.25500000000E-02 0.  1.
    8880023    1    1    2    0    0 -0.61778105252E+03  0.40349270428E+03  0.21167498482E+03  0.10114723411E+04  0.65864270000E+03 0.  1.
    8880022    1    1    2    0    0  0.61778105252E+03 -0.40349270428E+03  0.18149703527E+04  0.19651892594E+04  0.15294330000E+03 0.  0.
<mgrwt>
<rscale>  0 0.92406254E+03</rscale>
<asrwt>0</asrwt>
<pdfrwt beam="1">  1        2 0.38486977E+00 0.98907532E+03</pdfrwt>
<pdfrwt beam="2">  1       -2 0.73078174E-01 0.98907532E+03</pdfrwt>
<totfact> 0.59468033E+00</totfact>
</mgrwt>
</event>
<event>
 4    1  0.5223852E-007  0.8734638E+03  0.7818608E-02  0.9570049E-01
         -2   -1    0    0    0  501 -0.00000000000E+00  0.00000000000E+00  0.19174879857E+04  0.19174879857E+04  0.25500000000E-02 0.  1.
          2   -1    0    0  501    0  0.00000000000E+00 -0.00000000000E+00 -0.10751909279E+04  0.10751909279E+04  0.25500000000E-02 0. -1.
    8880023    1    1    2    0    0  0.45741768726E+03  0.34626262222E+03  0.17222902227E+04  0.19311195099E+04  0.65864270000E+03 0.  1.
    8880022    1    1    2    0    0 -0.45741768726E+03 -0.34626262222E+03 -0.87999316491E+03  0.10615594037E+04  0.15294330000E+03 0.  0.
<mgrwt>
<rscale>  0 0.79310685E+03</rscale>
<asrwt>0</asrwt>
<pdfrwt beam="1">  1        2 0.16541399E+00 0.87346377E+03</pdfrwt>
<pdfrwt beam="2">  1       -2 0.29499815E+00 0.87346377E+03</pdfrwt>
<totfact> 0.78749543E-01</totfact>
</mgrwt>
</event>
<event>
 4    1  0.5223852E-007  0.6731100E+03  0.7818608E-02  0.1013525E+00
          2   -1    0    0  501    0  0.00000000000E+00  0.00000000000E+00  0.40483076812E+04  0.40483076812E+04  0.25500000000E-02 0. -1.
         -2   -1    0    0    0  501 -0.00000000000E+00 -0.00000000000E+00 -0.94294721303E+02  0.94294721337E+02  0.25500000000E-02 0.  1.
    8880023    1    1    2    0    0 -0.13867101433E+03  0.61002883174E+01  0.11613745599E+04  0.13423367456E+04  0.65864270000E+03 0.  1.
    8880022    1    1    2    0    0  0.13867101433E+03 -0.61002883174E+01  0.27926383999E+04  0.28002656570E+04  0.15294330000E+03 0.  0.
<mgrwt>
<rscale>  0 0.50097407E+03</rscale>
<asrwt>0</asrwt>
<pdfrwt beam="1">  1        2 0.62281651E+00 0.67311000E+03</pdfrwt>
<pdfrwt beam="2">  1       -2 0.14506882E-01 0.67311000E+03</pdfrwt>
<totfact> 0.12991235E+01</totfact>
</mgrwt>
</event>
<event>
 4    1  0.5223852E-007  0.6746665E+03  0.7818608E-02  0.1012517E+00
          2   -1    0    0  501    0  0.00000000000E+00  0.00000000000E+00  0.12568976333E+04  0.12568976333E+04  0.25500000000E-02 0. -1.
         -2   -1    0    0    0  501 -0.00000000000E+00 -0.00000000000E+00 -0.36726628920E+03  0.36726628921E+03  0.25500000000E-02 0.  1.
    8880023    1    1    2    0    0 -0.16431129981E+02  0.14524011033E+03 -0.35063606946E+02  0.67557703815E+03  0.65864270000E+03 0.  1.
    8880022    1    1    2    0    0  0.16431129981E+02 -0.14524011033E+03  0.92469495102E+03  0.94858688433E+03  0.15294330000E+03 0.  0.
<mgrwt>
<rscale>  0 0.50486313E+03</rscale>
<asrwt>0</asrwt>
<pdfrwt beam="1">  1        2 0.19336887E+00 0.67466649E+03</pdfrwt>
<pdfrwt beam="2">  1       -2 0.56502506E-01 0.67466649E+03</pdfrwt>
<totfact> 0.52837349E+01</totfact>
</mgrwt>
</event>
<event>
 4    1  0.5223852E-007  0.9039064E+03  0.7818608E-02  0.9519790E-01
          2   -1    0    0  501    0  0.00000000000E+00  0.00000000000E+00  0.34117575035E+03  0.34117575036E+03  0.25500000000E-02 0. -1.
         -2   -1    0    0    0  501 -0.00000000000E+00 -0.00000000000E+00 -0.18792195695E+04  0.18792195695E+04  0.25500000000E-02 0.  1.
    8880023    1    1    2    0    0 -0.17601743015E+03  0.59351019744E+03 -0.59560238559E+03  0.10824919853E+04  0.65864270000E+03 0.  1.
    8880022    1    1    2    0    0  0.17601743015E+03 -0.59351019744E+03 -0.94244143351E+03  0.11379033346E+04  0.15294330000E+03 0. -1.
<mgrwt>
<rscale>  0 0.82840414E+03</rscale>
<asrwt>0</asrwt>
<pdfrwt beam="1">  1        2 0.52488578E-01 0.90390635E+03</pdfrwt>
<pdfrwt beam="2">  1       -2 0.28911070E+00 0.90390635E+03</pdfrwt>
<totfact> 0.35857507E+00</totfact>
</mgrwt>
</event>
<event>
 4    1  0.5223852E-007  0.7593226E+03  0.7818608E-02  0.9806864E-01
          2   -1    0    0  501    0  0.00000000000E+00  0.00000000000E+00  0.19853852108E+04  0.19853852108E+04  0.25500000000E-02 0. -1.
         -2   -1    0    0    0  501 -0.00000000000E+00 -0.00000000000E+00 -0.29471461620E+03  0.29471461621E+03  0.25500000000E-02 0.  1.
    8880023    1    1    2    0    0 -0.13373635653E+03 -0.35337694049E+03  0.27608442103E+03  0.80795636573E+03  0.65864270000E+03 0.  1.
    8880022    1    1    2    0    0  0.13373635653E+03  0.35337694049E+03  0.14145861736E+04  0.14721434613E+04  0.15294330000E+03 0.  0.
<mgrwt>
<rscale>  0 0.64995467E+03</rscale>
<asrwt>0</asrwt>
<pdfrwt beam="1">  1        2 0.30544387E+00 0.75932265E+03</pdfrwt>
<pdfrwt beam="2">  1       -2 0.45340711E-01 0.75932265E+03</pdfrwt>
<totfact> 0.32365892E+01</totfact>
</mgrwt>
</event>
<event>
 4    1  0.5223852E-007  0.8821119E+03  0.7818608E-02  0.9555380E-01
         -2   -1    0    0    0  501 -0.00000000000E+00  0.00000000000E+00  0.38866987572E+03  0.38866987573E+03  0.25500000000E-02 0.  1.
          2   -1    0    0  501    0  0.00000000000E+00 -0.00000000000E+00 -0.33591266456E+04  0.33591266457E+04  0.25500000000E-02 0. -1.
    8880023    1    1    2    0    0 -0.51050092729E+03 -0.28930963933E+03 -0.19046609884E+03  0.90244047186E+03  0.65864270000E+03 0.  1.
    8880022    1    1    2    0    0  0.51050092729E+03  0.28930963933E+03 -0.27799906711E+04  0.28453560495E+04  0.15294330000E+03 0.  0.
<mgrwt>
<rscale>  0 0.80321148E+03</rscale>
<asrwt>0</asrwt>
<pdfrwt beam="1">  1        2 0.51678869E+00 0.88211194E+03</pdfrwt>
<pdfrwt beam="2">  1       -2 0.59795368E-01 0.88211194E+03</pdfrwt>
<totfact> 0.27923405E+00</totfact>
</mgrwt>
</event>
<event>
 4    1  0.5223852E-007  0.9126567E+03  0.7818608E-02  0.9506012E-01
         -2   -1    0    0    0  501 -0.00000000000E+00  0.00000000000E+00  0.38094706402E+03  0.38094706403E+03  0.25500000000E-02 0.  1.
          2   -1    0    0  501    0  0.00000000000E+00 -0.00000000000E+00 -0.22036276563E+04  0.22036276563E+04  0.25500000000E-02 0. -1.
    8880023    1    1    2    0    0 -0.43580678107E+02  0.63026401141E+03 -0.35477572299E+03  0.97918742816E+03  0.65864270000E+03 0.  0.
    8880022    1    1    2    0    0  0.43580678107E+02 -0.63026401141E+03 -0.14679048693E+04  0.16053872922E+04  0.15294330000E+03 0.  0.
<mgrwt>
<rscale>  0 0.83842063E+03</rscale>
<asrwt>0</asrwt>
<pdfrwt beam="1">  1        2 0.33901963E+00 0.91265667E+03</pdfrwt>
<pdfrwt beam="2">  1       -2 0.58607242E-01 0.91265667E+03</pdfrwt>
<totfact> 0.14225834E+01</totfact>
</mgrwt>
</event>
<event>
 4    1  0.5223852E-007  0.7245626E+03  0.7818608E-02  0.9907440E-01
          2   -1    0    0  501    0  0.00000000000E+00  0.00000000000E+00  0.40408033541E+03  0.40408033542E+03  0.25500000000E-02 0. -1.
         -2   -1    0    0    0  501 -0.00000000000E+00 -0.00000000000E+00 -0.13670814295E+04  0.13670814295E+04  0.25500000000E-02 0.  1.
    8880023    1    1    2    0    0  0.20432151253E+03  0.22233624000E+03 -0.11686951892E+04  0.13750779380E+04  0.65864270000E+03 0.  0.
    8880022    1    1    2    0    0 -0.20432151253E+03 -0.22233624000E+03  0.20569409516E+03  0.39608382686E+03  0.15294330000E+03 0. -1.
<mgrwt>
<rscale>  0 0.59902077E+03</rscale>
<asrwt>0</asrwt>
<pdfrwt beam="1">  1        2 0.62166206E-01 0.72456255E+03</pdfrwt>
<pdfrwt beam="2">  1       -2 0.21032022E+00 0.72456255E+03</pdfrwt>
<totfact> 0.91662698E+00</totfact>
</mgrwt>
</event>
<event>
 4    1  0.5223852E-007  0.6716528E+03  0.7818608E-02  0.1014505E+00
          2   -1    0    0  501    0  0.00000000000E+00  0.00000000000E+00  0.26886221922E+03  0.26886221923E+03  0.25500000000E-02 0. -1.
         -2   -1    0    0    0  501 -0.00000000000E+00 -0.00000000000E+00 -0.77627275208E+03  0.77627275208E+03  0.25500000000E-02 0.  1.
    8880023    1    1    2    0    0  0.37813986164E+02 -0.12600560648E+03 -0.51006698517E+03  0.84337764141E+03  0.65864270000E+03 0.  1.
    8880022    1    1    2    0    0 -0.37813986164E+02  0.12600560648E+03  0.26564523119E+01  0.20175732990E+03  0.15294330000E+03 0.  0.
<mgrwt>
<rscale>  0 0.49722912E+03</rscale>
<asrwt>0</asrwt>
<pdfrwt beam="1">  1        2 0.41363419E-01 0.67165282E+03</pdfrwt>
<pdfrwt beam="2">  1       -2 0.11942658E+00 0.67165282E+03</pdfrwt>
<totfact> 0.67610097E+01</totfact>
</mgrwt>
</event>
<event>
 4    1  0.5223852E-007  0.1387204E+04  0.7818608E-02  0.8993690E-01
         -2   -1    0    0    0  501 -0.00000000000E+00  0.00000000000E+00  0.10969718652E+04  0.10969718652E+04  0.25500000000E-02 0.  1.
          2   -1    0    0  501    0  0.00000000000E+00 -0.00000000000E+00 -0.26418725764E+04  0.26418725764E+04  0.25500000000E-02 0. -1.
    8880023    1    1    2    0    0  0.95720203125E+03  0.75781824109E+03 -0.19939700801E+04  0.24290432482E+04  0.65864270000E+03 0. -1.
    8880022    1    1    2    0    0 -0.95720203125E+03 -0.75781824109E+03  0.44906936891E+03  0.13098011934E+04  0.15294330000E+03 0.  0.
<mgrwt>
<rscale>  0 0.13462258E+04</rscale>
<asrwt>0</asrwt>
<pdfrwt beam="1">  1        2 0.40644194E+00 0.13872038E+04</pdfrwt>
<pdfrwt beam="2">  1       -2 0.16876490E+00 0.13872038E+04</pdfrwt>
<totfact> 0.59737359E-01</totfact>
</mgrwt>
</event>
<event>
 4    1  0.5223852E-007  0.8856100E+03  0.7818608E-02  0.9549539E-01
         -2   -1    0    0    0  501 -0.00000000000E+00  0.00000000000E+00  0.28580793372E+03  0.28580793373E+03  0.25500000000E-02 0.  1.
          2   -1    0    0  501    0  0.00000000000E+00 -0.00000000000E+00 -0.22394236987E+04  0.22394236987E+04  0.25500000000E-02 0. -1.
    8880023    1    1    2    0    0 -0.40341501504E+03  0.43330257749E+03 -0.69433221055E+03  0.11253453794E+04  0.65864270000E+03 0.  1.
    8880022    1    1    2    0    0  0.40341501504E+03 -0.43330257749E+03 -0.12592835544E+04  0.13998862531E+04  0.15294330000E+03 0.  0.
<mgrwt>
<rscale>  0 0.80728026E+03</rscale>
<asrwt>0</asrwt>
<pdfrwt beam="1">  1        2 0.34452671E+00 0.88560996E+03</pdfrwt>
<pdfrwt beam="2">  1       -2 0.43970453E-01 0.88560996E+03</pdfrwt>
<totfact> 0.24555954E+01</totfact>
</mgrwt>
</event>
<event>
 4    1  0.5223852E-007  0.7955407E+03  0.7818608E-02  0.9720522E-01
          2   -1    0    0  501    0  0.00000000000E+00  0.00000000000E+00  0.25674618202E+04  0.25674618202E+04  0.25500000000E-02 0. -1.
         -2   -1    0    0    0  501 -0.00000000000E+00 -0.00000000000E+00 -0.34178189959E+03  0.34178189960E+03  0.25500000000E-02 0.  1.
    8880023    1    1    2    0    0  0.21746415092E+03 -0.38959485453E+03  0.18768419514E+03  0.81738018754E+03  0.65864270000E+03 0.  1.
    8880022    1    1    2    0    0 -0.21746415092E+03  0.38959485453E+03  0.20379957254E+04  0.20918635322E+04  0.15294330000E+03 0.  0.
<mgrwt>
<rscale>  0 0.69807948E+03</rscale>
<asrwt>0</asrwt>
<pdfrwt beam="1">  1        2 0.39499411E+00 0.79554071E+03</pdfrwt>
<pdfrwt beam="2">  1       -2 0.52581833E-01 0.79554071E+03</pdfrwt>
<totfact> 0.11311739E+01</totfact>
</mgrwt>
</event>
<event>
 4    1  0.5223852E-007  0.6906424E+03  0.7818608E-02  0.1003849E+00
          2   -1    0    0  501    0  0.00000000000E+00  0.00000000000E+00  0.16159630852E+04  0.16159630852E+04  0.25500000000E-02 0. -1.
         -2   -1    0    0    0  501 -0.00000000000E+00 -0.00000000000E+00 -0.76229906435E+03  0.76229906435E+03  0.25500000000E-02 0.  1.
    8880023    1    1    2    0    0  0.20431566685E+03 -0.37838613002E+02 -0.59206843207E+03  0.90968779638E+03  0.65864270000E+03 0.  1.
    8880022    1    1    2    0    0 -0.20431566685E+03  0.37838613002E+02  0.14457324529E+04  0.14685743532E+04  0.15294330000E+03 0.  0.
<mgrwt>
<rscale>  0 0.53994353E+03</rscale>
<asrwt>0</asrwt>
<pdfrwt beam="1">  1        2 0.24860970E+00 0.69064235E+03</pdfrwt>
<pdfrwt beam="2">  1       -2 0.11727678E+00 0.69064235E+03</pdfrwt>
<totfact> 0.63663811E+00</totfact>
</mgrwt>
</event>
<event>
 4    1  0.5223852E-007  0.1007227E+04  0.7818608E-02  0.9372163E-01
         -2   -1    0    0    0  501 -0.00000000000E+00  0.00000000000E+00  0.17352183895E+04  0.17352183895E+04  0.25500000000E-02 0.  1.
          2   -1    0    0  501    0  0.00000000000E+00 -0.00000000000E+00 -0.96562964433E+03  0.96562964433E+03  0.25500000000E-02 0. -1.
    8880023    1    1    2    0    0 -0.71174006968E+03 -0.27225283098E+03 -0.56615340008E+03  0.11554373239E+04  0.65864270000E+03 0. -1.
    8880022    1    1    2    0    0  0.71174006968E+03  0.27225283098E+03  0.13357421453E+04  0.15454107099E+04  0.15294330000E+03 0.  0.
<mgrwt>
<rscale>  0 0.94402369E+03</rscale>
<asrwt>0</asrwt>
<pdfrwt beam="1">  1        2 0.14855841E+00 0.10072268E+04</pdfrwt>
<pdfrwt beam="2">  1       -2 0.26695668E+00 0.10072268E+04</pdfrwt>
<totfact> 0.13388883E+00</totfact>
</mgrwt>
</event>
<event>
 4    1  0.5223852E-007  0.6847496E+03  0.7818608E-02  0.1006755E+00
         -2   -1    0    0    0  501 -0.00000000000E+00  0.00000000000E+00  0.43021992672E+03  0.43021992673E+03  0.25500000000E-02 0.  1.
          2   -1    0    0  501    0  0.00000000000E+00 -0.00000000000E+00 -0.26775196394E+04  0.26775196394E+04  0.25500000000E-02 0. -1.
    8880023    1    1    2    0    0  0.15491972013E+03 -0.10522179406E+03  0.14775609351E+03  0.70050968235E+03  0.65864270000E+03 0.  1.
    8880022    1    1    2    0    0 -0.15491972013E+03  0.10522179406E+03 -0.23950558062E+04  0.24072298838E+04  0.15294330000E+03 0.  0.
<mgrwt>
<rscale>  0 0.52784854E+03</rscale>
<asrwt>0</asrwt>
<pdfrwt beam="1">  1        2 0.41192609E+00 0.68474955E+03</pdfrwt>
<pdfrwt beam="2">  1       -2 0.66187683E-01 0.68474955E+03</pdfrwt>
<totfact> 0.61417829E+00</totfact>
</mgrwt>
</event>
<event>
 4    1  0.5223852E-007  0.6694723E+03  0.7818608E-02  0.1016044E+00
          2   -1    0    0  501    0  0.00000000000E+00  0.00000000000E+00  0.16447675953E+04  0.16447675953E+04  0.25500000000E-02 0. -1.
         -2   -1    0    0    0  501 -0.00000000000E+00 -0.00000000000E+00 -0.12682870984E+03  0.12682870986E+03  0.25500000000E-02 0.  1.
    8880023    1    1    2    0    0 -0.11924601282E+03 -0.12778759776E+02  0.88628933084E+03  0.11107213388E+04  0.65864270000E+03 0.  1.
    8880022    1    1    2    0    0  0.11924601282E+03  0.12778759776E+02  0.63164955463E+03  0.66087496636E+03  0.15294330000E+03 0.  0.
<mgrwt>
<rscale>  0 0.49141609E+03</rscale>
<asrwt>0</asrwt>
<pdfrwt beam="1">  1        2 0.25304114E+00 0.66947227E+03</pdfrwt>
<pdfrwt beam="2">  1       -2 0.19512111E-01 0.66947227E+03</pdfrwt>
<totfact> 0.23996908E+02</totfact>
</mgrwt>
</event>
<event>
 4    1  0.5223852E-007  0.6678118E+03  0.7818608E-02  0.1017283E+00
         -2   -1    0    0    0  501 -0.00000000000E+00  0.00000000000E+00  0.98165523700E+02  0.98165523733E+02  0.25500000000E-02 0.  1.
          2   -1    0    0  501    0  0.00000000000E+00 -0.00000000000E+00 -0.22481112842E+04  0.22481112842E+04  0.25500000000E-02 0. -1.
    8880023    1    1    2    0    0  0.73026579094E+02 -0.82640983267E+02 -0.11596798799E+04  0.13382189819E+04  0.65864270000E+03 0.  1.
    8880022    1    1    2    0    0 -0.73026579094E+02  0.82640983267E+02 -0.99026588063E+03  0.10080578261E+04  0.15294330000E+03 0.  0.
<mgrwt>
<rscale>  0 0.48680130E+03</rscale>
<asrwt>0</asrwt>
<pdfrwt beam="1">  1        2 0.34586324E+00 0.66781181E+03</pdfrwt>
<pdfrwt beam="2">  1       -2 0.15102390E-01 0.66781181E+03</pdfrwt>
<totfact> 0.17461302E+02</totfact>
</mgrwt>
</event>
<event>
 4    1  0.5223852E-007  0.6841014E+03  0.7818608E-02  0.1007093E+00
          2   -1    0    0  501    0  0.00000000000E+00  0.00000000000E+00  0.34294295202E+04  0.34294295202E+04  0.25500000000E-02 0. -1.
         -2   -1    0    0    0  501 -0.00000000000E+00 -0.00000000000E+00 -0.76190697622E+02  0.76190697665E+02  0.25500000000E-02 0.  1.
    8880023    1    1    2    0    0 -0.17099089380E+03  0.70332487077E+02  0.16595895664E+04  0.17950577372E+04  0.65864270000E+03 0.  1.
    8880022    1    1    2    0    0  0.17099089380E+03 -0.70332487077E+02  0.16936492561E+04  0.17105624807E+04  0.15294330000E+03 0. -1.
<mgrwt>
<rscale>  0 0.52646650E+03</rscale>
<asrwt>0</asrwt>
<pdfrwt beam="1">  1        2 0.52760466E+00 0.68410142E+03</pdfrwt>
<pdfrwt beam="2">  1       -2 0.11721643E-01 0.68410142E+03</pdfrwt>
<totfact> 0.52191347E+01</totfact>
</mgrwt>
</event>
<event>
 4    1  0.5223852E-007  0.6843977E+03  0.7818608E-02  0.1006938E+00
         -2   -1    0    0    0  501 -0.00000000000E+00  0.00000000000E+00  0.17276386339E+03  0.17276386341E+03  0.25500000000E-02 0.  1.
          2   -1    0    0  501    0  0.00000000000E+00 -0.00000000000E+00 -0.15574585093E+04  0.15574585093E+04  0.25500000000E-02 0. -1.
    8880023    1    1    2    0    0  0.15061229379E+03  0.10911466836E+03 -0.60254040235E+03  0.91184166203E+03  0.65864270000E+03 0.  1.
    8880022    1    1    2    0    0 -0.15061229379E+03 -0.10911466836E+03 -0.78215424356E+03  0.81838071069E+03  0.15294330000E+03 0.  0.
<mgrwt>
<rscale>  0 0.52709977E+03</rscale>
<asrwt>0</asrwt>
<pdfrwt beam="1">  1        2 0.23960899E+00 0.68439775E+03</pdfrwt>
<pdfrwt beam="2">  1       -2 0.26579057E-01 0.68439775E+03</pdfrwt>
<totfact> 0.15446439E+02</totfact>
</mgrwt>
</event>
<event>
 4    1  0.5223852E-007  0.6617221E+03  0.7818608E-02  0.1022458E+00
         -2   -1    0    0    0  501 -0.00000000000E+00  0.00000000000E+00  0.17379414896E+03  0.17379414898E+03  0.25500000000E-02 0.  1.
          2   -1    0    0  501    0  0.00000000000E+00 -0.00000000000E+00 -0.99696920806E+03  0.99696920806E+03  0.25500000000E-02 0. -1.
    8880023    1    1    2    0    0 -0.47048627778E+02 -0.43038490813E+02 -0.60344763854E+03  0.89555856525E+03  0.65864270000E+03 0.  0.
    8880022    1    1    2    0    0  0.47048627778E+02  0.43038490813E+02 -0.21972742056E+03  0.27520479180E+03  0.15294330000E+03 0.  0.
<mgrwt>
<rscale>  0 0.46810083E+03</rscale>
<asrwt>0</asrwt>
<pdfrwt beam="1">  1        2 0.15337987E+00 0.66172207E+03</pdfrwt>
<pdfrwt beam="2">  1       -2 0.26737562E-01 0.66172207E+03</pdfrwt>
<totfact> 0.32479072E+02</totfact>
</mgrwt>
</event>
<event>
 4    1  0.5223852E-007  0.6996810E+03  0.7818608E-02  0.9998527E-01
          2   -1    0    0  501    0  0.00000000000E+00  0.00000000000E+00  0.45465812685E+03  0.45465812686E+03  0.25500000000E-02 0. -1.
         -2   -1    0    0    0  501 -0.00000000000E+00 -0.00000000000E+00 -0.11758419731E+04  0.11758419731E+04  0.25500000000E-02 0.  1.
    8880023    1    1    2    0    0  0.18564688502E+03  0.14587184253E+03 -0.10091193916E+04  0.12279558270E+04  0.65864270000E+03 0.  1.
    8880022    1    1    2    0    0 -0.18564688502E+03 -0.14587184253E+03  0.28793554536E+03  0.40254427292E+03  0.15294330000E+03 0.  0.
<mgrwt>
<rscale>  0 0.55714876E+03</rscale>
<asrwt>0</asrwt>
<pdfrwt beam="1">  1        2 0.69947405E-01 0.69968105E+03</pdfrwt>
<pdfrwt beam="2">  1       -2 0.18089876E+00 0.69968105E+03</pdfrwt>
<totfact> 0.12550772E+01</totfact>
</mgrwt>
</event>
<event>
 4    1  0.5223852E-007  0.7285142E+03  0.7818608E-02  0.9894764E-01
          2   -1    0    0  501    0  0.00000000000E+00  0.00000000000E+00  0.52562350076E+03  0.52562350077E+03  0.25500000000E-02 0. -1.
         -2   -1    0    0    0  501 -0.00000000000E+00 -0.00000000000E+00 -0.63338404346E+03  0.63338404347E+03  0.25500000000E-02 0.  1.
    8880023    1    1    2    0    0 -0.30824806376E+03  0.43656789144E+02 -0.26888013972E+03  0.77654975362E+03  0.65864270000E+03 0.  1.
    8880022    1    1    2    0    0  0.30824806376E+03 -0.43656789144E+02  0.16111959702E+03  0.38245779062E+03  0.15294330000E+03 0.  0.
<mgrwt>
<rscale>  0 0.60515726E+03</rscale>
<asrwt>0</asrwt>
<pdfrwt beam="1">  1        2 0.80865154E-01 0.72851423E+03</pdfrwt>
<pdfrwt beam="2">  1       -2 0.97443699E-01 0.72851423E+03</pdfrwt>
<totfact> 0.51679112E+01</totfact>
</mgrwt>
</event>
<event>
 4    1  0.6797939E-007  0.7512470E+03  0.7818608E-02  0.9828319E-01
          2   -1    0    0  501    0  0.00000000000E+00  0.00000000000E+00  0.16192625759E+04  0.16192625759E+04  0.25500000000E-02 0. -1.
         -2   -1    0    0    0  501 -0.00000000000E+00 -0.00000000000E+00 -0.12118086971E+04  0.12118086971E+04  0.25500000000E-02 0.  1.
    8880023    1    1    2    0    0  0.25499781151E+03 -0.25600382266E+03 -0.10672052479E+04  0.13051050106E+04  0.65864270000E+03 0.  0.
    8880022    1    1    2    0    0 -0.25499781151E+03  0.25600382266E+03  0.14746591267E+04  0.15259662624E+04  0.15294330000E+03 0.  0.
<mgrwt>
<rscale>  0 0.63864682E+03</rscale>
<asrwt>0</asrwt>
<pdfrwt beam="1">  1        2 0.24911732E+00 0.75124699E+03</pdfrwt>
<pdfrwt beam="2">  1       -2 0.18643211E+00 0.75124699E+03</pdfrwt>
<totfact> 0.18404190E+00</totfact>
</mgrwt>
</event>
<event>
 4    1  0.5223852E-007  0.9734201E+03  0.7818608E-02  0.9417189E-01
         -2   -1    0    0    0  501 -0.00000000000E+00  0.00000000000E+00  0.43248830211E+03  0.43248830212E+03  0.25500000000E-02 0.  1.
          2   -1    0    0  501    0  0.00000000000E+00 -0.00000000000E+00 -0.25059531419E+04  0.25059531419E+04  0.25500000000E-02 0. -1.
    8880023    1    1    2    0    0  0.64860164716E+03 -0.30504479250E+03 -0.29856012121E+03  0.10181771822E+04  0.65864270000E+03 0.  1.
    8880022    1    1    2    0    0 -0.64860164716E+03  0.30504479250E+03 -0.17749047185E+04  0.19202642618E+04  0.15294330000E+03 0.  0.
<mgrwt>
<rscale>  0 0.90674455E+03</rscale>
<asrwt>0</asrwt>
<pdfrwt beam="1">  1        2 0.38553124E+00 0.97342007E+03</pdfrwt>
<pdfrwt beam="2">  1       -2 0.66536663E-01 0.97342007E+03</pdfrwt>
<totfact> 0.72759881E+00</totfact>
</mgrwt>
</event>
<event>
 4    1  0.5223852E-007  0.7974363E+03  0.7818608E-02  0.9716367E-01
          2   -1    0    0  501    0  0.00000000000E+00  0.00000000000E+00  0.53030134653E+03  0.53030134654E+03  0.25500000000E-02 0. -1.
         -2   -1    0    0    0  501 -0.00000000000E+00 -0.00000000000E+00 -0.85579943237E+03  0.85579943237E+03  0.25500000000E-02 0.  1.
    8880023    1    1    2    0    0  0.41384042280E+03 -0.17558646075E+03 -0.42098889784E+03  0.90174073830E+03  0.65864270000E+03 0.  1.
    8880022    1    1    2    0    0 -0.41384042280E+03  0.17558646075E+03  0.95490812003E+02  0.48436004061E+03  0.15294330000E+03 0. -1.
<mgrwt>
<rscale>  0 0.70050623E+03</rscale>
<asrwt>0</asrwt>
<pdfrwt beam="1">  1        2 0.81584823E-01 0.79743633E+03</pdfrwt>
<pdfrwt beam="2">  1       -2 0.13166145E+00 0.79743633E+03</pdfrwt>
<totfact> 0.24387924E+01</totfact>
</mgrwt>
</event>
<event>
 4    1  0.5223852E-007  0.7579748E+03  0.7818608E-02  0.9810379E-01
          2   -1    0    0  501    0  0.00000000000E+00  0.00000000000E+00  0.58538158744E+03  0.58538158745E+03  0.25500000000E-02 0. -1.
         -2   -1    0    0    0  501 -0.00000000000E+00 -0.00000000000E+00 -0.57963568513E+03  0.57963568514E+03  0.25500000000E-02 0.  1.
    8880023    1    1    2    0    0 -0.22905888024E+03  0.29706506065E+03  0.35656190609E+02  0.75881301456E+03  0.65864270000E+03 0.  0.
    8880022    1    1    2    0    0  0.22905888024E+03 -0.29706506065E+03 -0.29910288299E+02  0.40620425802E+03  0.15294330000E+03 0. -1.
<mgrwt>
<rscale>  0 0.64808514E+03</rscale>
<asrwt>0</asrwt>
<pdfrwt beam="1">  1        2 0.90058706E-01 0.75797482E+03</pdfrwt>
<pdfrwt beam="2">  1       -2 0.89174720E-01 0.75797482E+03</pdfrwt>
<totfact> 0.55796618E+01</totfact>
</mgrwt>
</event>
<event>
 4    1  0.5223852E-007  0.6665071E+03  0.7818608E-02  0.1018301E+00
          2   -1    0    0  501    0  0.00000000000E+00  0.00000000000E+00  0.81481537418E+03  0.81481537418E+03  0.25500000000E-02 0. -1.
         -2   -1    0    0    0  501 -0.00000000000E+00 -0.00000000000E+00 -0.66517041269E+03  0.66517041270E+03  0.25500000000E-02 0.  1.
    8880023    1    1    2    0    0  0.72990665693E+02  0.71371025810E+02 -0.48173424667E+03  0.82237433769E+03  0.65864270000E+03 0.  1.
    8880022    1    1    2    0    0 -0.72990665693E+02 -0.71371025810E+02  0.63137920816E+03  0.65761144919E+03  0.15294330000E+03 0.  0.
<mgrwt>
<rscale>  0 0.48304680E+03</rscale>
<asrwt>0</asrwt>
<pdfrwt beam="1">  1        2 0.12535621E+00 0.66650706E+03</pdfrwt>
<pdfrwt beam="2">  1       -2 0.10233391E+00 0.66650706E+03</pdfrwt>
<totfact> 0.26873815E+01</totfact>
</mgrwt>
</event>
<event>
 4    1  0.5223852E-007  0.8634026E+03  0.7818608E-02  0.9587539E-01
         -2   -1    0    0    0  501 -0.00000000000E+00  0.00000000000E+00  0.92927871496E+03  0.92927871496E+03  0.25500000000E-02 0.  1.
          2   -1    0    0  501    0  0.00000000000E+00 -0.00000000000E+00 -0.89568169749E+03  0.89568169749E+03  0.25500000000E-02 0. -1.
    8880023    1    1    2    0    0  0.15430237227E+03  0.53651145953E+03  0.57098787809E+03  0.10351285580E+04  0.65864270000E+03 0.  0.
    8880022    1    1    2    0    0 -0.15430237227E+03 -0.53651145953E+03 -0.53739086061E+03  0.78983185450E+03  0.15294330000E+03 0.  0.
<mgrwt>
<rscale>  0 0.78126426E+03</rscale>
<asrwt>0</asrwt>
<pdfrwt beam="1">  1        2 0.13779718E+00 0.86340256E+03</pdfrwt>
<pdfrwt beam="2">  1       -2 0.14296596E+00 0.86340256E+03</pdfrwt>
<totfact> 0.10082081E+01</totfact>
</mgrwt>
</event>
<event>
 4    1  0.5223852E-007  0.1406031E+04  0.7818608E-02  0.8979010E-01
          2   -1    0    0  501    0  0.00000000000E+00  0.00000000000E+00  0.25945603905E+04  0.25945603905E+04  0.25500000000E-02 0. -1.
         -2   -1    0    0    0  501 -0.00000000000E+00 -0.00000000000E+00 -0.12295034033E+04  0.12295034033E+04  0.25500000000E-02 0.  1.
    8880023    1    1    2    0    0 -0.12062116648E+04  0.29692911963E+03 -0.57192229765E+03  0.15178994707E+04  0.65864270000E+03 0.  0.
    8880022    1    1    2    0    0  0.12062116648E+04 -0.29692911963E+03  0.19369792848E+04  0.23061643231E+04  0.15294330000E+03 0.  0.
<mgrwt>
<rscale>  0 0.13657232E+04</rscale>
<asrwt>0</asrwt>
<pdfrwt beam="1">  1        2 0.39916313E+00 0.14060312E+04</pdfrwt>
<pdfrwt beam="2">  1       -2 0.18915437E+00 0.14060312E+04</pdfrwt>
<totfact> 0.45795555E-01</totfact>
</mgrwt>
</event>
<event>
 4    1  0.5223852E-007  0.6847931E+03  0.7818608E-02  0.1006733E+00
          2   -1    0    0  501    0  0.00000000000E+00  0.00000000000E+00  0.10195758507E+04  0.10195758507E+04  0.25500000000E-02 0. -1.
         -2   -1    0    0    0  501 -0.00000000000E+00 -0.00000000000E+00 -0.36358766114E+03  0.36358766115E+03  0.25500000000E-02 0.  1.
    8880023    1    1    2    0    0 -0.12448708141E+02  0.18701989932E+03  0.85660917664E+00  0.68479365733E+03  0.65864270000E+03 0.  1.
    8880022    1    1    2    0    0  0.12448708141E+02 -0.18701989932E+03  0.65513158039E+03  0.69836985453E+03  0.15294330000E+03 0. -1.
<mgrwt>
<rscale>  0 0.52794104E+03</rscale>
<asrwt>0</asrwt>
<pdfrwt beam="1">  1        2 0.15685782E+00 0.68479312E+03</pdfrwt>
<pdfrwt beam="2">  1       -2 0.55936564E-01 0.68479312E+03</pdfrwt>
<totfact> 0.74936191E+01</totfact>
</mgrwt>
</event>
<event>
 4    1  0.5223852E-007  0.7849288E+03  0.7818608E-02  0.9744384E-01
          2   -1    0    0  501    0  0.00000000000E+00  0.00000000000E+00  0.29851529497E+04  0.29851529497E+04  0.25500000000E-02 0. -1.
         -2   -1    0    0    0  501 -0.00000000000E+00 -0.00000000000E+00 -0.17950324521E+03  0.17950324523E+03  0.25500000000E-02 0.  1.
    8880023    1    1    2    0    0 -0.20876004359E+03  0.37245433626E+03  0.84949571125E+03  0.11566140921E+04  0.65864270000E+03 0.  0.
    8880022    1    1    2    0    0  0.20876004359E+03 -0.37245433626E+03  0.19561539932E+04  0.20080421028E+04  0.15294330000E+03 0.  0.
<mgrwt>
<rscale>  0 0.68434573E+03</rscale>
<asrwt>0</asrwt>
<pdfrwt beam="1">  1        2 0.45925426E+00 0.78492878E+03</pdfrwt>
<pdfrwt beam="2">  1       -2 0.27615886E-01 0.78492878E+03</pdfrwt>
<totfact> 0.22374920E+01</totfact>
</mgrwt>
</event>
<event>
 4    1  0.5223852E-007  0.7690829E+03  0.7818608E-02  0.9782136E-01
         -2   -1    0    0    0  501 -0.00000000000E+00  0.00000000000E+00  0.37556354523E+03  0.37556354524E+03  0.25500000000E-02 0.  1.
          2   -1    0    0  501    0  0.00000000000E+00 -0.00000000000E+00 -0.10711844102E+04  0.10711844102E+04  0.25500000000E-02 0. -1.
    8880023    1    1    2    0    0  0.52800522039E+02 -0.39356118840E+03 -0.67076906782E+03  0.10204997074E+04  0.65864270000E+03 0. -1.
    8880022    1    1    2    0    0 -0.52800522039E+02  0.39356118840E+03 -0.24851797140E+02  0.42624824806E+03  0.15294330000E+03 0.  0.
<mgrwt>
<rscale>  0 0.66330102E+03</rscale>
<asrwt>0</asrwt>
<pdfrwt beam="1">  1        2 0.16479760E+00 0.76908290E+03</pdfrwt>
<pdfrwt beam="2">  1       -2 0.57779008E-01 0.76908290E+03</pdfrwt>
<totfact> 0.64558749E+01</totfact>
</mgrwt>
</event>
<event>
 4    1  0.5223852E-007  0.7661927E+03  0.7818608E-02  0.9789331E-01
          2   -1    0    0  501    0  0.00000000000E+00  0.00000000000E+00  0.24453628606E+04  0.24453628606E+04  0.25500000000E-02 0. -1.
         -2   -1    0    0    0  501 -0.00000000000E+00 -0.00000000000E+00 -0.27852813229E+03  0.27852813230E+03  0.25500000000E-02 0.  1.
    8880023    1    1    2    0    0 -0.34014639505E+03 -0.19375621178E+03  0.32083589979E+03  0.83065451334E+03  0.65864270000E+03 0.  1.
    8880022    1    1    2    0    0  0.34014639505E+03  0.19375621178E+03  0.18459988285E+04  0.18932364795E+04  0.15294330000E+03 0.  0.
<mgrwt>
<rscale>  0 0.65938246E+03</rscale>
<asrwt>0</asrwt>
<pdfrwt beam="1">  1        2 0.37620966E+00 0.76619270E+03</pdfrwt>
<pdfrwt beam="2">  1       -2 0.42850483E-01 0.76619270E+03</pdfrwt>
<totfact> 0.20139115E+01</totfact>
</mgrwt>
</event>
<event>
 4    1  0.5223852E-007  0.6717048E+03  0.7818608E-02  0.1014469E+00
         -2   -1    0    0    0  501 -0.00000000000E+00  0.00000000000E+00  0.20935671432E+03  0.20935671434E+03  0.25500000000E-02 0.  1.
          2   -1    0    0  501    0  0.00000000000E+00 -0.00000000000E+00 -0.95276163095E+03  0.95276163095E+03  0.25500000000E-02 0. -1.
    8880023    1    1    2    0    0 -0.86549061363E+02 -0.99430164092E+02 -0.45989927252E+03  0.81406059030E+03  0.65864270000E+03 0.  0.
    8880022    1    1    2    0    0  0.86549061363E+02  0.99430164092E+02 -0.28350564410E+03  0.34805775499E+03  0.15294330000E+03 0.  0.
<mgrwt>
<rscale>  0 0.49736446E+03</rscale>
<asrwt>0</asrwt>
<pdfrwt beam="1">  1        2 0.14657871E+00 0.67170477E+03</pdfrwt>
<pdfrwt beam="2">  1       -2 0.32208726E-01 0.67170477E+03</pdfrwt>
<totfact> 0.24576819E+02</totfact>
</mgrwt>
</event>
<event>
 4    1  0.5223852E-007  0.6816554E+03  0.7818608E-02  0.1008402E+00
         -2   -1    0    0    0  501 -0.00000000000E+00  0.00000000000E+00  0.51466354098E+03  0.51466354099E+03  0.25500000000E-02 0.  1.
          2   -1    0    0  501    0  0.00000000000E+00 -0.00000000000E+00 -0.16816260747E+04  0.16816260747E+04  0.25500000000E-02 0. -1.
    8880023    1    1    2    0    0 -0.14654388374E+03 -0.96792622076E+02  0.27544444450E+03  0.73520321668E+03  0.65864270000E+03 0.  1.
    8880022    1    1    2    0    0  0.14654388374E+03  0.96792622076E+02 -0.14424069782E+04  0.14610863990E+04  0.15294330000E+03 0.  0.
<mgrwt>
<rscale>  0 0.52114576E+03</rscale>
<asrwt>0</asrwt>
<pdfrwt beam="1">  1        2 0.25871170E+00 0.68165543E+03</pdfrwt>
<pdfrwt beam="2">  1       -2 0.79179007E-01 0.68165543E+03</pdfrwt>
<totfact> 0.14742030E+01</totfact>
</mgrwt>
</event>
<event>
 4    1  0.5223852E-007  0.8986610E+03  0.7818608E-02  0.9528185E-01
          2   -1    0    0  501    0  0.00000000000E+00  0.00000000000E+00  0.30212566437E+04  0.30212566437E+04  0.25500000000E-02 0. -1.
         -2   -1    0    0    0  501 -0.00000000000E+00 -0.00000000000E+00 -0.55572407135E+03  0.55572407135E+03  0.25500000000E-02 0.  1.
    8880023    1    1    2    0    0  0.59474864349E+03 -0.14161725106E+03 -0.12822046106E+03  0.90776213163E+03  0.65864270000E+03 0.  1.
    8880022    1    1    2    0    0 -0.59474864349E+03  0.14161725106E+03  0.25937530334E+04  0.26692185834E+04  0.15294330000E+03 0.  0.
<mgrwt>
<rscale>  0 0.82237404E+03</rscale>
<asrwt>0</asrwt>
<pdfrwt beam="1">  1        2 0.46480871E+00 0.89866100E+03</pdfrwt>
<pdfrwt beam="2">  1       -2 0.85496011E-01 0.89866100E+03</pdfrwt>
<totfact> 0.20845745E+00</totfact>
</mgrwt>
</event>
<event>
 4    1  0.5223852E-007  0.7189848E+03  0.7818608E-02  0.9926036E-01
         -2   -1    0    0    0  501 -0.00000000000E+00  0.00000000000E+00  0.38347118569E+03  0.38347118570E+03  0.25500000000E-02 0.  1.
          2   -1    0    0  501    0  0.00000000000E+00 -0.00000000000E+00 -0.94440546920E+03  0.94440546921E+03  0.25500000000E-02 0. -1.
    8880023    1    1    2    0    0 -0.28831961395E+03  0.85950318230E+00 -0.67098910464E+03  0.98344573991E+03  0.65864270000E+03 0. -1.
    8880022    1    1    2    0    0  0.28831961395E+03 -0.85950318230E+00  0.11005482113E+03  0.34443091500E+03  0.15294330000E+03 0.  0.
<mgrwt>
<rscale>  0 0.59015892E+03</rscale>
<asrwt>0</asrwt>
<pdfrwt beam="1">  1        2 0.14529315E+00 0.71898480E+03</pdfrwt>
<pdfrwt beam="2">  1       -2 0.58995567E-01 0.71898480E+03</pdfrwt>
<totfact> 0.74710657E+01</totfact>
</mgrwt>
</event>
<event>
 4    1  0.5223852E-007  0.6928778E+03  0.7818608E-02  0.1002814E+00
         -2   -1    0    0    0  501 -0.00000000000E+00  0.00000000000E+00  0.23888194419E+03  0.23888194421E+03  0.25500000000E-02 0.  1.
          2   -1    0    0  501    0  0.00000000000E+00 -0.00000000000E+00 -0.95893980758E+03  0.95893980758E+03  0.25500000000E-02 0. -1.
    8880023    1    1    2    0    0 -0.11865632457E+03 -0.17941619929E+03 -0.50542277290E+03  0.85763155350E+03  0.65864270000E+03 0.  0.
    8880022    1    1    2    0    0  0.11865632457E+03  0.17941619929E+03 -0.21463509048E+03  0.34019019829E+03  0.15294330000E+03 0. -1.
<mgrwt>
<rscale>  0 0.54433509E+03</rscale>
<asrwt>0</asrwt>
<pdfrwt beam="1">  1        2 0.14752920E+00 0.69287784E+03</pdfrwt>
<pdfrwt beam="2">  1       -2 0.36751069E-01 0.69287784E+03</pdfrwt>
<totfact> 0.18936835E+02</totfact>
</mgrwt>
</event>
<event>
 4    1  0.5223852E-007  0.9535975E+03  0.7818608E-02  0.9444957E-01
         -2   -1    0    0    0  501 -0.00000000000E+00  0.00000000000E+00  0.71961750323E+03  0.71961750323E+03  0.25500000000E-02 0.  1.
          2   -1    0    0  501    0  0.00000000000E+00 -0.00000000000E+00 -0.24573350661E+04  0.24573350661E+04  0.25500000000E-02 0. -1.
    8880023    1    1    2    0    0 -0.70742685990E+02 -0.68595439822E+03  0.31645055887E+03  0.10047333609E+04  0.65864270000E+03 0.  1.
    8880022    1    1    2    0    0  0.70742685990E+02  0.68595439822E+03 -0.20541681217E+04  0.21722192084E+04  0.15294330000E+03 0.  0.
<mgrwt>
<rscale>  0 0.88466477E+03</rscale>
<asrwt>0</asrwt>
<pdfrwt beam="1">  1        2 0.37805154E+00 0.95359749E+03</pdfrwt>
<pdfrwt beam="2">  1       -2 0.11071039E+00 0.95359749E+03</pdfrwt>
<totfact> 0.24163956E+00</totfact>
</mgrwt>
</event>
<event>
 4    1  0.5223852E-007  0.1418135E+04  0.7818608E-02  0.8969718E-01
          2   -1    0    0  501    0  0.00000000000E+00  0.00000000000E+00  0.13190996005E+04  0.13190996005E+04  0.25500000000E-02 0. -1.
         -2   -1    0    0    0  501 -0.00000000000E+00 -0.00000000000E+00 -0.15202646650E+04  0.15202646650E+04  0.25500000000E-02 0.  1.
    8880023    1    1    2    0    0  0.24154038653E+03 -0.12324584994E+04 -0.55934367952E+03  0.15244576968E+04  0.65864270000E+03 0.  0.
    8880022    1    1    2    0    0 -0.24154038653E+03  0.12324584994E+04  0.35817861499E+03  0.13149065687E+04  0.15294330000E+03 0.  0.
<mgrwt>
<rscale>  0 0.13782450E+04</rscale>
<asrwt>0</asrwt>
<pdfrwt beam="1">  1        2 0.20293840E+00 0.14181347E+04</pdfrwt>
<pdfrwt beam="2">  1       -2 0.23388687E+00 0.14181347E+04</pdfrwt>
<totfact> 0.12373711E+00</totfact>
</mgrwt>
</event>
<event>
 4    1  0.5223852E-007  0.8777514E+03  0.7818608E-02  0.9562735E-01
          2   -1    0    0  501    0  0.00000000000E+00  0.00000000000E+00  0.78244659024E+03  0.78244659024E+03  0.25500000000E-02 0. -1.
         -2   -1    0    0    0  501 -0.00000000000E+00 -0.00000000000E+00 -0.81763448848E+03  0.81763448848E+03  0.25500000000E-02 0.  1.
    8880023    1    1    2    0    0 -0.58354973987E+02  0.57726245478E+03 -0.32210592681E+03  0.93498645928E+03  0.65864270000E+03 0.  1.
    8880022    1    1    2    0    0  0.58354973987E+02 -0.57726245478E+03  0.28691802857E+03  0.66509461945E+03  0.15294330000E+03 0.  0.
<mgrwt>
<rscale>  0 0.79812480E+03</rscale>
<asrwt>0</asrwt>
<pdfrwt beam="1">  1        2 0.12037640E+00 0.87775136E+03</pdfrwt>
<pdfrwt beam="2">  1       -2 0.12578992E+00 0.87775136E+03</pdfrwt>
<totfact> 0.16789213E+01</totfact>
</mgrwt>
</event>
<event>
 4    1  0.5223852E-007  0.7474669E+03  0.7818608E-02  0.9838707E-01
          2   -1    0    0  501    0  0.00000000000E+00  0.00000000000E+00  0.95502952293E+03  0.95502952293E+03  0.25500000000E-02 0. -1.
         -2   -1    0    0    0  501 -0.00000000000E+00 -0.00000000000E+00 -0.86983663664E+03  0.86983663664E+03  0.25500000000E-02 0.  1.
    8880023    1    1    2    0    0  0.23481867723E+02  0.35262605013E+03 -0.65283146198E+03  0.99241909159E+03  0.65864270000E+03 0.  1.
    8880022    1    1    2    0    0 -0.23481867723E+02 -0.35262605013E+03  0.73802434827E+03  0.83244706799E+03  0.15294330000E+03 0.  0.
<mgrwt>
<rscale>  0 0.63326033E+03</rscale>
<asrwt>0</asrwt>
<pdfrwt beam="1">  1        2 0.14692762E+00 0.74746688E+03</pdfrwt>
<pdfrwt beam="2">  1       -2 0.13382102E+00 0.74746688E+03</pdfrwt>
<totfact> 0.11057720E+01</totfact>
</mgrwt>
</event>
<event>
 4    1  0.5223852E-007  0.7740342E+03  0.7818608E-02  0.9770042E-01
          2   -1    0    0  501    0  0.00000000000E+00  0.00000000000E+00  0.50818897624E+03  0.50818897625E+03  0.25500000000E-02 0. -1.
         -2   -1    0    0    0  501 -0.00000000000E+00 -0.00000000000E+00 -0.89666097413E+03  0.89666097413E+03  0.25500000000E-02 0.  1.
    8880023    1    1    2    0    0  0.15526831915E+03 -0.37577986543E+03 -0.54109443516E+03  0.94441100810E+03  0.65864270000E+03 0.  0.
    8880022    1    1    2    0    0 -0.15526831915E+03  0.37577986543E+03  0.15262243728E+03  0.46043894228E+03  0.15294330000E+03 0.  0.
<mgrwt>
<rscale>  0 0.66995341E+03</rscale>
<asrwt>0</asrwt>
<pdfrwt beam="1">  1        2 0.78182919E-01 0.77403421E+03</pdfrwt>
<pdfrwt beam="2">  1       -2 0.13794784E+00 0.77403421E+03</pdfrwt>
<totfact> 0.22796759E+01</totfact>
</mgrwt>
</event>
<event>
 4    1  0.5223852E-007  0.6770868E+03  0.7818608E-02  0.1011022E+00
         -2   -1    0    0    0  501 -0.00000000000E+00  0.00000000000E+00  0.18972240732E+03  0.18972240734E+03  0.25500000000E-02 0.  1.
          2   -1    0    0  501    0  0.00000000000E+00 -0.00000000000E+00 -0.11369119270E+04  0.11369119270E+04  0.25500000000E-02 0. -1.
    8880023    1    1    2    0    0 -0.13920305842E+03  0.72518206805E+02 -0.54726930465E+03  0.87060339987E+03  0.65864270000E+03 0.  0.
    8880022    1    1    2    0    0  0.13920305842E+03 -0.72518206805E+02 -0.39992021499E+03  0.45603093444E+03  0.15294330000E+03 0.  1.
<mgrwt>
<rscale>  0 0.51070503E+03</rscale>
<asrwt>0</asrwt>
<pdfrwt beam="1">  1        2 0.17490952E+00 0.67708684E+03</pdfrwt>
<pdfrwt beam="2">  1       -2 0.29188063E-01 0.67708684E+03</pdfrwt>
<totfact> 0.22644091E+02</totfact>
</mgrwt>
</event>
<event>
 4    1  0.5223852E-007  0.7180330E+03  0.7818608E-02  0.9929299E-01
          2   -1    0    0  501    0  0.00000000000E+00  0.00000000000E+00  0.25555361965E+04  0.25555361965E+04  0.25500000000E-02 0. -1.
         -2   -1    0    0    0  501 -0.00000000000E+00 -0.00000000000E+00 -0.18034537175E+03  0.18034537177E+03  0.25500000000E-02 0.  1.
    8880023    1    1    2    0    0  0.28131125908E+03 -0.51236676924E+02  0.61301488766E+03  0.94411793771E+03  0.65864270000E+03 0.  0.
    8880022    1    1    2    0    0 -0.28131125908E+03  0.51236676924E+02  0.17621759371E+04  0.17917636305E+04  0.15294330000E+03 0. -1.
<mgrwt>
<rscale>  0 0.58862128E+03</rscale>
<asrwt>0</asrwt>
<pdfrwt beam="1">  1        2 0.39315940E+00 0.71803303E+03</pdfrwt>
<pdfrwt beam="2">  1       -2 0.27745443E-01 0.71803303E+03</pdfrwt>
<totfact> 0.40127660E+01</totfact>
</mgrwt>
</event>
<event>
 4    1  0.5223852E-007  0.8536894E+03  0.7818608E-02  0.9604889E-01
          2   -1    0    0  501    0  0.00000000000E+00  0.00000000000E+00  0.41903793658E+03  0.41903793659E+03  0.25500000000E-02 0. -1.
         -2   -1    0    0    0  501 -0.00000000000E+00 -0.00000000000E+00 -0.23434088305E+04  0.23434088305E+04  0.25500000000E-02 0.  1.
    8880023    1    1    2    0    0 -0.53708326262E+03 -0.80727271570E+02 -0.20173982203E+04  0.21905892150E+04  0.65864270000E+03 0.  0.
    8880022    1    1    2    0    0  0.53708326262E+03  0.80727271570E+02  0.93027326418E+02  0.57185755205E+03  0.15294330000E+03 0.  0.
<mgrwt>
<rscale>  0 0.76973442E+03</rscale>
<asrwt>0</asrwt>
<pdfrwt beam="1">  1        2 0.64467376E-01 0.85368936E+03</pdfrwt>
<pdfrwt beam="2">  1       -2 0.36052443E+00 0.85368936E+03</pdfrwt>
<totfact> 0.10450124E+00</totfact>
</mgrwt>
</event>
<event>
 4    1  0.5223852E-007  0.9272245E+03  0.7818608E-02  0.9483669E-01
         -2   -1    0    0    0  501 -0.00000000000E+00  0.00000000000E+00  0.15076954374E+04  0.15076954374E+04  0.25500000000E-02 0.  1.
          2   -1    0    0  501    0  0.00000000000E+00 -0.00000000000E+00 -0.52816258488E+03  0.52816258488E+03  0.25500000000E-02 0. -1.
    8880023    1    1    2    0    0  0.18008846790E+03  0.62729828392E+03  0.10019625928E+04  0.13651645457E+04  0.65864270000E+03 0.  1.
    8880022    1    1    2    0    0 -0.18008846790E+03 -0.62729828392E+03 -0.22429740238E+02  0.67069347659E+03  0.15294330000E+03 0.  0.
<mgrwt>
<rscale>  0 0.85498586E+03</rscale>
<asrwt>0</asrwt>
<pdfrwt beam="1">  1        2 0.81255784E-01 0.92722446E+03</pdfrwt>
<pdfrwt beam="2">  1       -2 0.23195314E+00 0.92722446E+03</pdfrwt>
<totfact> 0.48242245E+00</totfact>
</mgrwt>
</event>
<event>
 4    1  0.5223852E-007  0.7906184E+03  0.7818608E-02  0.9731461E-01
          2   -1    0    0  501    0  0.00000000000E+00  0.00000000000E+00  0.31831074925E+04  0.31831074925E+04  0.25500000000E-02 0. -1.
         -2   -1    0    0    0  501 -0.00000000000E+00 -0.00000000000E+00 -0.21573027160E+03  0.21573027161E+03  0.25500000000E-02 0.  1.
    8880023    1    1    2    0    0  0.36933875900E+03 -0.23421373268E+03  0.61603900531E+03  0.10022881092E+04  0.65864270000E+03 0.  1.
    8880022    1    1    2    0    0 -0.36933875900E+03  0.23421373268E+03  0.23513382156E+04  0.23965496550E+04  0.15294330000E+03 0.  0.
<mgrwt>
<rscale>  0 0.69174141E+03</rscale>
<asrwt>0</asrwt>
<pdfrwt beam="1">  1        2 0.48970884E+00 0.79061836E+03</pdfrwt>
<pdfrwt beam="2">  1       -2 0.33189273E-01 0.79061836E+03</pdfrwt>
<totfact> 0.11954560E+01</totfact>
</mgrwt>
</event>
<event>
 4    1  0.5223852E-007  0.7227654E+03  0.7818608E-02  0.9913338E-01
         -2   -1    0    0    0  501 -0.00000000000E+00  0.00000000000E+00  0.13350740219E+04  0.13350740219E+04  0.25500000000E-02 0.  1.
          2   -1    0    0  501    0  0.00000000000E+00 -0.00000000000E+00 -0.65476455228E+03  0.65476455228E+03  0.25500000000E-02 0. -1.
    8880023    1    1    2    0    0  0.25317941141E+03  0.15646011319E+03  0.11827875322E+04  0.13861371267E+04  0.65864270000E+03 0.  0.
    8880022    1    1    2    0    0 -0.25317941141E+03 -0.15646011319E+03 -0.50247806255E+03  0.60370144752E+03  0.15294330000E+03 0.  0.
<mgrwt>
<rscale>  0 0.59619223E+03</rscale>
<asrwt>0</asrwt>
<pdfrwt beam="1">  1        2 0.10073301E+00 0.72276538E+03</pdfrwt>
<pdfrwt beam="2">  1       -2 0.20539600E+00 0.72276538E+03</pdfrwt>
<totfact> 0.56007667E+00</totfact>
</mgrwt>
</event>
<event>
 4    1  0.5223852E-007  0.7199475E+03  0.7818608E-02  0.9922764E-01
         -2   -1    0    0    0  501 -0.00000000000E+00  0.00000000000E+00  0.10870129961E+04  0.10870129961E+04  0.25500000000E-02 0.  1.
          2   -1    0    0  501    0  0.00000000000E+00 -0.00000000000E+00 -0.34356601229E+03  0.34356601230E+03  0.25500000000E-02 0. -1.
    8880023    1    1    2    0    0 -0.28878486347E+03 -0.33429640620E+02  0.82212181735E+03  0.10927985757E+04  0.65864270000E+03 0.  1.
    8880022    1    1    2    0    0  0.28878486347E+03  0.33429640620E+02 -0.78674833573E+02  0.33778043267E+03  0.15294330000E+03 0.  0.
<mgrwt>
<rscale>  0 0.59170642E+03</rscale>
<asrwt>0</asrwt>
<pdfrwt beam="1">  1        2 0.52856310E-01 0.71994753E+03</pdfrwt>
<pdfrwt beam="2">  1       -2 0.16723277E+00 0.71994753E+03</pdfrwt>
<totfact> 0.21390621E+01</totfact>
</mgrwt>
</event>
<event>
 4    1  0.5223852E-007  0.1452903E+04  0.7818608E-02  0.8943629E-01
         -2   -1    0    0    0  501 -0.00000000000E+00  0.00000000000E+00  0.92477634805E+03  0.92477634805E+03  0.25500000000E-02 0.  1.
          2   -1    0    0  501    0  0.00000000000E+00 -0.00000000000E+00 -0.27549315418E+04  0.27549315418E+04  0.25500000000E-02 0. -1.
    8880023    1    1    2    0    0  0.96369620000E+03 -0.86510476580E+03 -0.18784682529E+04  0.23747778433E+04  0.65864270000E+03 0.  0.
    8880022    1    1    2    0    0 -0.96369620000E+03  0.86510476580E+03  0.48313059127E+02  0.13049300466E+04  0.15294330000E+03 0.  0.
<mgrwt>
<rscale>  0 0.14141640E+04</rscale>
<asrwt>0</asrwt>
<pdfrwt beam="1">  1        2 0.42383562E+00 0.14529029E+04</pdfrwt>
<pdfrwt beam="2">  1       -2 0.14227329E+00 0.14529029E+04</pdfrwt>
<totfact> 0.80717639E-01</totfact>
</mgrwt>
</event>
<event>
 4    1  0.5223852E-007  0.7936716E+03  0.7818608E-02  0.9724650E-01
         -2   -1    0    0    0  501 -0.00000000000E+00  0.00000000000E+00  0.78311305726E+03  0.78311305727E+03  0.25500000000E-02 0.  1.
          2   -1    0    0  501    0  0.00000000000E+00 -0.00000000000E+00 -0.69710237775E+03  0.69710237776E+03  0.25500000000E-02 0. -1.
    8880023    1    1    2    0    0 -0.33495656941E+03  0.28966972130E+03  0.42654165777E+03  0.90102854722E+03  0.65864270000E+03 0.  1.
    8880022    1    1    2    0    0  0.33495656941E+03 -0.28966972130E+03 -0.34053097826E+03  0.57918688780E+03  0.15294330000E+03 0.  0.
<mgrwt>
<rscale>  0 0.69567916E+03</rscale>
<asrwt>0</asrwt>
<pdfrwt beam="1">  1        2 0.10724652E+00 0.79367163E+03</pdfrwt>
<pdfrwt beam="2">  1       -2 0.12047893E+00 0.79367163E+03</pdfrwt>
<totfact> 0.21868084E+01</totfact>
</mgrwt>
</event>
<event>
 4    1  0.5223852E-007  0.7646703E+03  0.7818608E-02  0.9793163E-01
         -2   -1    0    0    0  501 -0.00000000000E+00  0.00000000000E+00  0.49286466239E+03  0.49286466239E+03  0.25500000000E-02 0.  1.
          2   -1    0    0  501    0  0.00000000000E+00 -0.00000000000E+00 -0.30506464193E+04  0.30506464193E+04  0.25500000000E-02 0. -1.
    8880023    1    1    2    0    0  0.10247392835E+03 -0.37471272985E+03  0.17051860830E+03  0.78345219251E+03  0.65864270000E+03 0.  1.
    8880022    1    1    2    0    0 -0.10247392835E+03  0.37471272985E+03 -0.27283003652E+04  0.27600588892E+04  0.15294330000E+03 0.  0.
<mgrwt>
<rscale>  0 0.65730743E+03</rscale>
<asrwt>0</asrwt>
<pdfrwt beam="1">  1        2 0.46933021E+00 0.76467035E+03</pdfrwt>
<pdfrwt beam="2">  1       -2 0.75825335E-01 0.76467035E+03</pdfrwt>
<totfact> 0.26872776E+00</totfact>
</mgrwt>
</event>
<event>
 4    1  0.5223852E-007  0.9449726E+03  0.7818608E-02  0.9457385E-01
         -2   -1    0    0    0  501 -0.00000000000E+00  0.00000000000E+00  0.45595002834E+03  0.45595002835E+03  0.25500000000E-02 0.  1.
          2   -1    0    0  501    0  0.00000000000E+00 -0.00000000000E+00 -0.23774673113E+04  0.23774673113E+04  0.25500000000E-02 0. -1.
    8880023    1    1    2    0    0 -0.28979021012E+03  0.61252320098E+03 -0.18472931979E+03  0.96285936952E+03  0.65864270000E+03 0.  0.
    8880022    1    1    2    0    0  0.28979021012E+03 -0.61252320098E+03 -0.17367879631E+04  0.18705579701E+04  0.15294330000E+03 0.  0.
<mgrwt>
<rscale>  0 0.87499936E+03</rscale>
<asrwt>0</asrwt>
<pdfrwt beam="1">  1        2 0.36576419E+00 0.94497262E+03</pdfrwt>
<pdfrwt beam="2">  1       -2 0.70146160E-01 0.94497262E+03</pdfrwt>
<totfact> 0.76990595E+00</totfact>
</mgrwt>
</event>
<event>
 4    1  0.9186437E-007  0.9668313E+03  0.7818608E-02  0.9426300E-01
          2   -1    0    0  501    0  0.00000000000E+00  0.00000000000E+00  0.16883816720E+04  0.16883816720E+04  0.25500000000E-02 0. -1.
         -2   -1    0    0    0  501 -0.00000000000E+00 -0.00000000000E+00 -0.21414345226E+04  0.21414345226E+04  0.25500000000E-02 0.  1.
    8880023    1    1    2    0    0 -0.70196240960E+03  0.90561558571E+02 -0.19446553508E+04  0.21717383038E+04  0.65864270000E+03 0.  0.
    8880022    1    1    2    0    0  0.70196240960E+03 -0.90561558571E+02  0.14916025003E+04  0.16580778909E+04  0.15294330000E+03 0.  0.
<mgrwt>
<rscale>  0 0.89942531E+03</rscale>
<asrwt>0</asrwt>
<pdfrwt beam="1">  1        2 0.25975103E+00 0.96683133E+03</pdfrwt>
<pdfrwt beam="2">  1       -2 0.32945147E+00 0.96683133E+03</pdfrwt>
<totfact> 0.21193701E-01</totfact>
</mgrwt>
</event>
<event>
 4    1  0.5223852E-007  0.1122827E+04  0.7818608E-02  0.9236057E-01
         -2   -1    0    0    0  501 -0.00000000000E+00  0.00000000000E+00  0.56193735327E+03  0.56193735328E+03  0.25500000000E-02 0.  1.
          2   -1    0    0  501    0  0.00000000000E+00 -0.00000000000E+00 -0.22302584622E+04  0.22302584622E+04  0.25500000000E-02 0. -1.
    8880023    1    1    2    0    0 -0.34724070117E+03 -0.84044850601E+03 -0.33625265664E+03  0.11720946426E+04  0.65864270000E+03 0.  0.
    8880022    1    1    2    0    0  0.34724070117E+03  0.84044850601E+03 -0.13320684523E+04  0.16201011729E+04  0.15294330000E+03 0.  0.
<mgrwt>
<rscale>  0 0.10688887E+04</rscale>
<asrwt>0</asrwt>
<pdfrwt beam="1">  1        2 0.34311668E+00 0.11228268E+04</pdfrwt>
<pdfrwt beam="2">  1       -2 0.86451902E-01 0.11228268E+04</pdfrwt>
<totfact> 0.57015936E+00</totfact>
</mgrwt>
</event>
<event>
 4    1  0.5223852E-007  0.6657403E+03  0.7818608E-02  0.1018920E+00
          2   -1    0    0  501    0  0.00000000000E+00  0.00000000000E+00  0.21756453456E+03  0.21756453458E+03  0.25500000000E-02 0. -1.
         -2   -1    0    0    0  501 -0.00000000000E+00 -0.00000000000E+00 -0.90817425755E+03  0.90817425755E+03  0.25500000000E-02 0.  1.
    8880023    1    1    2    0    0 -0.83915136814E+02  0.48560679897E+02 -0.66825678935E+03  0.94328003933E+03  0.65864270000E+03 0.  1.
    8880022    1    1    2    0    0  0.83915136814E+02 -0.48560679897E+02 -0.22352933638E+02  0.18245875281E+03  0.15294330000E+03 0.  0.
<mgrwt>
<rscale>  0 0.48078272E+03</rscale>
<asrwt>0</asrwt>
<pdfrwt beam="1">  1        2 0.33471467E-01 0.66574026E+03</pdfrwt>
<pdfrwt beam="2">  1       -2 0.13971911E+00 0.66574026E+03</pdfrwt>
<totfact> 0.57631495E+01</totfact>
</mgrwt>
</event>
<event>
 4    1  0.5223852E-007  0.7937121E+03  0.7818608E-02  0.9724560E-01
         -2   -1    0    0    0  501 -0.00000000000E+00  0.00000000000E+00  0.18021564863E+03  0.18021564865E+03  0.25500000000E-02 0.  1.
          2   -1    0    0  501    0  0.00000000000E+00 -0.00000000000E+00 -0.29406451362E+04  0.29406451362E+04  0.25500000000E-02 0. -1.
    8880023    1    1    2    0    0 -0.28585035275E+03  0.33831678124E+03 -0.88945322670E+03  0.11921014711E+04  0.65864270000E+03 0.  0.
    8880022    1    1    2    0    0  0.28585035275E+03 -0.33831678124E+03 -0.18709762608E+04  0.19287593137E+04  0.15294330000E+03 0.  0.
<mgrwt>
<rscale>  0 0.69573120E+03</rscale>
<asrwt>0</asrwt>
<pdfrwt beam="1">  1        2 0.45240691E+00 0.79371209E+03</pdfrwt>
<pdfrwt beam="2">  1       -2 0.27725487E-01 0.79371209E+03</pdfrwt>
<totfact> 0.23610731E+01</totfact>
</mgrwt>
</event>
<event>
 4    1  0.5223852E-007  0.6725150E+03  0.7818608E-02  0.1013921E+00
          2   -1    0    0  501    0  0.00000000000E+00  0.00000000000E+00  0.20132683357E+04  0.20132683357E+04  0.25500000000E-02 0. -1.
         -2   -1    0    0    0  501 -0.00000000000E+00 -0.00000000000E+00 -0.40011052939E+03  0.40011052939E+03  0.25500000000E-02 0.  1.
    8880023    1    1    2    0    0  0.90653545223E+02 -0.10123315699E+03 -0.10710697026E+03  0.68099069500E+03  0.65864270000E+03 0.  1.
    8880022    1    1    2    0    0 -0.90653545223E+02  0.10123315699E+03  0.17202647766E+04  0.17323881701E+04  0.15294330000E+03 0.  0.
<mgrwt>
<rscale>  0 0.49945760E+03</rscale>
<asrwt>0</asrwt>
<pdfrwt beam="1">  1        2 0.30973359E+00 0.67251500E+03</pdfrwt>
<pdfrwt beam="2">  1       -2 0.61555466E-01 0.67251500E+03</pdfrwt>
<totfact> 0.16869282E+01</totfact>
</mgrwt>
</event>
<event>
 4    1  0.5223852E-007  0.9539693E+03  0.7818608E-02  0.9444426E-01
          2   -1    0    0  501    0  0.00000000000E+00  0.00000000000E+00  0.33100989206E+04  0.33100989206E+04  0.25500000000E-02 0. -1.
         -2   -1    0    0    0  501 -0.00000000000E+00 -0.00000000000E+00 -0.44848981844E+03  0.44848981845E+03  0.25500000000E-02 0.  1.
    8880023    1    1    2    0    0 -0.25700857107E+03 -0.64046369260E+03  0.16156536583E+03  0.96755398859E+03  0.65864270000E+03 0.  1.
    8880022    1    1    2    0    0  0.25700857107E+03  0.64046369260E+03  0.27000437364E+04  0.27910347505E+04  0.15294330000E+03 0.  0.
<mgrwt>
<rscale>  0 0.88508057E+03</rscale>
<asrwt>0</asrwt>
<pdfrwt beam="1">  1        2 0.50924599E+00 0.95396926E+03</pdfrwt>
<pdfrwt beam="2">  1       -2 0.68998433E-01 0.95396926E+03</pdfrwt>
<totfact> 0.21842653E+00</totfact>
</mgrwt>
</event>
<event>
 4    1  0.5223852E-007  0.7494713E+03  0.7818608E-02  0.9833170E-01
         -2   -1    0    0    0  501 -0.00000000000E+00  0.00000000000E+00  0.31534278959E+03  0.31534278960E+03  0.25500000000E-02 0.  1.
          2   -1    0    0  501    0  0.00000000000E+00 -0.00000000000E+00 -0.18008784929E+04  0.18008784929E+04  0.25500000000E-02 0. -1.
    8880023    1    1    2    0    0 -0.11552898911E+03 -0.33845254796E+03 -0.20368250414E+03  0.77665554997E+03  0.65864270000E+03 0.  1.
    8880022    1    1    2    0    0  0.11552898911E+03  0.33845254796E+03 -0.12818531992E+04  0.13395657326E+04  0.15294330000E+03 0.  0.
<mgrwt>
<rscale>  0 0.63612445E+03</rscale>
<asrwt>0</asrwt>
<pdfrwt beam="1">  1        2 0.27705822E+00 0.74947133E+03</pdfrwt>
<pdfrwt beam="2">  1       -2 0.48514276E-01 0.74947133E+03</pdfrwt>
<totfact> 0.35657274E+01</totfact>
</mgrwt>
</event>
<event>
 4    1  0.5223852E-007  0.7148692E+03  0.7818608E-02  0.9940345E-01
          2   -1    0    0  501    0  0.00000000000E+00  0.00000000000E+00  0.49714862707E+03  0.49714862708E+03  0.25500000000E-02 0. -1.
         -2   -1    0    0    0  501 -0.00000000000E+00 -0.00000000000E+00 -0.54703847236E+03  0.54703847236E+03  0.25500000000E-02 0.  1.
    8880023    1    1    2    0    0  0.88015327863E+02  0.26359251252E+03 -0.10401572259E+03  0.72239683513E+03  0.65864270000E+03 0.  0.
    8880022    1    1    2    0    0 -0.88015327863E+02 -0.26359251252E+03  0.54125877305E+02  0.32179026431E+03  0.15294330000E+03 0.  1.
<mgrwt>
<rscale>  0 0.58345198E+03</rscale>
<asrwt>0</asrwt>
<pdfrwt beam="1">  1        2 0.76484404E-01 0.71486916E+03</pdfrwt>
<pdfrwt beam="2">  1       -2 0.84159766E-01 0.71486916E+03</pdfrwt>
<totfact> 0.77427441E+01</totfact>
</mgrwt>
</event>
<event>
 4    1  0.5223852E-007  0.8630705E+03  0.7818608E-02  0.9588125E-01
          2   -1    0    0  501    0  0.00000000000E+00  0.00000000000E+00  0.12684716583E+04  0.12684716583E+04  0.25500000000E-02 0. -1.
         -2   -1    0    0    0  501 -0.00000000000E+00 -0.00000000000E+00 -0.45841263621E+03  0.45841263621E+03  0.25500000000E-02 0.  1.
    8880023    1    1    2    0    0 -0.42483348746E+03 -0.36138206760E+03  0.19935578254E+03  0.88579536302E+03  0.65864270000E+03 0.  1.
    8880022    1    1    2    0    0  0.42483348746E+03  0.36138206760E+03  0.61070323952E+03  0.84108893146E+03  0.15294330000E+03 0.  0.
<mgrwt>
<rscale>  0 0.78087173E+03</rscale>
<asrwt>0</asrwt>
<pdfrwt beam="1">  1        2 0.19514948E+00 0.86307051E+03</pdfrwt>
<pdfrwt beam="2">  1       -2 0.70525022E-01 0.86307051E+03</pdfrwt>
<totfact> 0.31808002E+01</totfact>
</mgrwt>
</event>
<event>
 4    1  0.5223852E-007  0.1506948E+04  0.7818608E-02  0.8904745E-01
         -2   -1    0    0    0  501 -0.00000000000E+00  0.00000000000E+00  0.10373453598E+04  0.10373453598E+04  0.25500000000E-02 0.  1.
          2   -1    0    0  501    0  0.00000000000E+00 -0.00000000000E+00 -0.42250707572E+04  0.42250707572E+04  0.25500000000E-02 0. -1.
    8880023    1    1    2    0    0  0.28546259136E+03 -0.13249884716E+04 -0.35453468103E+04  0.38523210604E+04  0.65864270000E+03 0. -1.
    8880022    1    1    2    0    0 -0.28546259136E+03  0.13249884716E+04  0.35762141289E+03  0.14100950567E+04  0.15294330000E+03 0.  0.
<mgrwt>
<rscale>  0 0.14698627E+04</rscale>
<asrwt>0</asrwt>
<pdfrwt beam="1">  1        2 0.65001088E+00 0.15069484E+04</pdfrwt>
<pdfrwt beam="2">  1       -2 0.15959160E+00 0.15069484E+04</pdfrwt>
<totfact> 0.54015275E-02</totfact>
</mgrwt>
</event>
<event>
 4    1  0.5223852E-007  0.9464115E+03  0.7818608E-02  0.9455296E-01
          2   -1    0    0  501    0  0.00000000000E+00  0.00000000000E+00  0.11667593690E+04  0.11667593690E+04  0.25500000000E-02 0. -1.
         -2   -1    0    0    0  501 -0.00000000000E+00 -0.00000000000E+00 -0.12093146933E+04  0.12093146933E+04  0.25500000000E-02 0.  1.
    8880023    1    1    2    0    0  0.81828891143E+02  0.67467658734E+03 -0.87616468720E+03  0.12897128480E+04  0.65864270000E+03 0.  1.
    8880022    1    1    2    0    0 -0.81828891143E+02 -0.67467658734E+03  0.83360936291E+03  0.10863612143E+04  0.15294330000E+03 0.  0.
<mgrwt>
<rscale>  0 0.87661442E+03</rscale>
<asrwt>0</asrwt>
<pdfrwt beam="1">  1        2 0.17950144E+00 0.94641147E+03</pdfrwt>
<pdfrwt beam="2">  1       -2 0.18604841E+00 0.94641147E+03</pdfrwt>
<totfact> 0.32616739E+00</totfact>
</mgrwt>
</event>
<event>
 4    1  0.5223852E-007  0.7354167E+03  0.7818608E-02  0.9873505E-01
         -2   -1    0    0    0  501 -0.00000000000E+00  0.00000000000E+00  0.33075909303E+03  0.33075909304E+03  0.25500000000E-02 0.  1.
          2   -1    0    0  501    0  0.00000000000E+00 -0.00000000000E+00 -0.24261719725E+04  0.24261719725E+04  0.25500000000E-02 0. -1.
    8880023    1    1    2    0    0 -0.32468240130E+03  0.40110753365E+02 -0.11559564414E+03  0.74444616559E+03  0.65864270000E+03 0.  1.
    8880022    1    1    2    0    0  0.32468240130E+03 -0.40110753365E+02 -0.19798172353E+04  0.20124848999E+04  0.15294330000E+03 0.  0.
<mgrwt>
<rscale>  0 0.61562721E+03</rscale>
<asrwt>0</asrwt>
<pdfrwt beam="1">  1        2 0.37325722E+00 0.73541671E+03</pdfrwt>
<pdfrwt beam="2">  1       -2 0.50886016E-01 0.73541671E+03</pdfrwt>
<totfact> 0.14687802E+01</totfact>
</mgrwt>
</event>
<event>
 4    1  0.5223852E-007  0.7256688E+03  0.7818608E-02  0.9903851E-01
          2   -1    0    0  501    0  0.00000000000E+00  0.00000000000E+00  0.94554715390E+03  0.94554715390E+03  0.25500000000E-02 0. -1.
         -2   -1    0    0    0  501 -0.00000000000E+00 -0.00000000000E+00 -0.31059017132E+03  0.31059017133E+03  0.25500000000E-02 0.  1.
    8880023    1    1    2    0    0  0.16880078100E+03  0.25355734483E+03  0.32383717764E+03  0.79464819554E+03  0.65864270000E+03 0.  1.
    8880022    1    1    2    0    0 -0.16880078100E+03 -0.25355734483E+03  0.31111980494E+03  0.46148912970E+03  0.15294330000E+03 0.  0.
<mgrwt>
<rscale>  0 0.60074992E+03</rscale>
<asrwt>0</asrwt>
<pdfrwt beam="1">  1        2 0.14546879E+00 0.72566882E+03</pdfrwt>
<pdfrwt beam="2">  1       -2 0.47783103E-01 0.72566882E+03</pdfrwt>
<totfact> 0.11506480E+02</totfact>
</mgrwt>
</event>
<event>
 4    1  0.5223852E-007  0.9408639E+03  0.7818608E-02  0.9463383E-01
         -2   -1    0    0    0  501 -0.00000000000E+00  0.00000000000E+00  0.43111013671E+03  0.43111013671E+03  0.25500000000E-02 0.  1.
          2   -1    0    0  501    0  0.00000000000E+00 -0.00000000000E+00 -0.15682495405E+04  0.15682495405E+04  0.25500000000E-02 0. -1.
    8880023    1    1    2    0    0 -0.16769928189E+03 -0.65060861507E+03 -0.78605128013E+03  0.12260103753E+04  0.65864270000E+03 0.  0.
    8880022    1    1    2    0    0  0.16769928189E+03  0.65060861507E+03 -0.35108812368E+03  0.77334930191E+03  0.15294330000E+03 0.  0.
<mgrwt>
<rscale>  0 0.87038150E+03</rscale>
<asrwt>0</asrwt>
<pdfrwt beam="1">  1        2 0.24126916E+00 0.94086387E+03</pdfrwt>
<pdfrwt beam="2">  1       -2 0.66324637E-01 0.94086387E+03</pdfrwt>
<totfact> 0.24385781E+01</totfact>
</mgrwt>
</event>
<event>
 4    1  0.5223852E-007  0.8769592E+03  0.7818608E-02  0.9564080E-01
         -2   -1    0    0    0  501 -0.00000000000E+00  0.00000000000E+00  0.88402631765E+03  0.88402631765E+03  0.25500000000E-02 0.  1.
          2   -1    0    0  501    0  0.00000000000E+00 -0.00000000000E+00 -0.23433371853E+04  0.23433371853E+04  0.25500000000E-02 0. -1.
    8880023    1    1    2    0    0 -0.41250838204E+03 -0.40630534637E+03  0.61318958456E+03  0.10700742370E+04  0.65864270000E+03 0.  1.
    8880022    1    1    2    0    0  0.41250838204E+03  0.40630534637E+03 -0.20725004522E+04  0.21572892660E+04  0.15294330000E+03 0.  0.
<mgrwt>
<rscale>  0 0.79719892E+03</rscale>
<asrwt>0</asrwt>
<pdfrwt beam="1">  1        2 0.36051341E+00 0.87695918E+03</pdfrwt>
<pdfrwt beam="2">  1       -2 0.13600405E+00 0.87695918E+03</pdfrwt>
<totfact> 0.16958747E+00</totfact>
</mgrwt>
</event>
<event>
 4    1  0.5223852E-007  0.7152360E+03  0.7818608E-02  0.9939048E-01
          2   -1    0    0  501    0  0.00000000000E+00  0.00000000000E+00  0.46639740891E+04  0.46639740891E+04  0.25500000000E-02 0. -1.
         -2   -1    0    0    0  501 -0.00000000000E+00 -0.00000000000E+00 -0.62337128263E+02  0.62337128315E+02  0.25500000000E-02 0.  1.
    8880023    1    1    2    0    0  0.14749164685E+03 -0.23664020289E+03  0.24838322632E+04  0.25847601996E+04  0.65864270000E+03 0.  1.
    8880022    1    1    2    0    0 -0.14749164685E+03  0.23664020289E+03  0.21178046976E+04  0.21415510178E+04  0.15294330000E+03 0.  0.
<mgrwt>
<rscale>  0 0.58405610E+03</rscale>
<asrwt>0</asrwt>
<pdfrwt beam="1">  1        2 0.71753430E+00 0.71523603E+03</pdfrwt>
<pdfrwt beam="2">  1       -2 0.95903298E-02 0.71523603E+03</pdfrwt>
<totfact> 0.70981583E+00</totfact>
</mgrwt>
</event>
<event>
 4    1  0.5223852E-007  0.7239151E+03  0.7818608E-02  0.9909555E-01
         -2   -1    0    0    0  501 -0.00000000000E+00  0.00000000000E+00  0.30104823454E+03  0.30104823455E+03  0.25500000000E-02 0.  1.
          2   -1    0    0  501    0  0.00000000000E+00 -0.00000000000E+00 -0.32051823219E+04  0.32051823219E+04  0.25500000000E-02 0. -1.
    8880023    1    1    2    0    0 -0.25070265910E+03  0.16550225652E+03 -0.15989297572E+03  0.74136279253E+03  0.65864270000E+03 0.  1.
    8880022    1    1    2    0    0  0.25070265910E+03 -0.16550225652E+03 -0.27442411117E+04  0.27648677639E+04  0.15294330000E+03 0.  0.
<mgrwt>
<rscale>  0 0.59800453E+03</rscale>
<asrwt>0</asrwt>
<pdfrwt beam="1">  1        2 0.49310495E+00 0.72391507E+03</pdfrwt>
<pdfrwt beam="2">  1       -2 0.46315115E-01 0.72391507E+03</pdfrwt>
<totfact> 0.61295505E+00</totfact>
</mgrwt>
</event>
<event>
 4    1  0.5223852E-007  0.8149178E+03  0.7818608E-02  0.9679423E-01
          2   -1    0    0  501    0  0.00000000000E+00  0.00000000000E+00  0.19067413969E+04  0.19067413969E+04  0.25500000000E-02 0. -1.
         -2   -1    0    0    0  501 -0.00000000000E+00 -0.00000000000E+00 -0.31641128746E+03  0.31641128747E+03  0.25500000000E-02 0.  1.
    8880023    1    1    2    0    0 -0.39956702700E+03 -0.26575738398E+03  0.35460295971E+03  0.88872620166E+03  0.65864270000E+03 0.  1.
    8880022    1    1    2    0    0  0.39956702700E+03  0.26575738398E+03  0.12357271498E+04  0.13344264827E+04  0.15294330000E+03 0.  0.
<mgrwt>
<rscale>  0 0.72255267E+03</rscale>
<asrwt>0</asrwt>
<pdfrwt beam="1">  1        2 0.29334482E+00 0.81491779E+03</pdfrwt>
<pdfrwt beam="2">  1       -2 0.48678661E-01 0.81491779E+03</pdfrwt>
<totfact> 0.30762958E+01</totfact>
</mgrwt>
</event>
<event>
 4    1  0.5223852E-007  0.7198066E+03  0.7818608E-02  0.9923241E-01
          2   -1    0    0  501    0  0.00000000000E+00  0.00000000000E+00  0.12028707170E+04  0.12028707170E+04  0.25500000000E-02 0. -1.
         -2   -1    0    0    0  501 -0.00000000000E+00 -0.00000000000E+00 -0.31976399529E+03  0.31976399530E+03  0.25500000000E-02 0.  1.
    8880023    1    1    2    0    0  0.65509405028E+02 -0.28287776163E+03  0.17291818634E+03  0.74028522584E+03  0.65864270000E+03 0.  1.
    8880022    1    1    2    0    0 -0.65509405028E+02  0.28287776163E+03  0.71018853542E+03  0.78234948650E+03  0.15294330000E+03 0.  0.
<mgrwt>
<rscale>  0 0.59148034E+03</rscale>
<asrwt>0</asrwt>
<pdfrwt beam="1">  1        2 0.18505703E+00 0.71980658E+03</pdfrwt>
<pdfrwt beam="2">  1       -2 0.49194461E-01 0.71980658E+03</pdfrwt>
<totfact> 0.75210705E+01</totfact>
</mgrwt>
</event>
<event>
 4    1  0.5223852E-007  0.6838464E+03  0.7818608E-02  0.1007227E+00
          2   -1    0    0  501    0  0.00000000000E+00  0.00000000000E+00  0.77558288330E+03  0.77558288331E+03  0.25500000000E-02 0. -1.
         -2   -1    0    0    0  501 -0.00000000000E+00 -0.00000000000E+00 -0.45371717131E+03  0.45371717131E+03  0.25500000000E-02 0.  1.
    8880023    1    1    2    0    0 -0.18373621868E+03  0.87537782672E+01 -0.15013988402E+03  0.70013414267E+03  0.65864270000E+03 0.  1.
    8880022    1    1    2    0    0  0.18373621868E+03 -0.87537782672E+01  0.47200559602E+03  0.52916591196E+03  0.15294330000E+03 0.  0.
<mgrwt>
<rscale>  0 0.52591952E+03</rscale>
<asrwt>0</asrwt>
<pdfrwt beam="1">  1        2 0.11932044E+00 0.68384635E+03</pdfrwt>
<pdfrwt beam="2">  1       -2 0.69802642E-01 0.68384635E+03</pdfrwt>
<totfact> 0.68346716E+01</totfact>
</mgrwt>
</event>
<event>
 4    1  0.5223852E-007  0.7131028E+03  0.7818608E-02  0.9946655E-01
         -2   -1    0    0    0  501 -0.00000000000E+00  0.00000000000E+00  0.91076569403E+03  0.91076569404E+03  0.25500000000E-02 0.  1.
          2   -1    0    0  501    0  0.00000000000E+00 -0.00000000000E+00 -0.58475396527E+03  0.58475396527E+03  0.25500000000E-02 0. -1.
    8880023    1    1    2    0    0  0.22043582355E+03 -0.16159657501E+03  0.70574171687E+03  0.10032880855E+04  0.65864270000E+03 0.  1.
    8880022    1    1    2    0    0 -0.22043582355E+03  0.16159657501E+03 -0.37972998810E+03  0.49223157379E+03  0.15294330000E+03 0.  0.
<mgrwt>
<rscale>  0 0.58052524E+03</rscale>
<asrwt>0</asrwt>
<pdfrwt beam="1">  1        2 0.89962148E-01 0.71310281E+03</pdfrwt>
<pdfrwt beam="2">  1       -2 0.14011780E+00 0.71310281E+03</pdfrwt>
<totfact> 0.18650449E+01</totfact>
</mgrwt>
</event>
<event>
 4    1  0.5223852E-007  0.7660303E+03  0.7818608E-02  0.9789738E-01
         -2   -1    0    0    0  501 -0.00000000000E+00  0.00000000000E+00  0.38769885570E+03  0.38769885571E+03  0.25500000000E-02 0.  1.
          2   -1    0    0  501    0  0.00000000000E+00 -0.00000000000E+00 -0.13682665901E+04  0.13682665901E+04  0.25500000000E-02 0. -1.
    8880023    1    1    2    0    0  0.16686153434E+03 -0.35376475663E+03 -0.89953097683E+02  0.77129374477E+03  0.65864270000E+03 0.  1.
    8880022    1    1    2    0    0 -0.16686153434E+03  0.35376475663E+03 -0.89061463670E+03  0.98467170102E+03  0.15294330000E+03 0.  0.
<mgrwt>
<rscale>  0 0.65916153E+03</rscale>
<asrwt>0</asrwt>
<pdfrwt beam="1">  1        2 0.21050255E+00 0.76603034E+03</pdfrwt>
<pdfrwt beam="2">  1       -2 0.59645978E-01 0.76603034E+03</pdfrwt>
<totfact> 0.40322186E+01</totfact>
</mgrwt>
</event>
<event>
 4    1  0.5223852E-007  0.9433768E+03  0.7818608E-02  0.9459708E-01
         -2   -1    0    0    0  501 -0.00000000000E+00  0.00000000000E+00  0.22372819670E+03  0.22372819672E+03  0.25500000000E-02 0.  1.
          2   -1    0    0  501    0  0.00000000000E+00 -0.00000000000E+00 -0.34494966912E+04  0.34494966912E+04  0.25500000000E-02 0. -1.
    8880023    1    1    2    0    0 -0.30751909141E+03 -0.60131658335E+03 -0.11640860445E+04  0.14983511438E+04  0.65864270000E+03 0.  0.
    8880022    1    1    2    0    0  0.30751909141E+03  0.60131658335E+03 -0.20616824500E+04  0.21748737441E+04  0.15294330000E+03 0.  0.
<mgrwt>
<rscale>  0 0.87320689E+03</rscale>
<asrwt>0</asrwt>
<pdfrwt beam="1">  1        2 0.53069176E+00 0.94337682E+03</pdfrwt>
<pdfrwt beam="2">  1       -2 0.34419725E-01 0.94337682E+03</pdfrwt>
<totfact> 0.72791502E+00</totfact>
</mgrwt>
</event>
<event>
 4    1  0.5223852E-007  0.8449470E+03  0.7818608E-02  0.9620922E-01
         -2   -1    0    0    0  501 -0.00000000000E+00  0.00000000000E+00  0.24617348619E+04  0.24617348619E+04  0.25500000000E-02 0.  1.
          2   -1    0    0  501    0  0.00000000000E+00 -0.00000000000E+00 -0.67768529676E+03  0.67768529676E+03  0.25500000000E-02 0. -1.
    8880023    1    1    2    0    0 -0.23384170830E+03  0.47480868691E+03  0.22591144630E+04  0.24119563837E+04  0.65864270000E+03 0.  0.
    8880022    1    1    2    0    0  0.23384170830E+03 -0.47480868691E+03 -0.47506489785E+03  0.72746377497E+03  0.15294330000E+03 0.  0.
<mgrwt>
<rscale>  0 0.75926776E+03</rscale>
<asrwt>0</asrwt>
<pdfrwt beam="1">  1        2 0.10425928E+00 0.84494700E+03</pdfrwt>
<pdfrwt beam="2">  1       -2 0.37872844E+00 0.84494700E+03</pdfrwt>
<totfact> 0.45404780E-01</totfact>
</mgrwt>
</event>
<event>
 4    1  0.5223852E-007  0.7068178E+03  0.7818608E-02  0.9970013E-01
         -2   -1    0    0    0  501 -0.00000000000E+00  0.00000000000E+00  0.98546555834E+03  0.98546555835E+03  0.25500000000E-02 0.  1.
          2   -1    0    0  501    0  0.00000000000E+00 -0.00000000000E+00 -0.12362148174E+04  0.12362148174E+04  0.25500000000E-02 0. -1.
    8880023    1    1    2    0    0 -0.24977193097E+03  0.58268303628E+02  0.83593968746E+03  0.10947084452E+04  0.65864270000E+03 0.  1.
    8880022    1    1    2    0    0  0.24977193097E+03 -0.58268303628E+02 -0.10866889465E+04  0.11269719305E+04  0.15294330000E+03 0.  0.
<mgrwt>
<rscale>  0 0.56984889E+03</rscale>
<asrwt>0</asrwt>
<pdfrwt beam="1">  1        2 0.19018689E+00 0.70681781E+03</pdfrwt>
<pdfrwt beam="2">  1       -2 0.15161009E+00 0.70681781E+03</pdfrwt>
<totfact> 0.53982414E+00</totfact>
</mgrwt>
</event>
<event>
 4    1  0.5223852E-007  0.7040380E+03  0.7818608E-02  0.9980845E-01
          2   -1    0    0  501    0  0.00000000000E+00  0.00000000000E+00  0.13893899819E+04  0.13893899819E+04  0.25500000000E-02 0. -1.
         -2   -1    0    0    0  501 -0.00000000000E+00 -0.00000000000E+00 -0.31630865572E+03  0.31630865573E+03  0.25500000000E-02 0.  1.
    8880023    1    1    2    0    0 -0.16085748386E+02 -0.24819459110E+03  0.12676076776E+03  0.71535851491E+03  0.65864270000E+03 0.  1.
    8880022    1    1    2    0    0  0.16085748386E+02  0.24819459110E+03  0.94632055843E+03  0.99034012272E+03  0.15294330000E+03 0.  0.
<mgrwt>
<rscale>  0 0.56498184E+03</rscale>
<asrwt>0</asrwt>
<pdfrwt beam="1">  1        2 0.21375230E+00 0.70403801E+03</pdfrwt>
<pdfrwt beam="2">  1       -2 0.48662870E-01 0.70403801E+03</pdfrwt>
<totfact> 0.60107165E+01</totfact>
</mgrwt>
</event>
<event>
 4    1  0.5223852E-007  0.6718842E+03  0.7818608E-02  0.1014347E+00
         -2   -1    0    0    0  501 -0.00000000000E+00  0.00000000000E+00  0.74786946147E+03  0.74786946148E+03  0.25500000000E-02 0.  1.
          2   -1    0    0  501    0  0.00000000000E+00 -0.00000000000E+00 -0.39878226323E+03  0.39878226323E+03  0.25500000000E-02 0. -1.
    8880023    1    1    2    0    0 -0.22668365656E+02 -0.13078369959E+03  0.54481460441E+03  0.86501525439E+03  0.65864270000E+03 0.  0.
    8880022    1    1    2    0    0  0.22668365656E+02  0.13078369959E+03 -0.19572740616E+03  0.28163647032E+03  0.15294330000E+03 0.  0.
<mgrwt>
<rscale>  0 0.49783097E+03</rscale>
<asrwt>0</asrwt>
<pdfrwt beam="1">  1        2 0.61351118E-01 0.67188424E+03</pdfrwt>
<pdfrwt beam="2">  1       -2 0.11505684E+00 0.67188424E+03</pdfrwt>
<totfact> 0.47770401E+01</totfact>
</mgrwt>
</event>
<event>
 4    1  0.1055322E-006  0.9309678E+03  0.7818608E-02  0.9478043E-01
         -2   -1    0    0    0  501 -0.00000000000E+00  0.00000000000E+00  0.19435943542E+04  0.19435943542E+04  0.25500000000E-02 0.  1.
          2   -1    0    0  501    0  0.00000000000E+00 -0.00000000000E+00 -0.13094863347E+04  0.13094863347E+04  0.25500000000E-02 0. -1.
    8880023    1    1    2    0    0 -0.24177608811E+03 -0.61191107867E+03  0.17306623465E+04  0.19651700203E+04  0.65864270000E+03 0.  0.
    8880022    1    1    2    0    0  0.24177608811E+03  0.61191107867E+03 -0.10965543270E+04  0.12879106685E+04  0.15294330000E+03 0.  0.
<mgrwt>
<rscale>  0 0.85922167E+03</rscale>
<asrwt>0</asrwt>
<pdfrwt beam="1">  1        2 0.20145944E+00 0.93096780E+03</pdfrwt>
<pdfrwt beam="2">  1       -2 0.29901451E+00 0.93096780E+03</pdfrwt>
<totfact> 0.53419767E-01</totfact>
</mgrwt>
</event>
<event>
 4    1  0.5223852E-007  0.6904098E+03  0.7818608E-02  0.1003958E+00
          2   -1    0    0  501    0  0.00000000000E+00  0.00000000000E+00  0.12977867132E+04  0.12977867132E+04  0.25500000000E-02 0. -1.
         -2   -1    0    0    0  501 -0.00000000000E+00 -0.00000000000E+00 -0.18294439717E+03  0.18294439719E+03  0.25500000000E-02 0.  1.
    8880023    1    1    2    0    0  0.13198422928E+02 -0.20659454759E+03  0.64404963699E+03  0.94417458483E+03  0.65864270000E+03 0.  0.
    8880022    1    1    2    0    0 -0.13198422928E+02  0.20659454759E+03  0.47079267900E+03  0.53655652552E+03  0.15294330000E+03 0. -1.
<mgrwt>
<rscale>  0 0.53948096E+03</rscale>
<asrwt>0</asrwt>
<pdfrwt beam="1">  1        2 0.19965950E+00 0.69040981E+03</pdfrwt>
<pdfrwt beam="2">  1       -2 0.28145291E-01 0.69040981E+03</pdfrwt>
<totfact> 0.19457576E+02</totfact>
</mgrwt>
</event>
<event>
 4    1  0.5223852E-007  0.8961391E+03  0.7818608E-02  0.9532258E-01
         -2   -1    0    0    0  501 -0.00000000000E+00  0.00000000000E+00  0.11460943297E+04  0.11460943297E+04  0.25500000000E-02 0.  1.
          2   -1    0    0  501    0  0.00000000000E+00 -0.00000000000E+00 -0.54824185947E+03  0.54824185948E+03  0.25500000000E-02 0. -1.
    8880023    1    1    2    0    0 -0.11126664431E+03 -0.59738995786E+03  0.58001806839E+03  0.10674671863E+04  0.65864270000E+03 0.  0.
    8880022    1    1    2    0    0  0.11126664431E+03  0.59738995786E+03  0.17834401852E+02  0.62686900290E+03  0.15294330000E+03 0.  0.
<mgrwt>
<rscale>  0 0.81946763E+03</rscale>
<asrwt>0</asrwt>
<pdfrwt beam="1">  1        2 0.84344901E-01 0.89613907E+03</pdfrwt>
<pdfrwt beam="2">  1       -2 0.17632220E+00 0.89613907E+03</pdfrwt>
<totfact> 0.10654522E+01</totfact>
</mgrwt>
</event>
<event>
 4    1  0.5223852E-007  0.8326881E+03  0.7818608E-02  0.9644125E-01
          2   -1    0    0  501    0  0.00000000000E+00  0.00000000000E+00  0.22561703379E+04  0.22561703379E+04  0.25500000000E-02 0. -1.
         -2   -1    0    0    0  501 -0.00000000000E+00 -0.00000000000E+00 -0.26205048645E+03  0.26205048646E+03  0.25500000000E-02 0.  1.
    8880023    1    1    2    0    0 -0.50511323924E+03  0.66482634248E+02  0.60077353651E+03  0.10267903260E+04  0.65864270000E+03 0.  0.
    8880022    1    1    2    0    0  0.50511323924E+03 -0.66482634248E+02  0.13933463150E+04  0.14914304984E+04  0.15294330000E+03 0.  0.
<mgrwt>
<rscale>  0 0.74443311E+03</rscale>
<asrwt>0</asrwt>
<pdfrwt beam="1">  1        2 0.34710312E+00 0.83268814E+03</pdfrwt>
<pdfrwt beam="2">  1       -2 0.40315460E-01 0.83268814E+03</pdfrwt>
<totfact> 0.28708690E+01</totfact>
</mgrwt>
</event>
<event>
 4    1  0.5223852E-007  0.7985553E+03  0.7818608E-02  0.9713928E-01
          2   -1    0    0  501    0  0.00000000000E+00  0.00000000000E+00  0.12906273961E+04  0.12906273961E+04  0.25500000000E-02 0. -1.
         -2   -1    0    0    0  501 -0.00000000000E+00 -0.00000000000E+00 -0.35567608068E+03  0.35567608069E+03  0.25500000000E-02 0.  1.
    8880023    1    1    2    0    0  0.21423377580E+03 -0.39747239918E+03  0.30166503062E+03  0.85363482577E+03  0.65864270000E+03 0.  0.
    8880022    1    1    2    0    0 -0.21423377580E+03  0.39747239918E+03  0.63328628480E+03  0.79266865103E+03  0.15294330000E+03 0.  0.
<mgrwt>
<rscale>  0 0.70193520E+03</rscale>
<asrwt>0</asrwt>
<pdfrwt beam="1">  1        2 0.19855806E+00 0.79855534E+03</pdfrwt>
<pdfrwt beam="2">  1       -2 0.54719397E-01 0.79855534E+03</pdfrwt>
<totfact> 0.53343758E+01</totfact>
</mgrwt>
</event>
<event>
 4    1  0.5223852E-007  0.7260613E+03  0.7818608E-02  0.9902586E-01
         -2   -1    0    0    0  501 -0.00000000000E+00  0.00000000000E+00  0.36177807930E+03  0.36177807931E+03  0.25500000000E-02 0.  1.
          2   -1    0    0  501    0  0.00000000000E+00 -0.00000000000E+00 -0.96018598921E+03  0.96018598921E+03  0.25500000000E-02 0. -1.
    8880023    1    1    2    0    0 -0.72141621874E+02 -0.29690126134E+03 -0.12284248410E+03  0.73637983049E+03  0.65864270000E+03 0.  0.
    8880022    1    1    2    0    0  0.72141621874E+02  0.29690126134E+03 -0.47556542581E+03  0.58558423803E+03  0.15294330000E+03 0.  0.
<mgrwt>
<rscale>  0 0.60136120E+03</rscale>
<asrwt>0</asrwt>
<pdfrwt beam="1">  1        2 0.14772092E+00 0.72606128E+03</pdfrwt>
<pdfrwt beam="2">  1       -2 0.55658166E-01 0.72606128E+03</pdfrwt>
<totfact> 0.82361727E+01</totfact>
</mgrwt>
</event>
<event>
 4    1  0.5223852E-007  0.6752137E+03  0.7818608E-02  0.1012172E+00
         -2   -1    0    0    0  501 -0.00000000000E+00  0.00000000000E+00  0.12492718357E+03  0.12492718359E+03  0.25500000000E-02 0.  1.
          2   -1    0    0  501    0  0.00000000000E+00 -0.00000000000E+00 -0.21856042246E+04  0.21856042246E+04  0.25500000000E-02 0. -1.
    8880023    1    1    2    0    0  0.83564193037E+02 -0.12296495897E+03 -0.87194658298E+03  0.11028165783E+04  0.65864270000E+03 0.  1.
    8880022    1    1    2    0    0 -0.83564193037E+02  0.12296495897E+03 -0.11887304581E+04  0.12077148299E+04  0.15294330000E+03 0.  0.
<mgrwt>
<rscale>  0 0.50620498E+03</rscale>
<asrwt>0</asrwt>
<pdfrwt beam="1">  1        2 0.33624678E+00 0.67521372E+03</pdfrwt>
<pdfrwt beam="2">  1       -2 0.19219568E-01 0.67521372E+03</pdfrwt>
<totfact> 0.12495632E+02</totfact>
</mgrwt>
</event>
<event>
 4    1  0.5223852E-007  0.8129253E+03  0.7818608E-02  0.9683515E-01
          2   -1    0    0  501    0  0.00000000000E+00  0.00000000000E+00  0.15323544121E+04  0.15323544121E+04  0.25500000000E-02 0. -1.
         -2   -1    0    0    0  501 -0.00000000000E+00 -0.00000000000E+00 -0.31298868122E+03  0.31298868123E+03  0.25500000000E-02 0.  1.
    8880023    1    1    2    0    0  0.43281291828E+03 -0.19927454429E+03  0.45461001799E+03  0.93140637799E+03  0.65864270000E+03 0.  0.
    8880022    1    1    2    0    0 -0.43281291828E+03  0.19927454429E+03  0.76475571286E+03  0.91393671532E+03  0.15294330000E+03 0.  1.
<mgrwt>
<rscale>  0 0.72006810E+03</rscale>
<asrwt>0</asrwt>
<pdfrwt beam="1">  1        2 0.23574683E+00 0.81292532E+03</pdfrwt>
<pdfrwt beam="2">  1       -2 0.48152105E-01 0.81292532E+03</pdfrwt>
<totfact> 0.50507453E+01</totfact>
</mgrwt>
</event>
<event>
 4    1  0.5223852E-007  0.1280742E+04  0.7818608E-02  0.9082371E-01
         -2   -1    0    0    0  501 -0.00000000000E+00  0.00000000000E+00  0.11692986182E+04  0.11692986182E+04  0.25500000000E-02 0.  1.
          2   -1    0    0  501    0  0.00000000000E+00 -0.00000000000E+00 -0.15844298031E+04  0.15844298031E+04  0.25500000000E-02 0. -1.
    8880023    1    1    2    0    0 -0.10428932667E+04 -0.34476545429E+03 -0.87716919766E+03  0.15523290862E+04  0.65864270000E+03 0. -1.
    8880022    1    1    2    0    0  0.10428932667E+04  0.34476545429E+03  0.46203801278E+03  0.12013993351E+04  0.15294330000E+03 0.  0.
<mgrwt>
<rscale>  0 0.12354612E+04</rscale>
<asrwt>0</asrwt>
<pdfrwt beam="1">  1        2 0.24375843E+00 0.12807419E+04</pdfrwt>
<pdfrwt beam="2">  1       -2 0.17989209E+00 0.12807419E+04</pdfrwt>
<totfact> 0.19888656E+00</totfact>
</mgrwt>
</event>
<event>
 4    1  0.5223852E-007  0.9880768E+03  0.7818608E-02  0.9397326E-01
          2   -1    0    0  501    0  0.00000000000E+00  0.00000000000E+00  0.19050480912E+04  0.19050480912E+04  0.25500000000E-02 0. -1.
         -2   -1    0    0    0  501 -0.00000000000E+00 -0.00000000000E+00 -0.64372380427E+03  0.64372380427E+03  0.25500000000E-02 0.  1.
    8880023    1    1    2    0    0 -0.34106182493E+03 -0.65281114327E+03 -0.10031566545E+03  0.99315607847E+03  0.65864270000E+03 0.  1.
    8880022    1    1    2    0    0  0.34106182493E+03  0.65281114327E+03  0.13616399524E+04  0.15556158170E+04  0.15294330000E+03 0.  0.
<mgrwt>
<rscale>  0 0.92296090E+03</rscale>
<asrwt>0</asrwt>
<pdfrwt beam="1">  1        2 0.29308432E+00 0.98807680E+03</pdfrwt>
<pdfrwt beam="2">  1       -2 0.99034433E-01 0.98807680E+03</pdfrwt>
<totfact> 0.63816388E+00</totfact>
</mgrwt>
</event>
<event>
 4    1  0.5223852E-007  0.7010710E+03  0.7818608E-02  0.9992787E-01
          2   -1    0    0  501    0  0.00000000000E+00  0.00000000000E+00  0.13048520939E+04  0.13048520939E+04  0.25500000000E-02 0. -1.
         -2   -1    0    0    0  501 -0.00000000000E+00 -0.00000000000E+00 -0.26531820519E+03  0.26531820520E+03  0.25500000000E-02 0.  1.
    8880023    1    1    2    0    0  0.20974909479E+03 -0.11702843182E+03  0.27281389928E+03  0.75228183982E+03  0.65864270000E+03 0.  1.
    8880022    1    1    2    0    0 -0.20974909479E+03  0.11702843182E+03  0.76671998942E+03  0.81788845927E+03  0.15294330000E+03 0.  0.
<mgrwt>
<rscale>  0 0.55967647E+03</rscale>
<asrwt>0</asrwt>
<pdfrwt beam="1">  1        2 0.20074647E+00 0.70107100E+03</pdfrwt>
<pdfrwt beam="2">  1       -2 0.40818186E-01 0.70107100E+03</pdfrwt>
<totfact> 0.95286904E+01</totfact>
</mgrwt>
</event>
<event>
 4    1  0.5223852E-007  0.6919213E+03  0.7818608E-02  0.1003252E+00
          2   -1    0    0  501    0  0.00000000000E+00  0.00000000000E+00  0.79420041006E+03  0.79420041006E+03  0.25500000000E-02 0. -1.
         -2   -1    0    0    0  501 -0.00000000000E+00 -0.00000000000E+00 -0.44239237584E+03  0.44239237584E+03  0.25500000000E-02 0.  1.
    8880023    1    1    2    0    0  0.66474355418E+02  0.20131065178E+03 -0.11515443165E+03  0.70143821384E+03  0.65864270000E+03 0.  1.
    8880022    1    1    2    0    0 -0.66474355418E+02 -0.20131065178E+03  0.46696246587E+03  0.53515457206E+03  0.15294330000E+03 0.  0.
<mgrwt>
<rscale>  0 0.54246794E+03</rscale>
<asrwt>0</asrwt>
<pdfrwt beam="1">  1        2 0.12218468E+00 0.69192126E+03</pdfrwt>
<pdfrwt beam="2">  1       -2 0.68060366E-01 0.69192126E+03</pdfrwt>
<totfact> 0.69948913E+01</totfact>
</mgrwt>
</event>
<event>
 4    1  0.5223852E-007  0.6706663E+03  0.7818608E-02  0.1015190E+00
         -2   -1    0    0    0  501 -0.00000000000E+00  0.00000000000E+00  0.15657580059E+03  0.15657580061E+03  0.25500000000E-02 0.  1.
          2   -1    0    0  501    0  0.00000000000E+00 -0.00000000000E+00 -0.16956288598E+04  0.16956288598E+04  0.25500000000E-02 0. -1.
    8880023    1    1    2    0    0 -0.78771657871E+02  0.98884113165E+02 -0.62460164267E+03  0.91647174545E+03  0.65864270000E+03 0.  1.
    8880022    1    1    2    0    0  0.78771657871E+02 -0.98884113165E+02 -0.91445141653E+03  0.93573291496E+03  0.15294330000E+03 0.  0.
<mgrwt>
<rscale>  0 0.49463176E+03</rscale>
<asrwt>0</asrwt>
<pdfrwt beam="1">  1        2 0.26086597E+00 0.67066627E+03</pdfrwt>
<pdfrwt beam="2">  1       -2 0.24088586E-01 0.67066627E+03</pdfrwt>
<totfact> 0.15514821E+02</totfact>
</mgrwt>
</event>
<event>
 4    1  0.5223852E-007  0.7145784E+03  0.7818608E-02  0.9941377E-01
          2   -1    0    0  501    0  0.00000000000E+00  0.00000000000E+00  0.67653897831E+03  0.67653897831E+03  0.25500000000E-02 0. -1.
         -2   -1    0    0    0  501 -0.00000000000E+00 -0.00000000000E+00 -0.39392579337E+03  0.39392579338E+03  0.25500000000E-02 0.  1.
    8880023    1    1    2    0    0 -0.46725444122E+02  0.27318264713E+03  0.17040058310E+03  0.73461458657E+03  0.65864270000E+03 0.  1.
    8880022    1    1    2    0    0  0.46725444122E+02 -0.27318264713E+03  0.11221260183E+03  0.33585018512E+03  0.15294330000E+03 0. -1.
<mgrwt>
<rscale>  0 0.58297221E+03</rscale>
<asrwt>0</asrwt>
<pdfrwt beam="1">  1        2 0.10408292E+00 0.71457836E+03</pdfrwt>
<pdfrwt beam="2">  1       -2 0.60603969E-01 0.71457836E+03</pdfrwt>
<totfact> 0.10994098E+02</totfact>
</mgrwt>
</event>
<event>
 4    1  0.5223852E-007  0.1174600E+04  0.7818608E-02  0.9182217E-01
          2   -1    0    0  501    0  0.00000000000E+00  0.00000000000E+00  0.84956338955E+03  0.84956338955E+03  0.25500000000E-02 0. -1.
         -2   -1    0    0    0  501 -0.00000000000E+00 -0.00000000000E+00 -0.22694773799E+04  0.22694773799E+04  0.25500000000E-02 0.  1.
    8880023    1    1    2    0    0  0.92773185973E+03 -0.29186999977E+03 -0.17262485047E+04  0.20879699726E+04  0.65864270000E+03 0.  0.
    8880022    1    1    2    0    0 -0.92773185973E+03  0.29186999977E+03  0.30633451437E+03  0.10310707968E+04  0.15294330000E+03 0.  0.
<mgrwt>
<rscale>  0 0.11238875E+04</rscale>
<asrwt>0</asrwt>
<pdfrwt beam="1">  1        2 0.13070206E+00 0.11745998E+04</pdfrwt>
<pdfrwt beam="2">  1       -2 0.34915036E+00 0.11745998E+04</pdfrwt>
<totfact> 0.49407566E-01</totfact>
</mgrwt>
</event>
<event>
 4    1  0.5223852E-007  0.8203842E+03  0.7818608E-02  0.9668340E-01
          2   -1    0    0  501    0  0.00000000000E+00  0.00000000000E+00  0.19453027579E+04  0.19453027579E+04  0.25500000000E-02 0. -1.
         -2   -1    0    0    0  501 -0.00000000000E+00 -0.00000000000E+00 -0.50762276033E+03  0.50762276033E+03  0.25500000000E-02 0.  1.
    8880023    1    1    2    0    0 -0.46817706582E+03  0.14152839307E+03 -0.10526073675E+03  0.82710947278E+03  0.65864270000E+03 0.  0.
    8880022    1    1    2    0    0  0.46817706582E+03 -0.14152839307E+03  0.15429407343E+04  0.16258160455E+04  0.15294330000E+03 0.  0.
<mgrwt>
<rscale>  0 0.72933529E+03</rscale>
<asrwt>0</asrwt>
<pdfrwt beam="1">  1        2 0.29927735E+00 0.82038421E+03</pdfrwt>
<pdfrwt beam="2">  1       -2 0.78095809E-01 0.82038421E+03</pdfrwt>
<totfact> 0.10704327E+01</totfact>
</mgrwt>
</event>
<event>
 4    1  0.5223852E-007  0.7735335E+03  0.7818608E-02  0.9771252E-01
          2   -1    0    0  501    0  0.00000000000E+00  0.00000000000E+00  0.11994117401E+04  0.11994117401E+04  0.25500000000E-02 0. -1.
         -2   -1    0    0    0  501 -0.00000000000E+00 -0.00000000000E+00 -0.30747798416E+03  0.30747798417E+03  0.25500000000E-02 0.  1.
    8880023    1    1    2    0    0 -0.31246838831E+03 -0.25866446085E+03  0.65039444937E+03  0.10106270049E+04  0.65864270000E+03 0.  0.
    8880022    1    1    2    0    0  0.31246838831E+03  0.25866446085E+03  0.24153930655E+03  0.49626271935E+03  0.15294330000E+03 0. -1.
<mgrwt>
<rscale>  0 0.66928396E+03</rscale>
<asrwt>0</asrwt>
<pdfrwt beam="1">  1        2 0.18452488E+00 0.77353345E+03</pdfrwt>
<pdfrwt beam="2">  1       -2 0.47304305E-01 0.77353345E+03</pdfrwt>
<totfact> 0.81417061E+01</totfact>
</mgrwt>
</event>
<event>
 4    1  0.5223852E-007  0.7356680E+03  0.7818608E-02  0.9872750E-01
          2   -1    0    0  501    0  0.00000000000E+00  0.00000000000E+00  0.11635659159E+04  0.11635659159E+04  0.25500000000E-02 0. -1.
         -2   -1    0    0    0  501 -0.00000000000E+00 -0.00000000000E+00 -0.27345249988E+03  0.27345249989E+03  0.25500000000E-02 0.  1.
    8880023    1    1    2    0    0 -0.86818374250E+01 -0.32760009520E+03  0.43117616013E+03  0.85271348295E+03  0.65864270000E+03 0.  0.
    8880022    1    1    2    0    0  0.86818374250E+01  0.32760009520E+03  0.45893725585E+03  0.58430493281E+03  0.15294330000E+03 0.  0.
<mgrwt>
<rscale>  0 0.61600287E+03</rscale>
<asrwt>0</asrwt>
<pdfrwt beam="1">  1        2 0.17901014E+00 0.73566800E+03</pdfrwt>
<pdfrwt beam="2">  1       -2 0.42069616E-01 0.73566800E+03</pdfrwt>
<totfact> 0.10833816E+02</totfact>
</mgrwt>
</event>
<event>
 4    1  0.5223852E-007  0.9263984E+03  0.7818608E-02  0.9484917E-01
          2   -1    0    0  501    0  0.00000000000E+00  0.00000000000E+00  0.30696311520E+04  0.30696311520E+04  0.25500000000E-02 0. -1.
         -2   -1    0    0    0  501 -0.00000000000E+00 -0.00000000000E+00 -0.22505708212E+03  0.22505708214E+03  0.25500000000E-02 0.  1.
    8880023    1    1    2    0    0 -0.53756122334E+03 -0.36801055248E+03  0.20901369364E+04  0.22862384947E+04  0.65864270000E+03 0. -1.
    8880022    1    1    2    0    0  0.53756122334E+03  0.36801055248E+03  0.75443713354E+03  0.10084497395E+04  0.15294330000E+03 0.  0.
<mgrwt>
<rscale>  0 0.85405005E+03</rscale>
<asrwt>0</asrwt>
<pdfrwt beam="1">  1        2 0.47225095E+00 0.92639842E+03</pdfrwt>
<pdfrwt beam="2">  1       -2 0.34624166E-01 0.92639842E+03</pdfrwt>
<totfact> 0.12732948E+01</totfact>
</mgrwt>
</event>
<event>
 4    1  0.5223852E-007  0.7624917E+03  0.7818608E-02  0.9798699E-01
          2   -1    0    0  501    0  0.00000000000E+00  0.00000000000E+00  0.87947233444E+03  0.87947233444E+03  0.25500000000E-02 0. -1.
         -2   -1    0    0    0  501 -0.00000000000E+00 -0.00000000000E+00 -0.89257552801E+03  0.89257552802E+03  0.25500000000E-02 0.  1.
    8880023    1    1    2    0    0  0.31641863765E+03 -0.21785913015E+03 -0.65721210946E+03  0.10066386233E+04  0.65864270000E+03 0.  0.
    8880022    1    1    2    0    0 -0.31641863765E+03  0.21785913015E+03  0.64410891588E+03  0.76540923915E+03  0.15294330000E+03 0.  0.
<mgrwt>
<rscale>  0 0.65432409E+03</rscale>
<asrwt>0</asrwt>
<pdfrwt beam="1">  1        2 0.13530344E+00 0.76249168E+03</pdfrwt>
<pdfrwt beam="2">  1       -2 0.13731931E+00 0.76249168E+03</pdfrwt>
<totfact> 0.11604646E+01</totfact>
</mgrwt>
</event>
<event>
 4    1  0.5223852E-007  0.8906294E+03  0.7818608E-02  0.9541245E-01
         -2   -1    0    0    0  501 -0.00000000000E+00  0.00000000000E+00  0.96820440087E+03  0.96820440088E+03  0.25500000000E-02 0.  1.
          2   -1    0    0  501    0  0.00000000000E+00 -0.00000000000E+00 -0.81032133802E+03  0.81032133802E+03  0.25500000000E-02 0. -1.
    8880023    1    1    2    0    0  0.20259114983E+03 -0.56424050894E+03 -0.37076887254E+03  0.96472290790E+03  0.65864270000E+03 0.  0.
    8880022    1    1    2    0    0 -0.20259114983E+03  0.56424050894E+03  0.52865193540E+03  0.81380283099E+03  0.15294330000E+03 0.  0.
<mgrwt>
<rscale>  0 0.81310114E+03</rscale>
<asrwt>0</asrwt>
<pdfrwt beam="1">  1        2 0.12466482E+00 0.89062940E+03</pdfrwt>
<pdfrwt beam="2">  1       -2 0.14895452E+00 0.89062940E+03</pdfrwt>
<totfact> 0.10351940E+01</totfact>
</mgrwt>
</event>
<event>
 4    1  0.5223852E-007  0.8371247E+03  0.7818608E-02  0.9635626E-01
         -2   -1    0    0    0  501 -0.00000000000E+00  0.00000000000E+00  0.81834290555E+03  0.81834290555E+03  0.25500000000E-02 0.  1.
          2   -1    0    0  501    0  0.00000000000E+00 -0.00000000000E+00 -0.10454472813E+04  0.10454472813E+04  0.25500000000E-02 0. -1.
    8880023    1    1    2    0    0  0.19485472745E+03 -0.47853865094E+03  0.48755043996E+03  0.96875344801E+03  0.65864270000E+03 0.  1.
    8880022    1    1    2    0    0 -0.19485472745E+03  0.47853865094E+03 -0.71465481572E+03  0.89503673885E+03  0.15294330000E+03 0.  0.
<mgrwt>
<rscale>  0 0.74982443E+03</rscale>
<asrwt>0</asrwt>
<pdfrwt beam="1">  1        2 0.16083804E+00 0.83712473E+03</pdfrwt>
<pdfrwt beam="2">  1       -2 0.12589891E+00 0.83712473E+03</pdfrwt>
<totfact> 0.11184193E+01</totfact>
</mgrwt>
</event>
<event>
 4    1  0.5223852E-007  0.7648210E+03  0.7818608E-02  0.9792782E-01
         -2   -1    0    0    0  501 -0.00000000000E+00  0.00000000000E+00  0.18994822253E+03  0.18994822255E+03  0.25500000000E-02 0.  1.
          2   -1    0    0  501    0  0.00000000000E+00 -0.00000000000E+00 -0.21649306387E+04  0.21649306387E+04  0.25500000000E-02 0. -1.
    8880023    1    1    2    0    0  0.38714728249E+03 -0.35468153696E+02 -0.79519292342E+03  0.11033054881E+04  0.65864270000E+03 0.  0.
    8880022    1    1    2    0    0 -0.38714728249E+03  0.35468153696E+02 -0.11797894928E+04  0.12515733732E+04  0.15294330000E+03 0.  0.
<mgrwt>
<rscale>  0 0.65751317E+03</rscale>
<asrwt>0</asrwt>
<pdfrwt beam="1">  1        2 0.33306624E+00 0.76482103E+03</pdfrwt>
<pdfrwt beam="2">  1       -2 0.29222805E-01 0.76482103E+03</pdfrwt>
<totfact> 0.59932448E+01</totfact>
</mgrwt>
</event>
<event>
 4    1  0.5223852E-007  0.7634336E+03  0.7818608E-02  0.9796298E-01
         -2   -1    0    0    0  501 -0.00000000000E+00  0.00000000000E+00  0.59623743506E+03  0.59623743506E+03  0.25500000000E-02 0.  1.
          2   -1    0    0  501    0  0.00000000000E+00 -0.00000000000E+00 -0.71838104370E+03  0.71838104370E+03  0.25500000000E-02 0. -1.
    8880023    1    1    2    0    0 -0.22384728635E+03 -0.31450439044E+03  0.19986782800E+03  0.78916283120E+03  0.65864270000E+03 0.  0.
    8880022    1    1    2    0    0  0.22384728635E+03  0.31450439044E+03 -0.32201143664E+03  0.52545564756E+03  0.15294330000E+03 0.  0.
<mgrwt>
<rscale>  0 0.65561588E+03</rscale>
<asrwt>0</asrwt>
<pdfrwt beam="1">  1        2 0.11052016E+00 0.76343358E+03</pdfrwt>
<pdfrwt beam="2">  1       -2 0.91728835E-01 0.76343358E+03</pdfrwt>
<totfact> 0.40577065E+01</totfact>
</mgrwt>
</event>
<event>
 4    1  0.5223852E-007  0.6877355E+03  0.7818608E-02  0.1005248E+00
         -2   -1    0    0    0  501 -0.00000000000E+00  0.00000000000E+00  0.19779957425E+03  0.19779957427E+03  0.25500000000E-02 0.  1.
          2   -1    0    0  501    0  0.00000000000E+00 -0.00000000000E+00 -0.19197022047E+04  0.19197022047E+04  0.25500000000E-02 0. -1.
    8880023    1    1    2    0    0 -0.14557118735E+03  0.13408553732E+03 -0.45147154276E+03  0.82268260106E+03  0.65864270000E+03 0.  1.
    8880022    1    1    2    0    0  0.14557118735E+03 -0.13408553732E+03 -0.12704310877E+04  0.12948191779E+04  0.15294330000E+03 0.  0.
<mgrwt>
<rscale>  0 0.53407779E+03</rscale>
<asrwt>0</asrwt>
<pdfrwt beam="1">  1        2 0.29533879E+00 0.68773549E+03</pdfrwt>
<pdfrwt beam="2">  1       -2 0.30430705E-01 0.68773549E+03</pdfrwt>
<totfact> 0.76382050E+01</totfact>
</mgrwt>
</event>
<event>
 4    1  0.5223852E-007  0.1123634E+04  0.7818608E-02  0.9235188E-01
         -2   -1    0    0    0  501 -0.00000000000E+00  0.00000000000E+00  0.99003201832E+03  0.99003201832E+03  0.25500000000E-02 0.  1.
          2   -1    0    0  501    0  0.00000000000E+00 -0.00000000000E+00 -0.12532064039E+04  0.12532064039E+04  0.25500000000E-02 0. -1.
    8880023    1    1    2    0    0  0.27646268610E+01  0.91034861270E+03 -0.58352929435E+03  0.12661196166E+04  0.65864270000E+03 0.  0.
    8880022    1    1    2    0    0 -0.27646268610E+01 -0.91034861270E+03  0.32035490877E+03  0.97711880567E+03  0.15294330000E+03 0.  0.
<mgrwt>
<rscale>  0 0.10697493E+04</rscale>
<asrwt>0</asrwt>
<pdfrwt beam="1">  1        2 0.19280099E+00 0.11236336E+04</pdfrwt>
<pdfrwt beam="2">  1       -2 0.15231262E+00 0.11236336E+04</pdfrwt>
<totfact> 0.49613872E+00</totfact>
</mgrwt>
</event>
<event>
 4    1  0.5223852E-007  0.8337920E+03  0.7818608E-02  0.9641999E-01
          2   -1    0    0  501    0  0.00000000000E+00  0.00000000000E+00  0.27436366160E+04  0.27436366160E+04  0.25500000000E-02 0. -1.
         -2   -1    0    0    0  501 -0.00000000000E+00 -0.00000000000E+00 -0.22348011877E+03  0.22348011879E+03  0.25500000000E-02 0.  1.
    8880023    1    1    2    0    0 -0.56821249185E+02 -0.50810447738E+03  0.76123334040E+03  0.11290195831E+04  0.65864270000E+03 0.  1.
    8880022    1    1    2    0    0  0.56821249185E+02  0.50810447738E+03  0.17589231568E+04  0.18380971517E+04  0.15294330000E+03 0.  0.
<mgrwt>
<rscale>  0 0.74577695E+03</rscale>
<asrwt>0</asrwt>
<pdfrwt beam="1">  1        2 0.42209798E+00 0.83379195E+03</pdfrwt>
<pdfrwt beam="2">  1       -2 0.34381553E-01 0.83379195E+03</pdfrwt>
<totfact> 0.20586544E+01</totfact>
</mgrwt>
</event>
<event>
 4    1  0.5223852E-007  0.1038502E+04  0.7818608E-02  0.9332832E-01
         -2   -1    0    0    0  501 -0.00000000000E+00  0.00000000000E+00  0.87195948503E+03  0.87195948504E+03  0.25500000000E-02 0.  1.
          2   -1    0    0  501    0  0.00000000000E+00 -0.00000000000E+00 -0.10539158682E+04  0.10539158682E+04  0.25500000000E-02 0. -1.
    8880023    1    1    2    0    0 -0.69059705063E+03  0.40957612260E+03 -0.34127107124E+03  0.10931390748E+04  0.65864270000E+03 0. -1.
    8880022    1    1    2    0    0  0.69059705063E+03 -0.40957612260E+03  0.15931468808E+03  0.83273627842E+03  0.15294330000E+03 0.  0.
<mgrwt>
<rscale>  0 0.97815625E+03</rscale>
<asrwt>0</asrwt>
<pdfrwt beam="1">  1        2 0.16214090E+00 0.10385023E+04</pdfrwt>
<pdfrwt beam="2">  1       -2 0.13414761E+00 0.10385023E+04</pdfrwt>
<totfact> 0.92239219E+00</totfact>
</mgrwt>
</event>
<event>
 4    1  0.5223852E-007  0.8329657E+03  0.7818608E-02  0.9643589E-01
          2   -1    0    0  501    0  0.00000000000E+00  0.00000000000E+00  0.37626854855E+04  0.37626854855E+04  0.25500000000E-02 0. -1.
         -2   -1    0    0    0  501 -0.00000000000E+00 -0.00000000000E+00 -0.16964027265E+03  0.16964027267E+03  0.25500000000E-02 0.  1.
    8880023    1    1    2    0    0  0.25283149635E+03  0.44282940795E+03  0.10821071576E+04  0.13655723185E+04  0.65864270000E+03 0.  1.
    8880022    1    1    2    0    0 -0.25283149635E+03 -0.44282940795E+03  0.25109380552E+04  0.25667534397E+04  0.15294330000E+03 0.  0.
<mgrwt>
<rscale>  0 0.74477119E+03</rscale>
<asrwt>0</asrwt>
<pdfrwt beam="1">  1        2 0.57887462E+00 0.83296570E+03</pdfrwt>
<pdfrwt beam="2">  1       -2 0.26098506E-01 0.83296570E+03</pdfrwt>
<totfact> 0.74647334E+00</totfact>
</mgrwt>
</event>
<event>
 4    1  0.5223852E-007  0.9884948E+03  0.7818608E-02  0.9396767E-01
         -2   -1    0    0    0  501 -0.00000000000E+00  0.00000000000E+00  0.12985843188E+04  0.12985843188E+04  0.25500000000E-02 0.  1.
          2   -1    0    0  501    0  0.00000000000E+00 -0.00000000000E+00 -0.74138932686E+03  0.74138932686E+03  0.25500000000E-02 0. -1.
    8880023    1    1    2    0    0  0.70165776012E+03  0.22580540460E+03  0.77524279404E+03  0.12562337717E+04  0.65864270000E+03 0.  0.
    8880022    1    1    2    0    0 -0.70165776012E+03 -0.22580540460E+03 -0.21804780210E+03  0.78373987400E+03  0.15294330000E+03 0.  1.
<mgrwt>
<rscale>  0 0.92342207E+03</rscale>
<asrwt>0</asrwt>
<pdfrwt beam="1">  1        2 0.11405990E+00 0.98849476E+03</pdfrwt>
<pdfrwt beam="2">  1       -2 0.19978220E+00 0.98849476E+03</pdfrwt>
<totfact> 0.50506063E+00</totfact>
</mgrwt>
</event>
<event>
 4    1  0.5223852E-007  0.9006316E+03  0.7818608E-02  0.9525018E-01
          2   -1    0    0  501    0  0.00000000000E+00  0.00000000000E+00  0.21813718725E+04  0.21813718725E+04  0.25500000000E-02 0. -1.
         -2   -1    0    0    0  501 -0.00000000000E+00 -0.00000000000E+00 -0.68481915971E+03  0.68481915972E+03  0.25500000000E-02 0.  1.
    8880023    1    1    2    0    0 -0.57112756521E+03  0.22614232673E+03 -0.30956771574E+03  0.95234942357E+03  0.65864270000E+03 0.  1.
    8880022    1    1    2    0    0  0.57112756521E+03 -0.22614232673E+03  0.18061204285E+04  0.19138416087E+04  0.15294330000E+03 0.  0.
<mgrwt>
<rscale>  0 0.82464178E+03</rscale>
<asrwt>0</asrwt>
<pdfrwt beam="1">  1        2 0.33559567E+00 0.90063159E+03</pdfrwt>
<pdfrwt beam="2">  1       -2 0.10535679E+00 0.90063159E+03</pdfrwt>
<totfact> 0.39201116E+00</totfact>
</mgrwt>
</event>
<event>
 4    1  0.5223852E-007  0.6586437E+03  0.7818608E-02  0.1025591E+00
         -2   -1    0    0    0  501 -0.00000000000E+00  0.00000000000E+00  0.77455234260E+03  0.77455234260E+03  0.25500000000E-02 0.  1.
          2   -1    0    0  501    0  0.00000000000E+00 -0.00000000000E+00 -0.11043197853E+04  0.11043197853E+04  0.25500000000E-02 0. -1.
    8880023    1    1    2    0    0 -0.12217813224E+00  0.11547510648E+01  0.62735423030E+03  0.90960699476E+03  0.65864270000E+03 0.  1.
    8880022    1    1    2    0    0  0.12217813224E+00 -0.11547510648E+01 -0.95712167304E+03  0.96926513318E+03  0.15294330000E+03 0.  0.
<mgrwt>
<rscale>  0 0.45721836E+03</rscale>
<asrwt>0</asrwt>
<pdfrwt beam="1">  1        2 0.16989535E+00 0.65864372E+03</pdfrwt>
<pdfrwt beam="2">  1       -2 0.11916190E+00 0.65864372E+03</pdfrwt>
<totfact> 0.12053453E+01</totfact>
</mgrwt>
</event>
<event>
 4    1  0.5223852E-007  0.7308331E+03  0.7818608E-02  0.9887502E-01
         -2   -1    0    0    0  501 -0.00000000000E+00  0.00000000000E+00  0.30124421393E+03  0.30124421394E+03  0.25500000000E-02 0.  1.
          2   -1    0    0  501    0  0.00000000000E+00 -0.00000000000E+00 -0.15921411139E+04  0.15921411139E+04  0.25500000000E-02 0. -1.
    8880023    1    1    2    0    0 -0.11897317326E+03 -0.29351704643E+03 -0.21551030218E+03  0.76194604081E+03  0.65864270000E+03 0. -1.
    8880022    1    1    2    0    0  0.11897317326E+03  0.29351704643E+03 -0.10753865978E+04  0.11314392871E+04  0.15294330000E+03 0.  0.
<mgrwt>
<rscale>  0 0.60870832E+03</rscale>
<asrwt>0</asrwt>
<pdfrwt beam="1">  1        2 0.24494478E+00 0.73083314E+03</pdfrwt>
<pdfrwt beam="2">  1       -2 0.46345264E-01 0.73083314E+03</pdfrwt>
<totfact> 0.50977169E+01</totfact>
</mgrwt>
</event>
<event>
 4    1  0.5223852E-007  0.7259060E+03  0.7818608E-02  0.9903086E-01
          2   -1    0    0  501    0  0.00000000000E+00  0.00000000000E+00  0.90377210031E+03  0.90377210032E+03  0.25500000000E-02 0. -1.
         -2   -1    0    0    0  501 -0.00000000000E+00 -0.00000000000E+00 -0.40550081016E+03  0.40550081016E+03  0.25500000000E-02 0.  1.
    8880023    1    1    2    0    0  0.81500801219E+02  0.29408664075E+03  0.25764280775E+02  0.72636308916E+03  0.65864270000E+03 0.  1.
    8880022    1    1    2    0    0 -0.81500801219E+02 -0.29408664075E+03  0.47250700938E+03  0.58290982132E+03  0.15294330000E+03 0.  0.
<mgrwt>
<rscale>  0 0.60111950E+03</rscale>
<asrwt>0</asrwt>
<pdfrwt beam="1">  1        2 0.13904186E+00 0.72590601E+03</pdfrwt>
<pdfrwt beam="2">  1       -2 0.62384741E-01 0.72590601E+03</pdfrwt>
<totfact> 0.70591699E+01</totfact>
</mgrwt>
</event>
<event>
 4    1  0.5223852E-007  0.6779694E+03  0.7818608E-02  0.1010496E+00
          2   -1    0    0  501    0  0.00000000000E+00  0.00000000000E+00  0.27491505696E+04  0.27491505696E+04  0.25500000000E-02 0. -1.
         -2   -1    0    0    0  501 -0.00000000000E+00 -0.00000000000E+00 -0.77073233236E+02  0.77073233278E+02  0.25500000000E-02 0.  1.
    8880023    1    1    2    0    0  0.14683377577E+03  0.65361422728E+02  0.22423833776E+04  0.23426322143E+04  0.65864270000E+03 0.  0.
    8880022    1    1    2    0    0 -0.14683377577E+03 -0.65361422728E+02  0.42969395877E+03  0.48359158854E+03  0.15294330000E+03 0. -1.
<mgrwt>
<rscale>  0 0.51277824E+03</rscale>
<asrwt>0</asrwt>
<pdfrwt beam="1">  1        2 0.42294624E+00 0.67796938E+03</pdfrwt>
<pdfrwt beam="2">  1       -2 0.11857421E-01 0.67796938E+03</pdfrwt>
<totfact> 0.13593009E+02</totfact>
</mgrwt>
</event>
<event>
 4    1  0.5223852E-007  0.9728973E+03  0.7818608E-02  0.9417908E-01
         -2   -1    0    0    0  501 -0.00000000000E+00  0.00000000000E+00  0.90120899843E+03  0.90120899844E+03  0.25500000000E-02 0.  1.
          2   -1    0    0  501    0  0.00000000000E+00 -0.00000000000E+00 -0.27323204232E+04  0.27323204232E+04  0.25500000000E-02 0. -1.
    8880023    1    1    2    0    0  0.28151485095E+03 -0.65838319547E+03 -0.24744575950E+04  0.26588474268E+04  0.65864270000E+03 0. -1.
    8880022    1    1    2    0    0 -0.28151485095E+03  0.65838319547E+03  0.64334617020E+03  0.97468199486E+03  0.15294330000E+03 0.  0.
<mgrwt>
<rscale>  0 0.90616456E+03</rscale>
<asrwt>0</asrwt>
<pdfrwt beam="1">  1        2 0.42035698E+00 0.97289735E+03</pdfrwt>
<pdfrwt beam="2">  1       -2 0.13864754E+00 0.97289735E+03</pdfrwt>
<totfact> 0.94996057E-01</totfact>
</mgrwt>
</event>
<event>
 4    1  0.5223852E-007  0.6956689E+03  0.7818608E-02  0.1001567E+00
          2   -1    0    0  501    0  0.00000000000E+00  0.00000000000E+00  0.86101539890E+03  0.86101539890E+03  0.25500000000E-02 0. -1.
         -2   -1    0    0    0  501 -0.00000000000E+00 -0.00000000000E+00 -0.14005785238E+04  0.14005785238E+04  0.25500000000E-02 0.  1.
    8880023    1    1    2    0    0  0.65496214232E+02 -0.21413856316E+03 -0.12889230462E+04  0.14646767232E+04  0.65864270000E+03 0.  1.
    8880022    1    1    2    0    0 -0.65496214232E+02  0.21413856316E+03  0.74935992124E+03  0.79691719952E+03  0.15294330000E+03 0.  0.
<mgrwt>
<rscale>  0 0.54968642E+03</rscale>
<asrwt>0</asrwt>
<pdfrwt beam="1">  1        2 0.13246391E+00 0.69566895E+03</pdfrwt>
<pdfrwt beam="2">  1       -2 0.21547362E+00 0.69566895E+03</pdfrwt>
<totfact> 0.34041273E+00</totfact>
</mgrwt>
</event>
<event>
 4    1  0.5223852E-007  0.7130338E+03  0.7818608E-02  0.9946903E-01
          2   -1    0    0  501    0  0.00000000000E+00  0.00000000000E+00  0.15279278372E+04  0.15279278372E+04  0.25500000000E-02 0. -1.
         -2   -1    0    0    0  501 -0.00000000000E+00 -0.00000000000E+00 -0.91774521095E+03  0.91774521095E+03  0.25500000000E-02 0.  1.
    8880023    1    1    2    0    0 -0.61578979746E+02  0.26611104045E+03 -0.75886294925E+03  0.10412925807E+04  0.65864270000E+03 0.  1.
    8880022    1    1    2    0    0  0.61578979746E+02 -0.26611104045E+03  0.13690455755E+04  0.14043804675E+04  0.15294330000E+03 0.  0.
<mgrwt>
<rscale>  0 0.58041036E+03</rscale>
<asrwt>0</asrwt>
<pdfrwt beam="1">  1        2 0.23506582E+00 0.71303384E+03</pdfrwt>
<pdfrwt beam="2">  1       -2 0.14119157E+00 0.71303384E+03</pdfrwt>
<totfact> 0.44407557E+00</totfact>
</mgrwt>
</event>
<event>
 4    1  0.5223852E-007  0.6681372E+03  0.7818608E-02  0.1017035E+00
         -2   -1    0    0    0  501 -0.00000000000E+00  0.00000000000E+00  0.61233406094E+03  0.61233406095E+03  0.25500000000E-02 0.  1.
          2   -1    0    0  501    0  0.00000000000E+00 -0.00000000000E+00 -0.77051126370E+03  0.77051126371E+03  0.25500000000E-02 0. -1.
    8880023    1    1    2    0    0 -0.10784175424E+03 -0.31100983608E+02  0.40995189643E+03  0.78388001556E+03  0.65864270000E+03 0.  1.
    8880022    1    1    2    0    0  0.10784175424E+03  0.31100983608E+02 -0.56812909919E+03  0.59896530910E+03  0.15294330000E+03 0.  0.
<mgrwt>
<rscale>  0 0.48771949E+03</rscale>
<asrwt>0</asrwt>
<pdfrwt beam="1">  1        2 0.11854020E+00 0.66813720E+03</pdfrwt>
<pdfrwt beam="2">  1       -2 0.94205240E-01 0.66813720E+03</pdfrwt>
<totfact> 0.35140889E+01</totfact>
</mgrwt>
</event>
<event>
 4    1  0.5223852E-007  0.7257238E+03  0.7818608E-02  0.9903674E-01
         -2   -1    0    0    0  501 -0.00000000000E+00  0.00000000000E+00  0.15122537449E+03  0.15122537451E+03  0.25500000000E-02 0.  1.
          2   -1    0    0  501    0  0.00000000000E+00 -0.00000000000E+00 -0.24573655341E+04  0.24573655341E+04  0.25500000000E-02 0. -1.
    8880023    1    1    2    0    0  0.64450527036E+02  0.29784381230E+03 -0.20708248886E+04  0.21943087140E+04  0.65864270000E+03 0. -1.
    8880022    1    1    2    0    0 -0.64450527036E+02 -0.29784381230E+03 -0.23531527104E+03  0.41428219460E+03  0.15294330000E+03 0.  0.
<mgrwt>
<rscale>  0 0.60083560E+03</rscale>
<asrwt>0</asrwt>
<pdfrwt beam="1">  1        2 0.37805621E+00 0.72572379E+03</pdfrwt>
<pdfrwt beam="2">  1       -2 0.23265444E-01 0.72572379E+03</pdfrwt>
<totfact> 0.62644668E+01</totfact>
</mgrwt>
</event>
<event>
 4    1  0.5223852E-007  0.7881285E+03  0.7818608E-02  0.9737078E-01
         -2   -1    0    0    0  501 -0.00000000000E+00  0.00000000000E+00  0.27417110795E+03  0.27417110796E+03  0.25500000000E-02 0.  1.
          2   -1    0    0  501    0  0.00000000000E+00 -0.00000000000E+00 -0.27519294803E+04  0.27519294803E+04  0.25500000000E-02 0. -1.
    8880023    1    1    2    0    0  0.10305169622E+03 -0.42037682140E+03 -0.37313459776E+03  0.87199538897E+03  0.65864270000E+03 0.  1.
    8880022    1    1    2    0    0 -0.10305169622E+03  0.42037682140E+03 -0.21046237745E+04  0.21541051993E+04  0.15294330000E+03 0.  0.
<mgrwt>
<rscale>  0 0.68851443E+03</rscale>
<asrwt>0</asrwt>
<pdfrwt beam="1">  1        2 0.42337375E+00 0.78812850E+03</pdfrwt>
<pdfrwt beam="2">  1       -2 0.42180172E-01 0.78812850E+03</pdfrwt>
<totfact> 0.13798691E+01</totfact>
</mgrwt>
</event>
<event>
 4    1  0.5223852E-007  0.9208596E+03  0.7818608E-02  0.9493342E-01
         -2   -1    0    0    0  501 -0.00000000000E+00  0.00000000000E+00  0.46966957364E+03  0.46966957364E+03  0.25500000000E-02 0.  1.
          2   -1    0    0  501    0  0.00000000000E+00 -0.00000000000E+00 -0.25409377194E+04  0.25409377194E+04  0.25500000000E-02 0. -1.
    8880023    1    1    2    0    0 -0.51354542898E+03  0.38787021080E+03 -0.94024030290E+02  0.92564730464E+03  0.65864270000E+03 0.  0.
    8880022    1    1    2    0    0  0.51354542898E+03 -0.38787021080E+03 -0.19772441154E+04  0.20849599884E+04  0.15294330000E+03 0.  0.
<mgrwt>
<rscale>  0 0.84776454E+03</rscale>
<asrwt>0</asrwt>
<pdfrwt beam="1">  1        2 0.39091349E+00 0.92085961E+03</pdfrwt>
<pdfrwt beam="2">  1       -2 0.72256859E-01 0.92085961E+03</pdfrwt>
<totfact> 0.58436709E+00</totfact>
</mgrwt>
</event>
<event>
 4    1  0.5223852E-007  0.7678476E+03  0.7818608E-02  0.9785199E-01
          2   -1    0    0  501    0  0.00000000000E+00  0.00000000000E+00  0.48337370772E+04  0.48337370772E+04  0.25500000000E-02 0. -1.
         -2   -1    0    0    0  501 -0.00000000000E+00 -0.00000000000E+00 -0.10156974031E+03  0.10156974034E+03  0.25500000000E-02 0.  1.
    8880023    1    1    2    0    0  0.14643464163E+03 -0.36651952121E+03  0.16004620204E+04  0.17751249389E+04  0.65864270000E+03 0.  0.
    8880022    1    1    2    0    0 -0.14643464163E+03  0.36651952121E+03  0.31317053165E+04  0.31601818787E+04  0.15294330000E+03 0.  0.
<mgrwt>
<rscale>  0 0.66162943E+03</rscale>
<asrwt>0</asrwt>
<pdfrwt beam="1">  1        2 0.74365194E+00 0.76784756E+03</pdfrwt>
<pdfrwt beam="2">  1       -2 0.15626112E-01 0.76784756E+03</pdfrwt>
<totfact> 0.20510375E+00</totfact>
</mgrwt>
</event>
<event>
 4    1  0.5223852E-007  0.8656402E+03  0.7818608E-02  0.9583608E-01
         -2   -1    0    0    0  501 -0.00000000000E+00  0.00000000000E+00  0.78675039032E+03  0.78675039032E+03  0.25500000000E-02 0.  1.
          2   -1    0    0  501    0  0.00000000000E+00 -0.00000000000E+00 -0.13486540950E+04  0.13486540950E+04  0.25500000000E-02 0. -1.
    8880023    1    1    2    0    0 -0.17840303100E+03 -0.53263037826E+03  0.44424019376E+03  0.97297601066E+03  0.65864270000E+03 0.  1.
    8880022    1    1    2    0    0  0.17840303100E+03  0.53263037826E+03 -0.10061438984E+04  0.11624284746E+04  0.15294330000E+03 0.  0.
<mgrwt>
<rscale>  0 0.78390660E+03</rscale>
<asrwt>0</asrwt>
<pdfrwt beam="1">  1        2 0.20748525E+00 0.86564021E+03</pdfrwt>
<pdfrwt beam="2">  1       -2 0.12103852E+00 0.86564021E+03</pdfrwt>
<totfact> 0.81113987E+00</totfact>
</mgrwt>
</event>
<event>
 4    1  0.5223852E-007  0.8639596E+03  0.7818608E-02  0.9586559E-01
          2   -1    0    0  501    0  0.00000000000E+00  0.00000000000E+00  0.20527324616E+04  0.20527324616E+04  0.25500000000E-02 0. -1.
         -2   -1    0    0    0  501 -0.00000000000E+00 -0.00000000000E+00 -0.28135371170E+03  0.28135371172E+03  0.25500000000E-02 0.  1.
    8880023    1    1    2    0    0 -0.22745222410E+03 -0.51076550016E+03  0.14017234609E+04  0.16465888307E+04  0.65864270000E+03 0. -1.
    8880022    1    1    2    0    0  0.22745222410E+03  0.51076550016E+03  0.36965528907E+03  0.68749734265E+03  0.15294330000E+03 0.  0.
<mgrwt>
<rscale>  0 0.78192247E+03</rscale>
<asrwt>0</asrwt>
<pdfrwt beam="1">  1        2 0.31580499E+00 0.86395956E+03</pdfrwt>
<pdfrwt beam="2">  1       -2 0.43285187E-01 0.86395956E+03</pdfrwt>
<totfact> 0.32201789E+01</totfact>
</mgrwt>
</event>
<event>
 4    1  0.5223852E-007  0.7178626E+03  0.7818608E-02  0.9929886E-01
         -2   -1    0    0    0  501 -0.00000000000E+00  0.00000000000E+00  0.51962401624E+03  0.51962401624E+03  0.25500000000E-02 0.  1.
          2   -1    0    0  501    0  0.00000000000E+00 -0.00000000000E+00 -0.64394197366E+03  0.64394197367E+03  0.25500000000E-02 0. -1.
    8880023    1    1    2    0    0 -0.26290815689E+03  0.11133618753E+03  0.15668653225E+03  0.73476344579E+03  0.65864270000E+03 0. -1.
    8880022    1    1    2    0    0  0.26290815689E+03 -0.11133618753E+03 -0.28100448968E+03  0.42880254412E+03  0.15294330000E+03 0.  0.
<mgrwt>
<rscale>  0 0.58834505E+03</rscale>
<asrwt>0</asrwt>
<pdfrwt beam="1">  1        2 0.99067996E-01 0.71786256E+03</pdfrwt>
<pdfrwt beam="2">  1       -2 0.79942156E-01 0.71786256E+03</pdfrwt>
<totfact> 0.63896007E+01</totfact>
</mgrwt>
</event>
<event>
 4    1  0.5223852E-007  0.8403504E+03  0.7818608E-02  0.9629520E-01
         -2   -1    0    0    0  501 -0.00000000000E+00  0.00000000000E+00  0.48931874484E+03  0.48931874485E+03  0.25500000000E-02 0.  1.
          2   -1    0    0  501    0  0.00000000000E+00 -0.00000000000E+00 -0.11303223271E+04  0.11303223272E+04  0.25500000000E-02 0. -1.
    8880023    1    1    2    0    0 -0.51919230303E+03  0.53083841808E+02 -0.89518207612E+02  0.84510487961E+03  0.65864270000E+03 0.  0.
    8880022    1    1    2    0    0  0.51919230303E+03 -0.53083841808E+02 -0.55148537470E+03  0.77453619238E+03  0.15294330000E+03 0.  0.
<mgrwt>
<rscale>  0 0.75372791E+03</rscale>
<asrwt>0</asrwt>
<pdfrwt beam="1">  1        2 0.17389574E+00 0.84035037E+03</pdfrwt>
<pdfrwt beam="2">  1       -2 0.75279807E-01 0.84035037E+03</pdfrwt>
<totfact> 0.33350203E+01</totfact>
</mgrwt>
</event>
<event>
 4    1  0.5223852E-007  0.7377300E+03  0.7818608E-02  0.9866609E-01
         -2   -1    0    0    0  501 -0.00000000000E+00  0.00000000000E+00  0.16759832229E+03  0.16759832231E+03  0.25500000000E-02 0.  1.
          2   -1    0    0  501    0  0.00000000000E+00 -0.00000000000E+00 -0.22483259574E+04  0.22483259574E+04  0.25500000000E-02 0. -1.
    8880023    1    1    2    0    0  0.55101238853E+02  0.32771823092E+03 -0.81918376920E+03  0.11024099235E+04  0.65864270000E+03 0.  0.
    8880022    1    1    2    0    0 -0.55101238853E+02 -0.32771823092E+03 -0.12615438659E+04  0.13135143562E+04  0.15294330000E+03 0.  0.
<mgrwt>
<rscale>  0 0.61907188E+03</rscale>
<asrwt>0</asrwt>
<pdfrwt beam="1">  1        2 0.34589628E+00 0.73773003E+03</pdfrwt>
<pdfrwt beam="2">  1       -2 0.25784359E-01 0.73773003E+03</pdfrwt>
<totfact> 0.68010305E+01</totfact>
</mgrwt>
</event>
<event>
 4    1  0.5223852E-007  0.7644279E+03  0.7818608E-02  0.9793776E-01
         -2   -1    0    0    0  501 -0.00000000000E+00  0.00000000000E+00  0.64882568611E+03  0.64882568611E+03  0.25500000000E-02 0.  1.
          2   -1    0    0  501    0  0.00000000000E+00 -0.00000000000E+00 -0.55085664669E+03  0.55085664670E+03  0.25500000000E-02 0. -1.
    8880023    1    1    2    0    0  0.32522594911E+03 -0.21158430481E+03  0.15123195343E+03  0.77924395796E+03  0.65864270000E+03 0.  0.
    8880022    1    1    2    0    0 -0.32522594911E+03  0.21158430481E+03 -0.53262914015E+02  0.42043837485E+03  0.15294330000E+03 0.  0.
<mgrwt>
<rscale>  0 0.65697627E+03</rscale>
<asrwt>0</asrwt>
<pdfrwt beam="1">  1        2 0.84747177E-01 0.76442792E+03</pdfrwt>
<pdfrwt beam="2">  1       -2 0.99819336E-01 0.76442792E+03</pdfrwt>
<totfact> 0.46087875E+01</totfact>
</mgrwt>
</event>
<event>
 4    1  0.5223852E-007  0.7252339E+03  0.7818608E-02  0.9905258E-01
         -2   -1    0    0    0  501 -0.00000000000E+00  0.00000000000E+00  0.34822533847E+03  0.34822533848E+03  0.25500000000E-02 0.  1.
          2   -1    0    0  501    0  0.00000000000E+00 -0.00000000000E+00 -0.91408586968E+03  0.91408586969E+03  0.25500000000E-02 0. -1.
    8880023    1    1    2    0    0  0.22255393293E+03 -0.20645513753E+03 -0.17835281881E+03  0.74684262808E+03  0.65864270000E+03 0.  1.
    8880022    1    1    2    0    0 -0.22255393293E+03  0.20645513753E+03 -0.38750771240E+03  0.51546858009E+03  0.15294330000E+03 0.  0.
<mgrwt>
<rscale>  0 0.60007116E+03</rscale>
<asrwt>0</asrwt>
<pdfrwt beam="1">  1        2 0.14062859E+00 0.72523388E+03</pdfrwt>
<pdfrwt beam="2">  1       -2 0.53573129E-01 0.72523388E+03</pdfrwt>
<totfact> 0.95595968E+01</totfact>
</mgrwt>
</event>
<event>
 4    1  0.5223852E-007  0.8031854E+03  0.7818608E-02  0.9703951E-01
          2   -1    0    0  501    0  0.00000000000E+00  0.00000000000E+00  0.86373477947E+03  0.86373477947E+03  0.25500000000E-02 0. -1.
         -2   -1    0    0    0  501 -0.00000000000E+00 -0.00000000000E+00 -0.66553680104E+03  0.66553680104E+03  0.25500000000E-02 0.  1.
    8880023    1    1    2    0    0 -0.35059503162E+03  0.29728714797E+03  0.51160625592E+03  0.95228550966E+03  0.65864270000E+03 0. -1.
    8880022    1    1    2    0    0  0.35059503162E+03 -0.29728714797E+03 -0.31340827749E+03  0.57698607086E+03  0.15294330000E+03 0.  0.
<mgrwt>
<rscale>  0 0.70782067E+03</rscale>
<asrwt>0</asrwt>
<pdfrwt beam="1">  1        2 0.13288227E+00 0.80318537E+03</pdfrwt>
<pdfrwt beam="2">  1       -2 0.10239028E+00 0.80318537E+03</pdfrwt>
<totfact> 0.24483091E+01</totfact>
</mgrwt>
</event>
<event>
 4    1  0.5223852E-007  0.7278857E+03  0.7818608E-02  0.9896754E-01
          2   -1    0    0  501    0  0.00000000000E+00  0.00000000000E+00  0.45641879775E+03  0.45641879776E+03  0.25500000000E-02 0. -1.
         -2   -1    0    0    0  501 -0.00000000000E+00 -0.00000000000E+00 -0.12169155539E+04  0.12169155539E+04  0.25500000000E-02 0.  1.
    8880023    1    1    2    0    0 -0.18061021178E+03 -0.25176839523E+03 -0.10115537408E+04  0.12462176978E+04  0.65864270000E+03 0.  1.
    8880022    1    1    2    0    0  0.18061021178E+03  0.25176839523E+03  0.25105698468E+03  0.42711665387E+03  0.15294330000E+03 0.  0.
<mgrwt>
<rscale>  0 0.60418854E+03</rscale>
<asrwt>0</asrwt>
<pdfrwt beam="1">  1        2 0.70218277E-01 0.72788569E+03</pdfrwt>
<pdfrwt beam="2">  1       -2 0.18721778E+00 0.72788569E+03</pdfrwt>
<totfact> 0.11290128E+01</totfact>
</mgrwt>
</event>
<event>
 4    1  0.5223852E-007  0.8516727E+03  0.7818608E-02  0.9608551E-01
          2   -1    0    0  501    0  0.00000000000E+00  0.00000000000E+00  0.17745899253E+04  0.17745899253E+04  0.25500000000E-02 0. -1.
         -2   -1    0    0    0  501 -0.00000000000E+00 -0.00000000000E+00 -0.38442373927E+03  0.38442373928E+03  0.25500000000E-02 0.  1.
    8880023    1    1    2    0    0 -0.37526901885E+02 -0.53863528471E+03  0.13502533052E+04  0.15964117366E+04  0.65864270000E+03 0. -1.
    8880022    1    1    2    0    0  0.37526901885E+02  0.53863528471E+03  0.39912880826E+02  0.56260192798E+03  0.15294330000E+03 0.  0.
<mgrwt>
<rscale>  0 0.76732783E+03</rscale>
<asrwt>0</asrwt>
<pdfrwt beam="1">  1        2 0.27301384E+00 0.85167273E+03</pdfrwt>
<pdfrwt beam="2">  1       -2 0.59142113E-01 0.85167273E+03</pdfrwt>
<totfact> 0.24188939E+01</totfact>
</mgrwt>
</event>
<event>
 4    1  0.5223852E-007  0.8679811E+03  0.7818608E-02  0.9579521E-01
         -2   -1    0    0    0  501 -0.00000000000E+00  0.00000000000E+00  0.42873028930E+03  0.42873028931E+03  0.25500000000E-02 0.  1.
          2   -1    0    0  501    0  0.00000000000E+00 -0.00000000000E+00 -0.13768619036E+04  0.13768619036E+04  0.25500000000E-02 0. -1.
    8880023    1    1    2    0    0  0.40494576339E+03  0.39446151805E+03 -0.26874993885E+03  0.90863507329E+03  0.65864270000E+03 0.  1.
    8880022    1    1    2    0    0 -0.40494576339E+03 -0.39446151805E+03 -0.67938167550E+03  0.89695711967E+03  0.15294330000E+03 0.  0.
<mgrwt>
<rscale>  0 0.78666554E+03</rscale>
<asrwt>0</asrwt>
<pdfrwt beam="1">  1        2 0.21182491E+00 0.86798109E+03</pdfrwt>
<pdfrwt beam="2">  1       -2 0.65958506E-01 0.86798109E+03</pdfrwt>
<totfact> 0.31845875E+01</totfact>
</mgrwt>
</event>
<event>
 4    1  0.5223852E-007  0.1190737E+04  0.7818608E-02  0.9166180E-01
         -2   -1    0    0    0  501 -0.00000000000E+00  0.00000000000E+00  0.81146743692E+03  0.81146743693E+03  0.25500000000E-02 0.  1.
          2   -1    0    0  501    0  0.00000000000E+00 -0.00000000000E+00 -0.21478562148E+04  0.21478562148E+04  0.25500000000E-02 0. -1.
    8880023    1    1    2    0    0 -0.79658501248E+02 -0.98878643659E+03 -0.15283215772E+04  0.19374264228E+04  0.65864270000E+03 0.  0.
    8880022    1    1    2    0    0  0.79658501248E+02  0.98878643659E+03  0.19193279937E+03  0.10218972289E+04  0.15294330000E+03 0.  0.
<mgrwt>
<rscale>  0 0.11409432E+04</rscale>
<asrwt>0</asrwt>
<pdfrwt beam="1">  1        2 0.33043942E+00 0.11907369E+04</pdfrwt>
<pdfrwt beam="2">  1       -2 0.12484115E+00 0.11907369E+04</pdfrwt>
<totfact> 0.25981731E+00</totfact>
</mgrwt>
</event>
<event>
 4    1  0.5223852E-007  0.8402219E+03  0.7818608E-02  0.9629762E-01
         -2   -1    0    0    0  501 -0.00000000000E+00  0.00000000000E+00  0.17013624495E+04  0.17013624495E+04  0.25500000000E-02 0.  1.
          2   -1    0    0  501    0  0.00000000000E+00 -0.00000000000E+00 -0.31975504248E+03  0.31975504249E+03  0.25500000000E-02 0. -1.
    8880023    1    1    2    0    0  0.26847403681E+03 -0.44730792922E+03  0.11639132926E+04  0.14355023689E+04  0.65864270000E+03 0.  1.
    8880022    1    1    2    0    0 -0.26847403681E+03  0.44730792922E+03  0.21769411440E+03  0.58561512314E+03  0.15294330000E+03 0. -1.
<mgrwt>
<rscale>  0 0.75357274E+03</rscale>
<asrwt>0</asrwt>
<pdfrwt beam="1">  1        2 0.49193083E-01 0.84022193E+03</pdfrwt>
<pdfrwt beam="2">  1       -2 0.26174807E+00 0.84022193E+03</pdfrwt>
<totfact> 0.56752618E+00</totfact>
</mgrwt>
</event>
<event>
 4    1  0.5223852E-007  0.9387344E+03  0.7818608E-02  0.9466512E-01
         -2   -1    0    0    0  501 -0.00000000000E+00  0.00000000000E+00  0.12611620018E+04  0.12611620018E+04  0.25500000000E-02 0.  1.
          2   -1    0    0  501    0  0.00000000000E+00 -0.00000000000E+00 -0.10038178870E+04  0.10038178870E+04  0.25500000000E-02 0. -1.
    8880023    1    1    2    0    0  0.47993536285E+03  0.46591206512E+03  0.91762761775E+03  0.13127309915E+04  0.65864270000E+03 0.  0.
    8880022    1    1    2    0    0 -0.47993536285E+03 -0.46591206512E+03 -0.66028350298E+03  0.95224889722E+03  0.15294330000E+03 0.  0.
<mgrwt>
<rscale>  0 0.86798459E+03</rscale>
<asrwt>0</asrwt>
<pdfrwt beam="1">  1        2 0.15443352E+00 0.93873437E+03</pdfrwt>
<pdfrwt beam="2">  1       -2 0.19402492E+00 0.93873437E+03</pdfrwt>
<totfact> 0.36439281E+00</totfact>
</mgrwt>
</event>
<event>
 4    1  0.5223852E-007  0.1555289E+04  0.7818608E-02  0.8871550E-01
          2   -1    0    0  501    0  0.00000000000E+00  0.00000000000E+00  0.20559655985E+04  0.20559655985E+04  0.25500000000E-02 0. -1.
         -2   -1    0    0    0  501 -0.00000000000E+00 -0.00000000000E+00 -0.12765292958E+04  0.12765292958E+04  0.25500000000E-02 0.  1.
    8880023    1    1    2    0    0 -0.39848250834E+03 -0.13514157541E+04  0.10673756760E+04  0.18863228488E+04  0.65864270000E+03 0.  0.
    8880022    1    1    2    0    0  0.39848250834E+03  0.13514157541E+04 -0.28793937326E+03  0.14461720456E+04  0.15294330000E+03 0.  0.
<mgrwt>
<rscale>  0 0.15195583E+04</rscale>
<asrwt>0</asrwt>
<pdfrwt beam="1">  1        2 0.31630239E+00 0.15552887E+04</pdfrwt>
<pdfrwt beam="2">  1       -2 0.19638913E+00 0.15552887E+04</pdfrwt>
<totfact> 0.81642228E-01</totfact>
</mgrwt>
</event>
<event>
 4    1  0.5223852E-007  0.6881640E+03  0.7818608E-02  0.1005038E+00
         -2   -1    0    0    0  501 -0.00000000000E+00  0.00000000000E+00  0.10513734836E+04  0.10513734836E+04  0.25500000000E-02 0.  1.
          2   -1    0    0  501    0  0.00000000000E+00 -0.00000000000E+00 -0.38554727671E+03  0.38554727672E+03  0.25500000000E-02 0. -1.
    8880023    1    1    2    0    0  0.19937508153E+03 -0.30105065420E+01  0.87272822117E+03  0.11114064246E+04  0.65864270000E+03 0.  0.
    8880022    1    1    2    0    0 -0.19937508153E+03  0.30105065420E+01 -0.20690201425E+03  0.32551433579E+03  0.15294330000E+03 0.  0.
<mgrwt>
<rscale>  0 0.53495421E+03</rscale>
<asrwt>0</asrwt>
<pdfrwt beam="1">  1        2 0.59314967E-01 0.68816400E+03</pdfrwt>
<pdfrwt beam="2">  1       -2 0.16174976E+00 0.68816400E+03</pdfrwt>
<totfact> 0.20655799E+01</totfact>
</mgrwt>
</event>
<event>
 4    1  0.5223852E-007  0.1330564E+04  0.7818608E-02  0.9039605E-01
          2   -1    0    0  501    0  0.00000000000E+00  0.00000000000E+00  0.21760849025E+04  0.21760849025E+04  0.25500000000E-02 0. -1.
         -2   -1    0    0    0  501 -0.00000000000E+00 -0.00000000000E+00 -0.16036391772E+04  0.16036391772E+04  0.25500000000E-02 0.  1.
    8880023    1    1    2    0    0 -0.91184695947E+02  0.11525083412E+04 -0.11099007255E+04  0.17327088480E+04  0.65864270000E+03 0.  0.
    8880022    1    1    2    0    0  0.91184695947E+02 -0.11525083412E+04  0.16823464508E+04  0.20470152317E+04  0.15294330000E+03 0.  0.
<mgrwt>
<rscale>  0 0.12874146E+04</rscale>
<asrwt>0</asrwt>
<pdfrwt beam="1">  1        2 0.33478229E+00 0.13305639E+04</pdfrwt>
<pdfrwt beam="2">  1       -2 0.24671372E+00 0.13305639E+04</pdfrwt>
<totfact> 0.34312784E-01</totfact>
</mgrwt>
</event>
<event>
 4    1  0.5223852E-007  0.7656991E+03  0.7818608E-02  0.9790570E-01
          2   -1    0    0  501    0  0.00000000000E+00  0.00000000000E+00  0.16804585842E+04  0.16804585842E+04  0.25500000000E-02 0. -1.
         -2   -1    0    0    0  501 -0.00000000000E+00 -0.00000000000E+00 -0.49384358300E+03  0.49384358300E+03  0.25500000000E-02 0.  1.
    8880023    1    1    2    0    0  0.34995306613E+03 -0.17325640686E+03  0.14773610801E+04  0.16639984670E+04  0.65864270000E+03 0.  0.
    8880022    1    1    2    0    0 -0.34995306613E+03  0.17325640686E+03 -0.29074607889E+03  0.51030370018E+03  0.15294330000E+03 0.  0.
<mgrwt>
<rscale>  0 0.65871054E+03</rscale>
<asrwt>0</asrwt>
<pdfrwt beam="1">  1        2 0.25853209E+00 0.76569912E+03</pdfrwt>
<pdfrwt beam="2">  1       -2 0.75975937E-01 0.76569912E+03</pdfrwt>
<totfact> 0.16001655E+01</totfact>
</mgrwt>
</event>
<event>
 4    1  0.5223852E-007  0.7245287E+03  0.7818608E-02  0.9907550E-01
         -2   -1    0    0    0  501 -0.00000000000E+00  0.00000000000E+00  0.71128506857E+03  0.71128506858E+03  0.25500000000E-02 0.  1.
          2   -1    0    0  501    0  0.00000000000E+00 -0.00000000000E+00 -0.23650244347E+04  0.23650244347E+04  0.25500000000E-02 0. -1.
    8880023    1    1    2    0    0 -0.67160649727E+02 -0.29431467692E+03  0.51015343178E+03  0.88611422071E+03  0.65864270000E+03 0.  0.
    8880022    1    1    2    0    0  0.67160649727E+02  0.29431467692E+03 -0.21638927979E+04  0.21901952826E+04  0.15294330000E+03 0.  0.
<mgrwt>
<rscale>  0 0.59896778E+03</rscale>
<asrwt>0</asrwt>
<pdfrwt beam="1">  1        2 0.36384991E+00 0.72452874E+03</pdfrwt>
<pdfrwt beam="2">  1       -2 0.10942847E+00 0.72452874E+03</pdfrwt>
<totfact> 0.29123903E+00</totfact>
</mgrwt>
</event>
<event>
 4    1  0.5223852E-007  0.7455264E+03  0.7818608E-02  0.9844132E-01
          2   -1    0    0  501    0  0.00000000000E+00  0.00000000000E+00  0.11926900462E+04  0.11926900462E+04  0.25500000000E-02 0. -1.
         -2   -1    0    0    0  501 -0.00000000000E+00 -0.00000000000E+00 -0.39526090125E+03  0.39526090126E+03  0.25500000000E-02 0.  1.
    8880023    1    1    2    0    0  0.25583680950E+03 -0.23779591473E+03  0.47967135114E+02  0.74706788344E+03  0.65864270000E+03 0.  0.
    8880022    1    1    2    0    0 -0.25583680950E+03  0.23779591473E+03  0.74946200987E+03  0.84088306405E+03  0.15294330000E+03 0.  0.
<mgrwt>
<rscale>  0 0.63047005E+03</rscale>
<asrwt>0</asrwt>
<pdfrwt beam="1">  1        2 0.18349077E+00 0.74552638E+03</pdfrwt>
<pdfrwt beam="2">  1       -2 0.60809370E-01 0.74552638E+03</pdfrwt>
<totfact> 0.49036884E+01</totfact>
</mgrwt>
</event>
<event>
 4    1  0.5223852E-007  0.7259945E+03  0.7818608E-02  0.9902801E-01
         -2   -1    0    0    0  501 -0.00000000000E+00  0.00000000000E+00  0.60662875048E+03  0.60662875048E+03  0.25500000000E-02 0.  1.
          2   -1    0    0  501    0  0.00000000000E+00 -0.00000000000E+00 -0.61931607718E+03  0.61931607719E+03  0.25500000000E-02 0. -1.
    8880023    1    1    2    0    0 -0.29903913893E+02  0.30391375161E+03  0.27804782399E+03  0.77741791282E+03  0.65864270000E+03 0.  1.
    8880022    1    1    2    0    0  0.29903913893E+02 -0.30391375161E+03 -0.29073515069E+03  0.44852691485E+03  0.15294330000E+03 0.  0.
<mgrwt>
<rscale>  0 0.60125727E+03</rscale>
<asrwt>0</asrwt>
<pdfrwt beam="1">  1        2 0.95279397E-01 0.72599450E+03</pdfrwt>
<pdfrwt beam="2">  1       -2 0.93327499E-01 0.72599450E+03</pdfrwt>
<totfact> 0.47019260E+01</totfact>
</mgrwt>
</event>
<event>
 4    1  0.5223852E-007  0.8628985E+03  0.7818608E-02  0.9588428E-01
         -2   -1    0    0    0  501 -0.00000000000E+00  0.00000000000E+00  0.45068229910E+03  0.45068229910E+03  0.25500000000E-02 0.  1.
          2   -1    0    0  501    0  0.00000000000E+00 -0.00000000000E+00 -0.19316815662E+04  0.19316815662E+04  0.25500000000E-02 0. -1.
    8880023    1    1    2    0    0 -0.11038971384E+03 -0.54644091693E+03 -0.79774429157E+02  0.86657817329E+03  0.65864270000E+03 0.  1.
    8880022    1    1    2    0    0  0.11038971384E+03  0.54644091693E+03 -0.14012248379E+04  0.15157856920E+04  0.15294330000E+03 0.  0.
<mgrwt>
<rscale>  0 0.78066832E+03</rscale>
<asrwt>0</asrwt>
<pdfrwt beam="1">  1        2 0.29718177E+00 0.86289847E+03</pdfrwt>
<pdfrwt beam="2">  1       -2 0.69335739E-01 0.86289847E+03</pdfrwt>
<totfact> 0.14088078E+01</totfact>
</mgrwt>
</event>
<event>
 4    1  0.5223852E-007  0.7206385E+03  0.7818608E-02  0.9920431E-01
          2   -1    0    0  501    0  0.00000000000E+00  0.00000000000E+00  0.28024735491E+04  0.28024735491E+04  0.25500000000E-02 0. -1.
         -2   -1    0    0    0  501 -0.00000000000E+00 -0.00000000000E+00 -0.13022768870E+03  0.13022768872E+03  0.25500000000E-02 0.  1.
    8880023    1    1    2    0    0  0.42423104633E+02 -0.28932661643E+03  0.10265371742E+04  0.12542321902E+04  0.65864270000E+03 0.  1.
    8880022    1    1    2    0    0 -0.42423104633E+02  0.28932661643E+03  0.16457086862E+04  0.16784690476E+04  0.15294330000E+03 0.  0.
<mgrwt>
<rscale>  0 0.59281229E+03</rscale>
<asrwt>0</asrwt>
<pdfrwt beam="1">  1        2 0.43114975E+00 0.72063848E+03</pdfrwt>
<pdfrwt beam="2">  1       -2 0.20035030E-01 0.72063848E+03</pdfrwt>
<totfact> 0.51645655E+01</totfact>
</mgrwt>
</event>
<event>
 4    1  0.6449526E-007  0.8559940E+03  0.7818608E-02  0.9600729E-01
          2   -1    0    0  501    0  0.00000000000E+00  0.00000000000E+00  0.11554709159E+04  0.11554709159E+04  0.25500000000E-02 0. -1.
         -2   -1    0    0    0  501 -0.00000000000E+00 -0.00000000000E+00 -0.17297292520E+04  0.17297292520E+04  0.25500000000E-02 0.  1.
    8880023    1    1    2    0    0  0.18811230054E+02  0.54640796818E+03 -0.15417499329E+04  0.17634394211E+04  0.65864270000E+03 0.  0.
    8880022    1    1    2    0    0 -0.18811230054E+02 -0.54640796818E+03  0.96749159684E+03  0.11217607468E+04  0.15294330000E+03 0.  0.
<mgrwt>
<rscale>  0 0.77247919E+03</rscale>
<asrwt>0</asrwt>
<pdfrwt beam="1">  1        2 0.17776476E+00 0.85599400E+03</pdfrwt>
<pdfrwt beam="2">  1       -2 0.26611219E+00 0.85599400E+03</pdfrwt>
<totfact> 0.10528997E+00</totfact>
</mgrwt>
</event>
<event>
 4    1  0.5223852E-007  0.8001127E+03  0.7818608E-02  0.9710552E-01
          2   -1    0    0  501    0  0.00000000000E+00  0.00000000000E+00  0.22730343294E+04  0.22730343294E+04  0.25500000000E-02 0. -1.
         -2   -1    0    0    0  501 -0.00000000000E+00 -0.00000000000E+00 -0.83092227496E+03  0.83092227497E+03  0.25500000000E-02 0.  1.
    8880023    1    1    2    0    0  0.16290108659E+03  0.42406768633E+03 -0.60397044354E+03  0.10024772663E+04  0.65864270000E+03 0.  1.
    8880022    1    1    2    0    0 -0.16290108659E+03 -0.42406768633E+03  0.20460824980E+04  0.21014793380E+04  0.15294330000E+03 0.  0.
<mgrwt>
<rscale>  0 0.70391969E+03</rscale>
<asrwt>0</asrwt>
<pdfrwt beam="1">  1        2 0.34969759E+00 0.80011273E+03</pdfrwt>
<pdfrwt beam="2">  1       -2 0.12783420E+00 0.80011273E+03</pdfrwt>
<totfact> 0.22018830E+00</totfact>
</mgrwt>
</event>
<event>
 4    1  0.5223852E-007  0.8532005E+03  0.7818608E-02  0.9605775E-01
          2   -1    0    0  501    0  0.00000000000E+00  0.00000000000E+00  0.39365903736E+04  0.39365903736E+04  0.25500000000E-02 0. -1.
         -2   -1    0    0    0  501 -0.00000000000E+00 -0.00000000000E+00 -0.13781627353E+03  0.13781627355E+03  0.25500000000E-02 0.  1.
    8880023    1    1    2    0    0  0.26261259764E+03 -0.47452656321E+03  0.17110756780E+04  0.19119966051E+04  0.65864270000E+03 0.  1.
    8880022    1    1    2    0    0 -0.26261259764E+03  0.47452656321E+03  0.20876984221E+04  0.21624100421E+04  0.15294330000E+03 0.  0.
<mgrwt>
<rscale>  0 0.76915140E+03</rscale>
<asrwt>0</asrwt>
<pdfrwt beam="1">  1        2 0.60562931E+00 0.85320047E+03</pdfrwt>
<pdfrwt beam="2">  1       -2 0.21202503E-01 0.85320047E+03</pdfrwt>
<totfact> 0.79794669E+00</totfact>
</mgrwt>
</event>
<event>
 4    1  0.5223852E-007  0.1210837E+04  0.7818608E-02  0.9146659E-01
         -2   -1    0    0    0  501 -0.00000000000E+00  0.00000000000E+00  0.39249826001E+04  0.39249826001E+04  0.25500000000E-02 0.  1.
          2   -1    0    0  501    0  0.00000000000E+00 -0.00000000000E+00 -0.10284998504E+04  0.10284998504E+04  0.25500000000E-02 0. -1.
    8880023    1    1    2    0    0  0.74392431173E+03  0.69202080379E+03  0.35398419891E+04  0.37412040426E+04  0.65864270000E+03 0.  1.
    8880022    1    1    2    0    0 -0.74392431173E+03 -0.69202080379E+03 -0.64335923937E+03  0.12122784079E+04  0.15294330000E+03 0.  0.
<mgrwt>
<rscale>  0 0.11621368E+04</rscale>
<asrwt>0</asrwt>
<pdfrwt beam="1">  1        2 0.15823075E+00 0.12108371E+04</pdfrwt>
<pdfrwt beam="2">  1       -2 0.60384347E+00 0.12108371E+04</pdfrwt>
<totfact> 0.11240036E-02</totfact>
</mgrwt>
</event>
<event>
 4    1  0.5223852E-007  0.8752150E+03  0.7818608E-02  0.9567052E-01
         -2   -1    0    0    0  501 -0.00000000000E+00  0.00000000000E+00  0.38398545056E+03  0.38398545057E+03  0.25500000000E-02 0.  1.
          2   -1    0    0  501    0  0.00000000000E+00 -0.00000000000E+00 -0.21977753330E+04  0.21977753330E+04  0.25500000000E-02 0. -1.
    8880023    1    1    2    0    0  0.22397424825E+03 -0.53106181111E+03 -0.25316871331E+03  0.91109588670E+03  0.65864270000E+03 0.  1.
    8880022    1    1    2    0    0 -0.22397424825E+03  0.53106181111E+03 -0.15606211691E+04  0.16706648969E+04  0.15294330000E+03 0.  0.
<mgrwt>
<rscale>  0 0.79515841E+03</rscale>
<asrwt>0</asrwt>
<pdfrwt beam="1">  1        2 0.33811927E+00 0.87521501E+03</pdfrwt>
<pdfrwt beam="2">  1       -2 0.59074686E-01 0.87521501E+03</pdfrwt>
<totfact> 0.14160139E+01</totfact>
</mgrwt>
</event>
<event>
 4    1  0.5223852E-007  0.8709760E+03  0.7818608E-02  0.9574330E-01
          2   -1    0    0  501    0  0.00000000000E+00  0.00000000000E+00  0.17565498245E+04  0.17565498245E+04  0.25500000000E-02 0. -1.
         -2   -1    0    0    0  501 -0.00000000000E+00 -0.00000000000E+00 -0.37927412560E+03  0.37927412561E+03  0.25500000000E-02 0.  1.
    8880023    1    1    2    0    0  0.55011522563E+03  0.14886974580E+03  0.32545767197E+03  0.92979667949E+03  0.65864270000E+03 0.  0.
    8880022    1    1    2    0    0 -0.55011522563E+03 -0.14886974580E+03  0.10518180269E+04  0.12060272706E+04  0.15294330000E+03 0.  0.
<mgrwt>
<rscale>  0 0.79018760E+03</rscale>
<asrwt>0</asrwt>
<pdfrwt beam="1">  1        2 0.27023843E+00 0.87097599E+03</pdfrwt>
<pdfrwt beam="2">  1       -2 0.58349866E-01 0.87097599E+03</pdfrwt>
<totfact> 0.25405220E+01</totfact>
</mgrwt>
</event>
<event>
 4    1  0.5223852E-007  0.1417527E+04  0.7818608E-02  0.8970182E-01
          2   -1    0    0  501    0  0.00000000000E+00  0.00000000000E+00  0.12912023637E+04  0.12912023637E+04  0.25500000000E-02 0. -1.
         -2   -1    0    0    0  501 -0.00000000000E+00 -0.00000000000E+00 -0.17728160140E+04  0.17728160140E+04  0.25500000000E-02 0.  1.
    8880023    1    1    2    0    0  0.11374603363E+04 -0.53080710654E+03 -0.96004286506E+03  0.17120352537E+04  0.65864270000E+03 0.  0.
    8880022    1    1    2    0    0 -0.11374603363E+04  0.53080710654E+03  0.47842921471E+03  0.13519831240E+04  0.15294330000E+03 0.  0.
<mgrwt>
<rscale>  0 0.13776164E+04</rscale>
<asrwt>0</asrwt>
<pdfrwt beam="1">  1        2 0.19864652E+00 0.14175269E+04</pdfrwt>
<pdfrwt beam="2">  1       -2 0.27274093E+00 0.14175269E+04</pdfrwt>
<totfact> 0.74156740E-01</totfact>
</mgrwt>
</event>
<event>
 4    1  0.5223852E-007  0.7308967E+03  0.7818608E-02  0.9887305E-01
          2   -1    0    0  501    0  0.00000000000E+00  0.00000000000E+00  0.37272981357E+03  0.37272981358E+03  0.25500000000E-02 0. -1.
         -2   -1    0    0    0  501 -0.00000000000E+00 -0.00000000000E+00 -0.18701951798E+04  0.18701951798E+04  0.25500000000E-02 0.  1.
    8880023    1    1    2    0    0  0.17079281034E+03 -0.26688885755E+03 -0.16904080835E+04  0.18416540232E+04  0.65864270000E+03 0.  1.
    8880022    1    1    2    0    0 -0.17079281034E+03  0.26688885755E+03  0.19294271723E+03  0.40127097016E+03  0.15294330000E+03 0.  0.
<mgrwt>
<rscale>  0 0.60880523E+03</rscale>
<asrwt>0</asrwt>
<pdfrwt beam="1">  1        2 0.57343049E-01 0.73089675E+03</pdfrwt>
<pdfrwt beam="2">  1       -2 0.28772233E+00 0.73089675E+03</pdfrwt>
<totfact> 0.33834135E+00</totfact>
</mgrwt>
</event>
<event>
 4    1  0.5223852E-007  0.6806523E+03  0.7818608E-02  0.1008957E+00
          2   -1    0    0  501    0  0.00000000000E+00  0.00000000000E+00  0.29468684062E+04  0.29468684062E+04  0.25500000000E-02 0. -1.
         -2   -1    0    0    0  501 -0.00000000000E+00 -0.00000000000E+00 -0.24460838070E+03  0.24460838071E+03  0.25500000000E-02 0.  1.
    8880023    1    1    2    0    0 -0.49475776230E+01 -0.17161837126E+03  0.24487969681E+03  0.72336271403E+03  0.65864270000E+03 0.  1.
    8880022    1    1    2    0    0  0.49475776230E+01  0.17161837126E+03  0.24573803287E+04  0.24681140729E+04  0.15294330000E+03 0.  0.
<mgrwt>
<rscale>  0 0.51891248E+03</rscale>
<asrwt>0</asrwt>
<pdfrwt beam="1">  1        2 0.45336438E+00 0.68065230E+03</pdfrwt>
<pdfrwt beam="2">  1       -2 0.37632058E-01 0.68065230E+03</pdfrwt>
<totfact> 0.13439323E+01</totfact>
</mgrwt>
</event>
<event>
 4    1  0.5223852E-007  0.7549014E+03  0.7818608E-02  0.9818491E-01
          2   -1    0    0  501    0  0.00000000000E+00  0.00000000000E+00  0.29799952934E+04  0.29799952934E+04  0.25500000000E-02 0. -1.
         -2   -1    0    0    0  501 -0.00000000000E+00 -0.00000000000E+00 -0.26743589954E+03  0.26743589955E+03  0.25500000000E-02 0.  1.
    8880023    1    1    2    0    0 -0.36886960867E+03  0.10704309201E+01  0.31690048722E+03  0.81871976835E+03  0.65864270000E+03 0.  1.
    8880022    1    1    2    0    0  0.36886960867E+03 -0.10704309201E+01  0.23956589066E+04  0.24287114246E+04  0.15294330000E+03 0.  0.
<mgrwt>
<rscale>  0 0.64379608E+03</rscale>
<asrwt>0</asrwt>
<pdfrwt beam="1">  1        2 0.45846080E+00 0.75490141E+03</pdfrwt>
<pdfrwt beam="2">  1       -2 0.41143986E-01 0.75490141E+03</pdfrwt>
<totfact> 0.10642708E+01</totfact>
</mgrwt>
</event>
<event>
 4    1  0.5223852E-007  0.7860401E+03  0.7818608E-02  0.9741835E-01
         -2   -1    0    0    0  501 -0.00000000000E+00  0.00000000000E+00  0.52542057369E+03  0.52542057370E+03  0.25500000000E-02 0.  1.
          2   -1    0    0  501    0  0.00000000000E+00 -0.00000000000E+00 -0.13617669190E+04  0.13617669190E+04  0.25500000000E-02 0. -1.
    8880023    1    1    2    0    0  0.42885822260E+03  0.11379305796E+02  0.15049097541E+03  0.80031656464E+03  0.65864270000E+03 0.  1.
    8880022    1    1    2    0    0 -0.42885822260E+03 -0.11379305796E+02 -0.98683732076E+03  0.10868709281E+04  0.15294330000E+03 0.  0.
<mgrwt>
<rscale>  0 0.68579645E+03</rscale>
<asrwt>0</asrwt>
<pdfrwt beam="1">  1        2 0.20950260E+00 0.78604012E+03</pdfrwt>
<pdfrwt beam="2">  1       -2 0.80833935E-01 0.78604012E+03</pdfrwt>
<totfact> 0.20912110E+01</totfact>
</mgrwt>
</event>
<event>
 4    1  0.5223852E-007  0.7188384E+03  0.7818608E-02  0.9926536E-01
         -2   -1    0    0    0  501 -0.00000000000E+00  0.00000000000E+00  0.86003222932E+03  0.86003222933E+03  0.25500000000E-02 0.  1.
          2   -1    0    0  501    0  0.00000000000E+00 -0.00000000000E+00 -0.96626608661E+03  0.96626608661E+03  0.25500000000E-02 0. -1.
    8880023    1    1    2    0    0  0.92140700089E+02  0.27281600114E+03  0.67106126718E+03  0.98338797514E+03  0.65864270000E+03 0.  0.
    8880022    1    1    2    0    0 -0.92140700089E+02 -0.27281600114E+03 -0.77729512446E+03  0.84291034079E+03  0.15294330000E+03 0.  0.
<mgrwt>
<rscale>  0 0.58992296E+03</rscale>
<asrwt>0</asrwt>
<pdfrwt beam="1">  1        2 0.14865632E+00 0.71883843E+03</pdfrwt>
<pdfrwt beam="2">  1       -2 0.13231265E+00 0.71883843E+03</pdfrwt>
<totfact> 0.11228985E+01</totfact>
</mgrwt>
</event>
<event>
 4    1  0.5223852E-007  0.8007461E+03  0.7818608E-02  0.9709185E-01
         -2   -1    0    0    0  501 -0.00000000000E+00  0.00000000000E+00  0.25151558292E+03  0.25151558293E+03  0.25500000000E-02 0.  1.
          2   -1    0    0  501    0  0.00000000000E+00 -0.00000000000E+00 -0.37450733603E+04  0.37450733603E+04  0.25500000000E-02 0. -1.
    8880023    1    1    2    0    0 -0.87624324886E+02  0.44688489694E+03 -0.45641399916E+03  0.92168762513E+03  0.65864270000E+03 0.  0.
    8880022    1    1    2    0    0  0.87624324886E+02 -0.44688489694E+03 -0.30371437783E+04  0.30749013181E+04  0.15294330000E+03 0.  0.
<mgrwt>
<rscale>  0 0.70472538E+03</rscale>
<asrwt>0</asrwt>
<pdfrwt beam="1">  1        2 0.57616509E+00 0.80074611E+03</pdfrwt>
<pdfrwt beam="2">  1       -2 0.38694708E-01 0.80074611E+03</pdfrwt>
<totfact> 0.36942294E+00</totfact>
</mgrwt>
</event>
<event>
 4    1  0.5223852E-007  0.6756584E+03  0.7818608E-02  0.1011894E+00
          2   -1    0    0  501    0  0.00000000000E+00  0.00000000000E+00  0.60806808414E+03  0.60806808414E+03  0.25500000000E-02 0. -1.
         -2   -1    0    0    0  501 -0.00000000000E+00 -0.00000000000E+00 -0.62764836184E+03  0.62764836185E+03  0.25500000000E-02 0.  1.
    8880023    1    1    2    0    0 -0.10986325875E+03 -0.10312168142E+03 -0.40987927642E+03  0.79026276915E+03  0.65864270000E+03 0.  1.
    8880022    1    1    2    0    0  0.10986325875E+03  0.10312168142E+03  0.39029899871E+03  0.44545367684E+03  0.15294330000E+03 0.  0.
<mgrwt>
<rscale>  0 0.50728601E+03</rscale>
<asrwt>0</asrwt>
<pdfrwt beam="1">  1        2 0.93548936E-01 0.67565836E+03</pdfrwt>
<pdfrwt beam="2">  1       -2 0.96561287E-01 0.67565836E+03</pdfrwt>
<totfact> 0.44576376E+01</totfact>
</mgrwt>
</event>
<event>
 4    1  0.7820168E-007  0.1008930E+04  0.7818608E-02  0.9369967E-01
         -2   -1    0    0    0  501 -0.00000000000E+00  0.00000000000E+00  0.15954242730E+04  0.15954242730E+04  0.25500000000E-02 0.  1.
          2   -1    0    0  501    0  0.00000000000E+00 -0.00000000000E+00 -0.14323852694E+04  0.14323852694E+04  0.25500000000E-02 0. -1.
    8880023    1    1    2    0    0  0.56270172753E+03  0.51720063060E+03  0.13023212498E+04  0.16474163318E+04  0.65864270000E+03 0.  1.
    8880022    1    1    2    0    0 -0.56270172753E+03 -0.51720063060E+03 -0.11392822461E+04  0.13803932106E+04  0.15294330000E+03 0.  0.
<mgrwt>
<rscale>  0 0.94589080E+03</rscale>
<asrwt>0</asrwt>
<pdfrwt beam="1">  1        2 0.22036696E+00 0.10089301E+04</pdfrwt>
<pdfrwt beam="2">  1       -2 0.24544989E+00 0.10089301E+04</pdfrwt>
<totfact> 0.94673043E-01</totfact>
</mgrwt>
</event>
<event>
 4    1  0.5223852E-007  0.8099184E+03  0.7818608E-02  0.9689747E-01
         -2   -1    0    0    0  501 -0.00000000000E+00  0.00000000000E+00  0.36577273923E+03  0.36577273924E+03  0.25500000000E-02 0.  1.
          2   -1    0    0  501    0  0.00000000000E+00 -0.00000000000E+00 -0.14431323821E+04  0.14431323821E+04  0.25500000000E-02 0. -1.
    8880023    1    1    2    0    0  0.33080831972E+03  0.33574306840E+03 -0.25558431329E+03  0.84928858454E+03  0.65864270000E+03 0.  1.
    8880022    1    1    2    0    0 -0.33080831972E+03 -0.33574306840E+03 -0.82177532957E+03  0.95961653679E+03  0.15294330000E+03 0. -1.
<mgrwt>
<rscale>  0 0.71630544E+03</rscale>
<asrwt>0</asrwt>
<pdfrwt beam="1">  1        2 0.22202036E+00 0.80991837E+03</pdfrwt>
<pdfrwt beam="2">  1       -2 0.56272730E-01 0.80991837E+03</pdfrwt>
<totfact> 0.41146320E+01</totfact>
</mgrwt>
</event>
<event>
 4    1  0.5223852E-007  0.6746169E+03  0.7818608E-02  0.1012549E+00
          2   -1    0    0  501    0  0.00000000000E+00  0.00000000000E+00  0.79665150821E+03  0.79665150822E+03  0.25500000000E-02 0. -1.
         -2   -1    0    0    0  501 -0.00000000000E+00 -0.00000000000E+00 -0.50487202836E+03  0.50487202837E+03  0.25500000000E-02 0.  1.
    8880023    1    1    2    0    0  0.32464440788E+02  0.14228055941E+03 -0.25040005400E+03  0.71958883455E+03  0.65864270000E+03 0.  1.
    8880022    1    1    2    0    0 -0.32464440788E+02 -0.14228055941E+03  0.54217953384E+03  0.58193470204E+03  0.15294330000E+03 0.  0.
<mgrwt>
<rscale>  0 0.50474078E+03</rscale>
<asrwt>0</asrwt>
<pdfrwt beam="1">  1        2 0.12256177E+00 0.67461686E+03</pdfrwt>
<pdfrwt beam="2">  1       -2 0.77672620E-01 0.67461686E+03</pdfrwt>
<totfact> 0.52179501E+01</totfact>
</mgrwt>
</event>
<event>
 4    1  0.5223852E-007  0.8681841E+03  0.7818608E-02  0.9579168E-01
         -2   -1    0    0    0  501 -0.00000000000E+00  0.00000000000E+00  0.30500817852E+03  0.30500817853E+03  0.25500000000E-02 0.  1.
          2   -1    0    0  501    0  0.00000000000E+00 -0.00000000000E+00 -0.23141123992E+04  0.23141123992E+04  0.25500000000E-02 0. -1.
    8880023    1    1    2    0    0  0.12276868346E+03  0.55214251216E+03 -0.50373867024E+03  0.10037411805E+04  0.65864270000E+03 0.  1.
    8880022    1    1    2    0    0 -0.12276868346E+03 -0.55214251216E+03 -0.15053655504E+04  0.16153793972E+04  0.15294330000E+03 0.  0.
<mgrwt>
<rscale>  0 0.78690461E+03</rscale>
<asrwt>0</asrwt>
<pdfrwt beam="1">  1        2 0.35601728E+00 0.86818415E+03</pdfrwt>
<pdfrwt beam="2">  1       -2 0.46924337E-01 0.86818415E+03</pdfrwt>
<totfact> 0.19629959E+01</totfact>
</mgrwt>
</event>
<event>
 4    1  0.5223852E-007  0.6736610E+03  0.7818608E-02  0.1013164E+00
         -2   -1    0    0    0  501 -0.00000000000E+00  0.00000000000E+00  0.18174665769E+03  0.18174665771E+03  0.25500000000E-02 0.  1.
          2   -1    0    0  501    0  0.00000000000E+00 -0.00000000000E+00 -0.19846567210E+04  0.19846567210E+04  0.25500000000E-02 0. -1.
    8880023    1    1    2    0    0  0.13508037409E+03 -0.41978781258E+02 -0.47996337339E+03  0.82715414017E+03  0.65864270000E+03 0.  1.
    8880022    1    1    2    0    0 -0.13508037409E+03  0.41978781258E+02 -0.13229466899E+04  0.13392492385E+04  0.15294330000E+03 0.  0.
<mgrwt>
<rscale>  0 0.50236340E+03</rscale>
<asrwt>0</asrwt>
<pdfrwt beam="1">  1        2 0.30533179E+00 0.67366099E+03</pdfrwt>
<pdfrwt beam="2">  1       -2 0.27961026E-01 0.67366099E+03</pdfrwt>
<totfact> 0.82460721E+01</totfact>
</mgrwt>
</event>
<event>
 4    1  0.5223852E-007  0.8401879E+03  0.7818608E-02  0.9629826E-01
         -2   -1    0    0    0  501 -0.00000000000E+00  0.00000000000E+00  0.40853302747E+03  0.40853302748E+03  0.25500000000E-02 0.  1.
          2   -1    0    0  501    0  0.00000000000E+00 -0.00000000000E+00 -0.12223483348E+04  0.12223483348E+04  0.25500000000E-02 0. -1.
    8880023    1    1    2    0    0  0.35195042296E+03 -0.38501474440E+03 -0.32836576142E+03  0.90207523698E+03  0.65864270000E+03 0.  0.
    8880022    1    1    2    0    0 -0.35195042296E+03  0.38501474440E+03 -0.48544954586E+03  0.72880612526E+03  0.15294330000E+03 0.  1.
<mgrwt>
<rscale>  0 0.75353158E+03</rscale>
<asrwt>0</asrwt>
<pdfrwt beam="1">  1        2 0.18805359E+00 0.84018787E+03</pdfrwt>
<pdfrwt beam="2">  1       -2 0.62851235E-01 0.84018787E+03</pdfrwt>
<totfact> 0.43524411E+01</totfact>
</mgrwt>
</event>
<event>
 4    1  0.5223852E-007  0.1146196E+04  0.7818608E-02  0.9211286E-01
          2   -1    0    0  501    0  0.00000000000E+00  0.00000000000E+00  0.13627813772E+04  0.13627813773E+04  0.25500000000E-02 0. -1.
         -2   -1    0    0    0  501 -0.00000000000E+00 -0.00000000000E+00 -0.10541254724E+04  0.10541254724E+04  0.25500000000E-02 0.  1.
    8880023    1    1    2    0    0 -0.91855602170E+03 -0.19028662263E+03 -0.41849452138E+03  0.12202057345E+04  0.65864270000E+03 0.  0.
    8880022    1    1    2    0    0  0.91855602170E+03  0.19028662263E+03  0.72715042622E+03  0.11967011152E+04  0.15294330000E+03 0.  0.
<mgrwt>
<rscale>  0 0.10937695E+04</rscale>
<asrwt>0</asrwt>
<pdfrwt beam="1">  1        2 0.20965867E+00 0.11461956E+04</pdfrwt>
<pdfrwt beam="2">  1       -2 0.16217315E+00 0.11461956E+04</pdfrwt>
<totfact> 0.36039807E+00</totfact>
</mgrwt>
</event>
<event>
 4    1  0.5223852E-007  0.7951436E+03  0.7818608E-02  0.9721397E-01
          2   -1    0    0  501    0  0.00000000000E+00  0.00000000000E+00  0.18826694914E+04  0.18826694914E+04  0.25500000000E-02 0. -1.
         -2   -1    0    0    0  501 -0.00000000000E+00 -0.00000000000E+00 -0.34876599569E+03  0.34876599570E+03  0.25500000000E-02 0.  1.
    8880023    1    1    2    0    0  0.23602210565E+03 -0.37780502678E+03  0.20443661611E+03  0.82100402489E+03  0.65864270000E+03 0.  0.
    8880022    1    1    2    0    0 -0.23602210565E+03  0.37780502678E+03  0.13294668796E+04  0.14104314622E+04  0.15294330000E+03 0.  0.
<mgrwt>
<rscale>  0 0.69757009E+03</rscale>
<asrwt>0</asrwt>
<pdfrwt beam="1">  1        2 0.28964146E+00 0.79514356E+03</pdfrwt>
<pdfrwt beam="2">  1       -2 0.53656308E-01 0.79514356E+03</pdfrwt>
<totfact> 0.26041243E+01</totfact>
</mgrwt>
</event>
<event>
 4    1  0.5223852E-007  0.6645099E+03  0.7818608E-02  0.1019948E+00
          2   -1    0    0  501    0  0.00000000000E+00  0.00000000000E+00  0.69149102946E+03  0.69149102946E+03  0.25500000000E-02 0. -1.
         -2   -1    0    0    0  501 -0.00000000000E+00 -0.00000000000E+00 -0.28711383085E+03  0.28711383086E+03  0.25500000000E-02 0.  1.
    8880023    1    1    2    0    0  0.82667271139E+02  0.30484311661E+02  0.17129709364E+03  0.68623324863E+03  0.65864270000E+03 0.  0.
    8880022    1    1    2    0    0 -0.82667271139E+02 -0.30484311661E+02  0.23308010496E+03  0.29237161169E+03  0.15294330000E+03 0.  0.
<mgrwt>
<rscale>  0 0.47705312E+03</rscale>
<asrwt>0</asrwt>
<pdfrwt beam="1">  1        2 0.10638323E+00 0.66450988E+03</pdfrwt>
<pdfrwt beam="2">  1       -2 0.44171359E-01 0.66450988E+03</pdfrwt>
<totfact> 0.20502260E+02</totfact>
</mgrwt>
</event>
<event>
 4    1  0.5223852E-007  0.8469585E+03  0.7818608E-02  0.9617196E-01
          2   -1    0    0  501    0  0.00000000000E+00  0.00000000000E+00  0.12355197936E+04  0.12355197936E+04  0.25500000000E-02 0. -1.
         -2   -1    0    0    0  501 -0.00000000000E+00 -0.00000000000E+00 -0.47104720351E+03  0.47104720352E+03  0.25500000000E-02 0.  1.
    8880023    1    1    2    0    0  0.14866953295E+03  0.51129821845E+03  0.11792186335E+03  0.85512821865E+03  0.65864270000E+03 0.  1.
    8880022    1    1    2    0    0 -0.14866953295E+03 -0.51129821845E+03  0.64655072673E+03  0.85143877846E+03  0.15294330000E+03 0.  0.
<mgrwt>
<rscale>  0 0.76168390E+03</rscale>
<asrwt>0</asrwt>
<pdfrwt beam="1">  1        2 0.19007997E+00 0.84695850E+03</pdfrwt>
<pdfrwt beam="2">  1       -2 0.72468801E-01 0.84695850E+03</pdfrwt>
<totfact> 0.31372481E+01</totfact>
</mgrwt>
</event>
<event>
 4    1  0.7644048E-007  0.7156223E+03  0.7818608E-02  0.9937687E-01
         -2   -1    0    0    0  501 -0.00000000000E+00  0.00000000000E+00  0.12392209988E+04  0.12392209988E+04  0.25500000000E-02 0.  1.
          2   -1    0    0  501    0  0.00000000000E+00 -0.00000000000E+00 -0.15354993189E+04  0.15354993190E+04  0.25500000000E-02 0. -1.
    8880023    1    1    2    0    0 -0.44288519903E+02 -0.27630332720E+03  0.11166333082E+04  0.13262673761E+04  0.65864270000E+03 0.  1.
    8880022    1    1    2    0    0  0.44288519903E+02  0.27630332720E+03 -0.14129116284E+04  0.14484529417E+04  0.15294330000E+03 0.  0.
<mgrwt>
<rscale>  0 0.58469073E+03</rscale>
<asrwt>0</asrwt>
<pdfrwt beam="1">  1        2 0.23623067E+00 0.71562225E+03</pdfrwt>
<pdfrwt beam="2">  1       -2 0.19064938E+00 0.71562225E+03</pdfrwt>
<totfact> 0.19309459E+00</totfact>
</mgrwt>
</event>
<event>
 4    1  0.5223852E-007  0.6723822E+03  0.7818608E-02  0.1014010E+00
         -2   -1    0    0    0  501 -0.00000000000E+00  0.00000000000E+00  0.91966743281E+03  0.91966743282E+03  0.25500000000E-02 0.  1.
          2   -1    0    0  501    0  0.00000000000E+00 -0.00000000000E+00 -0.10152887134E+04  0.10152887134E+04  0.25500000000E-02 0. -1.
    8880023    1    1    2    0    0 -0.13285747232E+03  0.25228823643E+02  0.78349007507E+03  0.10324507279E+04  0.65864270000E+03 0.  1.
    8880022    1    1    2    0    0  0.13285747232E+03 -0.25228823643E+02 -0.87911135564E+03  0.90250541834E+03  0.15294330000E+03 0.  0.
<mgrwt>
<rscale>  0 0.49911675E+03</rscale>
<asrwt>0</asrwt>
<pdfrwt beam="1">  1        2 0.15619826E+00 0.67238219E+03</pdfrwt>
<pdfrwt beam="2">  1       -2 0.14148730E+00 0.67238219E+03</pdfrwt>
<totfact> 0.88491679E+00</totfact>
</mgrwt>
</event>
<event>
 4    1  0.5223852E-007  0.7176604E+03  0.7818608E-02  0.9930583E-01
          2   -1    0    0  501    0  0.00000000000E+00  0.00000000000E+00  0.21853844071E+04  0.21853844071E+04  0.25500000000E-02 0. -1.
         -2   -1    0    0    0  501 -0.00000000000E+00 -0.00000000000E+00 -0.18498705189E+03  0.18498705191E+03  0.25500000000E-02 0.  1.
    8880023    1    1    2    0    0  0.83580189743E+02 -0.27247130502E+03  0.60703971353E+03  0.93996472287E+03  0.65864270000E+03 0.  1.
    8880022    1    1    2    0    0 -0.83580189743E+02  0.27247130502E+03  0.13933576417E+04  0.14304067362E+04  0.15294330000E+03 0.  0.
<mgrwt>
<rscale>  0 0.58801716E+03</rscale>
<asrwt>0</asrwt>
<pdfrwt beam="1">  1        2 0.33621299E+00 0.71766041E+03</pdfrwt>
<pdfrwt beam="2">  1       -2 0.28459546E-01 0.71766041E+03</pdfrwt>
<totfact> 0.61671939E+01</totfact>
</mgrwt>
</event>
<event>
 4    1  0.5223852E-007  0.7526542E+03  0.7818608E-02  0.9824510E-01
          2   -1    0    0  501    0  0.00000000000E+00  0.00000000000E+00  0.34540350167E+04  0.34540350167E+04  0.25500000000E-02 0. -1.
         -2   -1    0    0    0  501 -0.00000000000E+00 -0.00000000000E+00 -0.51125776999E+03  0.51125777000E+03  0.25500000000E-02 0.  1.
    8880023    1    1    2    0    0 -0.14628204503E+03  0.33358618136E+03 -0.21511002670E+03  0.78279033396E+03  0.65864270000E+03 0.  1.
    8880022    1    1    2    0    0  0.14628204503E+03 -0.33358618136E+03  0.31578872734E+04  0.31825024528E+04  0.15294330000E+03 0.  0.
<mgrwt>
<rscale>  0 0.64063623E+03</rscale>
<asrwt>0</asrwt>
<pdfrwt beam="1">  1        2 0.53138999E+00 0.75265423E+03</pdfrwt>
<pdfrwt beam="2">  1       -2 0.78655044E-01 0.75265423E+03</pdfrwt>
<totfact> 0.13641128E+00</totfact>
</mgrwt>
</event>
<event>
 4    1  0.5223852E-007  0.7020629E+03  0.7818608E-02  0.9988749E-01
         -2   -1    0    0    0  501 -0.00000000000E+00  0.00000000000E+00  0.61267448709E+03  0.61267448709E+03  0.25500000000E-02 0.  1.
          2   -1    0    0  501    0  0.00000000000E+00 -0.00000000000E+00 -0.55760089887E+03  0.55760089888E+03  0.25500000000E-02 0. -1.
    8880023    1    1    2    0    0 -0.11053233222E+03 -0.21648252965E+03  0.32726781142E+03  0.77459441565E+03  0.65864270000E+03 0.  1.
    8880022    1    1    2    0    0  0.11053233222E+03  0.21648252965E+03 -0.27219422320E+03  0.39568097032E+03  0.15294330000E+03 0.  0.
<mgrwt>
<rscale>  0 0.56146342E+03</rscale>
<asrwt>0</asrwt>
<pdfrwt beam="1">  1        2 0.85784754E-01 0.70206288E+03</pdfrwt>
<pdfrwt beam="2">  1       -2 0.94257613E-01 0.70206288E+03</pdfrwt>
<totfact> 0.52205366E+01</totfact>
</mgrwt>
</event>
<event>
 4    1  0.5223852E-007  0.7943811E+03  0.7818608E-02  0.9723080E-01
         -2   -1    0    0    0  501 -0.00000000000E+00  0.00000000000E+00  0.33901613396E+03  0.33901613397E+03  0.25500000000E-02 0.  1.
          2   -1    0    0  501    0  0.00000000000E+00 -0.00000000000E+00 -0.18941905492E+04  0.18941905492E+04  0.25500000000E-02 0. -1.
    8880023    1    1    2    0    0  0.41157020826E+03 -0.16685650184E+03 -0.22963284559E+03  0.82690542299E+03  0.65864270000E+03 0.  0.
    8880022    1    1    2    0    0 -0.41157020826E+03  0.16685650184E+03 -0.13255415697E+04  0.14063012602E+04  0.15294330000E+03 0.  0.
<mgrwt>
<rscale>  0 0.69659118E+03</rscale>
<asrwt>0</asrwt>
<pdfrwt beam="1">  1        2 0.29141392E+00 0.79438110E+03</pdfrwt>
<pdfrwt beam="2">  1       -2 0.52156329E-01 0.79438110E+03</pdfrwt>
<totfact> 0.27213562E+01</totfact>
</mgrwt>
</event>
<event>
 4    1  0.5223852E-007  0.6592660E+03  0.7818608E-02  0.1024921E+00
          2   -1    0    0  501    0  0.00000000000E+00  0.00000000000E+00  0.85061686739E+03  0.85061686739E+03  0.25500000000E-02 0. -1.
         -2   -1    0    0    0  501 -0.00000000000E+00 -0.00000000000E+00 -0.21040131786E+03  0.21040131787E+03  0.25500000000E-02 0.  1.
    8880023    1    1    2    0    0 -0.69367766844E+01  0.27809372043E+02  0.38888566778E+03  0.76541736910E+03  0.65864270000E+03 0.  1.
    8880022    1    1    2    0    0  0.69367766844E+01 -0.27809372043E+02  0.25132988175E+03  0.29560081617E+03  0.15294330000E+03 0.  0.
<mgrwt>
<rscale>  0 0.45951733E+03</rscale>
<asrwt>0</asrwt>
<pdfrwt beam="1">  1        2 0.13086413E+00 0.65926602E+03</pdfrwt>
<pdfrwt beam="2">  1       -2 0.32369434E-01 0.65926602E+03</pdfrwt>
<totfact> 0.28524084E+02</totfact>
</mgrwt>
</event>
<event>
 4    1  0.5223852E-007  0.7707298E+03  0.7818608E-02  0.9778081E-01
          2   -1    0    0  501    0  0.00000000000E+00  0.00000000000E+00  0.12680776137E+04  0.12680776137E+04  0.25500000000E-02 0. -1.
         -2   -1    0    0    0  501 -0.00000000000E+00 -0.00000000000E+00 -0.56556043228E+03  0.56556043228E+03  0.25500000000E-02 0.  1.
    8880023    1    1    2    0    0 -0.80274021292E+02  0.39213562568E+03 -0.23256572962E+03  0.80505359590E+03  0.65864270000E+03 0.  1.
    8880022    1    1    2    0    0  0.80274021292E+02 -0.39213562568E+03  0.93508291103E+03  0.10285844501E+04  0.15294330000E+03 0.  0.
<mgrwt>
<rscale>  0 0.66552207E+03</rscale>
<asrwt>0</asrwt>
<pdfrwt beam="1">  1        2 0.19508886E+00 0.77072983E+03</pdfrwt>
<pdfrwt beam="2">  1       -2 0.87009298E-01 0.77072983E+03</pdfrwt>
<totfact> 0.20063936E+01</totfact>
</mgrwt>
</event>
<event>
 4    1  0.5223852E-007  0.1078680E+04  0.7818608E-02  0.9285173E-01
          2   -1    0    0  501    0  0.00000000000E+00  0.00000000000E+00  0.18141827364E+04  0.18141827364E+04  0.25500000000E-02 0. -1.
         -2   -1    0    0    0  501 -0.00000000000E+00 -0.00000000000E+00 -0.62923853272E+03  0.62923853272E+03  0.25500000000E-02 0.  1.
    8880023    1    1    2    0    0 -0.67567668312E+03 -0.52268727618E+03  0.14412024679E+03  0.10882655102E+04  0.65864270000E+03 0.  0.
    8880022    1    1    2    0    0  0.67567668312E+03  0.52268727618E+03  0.10408239568E+04  0.13551557589E+04  0.15294330000E+03 0.  1.
<mgrwt>
<rscale>  0 0.10215944E+04</rscale>
<asrwt>0</asrwt>
<pdfrwt beam="1">  1        2 0.27910503E+00 0.10786803E+04</pdfrwt>
<pdfrwt beam="2">  1       -2 0.96805930E-01 0.10786803E+04</pdfrwt>
<totfact> 0.74818332E+00</totfact>
</mgrwt>
</event>
<event>
 4    1  0.5223852E-007  0.8698044E+03  0.7818608E-02  0.9576356E-01
         -2   -1    0    0    0  501 -0.00000000000E+00  0.00000000000E+00  0.17634800751E+04  0.17634800751E+04  0.25500000000E-02 0.  1.
          2   -1    0    0  501    0  0.00000000000E+00 -0.00000000000E+00 -0.56580614993E+03  0.56580614993E+03  0.25500000000E-02 0. -1.
    8880023    1    1    2    0    0 -0.55558299974E+03 -0.11864664387E+03  0.14485984074E+04  0.16896736513E+04  0.65864270000E+03 0.  0.
    8880022    1    1    2    0    0  0.55558299974E+03  0.11864664387E+03 -0.25092448221E+03  0.63961257375E+03  0.15294330000E+03 0.  0.
<mgrwt>
<rscale>  0 0.78881081E+03</rscale>
<asrwt>0</asrwt>
<pdfrwt beam="1">  1        2 0.87047101E-01 0.86980440E+03</pdfrwt>
<pdfrwt beam="2">  1       -2 0.27130462E+00 0.86980440E+03</pdfrwt>
<totfact> 0.25776695E+00</totfact>
</mgrwt>
</event>
<event>
 4    1  0.5223852E-007  0.8095301E+03  0.7818608E-02  0.9690556E-01
         -2   -1    0    0    0  501 -0.00000000000E+00  0.00000000000E+00  0.50139991734E+03  0.50139991734E+03  0.25500000000E-02 0.  1.
          2   -1    0    0  501    0  0.00000000000E+00 -0.00000000000E+00 -0.15014095004E+04  0.15014095004E+04  0.25500000000E-02 0. -1.
    8880023    1    1    2    0    0 -0.32121481403E+02  0.46957112137E+03  0.81326097359E+02  0.81360492130E+03  0.65864270000E+03 0.  0.
    8880022    1    1    2    0    0  0.32121481403E+02 -0.46957112137E+03 -0.10813356804E+04  0.11892044964E+04  0.15294330000E+03 0.  0.
<mgrwt>
<rscale>  0 0.71581847E+03</rscale>
<asrwt>0</asrwt>
<pdfrwt beam="1">  1        2 0.23098608E+00 0.80953013E+03</pdfrwt>
<pdfrwt beam="2">  1       -2 0.77138449E-01 0.80953013E+03</pdfrwt>
<totfact> 0.19325414E+01</totfact>
</mgrwt>
</event>
<event>
 4    1  0.5223852E-007  0.7605448E+03  0.7818608E-02  0.9803699E-01
          2   -1    0    0  501    0  0.00000000000E+00  0.00000000000E+00  0.75944895419E+03  0.75944895420E+03  0.25500000000E-02 0. -1.
         -2   -1    0    0    0  501 -0.00000000000E+00 -0.00000000000E+00 -0.12697800638E+04  0.12697800638E+04  0.25500000000E-02 0.  1.
    8880023    1    1    2    0    0 -0.14032094852E+03 -0.35345191064E+03 -0.10839875477E+04  0.13241817971E+04  0.65864270000E+03 0.  1.
    8880022    1    1    2    0    0  0.14032094852E+03  0.35345191064E+03  0.57365643814E+03  0.70504722094E+03  0.15294330000E+03 0.  0.
<mgrwt>
<rscale>  0 0.65164409E+03</rscale>
<asrwt>0</asrwt>
<pdfrwt beam="1">  1        2 0.11683830E+00 0.76054482E+03</pdfrwt>
<pdfrwt beam="2">  1       -2 0.19535078E+00 0.76054482E+03</pdfrwt>
<totfact> 0.53687660E+00</totfact>
</mgrwt>
</event>
<event>
 4    1  0.5223852E-007  0.8708821E+03  0.7818608E-02  0.9574492E-01
         -2   -1    0    0    0  501 -0.00000000000E+00  0.00000000000E+00  0.40675002430E+03  0.40675002430E+03  0.25500000000E-02 0.  1.
          2   -1    0    0  501    0  0.00000000000E+00 -0.00000000000E+00 -0.13948032500E+04  0.13948032500E+04  0.25500000000E-02 0. -1.
    8880023    1    1    2    0    0 -0.75405990312E+02 -0.56474717191E+03 -0.36722720827E+03  0.94514097378E+03  0.65864270000E+03 0.  1.
    8880022    1    1    2    0    0  0.75405990312E+02  0.56474717191E+03 -0.62082601740E+03  0.85641230050E+03  0.15294330000E+03 0. -1.
<mgrwt>
<rscale>  0 0.79007732E+03</rscale>
<asrwt>0</asrwt>
<pdfrwt beam="1">  1        2 0.21458511E+00 0.87088210E+03</pdfrwt>
<pdfrwt beam="2">  1       -2 0.62576927E-01 0.87088210E+03</pdfrwt>
<totfact> 0.34817496E+01</totfact>
</mgrwt>
</event>
<event>
 4    1  0.1388464E-006  0.8244689E+03  0.7818608E-02  0.9660192E-01
          2   -1    0    0  501    0  0.00000000000E+00  0.00000000000E+00  0.19240084016E+04  0.19240084016E+04  0.25500000000E-02 0. -1.
         -2   -1    0    0    0  501 -0.00000000000E+00 -0.00000000000E+00 -0.12328829604E+04  0.12328829604E+04  0.25500000000E-02 0.  1.
    8880023    1    1    2    0    0  0.24695702016E+03 -0.43005930989E+03 -0.10528984361E+04  0.13372898350E+04  0.65864270000E+03 0.  0.
    8880022    1    1    2    0    0 -0.24695702016E+03  0.43005930989E+03  0.17440238773E+04  0.18196015271E+04  0.15294330000E+03 0.  0.
<mgrwt>
<rscale>  0 0.73437248E+03</rscale>
<asrwt>0</asrwt>
<pdfrwt beam="1">  1        2 0.29600129E+00 0.82446891E+03</pdfrwt>
<pdfrwt beam="2">  1       -2 0.18967430E+00 0.82446891E+03</pdfrwt>
<totfact> 0.11768126E+00</totfact>
</mgrwt>
</event>
<event>
 4    1  0.5223852E-007  0.9515645E+03  0.7818608E-02  0.9447867E-01
          2   -1    0    0  501    0  0.00000000000E+00  0.00000000000E+00  0.19456580049E+04  0.19456580049E+04  0.25500000000E-02 0. -1.
         -2   -1    0    0    0  501 -0.00000000000E+00 -0.00000000000E+00 -0.68937367428E+03  0.68937367429E+03  0.25500000000E-02 0.  1.
    8880023    1    1    2    0    0  0.30366675373E+03  0.61599618116E+03 -0.24018255731E+03  0.98140850803E+03  0.65864270000E+03 0.  0.
    8880022    1    1    2    0    0 -0.30366675373E+03 -0.61599618116E+03  0.14964668879E+04  0.16536231711E+04  0.15294330000E+03 0.  0.
<mgrwt>
<rscale>  0 0.88238987E+03</rscale>
<asrwt>0</asrwt>
<pdfrwt beam="1">  1        2 0.29933200E+00 0.95156450E+03</pdfrwt>
<pdfrwt beam="2">  1       -2 0.10605749E+00 0.95156450E+03</pdfrwt>
<totfact> 0.51672891E+00</totfact>
</mgrwt>
</event>
<event>
 4    1  0.5223852E-007  0.7424661E+03  0.7818608E-02  0.9852821E-01
         -2   -1    0    0    0  501 -0.00000000000E+00  0.00000000000E+00  0.42096576785E+03  0.42096576785E+03  0.25500000000E-02 0.  1.
          2   -1    0    0  501    0  0.00000000000E+00 -0.00000000000E+00 -0.14556701084E+04  0.14556701084E+04  0.25500000000E-02 0. -1.
    8880023    1    1    2    0    0  0.20374491704E+03  0.27556076618E+03  0.34717975216E+02  0.74327738506E+03  0.65864270000E+03 0.  1.
    8880022    1    1    2    0    0 -0.20374491704E+03 -0.27556076618E+03 -0.10694223158E+04  0.11333584912E+04  0.15294330000E+03 0.  0.
<mgrwt>
<rscale>  0 0.62603299E+03</rscale>
<asrwt>0</asrwt>
<pdfrwt beam="1">  1        2 0.22394924E+00 0.74246612E+03</pdfrwt>
<pdfrwt beam="2">  1       -2 0.64763965E-01 0.74246612E+03</pdfrwt>
<totfact> 0.30285986E+01</totfact>
</mgrwt>
</event>
<event>
 4    1  0.5223852E-007  0.6634332E+03  0.7818608E-02  0.1020886E+00
          2   -1    0    0  501    0  0.00000000000E+00  0.00000000000E+00  0.19609318006E+04  0.19609318006E+04  0.25500000000E-02 0. -1.
         -2   -1    0    0    0  501 -0.00000000000E+00 -0.00000000000E+00 -0.28725878090E+03  0.28725878091E+03  0.25500000000E-02 0.  1.
    8880023    1    1    2    0    0 -0.25472461395E+02  0.75395708244E+02  0.10693642835E+03  0.67199625377E+03  0.65864270000E+03 0.  1.
    8880022    1    1    2    0    0  0.25472461395E+02 -0.75395708244E+02  0.15667365914E+04  0.15761943277E+04  0.15294330000E+03 0.  0.
<mgrwt>
<rscale>  0 0.47368337E+03</rscale>
<asrwt>0</asrwt>
<pdfrwt beam="1">  1        2 0.30168180E+00 0.66343317E+03</pdfrwt>
<pdfrwt beam="2">  1       -2 0.44193662E-01 0.66343317E+03</pdfrwt>
<totfact> 0.35575837E+01</totfact>
</mgrwt>
</event>
<event>
 4    1  0.5223852E-007  0.6761842E+03  0.7818608E-02  0.1011570E+00
         -2   -1    0    0    0  501 -0.00000000000E+00  0.00000000000E+00  0.25157101686E+03  0.25157101688E+03  0.25500000000E-02 0.  1.
          2   -1    0    0  501    0  0.00000000000E+00 -0.00000000000E+00 -0.95288915410E+03  0.95288915410E+03  0.25500000000E-02 0. -1.
    8880023    1    1    2    0    0 -0.10003905335E+03 -0.11578868398E+03 -0.28202517852E+03  0.73264127588E+03  0.65864270000E+03 0.  0.
    8880022    1    1    2    0    0  0.10003905335E+03  0.11578868398E+03 -0.41929295872E+03  0.47181889510E+03  0.15294330000E+03 0.  0.
<mgrwt>
<rscale>  0 0.50855392E+03</rscale>
<asrwt>0</asrwt>
<pdfrwt beam="1">  1        2 0.14659833E+00 0.67618417E+03</pdfrwt>
<pdfrwt beam="2">  1       -2 0.38703234E-01 0.67618417E+03</pdfrwt>
<totfact> 0.17314334E+02</totfact>
</mgrwt>
</event>
<event>
 4    1  0.5223852E-007  0.8538971E+03  0.7818608E-02  0.9604513E-01
         -2   -1    0    0    0  501 -0.00000000000E+00  0.00000000000E+00  0.58785024333E+03  0.58785024334E+03  0.25500000000E-02 0.  1.
          2   -1    0    0  501    0  0.00000000000E+00 -0.00000000000E+00 -0.22689507192E+04  0.22689507192E+04  0.25500000000E-02 0. -1.
    8880023    1    1    2    0    0 -0.54336500223E+02 -0.54071956906E+03  0.21324403173E+03  0.88012120242E+03  0.65864270000E+03 0.  0.
    8880022    1    1    2    0    0  0.54336500223E+02  0.54071956906E+03 -0.18943445076E+04  0.19766797601E+04  0.15294330000E+03 0.  0.
<mgrwt>
<rscale>  0 0.76998210E+03</rscale>
<asrwt>0</asrwt>
<pdfrwt beam="1">  1        2 0.34906934E+00 0.85389713E+03</pdfrwt>
<pdfrwt beam="2">  1       -2 0.90438500E-01 0.85389713E+03</pdfrwt>
<totfact> 0.50607434E+00</totfact>
</mgrwt>
</event>
<event>
 4    1  0.5223852E-007  0.7218370E+03  0.7818608E-02  0.9916419E-01
          2   -1    0    0  501    0  0.00000000000E+00  0.00000000000E+00  0.20049903601E+04  0.20049903601E+04  0.25500000000E-02 0. -1.
         -2   -1    0    0    0  501 -0.00000000000E+00 -0.00000000000E+00 -0.68470170275E+03  0.68470170276E+03  0.25500000000E-02 0.  1.
    8880023    1    1    2    0    0 -0.29196755761E+03  0.44647161079E+02 -0.47483648450E+03  0.86401291481E+03  0.65864270000E+03 0.  1.
    8880022    1    1    2    0    0  0.29196755761E+03 -0.44647161079E+02  0.17951251419E+04  0.18256791481E+04  0.15294330000E+03 0.  0.
<mgrwt>
<rscale>  0 0.59472131E+03</rscale>
<asrwt>0</asrwt>
<pdfrwt beam="1">  1        2 0.30846006E+00 0.72183698E+03</pdfrwt>
<pdfrwt beam="2">  1       -2 0.10533872E+00 0.72183698E+03</pdfrwt>
<totfact> 0.50414004E+00</totfact>
</mgrwt>
</event>
<event>
 4    1  0.5223852E-007  0.8713415E+03  0.7818608E-02  0.9573699E-01
         -2   -1    0    0    0  501 -0.00000000000E+00  0.00000000000E+00  0.14957852255E+04  0.14957852255E+04  0.25500000000E-02 0.  1.
          2   -1    0    0  501    0  0.00000000000E+00 -0.00000000000E+00 -0.11322388717E+04  0.11322388718E+04  0.25500000000E-02 0. -1.
    8880023    1    1    2    0    0  0.13913439601E+03  0.55323358769E+03  0.12735861725E+04  0.15431324401E+04  0.65864270000E+03 0.  0.
    8880022    1    1    2    0    0 -0.13913439601E+03 -0.55323358769E+03 -0.91003981883E+03  0.10848916571E+04  0.15294330000E+03 0.  0.
<mgrwt>
<rscale>  0 0.79061685E+03</rscale>
<asrwt>0</asrwt>
<pdfrwt beam="1">  1        2 0.17419060E+00 0.87134149E+03</pdfrwt>
<pdfrwt beam="2">  1       -2 0.23012080E+00 0.87134149E+03</pdfrwt>
<totfact> 0.17978453E+00</totfact>
</mgrwt>
</event>
<event>
 4    1  0.5223852E-007  0.9612947E+03  0.7818608E-02  0.9434046E-01
          2   -1    0    0  501    0  0.00000000000E+00  0.00000000000E+00  0.25910741913E+04  0.25910741913E+04  0.25500000000E-02 0. -1.
         -2   -1    0    0    0  501 -0.00000000000E+00 -0.00000000000E+00 -0.41256984473E+03  0.41256984474E+03  0.25500000000E-02 0.  1.
    8880023    1    1    2    0    0 -0.38868208500E+03  0.58241174471E+03  0.32231068628E+03  0.10138893373E+04  0.65864270000E+03 0.  1.
    8880022    1    1    2    0    0  0.38868208500E+03 -0.58241174471E+03  0.18561936603E+04  0.19897546987E+04  0.15294330000E+03 0.  0.
<mgrwt>
<rscale>  0 0.89325982E+03</rscale>
<asrwt>0</asrwt>
<pdfrwt beam="1">  1        2 0.39862680E+00 0.96129465E+03</pdfrwt>
<pdfrwt beam="2">  1       -2 0.63472284E-01 0.96129465E+03</pdfrwt>
<totfact> 0.72080221E+00</totfact>
</mgrwt>
</event>
<event>
 4    1  0.5223852E-007  0.7411513E+03  0.7818608E-02  0.9856606E-01
          2   -1    0    0  501    0  0.00000000000E+00  0.00000000000E+00  0.38363538134E+04  0.38363538134E+04  0.25500000000E-02 0. -1.
         -2   -1    0    0    0  501 -0.00000000000E+00 -0.00000000000E+00 -0.18516645786E+03  0.18516645788E+03  0.25500000000E-02 0.  1.
    8880023    1    1    2    0    0  0.20698428376E+03 -0.26954140781E+03  0.61651964251E+03  0.96405484289E+03  0.65864270000E+03 0.  1.
    8880022    1    1    2    0    0 -0.20698428376E+03  0.26954140781E+03  0.30346677130E+04  0.30574654283E+04  0.15294330000E+03 0.  0.
<mgrwt>
<rscale>  0 0.62411231E+03</rscale>
<asrwt>0</asrwt>
<pdfrwt beam="1">  1        2 0.59020829E+00 0.74115131E+03</pdfrwt>
<pdfrwt beam="2">  1       -2 0.28487147E-01 0.74115131E+03</pdfrwt>
<totfact> 0.57103619E+00</totfact>
</mgrwt>
</event>
<event>
 4    1  0.5223852E-007  0.1270144E+04  0.7818608E-02  0.9091781E-01
         -2   -1    0    0    0  501 -0.00000000000E+00  0.00000000000E+00  0.15811095561E+04  0.15811095561E+04  0.25500000000E-02 0.  1.
          2   -1    0    0  501    0  0.00000000000E+00 -0.00000000000E+00 -0.11892911869E+04  0.11892911869E+04  0.25500000000E-02 0. -1.
    8880023    1    1    2    0    0 -0.10860178008E+04  0.44378360732E+01  0.90495296794E+03  0.15595526405E+04  0.65864270000E+03 0.  1.
    8880022    1    1    2    0    0  0.10860178008E+04 -0.44378360732E+01 -0.51313459873E+03  0.12108481025E+04  0.15294330000E+03 0. -1.
<mgrwt>
<rscale>  0 0.12243789E+04</rscale>
<asrwt>0</asrwt>
<pdfrwt beam="1">  1        2 0.18296787E+00 0.12701435E+04</pdfrwt>
<pdfrwt beam="2">  1       -2 0.24324763E+00 0.12701435E+04</pdfrwt>
<totfact> 0.13120914E+00</totfact>
</mgrwt>
</event>
<event>
 4    1  0.5223852E-007  0.6625859E+03  0.7818608E-02  0.1021651E+00
          2   -1    0    0  501    0  0.00000000000E+00  0.00000000000E+00  0.19279828338E+04  0.19279828338E+04  0.25500000000E-02 0. -1.
         -2   -1    0    0    0  501 -0.00000000000E+00 -0.00000000000E+00 -0.28135100074E+03  0.28135100075E+03  0.25500000000E-02 0.  1.
    8880023    1    1    2    0    0 -0.39466777242E+02 -0.60434034636E+02  0.12000212302E+03  0.67336514228E+03  0.65864270000E+03 0.  1.
    8880022    1    1    2    0    0  0.39466777242E+02  0.60434034636E+02  0.15266297100E+04  0.15359686923E+04  0.15294330000E+03 0.  0.
<mgrwt>
<rscale>  0 0.47095602E+03</rscale>
<asrwt>0</asrwt>
<pdfrwt beam="1">  1        2 0.29661274E+00 0.66258592E+03</pdfrwt>
<pdfrwt beam="2">  1       -2 0.43284769E-01 0.66258592E+03</pdfrwt>
<totfact> 0.38633238E+01</totfact>
</mgrwt>
</event>
<event>
 4    1  0.5223852E-007  0.7240224E+03  0.7818608E-02  0.9909203E-01
         -2   -1    0    0    0  501 -0.00000000000E+00  0.00000000000E+00  0.34102906087E+03  0.34102906088E+03  0.25500000000E-02 0.  1.
          2   -1    0    0  501    0  0.00000000000E+00 -0.00000000000E+00 -0.17459737728E+04  0.17459737728E+04  0.25500000000E-02 0. -1.
    8880023    1    1    2    0    0 -0.16273713879E+03  0.25281391265E+03 -0.90136282087E+02  0.72961154485E+03  0.65864270000E+03 0.  1.
    8880022    1    1    2    0    0  0.16273713879E+03 -0.25281391265E+03 -0.13148084298E+04  0.13573912888E+04  0.15294330000E+03 0.  0.
<mgrwt>
<rscale>  0 0.59817323E+03</rscale>
<asrwt>0</asrwt>
<pdfrwt beam="1">  1        2 0.26861135E+00 0.72402241E+03</pdfrwt>
<pdfrwt beam="2">  1       -2 0.52466010E-01 0.72402241E+03</pdfrwt>
<totfact> 0.32667295E+01</totfact>
</mgrwt>
</event>
<event>
 4    1  0.5223852E-007  0.6735509E+03  0.7818608E-02  0.1013236E+00
         -2   -1    0    0    0  501 -0.00000000000E+00  0.00000000000E+00  0.71322501634E+03  0.71322501635E+03  0.25500000000E-02 0.  1.
          2   -1    0    0  501    0  0.00000000000E+00 -0.00000000000E+00 -0.25436594593E+04  0.25436594593E+04  0.25500000000E-02 0. -1.
    8880023    1    1    2    0    0  0.30084968450E+01 -0.14089565350E+03  0.54864975900E+03  0.86872746045E+03  0.65864270000E+03 0.  1.
    8880022    1    1    2    0    0 -0.30084968450E+01  0.14089565350E+03 -0.23790842019E+04  0.23881570152E+04  0.15294330000E+03 0.  0.
<mgrwt>
<rscale>  0 0.50208698E+03</rscale>
<asrwt>0</asrwt>
<pdfrwt beam="1">  1        2 0.39133222E+00 0.67355092E+03</pdfrwt>
<pdfrwt beam="2">  1       -2 0.10972693E+00 0.67355092E+03</pdfrwt>
<totfact> 0.23197384E+00</totfact>
</mgrwt>
</event>
<event>
 4    1  0.5223852E-007  0.6719420E+03  0.7818608E-02  0.1014307E+00
          2   -1    0    0  501    0  0.00000000000E+00  0.00000000000E+00  0.14863326773E+04  0.14863326773E+04  0.25500000000E-02 0. -1.
         -2   -1    0    0    0  501 -0.00000000000E+00 -0.00000000000E+00 -0.72301700848E+03  0.72301700849E+03  0.25500000000E-02 0.  1.
    8880023    1    1    2    0    0  0.11588037054E+03 -0.65327144817E+02 -0.55747890154E+03  0.87309153475E+03  0.65864270000E+03 0.  1.
    8880022    1    1    2    0    0 -0.11588037054E+03  0.65327144817E+02  0.13207945704E+04  0.13362581510E+04  0.15294330000E+03 0.  0.
<mgrwt>
<rscale>  0 0.49798085E+03</rscale>
<asrwt>0</asrwt>
<pdfrwt beam="1">  1        2 0.22866656E+00 0.67194204E+03</pdfrwt>
<pdfrwt beam="2">  1       -2 0.11123339E+00 0.67194204E+03</pdfrwt>
<totfact> 0.85643483E+00</totfact>
</mgrwt>
</event>
<event>
 4    1  0.5223852E-007  0.8681086E+03  0.7818608E-02  0.9579299E-01
          2   -1    0    0  501    0  0.00000000000E+00  0.00000000000E+00  0.27147856000E+04  0.27147856000E+04  0.25500000000E-02 0. -1.
         -2   -1    0    0    0  501 -0.00000000000E+00 -0.00000000000E+00 -0.25608669710E+03  0.25608669711E+03  0.25500000000E-02 0.  1.
    8880023    1    1    2    0    0  0.45516796602E+03 -0.33559569563E+03  0.69382075900E+03  0.11113054486E+04  0.65864270000E+03 0.  1.
    8880022    1    1    2    0    0 -0.45516796602E+03  0.33559569563E+03  0.17648781440E+04  0.18595668486E+04  0.15294330000E+03 0. -1.
<mgrwt>
<rscale>  0 0.78681568E+03</rscale>
<asrwt>0</asrwt>
<pdfrwt beam="1">  1        2 0.41765934E+00 0.86810861E+03</pdfrwt>
<pdfrwt beam="2">  1       -2 0.39397952E-01 0.86810861E+03</pdfrwt>
<totfact> 0.16388328E+01</totfact>
</mgrwt>
</event>
<event>
 4    1  0.5223852E-007  0.6706530E+03  0.7818608E-02  0.1015199E+00
         -2   -1    0    0    0  501 -0.00000000000E+00  0.00000000000E+00  0.75062267173E+02  0.75062267216E+02  0.25500000000E-02 0.  1.
          2   -1    0    0  501    0  0.00000000000E+00 -0.00000000000E+00 -0.31434309354E+04  0.31434309354E+04  0.25500000000E-02 0. -1.
    8880023    1    1    2    0    0  0.11579600989E+03 -0.50561517799E+02 -0.15727050353E+04  0.17097299545E+04  0.65864270000E+03 0.  1.
    8880022    1    1    2    0    0 -0.11579600989E+03  0.50561517799E+02 -0.14956636330E+04  0.15087632482E+04  0.15294330000E+03 0.  0.
<mgrwt>
<rscale>  0 0.49459635E+03</rscale>
<asrwt>0</asrwt>
<pdfrwt beam="1">  1        2 0.48360466E+00 0.67065296E+03</pdfrwt>
<pdfrwt beam="2">  1       -2 0.11548044E-01 0.67065296E+03</pdfrwt>
<totfact> 0.82090759E+01</totfact>
</mgrwt>
</event>
<event>
 4    1  0.5223852E-007  0.7130070E+03  0.7818608E-02  0.9947000E-01
          2   -1    0    0  501    0  0.00000000000E+00  0.00000000000E+00  0.35023433039E+04  0.35023433039E+04  0.25500000000E-02 0. -1.
         -2   -1    0    0    0  501 -0.00000000000E+00 -0.00000000000E+00 -0.10441901321E+03  0.10441901324E+03  0.25500000000E-02 0.  1.
    8880023    1    1    2    0    0 -0.72779912873E+02  0.26319556847E+03  0.12744257894E+04  0.14603219240E+04  0.65864270000E+03 0.  1.
    8880022    1    1    2    0    0  0.72779912873E+02 -0.26319556847E+03  0.21234985014E+04  0.21464403931E+04  0.15294330000E+03 0. -1.
<mgrwt>
<rscale>  0 0.58036568E+03</rscale>
<asrwt>0</asrwt>
<pdfrwt beam="1">  1        2 0.53882194E+00 0.71300703E+03</pdfrwt>
<pdfrwt beam="2">  1       -2 0.16064467E-01 0.71300703E+03</pdfrwt>
<totfact> 0.27350353E+01</totfact>
</mgrwt>
</event>
<event>
 4    1  0.5223852E-007  0.7120225E+03  0.7818608E-02  0.9950566E-01
         -2   -1    0    0    0  501 -0.00000000000E+00  0.00000000000E+00  0.71948586057E+03  0.71948586058E+03  0.25500000000E-02 0.  1.
          2   -1    0    0  501    0  0.00000000000E+00 -0.00000000000E+00 -0.60002003052E+03  0.60002003053E+03  0.25500000000E-02 0. -1.
    8880023    1    1    2    0    0  0.28753100753E+02 -0.26895935005E+03  0.46839261076E+03  0.85227209086E+03  0.65864270000E+03 0.  0.
    8880022    1    1    2    0    0 -0.28753100753E+02  0.26895935005E+03 -0.34892678071E+03  0.46723380024E+03  0.15294330000E+03 0.  0.
<mgrwt>
<rscale>  0 0.57872010E+03</rscale>
<asrwt>0</asrwt>
<pdfrwt beam="1">  1        2 0.92310774E-01 0.71202253E+03</pdfrwt>
<pdfrwt beam="2">  1       -2 0.11069013E+00 0.71202253E+03</pdfrwt>
<totfact> 0.32602702E+01</totfact>
</mgrwt>
</event>
<event>
 4    1  0.5223852E-007  0.6775095E+03  0.7818608E-02  0.1010769E+00
          2   -1    0    0  501    0  0.00000000000E+00  0.00000000000E+00  0.89595978388E+03  0.89595978388E+03  0.25500000000E-02 0. -1.
         -2   -1    0    0    0  501 -0.00000000000E+00 -0.00000000000E+00 -0.10929382761E+04  0.10929382761E+04  0.25500000000E-02 0.  1.
    8880023    1    1    2    0    0 -0.97243965980E+02  0.12550904148E+03 -0.97105168065E+03  0.11840441213E+04  0.65864270000E+03 0.  1.
    8880022    1    1    2    0    0  0.97243965980E+02 -0.12550904148E+03  0.77407318847E+03  0.80485393864E+03  0.15294330000E+03 0.  0.
<mgrwt>
<rscale>  0 0.51170151E+03</rscale>
<asrwt>0</asrwt>
<pdfrwt beam="1">  1        2 0.13783997E+00 0.67750949E+03</pdfrwt>
<pdfrwt beam="2">  1       -2 0.16814435E+00 0.67750949E+03</pdfrwt>
<totfact> 0.66699557E+00</totfact>
</mgrwt>
</event>
<event>
 4    1  0.5223852E-007  0.6774357E+03  0.7818608E-02  0.1010813E+00
         -2   -1    0    0    0  501 -0.00000000000E+00  0.00000000000E+00  0.14835619715E+04  0.14835619715E+04  0.25500000000E-02 0.  1.
          2   -1    0    0  501    0  0.00000000000E+00 -0.00000000000E+00 -0.77884600087E+03  0.77884600088E+03  0.25500000000E-02 0. -1.
    8880023    1    1    2    0    0  0.61466144944E+02  0.14605069959E+03  0.13880083618E+04  0.15445019626E+04  0.65864270000E+03 0.  1.
    8880022    1    1    2    0    0 -0.61466144944E+02 -0.14605069959E+03 -0.68329239124E+03  0.71790600970E+03  0.15294330000E+03 0.  0.
<mgrwt>
<rscale>  0 0.51152796E+03</rscale>
<asrwt>0</asrwt>
<pdfrwt beam="1">  1        2 0.11982246E+00 0.67743568E+03</pdfrwt>
<pdfrwt beam="2">  1       -2 0.22824030E+00 0.67743568E+03</pdfrwt>
<totfact> 0.32500925E+00</totfact>
</mgrwt>
</event>
<event>
 4    1  0.5223852E-007  0.1402624E+04  0.7818608E-02  0.8981646E-01
          2   -1    0    0  501    0  0.00000000000E+00  0.00000000000E+00  0.96365827418E+03  0.96365827419E+03  0.25500000000E-02 0. -1.
         -2   -1    0    0    0  501 -0.00000000000E+00 -0.00000000000E+00 -0.25644804138E+04  0.25644804138E+04  0.25500000000E-02 0.  1.
    8880023    1    1    2    0    0 -0.12230481570E+04 -0.19415975515E+03 -0.17814505434E+04  0.22673599294E+04  0.65864270000E+03 0.  0.
    8880022    1    1    2    0    0  0.12230481570E+04  0.19415975515E+03  0.18062840374E+03  0.12607787586E+04  0.15294330000E+03 0.  0.
<mgrwt>
<rscale>  0 0.13621969E+04</rscale>
<asrwt>0</asrwt>
<pdfrwt beam="1">  1        2 0.14825512E+00 0.14026243E+04</pdfrwt>
<pdfrwt beam="2">  1       -2 0.39453545E+00 0.14026243E+04</pdfrwt>
<totfact> 0.20596810E-01</totfact>
</mgrwt>
</event>
<event>
 4    1  0.5223852E-007  0.9027429E+03  0.7818608E-02  0.9521643E-01
         -2   -1    0    0    0  501 -0.00000000000E+00  0.00000000000E+00  0.14472793208E+04  0.14472793208E+04  0.25500000000E-02 0.  1.
          2   -1    0    0  501    0  0.00000000000E+00 -0.00000000000E+00 -0.61300327256E+03  0.61300327257E+03  0.25500000000E-02 0. -1.
    8880023    1    1    2    0    0 -0.61412011018E+03  0.63175035801E+02  0.10536508916E+04  0.13874887396E+04  0.65864270000E+03 0.  1.
    8880022    1    1    2    0    0  0.61412011018E+03 -0.63175035801E+02 -0.21937484329E+03  0.67279385384E+03  0.15294330000E+03 0.  0.
<mgrwt>
<rscale>  0 0.82706837E+03</rscale>
<asrwt>0</asrwt>
<pdfrwt beam="1">  1        2 0.94308197E-01 0.90274293E+03</pdfrwt>
<pdfrwt beam="2">  1       -2 0.22265835E+00 0.90274293E+03</pdfrwt>
<totfact> 0.46213485E+00</totfact>
</mgrwt>
</event>
<event>
 4    1  0.5223852E-007  0.8289918E+03  0.7818608E-02  0.9651297E-01
          2   -1    0    0  501    0  0.00000000000E+00  0.00000000000E+00  0.31515936530E+04  0.31515936530E+04  0.25500000000E-02 0. -1.
         -2   -1    0    0    0  501 -0.00000000000E+00 -0.00000000000E+00 -0.29092077513E+03  0.29092077514E+03  0.25500000000E-02 0.  1.
    8880023    1    1    2    0    0  0.16677870351E+03  0.47497581526E+03  0.38946510299E+03  0.91592053899E+03  0.65864270000E+03 0.  1.
    8880022    1    1    2    0    0 -0.16677870351E+03 -0.47497581526E+03  0.24712077749E+04  0.25265938891E+04  0.15294330000E+03 0.  0.
<mgrwt>
<rscale>  0 0.73992066E+03</rscale>
<asrwt>0</asrwt>
<pdfrwt beam="1">  1        2 0.48486055E+00 0.82899178E+03</pdfrwt>
<pdfrwt beam="2">  1       -2 0.44757044E-01 0.82899178E+03</pdfrwt>
<totfact> 0.69610085E+00</totfact>
</mgrwt>
</event>
<event>
 4    1  0.5223852E-007  0.7106436E+03  0.7818608E-02  0.9955619E-01
          2   -1    0    0  501    0  0.00000000000E+00  0.00000000000E+00  0.15807769142E+04  0.15807769142E+04  0.25500000000E-02 0. -1.
         -2   -1    0    0    0  501 -0.00000000000E+00 -0.00000000000E+00 -0.33521213871E+03  0.33521213872E+03  0.25500000000E-02 0.  1.
    8880023    1    1    2    0    0  0.21311573508E+03 -0.16057949202E+03  0.85409841635E+02  0.71575773632E+03  0.65864270000E+03 0.  0.
    8880022    1    1    2    0    0 -0.21311573508E+03  0.16057949202E+03  0.11601549339E+04  0.12002313166E+04  0.15294330000E+03 0.  0.
<mgrwt>
<rscale>  0 0.57639848E+03</rscale>
<asrwt>0</asrwt>
<pdfrwt beam="1">  1        2 0.24319644E+00 0.71064358E+03</pdfrwt>
<pdfrwt beam="2">  1       -2 0.51571099E-01 0.71064358E+03</pdfrwt>
<totfact> 0.41749814E+01</totfact>
</mgrwt>
</event>
<event>
 4    1  0.1007728E-006  0.8484480E+03  0.7818608E-02  0.9614452E-01
          2   -1    0    0  501    0  0.00000000000E+00  0.00000000000E+00  0.24782513162E+04  0.24782513162E+04  0.25500000000E-02 0. -1.
         -2   -1    0    0    0  501 -0.00000000000E+00 -0.00000000000E+00 -0.97247793790E+03  0.97247793791E+03  0.25500000000E-02 0.  1.
    8880023    1    1    2    0    0 -0.46942622407E+03 -0.25630616110E+03 -0.74691456625E+03  0.11303740105E+04  0.65864270000E+03 0.  1.
    8880022    1    1    2    0    0  0.46942622407E+03  0.25630616110E+03  0.22526879445E+04  0.23203552436E+04  0.15294330000E+03 0.  0.
<mgrwt>
<rscale>  0 0.76346995E+03</rscale>
<asrwt>0</asrwt>
<pdfrwt beam="1">  1        2 0.38126942E+00 0.84844802E+03</pdfrwt>
<pdfrwt beam="2">  1       -2 0.14961199E+00 0.84844802E+03</pdfrwt>
<totfact> 0.11151187E+00</totfact>
</mgrwt>
</event>
<event>
 4    1  0.5223852E-007  0.9839748E+03  0.7818608E-02  0.9402830E-01
         -2   -1    0    0    0  501 -0.00000000000E+00  0.00000000000E+00  0.70663309649E+03  0.70663309650E+03  0.25500000000E-02 0.  1.
          2   -1    0    0  501    0  0.00000000000E+00 -0.00000000000E+00 -0.14560186448E+04  0.14560186448E+04  0.25500000000E-02 0. -1.
    8880023    1    1    2    0    0 -0.42358973567E+03  0.59579182007E+03  0.14810352543E+03  0.99505829856E+03  0.65864270000E+03 0.  0.
    8880022    1    1    2    0    0  0.42358973567E+03 -0.59579182007E+03 -0.89748907375E+03  0.11675934428E+04  0.15294330000E+03 0.  0.
<mgrwt>
<rscale>  0 0.91843114E+03</rscale>
<asrwt>0</asrwt>
<pdfrwt beam="1">  1        2 0.22400287E+00 0.98397478E+03</pdfrwt>
<pdfrwt beam="2">  1       -2 0.10871278E+00 0.98397478E+03</pdfrwt>
<totfact> 0.90533513E+00</totfact>
</mgrwt>
</event>
<event>
 4    1  0.5223852E-007  0.6716675E+03  0.7818608E-02  0.1014495E+00
          2   -1    0    0  501    0  0.00000000000E+00  0.00000000000E+00  0.89822672000E+03  0.89822672000E+03  0.25500000000E-02 0. -1.
         -2   -1    0    0    0  501 -0.00000000000E+00 -0.00000000000E+00 -0.23057519948E+03  0.23057519950E+03  0.25500000000E-02 0.  1.
    8880023    1    1    2    0    0 -0.48443429614E+02  0.12239411697E+03  0.36328048754E+03  0.76361639888E+03  0.65864270000E+03 0.  0.
    8880022    1    1    2    0    0  0.48443429614E+02 -0.12239411697E+03  0.30437103297E+03  0.36518552062E+03  0.15294330000E+03 0.  0.
<mgrwt>
<rscale>  0 0.49726749E+03</rscale>
<asrwt>0</asrwt>
<pdfrwt beam="1">  1        2 0.13818873E+00 0.67166755E+03</pdfrwt>
<pdfrwt beam="2">  1       -2 0.35473108E-01 0.67166755E+03</pdfrwt>
<totfact> 0.22249901E+02</totfact>
</mgrwt>
</event>
<event>
 4    1  0.5223852E-007  0.7726109E+03  0.7818608E-02  0.9773489E-01
          2   -1    0    0  501    0  0.00000000000E+00  0.00000000000E+00  0.95328545636E+03  0.95328545636E+03  0.25500000000E-02 0. -1.
         -2   -1    0    0    0  501 -0.00000000000E+00 -0.00000000000E+00 -0.45889183011E+03  0.45889183012E+03  0.25500000000E-02 0.  1.
    8880023    1    1    2    0    0 -0.25145015653E+03  0.31605413374E+03  0.23125513903E+02  0.77295691493E+03  0.65864270000E+03 0.  0.
    8880022    1    1    2    0    0  0.25145015653E+03 -0.31605413374E+03  0.47126811235E+03  0.63922037155E+03  0.15294330000E+03 0.  0.
<mgrwt>
<rscale>  0 0.66804868E+03</rscale>
<asrwt>0</asrwt>
<pdfrwt beam="1">  1        2 0.14665930E+00 0.77261090E+03</pdfrwt>
<pdfrwt beam="2">  1       -2 0.70598744E-01 0.77261090E+03</pdfrwt>
<totfact> 0.49936269E+01</totfact>
</mgrwt>
</event>
<event>
 4    1  0.5223852E-007  0.8772938E+03  0.7818608E-02  0.9563512E-01
         -2   -1    0    0    0  501 -0.00000000000E+00  0.00000000000E+00  0.10917277133E+04  0.10917277133E+04  0.25500000000E-02 0.  1.
          2   -1    0    0  501    0  0.00000000000E+00 -0.00000000000E+00 -0.54089390361E+03  0.54089390361E+03  0.25500000000E-02 0. -1.
    8880023    1    1    2    0    0  0.34182396216E+03  0.46796432200E+03  0.10069340212E+03  0.88305356308E+03  0.65864270000E+03 0.  1.
    8880022    1    1    2    0    0 -0.34182396216E+03 -0.46796432200E+03  0.45014040755E+03  0.74956805381E+03  0.15294330000E+03 0.  0.
<mgrwt>
<rscale>  0 0.79759010E+03</rscale>
<asrwt>0</asrwt>
<pdfrwt beam="1">  1        2 0.83214446E-01 0.87729381E+03</pdfrwt>
<pdfrwt beam="2">  1       -2 0.16795811E+00 0.87729381E+03</pdfrwt>
<totfact> 0.12422235E+01</totfact>
</mgrwt>
</event>
<event>
 4    1  0.5223852E-007  0.9561215E+03  0.7818608E-02  0.9441361E-01
         -2   -1    0    0    0  501 -0.00000000000E+00  0.00000000000E+00  0.86420500924E+03  0.86420500924E+03  0.25500000000E-02 0.  1.
          2   -1    0    0  501    0  0.00000000000E+00 -0.00000000000E+00 -0.14308448150E+04  0.14308448150E+04  0.25500000000E-02 0. -1.
    8880023    1    1    2    0    0 -0.62507352847E+03 -0.29940142528E+03 -0.10624073951E+04  0.14292927653E+04  0.65864270000E+03 0. -1.
    8880022    1    1    2    0    0  0.62507352847E+03  0.29940142528E+03  0.49576758936E+03  0.86575705895E+03  0.15294330000E+03 0.  0.
<mgrwt>
<rscale>  0 0.88748633E+03</rscale>
<asrwt>0</asrwt>
<pdfrwt beam="1">  1        2 0.22012997E+00 0.95612151E+03</pdfrwt>
<pdfrwt beam="2">  1       -2 0.13295462E+00 0.95612151E+03</pdfrwt>
<totfact> 0.56864417E+00</totfact>
</mgrwt>
</event>
<event>
 4    1  0.5223852E-007  0.1023996E+04  0.7818608E-02  0.9350815E-01
          2   -1    0    0  501    0  0.00000000000E+00  0.00000000000E+00  0.13285930872E+04  0.13285930872E+04  0.25500000000E-02 0. -1.
         -2   -1    0    0    0  501 -0.00000000000E+00 -0.00000000000E+00 -0.10454311464E+04  0.10454311464E+04  0.25500000000E-02 0.  1.
    8880023    1    1    2    0    0 -0.24674981449E+03  0.74422621072E+03  0.90114360670E+03  0.13640484338E+04  0.65864270000E+03 0.  0.
    8880022    1    1    2    0    0  0.24674981449E+03 -0.74422621072E+03 -0.61798166595E+03  0.10099757998E+04  0.15294330000E+03 0.  0.
<mgrwt>
<rscale>  0 0.96236341E+03</rscale>
<asrwt>0</asrwt>
<pdfrwt beam="1">  1        2 0.20439894E+00 0.10239963E+04</pdfrwt>
<pdfrwt beam="2">  1       -2 0.16083556E+00 0.10239963E+04</pdfrwt>
<totfact> 0.39075195E+00</totfact>
</mgrwt>
</event>
<event>
 4    1  0.5223852E-007  0.9100990E+03  0.7818608E-02  0.9510010E-01
          2   -1    0    0  501    0  0.00000000000E+00  0.00000000000E+00  0.11620310025E+04  0.11620310025E+04  0.25500000000E-02 0. -1.
         -2   -1    0    0    0  501 -0.00000000000E+00 -0.00000000000E+00 -0.10281344263E+04  0.10281344263E+04  0.25500000000E-02 0.  1.
    8880023    1    1    2    0    0  0.14449459512E+02  0.62790222084E+03 -0.69061241563E+03  0.11424647481E+04  0.65864270000E+03 0.  1.
    8880022    1    1    2    0    0 -0.14449459512E+02 -0.62790222084E+03  0.82450899174E+03  0.10477006807E+04  0.15294330000E+03 0.  0.
<mgrwt>
<rscale>  0 0.83549824E+03</rscale>
<asrwt>0</asrwt>
<pdfrwt beam="1">  1        2 0.17877400E+00 0.91009900E+03</pdfrwt>
<pdfrwt beam="2">  1       -2 0.15817453E+00 0.91009900E+03</pdfrwt>
<totfact> 0.51930907E+00</totfact>
</mgrwt>
</event>
<event>
 4    1  0.5223852E-007  0.7534065E+03  0.7818608E-02  0.9822486E-01
          2   -1    0    0  501    0  0.00000000000E+00  0.00000000000E+00  0.79512021519E+03  0.79512021519E+03  0.25500000000E-02 0. -1.
         -2   -1    0    0    0  501 -0.00000000000E+00 -0.00000000000E+00 -0.49588159508E+03  0.49588159508E+03  0.25500000000E-02 0.  1.
    8880023    1    1    2    0    0 -0.35589481813E+03  0.84558015074E+02 -0.60241877277E+02  0.75581113350E+03  0.65864270000E+03 0.  0.
    8880022    1    1    2    0    0  0.35589481813E+03 -0.84558015074E+02  0.35948049739E+03  0.53519067677E+03  0.15294330000E+03 0.  0.
<mgrwt>
<rscale>  0 0.64169636E+03</rscale>
<asrwt>0</asrwt>
<pdfrwt beam="1">  1        2 0.12232619E+00 0.75340652E+03</pdfrwt>
<pdfrwt beam="2">  1       -2 0.76289477E-01 0.75340652E+03</pdfrwt>
<totfact> 0.54098939E+01</totfact>
</mgrwt>
</event>
<event>
 4    1  0.5223852E-007  0.8882462E+03  0.7818608E-02  0.9545170E-01
          2   -1    0    0  501    0  0.00000000000E+00  0.00000000000E+00  0.18357281227E+04  0.18357281227E+04  0.25500000000E-02 0. -1.
         -2   -1    0    0    0  501 -0.00000000000E+00 -0.00000000000E+00 -0.89197617616E+03  0.89197617616E+03  0.25500000000E-02 0.  1.
    8880023    1    1    2    0    0 -0.31238596684E+02 -0.59514306413E+03 -0.59593375683E+03  0.10696346879E+04  0.65864270000E+03 0.  1.
    8880022    1    1    2    0    0  0.31238596684E+02  0.59514306413E+03  0.15396857034E+04  0.16580696110E+04  0.15294330000E+03 0. -1.
<mgrwt>
<rscale>  0 0.81033997E+03</rscale>
<asrwt>0</asrwt>
<pdfrwt beam="1">  1        2 0.28241971E+00 0.88824621E+03</pdfrwt>
<pdfrwt beam="2">  1       -2 0.13722710E+00 0.88824621E+03</pdfrwt>
<totfact> 0.31530457E+00</totfact>
</mgrwt>
</event>
<event>
 4    1  0.5223852E-007  0.7134265E+03  0.7818608E-02  0.9945490E-01
         -2   -1    0    0    0  501 -0.00000000000E+00  0.00000000000E+00  0.69227772158E+03  0.69227772158E+03  0.25500000000E-02 0.  1.
          2   -1    0    0  501    0  0.00000000000E+00 -0.00000000000E+00 -0.41375320094E+03  0.41375320095E+03  0.25500000000E-02 0. -1.
    8880023    1    1    2    0    0  0.25575384060E+03  0.98778512578E+02  0.45157182540E+02  0.71485425013E+03  0.65864270000E+03 0.  0.
    8880022    1    1    2    0    0 -0.25575384060E+03 -0.98778512578E+02  0.23336733810E+03  0.39117667240E+03  0.15294330000E+03 0.  0.
<mgrwt>
<rscale>  0 0.58106392E+03</rscale>
<asrwt>0</asrwt>
<pdfrwt beam="1">  1        2 0.63654339E-01 0.71342654E+03</pdfrwt>
<pdfrwt beam="2">  1       -2 0.10650426E+00 0.71342654E+03</pdfrwt>
<totfact> 0.55099315E+01</totfact>
</mgrwt>
</event>
<event>
 4    1  0.5223852E-007  0.1361860E+04  0.7818608E-02  0.9013900E-01
          2   -1    0    0  501    0  0.00000000000E+00  0.00000000000E+00  0.30734482059E+04  0.30734482059E+04  0.25500000000E-02 0. -1.
         -2   -1    0    0    0  501 -0.00000000000E+00 -0.00000000000E+00 -0.15767945428E+04  0.15767945428E+04  0.25500000000E-02 0.  1.
    8880023    1    1    2    0    0 -0.11583340753E+04 -0.28127226608E+03  0.26532339614E+04  0.29823334115E+04  0.65864270000E+03 0. -1.
    8880022    1    1    2    0    0  0.11583340753E+04  0.28127226608E+03 -0.11565802983E+04  0.16679093372E+04  0.15294330000E+03 0.  0.
<mgrwt>
<rscale>  0 0.13199405E+04</rscale>
<asrwt>0</asrwt>
<pdfrwt beam="1">  1        2 0.47283818E+00 0.13618598E+04</pdfrwt>
<pdfrwt beam="2">  1       -2 0.24258378E+00 0.13618598E+04</pdfrwt>
<totfact> 0.10726903E-01</totfact>
</mgrwt>
</event>
<event>
 4    1  0.5223852E-007  0.7385712E+03  0.7818608E-02  0.9864129E-01
          2   -1    0    0  501    0  0.00000000000E+00  0.00000000000E+00  0.36377107430E+03  0.36377107431E+03  0.25500000000E-02 0. -1.
         -2   -1    0    0    0  501 -0.00000000000E+00 -0.00000000000E+00 -0.12410727619E+04  0.12410727619E+04  0.25500000000E-02 0.  1.
    8880023    1    1    2    0    0 -0.28649566487E+03  0.17203929008E+03 -0.10035444560E+03  0.74535797060E+03  0.65864270000E+03 0. -1.
    8880022    1    1    2    0    0  0.28649566487E+03 -0.17203929008E+03 -0.77694724201E+03  0.85948586561E+03  0.15294330000E+03 0.  0.
<mgrwt>
<rscale>  0 0.62031707E+03</rscale>
<asrwt>0</asrwt>
<pdfrwt beam="1">  1        2 0.55964781E-01 0.73857125E+03</pdfrwt>
<pdfrwt beam="2">  1       -2 0.19093427E+00 0.73857125E+03</pdfrwt>
<totfact> 0.13762624E+01</totfact>
</mgrwt>
</event>
<event>
 4    1  0.5223852E-007  0.6769754E+03  0.7818608E-02  0.1011089E+00
          2   -1    0    0  501    0  0.00000000000E+00  0.00000000000E+00  0.25294236583E+04  0.25294236583E+04  0.25500000000E-02 0. -1.
         -2   -1    0    0    0  501 -0.00000000000E+00 -0.00000000000E+00 -0.11415469009E+03  0.11415469012E+03  0.25500000000E-02 0.  1.
    8880023    1    1    2    0    0  0.13834360725E+03  0.73119548486E+02  0.97617500168E+03  0.11879449744E+04  0.65864270000E+03 0.  1.
    8880022    1    1    2    0    0 -0.13834360725E+03 -0.73119548486E+02  0.14390939666E+04  0.14556333740E+04  0.15294330000E+03 0.  0.
<mgrwt>
<rscale>  0 0.51044105E+03</rscale>
<asrwt>0</asrwt>
<pdfrwt beam="1">  1        2 0.38914208E+00 0.67697535E+03</pdfrwt>
<pdfrwt beam="2">  1       -2 0.17562261E-01 0.67697535E+03</pdfrwt>
<totfact> 0.93932083E+01</totfact>
</mgrwt>
</event>
<event>
 4    1  0.5223852E-007  0.6901794E+03  0.7818608E-02  0.1004067E+00
          2   -1    0    0  501    0  0.00000000000E+00  0.00000000000E+00  0.72459287516E+03  0.72459287516E+03  0.25500000000E-02 0. -1.
         -2   -1    0    0    0  501 -0.00000000000E+00 -0.00000000000E+00 -0.75052479804E+03  0.75052479805E+03  0.25500000000E-02 0.  1.
    8880023    1    1    2    0    0  0.20161638274E+03  0.43453989196E+02 -0.55590788390E+03  0.88621735292E+03  0.65864270000E+03 0.  1.
    8880022    1    1    2    0    0 -0.20161638274E+03 -0.43453989196E+02  0.52997596101E+03  0.58890032029E+03  0.15294330000E+03 0.  0.
<mgrwt>
<rscale>  0 0.53902154E+03</rscale>
<asrwt>0</asrwt>
<pdfrwt beam="1">  1        2 0.11147583E+00 0.69017941E+03</pdfrwt>
<pdfrwt beam="2">  1       -2 0.11546535E+00 0.69017941E+03</pdfrwt>
<totfact> 0.23340814E+01</totfact>
</mgrwt>
</event>
<event>
 4    1  0.5223852E-007  0.7033321E+03  0.7818608E-02  0.9983649E-01
          2   -1    0    0  501    0  0.00000000000E+00  0.00000000000E+00  0.33219383294E+03  0.33219383295E+03  0.25500000000E-02 0. -1.
         -2   -1    0    0    0  501 -0.00000000000E+00 -0.00000000000E+00 -0.15722019370E+04  0.15722019370E+04  0.25500000000E-02 0.  1.
    8880023    1    1    2    0    0  0.22210411299E+03 -0.10740373193E+03 -0.14044954851E+04  0.15707589162E+04  0.65864270000E+03 0.  1.
    8880022    1    1    2    0    0 -0.22210411299E+03  0.10740373193E+03  0.16448738111E+03  0.33363685378E+03  0.15294330000E+03 0.  0.
<mgrwt>
<rscale>  0 0.56373027E+03</rscale>
<asrwt>0</asrwt>
<pdfrwt beam="1">  1        2 0.51106744E-01 0.70333207E+03</pdfrwt>
<pdfrwt beam="2">  1       -2 0.24187722E+00 0.70333207E+03</pdfrwt>
<totfact> 0.72881773E+00</totfact>
</mgrwt>
</event>
<event>
 4    1  0.5223852E-007  0.6970431E+03  0.7818608E-02  0.1000970E+00
          2   -1    0    0  501    0  0.00000000000E+00  0.00000000000E+00  0.54287612041E+03  0.54287612042E+03  0.25500000000E-02 0. -1.
         -2   -1    0    0    0  501 -0.00000000000E+00 -0.00000000000E+00 -0.88858798701E+03  0.88858798702E+03  0.25500000000E-02 0.  1.
    8880023    1    1    2    0    0 -0.15849513146E+03 -0.16412846202E+03 -0.69686382476E+03  0.98564103773E+03  0.65864270000E+03 0.  1.
    8880022    1    1    2    0    0  0.15849513146E+03  0.16412846202E+03  0.35115195816E+03  0.44582306970E+03  0.15294330000E+03 0.  0.
<mgrwt>
<rscale>  0 0.55227132E+03</rscale>
<asrwt>0</asrwt>
<pdfrwt beam="1">  1        2 0.83519403E-01 0.69704309E+03</pdfrwt>
<pdfrwt beam="2">  1       -2 0.13670584E+00 0.69704309E+03</pdfrwt>
<totfact> 0.21742382E+01</totfact>
</mgrwt>
</event>
<event>
 4    1  0.5223852E-007  0.7209109E+03  0.7818608E-02  0.9919516E-01
          2   -1    0    0  501    0  0.00000000000E+00  0.00000000000E+00  0.11336817433E+04  0.11336817433E+04  0.25500000000E-02 0. -1.
         -2   -1    0    0    0  501 -0.00000000000E+00 -0.00000000000E+00 -0.91373277870E+03  0.91373277871E+03  0.25500000000E-02 0.  1.
    8880023    1    1    2    0    0  0.51767607998E+02  0.28848293205E+03 -0.73941330096E+03  0.10326880087E+04  0.65864270000E+03 0.  0.
    8880022    1    1    2    0    0 -0.51767607998E+02 -0.28848293205E+03  0.95936226557E+03  0.10147265134E+04  0.15294330000E+03 0. -1.
<mgrwt>
<rscale>  0 0.59324720E+03</rscale>
<asrwt>0</asrwt>
<pdfrwt beam="1">  1        2 0.17441257E+00 0.72091088E+03</pdfrwt>
<pdfrwt beam="2">  1       -2 0.14057427E+00 0.72091088E+03</pdfrwt>
<totfact> 0.75558659E+00</totfact>
</mgrwt>
</event>
<event>
 4    1  0.5223852E-007  0.7145455E+03  0.7818608E-02  0.9941494E-01
          2   -1    0    0  501    0  0.00000000000E+00  0.00000000000E+00  0.45192258124E+03  0.45192258125E+03  0.25500000000E-02 0. -1.
         -2   -1    0    0    0  501 -0.00000000000E+00 -0.00000000000E+00 -0.69527243618E+03  0.69527243618E+03  0.25500000000E-02 0.  1.
    8880023    1    1    2    0    0  0.13013295858E+03  0.24460256004E+03 -0.37198826562E+03  0.80557462430E+03  0.65864270000E+03 0.  1.
    8880022    1    1    2    0    0 -0.13013295858E+03 -0.24460256004E+03  0.12863841069E+03  0.34162039314E+03  0.15294330000E+03 0.  0.
<mgrwt>
<rscale>  0 0.58291787E+03</rscale>
<asrwt>0</asrwt>
<pdfrwt beam="1">  1        2 0.69526551E-01 0.71454545E+03</pdfrwt>
<pdfrwt beam="2">  1       -2 0.10696499E+00 0.71454545E+03</pdfrwt>
<totfact> 0.49329917E+01</totfact>
</mgrwt>
</event>
<event>
 4    1  0.5223852E-007  0.9105842E+03  0.7818608E-02  0.9509250E-01
          2   -1    0    0  501    0  0.00000000000E+00  0.00000000000E+00  0.14780486088E+04  0.14780486088E+04  0.25500000000E-02 0. -1.
         -2   -1    0    0    0  501 -0.00000000000E+00 -0.00000000000E+00 -0.53697304065E+03  0.53697304065E+03  0.25500000000E-02 0.  1.
    8880023    1    1    2    0    0 -0.11270926515E+03 -0.61858707465E+03  0.47603689389E+02  0.91182765087E+03  0.65864270000E+03 0.  0.
    8880022    1    1    2    0    0  0.11270926515E+03  0.61858707465E+03  0.89347187879E+03  0.11031939986E+04  0.15294330000E+03 0.  0.
<mgrwt>
<rscale>  0 0.83605294E+03</rscale>
<asrwt>0</asrwt>
<pdfrwt beam="1">  1        2 0.22739209E+00 0.91058418E+03</pdfrwt>
<pdfrwt beam="2">  1       -2 0.82611239E-01 0.91058418E+03</pdfrwt>
<totfact> 0.16883451E+01</totfact>
</mgrwt>
</event>
<event>
 4    1  0.5223852E-007  0.9679419E+03  0.7818608E-02  0.9424756E-01
         -2   -1    0    0    0  501 -0.00000000000E+00  0.00000000000E+00  0.18255469946E+04  0.18255469946E+04  0.25500000000E-02 0.  1.
          2   -1    0    0  501    0  0.00000000000E+00 -0.00000000000E+00 -0.98851258036E+03  0.98851258036E+03  0.25500000000E-02 0. -1.
    8880023    1    1    2    0    0  0.55040616109E+03  0.44738613795E+03  0.15301597225E+04  0.18106077104E+04  0.65864270000E+03 0.  0.
    8880022    1    1    2    0    0 -0.55040616109E+03 -0.44738613795E+03 -0.69312530820E+03  0.10034518646E+04  0.15294330000E+03 0.  0.
<mgrwt>
<rscale>  0 0.90066033E+03</rscale>
<asrwt>0</asrwt>
<pdfrwt beam="1">  1        2 0.15207886E+00 0.96794189E+03</pdfrwt>
<pdfrwt beam="2">  1       -2 0.28085339E+00 0.96794189E+03</pdfrwt>
<totfact> 0.10720206E+00</totfact>
</mgrwt>
</event>
<event>
 4    1  0.5223852E-007  0.1086660E+04  0.7818608E-02  0.9276056E-01
          2   -1    0    0  501    0  0.00000000000E+00  0.00000000000E+00  0.16869623650E+04  0.16869623650E+04  0.25500000000E-02 0. -1.
         -2   -1    0    0    0  501 -0.00000000000E+00 -0.00000000000E+00 -0.84312736472E+03  0.84312736472E+03  0.25500000000E-02 0.  1.
    8880023    1    1    2    0    0 -0.20510380710E+03 -0.83961443010E+03  0.11671544828E+04  0.15947036577E+04  0.65864270000E+03 0. -1.
    8880022    1    1    2    0    0  0.20510380710E+03  0.83961443010E+03 -0.32331948252E+03  0.93538607201E+03  0.15294330000E+03 0.  0.
<mgrwt>
<rscale>  0 0.10301741E+04</rscale>
<asrwt>0</asrwt>
<pdfrwt beam="1">  1        2 0.25953267E+00 0.10866601E+04</pdfrwt>
<pdfrwt beam="2">  1       -2 0.12971190E+00 0.10866601E+04</pdfrwt>
<totfact> 0.42914468E+00</totfact>
</mgrwt>
</event>
<event>
 4    1  0.5223852E-007  0.6648886E+03  0.7818608E-02  0.1019627E+00
          2   -1    0    0  501    0  0.00000000000E+00  0.00000000000E+00  0.27842220561E+04  0.27842220561E+04  0.25500000000E-02 0. -1.
         -2   -1    0    0    0  501 -0.00000000000E+00 -0.00000000000E+00 -0.10341001635E+03  0.10341001638E+03  0.25500000000E-02 0.  1.
    8880023    1    1    2    0    0 -0.90858697556E+02 -0.33614049101E+01  0.10216228883E+04  0.12189299135E+04  0.65864270000E+03 0.  0.
    8880022    1    1    2    0    0  0.90858697556E+02  0.33614049101E+01  0.16591891515E+04  0.16687021590E+04  0.15294330000E+03 0.  0.
<mgrwt>
<rscale>  0 0.47821426E+03</rscale>
<asrwt>0</asrwt>
<pdfrwt beam="1">  1        2 0.42834193E+00 0.66488857E+03</pdfrwt>
<pdfrwt beam="2">  1       -2 0.15909230E-01 0.66488857E+03</pdfrwt>
<totfact> 0.79419140E+01</totfact>
</mgrwt>
</event>
<event>
 4    1  0.5223852E-007  0.6636914E+03  0.7818608E-02  0.1020657E+00
         -2   -1    0    0    0  501 -0.00000000000E+00  0.00000000000E+00  0.91088668013E+03  0.91088668013E+03  0.25500000000E-02 0.  1.
          2   -1    0    0  501    0  0.00000000000E+00 -0.00000000000E+00 -0.77479545829E+03  0.77479545829E+03  0.25500000000E-02 0. -1.
    8880023    1    1    2    0    0  0.27123893282E+02 -0.77073951366E+02  0.77691999293E+03  0.10218077027E+04  0.65864270000E+03 0.  1.
    8880022    1    1    2    0    0 -0.27123893282E+02  0.77073951366E+02 -0.64082877109E+03  0.66387443575E+03  0.15294330000E+03 0.  0.
<mgrwt>
<rscale>  0 0.47450116E+03</rscale>
<asrwt>0</asrwt>
<pdfrwt beam="1">  1        2 0.11919930E+00 0.66369142E+03</pdfrwt>
<pdfrwt beam="2">  1       -2 0.14013641E+00 0.66369142E+03</pdfrwt>
<totfact> 0.13199654E+01</totfact>
</mgrwt>
</event>
<event>
 4    1  0.5223852E-007  0.7843519E+03  0.7818608E-02  0.9745712E-01
          2   -1    0    0  501    0  0.00000000000E+00  0.00000000000E+00  0.26052032105E+04  0.26052032105E+04  0.25500000000E-02 0. -1.
         -2   -1    0    0    0  501 -0.00000000000E+00 -0.00000000000E+00 -0.60774741333E+03  0.60774741334E+03  0.25500000000E-02 0.  1.
    8880023    1    1    2    0    0 -0.85230709554E+02  0.41729292383E+03 -0.32338492572E+03  0.84840183556E+03  0.65864270000E+03 0.  1.
    8880022    1    1    2    0    0  0.85230709554E+02 -0.41729292383E+03  0.23208407229E+04  0.23645487883E+04  0.15294330000E+03 0.  0.
<mgrwt>
<rscale>  0 0.68359144E+03</rscale>
<asrwt>0</asrwt>
<pdfrwt beam="1">  1        2 0.40080050E+00 0.78435188E+03</pdfrwt>
<pdfrwt beam="2">  1       -2 0.93499602E-01 0.78435188E+03</pdfrwt>
<totfact> 0.30600876E+00</totfact>
</mgrwt>
</event>
<event>
 4    1  0.6350551E-007  0.1088528E+04  0.7818608E-02  0.9273938E-01
          2   -1    0    0  501    0  0.00000000000E+00  0.00000000000E+00  0.17580241233E+04  0.17580241233E+04  0.25500000000E-02 0. -1.
         -2   -1    0    0    0  501 -0.00000000000E+00 -0.00000000000E+00 -0.13198253904E+04  0.13198253904E+04  0.25500000000E-02 0.  1.
    8880023    1    1    2    0    0 -0.86653084790E+03 -0.14387955522E+02 -0.94294913322E+03  0.14401548520E+04  0.65864270000E+03 0.  0.
    8880022    1    1    2    0    0  0.86653084790E+03  0.14387955522E+02  0.13811478662E+04  0.16376946617E+04  0.15294330000E+03 0. -1.
<mgrwt>
<rscale>  0 0.10321803E+04</rscale>
<asrwt>0</asrwt>
<pdfrwt beam="1">  1        2 0.27046525E+00 0.10885279E+04</pdfrwt>
<pdfrwt beam="2">  1       -2 0.20305006E+00 0.10885279E+04</pdfrwt>
<totfact> 0.11378862E+00</totfact>
</mgrwt>
</event>
<event>
 4    1  0.5223852E-007  0.6906851E+03  0.7818608E-02  0.1003829E+00
          2   -1    0    0  501    0  0.00000000000E+00  0.00000000000E+00  0.18768993134E+04  0.18768993134E+04  0.25500000000E-02 0. -1.
         -2   -1    0    0    0  501 -0.00000000000E+00 -0.00000000000E+00 -0.17055510304E+03  0.17055510306E+03  0.25500000000E-02 0.  1.
    8880023    1    1    2    0    0 -0.20022286345E+03  0.56093453748E+02  0.61114852743E+03  0.92225180913E+03  0.65864270000E+03 0.  1.
    8880022    1    1    2    0    0  0.20022286345E+03 -0.56093453748E+02  0.10951956829E+04  0.11252026073E+04  0.15294330000E+03 0.  0.
<mgrwt>
<rscale>  0 0.54002840E+03</rscale>
<asrwt>0</asrwt>
<pdfrwt beam="1">  1        2 0.28875375E+00 0.69068508E+03</pdfrwt>
<pdfrwt beam="2">  1       -2 0.26239246E-01 0.69068508E+03</pdfrwt>
<totfact> 0.10574978E+02</totfact>
</mgrwt>
</event>
<event>
 4    1  0.5223852E-007  0.6641287E+03  0.7818608E-02  0.1020276E+00
          2   -1    0    0  501    0  0.00000000000E+00  0.00000000000E+00  0.85424094626E+03  0.85424094626E+03  0.25500000000E-02 0. -1.
         -2   -1    0    0    0  501 -0.00000000000E+00 -0.00000000000E+00 -0.24226553581E+03  0.24226553582E+03  0.25500000000E-02 0.  1.
    8880023    1    1    2    0    0 -0.81823903655E+02  0.23697012473E+02  0.27907811823E+03  0.72038288566E+03  0.65864270000E+03 0.  1.
    8880022    1    1    2    0    0  0.81823903655E+02 -0.23697012473E+02  0.33289729222E+03  0.37612359643E+03  0.15294330000E+03 0. -1.
<mgrwt>
<rscale>  0 0.47587191E+03</rscale>
<asrwt>0</asrwt>
<pdfrwt beam="1">  1        2 0.13142169E+00 0.66412868E+03</pdfrwt>
<pdfrwt beam="2">  1       -2 0.37271620E-01 0.66412868E+03</pdfrwt>
<totfact> 0.21693863E+02</totfact>
</mgrwt>
</event>
<event>
 4    1  0.5223852E-007  0.7419097E+03  0.7818608E-02  0.9854419E-01
         -2   -1    0    0    0  501 -0.00000000000E+00  0.00000000000E+00  0.23195008561E+03  0.23195008563E+03  0.25500000000E-02 0.  1.
          2   -1    0    0  501    0  0.00000000000E+00 -0.00000000000E+00 -0.26598714265E+04  0.26598714265E+04  0.25500000000E-02 0. -1.
    8880023    1    1    2    0    0  0.19052939924E+03 -0.28340491723E+03 -0.42658574859E+03  0.85580687439E+03  0.65864270000E+03 0.  1.
    8880022    1    1    2    0    0 -0.19052939924E+03  0.28340491723E+03 -0.20013355923E+04  0.20360146377E+04  0.15294330000E+03 0.  0.
<mgrwt>
<rscale>  0 0.62522125E+03</rscale>
<asrwt>0</asrwt>
<pdfrwt beam="1">  1        2 0.40921097E+00 0.74190970E+03</pdfrwt>
<pdfrwt beam="2">  1       -2 0.35684630E-01 0.74190970E+03</pdfrwt>
<totfact> 0.21755413E+01</totfact>
</mgrwt>
</event>
<event>
 4    1  0.5223852E-007  0.6890109E+03  0.7818608E-02  0.1004626E+00
          2   -1    0    0  501    0  0.00000000000E+00  0.00000000000E+00  0.97589960513E+03  0.97589960513E+03  0.25500000000E-02 0. -1.
         -2   -1    0    0    0  501 -0.00000000000E+00 -0.00000000000E+00 -0.39865452615E+03  0.39865452616E+03  0.25500000000E-02 0.  1.
    8880023    1    1    2    0    0  0.19214765174E+03 -0.63285718256E+02 -0.57118477424E+02  0.69137437682E+03  0.65864270000E+03 0.  1.
    8880022    1    1    2    0    0 -0.19214765174E+03  0.63285718256E+02  0.63436355640E+03  0.68317975446E+03  0.15294330000E+03 0.  0.
<mgrwt>
<rscale>  0 0.53667414E+03</rscale>
<asrwt>0</asrwt>
<pdfrwt beam="1">  1        2 0.15013840E+00 0.68901089E+03</pdfrwt>
<pdfrwt beam="2">  1       -2 0.61331466E-01 0.68901089E+03</pdfrwt>
<totfact> 0.65829892E+01</totfact>
</mgrwt>
</event>
<event>
 4    1  0.5223852E-007  0.9628402E+03  0.7818608E-02  0.9431876E-01
         -2   -1    0    0    0  501 -0.00000000000E+00  0.00000000000E+00  0.45019598020E+03  0.45019598020E+03  0.25500000000E-02 0.  1.
          2   -1    0    0  501    0  0.00000000000E+00 -0.00000000000E+00 -0.26198961355E+04  0.26198961355E+04  0.25500000000E-02 0. -1.
    8880023    1    1    2    0    0 -0.46682328099E+02 -0.70076517248E+03 -0.21378829961E+03  0.98628936425E+03  0.65864270000E+03 0.  1.
    8880022    1    1    2    0    0  0.46682328099E+02  0.70076517248E+03 -0.19559118557E+04  0.20838027515E+04  0.15294330000E+03 0.  0.
<mgrwt>
<rscale>  0 0.89498232E+03</rscale>
<asrwt>0</asrwt>
<pdfrwt beam="1">  1        2 0.40306093E+00 0.96284021E+03</pdfrwt>
<pdfrwt beam="2">  1       -2 0.69260922E-01 0.96284021E+03</pdfrwt>
<totfact> 0.57408826E+00</totfact>
</mgrwt>
</event>
<event>
 4    1  0.5223852E-007  0.1408777E+04  0.7818608E-02  0.8976893E-01
          2   -1    0    0  501    0  0.00000000000E+00  0.00000000000E+00  0.27323001768E+04  0.27323001768E+04  0.25500000000E-02 0. -1.
         -2   -1    0    0    0  501 -0.00000000000E+00 -0.00000000000E+00 -0.13127394397E+04  0.13127394397E+04  0.25500000000E-02 0.  1.
    8880023    1    1    2    0    0  0.76556613232E+03 -0.98221751875E+03 -0.70677184763E+03  0.15761279796E+04  0.65864270000E+03 0.  0.
    8880022    1    1    2    0    0 -0.76556613232E+03  0.98221751875E+03  0.21263325847E+04  0.24689116369E+04  0.15294330000E+03 0.  0.
<mgrwt>
<rscale>  0 0.13685649E+04</rscale>
<asrwt>0</asrwt>
<pdfrwt beam="1">  1        2 0.42035387E+00 0.14087771E+04</pdfrwt>
<pdfrwt beam="2">  1       -2 0.20195991E+00 0.14087771E+04</pdfrwt>
<totfact> 0.31195980E-01</totfact>
</mgrwt>
</event>
<event>
 4    1  0.5223852E-007  0.7022801E+03  0.7818608E-02  0.9987871E-01
         -2   -1    0    0    0  501 -0.00000000000E+00  0.00000000000E+00  0.12680501622E+03  0.12680501625E+03  0.25500000000E-02 0.  1.
          2   -1    0    0  501    0  0.00000000000E+00 -0.00000000000E+00 -0.19701741508E+04  0.19701741508E+04  0.25500000000E-02 0. -1.
    8880023    1    1    2    0    0  0.19100103215E+03  0.15134628444E+03 -0.11678868406E+04  0.13627754661E+04  0.65864270000E+03 0.  1.
    8880022    1    1    2    0    0 -0.19100103215E+03 -0.15134628444E+03 -0.67548229391E+03  0.73420370095E+03  0.15294330000E+03 0. -1.
<mgrwt>
<rscale>  0 0.56185288E+03</rscale>
<asrwt>0</asrwt>
<pdfrwt beam="1">  1        2 0.30310369E+00 0.70228007E+03</pdfrwt>
<pdfrwt beam="2">  1       -2 0.19508465E-01 0.70228007E+03</pdfrwt>
<totfact> 0.15916458E+02</totfact>
</mgrwt>
</event>
<event>
 4    1  0.5223852E-007  0.8070510E+03  0.7818608E-02  0.9695753E-01
         -2   -1    0    0    0  501 -0.00000000000E+00  0.00000000000E+00  0.54591907750E+03  0.54591907750E+03  0.25500000000E-02 0.  1.
          2   -1    0    0  501    0  0.00000000000E+00 -0.00000000000E+00 -0.22078080047E+04  0.22078080047E+04  0.25500000000E-02 0. -1.
    8880023    1    1    2    0    0 -0.45531795452E+03 -0.10102845018E+03  0.19731785930E+03  0.83082232235E+03  0.65864270000E+03 0.  0.
    8880022    1    1    2    0    0  0.45531795452E+03  0.10102845018E+03 -0.18592067865E+04  0.19229047598E+04  0.15294330000E+03 0.  0.
<mgrwt>
<rscale>  0 0.71270244E+03</rscale>
<asrwt>0</asrwt>
<pdfrwt beam="1">  1        2 0.33966277E+00 0.80705105E+03</pdfrwt>
<pdfrwt beam="2">  1       -2 0.83987551E-01 0.80705105E+03</pdfrwt>
<totfact> 0.65305769E+00</totfact>
</mgrwt>
</event>
<event>
 4    1  0.1260086E-006  0.6814609E+03  0.7818608E-02  0.1008509E+00
         -2   -1    0    0    0  501 -0.00000000000E+00  0.00000000000E+00  0.95695325421E+03  0.95695325421E+03  0.25500000000E-02 0.  1.
          2   -1    0    0  501    0  0.00000000000E+00 -0.00000000000E+00 -0.22881689006E+04  0.22881689006E+04  0.25500000000E-02 0. -1.
    8880023    1    1    2    0    0 -0.31260147109E+02 -0.17205098042E+03  0.82860960693E+03  0.10728386755E+04  0.65864270000E+03 0.  1.
    8880022    1    1    2    0    0  0.31260147109E+02  0.17205098042E+03 -0.21598252533E+04  0.21722834793E+04  0.15294330000E+03 0.  0.
<mgrwt>
<rscale>  0 0.52071507E+03</rscale>
<asrwt>0</asrwt>
<pdfrwt beam="1">  1        2 0.35202598E+00 0.68146089E+03</pdfrwt>
<pdfrwt beam="2">  1       -2 0.14722358E+00 0.68146089E+03</pdfrwt>
<totfact> 0.15376516E+00</totfact>
</mgrwt>
</event>
<event>
 4    1  0.5223852E-007  0.7951400E+03  0.7818608E-02  0.9721404E-01
         -2   -1    0    0    0  501 -0.00000000000E+00  0.00000000000E+00  0.67761838205E+03  0.67761838206E+03  0.25500000000E-02 0.  1.
          2   -1    0    0  501    0  0.00000000000E+00 -0.00000000000E+00 -0.63034124128E+03  0.63034124129E+03  0.25500000000E-02 0. -1.
    8880023    1    1    2    0    0 -0.11899788650E+03  0.42927494618E+03  0.18670911987E+03  0.81676678319E+03  0.65864270000E+03 0.  0.
    8880022    1    1    2    0    0  0.11899788650E+03 -0.42927494618E+03 -0.13943197910E+03  0.49119284016E+03  0.15294330000E+03 0.  1.
<mgrwt>
<rscale>  0 0.69756557E+03</rscale>
<asrwt>0</asrwt>
<pdfrwt beam="1">  1        2 0.96975576E-01 0.79514004E+03</pdfrwt>
<pdfrwt beam="2">  1       -2 0.10424898E+00 0.79514004E+03</pdfrwt>
<totfact> 0.35248905E+01</totfact>
</mgrwt>
</event>
<event>
 4    1  0.5223852E-007  0.1071060E+04  0.7818608E-02  0.9293983E-01
         -2   -1    0    0    0  501 -0.00000000000E+00  0.00000000000E+00  0.60770513606E+03  0.60770513606E+03  0.25500000000E-02 0.  1.
          2   -1    0    0  501    0  0.00000000000E+00 -0.00000000000E+00 -0.22459553016E+04  0.22459553016E+04  0.25500000000E-02 0. -1.
    8880023    1    1    2    0    0  0.66018128921E+03  0.52680121046E+03 -0.79248960034E+02  0.10739876414E+04  0.65864270000E+03 0.  1.
    8880022    1    1    2    0    0 -0.66018128921E+03 -0.52680121046E+03 -0.15590012055E+04  0.17796727963E+04  0.15294330000E+03 0.  0.
<mgrwt>
<rscale>  0 0.10133870E+04</rscale>
<asrwt>0</asrwt>
<pdfrwt beam="1">  1        2 0.34553158E+00 0.10710598E+04</pdfrwt>
<pdfrwt beam="2">  1       -2 0.93493099E-01 0.10710598E+04</pdfrwt>
<totfact> 0.46869711E+00</totfact>
</mgrwt>
</event>
<event>
 4    1  0.5223852E-007  0.8821525E+03  0.7818608E-02  0.9555312E-01
         -2   -1    0    0    0  501 -0.00000000000E+00  0.00000000000E+00  0.58641898270E+03  0.58641898271E+03  0.25500000000E-02 0.  1.
          2   -1    0    0  501    0  0.00000000000E+00 -0.00000000000E+00 -0.15231894085E+04  0.15231894085E+04  0.25500000000E-02 0. -1.
    8880023    1    1    2    0    0 -0.56811440705E+03  0.14706744593E+03  0.12091271087E+03  0.89040041726E+03  0.65864270000E+03 0.  0.
    8880022    1    1    2    0    0  0.56811440705E+03 -0.14706744593E+03 -0.10576831367E+04  0.12192079740E+04  0.15294330000E+03 0.  0.
<mgrwt>
<rscale>  0 0.80325871E+03</rscale>
<asrwt>0</asrwt>
<pdfrwt beam="1">  1        2 0.23433683E+00 0.88215249E+03</pdfrwt>
<pdfrwt beam="2">  1       -2 0.90218306E-01 0.88215249E+03</pdfrwt>
<totfact> 0.13056085E+01</totfact>
</mgrwt>
</event>
<event>
 4    1  0.5223852E-007  0.9032117E+03  0.7818608E-02  0.9520895E-01
          2   -1    0    0  501    0  0.00000000000E+00  0.00000000000E+00  0.20416839665E+04  0.20416839665E+04  0.25500000000E-02 0. -1.
         -2   -1    0    0    0  501 -0.00000000000E+00 -0.00000000000E+00 -0.86283883835E+03  0.86283883835E+03  0.25500000000E-02 0.  1.
    8880023    1    1    2    0    0 -0.69233573633E+02 -0.61415621309E+03 -0.55320145211E+03  0.10591615527E+04  0.65864270000E+03 0.  1.
    8880022    1    1    2    0    0  0.69233573633E+02  0.61415621309E+03  0.17320465802E+04  0.18453612521E+04  0.15294330000E+03 0.  0.
<mgrwt>
<rscale>  0 0.82760668E+03</rscale>
<asrwt>0</asrwt>
<pdfrwt beam="1">  1        2 0.31410523E+00 0.90321169E+03</pdfrwt>
<pdfrwt beam="2">  1       -2 0.13274444E+00 0.90321169E+03</pdfrwt>
<totfact> 0.26409851E+00</totfact>
</mgrwt>
</event>
<event>
 4    1  0.5223852E-007  0.8232801E+03  0.7818608E-02  0.9662551E-01
         -2   -1    0    0    0  501 -0.00000000000E+00  0.00000000000E+00  0.64278244951E+03  0.64278244951E+03  0.25500000000E-02 0.  1.
          2   -1    0    0  501    0  0.00000000000E+00 -0.00000000000E+00 -0.21156554401E+04  0.21156554401E+04  0.25500000000E-02 0. -1.
    8880023    1    1    2    0    0 -0.34816050467E+03  0.35037716037E+03  0.32693869909E+03  0.88582109410E+03  0.65864270000E+03 0.  1.
    8880022    1    1    2    0    0  0.34816050467E+03 -0.35037716037E+03 -0.17998116897E+04  0.18726167955E+04  0.15294330000E+03 0.  0.
<mgrwt>
<rscale>  0 0.73290909E+03</rscale>
<asrwt>0</asrwt>
<pdfrwt beam="1">  1        2 0.32548545E+00 0.82328008E+03</pdfrwt>
<pdfrwt beam="2">  1       -2 0.98889608E-01 0.82328008E+03</pdfrwt>
<totfact> 0.50151801E+00</totfact>
</mgrwt>
</event>
<event>
 4    1  0.5223852E-007  0.7624113E+03  0.7818608E-02  0.9798904E-01
          2   -1    0    0  501    0  0.00000000000E+00  0.00000000000E+00  0.97275026243E+03  0.97275026243E+03  0.25500000000E-02 0. -1.
         -2   -1    0    0    0  501 -0.00000000000E+00 -0.00000000000E+00 -0.79315356736E+03  0.79315356737E+03  0.25500000000E-02 0.  1.
    8880023    1    1    2    0    0 -0.19517081367E+03  0.33071005134E+03 -0.54122127413E+03  0.93498206314E+03  0.65864270000E+03 0.  1.
    8880022    1    1    2    0    0  0.19517081367E+03 -0.33071005134E+03  0.72081796920E+03  0.83092176665E+03  0.15294330000E+03 0.  0.
<mgrwt>
<rscale>  0 0.65421371E+03</rscale>
<asrwt>0</asrwt>
<pdfrwt beam="1">  1        2 0.14965389E+00 0.76241130E+03</pdfrwt>
<pdfrwt beam="2">  1       -2 0.12202363E+00 0.76241130E+03</pdfrwt>
<totfact> 0.13565160E+01</totfact>
</mgrwt>
</event>
<event>
 4    1  0.5223852E-007  0.7269942E+03  0.7818608E-02  0.9899593E-01
         -2   -1    0    0    0  501 -0.00000000000E+00  0.00000000000E+00  0.19306629493E+03  0.19306629495E+03  0.25500000000E-02 0.  1.
          2   -1    0    0  501    0  0.00000000000E+00 -0.00000000000E+00 -0.30470951670E+04  0.30470951670E+04  0.25500000000E-02 0. -1.
    8880023    1    1    2    0    0 -0.18499592554E+03  0.24594082769E+03 -0.55249240900E+03  0.91310922208E+03  0.65864270000E+03 0.  1.
    8880022    1    1    2    0    0  0.18499592554E+03 -0.24594082769E+03 -0.23015364631E+04  0.23270522399E+04  0.15294330000E+03 0.  0.
<mgrwt>
<rscale>  0 0.60280992E+03</rscale>
<asrwt>0</asrwt>
<pdfrwt beam="1">  1        2 0.46878384E+00 0.72699422E+03</pdfrwt>
<pdfrwt beam="2">  1       -2 0.29702509E-01 0.72699422E+03</pdfrwt>
<totfact> 0.18094012E+01</totfact>
</mgrwt>
</event>
<event>
 4    1  0.5223852E-007  0.6782352E+03  0.7818608E-02  0.1010340E+00
          2   -1    0    0  501    0  0.00000000000E+00  0.00000000000E+00  0.12834084443E+04  0.12834084443E+04  0.25500000000E-02 0. -1.
         -2   -1    0    0    0  501 -0.00000000000E+00 -0.00000000000E+00 -0.13446833740E+04  0.13446833740E+04  0.25500000000E-02 0.  1.
    8880023    1    1    2    0    0 -0.54173877340E+02 -0.15250566699E+03 -0.12481431334E+04  0.14205154963E+04  0.65864270000E+03 0.  1.
    8880022    1    1    2    0    0  0.54173877340E+02  0.15250566699E+03  0.11868682038E+04  0.12075763220E+04  0.15294330000E+03 0.  0.
<mgrwt>
<rscale>  0 0.51339712E+03</rscale>
<asrwt>0</asrwt>
<pdfrwt beam="1">  1        2 0.19744745E+00 0.67823521E+03</pdfrwt>
<pdfrwt beam="2">  1       -2 0.20687437E+00 0.67823521E+03</pdfrwt>
<totfact> 0.21146407E+00</totfact>
</mgrwt>
</event>
<event>
 4    1  0.5223852E-007  0.7277404E+03  0.7818608E-02  0.9897215E-01
          2   -1    0    0  501    0  0.00000000000E+00  0.00000000000E+00  0.42564946524E+04  0.42564946524E+04  0.25500000000E-02 0. -1.
         -2   -1    0    0    0  501 -0.00000000000E+00 -0.00000000000E+00 -0.69565646420E+02  0.69565646467E+02  0.25500000000E-02 0.  1.
    8880023    1    1    2    0    0  0.27034993419E+03 -0.15068797775E+03  0.24801187277E+04  0.25846847125E+04  0.65864270000E+03 0.  0.
    8880022    1    1    2    0    0 -0.27034993419E+03  0.15068797775E+03  0.17068102783E+04  0.17413755864E+04  0.15294330000E+03 0. -1.
<mgrwt>
<rscale>  0 0.60396431E+03</rscale>
<asrwt>0</asrwt>
<pdfrwt beam="1">  1        2 0.65484540E+00 0.72774045E+03</pdfrwt>
<pdfrwt beam="2">  1       -2 0.10702406E-01 0.72774045E+03</pdfrwt>
<totfact> 0.14284868E+01</totfact>
</mgrwt>
</event>
<event>
 4    1  0.5223852E-007  0.7036445E+03  0.7818608E-02  0.9982405E-01
         -2   -1    0    0    0  501 -0.00000000000E+00  0.00000000000E+00  0.60154959891E+03  0.60154959892E+03  0.25500000000E-02 0.  1.
          2   -1    0    0  501    0  0.00000000000E+00 -0.00000000000E+00 -0.11907810641E+04  0.11907810641E+04  0.25500000000E-02 0. -1.
    8880023    1    1    2    0    0  0.21161491641E+03 -0.12854767639E+03  0.36642956874E+03  0.79333864967E+03  0.65864270000E+03 0.  1.
    8880022    1    1    2    0    0 -0.21161491641E+03  0.12854767639E+03 -0.95566103390E+03  0.99899201332E+03  0.15294330000E+03 0.  0.
<mgrwt>
<rscale>  0 0.56428499E+03</rscale>
<asrwt>0</asrwt>
<pdfrwt beam="1">  1        2 0.18319709E+00 0.70364450E+03</pdfrwt>
<pdfrwt beam="2">  1       -2 0.92546092E-01 0.70364450E+03</pdfrwt>
<totfact> 0.19469533E+01</totfact>
</mgrwt>
</event>
<event>
 4    1  0.5223852E-007  0.1141333E+04  0.7818608E-02  0.9216374E-01
          2   -1    0    0  501    0  0.00000000000E+00  0.00000000000E+00  0.14078525531E+04  0.14078525531E+04  0.25500000000E-02 0. -1.
         -2   -1    0    0    0  501 -0.00000000000E+00 -0.00000000000E+00 -0.11533802487E+04  0.11533802487E+04  0.25500000000E-02 0.  1.
    8880023    1    1    2    0    0 -0.62620039940E+03 -0.69043818615E+03 -0.59831268542E+03  0.12886504976E+04  0.65864270000E+03 0.  0.
    8880022    1    1    2    0    0  0.62620039940E+03  0.69043818615E+03  0.85278498978E+03  0.12725823042E+04  0.15294330000E+03 0.  0.
<mgrwt>
<rscale>  0 0.10886007E+04</rscale>
<asrwt>0</asrwt>
<pdfrwt beam="1">  1        2 0.21659270E+00 0.11413334E+04</pdfrwt>
<pdfrwt beam="2">  1       -2 0.17744312E+00 0.11413334E+04</pdfrwt>
<totfact> 0.26416878E+00</totfact>
</mgrwt>
</event>
<event>
 4    1  0.5223852E-007  0.8566949E+03  0.7818608E-02  0.9599470E-01
         -2   -1    0    0    0  501 -0.00000000000E+00  0.00000000000E+00  0.64127051213E+03  0.64127051214E+03  0.25500000000E-02 0.  1.
          2   -1    0    0  501    0  0.00000000000E+00 -0.00000000000E+00 -0.93323137451E+03  0.93323137451E+03  0.25500000000E-02 0. -1.
    8880023    1    1    2    0    0  0.53660865825E+03  0.11030459887E+03  0.12972050920E+03  0.86646037036E+03  0.65864270000E+03 0.  0.
    8880022    1    1    2    0    0 -0.53660865825E+03 -0.11030459887E+03 -0.42168137158E+03  0.70804151629E+03  0.15294330000E+03 0.  0.
<mgrwt>
<rscale>  0 0.77331280E+03</rscale>
<asrwt>0</asrwt>
<pdfrwt beam="1">  1        2 0.14357406E+00 0.85669491E+03</pdfrwt>
<pdfrwt beam="2">  1       -2 0.98657002E-01 0.85669491E+03</pdfrwt>
<totfact> 0.23889683E+01</totfact>
</mgrwt>
</event>
<event>
 4    1  0.5223852E-007  0.7086190E+03  0.7818608E-02  0.9963165E-01
         -2   -1    0    0    0  501 -0.00000000000E+00  0.00000000000E+00  0.25568914610E+03  0.25568914612E+03  0.25500000000E-02 0.  1.
          2   -1    0    0  501    0  0.00000000000E+00 -0.00000000000E+00 -0.10459957776E+04  0.10459957776E+04  0.25500000000E-02 0. -1.
    8880023    1    1    2    0    0 -0.24135530814E+03 -0.10039065854E+03 -0.42164772978E+03  0.82457727557E+03  0.65864270000E+03 0.  0.
    8880022    1    1    2    0    0  0.24135530814E+03  0.10039065854E+03 -0.36865890170E+03  0.47710764814E+03  0.15294330000E+03 0.  0.
<mgrwt>
<rscale>  0 0.57295296E+03</rscale>
<asrwt>0</asrwt>
<pdfrwt beam="1">  1        2 0.16092242E+00 0.70861899E+03</pdfrwt>
<pdfrwt beam="2">  1       -2 0.39336792E-01 0.70861899E+03</pdfrwt>
<totfact> 0.14603665E+02</totfact>
</mgrwt>
</event>
<event>
 4    1  0.5223852E-007  0.1095324E+04  0.7818608E-02  0.9266280E-01
          2   -1    0    0  501    0  0.00000000000E+00  0.00000000000E+00  0.62681408388E+03  0.62681408389E+03  0.25500000000E-02 0. -1.
         -2   -1    0    0    0  501 -0.00000000000E+00 -0.00000000000E+00 -0.16720024031E+04  0.16720024031E+04  0.25500000000E-02 0.  1.
    8880023    1    1    2    0    0 -0.72065553948E+03 -0.49656877304E+03 -0.85680366520E+03  0.13906285197E+04  0.65864270000E+03 0.  1.
    8880022    1    1    2    0    0  0.72065553948E+03  0.49656877304E+03 -0.18838465399E+03  0.90818796723E+03  0.15294330000E+03 0.  0.
<mgrwt>
<rscale>  0 0.10394735E+04</rscale>
<asrwt>0</asrwt>
<pdfrwt beam="1">  1        2 0.96432936E-01 0.10953242E+04</pdfrwt>
<pdfrwt beam="2">  1       -2 0.25723114E+00 0.10953242E+04</pdfrwt>
<totfact> 0.27000665E+00</totfact>
</mgrwt>
</event>
<event>
 4    1  0.5223852E-007  0.8215429E+03  0.7818608E-02  0.9666017E-01
         -2   -1    0    0    0  501 -0.00000000000E+00  0.00000000000E+00  0.60324573769E+03  0.60324573770E+03  0.25500000000E-02 0.  1.
          2   -1    0    0  501    0  0.00000000000E+00 -0.00000000000E+00 -0.19513331581E+04  0.19513331581E+04  0.25500000000E-02 0. -1.
    8880023    1    1    2    0    0  0.10199520772E+03  0.48033264725E+03  0.26361820916E+03  0.86280197084E+03  0.65864270000E+03 0.  1.
    8880022    1    1    2    0    0 -0.10199520772E+03 -0.48033264725E+03 -0.16117056296E+04  0.16917769250E+04  0.15294330000E+03 0.  0.
<mgrwt>
<rscale>  0 0.73076675E+03</rscale>
<asrwt>0</asrwt>
<pdfrwt beam="1">  1        2 0.30020510E+00 0.82154287E+03</pdfrwt>
<pdfrwt beam="2">  1       -2 0.92807037E-01 0.82154287E+03</pdfrwt>
<totfact> 0.71635859E+00</totfact>
</mgrwt>
</event>
<event>
 4    1  0.5223852E-007  0.8264886E+03  0.7818608E-02  0.9656203E-01
         -2   -1    0    0    0  501 -0.00000000000E+00  0.00000000000E+00  0.23164628317E+03  0.23164628318E+03  0.25500000000E-02 0.  1.
          2   -1    0    0  501    0  0.00000000000E+00 -0.00000000000E+00 -0.21287811477E+04  0.21287811477E+04  0.25500000000E-02 0. -1.
    8880023    1    1    2    0    0  0.35418172008E+03 -0.35189283990E+03 -0.82440941841E+03  0.11673621362E+04  0.65864270000E+03 0.  0.
    8880022    1    1    2    0    0 -0.35418172008E+03  0.35189283990E+03 -0.10727254462E+04  0.11930652947E+04  0.15294330000E+03 0.  0.
<mgrwt>
<rscale>  0 0.73685379E+03</rscale>
<asrwt>0</asrwt>
<pdfrwt beam="1">  1        2 0.32750478E+00 0.82648864E+03</pdfrwt>
<pdfrwt beam="2">  1       -2 0.35637891E-01 0.82648864E+03</pdfrwt>
<totfact> 0.42890550E+01</totfact>
</mgrwt>
</event>
<event>
 4    1  0.5223852E-007  0.7108743E+03  0.7818608E-02  0.9954769E-01
         -2   -1    0    0    0  501 -0.00000000000E+00  0.00000000000E+00  0.13117818791E+03  0.13117818794E+03  0.25500000000E-02 0.  1.
          2   -1    0    0  501    0  0.00000000000E+00 -0.00000000000E+00 -0.28457896052E+04  0.28457896052E+04  0.25500000000E-02 0. -1.
    8880023    1    1    2    0    0  0.20514392188E+03  0.17160436512E+03 -0.95470084553E+03  0.11902924000E+04  0.65864270000E+03 0.  1.
    8880022    1    1    2    0    0 -0.20514392188E+03 -0.17160436512E+03 -0.17599105717E+04  0.17866753931E+04  0.15294330000E+03 0.  0.
<mgrwt>
<rscale>  0 0.57678834E+03</rscale>
<asrwt>0</asrwt>
<pdfrwt beam="1">  1        2 0.43781374E+00 0.71087432E+03</pdfrwt>
<pdfrwt beam="2">  1       -2 0.20181262E-01 0.71087432E+03</pdfrwt>
<totfact> 0.48136446E+01</totfact>
</mgrwt>
</event>
<event>
 4    1  0.5223852E-007  0.8614962E+03  0.7818608E-02  0.9590907E-01
         -2   -1    0    0    0  501 -0.00000000000E+00  0.00000000000E+00  0.32889725233E+03  0.32889725234E+03  0.25500000000E-02 0.  1.
          2   -1    0    0  501    0  0.00000000000E+00 -0.00000000000E+00 -0.29750382615E+04  0.29750382615E+04  0.25500000000E-02 0. -1.
    8880023    1    1    2    0    0 -0.55609144765E+02 -0.55251528822E+03 -0.33868868364E+03  0.92568123638E+03  0.65864270000E+03 0.  0.
    8880022    1    1    2    0    0  0.55609144765E+02  0.55251528822E+03 -0.23074523255E+04  0.23782542775E+04  0.15294330000E+03 0.  0.
<mgrwt>
<rscale>  0 0.77900917E+03</rscale>
<asrwt>0</asrwt>
<pdfrwt beam="1">  1        2 0.45769817E+00 0.86149621E+03</pdfrwt>
<pdfrwt beam="2">  1       -2 0.50599579E-01 0.86149621E+03</pdfrwt>
<totfact> 0.69567917E+00</totfact>
</mgrwt>
</event>
<event>
 4    1  0.5223852E-007  0.6696947E+03  0.7818608E-02  0.1015883E+00
          2   -1    0    0  501    0  0.00000000000E+00  0.00000000000E+00  0.11751729934E+04  0.11751729934E+04  0.25500000000E-02 0. -1.
         -2   -1    0    0    0  501 -0.00000000000E+00 -0.00000000000E+00 -0.33888963285E+03  0.33888963286E+03  0.25500000000E-02 0.  1.
    8880023    1    1    2    0    0  0.69447671955E+02 -0.99286540696E+02  0.14940961108E+02  0.66986135497E+03  0.65864270000E+03 0.  1.
    8880022    1    1    2    0    0 -0.69447671955E+02  0.99286540696E+02  0.82134239948E+03  0.84420127132E+03  0.15294330000E+03 0.  0.
<mgrwt>
<rscale>  0 0.49202141E+03</rscale>
<asrwt>0</asrwt>
<pdfrwt beam="1">  1        2 0.18079585E+00 0.66969471E+03</pdfrwt>
<pdfrwt beam="2">  1       -2 0.52136866E-01 0.66969471E+03</pdfrwt>
<totfact> 0.69710759E+01</totfact>
</mgrwt>
</event>
<event>
 4    1  0.5223852E-007  0.9656251E+03  0.7818608E-02  0.9427981E-01
          2   -1    0    0  501    0  0.00000000000E+00  0.00000000000E+00  0.29517165075E+04  0.29517165075E+04  0.25500000000E-02 0. -1.
         -2   -1    0    0    0  501 -0.00000000000E+00 -0.00000000000E+00 -0.46612150943E+03  0.46612150943E+03  0.25500000000E-02 0.  1.
    8880023    1    1    2    0    0  0.56571424413E+03  0.42259792962E+03  0.15520811497E+03  0.97801911093E+03  0.65864270000E+03 0.  1.
    8880022    1    1    2    0    0 -0.56571424413E+03 -0.42259792962E+03  0.23303868831E+04  0.24398189060E+04  0.15294330000E+03 0.  0.
<mgrwt>
<rscale>  0 0.89808326E+03</rscale>
<asrwt>0</asrwt>
<pdfrwt beam="1">  1        2 0.45411022E+00 0.96562509E+03</pdfrwt>
<pdfrwt beam="2">  1       -2 0.71711003E-01 0.96562509E+03</pdfrwt>
<totfact> 0.33760821E+00</totfact>
</mgrwt>
</event>
<event>
 4    1  0.5223852E-007  0.7370986E+03  0.7818608E-02  0.9868481E-01
          2   -1    0    0  501    0  0.00000000000E+00  0.00000000000E+00  0.31266331947E+04  0.31266331947E+04  0.25500000000E-02 0. -1.
         -2   -1    0    0    0  501 -0.00000000000E+00 -0.00000000000E+00 -0.35357880320E+03  0.35357880320E+03  0.25500000000E-02 0.  1.
    8880023    1    1    2    0    0  0.18506961103E+03 -0.27432348123E+03  0.56450202790E+02  0.73925703577E+03  0.65864270000E+03 0.  1.
    8880022    1    1    2    0    0 -0.18506961103E+03  0.27432348123E+03  0.27166041887E+04  0.27409549621E+04  0.15294330000E+03 0.  0.
<mgrwt>
<rscale>  0 0.61813465E+03</rscale>
<asrwt>0</asrwt>
<pdfrwt beam="1">  1        2 0.48102049E+00 0.73709860E+03</pdfrwt>
<pdfrwt beam="2">  1       -2 0.54396739E-01 0.73709860E+03</pdfrwt>
<totfact> 0.49391215E+00</totfact>
</mgrwt>
</event>
<event>
 4    1  0.5223852E-007  0.7485703E+03  0.7818608E-02  0.9835651E-01
          2   -1    0    0  501    0  0.00000000000E+00  0.00000000000E+00  0.18467796946E+04  0.18467796946E+04  0.25500000000E-02 0. -1.
         -2   -1    0    0    0  501 -0.00000000000E+00 -0.00000000000E+00 -0.51268839884E+03  0.51268839884E+03  0.25500000000E-02 0.  1.
    8880023    1    1    2    0    0  0.33454730101E+03  0.12093566637E+03 -0.20198129870E+03  0.77534120444E+03  0.65864270000E+03 0.  1.
    8880022    1    1    2    0    0 -0.33454730101E+03 -0.12093566637E+03  0.15360725945E+04  0.15841268891E+04  0.15294330000E+03 0.  0.
<mgrwt>
<rscale>  0 0.63483926E+03</rscale>
<asrwt>0</asrwt>
<pdfrwt beam="1">  1        2 0.28411996E+00 0.74857033E+03</pdfrwt>
<pdfrwt beam="2">  1       -2 0.78875138E-01 0.74857033E+03</pdfrwt>
<totfact> 0.11967681E+01</totfact>
</mgrwt>
</event>
<event>
 4    1  0.5223852E-007  0.8666046E+03  0.7818608E-02  0.9581921E-01
          2   -1    0    0  501    0  0.00000000000E+00  0.00000000000E+00  0.22465247983E+04  0.22465247983E+04  0.25500000000E-02 0. -1.
         -2   -1    0    0    0  501 -0.00000000000E+00 -0.00000000000E+00 -0.35549897126E+03  0.35549897127E+03  0.25500000000E-02 0.  1.
    8880023    1    1    2    0    0 -0.44436401737E+03 -0.34602592942E+03  0.31611210718E+03  0.92245888490E+03  0.65864270000E+03 0.  0.
    8880022    1    1    2    0    0  0.44436401737E+03  0.34602592942E+03  0.15749137198E+04  0.16795648846E+04  0.15294330000E+03 0.  0.
<mgrwt>
<rscale>  0 0.78504387E+03</rscale>
<asrwt>0</asrwt>
<pdfrwt beam="1">  1        2 0.34561919E+00 0.86660460E+03</pdfrwt>
<pdfrwt beam="2">  1       -2 0.54692150E-01 0.86660460E+03</pdfrwt>
<totfact> 0.15652574E+01</totfact>
</mgrwt>
</event>
<event>
 4    1  0.5304982E-007  0.1106122E+04  0.7818608E-02  0.9254271E-01
          2   -1    0    0  501    0  0.00000000000E+00  0.00000000000E+00  0.12240700575E+04  0.12240700575E+04  0.25500000000E-02 0. -1.
         -2   -1    0    0    0  501 -0.00000000000E+00 -0.00000000000E+00 -0.19839563114E+04  0.19839563114E+04  0.25500000000E-02 0.  1.
    8880023    1    1    2    0    0 -0.10897282698E+03 -0.88194081578E+03 -0.16201792612E+04  0.19617557759E+04  0.65864270000E+03 0.  0.
    8880022    1    1    2    0    0  0.10897282698E+03  0.88194081578E+03  0.86029300733E+03  0.12462705930E+04  0.15294330000E+03 0.  0.
<mgrwt>
<rscale>  0 0.10510399E+04</rscale>
<asrwt>0</asrwt>
<pdfrwt beam="1">  1        2 0.18831847E+00 0.11061216E+04</pdfrwt>
<pdfrwt beam="2">  1       -2 0.30522405E+00 0.11061216E+04</pdfrwt>
<totfact> 0.53522279E-01</totfact>
</mgrwt>
</event>
<event>
 4    1  0.5223852E-007  0.6690114E+03  0.7818608E-02  0.1016382E+00
          2   -1    0    0  501    0  0.00000000000E+00  0.00000000000E+00  0.33753726914E+04  0.33753726914E+04  0.25500000000E-02 0. -1.
         -2   -1    0    0    0  501 -0.00000000000E+00 -0.00000000000E+00 -0.13957432028E+03  0.13957432031E+03  0.25500000000E-02 0.  1.
    8880023    1    1    2    0    0  0.10647934550E+03  0.49276495144E+02  0.68721174040E+03  0.95908091754E+03  0.65864270000E+03 0.  1.
    8880022    1    1    2    0    0 -0.10647934550E+03 -0.49276495144E+02  0.25485866307E+04  0.25558660942E+04  0.15294330000E+03 0.  0.
<mgrwt>
<rscale>  0 0.49015247E+03</rscale>
<asrwt>0</asrwt>
<pdfrwt beam="1">  1        2 0.51928806E+00 0.66901138E+03</pdfrwt>
<pdfrwt beam="2">  1       -2 0.21472974E-01 0.66901138E+03</pdfrwt>
<totfact> 0.20298642E+01</totfact>
</mgrwt>
</event>
<event>
 4    1  0.5223852E-007  0.6726641E+03  0.7818608E-02  0.1013821E+00
          2   -1    0    0  501    0  0.00000000000E+00  0.00000000000E+00  0.33875713966E+03  0.33875713966E+03  0.25500000000E-02 0. -1.
         -2   -1    0    0    0  501 -0.00000000000E+00 -0.00000000000E+00 -0.60221913732E+03  0.60221913733E+03  0.25500000000E-02 0.  1.
    8880023    1    1    2    0    0  0.10891760877E+03  0.82485018326E+02 -0.29313153379E+03  0.73375958332E+03  0.65864270000E+03 0. -1.
    8880022    1    1    2    0    0 -0.10891760877E+03 -0.82485018326E+02  0.29669536119E+02  0.20721669367E+03  0.15294330000E+03 0. -1.
<mgrwt>
<rscale>  0 0.49983929E+03</rscale>
<asrwt>0</asrwt>
<pdfrwt beam="1">  1        2 0.52116483E-01 0.67266413E+03</pdfrwt>
<pdfrwt beam="2">  1       -2 0.92649098E-01 0.67266413E+03</pdfrwt>
<totfact> 0.96033975E+01</totfact>
</mgrwt>
</event>
<event>
 4    1  0.5223852E-007  0.7839316E+03  0.7818608E-02  0.9746681E-01
         -2   -1    0    0    0  501 -0.00000000000E+00  0.00000000000E+00  0.47850930414E+03  0.47850930414E+03  0.25500000000E-02 0.  1.
          2   -1    0    0  501    0  0.00000000000E+00 -0.00000000000E+00 -0.25264596500E+04  0.25264596500E+04  0.25500000000E-02 0. -1.
    8880023    1    1    2    0    0  0.38645532046E+03  0.17717469431E+03  0.11767632584E+03  0.79271464660E+03  0.65864270000E+03 0.  0.
    8880022    1    1    2    0    0 -0.38645532046E+03 -0.17717469431E+03 -0.21656266717E+04  0.22122543075E+04  0.15294330000E+03 0.  0.
<mgrwt>
<rscale>  0 0.68304145E+03</rscale>
<asrwt>0</asrwt>
<pdfrwt beam="1">  1        2 0.38868609E+00 0.78393163E+03</pdfrwt>
<pdfrwt beam="2">  1       -2 0.73616818E-01 0.78393163E+03</pdfrwt>
<totfact> 0.58388803E+00</totfact>
</mgrwt>
</event>
<event>
 4    1  0.5223852E-007  0.1220417E+04  0.7818608E-02  0.9137527E-01
         -2   -1    0    0    0  501 -0.00000000000E+00  0.00000000000E+00  0.14255767284E+04  0.14255767284E+04  0.25500000000E-02 0.  1.
          2   -1    0    0  501    0  0.00000000000E+00 -0.00000000000E+00 -0.14027209390E+04  0.14027209390E+04  0.25500000000E-02 0. -1.
    8880023    1    1    2    0    0  0.19734944138E+02 -0.10272375863E+04 -0.83697962449E+03  0.14798485142E+04  0.65864270000E+03 0. -1.
    8880022    1    1    2    0    0 -0.19734944138E+02  0.10272375863E+04  0.85983541388E+03  0.13484491532E+04  0.15294330000E+03 0.  0.
<mgrwt>
<rscale>  0 0.11722188E+04</rscale>
<asrwt>0</asrwt>
<pdfrwt beam="1">  1        2 0.21580322E+00 0.12204166E+04</pdfrwt>
<pdfrwt beam="2">  1       -2 0.21931950E+00 0.12204166E+04</pdfrwt>
<totfact> 0.13936983E+00</totfact>
</mgrwt>
</event>
<event>
 4    1  0.5223852E-007  0.6608054E+03  0.7818608E-02  0.1023346E+00
          2   -1    0    0  501    0  0.00000000000E+00  0.00000000000E+00  0.11066019211E+04  0.11066019211E+04  0.25500000000E-02 0. -1.
         -2   -1    0    0    0  501 -0.00000000000E+00 -0.00000000000E+00 -0.32335736449E+03  0.32335736450E+03  0.25500000000E-02 0.  1.
    8880023    1    1    2    0    0 -0.36302608006E+02  0.39187651246E+02  0.32144601193E+02  0.66158675395E+03  0.65864270000E+03 0.  0.
    8880022    1    1    2    0    0  0.36302608006E+02 -0.39187651246E+02  0.75109995540E+03  0.76837253164E+03  0.15294330000E+03 0. -1.
<mgrwt>
<rscale>  0 0.46498230E+03</rscale>
<asrwt>0</asrwt>
<pdfrwt beam="1">  1        2 0.17024645E+00 0.66080539E+03</pdfrwt>
<pdfrwt beam="2">  1       -2 0.49747287E-01 0.66080539E+03</pdfrwt>
<totfact> 0.84412456E+01</totfact>
</mgrwt>
</event>
<event>
 4    1  0.5223852E-007  0.7922724E+03  0.7818608E-02  0.9727761E-01
         -2   -1    0    0    0  501 -0.00000000000E+00  0.00000000000E+00  0.17787756466E+03  0.17787756468E+03  0.25500000000E-02 0.  1.
          2   -1    0    0  501    0  0.00000000000E+00 -0.00000000000E+00 -0.27540281705E+04  0.27540281705E+04  0.25500000000E-02 0. -1.
    8880023    1    1    2    0    0 -0.42975999001E+02 -0.43822189243E+03 -0.93342641677E+03  0.12243285692E+04  0.65864270000E+03 0.  0.
    8880022    1    1    2    0    0  0.42975999001E+02  0.43822189243E+03 -0.16427241891E+04  0.17075771660E+04  0.15294330000E+03 0.  0.
<mgrwt>
<rscale>  0 0.69387721E+03</rscale>
<asrwt>0</asrwt>
<pdfrwt beam="1">  1        2 0.42369661E+00 0.79227241E+03</pdfrwt>
<pdfrwt beam="2">  1       -2 0.27365781E-01 0.79227241E+03</pdfrwt>
<totfact> 0.31257807E+01</totfact>
</mgrwt>
</event>
<event>
 4    1  0.5223852E-007  0.8411680E+03  0.7818608E-02  0.9627982E-01
         -2   -1    0    0    0  501 -0.00000000000E+00  0.00000000000E+00  0.11308219604E+04  0.11308219604E+04  0.25500000000E-02 0.  1.
          2   -1    0    0  501    0  0.00000000000E+00 -0.00000000000E+00 -0.75169816024E+03  0.75169816024E+03  0.25500000000E-02 0. -1.
    8880023    1    1    2    0    0  0.52053133832E+03  0.52920653932E+02  0.82505118759E+03  0.11782500321E+04  0.65864270000E+03 0.  0.
    8880022    1    1    2    0    0 -0.52053133832E+03 -0.52920653932E+02 -0.44592738740E+03  0.70427008855E+03  0.15294330000E+03 0.  0.
<mgrwt>
<rscale>  0 0.75471529E+03</rscale>
<asrwt>0</asrwt>
<pdfrwt beam="1">  1        2 0.11564587E+00 0.84116804E+03</pdfrwt>
<pdfrwt beam="2">  1       -2 0.17397261E+00 0.84116804E+03</pdfrwt>
<totfact> 0.75260113E+00</totfact>
</mgrwt>
</event>
<event>
 4    1  0.5223852E-007  0.8442614E+03  0.7818608E-02  0.9622197E-01
         -2   -1    0    0    0  501 -0.00000000000E+00  0.00000000000E+00  0.69501974601E+03  0.69501974602E+03  0.25500000000E-02 0.  1.
          2   -1    0    0  501    0  0.00000000000E+00 -0.00000000000E+00 -0.13114135318E+04  0.13114135318E+04  0.25500000000E-02 0. -1.
    8880023    1    1    2    0    0 -0.52802577371E+03  0.12484516841E+02  0.33440841728E+03  0.90807834281E+03  0.65864270000E+03 0.  1.
    8880022    1    1    2    0    0  0.52802577371E+03 -0.12484516841E+02 -0.95080220303E+03  0.10983549350E+04  0.15294330000E+03 0.  0.
<mgrwt>
<rscale>  0 0.75844311E+03</rscale>
<asrwt>0</asrwt>
<pdfrwt beam="1">  1        2 0.20175593E+00 0.84426139E+03</pdfrwt>
<pdfrwt beam="2">  1       -2 0.10692612E+00 0.84426139E+03</pdfrwt>
<totfact> 0.11568527E+01</totfact>
</mgrwt>
</event>
<event>
 4    1  0.5223852E-007  0.7240264E+03  0.7818608E-02  0.9909190E-01
          2   -1    0    0  501    0  0.00000000000E+00  0.00000000000E+00  0.83845829194E+03  0.83845829194E+03  0.25500000000E-02 0. -1.
         -2   -1    0    0    0  501 -0.00000000000E+00 -0.00000000000E+00 -0.21569417568E+04  0.21569417568E+04  0.25500000000E-02 0.  1.
    8880023    1    1    2    0    0 -0.21501624635E+03 -0.21017140494E+03 -0.20585028174E+04  0.21821200841E+04  0.65864270000E+03 0.  1.
    8880022    1    1    2    0    0  0.21501624635E+03  0.21017140494E+03  0.74001935260E+03  0.81327996464E+03  0.15294330000E+03 0.  0.
<mgrwt>
<rscale>  0 0.59817948E+03</rscale>
<asrwt>0</asrwt>
<pdfrwt beam="1">  1        2 0.12899358E+00 0.72402639E+03</pdfrwt>
<pdfrwt beam="2">  1       -2 0.33183719E+00 0.72402639E+03</pdfrwt>
<totfact> 0.69179842E-01</totfact>
</mgrwt>
</event>
<event>
 4    1  0.5223852E-007  0.6754500E+03  0.7818608E-02  0.1012024E+00
         -2   -1    0    0    0  501 -0.00000000000E+00  0.00000000000E+00  0.45024562981E+03  0.45024562981E+03  0.25500000000E-02 0.  1.
          2   -1    0    0  501    0  0.00000000000E+00 -0.00000000000E+00 -0.16250795960E+04  0.16250795960E+04  0.25500000000E-02 0. -1.
    8880023    1    1    2    0    0 -0.52535323027E+02  0.14022339183E+03  0.18373868974E+03  0.69999476580E+03  0.65864270000E+03 0.  1.
    8880022    1    1    2    0    0  0.52535323027E+02 -0.14022339183E+03 -0.13585726559E+04  0.13753304600E+04  0.15294330000E+03 0.  0.
<mgrwt>
<rscale>  0 0.50678057E+03</rscale>
<asrwt>0</asrwt>
<pdfrwt beam="1">  1        2 0.25001224E+00 0.67545005E+03</pdfrwt>
<pdfrwt beam="2">  1       -2 0.69268559E-01 0.67545005E+03</pdfrwt>
<totfact> 0.21284588E+01</totfact>
</mgrwt>
</event>
<event>
 4    1  0.5223852E-007  0.7521188E+03  0.7818608E-02  0.9825956E-01
          2   -1    0    0  501    0  0.00000000000E+00  0.00000000000E+00  0.12167974259E+04  0.12167974260E+04  0.25500000000E-02 0. -1.
         -2   -1    0    0    0  501 -0.00000000000E+00 -0.00000000000E+00 -0.40652542200E+03  0.40652542201E+03  0.25500000000E-02 0.  1.
    8880023    1    1    2    0    0 -0.35070391491E+03  0.94229741049E+02  0.34138175878E+02  0.75289315400E+03  0.65864270000E+03 0.  1.
    8880022    1    1    2    0    0  0.35070391491E+03 -0.94229741049E+02  0.77613382807E+03  0.87042969396E+03  0.15294330000E+03 0.  0.
<mgrwt>
<rscale>  0 0.63988028E+03</rscale>
<asrwt>0</asrwt>
<pdfrwt beam="1">  1        2 0.18719961E+00 0.75211880E+03</pdfrwt>
<pdfrwt beam="2">  1       -2 0.62542372E-01 0.75211880E+03</pdfrwt>
<totfact> 0.44676426E+01</totfact>
</mgrwt>
</event>
<event>
 4    1  0.5223852E-007  0.7403464E+03  0.7818608E-02  0.9858939E-01
          2   -1    0    0  501    0  0.00000000000E+00  0.00000000000E+00  0.35085086180E+04  0.35085086180E+04  0.25500000000E-02 0. -1.
         -2   -1    0    0    0  501 -0.00000000000E+00 -0.00000000000E+00 -0.18598504168E+03  0.18598504170E+03  0.25500000000E-02 0.  1.
    8880023    1    1    2    0    0 -0.14208667470E+03  0.30677996241E+03  0.61729066268E+03  0.96392973652E+03  0.65864270000E+03 0.  0.
    8880022    1    1    2    0    0  0.14208667470E+03 -0.30677996241E+03  0.27052329137E+04  0.27305639232E+04  0.15294330000E+03 0.  0.
<mgrwt>
<rscale>  0 0.62293206E+03</rscale>
<asrwt>0</asrwt>
<pdfrwt beam="1">  1        2 0.53977048E+00 0.74034639E+03</pdfrwt>
<pdfrwt beam="2">  1       -2 0.28613088E-01 0.74034639E+03</pdfrwt>
<totfact> 0.97153205E+00</totfact>
</mgrwt>
</event>
<event>
 4    1  0.5223852E-007  0.6608026E+03  0.7818608E-02  0.1023349E+00
          2   -1    0    0  501    0  0.00000000000E+00  0.00000000000E+00  0.71618361986E+03  0.71618361987E+03  0.25500000000E-02 0. -1.
         -2   -1    0    0    0  501 -0.00000000000E+00 -0.00000000000E+00 -0.11088307398E+04  0.11088307398E+04  0.25500000000E-02 0.  1.
    8880023    1    1    2    0    0 -0.30029776598E+02  0.44136933132E+02 -0.99879013105E+03  0.11975983419E+04  0.65864270000E+03 0.  1.
    8880022    1    1    2    0    0  0.30029776598E+02 -0.44136933132E+02  0.60614301115E+03  0.62741601775E+03  0.15294330000E+03 0.  0.
<mgrwt>
<rscale>  0 0.46497265E+03</rscale>
<asrwt>0</asrwt>
<pdfrwt beam="1">  1        2 0.11018210E+00 0.66080259E+03</pdfrwt>
<pdfrwt beam="2">  1       -2 0.17058934E+00 0.66080259E+03</pdfrwt>
<totfact> 0.86394385E+00</totfact>
</mgrwt>
</event>
<event>
 4    1  0.5223852E-007  0.6693165E+03  0.7818608E-02  0.1016158E+00
         -2   -1    0    0    0  501 -0.00000000000E+00  0.00000000000E+00  0.95511023946E+02  0.95511023980E+02  0.25500000000E-02 0.  1.
          2   -1    0    0  501    0  0.00000000000E+00 -0.00000000000E+00 -0.22575541380E+04  0.22575541380E+04  0.25500000000E-02 0. -1.
    8880023    1    1    2    0    0  0.83676597550E+02  0.84690933452E+02 -0.19684227223E+04  0.20791037846E+04  0.65864270000E+03 0. -1.
    8880022    1    1    2    0    0 -0.83676597550E+02 -0.84690933452E+02 -0.19362039180E+03  0.27396137743E+03  0.15294330000E+03 0.  0.
<mgrwt>
<rscale>  0 0.49099037E+03</rscale>
<asrwt>0</asrwt>
<pdfrwt beam="1">  1        2 0.34731598E+00 0.66931647E+03</pdfrwt>
<pdfrwt beam="2">  1       -2 0.14694005E-01 0.66931647E+03</pdfrwt>
<totfact> 0.18066892E+02</totfact>
</mgrwt>
</event>
<event>
 4    1  0.5223852E-007  0.7544535E+03  0.7818608E-02  0.9819684E-01
          2   -1    0    0  501    0  0.00000000000E+00  0.00000000000E+00  0.65114099324E+03  0.65114099325E+03  0.25500000000E-02 0. -1.
         -2   -1    0    0    0  501 -0.00000000000E+00 -0.00000000000E+00 -0.59776113539E+03  0.59776113540E+03  0.25500000000E-02 0.  1.
    8880023    1    1    2    0    0 -0.35452101794E+03  0.98512291089E+02  0.26259132139E+03  0.79884556204E+03  0.65864270000E+03 0. -1.
    8880022    1    1    2    0    0  0.35452101794E+03 -0.98512291089E+02 -0.20921146354E+03  0.45005656661E+03  0.15294330000E+03 0.  1.
<mgrwt>
<rscale>  0 0.64316784E+03</rscale>
<asrwt>0</asrwt>
<pdfrwt beam="1">  1        2 0.10017554E+00 0.75445346E+03</pdfrwt>
<pdfrwt beam="2">  1       -2 0.91963252E-01 0.75445346E+03</pdfrwt>
<totfact> 0.45659755E+01</totfact>
</mgrwt>
</event>
<event>
 4    1  0.5223852E-007  0.7216515E+03  0.7818608E-02  0.9917037E-01
         -2   -1    0    0    0  501 -0.00000000000E+00  0.00000000000E+00  0.20905310030E+03  0.20905310031E+03  0.25500000000E-02 0.  1.
          2   -1    0    0  501    0  0.00000000000E+00 -0.00000000000E+00 -0.18615149807E+04  0.18615149807E+04  0.25500000000E-02 0. -1.
    8880023    1    1    2    0    0 -0.54337516254E+02  0.28985890209E+03 -0.51760223343E+03  0.88808390769E+03  0.65864270000E+03 0.  0.
    8880022    1    1    2    0    0  0.54337516254E+02 -0.28985890209E+03 -0.11348596469E+04  0.11824841733E+04  0.15294330000E+03 0.  0.
<mgrwt>
<rscale>  0 0.59442669E+03</rscale>
<asrwt>0</asrwt>
<pdfrwt beam="1">  1        2 0.28638691E+00 0.72165155E+03</pdfrwt>
<pdfrwt beam="2">  1       -2 0.32162017E-01 0.72165155E+03</pdfrwt>
<totfact> 0.73800100E+01</totfact>
</mgrwt>
</event>
<event>
 4    1  0.5223852E-007  0.1514655E+04  0.7818608E-02  0.8899356E-01
          2   -1    0    0  501    0  0.00000000000E+00  0.00000000000E+00  0.43201662504E+04  0.43201662504E+04  0.25500000000E-02 0. -1.
         -2   -1    0    0    0  501 -0.00000000000E+00 -0.00000000000E+00 -0.48857286797E+03  0.48857286797E+03  0.25500000000E-02 0.  1.
    8880023    1    1    2    0    0 -0.12507781121E+04  0.54399004765E+03  0.17383432449E+04  0.23056492580E+04  0.65864270000E+03 0. -1.
    8880022    1    1    2    0    0  0.12507781121E+04 -0.54399004765E+03  0.20932501375E+04  0.25030898603E+04  0.15294330000E+03 0.  1.
<mgrwt>
<rscale>  0 0.14777932E+04</rscale>
<asrwt>0</asrwt>
<pdfrwt beam="1">  1        2 0.66464096E+00 0.15146555E+04</pdfrwt>
<pdfrwt beam="2">  1       -2 0.75165057E-01 0.15146555E+04</pdfrwt>
<totfact> 0.28322649E-01</totfact>
</mgrwt>
</event>
<event>
 4    1  0.5223852E-007  0.6791592E+03  0.7818608E-02  0.1009803E+00
         -2   -1    0    0    0  501 -0.00000000000E+00  0.00000000000E+00  0.16969287465E+03  0.16969287467E+03  0.25500000000E-02 0.  1.
          2   -1    0    0  501    0  0.00000000000E+00 -0.00000000000E+00 -0.39300688246E+04  0.39300688246E+04  0.25500000000E-02 0. -1.
    8880023    1    1    2    0    0 -0.60986996972E+02  0.15403781562E+03 -0.52989290031E+03  0.86141961581E+03  0.65864270000E+03 0.  1.
    8880022    1    1    2    0    0  0.60986996972E+02 -0.15403781562E+03 -0.32304830496E+04  0.32383420834E+04  0.15294330000E+03 0.  0.
<mgrwt>
<rscale>  0 0.51552892E+03</rscale>
<asrwt>0</asrwt>
<pdfrwt beam="1">  1        2 0.60462590E+00 0.67915924E+03</pdfrwt>
<pdfrwt beam="2">  1       -2 0.26106599E-01 0.67915924E+03</pdfrwt>
<totfact> 0.57664189E+00</totfact>
</mgrwt>
</event>
<event>
 4    1  0.5223852E-007  0.9347476E+03  0.7818608E-02  0.9472407E-01
          2   -1    0    0  501    0  0.00000000000E+00  0.00000000000E+00  0.47191721103E+04  0.47191721103E+04  0.25500000000E-02 0. -1.
         -2   -1    0    0    0  501 -0.00000000000E+00 -0.00000000000E+00 -0.28830449113E+03  0.28830449114E+03  0.25500000000E-02 0.  1.
    8880023    1    1    2    0    0 -0.46396962409E+03  0.47399904380E+03  0.58693686399E+03  0.11037427210E+04  0.65864270000E+03 0.  1.
    8880022    1    1    2    0    0  0.46396962409E+03 -0.47399904380E+03  0.38439307552E+04  0.39037338804E+04  0.15294330000E+03 0.  0.
<mgrwt>
<rscale>  0 0.86349060E+03</rscale>
<asrwt>0</asrwt>
<pdfrwt beam="1">  1        2 0.72602642E+00 0.93474762E+03</pdfrwt>
<pdfrwt beam="2">  1       -2 0.44354541E-01 0.93474762E+03</pdfrwt>
<totfact> 0.38927051E-01</totfact>
</mgrwt>
</event>
<event>
 4    1  0.5223852E-007  0.7954042E+03  0.7818608E-02  0.9720823E-01
         -2   -1    0    0    0  501 -0.00000000000E+00  0.00000000000E+00  0.39382197202E+03  0.39382197203E+03  0.25500000000E-02 0.  1.
          2   -1    0    0  501    0  0.00000000000E+00 -0.00000000000E+00 -0.33911274465E+04  0.33911274465E+04  0.25500000000E-02 0. -1.
    8880023    1    1    2    0    0 -0.44449330045E+03 -0.35824106243E+02 -0.46543193168E+02  0.79676479329E+03  0.65864270000E+03 0.  1.
    8880022    1    1    2    0    0  0.44449330045E+03  0.35824106243E+02 -0.29507622813E+04  0.29881846253E+04  0.15294330000E+03 0.  0.
<mgrwt>
<rscale>  0 0.69790445E+03</rscale>
<asrwt>0</asrwt>
<pdfrwt beam="1">  1        2 0.52171189E+00 0.79540422E+03</pdfrwt>
<pdfrwt beam="2">  1       -2 0.60587998E-01 0.79540422E+03</pdfrwt>
<totfact> 0.26293739E+00</totfact>
</mgrwt>
</event>
<event>
 4    1  0.5223852E-007  0.9181225E+03  0.7818608E-02  0.9497544E-01
         -2   -1    0    0    0  501 -0.00000000000E+00  0.00000000000E+00  0.11698838803E+04  0.11698838803E+04  0.25500000000E-02 0.  1.
          2   -1    0    0  501    0  0.00000000000E+00 -0.00000000000E+00 -0.83641386107E+03  0.83641386107E+03  0.25500000000E-02 0. -1.
    8880023    1    1    2    0    0  0.51203002385E+03 -0.38335887683E+03  0.78547860196E+03  0.12082738159E+04  0.65864270000E+03 0.  1.
    8880022    1    1    2    0    0 -0.51203002385E+03  0.38335887683E+03 -0.45200858273E+03  0.79802392548E+03  0.15294330000E+03 0.  0.
<mgrwt>
<rscale>  0 0.84465152E+03</rscale>
<asrwt>0</asrwt>
<pdfrwt beam="1">  1        2 0.12867906E+00 0.91812253E+03</pdfrwt>
<pdfrwt beam="2">  1       -2 0.17998213E+00 0.91812253E+03</pdfrwt>
<totfact> 0.58842667E+00</totfact>
</mgrwt>
</event>
<event>
 4    1  0.5223852E-007  0.6772268E+03  0.7818608E-02  0.1010938E+00
          2   -1    0    0  501    0  0.00000000000E+00  0.00000000000E+00  0.91584598532E+03  0.91584598532E+03  0.25500000000E-02 0. -1.
         -2   -1    0    0    0  501 -0.00000000000E+00 -0.00000000000E+00 -0.32492899800E+03  0.32492899801E+03  0.25500000000E-02 0.  1.
    8880023    1    1    2    0    0  0.13482482100E+03 -0.81536478470E+02  0.76601618342E+02  0.68154526179E+03  0.65864270000E+03 0.  1.
    8880022    1    1    2    0    0 -0.13482482100E+03  0.81536478470E+02  0.51431536897E+03  0.55922972154E+03  0.15294330000E+03 0.  0.
<mgrwt>
<rscale>  0 0.51103575E+03</rscale>
<asrwt>0</asrwt>
<pdfrwt beam="1">  1        2 0.14089938E+00 0.67722680E+03</pdfrwt>
<pdfrwt beam="2">  1       -2 0.49989076E-01 0.67722680E+03</pdfrwt>
<totfact> 0.11025461E+02</totfact>
</mgrwt>
</event>
<event>
 4    1  0.5223852E-007  0.8766137E+03  0.7818608E-02  0.9564668E-01
         -2   -1    0    0    0  501 -0.00000000000E+00  0.00000000000E+00  0.10083492087E+04  0.10083492087E+04  0.25500000000E-02 0.  1.
          2   -1    0    0  501    0  0.00000000000E+00 -0.00000000000E+00 -0.62850648570E+03  0.62850648571E+03  0.25500000000E-02 0. -1.
    8880023    1    1    2    0    0  0.49106731879E+03 -0.30576841455E+03  0.52411966295E+03  0.10213486487E+04  0.65864270000E+03 0.  0.
    8880022    1    1    2    0    0 -0.49106731879E+03  0.30576841455E+03 -0.14427693992E+03  0.61550704571E+03  0.15294330000E+03 0.  0.
<mgrwt>
<rscale>  0 0.79679500E+03</rscale>
<asrwt>0</asrwt>
<pdfrwt beam="1">  1        2 0.96693307E-01 0.87661374E+03</pdfrwt>
<pdfrwt beam="2">  1       -2 0.15513065E+00 0.87661374E+03</pdfrwt>
<totfact> 0.12876200E+01</totfact>
</mgrwt>
</event>
<event>
 4    1  0.5223852E-007  0.8343947E+03  0.7818608E-02  0.9640842E-01
         -2   -1    0    0    0  501 -0.00000000000E+00  0.00000000000E+00  0.66456996122E+03  0.66456996122E+03  0.25500000000E-02 0.  1.
          2   -1    0    0  501    0  0.00000000000E+00 -0.00000000000E+00 -0.81486274709E+03  0.81486274710E+03  0.25500000000E-02 0. -1.
    8880023    1    1    2    0    0 -0.40413759001E+03 -0.31476506658E+03  0.17650712217E+03  0.85285943111E+03  0.65864270000E+03 0. -1.
    8880022    1    1    2    0    0  0.40413759001E+03  0.31476506658E+03 -0.32679990805E+03  0.62657327721E+03  0.15294330000E+03 0.  0.
<mgrwt>
<rscale>  0 0.74651001E+03</rscale>
<asrwt>0</asrwt>
<pdfrwt beam="1">  1        2 0.12536350E+00 0.83439466E+03</pdfrwt>
<pdfrwt beam="2">  1       -2 0.10224153E+00 0.83439466E+03</pdfrwt>
<totfact> 0.26515453E+01</totfact>
</mgrwt>
</event>
<event>
 4    1  0.5223852E-007  0.6715133E+03  0.7818608E-02  0.1014600E+00
          2   -1    0    0  501    0  0.00000000000E+00  0.00000000000E+00  0.94324763233E+03  0.94324763234E+03  0.25500000000E-02 0. -1.
         -2   -1    0    0    0  501 -0.00000000000E+00 -0.00000000000E+00 -0.27726833318E+03  0.27726833319E+03  0.25500000000E-02 0.  1.
    8880023    1    1    2    0    0 -0.12982614118E+03  0.16280099765E+02  0.18107559212E+03  0.69549870230E+03  0.65864270000E+03 0.  1.
    8880022    1    1    2    0    0  0.12982614118E+03 -0.16280099765E+02  0.48490370703E+03  0.52501726323E+03  0.15294330000E+03 0.  0.
<mgrwt>
<rscale>  0 0.49686485E+03</rscale>
<asrwt>0</asrwt>
<pdfrwt beam="1">  1        2 0.14511502E+00 0.67151327E+03</pdfrwt>
<pdfrwt beam="2">  1       -2 0.42656667E-01 0.67151327E+03</pdfrwt>
<totfact> 0.14532926E+02</totfact>
</mgrwt>
</event>
<event>
 4    1  0.5223852E-007  0.7899317E+03  0.7818608E-02  0.9733004E-01
          2   -1    0    0  501    0  0.00000000000E+00  0.00000000000E+00  0.64756491695E+03  0.64756491695E+03  0.25500000000E-02 0. -1.
         -2   -1    0    0    0  501 -0.00000000000E+00 -0.00000000000E+00 -0.19713421563E+04  0.19713421563E+04  0.25500000000E-02 0.  1.
    8880023    1    1    2    0    0 -0.30842733205E+03  0.30830915642E+03 -0.17936258846E+04  0.19598688668E+04  0.65864270000E+03 0.  1.
    8880022    1    1    2    0    0  0.30842733205E+03 -0.30830915642E+03  0.46984864522E+03  0.65903820642E+03  0.15294330000E+03 0.  0.
<mgrwt>
<rscale>  0 0.69085296E+03</rscale>
<asrwt>0</asrwt>
<pdfrwt beam="1">  1        2 0.99625373E-01 0.78993174E+03</pdfrwt>
<pdfrwt beam="2">  1       -2 0.30328341E+00 0.78993174E+03</pdfrwt>
<totfact> 0.14209933E+00</totfact>
</mgrwt>
</event>
<event>
 4    1  0.5223852E-007  0.6765911E+03  0.7818608E-02  0.1011322E+00
         -2   -1    0    0    0  501 -0.00000000000E+00  0.00000000000E+00  0.34013772291E+03  0.34013772292E+03  0.25500000000E-02 0.  1.
          2   -1    0    0  501    0  0.00000000000E+00 -0.00000000000E+00 -0.17595962790E+04  0.17595962790E+04  0.25500000000E-02 0. -1.
    8880023    1    1    2    0    0 -0.14568936010E+03 -0.52343627133E+02 -0.13182087078E+02  0.67671945342E+03  0.65864270000E+03 0.  1.
    8880022    1    1    2    0    0  0.14568936010E+03  0.52343627133E+02 -0.14062764690E+04  0.14230145485E+04  0.15294330000E+03 0.  0.
<mgrwt>
<rscale>  0 0.50952746E+03</rscale>
<asrwt>0</asrwt>
<pdfrwt beam="1">  1        2 0.27070711E+00 0.67659105E+03</pdfrwt>
<pdfrwt beam="2">  1       -2 0.52328881E-01 0.67659105E+03</pdfrwt>
<totfact> 0.32487785E+01</totfact>
</mgrwt>
</event>
<event>
 4    1  0.5223852E-007  0.6776359E+03  0.7818608E-02  0.1010694E+00
         -2   -1    0    0    0  501 -0.00000000000E+00  0.00000000000E+00  0.36808665575E+03  0.36808665576E+03  0.25500000000E-02 0.  1.
          2   -1    0    0  501    0  0.00000000000E+00 -0.00000000000E+00 -0.10845960953E+04  0.10845960953E+04  0.25500000000E-02 0. -1.
    8880023    1    1    2    0    0 -0.15619543172E+03  0.31356932075E+02  0.25891667584E+02  0.67813041135E+03  0.65864270000E+03 0.  1.
    8880022    1    1    2    0    0  0.15619543172E+03 -0.31356932075E+02 -0.74240110717E+03  0.77455233975E+03  0.15294330000E+03 0.  0.
<mgrwt>
<rscale>  0 0.51199835E+03</rscale>
<asrwt>0</asrwt>
<pdfrwt beam="1">  1        2 0.16686094E+00 0.67763595E+03</pdfrwt>
<pdfrwt beam="2">  1       -2 0.56628717E-01 0.67763595E+03</pdfrwt>
<totfact> 0.66593602E+01</totfact>
</mgrwt>
</event>
<event>
 4    1  0.5223852E-007  0.1134146E+04  0.7818608E-02  0.9223958E-01
          2   -1    0    0  501    0  0.00000000000E+00  0.00000000000E+00  0.30262115370E+04  0.30262115370E+04  0.25500000000E-02 0. -1.
         -2   -1    0    0    0  501 -0.00000000000E+00 -0.00000000000E+00 -0.93553703995E+03  0.93553703995E+03  0.25500000000E-02 0.  1.
    8880023    1    1    2    0    0 -0.87219488504E+03 -0.30290918525E+03  0.26422840601E+04  0.28754048676E+04  0.65864270000E+03 0. -1.
    8880022    1    1    2    0    0  0.87219488504E+03  0.30290918525E+03 -0.55160956299E+03  0.10863437094E+04  0.15294330000E+03 0.  0.
<mgrwt>
<rscale>  0 0.10809529E+04</rscale>
<asrwt>0</asrwt>
<pdfrwt beam="1">  1        2 0.46557100E+00 0.11341464E+04</pdfrwt>
<pdfrwt beam="2">  1       -2 0.14392878E+00 0.11341464E+04</pdfrwt>
<totfact> 0.55758522E-01</totfact>
</mgrwt>
</event>
<event>
 4    1  0.5223852E-007  0.1076805E+04  0.7818608E-02  0.9287331E-01
         -2   -1    0    0    0  501 -0.00000000000E+00  0.00000000000E+00  0.40845976267E+03  0.40845976268E+03  0.25500000000E-02 0.  1.
          2   -1    0    0  501    0  0.00000000000E+00 -0.00000000000E+00 -0.26682739217E+04  0.26682739217E+04  0.25500000000E-02 0. -1.
    8880023    1    1    2    0    0 -0.77221324950E+03  0.35970288298E+03 -0.67469458688E+03  0.12707173008E+04  0.65864270000E+03 0.  0.
    8880022    1    1    2    0    0  0.77221324950E+03 -0.35970288298E+03 -0.15851195721E+04  0.18060163836E+04  0.15294330000E+03 0.  0.
<mgrwt>
<rscale>  0 0.10195763E+04</rscale>
<asrwt>0</asrwt>
<pdfrwt beam="1">  1        2 0.41050367E+00 0.10768053E+04</pdfrwt>
<pdfrwt beam="2">  1       -2 0.62839965E-01 0.10768053E+04</pdfrwt>
<totfact> 0.65434438E+00</totfact>
</mgrwt>
</event>
<event>
 4    1  0.5223852E-007  0.7634850E+03  0.7818608E-02  0.9796167E-01
         -2   -1    0    0    0  501 -0.00000000000E+00  0.00000000000E+00  0.85791198667E+03  0.85791198667E+03  0.25500000000E-02 0.  1.
          2   -1    0    0  501    0  0.00000000000E+00 -0.00000000000E+00 -0.68984373275E+03  0.68984373276E+03  0.25500000000E-02 0. -1.
    8880023    1    1    2    0    0 -0.16235663713E+03 -0.35034189280E+03  0.58304188959E+03  0.96064934849E+03  0.65864270000E+03 0.  0.
    8880022    1    1    2    0    0  0.16235663713E+03  0.35034189280E+03 -0.41497363568E+03  0.58710637094E+03  0.15294330000E+03 0.  0.
<mgrwt>
<rscale>  0 0.65568630E+03</rscale>
<asrwt>0</asrwt>
<pdfrwt beam="1">  1        2 0.10612980E+00 0.76348499E+03</pdfrwt>
<pdfrwt beam="2">  1       -2 0.13198646E+00 0.76348499E+03</pdfrwt>
<totfact> 0.17665824E+01</totfact>
</mgrwt>
</event>
<event>
 4    1  0.5223852E-007  0.7338210E+03  0.7818608E-02  0.9878326E-01
         -2   -1    0    0    0  501 -0.00000000000E+00  0.00000000000E+00  0.15288459053E+03  0.15288459055E+03  0.25500000000E-02 0.  1.
          2   -1    0    0  501    0  0.00000000000E+00 -0.00000000000E+00 -0.21674085672E+04  0.21674085672E+04  0.25500000000E-02 0. -1.
    8880023    1    1    2    0    0 -0.96293717019E+02 -0.30888592158E+03 -0.97094925079E+03  0.12170602476E+04  0.65864270000E+03 0.  1.
    8880022    1    1    2    0    0  0.96293717019E+02  0.30888592158E+03 -0.10435747259E+04  0.11032329102E+04  0.15294330000E+03 0.  0.
<mgrwt>
<rscale>  0 0.61323295E+03</rscale>
<asrwt>0</asrwt>
<pdfrwt beam="1">  1        2 0.33344745E+00 0.73382096E+03</pdfrwt>
<pdfrwt beam="2">  1       -2 0.23520708E-01 0.73382096E+03</pdfrwt>
<totfact> 0.88961494E+01</totfact>
</mgrwt>
</event>
<event>
 4    1  0.5223852E-007  0.7225262E+03  0.7818608E-02  0.9914129E-01
          2   -1    0    0  501    0  0.00000000000E+00  0.00000000000E+00  0.93040442219E+03  0.93040442219E+03  0.25500000000E-02 0. -1.
         -2   -1    0    0    0  501 -0.00000000000E+00 -0.00000000000E+00 -0.35497928130E+03  0.35497928131E+03  0.25500000000E-02 0.  1.
    8880023    1    1    2    0    0  0.19224403965E+03  0.22644238109E+03  0.13903451996E+03  0.73578171134E+03  0.65864270000E+03 0.  1.
    8880022    1    1    2    0    0 -0.19224403965E+03 -0.22644238109E+03  0.43639062093E+03  0.54960199216E+03  0.15294330000E+03 0.  0.
<mgrwt>
<rscale>  0 0.59581395E+03</rscale>
<asrwt>0</asrwt>
<pdfrwt beam="1">  1        2 0.14313914E+00 0.72252621E+03</pdfrwt>
<pdfrwt beam="2">  1       -2 0.54612197E-01 0.72252621E+03</pdfrwt>
<totfact> 0.89630258E+01</totfact>
</mgrwt>
</event>
<event>
 4    1  0.5223852E-007  0.7488510E+03  0.7818608E-02  0.9834876E-01
         -2   -1    0    0    0  501 -0.00000000000E+00  0.00000000000E+00  0.87556400208E+03  0.87556400208E+03  0.25500000000E-02 0.  1.
          2   -1    0    0  501    0  0.00000000000E+00 -0.00000000000E+00 -0.51701533280E+03  0.51701533281E+03  0.25500000000E-02 0. -1.
    8880023    1    1    2    0    0 -0.13067594863E+03  0.33149863043E+03  0.57895442032E+03  0.94655479113E+03  0.65864270000E+03 0.  0.
    8880022    1    1    2    0    0  0.13067594863E+03 -0.33149863043E+03 -0.22040575105E+03  0.44602454376E+03  0.15294330000E+03 0.  0.
<mgrwt>
<rscale>  0 0.63523993E+03</rscale>
<asrwt>0</asrwt>
<pdfrwt beam="1">  1        2 0.79540821E-01 0.74885095E+03</pdfrwt>
<pdfrwt beam="2">  1       -2 0.13470215E+00 0.74885095E+03</pdfrwt>
<totfact> 0.23799315E+01</totfact>
</mgrwt>
</event>
<event>
 4    1  0.5223852E-007  0.7461582E+03  0.7818608E-02  0.9842359E-01
          2   -1    0    0  501    0  0.00000000000E+00  0.00000000000E+00  0.94542410357E+03  0.94542410357E+03  0.25500000000E-02 0. -1.
         -2   -1    0    0    0  501 -0.00000000000E+00 -0.00000000000E+00 -0.10368175649E+04  0.10368175649E+04  0.25500000000E-02 0.  1.
    8880023    1    1    2    0    0 -0.34019478399E+03  0.84907716841E+02 -0.85097468505E+03  0.11317729155E+04  0.65864270000E+03 0.  1.
    8880022    1    1    2    0    0  0.34019478399E+03 -0.84907716841E+02  0.75958122369E+03  0.85046875300E+03  0.15294330000E+03 0.  0.
<mgrwt>
<rscale>  0 0.63138045E+03</rscale>
<asrwt>0</asrwt>
<pdfrwt beam="1">  1        2 0.14544986E+00 0.74615817E+03</pdfrwt>
<pdfrwt beam="2">  1       -2 0.15951039E+00 0.74615817E+03</pdfrwt>
<totfact> 0.70764283E+00</totfact>
</mgrwt>
</event>
<event>
 4    1  0.5223852E-007  0.7209143E+03  0.7818608E-02  0.9919504E-01
          2   -1    0    0  501    0  0.00000000000E+00  0.00000000000E+00  0.17232696529E+04  0.17232696529E+04  0.25500000000E-02 0. -1.
         -2   -1    0    0    0  501 -0.00000000000E+00 -0.00000000000E+00 -0.17972505032E+03  0.17972505034E+03  0.25500000000E-02 0.  1.
    8880023    1    1    2    0    0 -0.27977832646E+03 -0.87357751202E+02  0.73530193430E+03  0.10297506638E+04  0.65864270000E+03 0. -1.
    8880022    1    1    2    0    0  0.27977832646E+03  0.87357751202E+02  0.80824266829E+03  0.87324403949E+03  0.15294330000E+03 0.  0.
<mgrwt>
<rscale>  0 0.59325273E+03</rscale>
<asrwt>0</asrwt>
<pdfrwt beam="1">  1        2 0.26511841E+00 0.72091435E+03</pdfrwt>
<pdfrwt beam="2">  1       -2 0.27650008E-01 0.72091435E+03</pdfrwt>
<totfact> 0.11617032E+02</totfact>
</mgrwt>
</event>
<event>
 4    1  0.5223852E-007  0.8744017E+03  0.7818608E-02  0.9568442E-01
         -2   -1    0    0    0  501 -0.00000000000E+00  0.00000000000E+00  0.38934803118E+03  0.38934803119E+03  0.25500000000E-02 0.  1.
          2   -1    0    0  501    0  0.00000000000E+00 -0.00000000000E+00 -0.14340603638E+04  0.14340603638E+04  0.25500000000E-02 0. -1.
    8880023    1    1    2    0    0  0.52308891547E+03  0.23905236551E+03 -0.78128905218E+03  0.11726000325E+04  0.65864270000E+03 0.  0.
    8880022    1    1    2    0    0 -0.52308891547E+03 -0.23905236551E+03 -0.26342328041E+03  0.65080836244E+03  0.15294330000E+03 0.  0.
<mgrwt>
<rscale>  0 0.79420592E+03</rscale>
<asrwt>0</asrwt>
<pdfrwt beam="1">  1        2 0.22062467E+00 0.87440165E+03</pdfrwt>
<pdfrwt beam="2">  1       -2 0.59899698E-01 0.87440165E+03</pdfrwt>
<totfact> 0.36288246E+01</totfact>
</mgrwt>
</event>
<event>
 4    1  0.5223852E-007  0.7592833E+03  0.7818608E-02  0.9806967E-01
          2   -1    0    0  501    0  0.00000000000E+00  0.00000000000E+00  0.27524818056E+03  0.27524818057E+03  0.25500000000E-02 0. -1.
         -2   -1    0    0    0  501 -0.00000000000E+00 -0.00000000000E+00 -0.14550514148E+04  0.14550514148E+04  0.25500000000E-02 0.  1.
    8880023    1    1    2    0    0 -0.95175122581E+02  0.36557161756E+03 -0.10630448791E+04  0.13063596491E+04  0.65864270000E+03 0. -1.
    8880022    1    1    2    0    0  0.95175122581E+02 -0.36557161756E+03 -0.11675835513E+03  0.42393994626E+03  0.15294330000E+03 0.  0.
<mgrwt>
<rscale>  0 0.64990018E+03</rscale>
<asrwt>0</asrwt>
<pdfrwt beam="1">  1        2 0.42345875E-01 0.75928329E+03</pdfrwt>
<pdfrwt beam="2">  1       -2 0.22385406E+00 0.75928329E+03</pdfrwt>
<totfact> 0.11524859E+01</totfact>
</mgrwt>
</event>
<event>
 4    1  0.5223852E-007  0.7334194E+03  0.7818608E-02  0.9879548E-01
          2   -1    0    0  501    0  0.00000000000E+00  0.00000000000E+00  0.56570329804E+03  0.56570329805E+03  0.25500000000E-02 0. -1.
         -2   -1    0    0    0  501 -0.00000000000E+00 -0.00000000000E+00 -0.83548001715E+03  0.83548001716E+03  0.25500000000E-02 0.  1.
    8880023    1    1    2    0    0 -0.28587074524E+03 -0.14957158106E+03  0.24626540049E+03  0.77366051637E+03  0.65864270000E+03 0.  0.
    8880022    1    1    2    0    0  0.28587074524E+03  0.14957158106E+03 -0.51604211960E+03  0.62752279884E+03  0.15294330000E+03 0.  0.
<mgrwt>
<rscale>  0 0.61262798E+03</rscale>
<asrwt>0</asrwt>
<pdfrwt beam="1">  1        2 0.87031277E-01 0.73341935E+03</pdfrwt>
<pdfrwt beam="2">  1       -2 0.12853539E+00 0.73341935E+03</pdfrwt>
<totfact> 0.24136388E+01</totfact>
</mgrwt>
</event>
<event>
 4    1  0.5223852E-007  0.6822337E+03  0.7818608E-02  0.1008087E+00
         -2   -1    0    0    0  501 -0.00000000000E+00  0.00000000000E+00  0.26649003819E+03  0.26649003820E+03  0.25500000000E-02 0.  1.
          2   -1    0    0  501    0  0.00000000000E+00 -0.00000000000E+00 -0.12065015085E+04  0.12065015085E+04  0.25500000000E-02 0. -1.
    8880023    1    1    2    0    0  0.17766674165E+03  0.81916764961E+01 -0.22170437186E+03  0.71735319712E+03  0.65864270000E+03 0.  0.
    8880022    1    1    2    0    0 -0.17766674165E+03 -0.81916764961E+01 -0.71830709841E+03  0.75563834954E+03  0.15294330000E+03 0.  0.
<mgrwt>
<rscale>  0 0.52241917E+03</rscale>
<asrwt>0</asrwt>
<pdfrwt beam="1">  1        2 0.18561561E+00 0.68223367E+03</pdfrwt>
<pdfrwt beam="2">  1       -2 0.40998468E-01 0.68223367E+03</pdfrwt>
<totfact> 0.10794606E+02</totfact>
</mgrwt>
</event>
<event>
 4    1  0.5223852E-007  0.9093827E+03  0.7818608E-02  0.9511134E-01
          2   -1    0    0  501    0  0.00000000000E+00  0.00000000000E+00  0.11323277998E+04  0.11323277998E+04  0.25500000000E-02 0. -1.
         -2   -1    0    0    0  501 -0.00000000000E+00 -0.00000000000E+00 -0.79066159259E+03  0.79066159259E+03  0.25500000000E-02 0.  1.
    8880023    1    1    2    0    0 -0.50686649473E+03  0.36912465001E+03 -0.35233975184E+03  0.97525389398E+03  0.65864270000E+03 0.  0.
    8880022    1    1    2    0    0  0.50686649473E+03 -0.36912465001E+03  0.69400595903E+03  0.94773549840E+03  0.15294330000E+03 0.  0.
<mgrwt>
<rscale>  0 0.83467899E+03</rscale>
<asrwt>0</asrwt>
<pdfrwt beam="1">  1        2 0.17420428E+00 0.90938268E+03</pdfrwt>
<pdfrwt beam="2">  1       -2 0.12164025E+00 0.90938268E+03</pdfrwt>
<totfact> 0.10695106E+01</totfact>
</mgrwt>
</event>
<event>
 4    1  0.5223852E-007  0.7936156E+03  0.7818608E-02  0.9724774E-01
         -2   -1    0    0    0  501 -0.00000000000E+00  0.00000000000E+00  0.69608193337E+03  0.69608193337E+03  0.25500000000E-02 0.  1.
          2   -1    0    0  501    0  0.00000000000E+00 -0.00000000000E+00 -0.11458994650E+04  0.11458994650E+04  0.25500000000E-02 0. -1.
    8880023    1    1    2    0    0  0.40690895833E+03 -0.17447243972E+03  0.38703059743E+03  0.88296003432E+03  0.65864270000E+03 0.  0.
    8880022    1    1    2    0    0 -0.40690895833E+03  0.17447243972E+03 -0.83684812910E+03  0.95902136409E+03  0.15294330000E+03 0.  0.
<mgrwt>
<rscale>  0 0.69560710E+03</rscale>
<asrwt>0</asrwt>
<pdfrwt beam="1">  1        2 0.17629223E+00 0.79361561E+03</pdfrwt>
<pdfrwt beam="2">  1       -2 0.10708953E+00 0.79361561E+03</pdfrwt>
<totfact> 0.14510136E+01</totfact>
</mgrwt>
</event>
<event>
 4    1  0.5223852E-007  0.1258697E+04  0.7818608E-02  0.9102074E-01
         -2   -1    0    0    0  501 -0.00000000000E+00  0.00000000000E+00  0.11900010112E+04  0.11900010112E+04  0.25500000000E-02 0.  1.
          2   -1    0    0  501    0  0.00000000000E+00 -0.00000000000E+00 -0.17985049066E+04  0.17985049066E+04  0.25500000000E-02 0. -1.
    8880023    1    1    2    0    0 -0.22496260054E+03  0.10487610281E+04 -0.12127986442E+04  0.17479126476E+04  0.65864270000E+03 0. -1.
    8880022    1    1    2    0    0  0.22496260054E+03 -0.10487610281E+04  0.60429474881E+03  0.12405932703E+04  0.15294330000E+03 0.  0.
<mgrwt>
<rscale>  0 0.12123967E+04</rscale>
<asrwt>0</asrwt>
<pdfrwt beam="1">  1        2 0.27669306E+00 0.12586970E+04</pdfrwt>
<pdfrwt beam="2">  1       -2 0.18307708E+00 0.12586970E+04</pdfrwt>
<totfact> 0.14397191E+00</totfact>
</mgrwt>
</event>
<event>
 4    1  0.5223852E-007  0.9269015E+03  0.7818608E-02  0.9484157E-01
         -2   -1    0    0    0  501 -0.00000000000E+00  0.00000000000E+00  0.65769413105E+03  0.65769413106E+03  0.25500000000E-02 0.  1.
          2   -1    0    0  501    0  0.00000000000E+00 -0.00000000000E+00 -0.22830348064E+04  0.22830348064E+04  0.25500000000E-02 0. -1.
    8880023    1    1    2    0    0  0.65127717917E+03  0.34266765511E+02  0.24107811393E+03  0.95773954633E+03  0.65864270000E+03 0.  1.
    8880022    1    1    2    0    0 -0.65127717917E+03 -0.34266765511E+02 -0.18664187893E+04  0.19829893911E+04  0.15294330000E+03 0.  0.
<mgrwt>
<rscale>  0 0.85462002E+03</rscale>
<asrwt>0</asrwt>
<pdfrwt beam="1">  1        2 0.35123612E+00 0.92690150E+03</pdfrwt>
<pdfrwt beam="2">  1       -2 0.10118371E+00 0.92690150E+03</pdfrwt>
<totfact> 0.37779500E+00</totfact>
</mgrwt>
</event>
<event>
 4    1  0.5223852E-007  0.7662158E+03  0.7818608E-02  0.9789273E-01
          2   -1    0    0  501    0  0.00000000000E+00  0.00000000000E+00  0.20698240287E+04  0.20698240287E+04  0.25500000000E-02 0. -1.
         -2   -1    0    0    0  501 -0.00000000000E+00 -0.00000000000E+00 -0.17809229601E+03  0.17809229603E+03  0.25500000000E-02 0.  1.
    8880023    1    1    2    0    0  0.21929009383E+03 -0.32432749123E+03  0.14381466757E+04  0.16295252480E+04  0.65864270000E+03 0. -1.
    8880022    1    1    2    0    0 -0.21929009383E+03  0.32432749123E+03  0.45358505694E+03  0.61839107668E+03  0.15294330000E+03 0.  1.
<mgrwt>
<rscale>  0 0.65941391E+03</rscale>
<asrwt>0</asrwt>
<pdfrwt beam="1">  1        2 0.31843450E+00 0.76621581E+03</pdfrwt>
<pdfrwt beam="2">  1       -2 0.27398812E-01 0.76621581E+03</pdfrwt>
<totfact> 0.76083205E+01</totfact>
</mgrwt>
</event>
<event>
 4    1  0.5223852E-007  0.9671590E+03  0.7818608E-02  0.9425844E-01
         -2   -1    0    0    0  501 -0.00000000000E+00  0.00000000000E+00  0.50269627478E+03  0.50269627479E+03  0.25500000000E-02 0.  1.
          2   -1    0    0  501    0  0.00000000000E+00 -0.00000000000E+00 -0.25953222105E+04  0.25953222105E+04  0.25500000000E-02 0. -1.
    8880023    1    1    2    0    0 -0.32774546492E+03  0.62782891313E+03 -0.93532316393E+02  0.97167110403E+03  0.65864270000E+03 0.  0.
    8880022    1    1    2    0    0  0.32774546492E+03 -0.62782891313E+03 -0.19990936194E+04  0.21263473813E+04  0.15294330000E+03 0.  0.
<mgrwt>
<rscale>  0 0.89978970E+03</rscale>
<asrwt>0</asrwt>
<pdfrwt beam="1">  1        2 0.39928033E+00 0.96715895E+03</pdfrwt>
<pdfrwt beam="2">  1       -2 0.77337890E-01 0.96715895E+03</pdfrwt>
<totfact> 0.46446942E+00</totfact>
</mgrwt>
</event>
<event>
 4    1  0.5223852E-007  0.7721668E+03  0.7818608E-02  0.9774570E-01
         -2   -1    0    0    0  501 -0.00000000000E+00  0.00000000000E+00  0.11423555090E+04  0.11423555090E+04  0.25500000000E-02 0.  1.
          2   -1    0    0  501    0  0.00000000000E+00 -0.00000000000E+00 -0.67010205870E+03  0.67010205871E+03  0.25500000000E-02 0. -1.
    8880023    1    1    2    0    0  0.31697766270E+03 -0.24891068675E+03  0.91313795688E+03  0.11958522079E+04  0.65864270000E+03 0.  1.
    8880022    1    1    2    0    0 -0.31697766270E+03  0.24891068675E+03 -0.44088450655E+03  0.61660535982E+03  0.15294330000E+03 0.  0.
<mgrwt>
<rscale>  0 0.66745315E+03</rscale>
<asrwt>0</asrwt>
<pdfrwt beam="1">  1        2 0.10309263E+00 0.77216681E+03</pdfrwt>
<pdfrwt beam="2">  1       -2 0.17574700E+00 0.77216681E+03</pdfrwt>
<totfact> 0.85283958E+00</totfact>
</mgrwt>
</event>
<event>
 4    1  0.5223852E-007  0.7157667E+03  0.7818608E-02  0.9937179E-01
         -2   -1    0    0    0  501 -0.00000000000E+00  0.00000000000E+00  0.30301985508E+03  0.30301985509E+03  0.25500000000E-02 0.  1.
          2   -1    0    0  501    0  0.00000000000E+00 -0.00000000000E+00 -0.11780221339E+04  0.11780221339E+04  0.25500000000E-02 0. -1.
    8880023    1    1    2    0    0 -0.27002635719E+03  0.74816717106E+02 -0.91238050325E+03  0.11596379451E+04  0.65864270000E+03 0. -1.
    8880022    1    1    2    0    0  0.27002635719E+03 -0.74816717106E+02  0.37378224462E+02  0.32140404387E+03  0.15294330000E+03 0.  0.
<mgrwt>
<rscale>  0 0.58492774E+03</rscale>
<asrwt>0</asrwt>
<pdfrwt beam="1">  1        2 0.18123417E+00 0.71576671E+03</pdfrwt>
<pdfrwt beam="2">  1       -2 0.46618440E-01 0.71576671E+03</pdfrwt>
<totfact> 0.86751164E+01</totfact>
</mgrwt>
</event>
<event>
 4    1  0.5223852E-007  0.6596706E+03  0.7818608E-02  0.1024496E+00
          2   -1    0    0  501    0  0.00000000000E+00  0.00000000000E+00  0.11262423157E+04  0.11262423157E+04  0.25500000000E-02 0. -1.
         -2   -1    0    0    0  501 -0.00000000000E+00 -0.00000000000E+00 -0.14911575211E+03  0.14911575213E+03  0.25500000000E-02 0.  1.
    8880023    1    1    2    0    0 -0.36779621302E+02  0.15524266351E+01  0.74673099640E+03  0.99637971568E+03  0.65864270000E+03 0.  1.
    8880022    1    1    2    0    0  0.36779621302E+02 -0.15524266351E+01  0.23039556716E+03  0.27897835212E+03  0.15294330000E+03 0.  0.
<mgrwt>
<rscale>  0 0.46098337E+03</rscale>
<asrwt>0</asrwt>
<pdfrwt beam="1">  1        2 0.17326804E+00 0.65967064E+03</pdfrwt>
<pdfrwt beam="2">  1       -2 0.22940886E-01 0.65967064E+03</pdfrwt>
<totfact> 0.35583068E+02</totfact>
</mgrwt>
</event>
<event>
 4    1  0.5223852E-007  0.6885140E+03  0.7818608E-02  0.1004867E+00
         -2   -1    0    0    0  501 -0.00000000000E+00  0.00000000000E+00  0.90685219046E+03  0.90685219046E+03  0.25500000000E-02 0.  1.
          2   -1    0    0  501    0  0.00000000000E+00 -0.00000000000E+00 -0.45509352545E+03  0.45509352546E+03  0.25500000000E-02 0. -1.
    8880023    1    1    2    0    0 -0.18189182103E+02  0.19977594387E+03  0.71828007191E+03  0.99497625201E+03  0.65864270000E+03 0.  1.
    8880022    1    1    2    0    0  0.18189182103E+02 -0.19977594387E+03 -0.26652140690E+03  0.36696946392E+03  0.15294330000E+03 0.  0.
<mgrwt>
<rscale>  0 0.53566689E+03</rscale>
<asrwt>0</asrwt>
<pdfrwt beam="1">  1        2 0.70014388E-01 0.68851397E+03</pdfrwt>
<pdfrwt beam="2">  1       -2 0.13951572E+00 0.68851397E+03</pdfrwt>
<totfact> 0.25325867E+01</totfact>
</mgrwt>
</event>
<event>
 4    1  0.5223852E-007  0.6687397E+03  0.7818608E-02  0.1016583E+00
          2   -1    0    0  501    0  0.00000000000E+00  0.00000000000E+00  0.86997110545E+03  0.86997110545E+03  0.25500000000E-02 0. -1.
         -2   -1    0    0    0  501 -0.00000000000E+00 -0.00000000000E+00 -0.25429726795E+03  0.25429726796E+03  0.25500000000E-02 0.  1.
    8880023    1    1    2    0    0  0.39677455532E+02 -0.10875813418E+03  0.25490302017E+03  0.71567338094E+03  0.65864270000E+03 0.  1.
    8880022    1    1    2    0    0 -0.39677455532E+02  0.10875813418E+03  0.36077081732E+03  0.40859499247E+03  0.15294330000E+03 0.  0.
<mgrwt>
<rscale>  0 0.48940161E+03</rscale>
<asrwt>0</asrwt>
<pdfrwt beam="1">  1        2 0.13384171E+00 0.66873974E+03</pdfrwt>
<pdfrwt beam="2">  1       -2 0.39122657E-01 0.66873974E+03</pdfrwt>
<totfact> 0.19266006E+02</totfact>
</mgrwt>
</event>
<event>
 4    1  0.5223852E-007  0.7472955E+03  0.7818608E-02  0.9839184E-01
          2   -1    0    0  501    0  0.00000000000E+00  0.00000000000E+00  0.11485207188E+04  0.11485207188E+04  0.25500000000E-02 0. -1.
         -2   -1    0    0    0  501 -0.00000000000E+00 -0.00000000000E+00 -0.85230579395E+03  0.85230579396E+03  0.25500000000E-02 0.  1.
    8880023    1    1    2    0    0 -0.34074985001E+03 -0.92357663032E+02 -0.64300662979E+03  0.98585401071E+03  0.65864270000E+03 0.  0.
    8880022    1    1    2    0    0  0.34074985001E+03  0.92357663032E+02  0.93922155462E+03  0.10149725020E+04  0.15294330000E+03 0. -1.
<mgrwt>
<rscale>  0 0.63301464E+03</rscale>
<asrwt>0</asrwt>
<pdfrwt beam="1">  1        2 0.17669550E+00 0.74729553E+03</pdfrwt>
<pdfrwt beam="2">  1       -2 0.13112397E+00 0.74729553E+03</pdfrwt>
<totfact> 0.88157572E+00</totfact>
</mgrwt>
</event>
<event>
 4    1  0.5223852E-007  0.1383637E+04  0.7818608E-02  0.8996502E-01
         -2   -1    0    0    0  501 -0.00000000000E+00  0.00000000000E+00  0.20413950827E+04  0.20413950827E+04  0.25500000000E-02 0.  1.
          2   -1    0    0  501    0  0.00000000000E+00 -0.00000000000E+00 -0.25737551728E+04  0.25737551728E+04  0.25500000000E-02 0. -1.
    8880023    1    1    2    0    0  0.12155116920E+04 -0.56336486500E+02 -0.21673320027E+04  0.25713383070E+04  0.65864270000E+03 0.  0.
    8880022    1    1    2    0    0 -0.12155116920E+04  0.56336486500E+02  0.16349719126E+04  0.20438119486E+04  0.15294330000E+03 0.  0.
<mgrwt>
<rscale>  0 0.13425298E+04</rscale>
<asrwt>0</asrwt>
<pdfrwt beam="1">  1        2 0.39596234E+00 0.13836375E+04</pdfrwt>
<pdfrwt beam="2">  1       -2 0.31406078E+00 0.13836375E+04</pdfrwt>
<totfact> 0.78430098E-02</totfact>
</mgrwt>
</event>
<event>
 4    1  0.5223852E-007  0.6851976E+03  0.7818608E-02  0.1006524E+00
         -2   -1    0    0    0  501 -0.00000000000E+00  0.00000000000E+00  0.49722697716E+03  0.49722697717E+03  0.25500000000E-02 0.  1.
          2   -1    0    0  501    0  0.00000000000E+00 -0.00000000000E+00 -0.53603162716E+03  0.53603162717E+03  0.25500000000E-02 0. -1.
    8880023    1    1    2    0    0  0.18835579093E+03  0.14412016576E+02  0.17758151482E+03  0.70783544053E+03  0.65864270000E+03 0.  0.
    8880022    1    1    2    0    0 -0.18835579093E+03 -0.14412016576E+02 -0.21638616482E+03  0.32542316380E+03  0.15294330000E+03 0.  0.
<mgrwt>
<rscale>  0 0.52879756E+03</rscale>
<asrwt>0</asrwt>
<pdfrwt beam="1">  1        2 0.82466404E-01 0.68519765E+03</pdfrwt>
<pdfrwt beam="2">  1       -2 0.76496458E-01 0.68519765E+03</pdfrwt>
<totfact> 0.88053549E+01</totfact>
</mgrwt>
</event>
<event>
 4    1  0.5223852E-007  0.7278910E+03  0.7818608E-02  0.9896737E-01
          2   -1    0    0  501    0  0.00000000000E+00  0.00000000000E+00  0.28899053720E+04  0.28899053720E+04  0.25500000000E-02 0. -1.
         -2   -1    0    0    0  501 -0.00000000000E+00 -0.00000000000E+00 -0.17707543060E+03  0.17707543061E+03  0.25500000000E-02 0.  1.
    8880023    1    1    2    0    0 -0.30769865227E+03  0.36560100717E+02  0.65144770535E+03  0.97683643495E+03  0.65864270000E+03 0.  0.
    8880022    1    1    2    0    0  0.30769865227E+03 -0.36560100717E+02  0.20613822361E+04  0.20901443677E+04  0.15294330000E+03 0.  0.
<mgrwt>
<rscale>  0 0.60419673E+03</rscale>
<asrwt>0</asrwt>
<pdfrwt beam="1">  1        2 0.44460081E+00 0.72789100E+03</pdfrwt>
<pdfrwt beam="2">  1       -2 0.27242375E-01 0.72789100E+03</pdfrwt>
<totfact> 0.26430259E+01</totfact>
</mgrwt>
</event>
<event>
 4    1  0.5223852E-007  0.7373548E+03  0.7818608E-02  0.9867720E-01
         -2   -1    0    0    0  501 -0.00000000000E+00  0.00000000000E+00  0.78956101890E+03  0.78956101891E+03  0.25500000000E-02 0.  1.
          2   -1    0    0  501    0  0.00000000000E+00 -0.00000000000E+00 -0.16571321699E+04  0.16571321699E+04  0.25500000000E-02 0. -1.
    8880023    1    1    2    0    0 -0.72232219177E+02 -0.32351884028E+03  0.58984462446E+03  0.94425040152E+03  0.65864270000E+03 0.  1.
    8880022    1    1    2    0    0  0.72232219177E+02  0.32351884028E+03 -0.14574157755E+04  0.15024427873E+04  0.15294330000E+03 0.  0.
<mgrwt>
<rscale>  0 0.61851524E+03</rscale>
<asrwt>0</asrwt>
<pdfrwt beam="1">  1        2 0.25494341E+00 0.73735483E+03</pdfrwt>
<pdfrwt beam="2">  1       -2 0.12147093E+00 0.73735483E+03</pdfrwt>
<totfact> 0.54995401E+00</totfact>
</mgrwt>
</event>
<event>
 4    1  0.5223852E-007  0.9897801E+03  0.7818608E-02  0.9395052E-01
          2   -1    0    0  501    0  0.00000000000E+00  0.00000000000E+00  0.21807109325E+04  0.21807109325E+04  0.25500000000E-02 0. -1.
         -2   -1    0    0    0  501 -0.00000000000E+00 -0.00000000000E+00 -0.53792075971E+03  0.53792075972E+03  0.25500000000E-02 0.  1.
    8880023    1    1    2    0    0 -0.57987738177E+03  0.45781736970E+03  0.16944812184E+04  0.19623789970E+04  0.65864270000E+03 0.  0.
    8880022    1    1    2    0    0  0.57987738177E+03 -0.45781736970E+03 -0.51691045622E+02  0.75625269527E+03  0.15294330000E+03 0.  0.
<mgrwt>
<rscale>  0 0.92483992E+03</rscale>
<asrwt>0</asrwt>
<pdfrwt beam="1">  1        2 0.33549399E+00 0.98978014E+03</pdfrwt>
<pdfrwt beam="2">  1       -2 0.82757039E-01 0.98978014E+03</pdfrwt>
<totfact> 0.68182464E+00</totfact>
</mgrwt>
</event>
<event>
 4    1  0.5223852E-007  0.8647830E+03  0.7818608E-02  0.9585111E-01
         -2   -1    0    0    0  501 -0.00000000000E+00  0.00000000000E+00  0.67877206060E+03  0.67877206061E+03  0.25500000000E-02 0.  1.
          2   -1    0    0  501    0  0.00000000000E+00 -0.00000000000E+00 -0.16198101076E+04  0.16198101076E+04  0.25500000000E-02 0. -1.
    8880023    1    1    2    0    0 -0.21463131256E+03  0.51766096303E+03  0.31047682384E+03  0.91882835034E+03  0.65864270000E+03 0.  1.
    8880022    1    1    2    0    0  0.21463131256E+03 -0.51766096303E+03 -0.12515148708E+04  0.13797538179E+04  0.15294330000E+03 0.  0.
<mgrwt>
<rscale>  0 0.78289498E+03</rscale>
<asrwt>0</asrwt>
<pdfrwt beam="1">  1        2 0.24920155E+00 0.86478302E+03</pdfrwt>
<pdfrwt beam="2">  1       -2 0.10442647E+00 0.86478302E+03</pdfrwt>
<totfact> 0.81903678E+00</totfact>
</mgrwt>
</event>
<event>
 4    1  0.5223852E-007  0.8037637E+03  0.7818608E-02  0.9702716E-01
         -2   -1    0    0    0  501 -0.00000000000E+00  0.00000000000E+00  0.41576432397E+03  0.41576432397E+03  0.25500000000E-02 0.  1.
          2   -1    0    0  501    0  0.00000000000E+00 -0.00000000000E+00 -0.21568788052E+04  0.21568788052E+04  0.25500000000E-02 0. -1.
    8880023    1    1    2    0    0  0.13133916433E+03 -0.44156078781E+03 -0.41238678266E+02  0.80482093677E+03  0.65864270000E+03 0.  0.
    8880022    1    1    2    0    0 -0.13133916433E+03  0.44156078781E+03 -0.16998758030E+04  0.17678221924E+04  0.15294330000E+03 0.  0.
<mgrwt>
<rscale>  0 0.70855286E+03</rscale>
<asrwt>0</asrwt>
<pdfrwt beam="1">  1        2 0.33182750E+00 0.80376372E+03</pdfrwt>
<pdfrwt beam="2">  1       -2 0.63963743E-01 0.80376372E+03</pdfrwt>
<totfact> 0.12718359E+01</totfact>
</mgrwt>
</event>
<event>
 4    1  0.5223852E-007  0.9051533E+03  0.7818608E-02  0.9517809E-01
         -2   -1    0    0    0  501 -0.00000000000E+00  0.00000000000E+00  0.68959059492E+03  0.68959059493E+03  0.25500000000E-02 0.  1.
          2   -1    0    0  501    0  0.00000000000E+00 -0.00000000000E+00 -0.10094023900E+04  0.10094023900E+04  0.25500000000E-02 0. -1.
    8880023    1    1    2    0    0 -0.61248957195E+03  0.10172925216E+03  0.13381279223E+03  0.91499092133E+03  0.65864270000E+03 0.  1.
    8880022    1    1    2    0    0  0.61248957195E+03 -0.10172925216E+03 -0.45362458727E+03  0.78400206357E+03  0.15294330000E+03 0.  0.
<mgrwt>
<rscale>  0 0.82983476E+03</rscale>
<asrwt>0</asrwt>
<pdfrwt beam="1">  1        2 0.15529268E+00 0.90515331E+03</pdfrwt>
<pdfrwt beam="2">  1       -2 0.10609086E+00 0.90515331E+03</pdfrwt>
<totfact> 0.17838872E+01</totfact>
</mgrwt>
</event>
<event>
 4    1  0.5223852E-007  0.8138384E+03  0.7818608E-02  0.9681636E-01
          2   -1    0    0  501    0  0.00000000000E+00  0.00000000000E+00  0.72251216509E+03  0.72251216510E+03  0.25500000000E-02 0. -1.
         -2   -1    0    0    0  501 -0.00000000000E+00 -0.00000000000E+00 -0.10465054331E+04  0.10465054331E+04  0.25500000000E-02 0.  1.
    8880023    1    1    2    0    0 -0.23475509950E+03 -0.41642867949E+03 -0.75299023973E+03  0.11087503367E+04  0.65864270000E+03 0.  0.
    8880022    1    1    2    0    0  0.23475509950E+03  0.41642867949E+03  0.42899697170E+03  0.66026726148E+03  0.15294330000E+03 0.  0.
<mgrwt>
<rscale>  0 0.72120759E+03</rscale>
<asrwt>0</asrwt>
<pdfrwt beam="1">  1        2 0.11115572E+00 0.81383844E+03</pdfrwt>
<pdfrwt beam="2">  1       -2 0.16100084E+00 0.81383844E+03</pdfrwt>
<totfact> 0.98372353E+00</totfact>
</mgrwt>
</event>
<event>
 4    1  0.5223852E-007  0.8238447E+03  0.7818608E-02  0.9661429E-01
         -2   -1    0    0    0  501 -0.00000000000E+00  0.00000000000E+00  0.31388702236E+03  0.31388702237E+03  0.25500000000E-02 0.  1.
          2   -1    0    0  501    0  0.00000000000E+00 -0.00000000000E+00 -0.31982353449E+04  0.31982353449E+04  0.25500000000E-02 0. -1.
    8880023    1    1    2    0    0 -0.13071543317E+03 -0.47730844490E+03 -0.30061223713E+03  0.87697651019E+03  0.65864270000E+03 0.  1.
    8880022    1    1    2    0    0  0.13071543317E+03  0.47730844490E+03 -0.25837360854E+04  0.26351458571E+04  0.15294330000E+03 0.  0.
<mgrwt>
<rscale>  0 0.73360436E+03</rscale>
<asrwt>0</asrwt>
<pdfrwt beam="1">  1        2 0.49203618E+00 0.82384470E+03</pdfrwt>
<pdfrwt beam="2">  1       -2 0.48290313E-01 0.82384470E+03</pdfrwt>
<totfact> 0.55865049E+00</totfact>
</mgrwt>
</event>
<event>
 4    1  0.5223852E-007  0.8318669E+03  0.7818608E-02  0.9645711E-01
          2   -1    0    0  501    0  0.00000000000E+00  0.00000000000E+00  0.24013254944E+04  0.24013254944E+04  0.25500000000E-02 0. -1.
         -2   -1    0    0    0  501 -0.00000000000E+00 -0.00000000000E+00 -0.41922775411E+03  0.41922775412E+03  0.25500000000E-02 0.  1.
    8880023    1    1    2    0    0 -0.50333485689E+03 -0.69615640435E+02  0.68430715831E+02  0.83467675461E+03  0.65864270000E+03 0.  0.
    8880022    1    1    2    0    0  0.50333485689E+03  0.69615640435E+02  0.19136670244E+04  0.19858764939E+04  0.15294330000E+03 0.  0.
<mgrwt>
<rscale>  0 0.74343220E+03</rscale>
<asrwt>0</asrwt>
<pdfrwt beam="1">  1        2 0.36943469E+00 0.83186689E+03</pdfrwt>
<pdfrwt beam="2">  1       -2 0.64496578E-01 0.83186689E+03</pdfrwt>
<totfact> 0.90980121E+00</totfact>
</mgrwt>
</event>
<event>
 4    1  0.5223852E-007  0.7033778E+03  0.7818608E-02  0.9983467E-01
          2   -1    0    0  501    0  0.00000000000E+00  0.00000000000E+00  0.76153442203E+03  0.76153442204E+03  0.25500000000E-02 0. -1.
         -2   -1    0    0    0  501 -0.00000000000E+00 -0.00000000000E+00 -0.12715407899E+04  0.12715407899E+04  0.25500000000E-02 0.  1.
    8880023    1    1    2    0    0  0.18304112149E+03 -0.16560822084E+03 -0.11399144991E+04  0.13394571313E+04  0.65864270000E+03 0.  1.
    8880022    1    1    2    0    0 -0.18304112149E+03  0.16560822084E+03  0.62990813126E+03  0.69361808066E+03  0.15294330000E+03 0.  0.
<mgrwt>
<rscale>  0 0.56381156E+03</rscale>
<asrwt>0</asrwt>
<pdfrwt beam="1">  1        2 0.11715914E+00 0.70337781E+03</pdfrwt>
<pdfrwt beam="2">  1       -2 0.19562166E+00 0.70337781E+03</pdfrwt>
<totfact> 0.53682924E+00</totfact>
</mgrwt>
</event>
<event>
 4    1  0.5223852E-007  0.7119734E+03  0.7818608E-02  0.9950745E-01
          2   -1    0    0  501    0  0.00000000000E+00  0.00000000000E+00  0.11757235556E+04  0.11757235556E+04  0.25500000000E-02 0. -1.
         -2   -1    0    0    0  501 -0.00000000000E+00 -0.00000000000E+00 -0.10937718041E+04  0.10937718041E+04  0.25500000000E-02 0.  1.
    8880023    1    1    2    0    0  0.97113879722E+02 -0.25231887169E+03 -0.95262927582E+03  0.11892891415E+04  0.65864270000E+03 0.  0.
    8880022    1    1    2    0    0 -0.97113879722E+02  0.25231887169E+03  0.10345810273E+04  0.10802062182E+04  0.15294330000E+03 0.  0.
<mgrwt>
<rscale>  0 0.57863773E+03</rscale>
<asrwt>0</asrwt>
<pdfrwt beam="1">  1        2 0.18088055E+00 0.71197340E+03</pdfrwt>
<pdfrwt beam="2">  1       -2 0.16827258E+00 0.71197340E+03</pdfrwt>
<totfact> 0.44167249E+00</totfact>
</mgrwt>
</event>
<event>
 4    1  0.5223852E-007  0.8900150E+03  0.7818608E-02  0.9542255E-01
          2   -1    0    0  501    0  0.00000000000E+00  0.00000000000E+00  0.25887208883E+04  0.25887208883E+04  0.25500000000E-02 0. -1.
         -2   -1    0    0    0  501 -0.00000000000E+00 -0.00000000000E+00 -0.56506173456E+03  0.56506173457E+03  0.25500000000E-02 0.  1.
    8880023    1    1    2    0    0 -0.57817918855E+03  0.15500095112E+03 -0.14240015496E+03  0.90133483197E+03  0.65864270000E+03 0.  1.
    8880022    1    1    2    0    0  0.57817918855E+03 -0.15500095112E+03  0.21660593087E+04  0.22524477909E+04  0.15294330000E+03 0.  0.
<mgrwt>
<rscale>  0 0.81238971E+03</rscale>
<asrwt>0</asrwt>
<pdfrwt beam="1">  1        2 0.39826475E+00 0.89001499E+03</pdfrwt>
<pdfrwt beam="2">  1       -2 0.86932575E-01 0.89001499E+03</pdfrwt>
<totfact> 0.36354325E+00</totfact>
</mgrwt>
</event>
<event>
 4    1  0.5223852E-007  0.6649421E+03  0.7818608E-02  0.1019582E+00
         -2   -1    0    0    0  501 -0.00000000000E+00  0.00000000000E+00  0.10222922261E+03  0.10222922264E+03  0.25500000000E-02 0.  1.
          2   -1    0    0  501    0  0.00000000000E+00 -0.00000000000E+00 -0.23132525681E+04  0.23132525681E+04  0.25500000000E-02 0. -1.
    8880023    1    1    2    0    0 -0.74742478200E+02 -0.52453704861E+02 -0.10638516088E+04  0.12545629841E+04  0.65864270000E+03 0.  1.
    8880022    1    1    2    0    0  0.74742478200E+02  0.52453704861E+02 -0.11471717367E+04  0.11609188067E+04  0.15294330000E+03 0.  0.
<mgrwt>
<rscale>  0 0.47837752E+03</rscale>
<asrwt>0</asrwt>
<pdfrwt beam="1">  1        2 0.35588497E+00 0.66494213E+03</pdfrwt>
<pdfrwt beam="2">  1       -2 0.15727574E-01 0.66494213E+03</pdfrwt>
<totfact> 0.15010679E+02</totfact>
</mgrwt>
</event>
<event>
 4    1  0.5223852E-007  0.1004653E+04  0.7818608E-02  0.9375495E-01
         -2   -1    0    0    0  501 -0.00000000000E+00  0.00000000000E+00  0.21173984446E+03  0.21173984448E+03  0.25500000000E-02 0.  1.
          2   -1    0    0  501    0  0.00000000000E+00 -0.00000000000E+00 -0.42957652073E+04  0.42957652073E+04  0.25500000000E-02 0. -1.
    8880023    1    1    2    0    0  0.75486521595E+03 -0.75472657634E+02 -0.30808081031E+04  0.32404793458E+04  0.65864270000E+03 0.  0.
    8880022    1    1    2    0    0 -0.75486521595E+03  0.75472657634E+02 -0.10032172597E+04  0.12670257059E+04  0.15294330000E+03 0.  0.
<mgrwt>
<rscale>  0 0.94120066E+03</rscale>
<asrwt>0</asrwt>
<pdfrwt beam="1">  1        2 0.66088689E+00 0.10046531E+04</pdfrwt>
<pdfrwt beam="2">  1       -2 0.32575364E-01 0.10046531E+04</pdfrwt>
<totfact> 0.17906784E+00</totfact>
</mgrwt>
</event>
<event>
 4    1  0.5223852E-007  0.7136894E+03  0.7818608E-02  0.9944547E-01
          2   -1    0    0  501    0  0.00000000000E+00  0.00000000000E+00  0.70461171508E+03  0.70461171509E+03  0.25500000000E-02 0. -1.
         -2   -1    0    0    0  501 -0.00000000000E+00 -0.00000000000E+00 -0.40492935219E+03  0.40492935220E+03  0.25500000000E-02 0.  1.
    8880023    1    1    2    0    0  0.24873019184E+03  0.11694311861E+03  0.64101823543E+02  0.71656238484E+03  0.65864270000E+03 0.  0.
    8880022    1    1    2    0    0 -0.24873019184E+03 -0.11694311861E+03  0.23558053935E+03  0.39297868245E+03  0.15294330000E+03 0.  1.
<mgrwt>
<rscale>  0 0.58150061E+03</rscale>
<asrwt>0</asrwt>
<pdfrwt beam="1">  1        2 0.10840180E+00 0.71368943E+03</pdfrwt>
<pdfrwt beam="2">  1       -2 0.62296824E-01 0.71368943E+03</pdfrwt>
<totfact> 0.98546990E+01</totfact>
</mgrwt>
</event>
<event>
 4    1  0.5223852E-007  0.8426636E+03  0.7818608E-02  0.9625178E-01
          2   -1    0    0  501    0  0.00000000000E+00  0.00000000000E+00  0.10606098245E+04  0.10606098245E+04  0.25500000000E-02 0. -1.
         -2   -1    0    0    0  501 -0.00000000000E+00 -0.00000000000E+00 -0.63964778804E+03  0.63964778804E+03  0.25500000000E-02 0.  1.
    8880023    1    1    2    0    0  0.34541965988E+03  0.39617802357E+03 -0.20647092169E+03  0.86758988904E+03  0.65864270000E+03 0.  1.
    8880022    1    1    2    0    0 -0.34541965988E+03 -0.39617802357E+03  0.62743295815E+03  0.83266772351E+03  0.15294330000E+03 0.  0.
<mgrwt>
<rscale>  0 0.75651910E+03</rscale>
<asrwt>0</asrwt>
<pdfrwt beam="1">  1        2 0.16317074E+00 0.84266362E+03</pdfrwt>
<pdfrwt beam="2">  1       -2 0.98407353E-01 0.84266362E+03</pdfrwt>
<totfact> 0.19931703E+01</totfact>
</mgrwt>
</event>
<event>
 4    1  0.5223852E-007  0.8257368E+03  0.7818608E-02  0.9657685E-01
          2   -1    0    0  501    0  0.00000000000E+00  0.00000000000E+00  0.80577389674E+03  0.80577389675E+03  0.25500000000E-02 0. -1.
         -2   -1    0    0    0  501 -0.00000000000E+00 -0.00000000000E+00 -0.66114270602E+03  0.66114270602E+03  0.25500000000E-02 0.  1.
    8880023    1    1    2    0    0 -0.39674340250E+03 -0.30104098266E+03 -0.19053433312E+03  0.84743409126E+03  0.65864270000E+03 0.  1.
    8880022    1    1    2    0    0  0.39674340250E+03  0.30104098266E+03  0.33516552385E+03  0.61948251151E+03  0.15294330000E+03 0. -1.
<mgrwt>
<rscale>  0 0.73593080E+03</rscale>
<asrwt>0</asrwt>
<pdfrwt beam="1">  1        2 0.12396521E+00 0.82573677E+03</pdfrwt>
<pdfrwt beam="2">  1       -2 0.10171426E+00 0.82573677E+03</pdfrwt>
<totfact> 0.27270074E+01</totfact>
</mgrwt>
</event>
<event>
 4    1  0.5223852E-007  0.7767632E+03  0.7818608E-02  0.9763496E-01
          2   -1    0    0  501    0  0.00000000000E+00  0.00000000000E+00  0.18698281402E+04  0.18698281402E+04  0.25500000000E-02 0. -1.
         -2   -1    0    0    0  501 -0.00000000000E+00 -0.00000000000E+00 -0.30967978419E+03  0.30967978420E+03  0.25500000000E-02 0.  1.
    8880023    1    1    2    0    0  0.19663136948E+03 -0.36178305795E+03  0.27932749984E+03  0.82546043812E+03  0.65864270000E+03 0.  1.
    8880022    1    1    2    0    0 -0.19663136948E+03  0.36178305795E+03  0.12808208562E+04  0.13540474863E+04  0.15294330000E+03 0.  0.
<mgrwt>
<rscale>  0 0.67358899E+03</rscale>
<asrwt>0</asrwt>
<pdfrwt beam="1">  1        2 0.28766587E+00 0.77676321E+03</pdfrwt>
<pdfrwt beam="2">  1       -2 0.47643043E-01 0.77676321E+03</pdfrwt>
<totfact> 0.33808302E+01</totfact>
</mgrwt>
</event>
<event>
 4    1  0.5223852E-007  0.6708344E+03  0.7818608E-02  0.1015072E+00
          2   -1    0    0  501    0  0.00000000000E+00  0.00000000000E+00  0.16263634058E+04  0.16263634058E+04  0.25500000000E-02 0. -1.
         -2   -1    0    0    0  501 -0.00000000000E+00 -0.00000000000E+00 -0.36203641336E+03  0.36203641337E+03  0.25500000000E-02 0.  1.
    8880023    1    1    2    0    0 -0.12182718427E+03 -0.36968321913E+02 -0.37087673543E+02  0.67185878088E+03  0.65864270000E+03 0.  1.
    8880022    1    1    2    0    0  0.12182718427E+03  0.36968321913E+02  0.13014146660E+04  0.13165410383E+04  0.15294330000E+03 0.  0.
<mgrwt>
<rscale>  0 0.49507797E+03</rscale>
<asrwt>0</asrwt>
<pdfrwt beam="1">  1        2 0.25020975E+00 0.67083435E+03</pdfrwt>
<pdfrwt beam="2">  1       -2 0.55697910E-01 0.67083435E+03</pdfrwt>
<totfact> 0.33793066E+01</totfact>
</mgrwt>
</event>
<event>
 4    1  0.5223852E-007  0.7444227E+03  0.7818608E-02  0.9847246E-01
          2   -1    0    0  501    0  0.00000000000E+00  0.00000000000E+00  0.17276347763E+04  0.17276347763E+04  0.25500000000E-02 0. -1.
         -2   -1    0    0    0  501 -0.00000000000E+00 -0.00000000000E+00 -0.32542112669E+03  0.32542112670E+03  0.25500000000E-02 0.  1.
    8880023    1    1    2    0    0 -0.40589508567E+02 -0.34453943205E+03  0.16966530791E+03  0.76351257450E+03  0.65864270000E+03 0.  0.
    8880022    1    1    2    0    0  0.40589508567E+02  0.34453943205E+03  0.12325483417E+04  0.12895433285E+04  0.15294330000E+03 0.  0.
<mgrwt>
<rscale>  0 0.62887509E+03</rscale>
<asrwt>0</asrwt>
<pdfrwt beam="1">  1        2 0.26578997E+00 0.74442269E+03</pdfrwt>
<pdfrwt beam="2">  1       -2 0.50064788E-01 0.74442269E+03</pdfrwt>
<totfact> 0.36699495E+01</totfact>
</mgrwt>
</event>
<event>
 4    1  0.5223852E-007  0.6920703E+03  0.7818608E-02  0.1003184E+00
         -2   -1    0    0    0  501 -0.00000000000E+00  0.00000000000E+00  0.18340273802E+03  0.18340273803E+03  0.25500000000E-02 0.  1.
          2   -1    0    0  501    0  0.00000000000E+00 -0.00000000000E+00 -0.20907220987E+04  0.20907220987E+04  0.25500000000E-02 0. -1.
    8880023    1    1    2    0    0 -0.20042085304E+03 -0.70587244673E+02 -0.52881714474E+03  0.87098154761E+03  0.65864270000E+03 0.  0.
    8880022    1    1    2    0    0  0.20042085304E+03  0.70587244673E+02 -0.13785022160E+04  0.14031432892E+04  0.15294330000E+03 0.  0.
<mgrwt>
<rscale>  0 0.54275999E+03</rscale>
<asrwt>0</asrwt>
<pdfrwt beam="1">  1        2 0.32164954E+00 0.69207029E+03</pdfrwt>
<pdfrwt beam="2">  1       -2 0.28215807E-01 0.69207029E+03</pdfrwt>
<totfact> 0.70833427E+01</totfact>
</mgrwt>
</event>
<event>
 4    1  0.5223852E-007  0.7984368E+03  0.7818608E-02  0.9714186E-01
         -2   -1    0    0    0  501 -0.00000000000E+00  0.00000000000E+00  0.39956296128E+03  0.39956296129E+03  0.25500000000E-02 0.  1.
          2   -1    0    0  501    0  0.00000000000E+00 -0.00000000000E+00 -0.23493702075E+04  0.23493702075E+04  0.25500000000E-02 0. -1.
    8880023    1    1    2    0    0  0.38160483823E+03 -0.24097481582E+03 -0.60802054605E+02  0.80074853139E+03  0.65864270000E+03 0.  0.
    8880022    1    1    2    0    0 -0.38160483823E+03  0.24097481582E+03 -0.18890051916E+04  0.19481846374E+04  0.15294330000E+03 0.  0.
<mgrwt>
<rscale>  0 0.70178395E+03</rscale>
<asrwt>0</asrwt>
<pdfrwt beam="1">  1        2 0.36144156E+00 0.79843680E+03</pdfrwt>
<pdfrwt beam="2">  1       -2 0.61471226E-01 0.79843680E+03</pdfrwt>
<totfact> 0.10835007E+01</totfact>
</mgrwt>
</event>
<event>
 4    1  0.5223852E-007  0.8095060E+03  0.7818608E-02  0.9690607E-01
         -2   -1    0    0    0  501 -0.00000000000E+00  0.00000000000E+00  0.34415880190E+03  0.34415880191E+03  0.25500000000E-02 0.  1.
          2   -1    0    0  501    0  0.00000000000E+00 -0.00000000000E+00 -0.15345210977E+04  0.15345210977E+04  0.25500000000E-02 0. -1.
    8880023    1    1    2    0    0  0.63742913819E+02  0.46629032852E+03 -0.11153785726E+04  0.13781761121E+04  0.65864270000E+03 0. -1.
    8880022    1    1    2    0    0 -0.63742913819E+02 -0.46629032852E+03 -0.74983723215E+02  0.50050378750E+03  0.15294330000E+03 0.  0.
<mgrwt>
<rscale>  0 0.71578825E+03</rscale>
<asrwt>0</asrwt>
<pdfrwt beam="1">  1        2 0.23608017E+00 0.80950604E+03</pdfrwt>
<pdfrwt beam="2">  1       -2 0.52947509E-01 0.80950604E+03</pdfrwt>
<totfact> 0.41505563E+01</totfact>
</mgrwt>
</event>
<event>
 4    1  0.5223852E-007  0.8920323E+03  0.7818608E-02  0.9538945E-01
         -2   -1    0    0    0  501 -0.00000000000E+00  0.00000000000E+00  0.56564360638E+03  0.56564360639E+03  0.25500000000E-02 0.  1.
          2   -1    0    0  501    0  0.00000000000E+00 -0.00000000000E+00 -0.13835953804E+04  0.13835953804E+04  0.25500000000E-02 0. -1.
    8880023    1    1    2    0    0  0.56214450520E+03 -0.21425459910E+03  0.36899309102E+02  0.89279518550E+03  0.65864270000E+03 0.  1.
    8880022    1    1    2    0    0 -0.56214450520E+03  0.21425459910E+03 -0.85485108311E+03  0.10564438013E+04  0.15294330000E+03 0.  0.
<mgrwt>
<rscale>  0 0.81472448E+03</rscale>
<asrwt>0</asrwt>
<pdfrwt beam="1">  1        2 0.21286083E+00 0.89203233E+03</pdfrwt>
<pdfrwt beam="2">  1       -2 0.87022093E-01 0.89203233E+03</pdfrwt>
<totfact> 0.16989746E+01</totfact>
</mgrwt>
</event>
<event>
 4    1  0.5223852E-007  0.8127567E+03  0.7818608E-02  0.9683863E-01
         -2   -1    0    0    0  501 -0.00000000000E+00  0.00000000000E+00  0.28659342174E+03  0.28659342175E+03  0.25500000000E-02 0.  1.
          2   -1    0    0  501    0  0.00000000000E+00 -0.00000000000E+00 -0.20144827682E+04  0.20144827682E+04  0.25500000000E-02 0. -1.
    8880023    1    1    2    0    0  0.66399852434E+02  0.47154457434E+03 -0.45049842855E+03  0.92925898779E+03  0.65864270000E+03 0.  0.
    8880022    1    1    2    0    0 -0.66399852434E+02 -0.47154457434E+03 -0.12773909179E+04  0.13718172021E+04  0.15294330000E+03 0.  0.
<mgrwt>
<rscale>  0 0.71985750E+03</rscale>
<asrwt>0</asrwt>
<pdfrwt beam="1">  1        2 0.30992042E+00 0.81275669E+03</pdfrwt>
<pdfrwt beam="2">  1       -2 0.44091297E-01 0.81275669E+03</pdfrwt>
<totfact> 0.32773683E+01</totfact>
</mgrwt>
</event>
<event>
 4    1  0.5223852E-007  0.7284830E+03  0.7818608E-02  0.9894862E-01
          2   -1    0    0  501    0  0.00000000000E+00  0.00000000000E+00  0.19892514376E+04  0.19892514376E+04  0.25500000000E-02 0. -1.
         -2   -1    0    0    0  501 -0.00000000000E+00 -0.00000000000E+00 -0.36104857944E+03  0.36104857945E+03  0.25500000000E-02 0.  1.
    8880023    1    1    2    0    0 -0.63838973539E+02 -0.30463408680E+03  0.45341264530E+02  0.72989271671E+03  0.65864270000E+03 0.  0.
    8880022    1    1    2    0    0  0.63838973539E+02  0.30463408680E+03  0.15828615936E+04  0.16204073003E+04  0.15294330000E+03 0. -1.
<mgrwt>
<rscale>  0 0.60510926E+03</rscale>
<asrwt>0</asrwt>
<pdfrwt beam="1">  1        2 0.30603868E+00 0.72848305E+03</pdfrwt>
<pdfrwt beam="2">  1       -2 0.55545936E-01 0.72848305E+03</pdfrwt>
<totfact> 0.21387145E+01</totfact>
</mgrwt>
</event>
<event>
 4    1  0.5223852E-007  0.7625452E+03  0.7818608E-02  0.9798562E-01
          2   -1    0    0  501    0  0.00000000000E+00  0.00000000000E+00  0.83958362521E+03  0.83958362521E+03  0.25500000000E-02 0. -1.
         -2   -1    0    0    0  501 -0.00000000000E+00 -0.00000000000E+00 -0.75860021320E+03  0.75860021320E+03  0.25500000000E-02 0.  1.
    8880023    1    1    2    0    0 -0.29287526898E+03  0.24877498450E+03 -0.48013351673E+03  0.90111226617E+03  0.65864270000E+03 0.  0.
    8880022    1    1    2    0    0  0.29287526898E+03 -0.24877498450E+03  0.56111692874E+03  0.69707157224E+03  0.15294330000E+03 0.  0.
<mgrwt>
<rscale>  0 0.65439752E+03</rscale>
<asrwt>0</asrwt>
<pdfrwt beam="1">  1        2 0.12916671E+00 0.76254516E+03</pdfrwt>
<pdfrwt beam="2">  1       -2 0.11670772E+00 0.76254516E+03</pdfrwt>
<totfact> 0.18609686E+01</totfact>
</mgrwt>
</event>
<event>
 4    1  0.5223852E-007  0.9165531E+03  0.7818608E-02  0.9499964E-01
          2   -1    0    0  501    0  0.00000000000E+00  0.00000000000E+00  0.29337355237E+04  0.29337355237E+04  0.25500000000E-02 0. -1.
         -2   -1    0    0    0  501 -0.00000000000E+00 -0.00000000000E+00 -0.38273182267E+03  0.38273182268E+03  0.25500000000E-02 0.  1.
    8880023    1    1    2    0    0  0.29600428488E+03  0.56448279451E+03  0.28843902342E+03  0.96086764878E+03  0.65864270000E+03 0.  1.
    8880022    1    1    2    0    0 -0.29600428488E+03 -0.56448279451E+03  0.22625646776E+04  0.23555996976E+04  0.15294330000E+03 0. -1.
<mgrwt>
<rscale>  0 0.84286438E+03</rscale>
<asrwt>0</asrwt>
<pdfrwt beam="1">  1        2 0.45134391E+00 0.91655309E+03</pdfrwt>
<pdfrwt beam="2">  1       -2 0.58881821E-01 0.91655309E+03</pdfrwt>
<totfact> 0.53348597E+00</totfact>
</mgrwt>
</event>
<event>
 4    1  0.5223852E-007  0.7545730E+03  0.7818608E-02  0.9819366E-01
          2   -1    0    0  501    0  0.00000000000E+00  0.00000000000E+00  0.12834726219E+04  0.12834726219E+04  0.25500000000E-02 0. -1.
         -2   -1    0    0    0  501 -0.00000000000E+00 -0.00000000000E+00 -0.67352799198E+03  0.67352799199E+03  0.25500000000E-02 0.  1.
    8880023    1    1    2    0    0 -0.11890823960E+03 -0.34846947245E+03 -0.41222113679E+03  0.85982941015E+03  0.65864270000E+03 0.  1.
    8880022    1    1    2    0    0  0.11890823960E+03  0.34846947245E+03  0.10221657668E+04  0.10971712038E+04  0.15294330000E+03 0.  0.
<mgrwt>
<rscale>  0 0.64333551E+03</rscale>
<asrwt>0</asrwt>
<pdfrwt beam="1">  1        2 0.19745733E+00 0.75457296E+03</pdfrwt>
<pdfrwt beam="2">  1       -2 0.10361969E+00 0.75457296E+03</pdfrwt>
<totfact> 0.13085323E+01</totfact>
</mgrwt>
</event>
<event>
 4    1  0.5223852E-007  0.8944156E+03  0.7818608E-02  0.9535056E-01
          2   -1    0    0  501    0  0.00000000000E+00  0.00000000000E+00  0.29225490262E+04  0.29225490262E+04  0.25500000000E-02 0. -1.
         -2   -1    0    0    0  501 -0.00000000000E+00 -0.00000000000E+00 -0.20195190376E+03  0.20195190377E+03  0.25500000000E-02 0.  1.
    8880023    1    1    2    0    0  0.60427594764E+03 -0.31932853983E+02  0.18311282814E+04  0.20378935491E+04  0.65864270000E+03 0.  0.
    8880022    1    1    2    0    0 -0.60427594764E+03  0.31932853983E+02  0.88946884101E+03  0.10866073809E+04  0.15294330000E+03 0.  0.
<mgrwt>
<rscale>  0 0.81747869E+03</rscale>
<asrwt>0</asrwt>
<pdfrwt beam="1">  1        2 0.44962294E+00 0.89441564E+03</pdfrwt>
<pdfrwt beam="2">  1       -2 0.31069523E-01 0.89441564E+03</pdfrwt>
<totfact> 0.19326279E+01</totfact>
</mgrwt>
</event>
<event>
 4    1  0.5223852E-007  0.9446222E+03  0.7818608E-02  0.9457894E-01
         -2   -1    0    0    0  501 -0.00000000000E+00  0.00000000000E+00  0.10281274136E+04  0.10281274136E+04  0.25500000000E-02 0.  1.
          2   -1    0    0  501    0  0.00000000000E+00 -0.00000000000E+00 -0.10781168268E+04  0.10781168268E+04  0.25500000000E-02 0. -1.
    8880023    1    1    2    0    0 -0.54453263321E+03  0.40247384650E+03  0.62925855138E+03  0.11350231348E+04  0.65864270000E+03 0.  1.
    8880022    1    1    2    0    0  0.54453263321E+03 -0.40247384650E+03 -0.67924796459E+03  0.97122110570E+03  0.15294330000E+03 0.  0.
<mgrwt>
<rscale>  0 0.87460592E+03</rscale>
<asrwt>0</asrwt>
<pdfrwt beam="1">  1        2 0.16586413E+00 0.94462225E+03</pdfrwt>
<pdfrwt beam="2">  1       -2 0.15817345E+00 0.94462225E+03</pdfrwt>
<totfact> 0.58228847E+00</totfact>
</mgrwt>
</event>
<event>
 4    1  0.5223852E-007  0.6949205E+03  0.7818608E-02  0.1001896E+00
         -2   -1    0    0    0  501 -0.00000000000E+00  0.00000000000E+00  0.17389158070E+03  0.17389158072E+03  0.25500000000E-02 0.  1.
          2   -1    0    0  501    0  0.00000000000E+00 -0.00000000000E+00 -0.15829004124E+04  0.15829004124E+04  0.25500000000E-02 0. -1.
    8880023    1    1    2    0    0  0.15865874439E+03  0.15469870301E+03 -0.65035406870E+03  0.95177460926E+03  0.65864270000E+03 0.  1.
    8880022    1    1    2    0    0 -0.15865874439E+03 -0.15469870301E+03 -0.75865476299E+03  0.80501738385E+03  0.15294330000E+03 0.  0.
<mgrwt>
<rscale>  0 0.54826503E+03</rscale>
<asrwt>0</asrwt>
<pdfrwt beam="1">  1        2 0.24352313E+00 0.69492049E+03</pdfrwt>
<pdfrwt beam="2">  1       -2 0.26752552E-01 0.69492049E+03</pdfrwt>
<totfact> 0.14765602E+02</totfact>
</mgrwt>
</event>
<event>
 4    1  0.5223852E-007  0.6669819E+03  0.7818608E-02  0.1017926E+00
         -2   -1    0    0    0  501 -0.00000000000E+00  0.00000000000E+00  0.52609665095E+03  0.52609665096E+03  0.25500000000E-02 0.  1.
          2   -1    0    0  501    0  0.00000000000E+00 -0.00000000000E+00 -0.17201503845E+04  0.17201503845E+04  0.25500000000E-02 0. -1.
    8880023    1    1    2    0    0  0.36409153462E+02 -0.98635864522E+02  0.30665898353E+03  0.73410121827E+03  0.65864270000E+03 0.  1.
    8880022    1    1    2    0    0 -0.36409153462E+02  0.98635864522E+02 -0.15007127171E+04  0.15121458172E+04  0.15294330000E+03 0.  0.
<mgrwt>
<rscale>  0 0.48442705E+03</rscale>
<asrwt>0</asrwt>
<pdfrwt beam="1">  1        2 0.26463852E+00 0.66698191E+03</pdfrwt>
<pdfrwt beam="2">  1       -2 0.80937947E-01 0.66698191E+03</pdfrwt>
<totfact> 0.13399533E+01</totfact>
</mgrwt>
</event>
<event>
 4    1  0.5223852E-007  0.6628464E+03  0.7818608E-02  0.1021413E+00
         -2   -1    0    0    0  501 -0.00000000000E+00  0.00000000000E+00  0.60092621595E+03  0.60092621596E+03  0.25500000000E-02 0.  1.
          2   -1    0    0  501    0  0.00000000000E+00 -0.00000000000E+00 -0.37724216210E+03  0.37724216211E+03  0.25500000000E-02 0. -1.
    8880023    1    1    2    0    0  0.37544018166E+02  0.64385957309E+02  0.36526709697E+03  0.75682584733E+03  0.65864270000E+03 0.  1.
    8880022    1    1    2    0    0 -0.37544018166E+02 -0.64385957309E+02 -0.14158304312E+03  0.22134253074E+03  0.15294330000E+03 0.  0.
<mgrwt>
<rscale>  0 0.47180186E+03</rscale>
<asrwt>0</asrwt>
<pdfrwt beam="1">  1        2 0.58037256E-01 0.66284637E+03</pdfrwt>
<pdfrwt beam="2">  1       -2 0.92450186E-01 0.66284637E+03</pdfrwt>
<totfact> 0.85644231E+01</totfact>
</mgrwt>
</event>
<event>
 4    1  0.5223852E-007  0.7919831E+03  0.7818608E-02  0.9728406E-01
         -2   -1    0    0    0  501 -0.00000000000E+00  0.00000000000E+00  0.17105777963E+03  0.17105777965E+03  0.25500000000E-02 0.  1.
          2   -1    0    0  501    0  0.00000000000E+00 -0.00000000000E+00 -0.31090862914E+04  0.31090862914E+04  0.25500000000E-02 0. -1.
    8880023    1    1    2    0    0 -0.36693883826E+03 -0.24245199990E+03 -0.94281082219E+03  0.12313121196E+04  0.65864270000E+03 0.  1.
    8880022    1    1    2    0    0  0.36693883826E+03  0.24245199990E+03 -0.19952176896E+04  0.20488319514E+04  0.15294330000E+03 0.  0.
<mgrwt>
<rscale>  0 0.69350413E+03</rscale>
<asrwt>0</asrwt>
<pdfrwt beam="1">  1        2 0.47832093E+00 0.79198314E+03</pdfrwt>
<pdfrwt beam="2">  1       -2 0.26316584E-01 0.79198314E+03</pdfrwt>
<totfact> 0.20459430E+01</totfact>
</mgrwt>
</event>
<event>
 4    1  0.5223852E-007  0.1332822E+04  0.7818608E-02  0.9037722E-01
          2   -1    0    0  501    0  0.00000000000E+00  0.00000000000E+00  0.28969742468E+04  0.28969742468E+04  0.25500000000E-02 0. -1.
         -2   -1    0    0    0  501 -0.00000000000E+00 -0.00000000000E+00 -0.66162299402E+03  0.66162299402E+03  0.25500000000E-02 0.  1.
    8880023    1    1    2    0    0 -0.11578433328E+04  0.44759445705E+02  0.19389188692E+04  0.23528325862E+04  0.65864270000E+03 0. -1.
    8880022    1    1    2    0    0  0.11578433328E+04 -0.44759445705E+02  0.29643238361E+03  0.12057646546E+04  0.15294330000E+03 0.  0.
<mgrwt>
<rscale>  0 0.12897642E+04</rscale>
<asrwt>0</asrwt>
<pdfrwt beam="1">  1        2 0.44568833E+00 0.13328221E+04</pdfrwt>
<pdfrwt beam="2">  1       -2 0.10178816E+00 0.13328221E+04</pdfrwt>
<totfact> 0.15543028E+00</totfact>
</mgrwt>
</event>
<event>
 4    1  0.5223852E-007  0.6732136E+03  0.7818608E-02  0.1013457E+00
          2   -1    0    0  501    0  0.00000000000E+00  0.00000000000E+00  0.64739752161E+03  0.64739752161E+03  0.25500000000E-02 0. -1.
         -2   -1    0    0    0  501 -0.00000000000E+00 -0.00000000000E+00 -0.10530905589E+04  0.10530905589E+04  0.25500000000E-02 0.  1.
    8880023    1    1    2    0    0 -0.12014901524E+03  0.70502129706E+02 -0.92352912103E+03  0.11428572001E+04  0.65864270000E+03 0.  0.
    8880022    1    1    2    0    0  0.12014901524E+03 -0.70502129706E+02  0.51783608374E+03  0.55763088042E+03  0.15294330000E+03 0.  0.
<mgrwt>
<rscale>  0 0.50123637E+03</rscale>
<asrwt>0</asrwt>
<pdfrwt beam="1">  1        2 0.99599619E-01 0.67321359E+03</pdfrwt>
<pdfrwt beam="2">  1       -2 0.16201393E+00 0.67321359E+03</pdfrwt>
<totfact> 0.11269888E+01</totfact>
</mgrwt>
</event>
<event>
 4    1  0.5223852E-007  0.6953690E+03  0.7818608E-02  0.1001698E+00
         -2   -1    0    0    0  501 -0.00000000000E+00  0.00000000000E+00  0.13593421433E+03  0.13593421435E+03  0.25500000000E-02 0.  1.
          2   -1    0    0  501    0  0.00000000000E+00 -0.00000000000E+00 -0.35459797184E+04  0.35459797184E+04  0.25500000000E-02 0. -1.
    8880023    1    1    2    0    0 -0.18311173792E+03  0.12727090496E+03 -0.80870089818E+03  0.10665529245E+04  0.65864270000E+03 0.  1.
    8880022    1    1    2    0    0  0.18311173792E+03 -0.12727090496E+03 -0.26013446059E+04  0.26153610082E+04  0.15294330000E+03 0.  0.
<mgrwt>
<rscale>  0 0.54911788E+03</rscale>
<asrwt>0</asrwt>
<pdfrwt beam="1">  1        2 0.54553527E+00 0.69536897E+03</pdfrwt>
<pdfrwt beam="2">  1       -2 0.20912959E-01 0.69536897E+03</pdfrwt>
<totfact> 0.16233445E+01</totfact>
</mgrwt>
</event>
<event>
 4    1  0.5223852E-007  0.1069364E+04  0.7818608E-02  0.9295957E-01
         -2   -1    0    0    0  501 -0.00000000000E+00  0.00000000000E+00  0.10313814030E+04  0.10313814030E+04  0.25500000000E-02 0.  1.
          2   -1    0    0  501    0  0.00000000000E+00 -0.00000000000E+00 -0.10772219963E+04  0.10772219963E+04  0.25500000000E-02 0. -1.
    8880023    1    1    2    0    0 -0.16039514594E+03 -0.82704510822E+03  0.40187912464E+03  0.11423866469E+04  0.65864270000E+03 0.  1.
    8880022    1    1    2    0    0  0.16039514594E+03  0.82704510822E+03 -0.44771971790E+03  0.96621675243E+03  0.15294330000E+03 0.  0.
<mgrwt>
<rscale>  0 0.10115593E+04</rscale>
<asrwt>0</asrwt>
<pdfrwt beam="1">  1        2 0.16572646E+00 0.10693645E+04</pdfrwt>
<pdfrwt beam="2">  1       -2 0.15867406E+00 0.10693645E+04</pdfrwt>
<totfact> 0.57092263E+00</totfact>
</mgrwt>
</event>
<event>
 4    1  0.5223852E-007  0.7856563E+03  0.7818608E-02  0.9742714E-01
          2   -1    0    0  501    0  0.00000000000E+00  0.00000000000E+00  0.20685447957E+04  0.20685447957E+04  0.25500000000E-02 0. -1.
         -2   -1    0    0    0  501 -0.00000000000E+00 -0.00000000000E+00 -0.21200621313E+03  0.21200621315E+03  0.25500000000E-02 0.  1.
    8880023    1    1    2    0    0  0.31215605332E+03  0.29326473453E+03  0.75849381598E+03  0.10920479299E+04  0.65864270000E+03 0.  1.
    8880022    1    1    2    0    0 -0.31215605332E+03 -0.29326473453E+03  0.10980447666E+04  0.11885030789E+04  0.15294330000E+03 0.  0.
<mgrwt>
<rscale>  0 0.68529576E+03</rscale>
<asrwt>0</asrwt>
<pdfrwt beam="1">  1        2 0.31823765E+00 0.78565629E+03</pdfrwt>
<pdfrwt beam="2">  1       -2 0.32616342E-01 0.78565629E+03</pdfrwt>
<totfact> 0.55018249E+01</totfact>
</mgrwt>
</event>
<event>
 4    1  0.5223852E-007  0.7156982E+03  0.7818608E-02  0.9937420E-01
          2   -1    0    0  501    0  0.00000000000E+00  0.00000000000E+00  0.27174523261E+03  0.27174523262E+03  0.25500000000E-02 0. -1.
         -2   -1    0    0    0  501 -0.00000000000E+00 -0.00000000000E+00 -0.98524488728E+03  0.98524488728E+03  0.25500000000E-02 0.  1.
    8880023    1    1    2    0    0  0.27024158165E+03 -0.73370407093E+02 -0.50136193210E+03  0.87383506585E+03  0.65864270000E+03 0.  0.
    8880022    1    1    2    0    0 -0.27024158165E+03  0.73370407093E+02 -0.21213772257E+03  0.38315505405E+03  0.15294330000E+03 0.  1.
<mgrwt>
<rscale>  0 0.58481539E+03</rscale>
<asrwt>0</asrwt>
<pdfrwt beam="1">  1        2 0.41806960E-01 0.71569822E+03</pdfrwt>
<pdfrwt beam="2">  1       -2 0.15157613E+00 0.71569822E+03</pdfrwt>
<totfact> 0.36221960E+01</totfact>
</mgrwt>
</event>
<event>
 4    1  0.5223852E-007  0.9604413E+03  0.7818608E-02  0.9435248E-01
         -2   -1    0    0    0  501 -0.00000000000E+00  0.00000000000E+00  0.59419536375E+03  0.59419536375E+03  0.25500000000E-02 0.  1.
          2   -1    0    0  501    0  0.00000000000E+00 -0.00000000000E+00 -0.27027130437E+04  0.27027130437E+04  0.25500000000E-02 0. -1.
    8880023    1    1    2    0    0 -0.69590325544E+03  0.65999333252E+02  0.10917991816E+03  0.96662697754E+03  0.65864270000E+03 0.  0.
    8880022    1    1    2    0    0  0.69590325544E+03 -0.65999333252E+02 -0.22176975981E+04  0.23302814299E+04  0.15294330000E+03 0.  0.
<mgrwt>
<rscale>  0 0.89230828E+03</rscale>
<asrwt>0</asrwt>
<pdfrwt beam="1">  1        2 0.41580200E+00 0.96044128E+03</pdfrwt>
<pdfrwt beam="2">  1       -2 0.91414673E-01 0.96044128E+03</pdfrwt>
<totfact> 0.27491000E+00</totfact>
</mgrwt>
</event>
<event>
 4    1  0.5223852E-007  0.7407960E+03  0.7818608E-02  0.9857634E-01
          2   -1    0    0  501    0  0.00000000000E+00  0.00000000000E+00  0.12071600079E+04  0.12071600079E+04  0.25500000000E-02 0. -1.
         -2   -1    0    0    0  501 -0.00000000000E+00 -0.00000000000E+00 -0.11863379066E+04  0.11863379066E+04  0.25500000000E-02 0.  1.
    8880023    1    1    2    0    0  0.10196859361E+02 -0.33891672612E+03 -0.10357262241E+04  0.12733842863E+04  0.65864270000E+03 0.  1.
    8880022    1    1    2    0    0 -0.10196859361E+02  0.33891672612E+03  0.10565483254E+04  0.11201136282E+04  0.15294330000E+03 0.  0.
<mgrwt>
<rscale>  0 0.62359176E+03</rscale>
<asrwt>0</asrwt>
<pdfrwt beam="1">  1        2 0.18571692E+00 0.74079601E+03</pdfrwt>
<pdfrwt beam="2">  1       -2 0.18251352E+00 0.74079601E+03</pdfrwt>
<totfact> 0.33532286E+00</totfact>
</mgrwt>
</event>
<event>
 4    1  0.5223852E-007  0.6867134E+03  0.7818608E-02  0.1005755E+00
         -2   -1    0    0    0  501 -0.00000000000E+00  0.00000000000E+00  0.37752038664E+03  0.37752038665E+03  0.25500000000E-02 0.  1.
          2   -1    0    0  501    0  0.00000000000E+00 -0.00000000000E+00 -0.12062585539E+04  0.12062585539E+04  0.25500000000E-02 0. -1.
    8880023    1    1    2    0    0  0.48204756177E+00  0.19433173397E+03  0.32754619423E+02  0.68749409202E+03  0.65864270000E+03 0.  0.
    8880022    1    1    2    0    0 -0.48204756177E+00 -0.19433173397E+03 -0.86149278669E+03  0.89628484854E+03  0.15294330000E+03 0.  0.
<mgrwt>
<rscale>  0 0.53197000E+03</rscale>
<asrwt>0</asrwt>
<pdfrwt beam="1">  1        2 0.18557824E+00 0.68671338E+03</pdfrwt>
<pdfrwt beam="2">  1       -2 0.58080060E-01 0.68671338E+03</pdfrwt>
<totfact> 0.53336111E+01</totfact>
</mgrwt>
</event>
<event>
 4    1  0.5223852E-007  0.7536463E+03  0.7818608E-02  0.9821843E-01
          2   -1    0    0  501    0  0.00000000000E+00  0.00000000000E+00  0.28766235884E+04  0.28766235884E+04  0.25500000000E-02 0. -1.
         -2   -1    0    0    0  501 -0.00000000000E+00 -0.00000000000E+00 -0.15948574504E+03  0.15948574506E+03  0.25500000000E-02 0.  1.
    8880023    1    1    2    0    0 -0.24884630325E+03 -0.26878987638E+03  0.24353998640E+04  0.25493440694E+04  0.65864270000E+03 0. -1.
    8880022    1    1    2    0    0  0.24884630325E+03  0.26878987638E+03  0.28173797936E+03  0.48676526408E+03  0.15294330000E+03 0.  0.
<mgrwt>
<rscale>  0 0.64203371E+03</rscale>
<asrwt>0</asrwt>
<pdfrwt beam="1">  1        2 0.44255745E+00 0.75364626E+03</pdfrwt>
<pdfrwt beam="2">  1       -2 0.24536270E-01 0.75364626E+03</pdfrwt>
<totfact> 0.32411893E+01</totfact>
</mgrwt>
</event>
<event>
 4    1  0.5223852E-007  0.1133939E+04  0.7818608E-02  0.9224178E-01
          2   -1    0    0  501    0  0.00000000000E+00  0.00000000000E+00  0.18340573740E+04  0.18340573740E+04  0.25500000000E-02 0. -1.
         -2   -1    0    0    0  501 -0.00000000000E+00 -0.00000000000E+00 -0.77146181642E+03  0.77146181643E+03  0.25500000000E-02 0.  1.
    8880023    1    1    2    0    0  0.90047485235E+03 -0.20286244432E+03 -0.70419486813E+02  0.11361237791E+04  0.65864270000E+03 0.  0.
    8880022    1    1    2    0    0 -0.90047485235E+03  0.20286244432E+03  0.11330150444E+04  0.14693954114E+04  0.15294330000E+03 0.  0.
<mgrwt>
<rscale>  0 0.10807324E+04</rscale>
<asrwt>0</asrwt>
<pdfrwt beam="1">  1        2 0.28216267E+00 0.11339393E+04</pdfrwt>
<pdfrwt beam="2">  1       -2 0.11868643E+00 0.11339393E+04</pdfrwt>
<totfact> 0.44283673E+00</totfact>
</mgrwt>
</event>
<event>
 4    1  0.5223852E-007  0.6948085E+03  0.7818608E-02  0.1001946E+00
         -2   -1    0    0    0  501 -0.00000000000E+00  0.00000000000E+00  0.16642428651E+03  0.16642428653E+03  0.25500000000E-02 0.  1.
          2   -1    0    0  501    0  0.00000000000E+00 -0.00000000000E+00 -0.17442656810E+04  0.17442656810E+04  0.25500000000E-02 0. -1.
    8880023    1    1    2    0    0  0.14770556757E+03  0.16471709506E+03 -0.14602945181E+04  0.16171638575E+04  0.65864270000E+03 0. -1.
    8880022    1    1    2    0    0 -0.14770556757E+03 -0.16471709506E+03 -0.11754687632E+03  0.29352610998E+03  0.15294330000E+03 0.  0.
<mgrwt>
<rscale>  0 0.54805153E+03</rscale>
<asrwt>0</asrwt>
<pdfrwt beam="1">  1        2 0.26834855E+00 0.69480851E+03</pdfrwt>
<pdfrwt beam="2">  1       -2 0.25603738E-01 0.69480851E+03</pdfrwt>
<totfact> 0.13047348E+02</totfact>
</mgrwt>
</event>
<event>
 4    1  0.5223852E-007  0.9595964E+03  0.7818608E-02  0.9436439E-01
         -2   -1    0    0    0  501 -0.00000000000E+00  0.00000000000E+00  0.10949674365E+04  0.10949674365E+04  0.25500000000E-02 0.  1.
          2   -1    0    0  501    0  0.00000000000E+00 -0.00000000000E+00 -0.14688780196E+04  0.14688780196E+04  0.25500000000E-02 0. -1.
    8880023    1    1    2    0    0 -0.26090249826E+02 -0.69737676712E+03  0.75968280250E+03  0.12239049077E+04  0.65864270000E+03 0.  0.
    8880022    1    1    2    0    0  0.26090249826E+02  0.69737676712E+03 -0.11335933855E+04  0.13399405484E+04  0.15294330000E+03 0.  0.
<mgrwt>
<rscale>  0 0.89136588E+03</rscale>
<asrwt>0</asrwt>
<pdfrwt beam="1">  1        2 0.22598123E+00 0.95959641E+03</pdfrwt>
<pdfrwt beam="2">  1       -2 0.16845653E+00 0.95959641E+03</pdfrwt>
<totfact> 0.28822684E+00</totfact>
</mgrwt>
</event>
<event>
 4    1  0.5223852E-007  0.7510864E+03  0.7818608E-02  0.9828756E-01
          2   -1    0    0  501    0  0.00000000000E+00  0.00000000000E+00  0.39690148669E+04  0.39690148669E+04  0.25500000000E-02 0. -1.
         -2   -1    0    0    0  501 -0.00000000000E+00 -0.00000000000E+00 -0.21410062123E+03  0.21410062124E+03  0.25500000000E-02 0.  1.
    8880023    1    1    2    0    0  0.19853678701E+03  0.30150235047E+03  0.49459581702E+03  0.89930848524E+03  0.65864270000E+03 0.  1.
    8880022    1    1    2    0    0 -0.19853678701E+03 -0.30150235047E+03  0.32603184287E+04  0.32838070029E+04  0.15294330000E+03 0.  0.
<mgrwt>
<rscale>  0 0.63841920E+03</rscale>
<asrwt>0</asrwt>
<pdfrwt beam="1">  1        2 0.61061770E+00 0.75108637E+03</pdfrwt>
<pdfrwt beam="2">  1       -2 0.32938556E-01 0.75108637E+03</pdfrwt>
<totfact> 0.34428300E+00</totfact>
</mgrwt>
</event>
<event>
 4    1  0.5223852E-007  0.1188141E+04  0.7818608E-02  0.9168737E-01
         -2   -1    0    0    0  501 -0.00000000000E+00  0.00000000000E+00  0.82499721329E+03  0.82499721330E+03  0.25500000000E-02 0.  1.
          2   -1    0    0  501    0  0.00000000000E+00 -0.00000000000E+00 -0.18114134315E+04  0.18114134315E+04  0.25500000000E-02 0. -1.
    8880023    1    1    2    0    0  0.67305893599E+03 -0.72447222048E+03  0.58593522601E+02  0.11895846909E+04  0.65864270000E+03 0.  0.
    8880022    1    1    2    0    0 -0.67305893599E+03  0.72447222048E+03 -0.10450097408E+04  0.14468259539E+04  0.15294330000E+03 0.  0.
<mgrwt>
<rscale>  0 0.11382018E+04</rscale>
<asrwt>0</asrwt>
<pdfrwt beam="1">  1        2 0.27867899E+00 0.11881408E+04</pdfrwt>
<pdfrwt beam="2">  1       -2 0.12692265E+00 0.11881408E+04</pdfrwt>
<totfact> 0.38288645E+00</totfact>
</mgrwt>
</event>
<event>
 4    1  0.5223852E-007  0.9582004E+03  0.7818608E-02  0.9438412E-01
         -2   -1    0    0    0  501 -0.00000000000E+00  0.00000000000E+00  0.67503491148E+03  0.67503491148E+03  0.25500000000E-02 0.  1.
          2   -1    0    0  501    0  0.00000000000E+00 -0.00000000000E+00 -0.21120049270E+04  0.21120049270E+04  0.25500000000E-02 0. -1.
    8880023    1    1    2    0    0 -0.68947891857E+03 -0.94639748031E+02  0.22019534923E+03  0.98317549763E+03  0.65864270000E+03 0.  1.
    8880022    1    1    2    0    0  0.68947891857E+03  0.94639748031E+02 -0.16571653647E+04  0.18038643408E+04  0.15294330000E+03 0.  0.
<mgrwt>
<rscale>  0 0.88980803E+03</rscale>
<asrwt>0</asrwt>
<pdfrwt beam="1">  1        2 0.32492383E+00 0.95820043E+03</pdfrwt>
<pdfrwt beam="2">  1       -2 0.10385153E+00 0.95820043E+03</pdfrwt>
<totfact> 0.43981400E+00</totfact>
</mgrwt>
</event>
<event>
 4    1  0.5223852E-007  0.6944778E+03  0.7818608E-02  0.1002093E+00
         -2   -1    0    0    0  501 -0.00000000000E+00  0.00000000000E+00  0.51277625061E+03  0.51277625062E+03  0.25500000000E-02 0.  1.
          2   -1    0    0  501    0  0.00000000000E+00 -0.00000000000E+00 -0.90421452679E+03  0.90421452680E+03  0.25500000000E-02 0. -1.
    8880023    1    1    2    0    0 -0.81314661863E+01  0.22005258796E+03  0.23695786102E+03  0.73379049897E+03  0.65864270000E+03 0.  1.
    8880022    1    1    2    0    0  0.81314661863E+01 -0.22005258796E+03 -0.62839613720E+03  0.68320027845E+03  0.15294330000E+03 0.  0.
<mgrwt>
<rscale>  0 0.54741979E+03</rscale>
<asrwt>0</asrwt>
<pdfrwt beam="1">  1        2 0.13910993E+00 0.69447784E+03</pdfrwt>
<pdfrwt beam="2">  1       -2 0.78888654E-01 0.69447784E+03</pdfrwt>
<totfact> 0.42376423E+01</totfact>
</mgrwt>
</event>
<event>
 4    1  0.5223852E-007  0.7356567E+03  0.7818608E-02  0.9872784E-01
          2   -1    0    0  501    0  0.00000000000E+00  0.00000000000E+00  0.16240504374E+04  0.16240504374E+04  0.25500000000E-02 0. -1.
         -2   -1    0    0    0  501 -0.00000000000E+00 -0.00000000000E+00 -0.41744547834E+03  0.41744547834E+03  0.25500000000E-02 0.  1.
    8880023    1    1    2    0    0  0.30079431610E+03 -0.13001272121E+03 -0.46627198523E+02  0.73713284432E+03  0.65864270000E+03 0.  1.
    8880022    1    1    2    0    0 -0.30079431610E+03  0.13001272121E+03  0.12532321576E+04  0.13043630714E+04  0.15294330000E+03 0.  0.
<mgrwt>
<rscale>  0 0.61598595E+03</rscale>
<asrwt>0</asrwt>
<pdfrwt beam="1">  1        2 0.24985391E+00 0.73565667E+03</pdfrwt>
<pdfrwt beam="2">  1       -2 0.64222381E-01 0.73565667E+03</pdfrwt>
<totfact> 0.24892421E+01</totfact>
</mgrwt>
</event>
<event>
 4    1  0.5223852E-007  0.8088969E+03  0.7818608E-02  0.9691879E-01
         -2   -1    0    0    0  501 -0.00000000000E+00  0.00000000000E+00  0.59285585358E+03  0.59285585358E+03  0.25500000000E-02 0.  1.
          2   -1    0    0  501    0  0.00000000000E+00 -0.00000000000E+00 -0.80076823480E+03  0.80076823480E+03  0.25500000000E-02 0. -1.
    8880023    1    1    2    0    0 -0.31671198728E+03 -0.34669522636E+03 -0.34755575090E+03  0.88040290158E+03  0.65864270000E+03 0. -1.
    8880022    1    1    2    0    0  0.31671198728E+03  0.34669522636E+03  0.13964336968E+03  0.51322118680E+03  0.15294330000E+03 0.  0.
<mgrwt>
<rscale>  0 0.71502367E+03</rscale>
<asrwt>0</asrwt>
<pdfrwt beam="1">  1        2 0.12319511E+00 0.80889695E+03</pdfrwt>
<pdfrwt beam="2">  1       -2 0.91208593E-01 0.80889695E+03</pdfrwt>
<totfact> 0.35572600E+01</totfact>
</mgrwt>
</event>
<event>
 4    1  0.5223852E-007  0.7134998E+03  0.7818608E-02  0.9945227E-01
         -2   -1    0    0    0  501 -0.00000000000E+00  0.00000000000E+00  0.78606909010E+03  0.78606909011E+03  0.25500000000E-02 0.  1.
          2   -1    0    0  501    0  0.00000000000E+00 -0.00000000000E+00 -0.14233619644E+04  0.14233619644E+04  0.25500000000E-02 0. -1.
    8880023    1    1    2    0    0  0.15213224362E+03  0.22831464827E+03  0.60039944577E+03  0.93250281442E+03  0.65864270000E+03 0.  1.
    8880022    1    1    2    0    0 -0.15213224362E+03 -0.22831464827E+03 -0.12376923201E+04  0.12769282401E+04  0.15294330000E+03 0.  0.
<mgrwt>
<rscale>  0 0.58118573E+03</rscale>
<asrwt>0</asrwt>
<pdfrwt beam="1">  1        2 0.21897876E+00 0.71349983E+03</pdfrwt>
<pdfrwt beam="2">  1       -2 0.12093371E+00 0.71349983E+03</pdfrwt>
<totfact> 0.75204946E+00</totfact>
</mgrwt>
</event>
<event>
 4    1  0.5284316E-007  0.7472821E+03  0.7818608E-02  0.9839221E-01
         -2   -1    0    0    0  501 -0.00000000000E+00  0.00000000000E+00  0.67054144387E+03  0.67054144387E+03  0.25500000000E-02 0.  1.
          2   -1    0    0  501    0  0.00000000000E+00 -0.00000000000E+00 -0.42212588947E+04  0.42212588947E+04  0.25500000000E-02 0. -1.
    8880023    1    1    2    0    0  0.10882041466E+03 -0.33582494124E+03  0.45020775314E+03  0.87242048409E+03  0.65864270000E+03 0.  0.
    8880022    1    1    2    0    0 -0.10882041466E+03  0.33582494124E+03 -0.40009252040E+04  0.40193798545E+04  0.15294330000E+03 0.  0.
<mgrwt>
<rscale>  0 0.63299533E+03</rscale>
<asrwt>0</asrwt>
<pdfrwt beam="1">  1        2 0.64942443E+00 0.74728206E+03</pdfrwt>
<pdfrwt beam="2">  1       -2 0.10316022E+00 0.74728206E+03</pdfrwt>
<totfact> 0.19278344E-01</totfact>
</mgrwt>
</event>
<event>
 4    1  0.5223852E-007  0.8890708E+03  0.7818608E-02  0.9543809E-01
         -2   -1    0    0    0  501 -0.00000000000E+00  0.00000000000E+00  0.93915545155E+03  0.93915545155E+03  0.25500000000E-02 0.  1.
          2   -1    0    0  501    0  0.00000000000E+00 -0.00000000000E+00 -0.92135979434E+03  0.92135979434E+03  0.25500000000E-02 0. -1.
    8880023    1    1    2    0    0  0.55095710504E+03 -0.23039731361E+03  0.55055976171E+03  0.10457355838E+04  0.65864270000E+03 0.  1.
    8880022    1    1    2    0    0 -0.55095710504E+03  0.23039731361E+03 -0.53276410451E+03  0.81477966210E+03  0.15294330000E+03 0.  0.
<mgrwt>
<rscale>  0 0.81129584E+03</rscale>
<asrwt>0</asrwt>
<pdfrwt beam="1">  1        2 0.14174766E+00 0.88907078E+03</pdfrwt>
<pdfrwt beam="2">  1       -2 0.14448545E+00 0.88907078E+03</pdfrwt>
<totfact> 0.94001543E+00</totfact>
</mgrwt>
</event>
<event>
 4    1  0.5223852E-007  0.1061011E+04  0.7818608E-02  0.9305760E-01
         -2   -1    0    0    0  501 -0.00000000000E+00  0.00000000000E+00  0.38463889248E+03  0.38463889248E+03  0.25500000000E-02 0.  1.
          2   -1    0    0  501    0  0.00000000000E+00 -0.00000000000E+00 -0.26933653949E+04  0.26933653949E+04  0.25500000000E-02 0. -1.
    8880023    1    1    2    0    0 -0.47603222850E+03 -0.68214946578E+03 -0.73282360246E+03  0.12894864151E+04  0.65864270000E+03 0.  0.
    8880022    1    1    2    0    0  0.47603222850E+03  0.68214946578E+03 -0.15759029000E+04  0.17885178723E+04  0.15294330000E+03 0.  0.
<mgrwt>
<rscale>  0 0.10025430E+04</rscale>
<asrwt>0</asrwt>
<pdfrwt beam="1">  1        2 0.41436389E+00 0.10610112E+04</pdfrwt>
<pdfrwt beam="2">  1       -2 0.59175216E-01 0.10610112E+04</pdfrwt>
<totfact> 0.72027213E+00</totfact>
</mgrwt>
</event>
<event>
 4    1  0.5223852E-007  0.7301554E+03  0.7818608E-02  0.9889611E-01
         -2   -1    0    0    0  501 -0.00000000000E+00  0.00000000000E+00  0.10317058734E+04  0.10317058734E+04  0.25500000000E-02 0.  1.
          2   -1    0    0  501    0  0.00000000000E+00 -0.00000000000E+00 -0.51596573491E+03  0.51596573491E+03  0.25500000000E-02 0. -1.
    8880023    1    1    2    0    0 -0.30685355081E+03  0.71816577576E+02 -0.19460989564E+03  0.75564537992E+03  0.65864270000E+03 0. -1.
    8880022    1    1    2    0    0  0.30685355081E+03 -0.71816577576E+02  0.71035003411E+03  0.79202622838E+03  0.15294330000E+03 0.  0.
<mgrwt>
<rscale>  0 0.60767414E+03</rscale>
<asrwt>0</asrwt>
<pdfrwt beam="1">  1        2 0.79379344E-01 0.73015541E+03</pdfrwt>
<pdfrwt beam="2">  1       -2 0.15872398E+00 0.73015541E+03</pdfrwt>
<totfact> 0.15531870E+01</totfact>
</mgrwt>
</event>
<event>
 4    1  0.5223852E-007  0.9451322E+03  0.7818608E-02  0.9457153E-01
          2   -1    0    0  501    0  0.00000000000E+00  0.00000000000E+00  0.13423681804E+04  0.13423681804E+04  0.25500000000E-02 0. -1.
         -2   -1    0    0    0  501 -0.00000000000E+00 -0.00000000000E+00 -0.10854297449E+04  0.10854297449E+04  0.25500000000E-02 0.  1.
    8880023    1    1    2    0    0  0.10502393530E+03  0.66965268528E+03 -0.74848535096E+03  0.12056140646E+04  0.65864270000E+03 0.  0.
    8880022    1    1    2    0    0 -0.10502393530E+03 -0.66965268528E+03  0.10054237864E+04  0.12221838607E+04  0.15294330000E+03 0.  0.
<mgrwt>
<rscale>  0 0.87517859E+03</rscale>
<asrwt>0</asrwt>
<pdfrwt beam="1">  1        2 0.20651818E+00 0.94513224E+03</pdfrwt>
<pdfrwt beam="2">  1       -2 0.16698919E+00 0.94513224E+03</pdfrwt>
<totfact> 0.34920838E+00</totfact>
</mgrwt>
</event>
<event>
 4    1  0.5223852E-007  0.6787370E+03  0.7818608E-02  0.1010047E+00
         -2   -1    0    0    0  501 -0.00000000000E+00  0.00000000000E+00  0.97016693127E+02  0.97016693160E+02  0.25500000000E-02 0.  1.
          2   -1    0    0  501    0  0.00000000000E+00 -0.00000000000E+00 -0.21083697590E+04  0.21083697590E+04  0.25500000000E-02 0. -1.
    8880023    1    1    2    0    0 -0.46798277927E+02 -0.15711015529E+03 -0.14534403703E+04  0.16041112168E+04  0.65864270000E+03 0.  1.
    8880022    1    1    2    0    0  0.46798277927E+02  0.15711015529E+03 -0.55791269553E+03  0.60127523528E+03  0.15294330000E+03 0.  1.
<mgrwt>
<rscale>  0 0.51455844E+03</rscale>
<asrwt>0</asrwt>
<pdfrwt beam="1">  1        2 0.32436454E+00 0.67873698E+03</pdfrwt>
<pdfrwt beam="2">  1       -2 0.14925647E-01 0.67873698E+03</pdfrwt>
<totfact> 0.21226033E+02</totfact>
</mgrwt>
</event>
<event>
 4    1  0.5223852E-007  0.7795990E+03  0.7818608E-02  0.9756780E-01
         -2   -1    0    0    0  501 -0.00000000000E+00  0.00000000000E+00  0.80181998394E+03  0.80181998394E+03  0.25500000000E-02 0.  1.
          2   -1    0    0  501    0  0.00000000000E+00 -0.00000000000E+00 -0.22679216170E+04  0.22679216170E+04  0.25500000000E-02 0. -1.
    8880023    1    1    2    0    0 -0.82083445100E+02  0.40893352409E+03  0.58271835531E+03  0.97331146452E+03  0.65864270000E+03 0.  1.
    8880022    1    1    2    0    0  0.82083445100E+02 -0.40893352409E+03 -0.20488199883E+04  0.20964301364E+04  0.15294330000E+03 0.  0.
<mgrwt>
<rscale>  0 0.67734467E+03</rscale>
<asrwt>0</asrwt>
<pdfrwt beam="1">  1        2 0.34891102E+00 0.77959895E+03</pdfrwt>
<pdfrwt beam="2">  1       -2 0.12335692E+00 0.77959895E+03</pdfrwt>
<totfact> 0.24328768E+00</totfact>
</mgrwt>
</event>
<event>
 4    1  0.5223852E-007  0.9777364E+03  0.7818608E-02  0.9411283E-01
         -2   -1    0    0    0  501 -0.00000000000E+00  0.00000000000E+00  0.74092474087E+03  0.74092474087E+03  0.25500000000E-02 0.  1.
          2   -1    0    0  501    0  0.00000000000E+00 -0.00000000000E+00 -0.16333249320E+04  0.16333249320E+04  0.25500000000E-02 0. -1.
    8880023    1    1    2    0    0  0.13700994303E+03  0.70949744131E+03  0.25429349287E+03  0.10102641885E+04  0.65864270000E+03 0.  0.
    8880022    1    1    2    0    0 -0.13700994303E+03 -0.70949744131E+03 -0.11466936840E+04  0.13639854844E+04  0.15294330000E+03 0.  0.
<mgrwt>
<rscale>  0 0.91152938E+03</rscale>
<asrwt>0</asrwt>
<pdfrwt beam="1">  1        2 0.25128076E+00 0.97773644E+03</pdfrwt>
<pdfrwt beam="2">  1       -2 0.11398842E+00 0.97773644E+03</pdfrwt>
<totfact> 0.64235346E+00</totfact>
</mgrwt>
</event>
<event>
 4    1  0.5223852E-007  0.6742084E+03  0.7818608E-02  0.1012810E+00
          2   -1    0    0  501    0  0.00000000000E+00  0.00000000000E+00  0.73439117505E+03  0.73439117506E+03  0.25500000000E-02 0. -1.
         -2   -1    0    0    0  501 -0.00000000000E+00 -0.00000000000E+00 -0.52812171538E+03  0.52812171539E+03  0.25500000000E-02 0.  1.
    8880023    1    1    2    0    0  0.13462658539E+03  0.51209859640E+02 -0.28211833632E+03  0.73085410936E+03  0.65864270000E+03 0.  1.
    8880022    1    1    2    0    0 -0.13462658539E+03 -0.51209859640E+02  0.48838779599E+03  0.53165878109E+03  0.15294330000E+03 0.  0.
<mgrwt>
<rscale>  0 0.50372989E+03</rscale>
<asrwt>0</asrwt>
<pdfrwt beam="1">  1        2 0.11298326E+00 0.67420841E+03</pdfrwt>
<pdfrwt beam="2">  1       -2 0.81249495E-01 0.67420841E+03</pdfrwt>
<totfact> 0.52428011E+01</totfact>
</mgrwt>
</event>
<event>
 4    1  0.5223852E-007  0.7284819E+03  0.7818608E-02  0.9894866E-01
          2   -1    0    0  501    0  0.00000000000E+00  0.00000000000E+00  0.27054612927E+04  0.27054612927E+04  0.25500000000E-02 0. -1.
         -2   -1    0    0    0  501 -0.00000000000E+00 -0.00000000000E+00 -0.18672014384E+03  0.18672014385E+03  0.25500000000E-02 0.  1.
    8880023    1    1    2    0    0 -0.29866392857E+03  0.87609839795E+02  0.60406220318E+03  0.94634928955E+03  0.65864270000E+03 0.  1.
    8880022    1    1    2    0    0  0.29866392857E+03 -0.87609839795E+02  0.19146789457E+04  0.19458321470E+04  0.15294330000E+03 0.  0.
<mgrwt>
<rscale>  0 0.60510744E+03</rscale>
<asrwt>0</asrwt>
<pdfrwt beam="1">  1        2 0.41622483E+00 0.72848187E+03</pdfrwt>
<pdfrwt beam="2">  1       -2 0.28726175E-01 0.72848187E+03</pdfrwt>
<totfact> 0.30811142E+01</totfact>
</mgrwt>
</event>
<event>
 4    1  0.5223852E-007  0.6811094E+03  0.7818608E-02  0.1008703E+00
          2   -1    0    0  501    0  0.00000000000E+00  0.00000000000E+00  0.19812535646E+04  0.19812535646E+04  0.25500000000E-02 0. -1.
         -2   -1    0    0    0  501 -0.00000000000E+00 -0.00000000000E+00 -0.15221813408E+03  0.15221813410E+03  0.25500000000E-02 0.  1.
    8880023    1    1    2    0    0  0.16002717601E+03  0.67015687529E+02  0.68388400016E+03  0.96519807883E+03  0.65864270000E+03 0.  1.
    8880022    1    1    2    0    0 -0.16002717601E+03 -0.67015687529E+02  0.11451514304E+04  0.11682736199E+04  0.15294330000E+03 0.  0.
<mgrwt>
<rscale>  0 0.51993398E+03</rscale>
<asrwt>0</asrwt>
<pdfrwt beam="1">  1        2 0.30480822E+00 0.68110939E+03</pdfrwt>
<pdfrwt beam="2">  1       -2 0.23418176E-01 0.68110939E+03</pdfrwt>
<totfact> 0.11400268E+02</totfact>
</mgrwt>
</event>
<event>
 4    1  0.5223852E-007  0.7597122E+03  0.7818608E-02  0.9805853E-01
         -2   -1    0    0    0  501 -0.00000000000E+00  0.00000000000E+00  0.22548646669E+03  0.22548646670E+03  0.25500000000E-02 0.  1.
          2   -1    0    0  501    0  0.00000000000E+00 -0.00000000000E+00 -0.21503095724E+04  0.21503095724E+04  0.25500000000E-02 0. -1.
    8880023    1    1    2    0    0 -0.48073579858E+02 -0.37555471402E+03 -0.54013389195E+03  0.93215194030E+03  0.65864270000E+03 0.  0.
    8880022    1    1    2    0    0  0.48073579858E+02  0.37555471402E+03 -0.13846892138E+04  0.14436440988E+04  0.15294330000E+03 0.  0.
<mgrwt>
<rscale>  0 0.65049374E+03</rscale>
<asrwt>0</asrwt>
<pdfrwt beam="1">  1        2 0.33081684E+00 0.75971219E+03</pdfrwt>
<pdfrwt beam="2">  1       -2 0.34690227E-01 0.75971219E+03</pdfrwt>
<totfact> 0.44290692E+01</totfact>
</mgrwt>
</event>
<event>
 4    1  0.5223852E-007  0.1030590E+04  0.7818608E-02  0.9342588E-01
          2   -1    0    0  501    0  0.00000000000E+00  0.00000000000E+00  0.27093007324E+04  0.27093007324E+04  0.25500000000E-02 0. -1.
         -2   -1    0    0    0  501 -0.00000000000E+00 -0.00000000000E+00 -0.43215116037E+03  0.43215116038E+03  0.25500000000E-02 0.  1.
    8880023    1    1    2    0    0 -0.34346267066E+03  0.71437960534E+03  0.41346117404E+03  0.11104346786E+04  0.65864270000E+03 0.  0.
    8880022    1    1    2    0    0  0.34346267066E+03 -0.71437960534E+03  0.18636883980E+04  0.20310172142E+04  0.15294330000E+03 0.  0.
<mgrwt>
<rscale>  0 0.96954954E+03</rscale>
<asrwt>0</asrwt>
<pdfrwt beam="1">  1        2 0.41681549E+00 0.10305897E+04</pdfrwt>
<pdfrwt beam="2">  1       -2 0.66484795E-01 0.10305897E+04</pdfrwt>
<totfact> 0.55138893E+00</totfact>
</mgrwt>
</event>
<event>
 4    1  0.5223852E-007  0.6857594E+03  0.7818608E-02  0.1006237E+00
         -2   -1    0    0    0  501 -0.00000000000E+00  0.00000000000E+00  0.47196395599E+03  0.47196395599E+03  0.25500000000E-02 0.  1.
          2   -1    0    0  501    0  0.00000000000E+00 -0.00000000000E+00 -0.51901595481E+03  0.51901595481E+03  0.25500000000E-02 0. -1.
    8880023    1    1    2    0    0 -0.16549920939E+02  0.19021531837E+03  0.11804508300E+03  0.69584525227E+03  0.65864270000E+03 0.  1.
    8880022    1    1    2    0    0  0.16549920939E+02 -0.19021531837E+03 -0.16509708182E+03  0.29513465853E+03  0.15294330000E+03 0.  0.
<mgrwt>
<rscale>  0 0.52998004E+03</rscale>
<asrwt>0</asrwt>
<pdfrwt beam="1">  1        2 0.79848609E-01 0.68575941E+03</pdfrwt>
<pdfrwt beam="2">  1       -2 0.72609839E-01 0.68575941E+03</pdfrwt>
<totfact> 0.10260896E+02</totfact>
</mgrwt>
</event>
<event>
 4    1  0.5223852E-007  0.7202676E+03  0.7818608E-02  0.9921682E-01
         -2   -1    0    0    0  501 -0.00000000000E+00  0.00000000000E+00  0.25573445827E+03  0.25573445828E+03  0.25500000000E-02 0.  1.
          2   -1    0    0  501    0  0.00000000000E+00 -0.00000000000E+00 -0.16175602706E+04  0.16175602706E+04  0.25500000000E-02 0. -1.
    8880023    1    1    2    0    0 -0.20847651969E+03  0.20374681270E+03 -0.33381453074E+03  0.79386243780E+03  0.65864270000E+03 0.  0.
    8880022    1    1    2    0    0  0.20847651969E+03 -0.20374681270E+03 -0.10280112816E+04  0.10794322911E+04  0.15294330000E+03 0. -1.
<mgrwt>
<rscale>  0 0.59221920E+03</rscale>
<asrwt>0</asrwt>
<pdfrwt beam="1">  1        2 0.24885542E+00 0.72026761E+03</pdfrwt>
<pdfrwt beam="2">  1       -2 0.39343764E-01 0.72026761E+03</pdfrwt>
<totfact> 0.68272993E+01</totfact>
</mgrwt>
</event>
<event>
 4    1  0.5223852E-007  0.8759999E+03  0.7818608E-02  0.9565713E-01
          2   -1    0    0  501    0  0.00000000000E+00  0.00000000000E+00  0.45413474272E+04  0.45413474272E+04  0.25500000000E-02 0. -1.
         -2   -1    0    0    0  501 -0.00000000000E+00 -0.00000000000E+00 -0.15670238260E+03  0.15670238262E+03  0.25500000000E-02 0.  1.
    8880023    1    1    2    0    0 -0.17006187006E+03 -0.55194623673E+03  0.13798322928E+04  0.16344152014E+04  0.65864270000E+03 0.  1.
    8880022    1    1    2    0    0  0.17006187006E+03  0.55194623673E+03  0.30048127518E+04  0.30636346085E+04  0.15294330000E+03 0.  0.
<mgrwt>
<rscale>  0 0.79607704E+03</rscale>
<asrwt>0</asrwt>
<pdfrwt beam="1">  1        2 0.69866871E+00 0.87599994E+03</pdfrwt>
<pdfrwt beam="2">  1       -2 0.24108063E-01 0.87599994E+03</pdfrwt>
<totfact> 0.18937742E+00</totfact>
</mgrwt>
</event>
<event>
 4    1  0.5223852E-007  0.9090995E+03  0.7818608E-02  0.9511579E-01
          2   -1    0    0  501    0  0.00000000000E+00  0.00000000000E+00  0.71979581319E+03  0.71979581319E+03  0.25500000000E-02 0. -1.
         -2   -1    0    0    0  501 -0.00000000000E+00 -0.00000000000E+00 -0.13239538596E+04  0.13239538596E+04  0.25500000000E-02 0.  1.
    8880023    1    1    2    0    0  0.24213951731E+03  0.57794473350E+03  0.27825321211E+03  0.95072957098E+03  0.65864270000E+03 0.  0.
    8880022    1    1    2    0    0 -0.24213951731E+03 -0.57794473350E+03 -0.88241125855E+03  0.10930201019E+04  0.15294330000E+03 0.  0.
<mgrwt>
<rscale>  0 0.83435501E+03</rscale>
<asrwt>0</asrwt>
<pdfrwt beam="1">  1        2 0.11073782E+00 0.90909948E+03</pdfrwt>
<pdfrwt beam="2">  1       -2 0.20368521E+00 0.90909948E+03</pdfrwt>
<totfact> 0.49889221E+00</totfact>
</mgrwt>
</event>
<event>
 4    1  0.5223852E-007  0.6732626E+03  0.7818608E-02  0.1013424E+00
         -2   -1    0    0    0  501 -0.00000000000E+00  0.00000000000E+00  0.95969715677E+03  0.95969715677E+03  0.25500000000E-02 0.  1.
          2   -1    0    0  501    0  0.00000000000E+00 -0.00000000000E+00 -0.49159482633E+03  0.49159482634E+03  0.25500000000E-02 0. -1.
    8880023    1    1    2    0    0  0.13953463572E+03  0.15556748749E+01  0.80896684848E+03  0.10524779821E+04  0.65864270000E+03 0.  1.
    8880022    1    1    2    0    0 -0.13953463572E+03 -0.15556748749E+01 -0.34086451805E+03  0.39881400097E+03  0.15294330000E+03 0.  0.
<mgrwt>
<rscale>  0 0.50136030E+03</rscale>
<asrwt>0</asrwt>
<pdfrwt beam="1">  1        2 0.75629974E-01 0.67326261E+03</pdfrwt>
<pdfrwt beam="2">  1       -2 0.14764571E+00 0.67326261E+03</pdfrwt>
<totfact> 0.20026639E+01</totfact>
</mgrwt>
</event>
<event>
 4    1  0.5223852E-007  0.1313190E+04  0.7818608E-02  0.9054253E-01
          2   -1    0    0  501    0  0.00000000000E+00  0.00000000000E+00  0.17666090425E+04  0.17666090425E+04  0.25500000000E-02 0. -1.
         -2   -1    0    0    0  501 -0.00000000000E+00 -0.00000000000E+00 -0.11523923003E+04  0.11523923003E+04  0.25500000000E-02 0.  1.
    8880023    1    1    2    0    0 -0.28098764202E+03 -0.11007737426E+04  0.10614445021E+04  0.16885293970E+04  0.65864270000E+03 0.  0.
    8880022    1    1    2    0    0  0.28098764202E+03  0.11007737426E+04 -0.44722775980E+03  0.12304719458E+04  0.15294330000E+03 0.  0.
<mgrwt>
<rscale>  0 0.12693226E+04</rscale>
<asrwt>0</asrwt>
<pdfrwt beam="1">  1        2 0.27178600E+00 0.13131897E+04</pdfrwt>
<pdfrwt beam="2">  1       -2 0.17729113E+00 0.13131897E+04</pdfrwt>
<totfact> 0.16354495E+00</totfact>
</mgrwt>
</event>
<event>
 4    1  0.5223852E-007  0.2019212E+04  0.7818608E-02  0.8610083E-01
          2   -1    0    0  501    0  0.00000000000E+00  0.00000000000E+00  0.30099578235E+04  0.30099578235E+04  0.25500000000E-02 0. -1.
         -2   -1    0    0    0  501 -0.00000000000E+00 -0.00000000000E+00 -0.15660922246E+04  0.15660922246E+04  0.25500000000E-02 0.  1.
    8880023    1    1    2    0    0  0.11328486524E+04  0.15362495613E+04  0.17058524123E+04  0.26433220467E+04  0.65864270000E+03 0. -1.
    8880022    1    1    2    0    0 -0.11328486524E+04 -0.15362495613E+04 -0.26198681340E+03  0.19327280014E+04  0.15294330000E+03 0.  1.
<mgrwt>
<rscale>  0 0.19926105E+04</rscale>
<asrwt>0</asrwt>
<pdfrwt beam="1">  1        2 0.46307043E+00 0.20192125E+04</pdfrwt>
<pdfrwt beam="2">  1       -2 0.24093727E+00 0.20192125E+04</pdfrwt>
<totfact> 0.11131034E-01</totfact>
</mgrwt>
</event>
<event>
 4    1  0.5223852E-007  0.6729202E+03  0.7818608E-02  0.1013650E+00
          2   -1    0    0  501    0  0.00000000000E+00  0.00000000000E+00  0.12504327172E+04  0.12504327172E+04  0.25500000000E-02 0. -1.
         -2   -1    0    0    0  501 -0.00000000000E+00 -0.00000000000E+00 -0.38419393099E+03  0.38419393100E+03  0.25500000000E-02 0.  1.
    8880023    1    1    2    0    0 -0.10067239408E+03 -0.94215313712E+02 -0.69498533443E+02  0.67649959991E+03  0.65864270000E+03 0.  1.
    8880022    1    1    2    0    0  0.10067239408E+03  0.94215313712E+02  0.93573731966E+03  0.95812704830E+03  0.15294330000E+03 0.  0.
<mgrwt>
<rscale>  0 0.50049231E+03</rscale>
<asrwt>0</asrwt>
<pdfrwt beam="1">  1        2 0.19237427E+00 0.67292025E+03</pdfrwt>
<pdfrwt beam="2">  1       -2 0.59106757E-01 0.67292025E+03</pdfrwt>
<totfact> 0.48510016E+01</totfact>
</mgrwt>
</event>
<event>
 4    1  0.5223852E-007  0.6671231E+03  0.7818608E-02  0.1017815E+00
         -2   -1    0    0    0  501 -0.00000000000E+00  0.00000000000E+00  0.84103655975E+03  0.84103655975E+03  0.25500000000E-02 0.  1.
          2   -1    0    0  501    0  0.00000000000E+00 -0.00000000000E+00 -0.22466823594E+03  0.22466823596E+03  0.25500000000E-02 0. -1.
    8880023    1    1    2    0    0 -0.78066433203E+02 -0.71753751371E+02  0.56068947647E+03  0.87145043698E+03  0.65864270000E+03 0.  1.
    8880022    1    1    2    0    0  0.78066433203E+02  0.71753751371E+02  0.55678847336E+02  0.19425435873E+03  0.15294330000E+03 0. -1.
<mgrwt>
<rscale>  0 0.48483423E+03</rscale>
<asrwt>0</asrwt>
<pdfrwt beam="1">  1        2 0.34564344E-01 0.66712306E+03</pdfrwt>
<pdfrwt beam="2">  1       -2 0.12939024E+00 0.66712306E+03</pdfrwt>
<totfact> 0.67612234E+01</totfact>
</mgrwt>
</event>
<event>
 4    1  0.5223852E-007  0.9872194E+03  0.7818608E-02  0.9398473E-01
          2   -1    0    0  501    0  0.00000000000E+00  0.00000000000E+00  0.12228770049E+04  0.12228770049E+04  0.25500000000E-02 0. -1.
         -2   -1    0    0    0  501 -0.00000000000E+00 -0.00000000000E+00 -0.67457445589E+03  0.67457445590E+03  0.25500000000E-02 0.  1.
    8880023    1    1    2    0    0  0.71028224640E+03 -0.19050203081E+03  0.35280090472E+02  0.98784957576E+03  0.65864270000E+03 0.  1.
    8880022    1    1    2    0    0 -0.71028224640E+03  0.19050203081E+03  0.51302245854E+03  0.90960188504E+03  0.15294330000E+03 0. -1.
<mgrwt>
<rscale>  0 0.92201462E+03</rscale>
<asrwt>0</asrwt>
<pdfrwt beam="1">  1        2 0.18813492E+00 0.98721938E+03</pdfrwt>
<pdfrwt beam="2">  1       -2 0.10378069E+00 0.98721938E+03</pdfrwt>
<totfact> 0.13807171E+01</totfact>
</mgrwt>
</event>
<event>
 4    1  0.5223852E-007  0.7266083E+03  0.7818608E-02  0.9900829E-01
          2   -1    0    0  501    0  0.00000000000E+00  0.00000000000E+00  0.15329991471E+04  0.15329991471E+04  0.25500000000E-02 0. -1.
         -2   -1    0    0    0  501 -0.00000000000E+00 -0.00000000000E+00 -0.32061295659E+03  0.32061295660E+03  0.25500000000E-02 0.  1.
    8880023    1    1    2    0    0  0.21849413280E+03 -0.21542934047E+03  0.15624444678E+03  0.74321734386E+03  0.65864270000E+03 0.  1.
    8880022    1    1    2    0    0 -0.21849413280E+03  0.21542934047E+03  0.10561417438E+04  0.11103947599E+04  0.15294330000E+03 0.  0.
<mgrwt>
<rscale>  0 0.60221147E+03</rscale>
<asrwt>0</asrwt>
<pdfrwt beam="1">  1        2 0.23584602E+00 0.72660835E+03</pdfrwt>
<pdfrwt beam="2">  1       -2 0.49325070E-01 0.72660835E+03</pdfrwt>
<totfact> 0.48492827E+01</totfact>
</mgrwt>
</event>
<event>
 4    1  0.5223852E-007  0.7170206E+03  0.7818608E-02  0.9932799E-01
         -2   -1    0    0    0  501 -0.00000000000E+00  0.00000000000E+00  0.56723252875E+03  0.56723252876E+03  0.25500000000E-02 0.  1.
          2   -1    0    0  501    0  0.00000000000E+00 -0.00000000000E+00 -0.19225424132E+04  0.19225424132E+04  0.25500000000E-02 0. -1.
    8880023    1    1    2    0    0 -0.14606737059E+03 -0.24284277310E+03  0.31899884957E+03  0.78477943493E+03  0.65864270000E+03 0.  1.
    8880022    1    1    2    0    0  0.14606737059E+03  0.24284277310E+03 -0.16743087340E+04  0.17049955071E+04  0.15294330000E+03 0.  0.
<mgrwt>
<rscale>  0 0.58697692E+03</rscale>
<asrwt>0</asrwt>
<pdfrwt beam="1">  1        2 0.29577575E+00 0.71702057E+03</pdfrwt>
<pdfrwt beam="2">  1       -2 0.87266544E-01 0.71702057E+03</pdfrwt>
<totfact> 0.86967027E+00</totfact>
</mgrwt>
</event>
<event>
 4    1  0.5223852E-007  0.8798872E+03  0.7818608E-02  0.9559122E-01
         -2   -1    0    0    0  501 -0.00000000000E+00  0.00000000000E+00  0.46270389148E+03  0.46270389148E+03  0.25500000000E-02 0.  1.
          2   -1    0    0  501    0  0.00000000000E+00 -0.00000000000E+00 -0.13216083200E+04  0.13216083200E+04  0.25500000000E-02 0. -1.
    8880023    1    1    2    0    0  0.70894680274E+02  0.57910727541E+03 -0.22266644229E+03  0.90762428510E+03  0.65864270000E+03 0.  1.
    8880022    1    1    2    0    0 -0.70894680274E+02 -0.57910727541E+03 -0.63623798621E+03  0.87668792637E+03  0.15294330000E+03 0.  1.
<mgrwt>
<rscale>  0 0.80061836E+03</rscale>
<asrwt>0</asrwt>
<pdfrwt beam="1">  1        2 0.20332436E+00 0.87988721E+03</pdfrwt>
<pdfrwt beam="2">  1       -2 0.71185215E-01 0.87988721E+03</pdfrwt>
<totfact> 0.28983617E+01</totfact>
</mgrwt>
</event>
<event>
 4    1  0.5223852E-007  0.6616815E+03  0.7818608E-02  0.1022496E+00
         -2   -1    0    0    0  501 -0.00000000000E+00  0.00000000000E+00  0.58034983493E+02  0.58034983549E+02  0.25500000000E-02 0.  1.
          2   -1    0    0  501    0  0.00000000000E+00 -0.00000000000E+00 -0.30280825812E+04  0.30280825812E+04  0.25500000000E-02 0. -1.
    8880023    1    1    2    0    0 -0.16214017334E+02 -0.61231058401E+02 -0.21495048933E+04  0.22490428252E+04  0.65864270000E+03 0.  1.
    8880022    1    1    2    0    0  0.16214017334E+02  0.61231058401E+02 -0.82054270440E+03  0.83707473958E+03  0.15294330000E+03 0.  1.
<mgrwt>
<rscale>  0 0.46796465E+03</rscale>
<asrwt>0</asrwt>
<pdfrwt beam="1">  1        2 0.46585874E+00 0.66168145E+03</pdfrwt>
<pdfrwt beam="2">  1       -2 0.89284613E-02 0.66168145E+03</pdfrwt>
<totfact> 0.14729519E+02</totfact>
</mgrwt>
</event>
<event>
 4    1  0.5223852E-007  0.8411962E+03  0.7818608E-02  0.9627929E-01
         -2   -1    0    0    0  501 -0.00000000000E+00  0.00000000000E+00  0.49673373228E+03  0.49673373229E+03  0.25500000000E-02 0.  1.
          2   -1    0    0  501    0  0.00000000000E+00 -0.00000000000E+00 -0.19973072810E+04  0.19973072810E+04  0.25500000000E-02 0. -1.
    8880023    1    1    2    0    0 -0.51398700066E+03  0.98072308328E+02  0.57687151587E+02  0.84317188534E+03  0.65864270000E+03 0.  1.
    8880022    1    1    2    0    0  0.51398700066E+03 -0.98072308328E+02 -0.15582607003E+04  0.16508691280E+04  0.15294330000E+03 0.  0.
<mgrwt>
<rscale>  0 0.75474926E+03</rscale>
<asrwt>0</asrwt>
<pdfrwt beam="1">  1        2 0.30727804E+00 0.84119618E+03</pdfrwt>
<pdfrwt beam="2">  1       -2 0.76420575E-01 0.84119618E+03</pdfrwt>
<totfact> 0.10493497E+01</totfact>
</mgrwt>
</event>
<event>
 4    1  0.5223852E-007  0.6651979E+03  0.7818608E-02  0.1019368E+00
         -2   -1    0    0    0  501 -0.00000000000E+00  0.00000000000E+00  0.54701296613E+03  0.54701296614E+03  0.25500000000E-02 0.  1.
          2   -1    0    0  501    0  0.00000000000E+00 -0.00000000000E+00 -0.27003588679E+04  0.27003588679E+04  0.25500000000E-02 0. -1.
    8880023    1    1    2    0    0  0.88467862760E+02  0.29179431055E+02  0.34037868839E+03  0.74722544102E+03  0.65864270000E+03 0.  1.
    8880022    1    1    2    0    0 -0.88467862760E+02 -0.29179431055E+02 -0.24937245902E+04  0.25001463930E+04  0.15294330000E+03 0.  0.
<mgrwt>
<rscale>  0 0.47915379E+03</rscale>
<asrwt>0</asrwt>
<pdfrwt beam="1">  1        2 0.41543982E+00 0.66519787E+03</pdfrwt>
<pdfrwt beam="2">  1       -2 0.84155843E-01 0.66519787E+03</pdfrwt>
<totfact> 0.35173561E+00</totfact>
</mgrwt>
</event>
<event>
 4    1  0.5223852E-007  0.9705075E+03  0.7818608E-02  0.9421203E-01
         -2   -1    0    0    0  501 -0.00000000000E+00  0.00000000000E+00  0.60541279847E+03  0.60541279848E+03  0.25500000000E-02 0.  1.
          2   -1    0    0  501    0  0.00000000000E+00 -0.00000000000E+00 -0.15444484775E+04  0.15444484775E+04  0.25500000000E-02 0. -1.
    8880023    1    1    2    0    0 -0.20730473395E+03  0.68198191948E+03 -0.12088248744E+02  0.97058277505E+03  0.65864270000E+03 0.  0.
    8880022    1    1    2    0    0  0.20730473395E+03 -0.68198191948E+03 -0.92694743026E+03  0.11792785009E+04  0.15294330000E+03 0.  0.
<mgrwt>
<rscale>  0 0.90351139E+03</rscale>
<asrwt>0</asrwt>
<pdfrwt beam="1">  1        2 0.23760746E+00 0.97050749E+03</pdfrwt>
<pdfrwt beam="2">  1       -2 0.93140431E-01 0.97050749E+03</pdfrwt>
<totfact> 0.11686550E+01</totfact>
</mgrwt>
</event>
<event>
 4    1  0.5223852E-007  0.6669284E+03  0.7818608E-02  0.1017968E+00
         -2   -1    0    0    0  501 -0.00000000000E+00  0.00000000000E+00  0.13372913136E+03  0.13372913138E+03  0.25500000000E-02 0.  1.
          2   -1    0    0  501    0  0.00000000000E+00 -0.00000000000E+00 -0.19905200984E+04  0.19905200984E+04  0.25500000000E-02 0. -1.
    8880023    1    1    2    0    0  0.75384915089E+02 -0.72803987694E+02 -0.75675410180E+03  0.10086973198E+04  0.65864270000E+03 0.  1.
    8880022    1    1    2    0    0 -0.75384915089E+02  0.72803987694E+02 -0.11000368652E+04  0.11155519100E+04  0.15294330000E+03 0.  0.
<mgrwt>
<rscale>  0 0.48427237E+03</rscale>
<asrwt>0</asrwt>
<pdfrwt beam="1">  1        2 0.30623384E+00 0.66692842E+03</pdfrwt>
<pdfrwt beam="2">  1       -2 0.20573714E-01 0.66692842E+03</pdfrwt>
<totfact> 0.14191633E+02</totfact>
</mgrwt>
</event>
<event>
 4    1  0.5223852E-007  0.1387046E+04  0.7818608E-02  0.8993815E-01
         -2   -1    0    0    0  501 -0.00000000000E+00  0.00000000000E+00  0.74851329176E+03  0.74851329176E+03  0.25500000000E-02 0.  1.
          2   -1    0    0  501    0  0.00000000000E+00 -0.00000000000E+00 -0.27244672494E+04  0.27244672494E+04  0.25500000000E-02 0. -1.
    8880023    1    1    2    0    0 -0.11597063452E+04 -0.38100695500E+03 -0.17317369970E+04  0.22187402597E+04  0.65864270000E+03 0. -1.
    8880022    1    1    2    0    0  0.11597063452E+04  0.38100695500E+03 -0.24421696072E+03  0.12542402815E+04  0.15294330000E+03 0.  0.
<mgrwt>
<rscale>  0 0.13460618E+04</rscale>
<asrwt>0</asrwt>
<pdfrwt beam="1">  1        2 0.41914880E+00 0.13870455E+04</pdfrwt>
<pdfrwt beam="2">  1       -2 0.11515589E+00 0.13870455E+04</pdfrwt>
<totfact> 0.14530976E+00</totfact>
</mgrwt>
</event>
<event>
 4    1  0.5223852E-007  0.1009505E+04  0.7818608E-02  0.9369226E-01
          2   -1    0    0  501    0  0.00000000000E+00  0.00000000000E+00  0.19746297362E+04  0.19746297362E+04  0.25500000000E-02 0. -1.
         -2   -1    0    0    0  501 -0.00000000000E+00 -0.00000000000E+00 -0.52213270901E+03  0.52213270902E+03  0.25500000000E-02 0.  1.
    8880023    1    1    2    0    0 -0.75556303055E+03 -0.12006377232E+03  0.13847287314E+04  0.17136436819E+04  0.65864270000E+03 0. -1.
    8880022    1    1    2    0    0  0.75556303055E+03  0.12006377232E+03  0.67768295762E+02  0.78311876333E+03  0.15294330000E+03 0.  0.
<mgrwt>
<rscale>  0 0.94652112E+03</rscale>
<asrwt>0</asrwt>
<pdfrwt beam="1">  1        2 0.30378919E+00 0.10095053E+04</pdfrwt>
<pdfrwt beam="2">  1       -2 0.80328109E-01 0.10095053E+04</pdfrwt>
<totfact> 0.94598914E+00</totfact>
</mgrwt>
</event>
<event>
 4    1  0.5223852E-007  0.9549074E+03  0.7818608E-02  0.9443088E-01
          2   -1    0    0  501    0  0.00000000000E+00  0.00000000000E+00  0.23557552268E+04  0.23557552268E+04  0.25500000000E-02 0. -1.
         -2   -1    0    0    0  501 -0.00000000000E+00 -0.00000000000E+00 -0.17176564604E+04  0.17176564604E+04  0.25500000000E-02 0.  1.
    8880023    1    1    2    0    0  0.80804598395E+02 -0.68666475768E+03 -0.15239202855E+04  0.17983829168E+04  0.65864270000E+03 0.  0.
    8880022    1    1    2    0    0 -0.80804598395E+02  0.68666475768E+03  0.21620190519E+04  0.22750287704E+04  0.15294330000E+03 0.  0.
<mgrwt>
<rscale>  0 0.88612945E+03</rscale>
<asrwt>0</asrwt>
<pdfrwt beam="1">  1        2 0.36242388E+00 0.95490737E+03</pdfrwt>
<pdfrwt beam="2">  1       -2 0.26425484E+00 0.95490737E+03</pdfrwt>
<totfact> 0.22576114E-01</totfact>
</mgrwt>
</event>
<event>
 4    1  0.5223852E-007  0.6740471E+03  0.7818608E-02  0.1012914E+00
          2   -1    0    0  501    0  0.00000000000E+00  0.00000000000E+00  0.24440010721E+04  0.24440010721E+04  0.25500000000E-02 0. -1.
         -2   -1    0    0    0  501 -0.00000000000E+00 -0.00000000000E+00 -0.48294619601E+03  0.48294619601E+03  0.25500000000E-02 0.  1.
    8880023    1    1    2    0    0 -0.10706320489E+03 -0.95219627362E+02 -0.24032916743E+03  0.71560996518E+03  0.65864270000E+03 0.  0.
    8880022    1    1    2    0    0  0.10706320489E+03  0.95219627362E+02  0.22013840435E+04  0.22113373029E+04  0.15294330000E+03 0.  0.
<mgrwt>
<rscale>  0 0.50332867E+03</rscale>
<asrwt>0</asrwt>
<pdfrwt beam="1">  1        2 0.37600016E+00 0.67404712E+03</pdfrwt>
<pdfrwt beam="2">  1       -2 0.74299416E-01 0.67404712E+03</pdfrwt>
<totfact> 0.64974586E+00</totfact>
</mgrwt>
</event>
<event>
 4    1  0.5223852E-007  0.6821299E+03  0.7818608E-02  0.1008144E+00
          2   -1    0    0  501    0  0.00000000000E+00  0.00000000000E+00  0.17495927616E+04  0.17495927616E+04  0.25500000000E-02 0. -1.
         -2   -1    0    0    0  501 -0.00000000000E+00 -0.00000000000E+00 -0.21380120949E+03  0.21380120951E+03  0.25500000000E-02 0.  1.
    8880023    1    1    2    0    0 -0.21190351818E+02 -0.17618744865E+03  0.37342675254E+03  0.77765596111E+03  0.65864270000E+03 0.  1.
    8880022    1    1    2    0    0  0.21190351818E+02  0.17618744865E+03  0.11623647996E+04  0.11857380100E+04  0.15294330000E+03 0.  0.
<mgrwt>
<rscale>  0 0.52219146E+03</rscale>
<asrwt>0</asrwt>
<pdfrwt beam="1">  1        2 0.26916811E+00 0.68212994E+03</pdfrwt>
<pdfrwt beam="2">  1       -2 0.32892495E-01 0.68212994E+03</pdfrwt>
<totfact> 0.81766830E+01</totfact>
</mgrwt>
</event>
<event>
 4    1  0.5223852E-007  0.7168800E+03  0.7818608E-02  0.9933288E-01
         -2   -1    0    0    0  501 -0.00000000000E+00  0.00000000000E+00  0.43846443602E+03  0.43846443603E+03  0.25500000000E-02 0.  1.
          2   -1    0    0  501    0  0.00000000000E+00 -0.00000000000E+00 -0.67188653135E+03  0.67188653136E+03  0.25500000000E-02 0. -1.
    8880023    1    1    2    0    0 -0.16723975617E+03  0.22833658290E+03 -0.69390046739E+01  0.71691358418E+03  0.65864270000E+03 0.  1.
    8880022    1    1    2    0    0  0.16723975617E+03 -0.22833658290E+03 -0.22648309066E+03  0.39343738321E+03  0.15294330000E+03 0.  0.
<mgrwt>
<rscale>  0 0.58674790E+03</rscale>
<asrwt>0</asrwt>
<pdfrwt beam="1">  1        2 0.10336716E+00 0.71688000E+03</pdfrwt>
<pdfrwt beam="2">  1       -2 0.67456067E-01 0.71688000E+03</pdfrwt>
<totfact> 0.88168681E+01</totfact>
</mgrwt>
</event>
<event>
 4    1  0.5223852E-007  0.8681286E+03  0.7818608E-02  0.9579265E-01
         -2   -1    0    0    0  501 -0.00000000000E+00  0.00000000000E+00  0.25433240134E+04  0.25433240134E+04  0.25500000000E-02 0.  1.
          2   -1    0    0  501    0  0.00000000000E+00 -0.00000000000E+00 -0.39403741283E+03  0.39403741284E+03  0.25500000000E-02 0. -1.
    8880023    1    1    2    0    0 -0.47186242376E+03  0.31174171930E+03  0.21842662387E+04  0.23504608600E+04  0.65864270000E+03 0.  1.
    8880022    1    1    2    0    0  0.47186242376E+03 -0.31174171930E+03 -0.34979638187E+02  0.58690056621E+03  0.15294330000E+03 0. -1.
<mgrwt>
<rscale>  0 0.78683921E+03</rscale>
<asrwt>0</asrwt>
<pdfrwt beam="1">  1        2 0.60621139E-01 0.86812859E+03</pdfrwt>
<pdfrwt beam="2">  1       -2 0.39128063E+00 0.86812859E+03</pdfrwt>
<totfact> 0.71202228E-01</totfact>
</mgrwt>
</event>
<event>
 4    1  0.5223852E-007  0.6718342E+03  0.7818608E-02  0.1014381E+00
         -2   -1    0    0    0  501 -0.00000000000E+00  0.00000000000E+00  0.66007714907E+02  0.66007714956E+02  0.25500000000E-02 0.  1.
          2   -1    0    0  501    0  0.00000000000E+00 -0.00000000000E+00 -0.33720554225E+04  0.33720554225E+04  0.25500000000E-02 0. -1.
    8880023    1    1    2    0    0 -0.12357901431E+03  0.47740982790E+02 -0.18537600377E+04  0.19717473108E+04  0.65864270000E+03 0.  1.
    8880022    1    1    2    0    0  0.12357901431E+03 -0.47740982790E+02 -0.14522876699E+04  0.14663158266E+04  0.15294330000E+03 0.  0.
<mgrwt>
<rscale>  0 0.49770103E+03</rscale>
<asrwt>0</asrwt>
<pdfrwt beam="1">  1        2 0.51877762E+00 0.67183419E+03</pdfrwt>
<pdfrwt beam="2">  1       -2 0.10155036E-01 0.67183419E+03</pdfrwt>
<totfact> 0.72211916E+01</totfact>
</mgrwt>
</event>
<event>
 4    1  0.5223852E-007  0.7231476E+03  0.7818608E-02  0.9912076E-01
         -2   -1    0    0    0  501 -0.00000000000E+00  0.00000000000E+00  0.10381052678E+04  0.10381052678E+04  0.25500000000E-02 0.  1.
          2   -1    0    0  501    0  0.00000000000E+00 -0.00000000000E+00 -0.75215885654E+03  0.75215885655E+03  0.25500000000E-02 0. -1.
    8880023    1    1    2    0    0 -0.29851796544E+03 -0.43933155440E+01  0.86107903738E+03  0.11244552422E+04  0.65864270000E+03 0.  0.
    8880022    1    1    2    0    0  0.29851796544E+03  0.43933155440E+01 -0.57513262610E+03  0.66580888214E+03  0.15294330000E+03 0.  0.
<mgrwt>
<rscale>  0 0.59679590E+03</rscale>
<asrwt>0</asrwt>
<pdfrwt beam="1">  1        2 0.11571675E+00 0.72314762E+03</pdfrwt>
<pdfrwt beam="2">  1       -2 0.15970850E+00 0.72314762E+03</pdfrwt>
<totfact> 0.96431633E+00</totfact>
</mgrwt>
</event>
<event>
 4    1  0.5223852E-007  0.7567657E+03  0.7818608E-02  0.9813554E-01
          2   -1    0    0  501    0  0.00000000000E+00  0.00000000000E+00  0.20583832492E+04  0.20583832492E+04  0.25500000000E-02 0. -1.
         -2   -1    0    0    0  501 -0.00000000000E+00 -0.00000000000E+00 -0.77076877593E+03  0.77076877593E+03  0.25500000000E-02 0.  1.
    8880023    1    1    2    0    0  0.36765449028E+03 -0.60945483672E+02 -0.55789983394E+03  0.94018434744E+03  0.65864270000E+03 0.  1.
    8880022    1    1    2    0    0 -0.36765449028E+03  0.60945483672E+02  0.18455143072E+04  0.18889676776E+04  0.15294330000E+03 0.  0.
<mgrwt>
<rscale>  0 0.64640220E+03</rscale>
<asrwt>0</asrwt>
<pdfrwt beam="1">  1        2 0.31667435E+00 0.75676574E+03</pdfrwt>
<pdfrwt beam="2">  1       -2 0.11857981E+00 0.75676574E+03</pdfrwt>
<totfact> 0.35149255E+00</totfact>
</mgrwt>
</event>
<event>
 4    1  0.5223852E-007  0.9109555E+03  0.7818608E-02  0.9508669E-01
          2   -1    0    0  501    0  0.00000000000E+00  0.00000000000E+00  0.32753919070E+04  0.32753919070E+04  0.25500000000E-02 0. -1.
         -2   -1    0    0    0  501 -0.00000000000E+00 -0.00000000000E+00 -0.28096178866E+03  0.28096178867E+03  0.25500000000E-02 0.  1.
    8880023    1    1    2    0    0  0.28303629706E+03  0.56206772802E+03  0.63698797608E+03  0.11115725637E+04  0.65864270000E+03 0.  1.
    8880022    1    1    2    0    0 -0.28303629706E+03 -0.56206772802E+03  0.23574421423E+04  0.24447811320E+04  0.15294330000E+03 0.  0.
<mgrwt>
<rscale>  0 0.83647733E+03</rscale>
<asrwt>0</asrwt>
<pdfrwt beam="1">  1        2 0.50390647E+00 0.91095548E+03</pdfrwt>
<pdfrwt beam="2">  1       -2 0.43224889E-01 0.91095548E+03</pdfrwt>
<totfact> 0.61309482E+00</totfact>
</mgrwt>
</event>
<event>
 4    1  0.5223852E-007  0.7198628E+03  0.7818608E-02  0.9923050E-01
         -2   -1    0    0    0  501 -0.00000000000E+00  0.00000000000E+00  0.60138015409E+03  0.60138015410E+03  0.25500000000E-02 0.  1.
          2   -1    0    0  501    0  0.00000000000E+00 -0.00000000000E+00 -0.64876870793E+03  0.64876870793E+03  0.25500000000E-02 0. -1.
    8880023    1    1    2    0    0  0.17230651639E+03 -0.23388611870E+03  0.29302437186E+03  0.77721666276E+03  0.65864270000E+03 0.  1.
    8880022    1    1    2    0    0 -0.17230651639E+03  0.23388611870E+03 -0.34041292569E+03  0.47293219927E+03  0.15294330000E+03 0.  0.
<mgrwt>
<rscale>  0 0.59157054E+03</rscale>
<asrwt>0</asrwt>
<pdfrwt beam="1">  1        2 0.99810570E-01 0.71986281E+03</pdfrwt>
<pdfrwt beam="2">  1       -2 0.92520024E-01 0.71986281E+03</pdfrwt>
<totfact> 0.45347228E+01</totfact>
</mgrwt>
</event>
<event>
 4    1  0.5223852E-007  0.8927370E+03  0.7818608E-02  0.9537793E-01
         -2   -1    0    0    0  501 -0.00000000000E+00  0.00000000000E+00  0.12922296866E+04  0.12922296866E+04  0.25500000000E-02 0.  1.
          2   -1    0    0  501    0  0.00000000000E+00 -0.00000000000E+00 -0.61100412477E+03  0.61100412477E+03  0.25500000000E-02 0. -1.
    8880023    1    1    2    0    0 -0.27220799699E+03  0.53765418333E+03 -0.10720438542E+03  0.89915082216E+03  0.65864270000E+03 0.  0.
    8880022    1    1    2    0    0  0.27220799699E+03 -0.53765418333E+03  0.78842994723E+03  0.10040829892E+04  0.15294330000E+03 0.  0.
<mgrwt>
<rscale>  0 0.81553931E+03</rscale>
<asrwt>0</asrwt>
<pdfrwt beam="1">  1        2 0.94000635E-01 0.89273704E+03</pdfrwt>
<pdfrwt beam="2">  1       -2 0.19880457E+00 0.89273704E+03</pdfrwt>
<totfact> 0.65982644E+00</totfact>
</mgrwt>
</event>
<event>
 4    1  0.5223852E-007  0.8507218E+03  0.7818608E-02  0.9610286E-01
         -2   -1    0    0    0  501 -0.00000000000E+00  0.00000000000E+00  0.10913181899E+04  0.10913181899E+04  0.25500000000E-02 0.  1.
          2   -1    0    0  501    0  0.00000000000E+00 -0.00000000000E+00 -0.15838219451E+04  0.15838219451E+04  0.25500000000E-02 0. -1.
    8880023    1    1    2    0    0  0.19054277017E+03 -0.50359787895E+03  0.86104298166E+03  0.12104224855E+04  0.65864270000E+03 0.  1.
    8880022    1    1    2    0    0 -0.19054277017E+03  0.50359787895E+03 -0.13535467368E+04  0.14647176495E+04  0.15294330000E+03 0.  0.
<mgrwt>
<rscale>  0 0.76619142E+03</rscale>
<asrwt>0</asrwt>
<pdfrwt beam="1">  1        2 0.24366491E+00 0.85072180E+03</pdfrwt>
<pdfrwt beam="2">  1       -2 0.16789511E+00 0.85072180E+03</pdfrwt>
<totfact> 0.25465760E+00</totfact>
</mgrwt>
</event>
<event>
 4    1  0.5223852E-007  0.7097908E+03  0.7818608E-02  0.9958779E-01
         -2   -1    0    0    0  501 -0.00000000000E+00  0.00000000000E+00  0.85176079698E+03  0.85176079698E+03  0.25500000000E-02 0.  1.
          2   -1    0    0  501    0  0.00000000000E+00 -0.00000000000E+00 -0.55054027450E+03  0.55054027450E+03  0.25500000000E-02 0. -1.
    8880023    1    1    2    0    0 -0.22429773728E+03 -0.14029731028E+03  0.63313238586E+03  0.95113597057E+03  0.65864270000E+03 0.  0.
    8880022    1    1    2    0    0  0.22429773728E+03  0.14029731028E+03 -0.33191186338E+03  0.45116510092E+03  0.15294330000E+03 0.  0.
<mgrwt>
<rscale>  0 0.57495270E+03</rscale>
<asrwt>0</asrwt>
<pdfrwt beam="1">  1        2 0.84698505E-01 0.70979083E+03</pdfrwt>
<pdfrwt beam="2">  1       -2 0.13104012E+00 0.70979083E+03</pdfrwt>
<totfact> 0.23789467E+01</totfact>
</mgrwt>
</event>
<event>
 4    1  0.5223852E-007  0.7074866E+03  0.7818608E-02  0.9967455E-01
          2   -1    0    0  501    0  0.00000000000E+00  0.00000000000E+00  0.28379388228E+04  0.28379388228E+04  0.25500000000E-02 0. -1.
         -2   -1    0    0    0  501 -0.00000000000E+00 -0.00000000000E+00 -0.11353639391E+03  0.11353639393E+03  0.25500000000E-02 0.  1.
    8880023    1    1    2    0    0  0.21296516365E+02  0.25743658450E+03  0.11615303215E+04  0.13600330991E+04  0.65864270000E+03 0.  0.
    8880022    1    1    2    0    0 -0.21296516365E+02 -0.25743658450E+03  0.15628721074E+04  0.15914421177E+04  0.15294330000E+03 0.  0.
<mgrwt>
<rscale>  0 0.57100591E+03</rscale>
<asrwt>0</asrwt>
<pdfrwt beam="1">  1        2 0.43660596E+00 0.70748664E+03</pdfrwt>
<pdfrwt beam="2">  1       -2 0.17467138E-01 0.70748664E+03</pdfrwt>
<totfact> 0.62540129E+01</totfact>
</mgrwt>
</event>
<event>
 4    1  0.5223852E-007  0.1003597E+04  0.7818608E-02  0.9376867E-01
         -2   -1    0    0    0  501 -0.00000000000E+00  0.00000000000E+00  0.50586429928E+03  0.50586429929E+03  0.25500000000E-02 0.  1.
          2   -1    0    0  501    0  0.00000000000E+00 -0.00000000000E+00 -0.22737651784E+04  0.22737651784E+04  0.25500000000E-02 0. -1.
    8880023    1    1    2    0    0 -0.34760601998E+03 -0.67273108112E+03 -0.18811455904E+03  0.10210750933E+04  0.65864270000E+03 0.  0.
    8880022    1    1    2    0    0  0.34760601998E+03  0.67273108112E+03 -0.15797863201E+04  0.17585543844E+04  0.15294330000E+03 0. -1.
<mgrwt>
<rscale>  0 0.94004175E+03</rscale>
<asrwt>0</asrwt>
<pdfrwt beam="1">  1        2 0.34981002E+00 0.10035972E+04</pdfrwt>
<pdfrwt beam="2">  1       -2 0.77825278E-01 0.10035972E+04</pdfrwt>
<totfact> 0.69401550E+00</totfact>
</mgrwt>
</event>
<event>
 4    1  0.5223852E-007  0.6770783E+03  0.7818608E-02  0.1011027E+00
         -2   -1    0    0    0  501 -0.00000000000E+00  0.00000000000E+00  0.21017033413E+03  0.21017033415E+03  0.25500000000E-02 0.  1.
          2   -1    0    0  501    0  0.00000000000E+00 -0.00000000000E+00 -0.12236399577E+04  0.12236399577E+04  0.25500000000E-02 0. -1.
    8880023    1    1    2    0    0  0.12480180390E+01  0.15691801045E+03 -0.40941088280E+03  0.79123466606E+03  0.65864270000E+03 0.  1.
    8880022    1    1    2    0    0 -0.12480180390E+01 -0.15691801045E+03 -0.60405874082E+03  0.64257562584E+03  0.15294330000E+03 0.  0.
<mgrwt>
<rscale>  0 0.51068483E+03</rscale>
<asrwt>0</asrwt>
<pdfrwt beam="1">  1        2 0.18825230E+00 0.67707830E+03</pdfrwt>
<pdfrwt beam="2">  1       -2 0.32333898E-01 0.67707830E+03</pdfrwt>
<totfact> 0.16625984E+02</totfact>
</mgrwt>
</event>
<event>
 4    1  0.5223852E-007  0.6923852E+03  0.7818608E-02  0.1003039E+00
          2   -1    0    0  501    0  0.00000000000E+00  0.00000000000E+00  0.14234608283E+04  0.14234608283E+04  0.25500000000E-02 0. -1.
         -2   -1    0    0    0  501 -0.00000000000E+00 -0.00000000000E+00 -0.40729573212E+03  0.40729573213E+03  0.25500000000E-02 0.  1.
    8880023    1    1    2    0    0 -0.19888162474E+00  0.21351102819E+03 -0.86023257296E+02  0.69770853927E+03  0.65864270000E+03 0.  0.
    8880022    1    1    2    0    0  0.19888162474E+00 -0.21351102819E+03  0.11021883534E+04  0.11330480211E+04  0.15294330000E+03 0.  0.
<mgrwt>
<rscale>  0 0.54337562E+03</rscale>
<asrwt>0</asrwt>
<pdfrwt beam="1">  1        2 0.21899397E+00 0.69238516E+03</pdfrwt>
<pdfrwt beam="2">  1       -2 0.62660882E-01 0.69238516E+03</pdfrwt>
<totfact> 0.34078816E+01</totfact>
</mgrwt>
</event>
<event>
 4    1  0.5223852E-007  0.1461659E+04  0.7818608E-02  0.8937195E-01
         -2   -1    0    0    0  501 -0.00000000000E+00  0.00000000000E+00  0.95046880010E+03  0.95046880010E+03  0.25500000000E-02 0.  1.
          2   -1    0    0  501    0  0.00000000000E+00 -0.00000000000E+00 -0.23691286505E+04  0.23691286505E+04  0.25500000000E-02 0. -1.
    8880023    1    1    2    0    0  0.12915585295E+04  0.18578014612E+03 -0.13724349349E+04  0.20050001383E+04  0.65864270000E+03 0.  0.
    8880022    1    1    2    0    0 -0.12915585295E+04 -0.18578014612E+03 -0.46224915487E+02  0.13145973123E+04  0.15294330000E+03 0.  0.
<mgrwt>
<rscale>  0 0.14231990E+04</rscale>
<asrwt>0</asrwt>
<pdfrwt beam="1">  1        2 0.36448133E+00 0.14616593E+04</pdfrwt>
<pdfrwt beam="2">  1       -2 0.14622597E+00 0.14616593E+04</pdfrwt>
<totfact> 0.12589638E+00</totfact>
</mgrwt>
</event>
